Title
19942
    1ASP      N    1   1.956   3.143   3.010  0.0646 -0.5411 -0.4428
    1ASP    HT1    2   1.952   3.217   2.936  0.4778 -1.3544 -1.2967
    1ASP    HT2    3   1.928   3.050   2.975 -1.0487 -0.8109  1.0832
    1ASP    HT3    4   2.051   3.140   3.051 -0.4241  1.0180  0.9177
    1ASP     CA    5   1.873   3.188   3.120  0.0069  0.2539 -0.5206
    1ASP     HA    6   1.774   3.194   3.077  0.6850  0.8019 -2.1155
    1ASP     CB    7   1.850   3.082   3.225  0.1494  0.1412 -0.5795
    1ASP    HB1    8   1.797   3.109   3.319 -0.8885 -0.1766 -1.0617
    1ASP    HB2    9   1.949   3.052   3.265 -0.3859  1.0354  1.5486
    1ASP     CG   10   1.790   2.958   3.170  0.6692  0.0714 -0.2072
    1ASP    OD1   11   1.772   2.953   3.048  0.1246  1.1913 -0.6798
    1ASP    OD2   12   1.758   2.868   3.249 -0.0392 -0.7698 -0.9878
    1ASP      C   13   1.927   3.317   3.185  0.2098  0.7770 -0.1020
    1ASP      O   14   1.962   3.407   3.112  0.4771  0.2198 -0.2853
    2ALA      N   15   1.925   3.336   3.324  0.4273 -0.0058 -0.1142
    2ALA     HN   16   1.906   3.269   3.395 -0.3366  1.5551  1.2162
    2ALA     CA   17   1.951   3.467   3.376  0.2392 -0.0630 -0.3011
    2ALA     HA   18   1.947   3.538   3.295 -0.2050 -0.7244 -0.8666
    2ALA     CB   19   1.857   3.505   3.486  0.3762  0.4637  0.0722
    2ALA    HB1   20   1.880   3.447   3.578  1.0184  0.5506 -0.0328
    2ALA    HB2   21   1.747   3.498   3.470 -0.0926  1.5152  2.3516
    2ALA    HB3   22   1.873   3.613   3.509  0.8087  0.7707 -1.5860
    2ALA      C   23   2.097   3.484   3.417  0.0230  0.0674 -0.0849
    2ALA      O   24   2.169   3.384   3.439  0.1829  0.2735  0.0761
    3ASP      N   25   2.145   3.609   3.430  0.3562  0.2043 -0.1153
    3ASP     HN   26   2.087   3.689   3.416  0.3532 -0.0865 -2.0828
    3ASP     CA   27   2.284   3.631   3.461  0.4426 -0.0467 -0.2754
    3ASP     HA   28   2.333   3.553   3.405  0.5288 -0.2416  0.0669
    3ASP     CB   29   2.322   3.773   3.403 -0.5478  0.3467  0.4455
    3ASP    HB1   30   2.425   3.795   3.441 -1.0054  0.3264  1.7529
    3ASP    HB2   31   2.253   3.850   3.441  0.7268  1.8570 -0.1953
    3ASP     CG   32   2.336   3.788   3.255 -0.5985 -0.5198 -0.8132
    3ASP    OD1   33   2.276   3.719   3.168 -0.2934 -0.0117 -0.0961
    3ASP    OD2   34   2.400   3.887   3.213 -0.4116  0.0591 -0.0259
    3ASP      C   35   2.309   3.606   3.615 -0.2892 -0.6434  0.3258
    3ASP      O   36   2.224   3.578   3.698  0.2536 -0.3165 -0.0510
    4GLY      N   37   2.437   3.608   3.654 -0.3349  0.4089  0.4859
    4GLY     HN   38   2.502   3.652   3.592  1.1084  0.1246  1.7481
    4GLY     CA   39   2.484   3.591   3.797 -0.8318  0.7485 -0.0148
    4GLY    HA1   40   2.592   3.593   3.795 -0.7575  1.6449  1.8756
    4GLY    HA2   41   2.428   3.510   3.842  0.2108  0.1011  0.1477
    4GLY      C   42   2.448   3.707   3.879 -0.1723 -0.1652  0.6793
    4GLY      O   43   2.363   3.784   3.844  0.0268  0.2215 -0.4076
    5PRO      N   44   2.519   3.722   3.983  0.0998 -0.6185 -1.0716
    5PRO     CD   45   2.602   3.610   4.040 -0.0361  0.7522  0.4921
    5PRO    HD1   46   2.697   3.609   3.981 -0.6877  0.5940 -0.5783
    5PRO    HD2   47   2.549   3.513   4.036 -1.7024  1.6518 -0.1699
    5PRO     CA   48   2.516   3.842   4.073  0.4951  0.2857  0.1025
    5PRO     HA   49   2.415   3.842   4.112  0.8221 -1.0856  1.0231
    5PRO     CB   50   2.616   3.802   4.187 -0.5173 -0.1624 -0.3316
    5PRO    HB1   51   2.591   3.843   4.287  0.0529 -1.3048  0.2920
    5PRO    HB2   52   2.714   3.838   4.150  0.9395 -0.1630  3.1781
    5PRO     CG   53   2.609   3.644   4.183  0.2266 -0.6601 -0.7260
    5PRO    HG1   54   2.694   3.598   4.238 -0.9856 -1.4927  0.5208
    5PRO    HG2   55   2.517   3.598   4.226  1.7160 -3.1948 -0.0199
    5PRO      C   56   2.543   3.972   4.001 -0.4365 -0.3959  0.0745
    5PRO      O   57   2.614   3.976   3.901 -0.1258  0.0198 -0.4919
    6GLY      N   58   2.487   4.081   4.050 -0.3282 -0.0229 -0.1536
    6GLY     HN   59   2.450   4.070   4.142  1.0932 -0.4754  0.3888
    6GLY     CA   60   2.503   4.213   3.990 -0.3120  0.3257  0.4097
    6GLY    HA1   61   2.451   4.282   4.055 -0.4467  1.1777 -0.5623
    6GLY    HA2   62   2.454   4.204   3.894 -2.5912  2.1578  1.3035
    6GLY      C   63   2.639   4.275   3.962  0.1639  0.3896  0.4611
    6GLY      O   64   2.742   4.250   4.025 -0.5378  0.2299 -0.2841
    7ASP      N   65   2.643   4.369   3.866  0.4171  0.2235 -0.2662
    7ASP     HN   66   2.557   4.392   3.820 -0.4888 -0.7895  0.8713
    7ASP     CA   67   2.749   4.460   3.842  0.6054  0.9243  0.8276
    7ASP     HA   68   2.840   4.402   3.836  0.2108  0.2765  1.1093
    7ASP     CB   69   2.710   4.534   3.715 -0.6830  0.2313 -0.0501
    7ASP    HB1   70   2.620   4.595   3.741 -1.1107  0.1323 -1.2555
    7ASP    HB2   71   2.682   4.455   3.643  0.2860 -1.0080  0.8837
    7ASP     CG   72   2.821   4.617   3.656  0.5516  0.0861 -0.4479
    7ASP    OD1   73   2.939   4.588   3.674  0.1766 -0.2414  1.5391
    7ASP    OD2   74   2.784   4.704   3.571 -0.5874  0.0710 -0.0278
    7ASP      C   75   2.768   4.564   3.961 -0.2240 -0.0203  0.1418
    7ASP      O   76   2.674   4.638   3.988 -0.3018  0.4938  0.0047
    8PRO      N   77   2.875   4.579   4.033 -0.4438 -0.0975  0.4675
    8PRO     CD   78   3.004   4.521   3.995  0.9648  0.0899 -1.0940
    8PRO    HD1   79   3.025   4.548   3.890 -1.7253 -0.7225 -1.9426
    8PRO    HD2   80   2.993   4.411   4.007 -1.0519  0.1739 -1.8121
    8PRO     CA   81   2.898   4.658   4.156 -0.3640  0.7045  0.1297
    8PRO     HA   82   2.804   4.652   4.209 -0.3364  0.6781  0.1758
    8PRO     CB   83   3.023   4.595   4.219  0.1427  0.6686 -0.1444
    8PRO    HB1   84   3.004   4.498   4.269 -1.6773  1.1672  0.2127
    8PRO    HB2   85   3.087   4.660   4.283  1.9354  0.7430 -1.9381
    8PRO     CG   86   3.104   4.567   4.094 -1.1330  0.4791  0.4845
    8PRO    HG1   87   3.139   4.664   4.053 -2.3385  0.5588 -0.3951
    8PRO    HG2   88   3.191   4.499   4.111  0.0932  1.8515 -0.1055
    8PRO      C   89   2.916   4.805   4.125 -0.9272 -0.5000  0.1163
    8PRO      O   90   2.957   4.880   4.213 -0.3338  0.2292 -0.0488
    9ASP      N   91   2.901   4.851   3.998  0.6549  0.0083 -0.7923
    9ASP     HN   92   2.867   4.781   3.936  1.2035  0.2429 -1.3663
    9ASP     CA   93   2.908   4.989   3.952 -0.0782  0.4796  0.1072
    9ASP     HA   94   2.995   5.035   3.997 -0.0554  1.1973 -0.6475
    9ASP     CB   95   2.922   4.989   3.793 -0.4800 -0.5521 -0.6279
    9ASP    HB1   96   2.921   5.097   3.769  0.5925 -0.5451 -0.7233
    9ASP    HB2   97   2.836   4.938   3.746  0.4069 -2.0109 -0.7524
    9ASP     CG   98   3.060   4.943   3.758 -0.0340 -0.0288  0.8035
    9ASP    OD1   99   3.085   4.873   3.653 -0.0725 -0.2342 -0.1717
    9ASP    OD2  100   3.158   4.985   3.827 -0.1184 -0.5215  0.0254
    9ASP      C  101   2.785   5.079   3.988  0.1324 -0.0507 -0.3762
    9ASP      O  102   2.792   5.202   3.993 -0.2900  0.1456 -0.1888
   10ALA      N  103   2.677   5.007   4.015  0.3128  0.1769  0.2049
   10ALA     HN  104   2.670   4.908   4.021  1.4298  0.0976  0.4276
   10ALA     CA  105   2.541   5.062   4.027 -0.2786  0.0542 -0.6460
   10ALA     HA  106   2.545   5.149   4.090  1.2306  0.6910 -1.5651
   10ALA     CB  107   2.483   5.093   3.890 -0.0623 -0.4424  0.0638
   10ALA    HB1  108   2.539   5.175   3.840  1.1358 -1.2380  0.0507
   10ALA    HB2  109   2.374   5.116   3.890  0.1826  0.9339 -1.4480
   10ALA    HB3  110   2.487   5.006   3.822 -0.1240  0.3205 -0.9477
   10ALA      C  111   2.448   4.969   4.104  0.1131  0.2091  0.0536
   10ALA      O  112   2.465   4.845   4.115 -0.3439 -0.4832  0.4223
   11GLY      N  113   2.331   5.021   4.156 -0.8354  0.4525 -0.4684
   11GLY     HN  114   2.318   5.119   4.160 -2.2041  0.3999 -2.2770
   11GLY     CA  115   2.239   4.954   4.255  0.6825  0.5170  0.1783
   11GLY    HA1  116   2.257   4.848   4.263 -0.0641  0.2459 -1.2937
   11GLY    HA2  117   2.144   4.981   4.211  0.7107  0.1556 -0.1100
   11GLY      C  118   2.244   5.024   4.387  0.3862 -0.5894 -0.2543
   11GLY    OT1  119   2.244   4.964   4.496 -0.1917 -0.3088  0.2987
   11GLY    OT2  120   2.233   5.155   4.387 -0.2230  0.3013  0.1030
   12LIT    LIT  121   3.067   5.800   3.912  0.2756  0.0296 -0.2388
   13LIT    LIT  122   5.813   2.456   0.684  0.5260  1.0074 -0.5616
   14LIT    LIT  123   2.730   1.005   3.452  0.7823  0.1310  0.2887
   15LIT    LIT  124   2.354   5.281   1.367 -0.9574 -0.1743 -0.2876
   16LIT    LIT  125   6.114   0.216   3.107 -0.9668 -0.3689 -0.5307
   17LIT    LIT  126   0.747   0.213   2.751 -1.1855 -0.2192 -0.0118
   18LIT    LIT  127   2.941   3.539   4.886  0.8072  0.5358  0.5198
   19LIT    LIT  128   2.964   4.780   3.529  0.2276  0.0610 -1.1222
   20LIT    LIT  129   5.647   3.549   1.580 -0.2965  0.1263  1.0391
   21LIT    LIT  130   1.524   0.527   3.344  0.0861  0.6879 -0.2290
   22LIT    LIT  131   3.086   3.100   2.361  0.1199  0.1217 -0.2377
   23LIT    LIT  132   2.144   5.113   4.577  0.2862 -0.0310  0.4997
   24LIT    LIT  133   2.998   0.199   4.604 -0.6113 -0.6164 -1.3395
   25LIT    LIT  134   2.151   3.746   3.032  0.0003  0.1819 -0.9806
   26LIT    LIT  135   1.572   5.536   2.193  0.0729 -1.4036 -0.0800
   27LIT    LIT  136   5.796   2.791   4.251  0.2083 -0.8636 -0.7230
   28LIT    LIT  137   1.138   3.387   2.814  0.8928 -0.6263 -0.1685
   29LIT    LIT  138   0.551   1.032   0.335  0.4368 -0.7448 -0.9750
   30LIT    LIT  139   6.061   3.320   2.730 -0.6416  0.6732  0.9100
   31LIT    LIT  140   1.874   0.531   1.647  0.1503 -0.5930  0.1941
   32LIT    LIT  141   6.032   2.408   1.454  0.1341  1.1571  0.2304
   33LIT    LIT  142   4.135   2.309   3.970 -0.0700 -0.3273  0.5854
   34CLA    CLA  143   2.731   4.302   5.097  0.1536 -0.2261 -0.1113
   35CLA    CLA  144   1.637   4.112   4.851  0.2568 -0.1936 -0.7744
   36CLA    CLA  145   6.034   3.619   0.170  0.0294  0.8819 -0.1792
   37CLA    CLA  146   4.501   1.755   4.806 -0.0904 -0.3406  0.4413
   38CLA    CLA  147   6.163   2.886   2.192 -0.1381 -0.3086  0.4689
   39CLA    CLA  148   2.574   5.834   3.406  0.1886  0.0478 -0.1703
   40CLA    CLA  149   2.622   1.161   1.740 -0.1049  0.0938  0.2157
   41CLA    CLA  150   2.988   1.892   3.870 -0.4403 -0.0126 -0.0534
   42CLA    CLA  151   4.912   2.137   0.340  0.4594 -0.1716  0.2763
   43CLA    CLA  152   5.799   1.791   2.004  0.2283 -0.0908  0.3224
   44CLA    CLA  153   4.478   2.413   2.733  0.3602 -0.0998  0.0721
   45CLA    CLA  154   6.249   4.781   1.933 -0.1188  0.1487  0.2483
   46CLA    CLA  155   3.329   3.479   2.442  0.1120  0.1572 -0.1706
   47CLA    CLA  156   0.888   0.187   2.031 -0.2134 -0.1327 -0.1719
   48CLA    CLA  157   1.966   3.494   1.734 -0.1169 -0.2332  0.0896
   49CLA    CLA  158   5.473   4.773   3.710  0.0810 -0.0722 -0.4631
   50CLA    CLA  159   6.339   0.848   2.845  0.2779 -0.2833  0.2237
   51CLA    CLA  160   2.590   2.255   5.118 -0.1148 -0.0721 -0.3022
   52TIP3   OH2  161   1.864   3.169   1.129 -0.3193  0.3592 -0.1124
   52TIP3    H1  162   1.899   3.142   1.214  0.1399  0.7512 -0.1733
   52TIP3    H2  163   1.796   3.233   1.150 -2.0570 -1.4425  0.0844
   53TIP3   OH2  164   0.431   0.483   2.488 -0.2517 -0.4467  0.4918
   53TIP3    H1  165   0.421   0.564   2.539 -1.0604 -0.0163 -0.3305
   53TIP3    H2  166   0.376   0.496   2.411 -1.2146 -2.2092  0.8466
   54TIP3   OH2  167   3.816   5.163   1.143  0.8245  0.1120 -0.1399
   54TIP3    H1  168   3.783   5.181   1.231  0.7013 -0.1899 -0.1221
   54TIP3    H2  169   3.823   5.067   1.139  2.3308  0.1850  0.0852
   55TIP3   OH2  170   2.033   5.275   3.518 -0.2769 -0.4336 -0.0997
   55TIP3    H1  171   2.104   5.237   3.465  0.8099 -2.7081  2.7320
   55TIP3    H2  172   2.060   5.366   3.533  1.7012 -1.0543  0.3080
   56TIP3   OH2  173   1.792   2.084   2.238 -0.0361  0.1178 -0.6496
   56TIP3    H1  174   1.778   2.173   2.205  0.4383  0.7868  0.8601
   56TIP3    H2  175   1.750   2.085   2.324  1.0709 -0.7409 -0.0907
   57TIP3   OH2  176   5.992   2.792   4.215 -0.3340 -0.4441  0.1178
   57TIP3    H1  177   6.026   2.867   4.166 -0.7669 -1.4869 -1.8746
   57TIP3    H2  178   6.049   2.719   4.191 -2.4171 -1.6932 -1.4567
   58TIP3   OH2  179   4.997   4.215   1.120 -0.7035  0.2786 -0.0717
   58TIP3    H1  180   5.011   4.307   1.143  0.0500  0.0080  0.6301
   58TIP3    H2  181   5.009   4.168   1.202 -0.5037 -0.4988 -0.5335
   59TIP3   OH2  182   1.396   4.259   2.164  0.1704  0.1366 -0.1425
   59TIP3    H1  183   1.341   4.335   2.181  1.1581  0.6719  0.7825
   59TIP3    H2  184   1.466   4.293   2.107  0.1252 -0.2926 -0.4584
   60TIP3   OH2  185   1.854   2.461   0.970  0.5093  0.0280  0.4120
   60TIP3    H1  186   1.847   2.413   0.888  1.6407 -1.1763  0.9835
   60TIP3    H2  187   1.905   2.403   1.027 -0.0209  0.9482  1.8738
   61TIP3   OH2  188   2.962   4.802   0.302 -0.4383 -0.1407 -0.1546
   61TIP3    H1  189   2.873   4.834   0.293 -0.5811  0.3403  2.1629
   61TIP3    H2  190   3.004   4.865   0.362  0.7047 -1.6793  0.7571
   62TIP3   OH2  191   4.409   2.773   4.981  0.2812  0.3153 -0.0091
   62TIP3    H1  192   4.469   2.728   5.040  0.4337  0.0479 -0.3627
   62TIP3    H2  193   4.441   2.863   4.978 -0.1701  0.5193  0.8946
   63TIP3   OH2  194   4.098   0.566   0.475  0.4810  0.5644  0.2057
   63TIP3    H1  195   4.040   0.493   0.496  1.6732 -0.6960 -0.7114
   63TIP3    H2  196   4.105   0.564   0.379  0.2416  2.1278  0.1338
   64TIP3   OH2  197   1.857   5.947   2.610 -0.1792 -0.6121  0.2427
   64TIP3    H1  198   1.903   5.905   2.682 -1.1668  0.6236  1.6729
   64TIP3    H2  199   1.926   5.976   2.550  0.9863  1.3767  2.4101
   65TIP3   OH2  200   2.856   0.217   0.985  0.2877 -0.6844  0.0201
   65TIP3    H1  201   2.946   0.194   1.005  0.4246  0.4113  0.7767
   65TIP3    H2  202   2.812   0.216   1.070  0.3588  1.9187  0.1727
   66TIP3   OH2  203   5.275   5.510   3.926  0.6999 -0.4331  0.2328
   66TIP3    H1  204   5.233   5.430   3.893 -0.5684 -0.2372  1.2555
   66TIP3    H2  205   5.216   5.580   3.898  0.6421 -0.0881  1.1968
   67TIP3   OH2  206   1.764   0.362   4.613 -0.3021  0.0528  0.5089
   67TIP3    H1  207   1.822   0.326   4.546 -0.2909  0.2421  0.4171
   67TIP3    H2  208   1.706   0.289   4.636 -1.3057  0.4195 -0.7981
   68TIP3   OH2  209   2.594   0.710   3.759  0.1593 -0.9451  0.4235
   68TIP3    H1  210   2.617   0.618   3.765  1.3104 -0.6697  0.4289
   68TIP3    H2  211   2.647   0.753   3.826 -2.0505 -0.5460  2.0204
   69TIP3   OH2  212   4.948   5.070   2.030  0.2411  0.1487  0.4473
   69TIP3    H1  213   4.938   4.976   2.044  0.0860  0.2270  0.8673
   69TIP3    H2  214   4.916   5.084   1.941 -1.1429  0.0180  0.9001
   70TIP3   OH2  215   2.987   0.906   3.870  0.3810 -0.6356 -0.7083
   70TIP3    H1  216   3.068   0.896   3.820  0.2342 -0.0490 -1.0754
   70TIP3    H2  217   3.017   0.934   3.957  0.5695 -0.3042 -0.8769
   71TIP3   OH2  218   2.266   2.906   3.766  0.3636  0.9461  0.1843
   71TIP3    H1  219   2.281   2.833   3.706  1.2616  1.3398 -0.0805
   71TIP3    H2  220   2.327   2.973   3.738  0.0908  1.5166  0.9208
   72TIP3   OH2  221   1.858   3.704   4.120  0.2472  0.0219 -0.1159
   72TIP3    H1  222   1.847   3.771   4.053  0.1274  1.1388  0.9800
   72TIP3    H2  223   1.879   3.624   4.071 -1.5509  0.3798 -1.5934
   73TIP3   OH2  224   5.351   1.102   0.621  0.8092 -0.4062  0.1950
   73TIP3    H1  225   5.276   1.043   0.621  2.3007 -2.4427 -1.2860
   73TIP3    H2  226   5.335   1.161   0.547 -0.6315  1.0620  1.6115
   74TIP3   OH2  227   0.110   3.024   3.361 -0.2842 -0.4036 -0.0351
   74TIP3    H1  228   0.020   3.035   3.389 -0.8475 -2.7739 -0.6667
   74TIP3    H2  229   0.159   3.013   3.443 -1.3403 -3.5755  0.3204
   75TIP3   OH2  230   4.000   3.249   1.402  0.4758  0.3654  0.2404
   75TIP3    H1  231   4.017   3.343   1.392  0.4656  0.4328  0.8613
   75TIP3    H2  232   4.030   3.211   1.319 -0.3794  1.0289 -0.4081
   76TIP3   OH2  233   2.162   2.218   0.675 -0.2785  0.1918  0.3056
   76TIP3    H1  234   2.209   2.135   0.688 -0.6191  0.1140  1.1322
   76TIP3    H2  235   2.090   2.214   0.738  0.9266  2.0289  1.9377
   77TIP3   OH2  236   5.489   5.256   0.672  0.4395  0.0507 -0.0421
   77TIP3    H1  237   5.405   5.302   0.673 -0.3506 -1.3640 -0.2496
   77TIP3    H2  238   5.467   5.166   0.650  2.1160 -0.1487 -1.0100
   78TIP3   OH2  239   2.037   4.560   2.763 -0.2289  0.4546  0.7757
   78TIP3    H1  240   2.092   4.483   2.772 -0.5503  0.0724 -0.3430
   78TIP3    H2  241   2.089   4.632   2.799  0.9859  0.0922 -0.2062
   79TIP3   OH2  242   0.505   4.165   4.324  0.3659 -0.4479  0.0228
   79TIP3    H1  243   0.591   4.127   4.341  0.1569 -0.3624  1.4150
   79TIP3    H2  244   0.448   4.090   4.311  0.8663 -0.4970 -2.2985
   80TIP3   OH2  245   2.524   3.599   4.851  0.1065 -0.2729 -0.4997
   80TIP3    H1  246   2.605   3.592   4.902 -1.1614 -1.1111  1.5230
   80TIP3    H2  247   2.499   3.691   4.857  0.8784 -0.0085 -1.1421
   81TIP3   OH2  248   3.469   4.484   4.160 -0.2791 -0.5969  0.2362
   81TIP3    H1  249   3.516   4.401   4.168 -0.5114 -0.6146  1.6769
   81TIP3    H2  250   3.420   4.477   4.079  1.7429 -0.8078 -1.0499
   82TIP3   OH2  251   0.689   1.410   4.782 -0.4050 -0.3724 -0.6049
   82TIP3    H1  252   0.715   1.399   4.690  0.3842  0.8418 -0.5421
   82TIP3    H2  253   0.720   1.497   4.806 -1.2723 -0.3672  0.6050
   83TIP3   OH2  254   1.871   4.604   4.398 -0.3956 -0.0780 -0.5327
   83TIP3    H1  255   1.931   4.567   4.334  1.1677 -1.6129  1.6499
   83TIP3    H2  256   1.798   4.638   4.347  1.7022  0.6996 -3.2268
   84TIP3   OH2  257   1.141   5.181   4.079  0.0924 -0.3422 -0.3816
   84TIP3    H1  258   1.237   5.185   4.081  0.1443 -1.1276 -0.6098
   84TIP3    H2  259   1.121   5.148   3.991 -0.4463  0.8501 -0.7242
   85TIP3   OH2  260   2.206   4.892   5.117 -0.3547  0.1201 -0.3500
   85TIP3    H1  261   2.187   4.819   5.177  0.6348  0.2992  0.2053
   85TIP3    H2  262   2.186   4.857   5.030  0.9224 -1.1421 -0.1763
   86TIP3   OH2  263   1.258   5.016   0.251 -0.3782 -0.4381  0.1731
   86TIP3    H1  264   1.217   4.931   0.266 -0.0514 -0.4438  1.0902
   86TIP3    H2  265   1.340   5.012   0.301 -0.5932  0.5854  0.6274
   87TIP3   OH2  266   5.255   5.515   0.337  0.0096 -1.0219  0.1650
   87TIP3    H1  267   5.259   5.601   0.296 -0.7964 -0.6367  0.8541
   87TIP3    H2  268   5.163   5.488   0.325 -0.3070 -0.8001  1.8699
   88TIP3   OH2  269   2.597   3.683   1.411  0.3016  0.0378  0.6956
   88TIP3    H1  270   2.632   3.686   1.500 -0.2944  0.0308  0.9305
   88TIP3    H2  271   2.512   3.639   1.419  0.2841 -0.0524  0.1091
   89TIP3   OH2  272   3.053   4.657   2.171  0.0210 -0.1215  0.4151
   89TIP3    H1  273   3.121   4.677   2.108  0.2708  2.1553  1.3245
   89TIP3    H2  274   3.096   4.662   2.257 -0.8916 -0.4286  0.9112
   90TIP3   OH2  275   1.805   1.033   4.026  0.5279 -0.4997  0.2385
   90TIP3    H1  276   1.806   1.117   4.072  0.8287 -0.9853  1.1454
   90TIP3    H2  277   1.714   1.004   4.030  0.5037 -0.4169  0.2937
   91TIP3   OH2  278   2.042   4.808   4.857  0.6542  0.4120  0.2013
   91TIP3    H1  279   2.024   4.896   4.823 -0.1457 -0.0833 -0.7359
   91TIP3    H2  280   2.077   4.761   4.781 -1.7928 -0.9120 -0.1958
   92TIP3   OH2  281   4.053   1.734   0.105  0.0054  0.4766 -0.3547
   92TIP3    H1  282   4.082   1.662   0.049 -0.0740  0.8970 -0.9426
   92TIP3    H2  283   4.134   1.777   0.132  0.1274 -0.4795  0.8982
   93TIP3   OH2  284   1.752   5.104   4.756  0.3583 -0.4020  0.0666
   93TIP3    H1  285   1.771   5.134   4.845 -1.0118 -0.5087  0.4206
   93TIP3    H2  286   1.686   5.035   4.767  2.0740 -2.3123 -0.8574
   94TIP3   OH2  287   3.250   3.844   3.895 -0.2645  0.3198  0.2657
   94TIP3    H1  288   3.192   3.771   3.875 -0.2173  0.4760 -0.4649
   94TIP3    H2  289   3.201   3.898   3.957  0.6014 -1.5356  2.7194
   95TIP3   OH2  290   2.832   1.752   2.381 -0.6695 -0.0518 -0.2484
   95TIP3    H1  291   2.893   1.696   2.333 -1.8902  0.9743 -3.2899
   95TIP3    H2  292   2.745   1.725   2.351 -1.4556  1.3373  0.6455
   96TIP3   OH2  293   5.814   2.226   5.065  0.1039  0.9528 -0.1744
   96TIP3    H1  294   5.905   2.198   5.060 -0.4262 -0.7378 -1.0188
   96TIP3    H2  295   5.797   2.266   4.980 -0.9030 -2.0366 -1.5075
   97TIP3   OH2  296   6.088   5.889   0.581 -0.4152 -0.3314 -0.8855
   97TIP3    H1  297   6.137   5.919   0.504 -2.2100  0.9607 -1.5769
   97TIP3    H2  298   6.048   5.969   0.616  0.1911 -0.9342  1.2962
   98TIP3   OH2  299   2.071   1.475   3.836 -0.1619  0.2550  0.2860
   98TIP3    H1  300   2.012   1.499   3.764 -0.2198  0.2426  0.3292
   98TIP3    H2  301   2.074   1.380   3.834  0.1145  0.2669  0.0775
   99TIP3   OH2  302   6.184   5.524   2.002  0.3712  0.1239 -0.0601
   99TIP3    H1  303   6.190   5.503   1.909 -0.4706 -2.3620  0.3695
   99TIP3    H2  304   6.274   5.514   2.034  0.4067 -0.4984 -0.3391
  100TIP3   OH2  305   3.326   5.829   4.170  0.2596  0.4358 -0.1661
  100TIP3    H1  306   3.257   5.882   4.208 -0.5996  0.8377 -2.1578
  100TIP3    H2  307   3.293   5.739   4.175 -0.4015  0.6140 -1.0027
  101TIP3   OH2  308   5.059   3.609   4.268 -0.1825  0.3513 -0.0821
  101TIP3    H1  309   5.098   3.647   4.189  0.8962 -0.9214 -0.2015
  101TIP3    H2  310   5.130   3.558   4.307 -1.5116 -1.4280  0.1162
  102TIP3   OH2  311   4.413   3.605   5.016 -0.1461 -0.0063  0.1890
  102TIP3    H1  312   4.360   3.603   5.095 -0.7634 -0.8513 -0.2259
  102TIP3    H2  313   4.374   3.539   4.959  1.5716 -0.9210  0.0055
  103TIP3   OH2  314   3.479   5.568   2.962  0.4403  0.5071 -0.5670
  103TIP3    H1  315   3.565   5.542   2.929 -0.3024  0.3419 -2.5042
  103TIP3    H2  316   3.451   5.637   2.902 -1.0269  0.1598 -0.3035
  104TIP3   OH2  317   2.342   1.242   5.036  0.0703 -0.1724  0.6762
  104TIP3    H1  318   2.425   1.194   5.033  0.2473  0.2015 -1.0663
  104TIP3    H2  319   2.366   1.333   5.025 -0.5454 -0.0010  0.6984
  105TIP3   OH2  320   5.235   6.021   3.178 -0.4804 -0.4218  0.2585
  105TIP3    H1  321   5.224   5.960   3.105  4.2871 -1.2403 -0.0876
  105TIP3    H2  322   5.239   5.965   3.255 -0.6110 -0.0450  0.5443
  106TIP3   OH2  323   2.694   2.302   2.395 -0.4435 -0.2401 -0.1672
  106TIP3    H1  324   2.650   2.219   2.412 -0.6629  0.1369  1.1661
  106TIP3    H2  325   2.787   2.284   2.408 -0.5421 -0.1455  0.7139
  107TIP3   OH2  326   6.049   4.525   2.284 -0.2340 -0.0171 -0.6232
  107TIP3    H1  327   5.989   4.562   2.349  2.4230 -0.9501  2.6055
  107TIP3    H2  328   6.071   4.439   2.317  1.4954 -0.4443 -2.6559
  108TIP3   OH2  329   5.839   2.464   3.240  0.4194  0.3687 -0.1330
  108TIP3    H1  330   5.909   2.478   3.304 -0.2611  0.2331  0.6712
  108TIP3    H2  331   5.816   2.371   3.250 -0.3746  0.5819  0.1678
  109TIP3   OH2  332   5.945   3.153   0.822 -0.3333 -0.0114 -0.0991
  109TIP3    H1  333   5.906   3.227   0.868  2.1524  1.7178 -0.5941
  109TIP3    H2  334   6.039   3.168   0.826  0.2810 -3.0271 -0.4951
  110TIP3   OH2  335   2.041   2.274   2.914 -0.5494 -0.4609 -0.3224
  110TIP3    H1  336   2.129   2.311   2.903 -1.3811  1.3301 -1.5162
  110TIP3    H2  337   2.046   2.223   2.994  1.2238  0.7318  0.3972
  111TIP3   OH2  338   5.661   3.818   0.562  0.2847 -0.1921 -0.0670
  111TIP3    H1  339   5.674   3.746   0.500  0.8962 -1.2104  1.1910
  111TIP3    H2  340   5.647   3.774   0.646 -1.0851  1.1315  0.4434
  112TIP3   OH2  341   4.281   2.518   4.165  0.5980  0.2457 -0.3983
  112TIP3    H1  342   4.368   2.481   4.152 -1.1134 -4.0569 -1.3988
  112TIP3    H2  343   4.262   2.503   4.258  0.6401  0.5047 -0.3471
  113TIP3   OH2  344   0.001   3.155   2.986 -0.2556 -0.6559  0.6229
  113TIP3    H1  345   0.026   3.148   2.894 -2.3212 -0.7918  0.0059
  113TIP3    H2  346   0.078   3.190   3.030  0.3269  0.7700 -1.4028
  114TIP3   OH2  347   4.152   5.799   3.745 -0.7210 -0.2467 -0.0486
  114TIP3    H1  348   4.089   5.727   3.741 -0.9241 -0.1039  0.4542
  114TIP3    H2  349   4.214   5.781   3.674 -1.7863  0.0458 -1.0891
  115TIP3   OH2  350   0.183   4.012   0.884 -0.2106 -0.1196 -0.5059
  115TIP3    H1  351   0.208   3.921   0.900  0.7294 -0.1012 -1.7637
  115TIP3    H2  352   0.245   4.063   0.935 -0.5612 -0.1561 -0.0274
  116TIP3   OH2  353   4.817   3.207   3.511  0.0100 -0.0438  0.7608
  116TIP3    H1  354   4.907   3.219   3.479 -0.5512  1.3419 -0.4310
  116TIP3    H2  355   4.789   3.295   3.536 -1.0636 -0.4461  1.0174
  117TIP3   OH2  356   6.119   5.231   0.730 -0.3333 -0.1624  0.2458
  117TIP3    H1  357   6.156   5.300   0.785 -2.8802 -0.1156  2.1195
  117TIP3    H2  358   6.108   5.156   0.789 -2.5523 -0.3436 -0.3063
  118TIP3   OH2  359   3.190   1.119   3.020 -0.6908 -0.0757 -0.1124
  118TIP3    H1  360   3.226   1.206   3.007  0.7116 -0.4412  1.1551
  118TIP3    H2  361   3.098   1.127   2.992 -0.6641  1.8502  0.2259
  119TIP3   OH2  362   1.334   3.153   4.872 -0.0006  0.0749 -0.4911
  119TIP3    H1  363   1.357   3.236   4.915  1.4511 -0.7726  0.4698
  119TIP3    H2  364   1.241   3.142   4.889  0.4518 -0.0809  2.2768
  120TIP3   OH2  365   5.113   0.975   1.709 -0.3066 -0.4959 -0.6184
  120TIP3    H1  366   5.044   1.041   1.721  1.1787  0.8653  1.0689
  120TIP3    H2  367   5.124   0.968   1.615  0.0006  2.3026 -0.8706
  121TIP3   OH2  368   5.686   4.831   1.413  0.0894  0.1441 -0.3021
  121TIP3    H1  369   5.643   4.813   1.497 -0.7163  1.0364 -0.5002
  121TIP3    H2  370   5.778   4.843   1.435  0.3924 -2.3287  0.0719
  122TIP3   OH2  371   2.355   0.394   2.725 -0.1341  0.3363  0.3348
  122TIP3    H1  372   2.386   0.422   2.639 -0.6919 -0.3899 -0.1090
  122TIP3    H2  373   2.304   0.469   2.758 -0.9064  0.1711 -0.4720
  123TIP3   OH2  374   1.630   4.622   0.631  0.1178 -0.0874 -0.4170
  123TIP3    H1  375   1.594   4.536   0.613 -0.2262  0.1168 -0.7126
  123TIP3    H2  376   1.615   4.672   0.551 -0.6638  0.5759  0.1317
  124TIP3   OH2  377   2.790   3.413   2.583 -0.0404  0.3196  0.0074
  124TIP3    H1  378   2.859   3.358   2.620 -0.8958 -0.3032  0.7139
  124TIP3    H2  379   2.717   3.405   2.645  0.4162  3.7829  1.2491
  125TIP3   OH2  380   1.820   3.375   4.506  0.4417 -0.4111 -0.1713
  125TIP3    H1  381   1.906   3.361   4.466 -0.2087 -0.7432 -1.5171
  125TIP3    H2  382   1.825   3.332   4.591  1.4236 -0.9120 -0.4785
  126TIP3   OH2  383   6.304   1.304   1.281 -0.5009  0.0932 -0.4589
  126TIP3    H1  384   6.263   1.227   1.322  0.9433 -1.2317 -1.3809
  126TIP3    H2  385   6.397   1.294   1.301 -0.2190  1.3228 -1.0943
  127TIP3   OH2  386   0.122   1.785   1.506 -0.0824 -0.0468 -0.1236
  127TIP3    H1  387   0.150   1.854   1.565 -0.5168 -0.9775  1.2316
  127TIP3    H2  388   0.052   1.740   1.553 -0.2253 -1.0255 -1.2125
  128TIP3   OH2  389   2.913   4.077   3.834 -0.1797  0.3993  1.1382
  128TIP3    H1  390   2.859   4.027   3.895 -1.8383 -0.8531 -1.1615
  128TIP3    H2  391   2.868   4.161   3.825 -1.1343 -0.1796  0.1768
  129TIP3   OH2  392   0.256   3.469   5.053 -0.6861  0.1336 -0.3723
  129TIP3    H1  393   0.232   3.387   5.095 -2.1299  1.1402  0.9186
  129TIP3    H2  394   0.232   3.458   4.961 -0.3490 -1.0572 -0.3273
  130TIP3   OH2  395   1.240   2.319   2.228  0.1222  0.3258  0.5440
  130TIP3    H1  396   1.217   2.258   2.158  2.5894  0.9025 -0.9072
  130TIP3    H2  397   1.304   2.272   2.282  1.0873  1.1411  0.1543
  131TIP3   OH2  398   3.101   2.730   3.066  0.2611 -0.0085 -0.5208
  131TIP3    H1  399   3.141   2.810   3.100 -2.7570  0.8837  1.2645
  131TIP3    H2  400   3.141   2.659   3.117  2.7652  0.2766 -1.9354
  132TIP3   OH2  401   4.634   3.211   0.350 -0.1363 -0.3202 -0.2006
  132TIP3    H1  402   4.600   3.294   0.315 -0.8484 -1.2083 -1.7147
  132TIP3    H2  403   4.639   3.225   0.444  0.2326  1.6097 -0.4601
  133TIP3   OH2  404   2.226   2.223   4.359 -0.3895  0.1462 -0.4043
  133TIP3    H1  405   2.138   2.230   4.323 -1.1941 -1.4250  1.0885
  133TIP3    H2  406   2.214   2.227   4.454  0.6282 -3.4038  0.0341
  134TIP3   OH2  407   5.863   2.188   4.481 -0.2496  0.2110 -0.0881
  134TIP3    H1  408   5.879   2.246   4.406 -1.7717  1.3246  0.3864
  134TIP3    H2  409   5.775   2.154   4.467 -0.3234 -0.0362  0.8871
  135TIP3   OH2  410   1.432   2.085   0.068 -0.1414  0.0760  0.2149
  135TIP3    H1  411   1.482   2.018   0.020  0.3267  1.4832 -1.3814
  135TIP3    H2  412   1.386   2.037   0.136  1.3228 -1.6553  0.0490
  136TIP3   OH2  413   5.896   0.606   0.338  0.0340  0.6164 -0.0976
  136TIP3    H1  414   5.870   0.528   0.289  0.8258  0.9745 -1.1151
  136TIP3    H2  415   5.920   0.572   0.425  2.1146 -0.5824 -1.0580
  137TIP3   OH2  416   2.430   5.723   4.787 -0.3500  0.4386 -0.4800
  137TIP3    H1  417   2.483   5.781   4.734 -0.0012  0.7959  0.2511
  137TIP3    H2  418   2.434   5.759   4.876 -0.2816 -0.5830 -0.0458
  138TIP3   OH2  419   1.823   2.561   3.518 -0.1273 -0.0536 -0.3691
  138TIP3    H1  420   1.786   2.640   3.479  0.6968  0.1426 -0.7720
  138TIP3    H2  421   1.833   2.582   3.610 -1.8617 -0.4354 -0.0430
  139TIP3   OH2  422   0.485   2.447   1.290  0.1667 -0.1589 -0.2721
  139TIP3    H1  423   0.575   2.478   1.282 -0.2123  1.3531  0.9236
  139TIP3    H2  424   0.447   2.500   1.360 -1.6496 -0.7863 -0.7225
  140TIP3   OH2  425   2.295   3.171   4.857 -0.3087 -0.1013  0.0772
  140TIP3    H1  426   2.238   3.135   4.788 -0.0535 -2.5628  1.0754
  140TIP3    H2  427   2.374   3.199   4.810 -0.0908 -1.8365 -0.6486
  141TIP3   OH2  428   0.493   4.785   4.031  0.3601 -0.2777 -0.6570
  141TIP3    H1  429   0.492   4.700   3.986 -1.9108 -0.8204  0.2771
  141TIP3    H2  430   0.466   4.765   4.121  1.5360  1.2338  0.0815
  142TIP3   OH2  431   2.931   5.399   2.860  0.3288  0.2971 -0.1499
  142TIP3    H1  432   2.951   5.445   2.942  0.1680 -0.0362  0.0770
  142TIP3    H2  433   3.008   5.345   2.843 -0.0552 -0.4229  0.3342
  143TIP3   OH2  434   2.293   0.639   0.724 -0.0034  0.1060  0.1948
  143TIP3    H1  435   2.297   0.692   0.803 -0.7516 -0.0395  0.3378
  143TIP3    H2  436   2.285   0.703   0.653  1.7455  0.2847  0.1261
  144TIP3   OH2  437   2.055   4.210   4.130 -0.9984 -0.1428  0.4484
  144TIP3    H1  438   2.042   4.218   4.036  0.1831  0.7339  0.3369
  144TIP3    H2  439   2.059   4.115   4.145 -1.4201 -0.2954 -0.3495
  145TIP3   OH2  440   5.386   3.353   4.978 -0.2558 -0.1543 -0.3806
  145TIP3    H1  441   5.350   3.278   5.025 -0.4367 -1.3870 -2.3423
  145TIP3    H2  442   5.313   3.414   4.970 -0.8320 -0.8969 -0.9213
  146TIP3   OH2  443   2.254   4.122   0.157 -0.2065 -0.1315  0.0599
  146TIP3    H1  444   2.330   4.146   0.104 -0.1176 -0.4868  0.0245
  146TIP3    H2  445   2.239   4.198   0.213 -0.4281  0.3307 -0.6121
  147TIP3   OH2  446   2.733   5.721   2.399 -0.4205 -0.3313  0.6657
  147TIP3    H1  447   2.653   5.755   2.438  0.4029  1.1306  1.1555
  147TIP3    H2  448   2.801   5.782   2.427  0.7691 -1.2026 -0.2303
  148TIP3   OH2  449   5.923   3.287   1.111  0.0268  0.2521 -0.0749
  148TIP3    H1  450   5.926   3.380   1.133  1.4622  0.5585 -1.4049
  148TIP3    H2  451   5.835   3.273   1.078  0.1318  1.4267 -0.9264
  149TIP3   OH2  452   2.855   4.684   1.976  0.2876 -0.1630 -0.2299
  149TIP3    H1  453   2.782   4.658   2.032  0.5112  0.9888  0.6341
  149TIP3    H2  454   2.933   4.668   2.029  0.4875  1.1891 -0.0671
  150TIP3   OH2  455   3.848   3.037   4.527 -0.1321 -0.1960  0.1993
  150TIP3    H1  456   3.840   3.069   4.438  0.8383  0.3860  0.3208
  150TIP3    H2  457   3.868   2.944   4.517 -0.3476 -0.2059 -0.1727
  151TIP3   OH2  458   4.051   2.781   1.266  0.7416  0.2388  0.5993
  151TIP3    H1  459   4.102   2.821   1.336  0.1175  1.1698  0.5406
  151TIP3    H2  460   3.968   2.757   1.307  0.0167  1.6222  0.0023
  152TIP3   OH2  461   3.944   5.218   3.991 -0.6023 -0.3716  0.7995
  152TIP3    H1  462   3.911   5.280   4.057 -0.7619  0.6727 -0.2184
  152TIP3    H2  463   3.890   5.236   3.913  0.4483 -0.6586 -0.0097
  153TIP3   OH2  464   3.577   5.536   4.471 -0.2363 -0.0710  0.3916
  153TIP3    H1  465   3.623   5.482   4.535 -0.8778 -2.1097 -0.7760
  153TIP3    H2  466   3.491   5.496   4.463 -0.0905 -0.0349 -1.9145
  154TIP3   OH2  467   2.925   5.189   1.767 -0.0475  0.4145  0.5141
  154TIP3    H1  468   2.864   5.220   1.834 -1.0151  0.8721 -0.5504
  154TIP3    H2  469   3.001   5.246   1.775 -0.6009  1.1651  0.5206
  155TIP3   OH2  470   4.174   2.663   4.356  0.2729 -0.0641 -0.2048
  155TIP3    H1  471   4.226   2.627   4.428 -0.2809 -0.2839  0.0903
  155TIP3    H2  472   4.226   2.736   4.323  0.2685  0.3998  0.7851
  156TIP3   OH2  473   4.710   1.963   2.022 -0.4610 -0.1902 -0.7073
  156TIP3    H1  474   4.800   1.973   1.990  0.1756 -0.8072  0.7924
  156TIP3    H2  475   4.718   1.968   2.117 -1.9503 -0.8122 -0.5229
  157TIP3   OH2  476   3.187   4.497   2.429 -0.3703 -0.3885 -0.4485
  157TIP3    H1  477   3.259   4.489   2.492  0.8901 -0.2998 -1.8192
  157TIP3    H2  478   3.209   4.434   2.360 -1.7630 -0.5495 -0.7749
  158TIP3   OH2  479   3.687   4.801   4.467  0.2349 -0.0554  0.0078
  158TIP3    H1  480   3.719   4.720   4.427  0.5615  0.0868 -0.0172
  158TIP3    H2  481   3.617   4.830   4.408  0.8488  0.2592 -0.5726
  159TIP3   OH2  482   4.534   3.393   4.399  0.1400 -0.5809 -0.3247
  159TIP3    H1  483   4.534   3.297   4.401  1.1902 -0.5948 -0.7064
  159TIP3    H2  484   4.513   3.419   4.489  1.4648 -1.1806  0.1822
  160TIP3   OH2  485   6.228   2.648   4.160 -0.3160  0.1753 -0.1818
  160TIP3    H1  486   6.300   2.664   4.221 -0.5996  0.8265 -0.0092
  160TIP3    H2  487   6.270   2.641   4.074  0.0085 -0.0492 -0.0081
  161TIP3   OH2  488   4.404   5.992   4.671  0.3350 -0.0180 -0.8910
  161TIP3    H1  489   4.337   5.980   4.603 -0.2715  2.3846 -0.8025
  161TIP3    H2  490   4.401   5.911   4.721 -2.9223  0.1240 -0.5813
  162TIP3   OH2  491   4.306   4.608   3.911 -0.4169 -0.2520 -0.2752
  162TIP3    H1  492   4.337   4.695   3.883 -0.0280 -0.6390 -1.1021
  162TIP3    H2  493   4.385   4.565   3.945 -0.1314 -1.0189 -1.8100
  163TIP3   OH2  494   0.463   5.604   3.096  0.2619 -0.4084 -0.1166
  163TIP3    H1  495   0.406   5.584   3.022 -0.7125  1.1515  0.1880
  163TIP3    H2  496   0.406   5.642   3.163  0.9180 -2.6666  1.8978
  164TIP3   OH2  497   4.241   1.704   1.146 -0.1384 -0.0642  0.3000
  164TIP3    H1  498   4.235   1.609   1.151  0.0613 -0.0534  0.7876
  164TIP3    H2  499   4.235   1.724   1.052  0.2321 -0.5858  0.1603
  165TIP3   OH2  500   3.138   5.754   2.958  0.2482 -0.2268 -0.5118
  165TIP3    H1  501   3.207   5.753   2.891  2.1921 -2.1026  1.3624
  165TIP3    H2  502   3.160   5.830   3.012 -0.0297  0.0090 -0.7256
  166TIP3   OH2  503   2.848   0.338   3.460 -0.5732  0.4999 -0.1885
  166TIP3    H1  504   2.831   0.308   3.371  0.7944  1.4005 -0.7969
  166TIP3    H2  505   2.897   0.420   3.449  2.3759 -0.8952  1.3209
  167TIP3   OH2  506   2.271   2.058   3.335  0.5458 -0.3454  0.3216
  167TIP3    H1  507   2.243   1.974   3.301 -0.5550  0.5366 -1.0646
  167TIP3    H2  508   2.293   2.041   3.427  0.7682 -2.1967 -0.0409
  168TIP3   OH2  509   2.980   0.994   4.919  0.3134 -0.2412 -0.4048
  168TIP3    H1  510   2.977   0.945   5.001  0.8110  0.3716 -0.0041
  168TIP3    H2  511   3.070   0.984   4.888  0.5994  0.8751 -0.0105
  169TIP3   OH2  512   1.507   4.119   1.191  0.1076 -0.1140  0.0805
  169TIP3    H1  513   1.445   4.147   1.259 -1.2878  0.9850 -1.5641
  169TIP3    H2  514   1.591   4.154   1.220 -0.6667  1.3202  0.6994
  170TIP3   OH2  515   3.530   4.503   2.342  0.2108  0.1934  0.0727
  170TIP3    H1  516   3.469   4.487   2.270 -1.3084 -0.8777  1.5168
  170TIP3    H2  517   3.474   4.512   2.419  1.8155  0.7242  1.2306
  171TIP3   OH2  518   5.267   3.512   4.407 -0.1139 -0.0604  0.4517
  171TIP3    H1  519   5.359   3.539   4.410 -0.3663  0.9135 -0.1681
  171TIP3    H2  520   5.236   3.523   4.497  0.5445 -1.0340  0.8068
  172TIP3   OH2  521   6.035   1.460   0.243  0.3472 -0.0566 -0.4359
  172TIP3    H1  522   6.094   1.418   0.306  0.6372  0.8922 -0.0690
  172TIP3    H2  523   6.066   1.430   0.157  0.7231 -0.3642 -0.1947
  173TIP3   OH2  524   0.845   0.111   4.888 -0.1488  0.3443  0.4611
  173TIP3    H1  525   0.883   0.186   4.934 -1.5641  1.1337  0.4056
  173TIP3    H2  526   0.801   0.061   4.956  0.0718  0.0223  0.3682
  174TIP3   OH2  527   2.833   1.054   4.699  0.6386  0.0949  0.1393
  174TIP3    H1  528   2.904   1.026   4.757  0.6023  0.5619  0.4092
  174TIP3    H2  529   2.782   0.975   4.684  0.8365 -0.1000  0.4790
  175TIP3   OH2  530   5.539   1.679   3.992 -0.5844  0.4800  0.1096
  175TIP3    H1  531   5.539   1.604   3.932  1.2681  0.8383 -0.3781
  175TIP3    H2  532   5.465   1.662   4.050  0.7664 -2.6361  1.1104
  176TIP3   OH2  533   3.421   1.300   2.979  0.5450 -0.2485 -0.1578
  176TIP3    H1  534   3.476   1.319   3.055 -1.8711  0.2643  1.5625
  176TIP3    H2  535   3.416   1.382   2.931 -1.1005  0.6294  1.3741
  177TIP3   OH2  536   6.293   4.189   5.050  0.2345  0.4609  0.1982
  177TIP3    H1  537   6.219   4.131   5.069 -1.5134  2.2100 -0.8284
  177TIP3    H2  538   6.298   4.247   5.126 -1.2557  2.0329 -0.8211
  178TIP3   OH2  539   2.593   3.104   1.787 -0.3812  0.0491  0.0293
  178TIP3    H1  540   2.572   3.089   1.879  1.9976 -0.1453  0.5970
  178TIP3    H2  541   2.517   3.150   1.752 -0.1138  2.9960  2.8946
  179TIP3   OH2  542   0.403   4.246   1.829 -0.3965  0.0038  0.1328
  179TIP3    H1  543   0.376   4.154   1.828  0.6181 -0.3299  1.1635
  179TIP3    H2  544   0.483   4.247   1.777 -0.9921  0.5211 -0.7984
  180TIP3   OH2  545   0.253   3.757   0.932 -0.6781  0.0269  0.2853
  180TIP3    H1  546   0.213   3.728   1.014  0.6199 -0.8766  0.6231
  180TIP3    H2  547   0.242   3.683   0.872 -3.5342  1.4191 -1.1352
  181TIP3   OH2  548   3.763   3.572   4.292 -0.2076 -0.2084 -0.2274
  181TIP3    H1  549   3.813   3.546   4.370 -1.2939 -2.5561 -0.2394
  181TIP3    H2  550   3.719   3.653   4.319  0.8156 -0.0128  0.9795
  182TIP3   OH2  551   3.873   0.935   3.225  0.0144 -0.9652 -0.3674
  182TIP3    H1  552   3.946   0.873   3.229  1.3187  0.4637 -0.8421
  182TIP3    H2  553   3.856   0.946   3.132 -1.0723 -1.5374 -0.2559
  183TIP3   OH2  554   1.145   3.647   4.481  0.0847  0.6634 -0.1897
  183TIP3    H1  555   1.229   3.634   4.438  0.5002  0.4213  0.6643
  183TIP3    H2  556   1.145   3.739   4.507 -0.3409  0.9158 -1.0465
  184TIP3   OH2  557   2.062   5.286   4.578 -0.1253  0.4335 -0.3952
  184TIP3    H1  558   2.113   5.357   4.539  1.3964  0.7040  1.8844
  184TIP3    H2  559   1.988   5.330   4.620  0.3681  0.6156  0.3088
  185TIP3   OH2  560   4.690   1.330   0.656 -0.1776  0.2772 -0.3699
  185TIP3    H1  561   4.685   1.378   0.738  0.3117  1.3094 -0.9228
  185TIP3    H2  562   4.599   1.308   0.635 -0.2955 -0.1133  0.4932
  186TIP3   OH2  563   2.659   1.544   2.600  0.3097 -0.0156 -0.0615
  186TIP3    H1  564   2.573   1.581   2.621  0.0438 -0.0721 -1.0047
  186TIP3    H2  565   2.713   1.619   2.577  0.4036 -0.0168  0.1522
  187TIP3   OH2  566   3.894   5.245   0.786  0.0757  0.2863  0.0816
  187TIP3    H1  567   3.808   5.211   0.761 -0.9368 -0.4633  3.8590
  187TIP3    H2  568   3.884   5.340   0.784 -0.8101  0.2044  0.3482
  188TIP3   OH2  569   1.550   2.555   0.090  0.0759 -0.8056 -0.0748
  188TIP3    H1  570   1.552   2.639   0.044 -0.0704 -0.6037  0.2795
  188TIP3    H2  571   1.492   2.500   0.038  0.2404 -0.7165 -0.3560
  189TIP3   OH2  572   3.825   1.780   3.541 -0.1625  0.0028 -0.2806
  189TIP3    H1  573   3.762   1.707   3.542 -1.6234  1.1800 -1.4833
  189TIP3    H2  574   3.773   1.857   3.564  0.7261  1.0701 -1.6366
  190TIP3   OH2  575   4.553   3.197   1.757  0.0243 -0.5379 -0.2132
  190TIP3    H1  576   4.545   3.290   1.779 -2.5373 -1.2112  2.4617
  190TIP3    H2  577   4.463   3.163   1.766  0.5361 -2.9909 -2.8261
  191TIP3   OH2  578   5.911   4.197   0.438  0.3810 -0.2124 -0.1857
  191TIP3    H1  579   5.891   4.105   0.456 -1.1201  0.0083 -0.6113
  191TIP3    H2  580   5.981   4.194   0.373  1.3647 -1.0258  0.8507
  192TIP3   OH2  581   3.765   2.830   5.196 -0.3712  0.0815  0.4086
  192TIP3    H1  582   3.685   2.777   5.186  0.4490 -1.0856 -0.1709
  192TIP3    H2  583   3.779   2.869   5.110  0.6674 -1.1917 -0.0316
  193TIP3   OH2  584   4.519   0.868   1.044 -0.1039  0.2615  0.4217
  193TIP3    H1  585   4.568   0.787   1.053 -1.2414 -0.4372  0.4161
  193TIP3    H2  586   4.452   0.849   0.979 -0.8891  0.9630  1.0073
  194TIP3   OH2  587   2.026   1.192   4.100  1.0850 -0.4208 -0.0204
  194TIP3    H1  588   2.064   1.158   4.181  1.6165 -0.1344 -0.1476
  194TIP3    H2  589   2.010   1.285   4.118  0.4357 -0.5352  0.0311
  195TIP3   OH2  590   0.161   1.144   4.345  0.1724  0.8490  0.0347
  195TIP3    H1  591   0.242   1.167   4.390 -0.4274  1.3019  0.9265
  195TIP3    H2  592   0.140   1.057   4.379  1.6368 -0.4472 -2.1820
  196TIP3   OH2  593   4.850   3.075   0.242  0.8243 -0.1275  0.2303
  196TIP3    H1  594   4.890   3.014   0.304 -0.3986 -1.6055 -0.3634
  196TIP3    H2  595   4.798   3.135   0.297 -0.5694 -1.6659  0.6793
  197TIP3   OH2  596   3.048   5.363   4.045  0.2091  0.8932 -0.0783
  197TIP3    H1  597   2.960   5.368   4.081 -0.0046 -0.6915 -0.2956
  197TIP3    H2  598   3.088   5.288   4.089  0.5331 -0.0109 -1.7997
  198TIP3   OH2  599   1.942   4.933   1.603 -0.4619  0.2405  0.2175
  198TIP3    H1  600   1.928   5.018   1.643  2.6404  1.1136 -0.3225
  198TIP3    H2  601   1.964   4.875   1.676 -0.2701  0.4834  0.3519
  199TIP3   OH2  602   0.314   5.842   2.029  0.0580  0.1197  0.1590
  199TIP3    H1  603   0.228   5.803   2.045  0.2675 -0.7845 -0.7995
  199TIP3    H2  604   0.330   5.829   1.935  1.8129 -0.9414  0.5557
  200TIP3   OH2  605   2.383   0.196   3.115 -0.1866 -0.2467  0.2350
  200TIP3    H1  606   2.410   0.174   3.204 -2.0594  0.6495  1.0774
  200TIP3    H2  607   2.337   0.280   3.123  2.5666  1.6711 -2.1266
  201TIP3   OH2  608   1.793   4.183   2.480 -0.0617 -0.4258  0.3013
  201TIP3    H1  609   1.712   4.141   2.451  0.7806 -1.6624 -0.3718
  201TIP3    H2  610   1.805   4.256   2.420 -0.7648 -0.1136  0.5263
  202TIP3   OH2  611   3.998   5.573   3.744 -0.6894 -0.0913  0.0238
  202TIP3    H1  612   4.074   5.519   3.764 -1.4218 -0.9660  0.5047
  202TIP3    H2  613   3.926   5.533   3.792 -2.1051 -1.0815 -2.7069
  203TIP3   OH2  614   0.660   2.843   0.856 -0.3145 -0.2085 -0.8416
  203TIP3    H1  615   0.678   2.799   0.773  0.4298 -0.1833 -0.7062
  203TIP3    H2  616   0.747   2.855   0.895 -0.6854 -0.5898  0.1266
  204TIP3   OH2  617   4.192   1.528   3.540  0.2969  0.1982  0.0185
  204TIP3    H1  618   4.119   1.494   3.592  0.0450  3.0199  1.6889
  204TIP3    H2  619   4.262   1.542   3.603  1.1322  0.7135 -0.9882
  205TIP3   OH2  620   3.039   4.988   0.739  0.0216  0.3040  0.0484
  205TIP3    H1  621   3.132   4.986   0.715 -0.2344  1.9571 -1.2951
  205TIP3    H2  622   3.010   4.898   0.732  1.4268 -0.1789  0.0783
  206TIP3   OH2  623   1.686   5.309   0.945  0.2746 -0.3677 -0.0306
  206TIP3    H1  624   1.753   5.371   0.917 -2.3785  1.9153 -1.9148
  206TIP3    H2  625   1.652   5.272   0.863 -0.4009 -1.9419  0.9057
  207TIP3   OH2  626   2.378   1.794   0.495  0.1179  0.7419 -0.0955
  207TIP3    H1  627   2.395   1.773   0.404 -0.1204  0.7014 -0.1306
  207TIP3    H2  628   2.286   1.770   0.509 -0.7530  3.3899 -0.6295
  208TIP3   OH2  629   2.627   3.531   0.499 -0.2435  0.0889  0.0961
  208TIP3    H1  630   2.543   3.485   0.505 -0.1185 -0.1885 -0.2270
  208TIP3    H2  631   2.606   3.614   0.456 -0.4284  0.2209  0.4404
  209TIP3   OH2  632   0.923   5.076   0.854 -0.7261  0.9510 -0.1693
  209TIP3    H1  633   0.912   5.063   0.949 -1.2038  1.2888 -0.1726
  209TIP3    H2  634   1.014   5.051   0.837 -0.6026  0.9887  0.3986
  210TIP3   OH2  635   2.510   1.446   3.987 -0.0926 -0.2268  0.5517
  210TIP3    H1  636   2.448   1.393   4.037 -1.5743 -0.7639 -1.6868
  210TIP3    H2  637   2.457   1.520   3.955  0.3190 -0.7805 -1.5363
  211TIP3   OH2  638   3.214   4.669   1.929 -0.1667  0.0579  0.0372
  211TIP3    H1  639   3.233   4.582   1.894  1.1292  0.4856 -0.3620
  211TIP3    H2  640   3.296   4.717   1.920 -1.0239  1.5096 -0.2947
  212TIP3   OH2  641   2.982   2.334   4.986 -0.1662 -0.1468 -0.0383
  212TIP3    H1  642   2.957   2.358   5.076  1.1074 -0.8979  0.5405
  212TIP3    H2  643   3.000   2.240   4.990 -0.6729 -0.3126 -1.2309
  213TIP3   OH2  644   4.225   1.846   3.732  0.5646 -0.0880  0.6626
  213TIP3    H1  645   4.265   1.931   3.713  0.6581  0.4839  3.0890
  213TIP3    H2  646   4.132   1.865   3.743  0.2570 -0.6784 -0.6192
  214TIP3   OH2  647   2.617   4.915   4.459  0.1543 -0.3291 -0.1623
  214TIP3    H1  648   2.544   4.962   4.419  1.2582  0.7129 -1.0165
  214TIP3    H2  649   2.686   4.980   4.468  0.8467 -1.1838  1.0450
  215TIP3   OH2  650   4.836   2.697   3.173  0.0731  0.3254 -0.6650
  215TIP3    H1  651   4.898   2.684   3.101  1.3676 -1.5755  0.6822
  215TIP3    H2  652   4.891   2.703   3.251 -1.3593  0.8210  0.3508
  216TIP3   OH2  653   0.440   2.152   4.816  0.0448 -0.7152 -0.1810
  216TIP3    H1  654   0.362   2.171   4.763 -0.6595 -1.9459  0.3625
  216TIP3    H2  655   0.461   2.235   4.858 -1.8498 -0.6529  0.7620
  217TIP3   OH2  656   1.104   1.551   3.972 -0.3099 -0.1774  0.3712
  217TIP3    H1  657   1.026   1.516   4.015  0.5494 -0.8887  1.3976
  217TIP3    H2  658   1.147   1.603   4.040  0.2104  0.0524 -0.1318
  218TIP3   OH2  659   0.266   3.454   1.292 -0.7168 -0.5770 -0.0784
  218TIP3    H1  660   0.262   3.533   1.345  0.1358  0.0665 -0.9383
  218TIP3    H2  661   0.348   3.411   1.318  0.1065  0.1454 -1.3899
  219TIP3   OH2  662   4.873   5.791   3.847 -0.5472  0.5059 -0.1662
  219TIP3    H1  663   4.801   5.855   3.851 -2.7153 -1.5875 -2.2438
  219TIP3    H2  664   4.861   5.737   3.926 -1.5648 -0.0961 -0.7171
  220TIP3   OH2  665   1.774   4.212   1.284  0.2985 -0.1021  0.0133
  220TIP3    H1  666   1.804   4.121   1.284 -0.5449 -0.4169 -1.7730
  220TIP3    H2  667   1.723   4.220   1.365  1.9881 -0.6041  1.1935
  221TIP3   OH2  668   0.772   0.662   4.159  0.4528 -0.8013  0.3404
  221TIP3    H1  669   0.856   0.616   4.147  1.4612  0.6646  1.4231
  221TIP3    H2  670   0.707   0.592   4.161  1.5604 -1.9380 -1.1518
  222TIP3   OH2  671   2.061   2.808   4.896  0.3133  0.2684  0.3291
  222TIP3    H1  672   1.994   2.832   4.832  1.4535 -0.2128 -1.0829
  222TIP3    H2  673   2.019   2.739   4.948 -0.1716 -0.3180 -0.7979
  223TIP3   OH2  674   1.907   2.743   0.903 -0.0112 -0.2794 -0.5857
  223TIP3    H1  675   1.898   2.659   0.948  1.0703 -1.8019 -2.9606
  223TIP3    H2  676   1.828   2.749   0.849  0.1032  0.0376 -0.7186
  224TIP3   OH2  677   4.805   3.869   1.198  0.1485 -0.3144 -0.7629
  224TIP3    H1  678   4.723   3.847   1.154 -0.3790 -0.5929  0.3332
  224TIP3    H2  679   4.798   3.963   1.217  0.6245 -0.0641 -1.7556
  225TIP3   OH2  680   5.995   2.058   2.675 -0.3039 -0.3860 -0.0240
  225TIP3    H1  681   5.966   1.987   2.733 -0.8483 -0.5814 -0.5259
  225TIP3    H2  682   5.917   2.112   2.663  0.3901  1.0209  1.3355
  226TIP3   OH2  683   3.480   2.924   2.747 -0.1605 -0.4277  0.0946
  226TIP3    H1  684   3.527   2.883   2.674 -1.2471  1.3316 -1.7014
  226TIP3    H2  685   3.390   2.932   2.716 -0.8287 -0.3043  1.9625
  227TIP3   OH2  686   4.949   1.168   4.866  0.1895 -0.3687 -0.9304
  227TIP3    H1  687   4.910   1.159   4.779  0.0519  1.5252 -1.0976
  227TIP3    H2  688   4.891   1.228   4.912  1.4065  0.3261 -0.2604
  228TIP3   OH2  689   0.413   3.841   3.785 -1.0102  0.2656 -0.7049
  228TIP3    H1  690   0.353   3.854   3.858 -1.4827 -1.8102 -0.6712
  228TIP3    H2  691   0.372   3.773   3.732  1.7083 -2.0020 -0.1445
  229TIP3   OH2  692   0.056   5.180   0.968 -0.3260 -0.0994  0.2766
  229TIP3    H1  693   0.146   5.202   0.992 -0.2301  1.1505 -1.0786
  229TIP3    H2  694   0.037   5.099   1.017  2.3667 -1.8120 -1.2347
  230TIP3   OH2  695   3.125   5.880   2.177  0.4649 -0.1443 -0.1217
  230TIP3    H1  696   3.172   5.828   2.242  0.6806  1.2756  0.9014
  230TIP3    H2  697   3.054   5.921   2.226  0.7427  1.0990 -0.7209
  231TIP3   OH2  698   4.716   0.428   4.349 -0.9435 -0.7148 -0.4361
  231TIP3    H1  699   4.650   0.428   4.280 -0.0771 -3.2629 -1.3715
  231TIP3    H2  700   4.674   0.474   4.422 -3.4457 -1.5137 -1.2744
  232TIP3   OH2  701   0.041   3.774   1.990  0.4342 -0.1119 -0.2107
  232TIP3    H1  702  -0.028   3.760   1.925 -0.2813 -0.1139  0.5320
  232TIP3    H2  703   0.114   3.722   1.958  0.7784  1.3993 -2.0206
  233TIP3   OH2  704   3.435   5.200   0.590 -0.4071  0.5026  0.1998
  233TIP3    H1  705   3.408   5.256   0.516 -1.3861  1.1063  0.9853
  233TIP3    H2  706   3.371   5.218   0.658 -0.6047 -1.4164  0.5794
  234TIP3   OH2  707   1.046   0.794   0.355 -0.1241  0.2186 -0.7900
  234TIP3    H1  708   1.024   0.702   0.373 -0.0978  0.2539 -0.5750
  234TIP3    H2  709   1.137   0.803   0.385 -0.3547  0.4953 -0.1429
  235TIP3   OH2  710   4.954   5.792   4.379 -0.8444 -0.1783 -0.0783
  235TIP3    H1  711   5.022   5.815   4.442 -3.4254 -0.4379  3.0394
  235TIP3    H2  712   4.925   5.876   4.344  0.9115 -0.0600 -1.4060
  236TIP3   OH2  713   0.231   1.326   0.778  0.4564 -0.1647 -0.0265
  236TIP3    H1  714   0.249   1.272   0.855 -1.5193  1.0946  1.4216
  236TIP3    H2  715   0.230   1.416   0.812  1.1998  0.5907 -1.8782
  237TIP3   OH2  716   6.272   1.126   4.550  0.0216 -0.3721 -0.3671
  237TIP3    H1  717   6.266   1.065   4.477 -2.0226 -0.1426 -0.4711
  237TIP3    H2  718   6.226   1.082   4.622 -0.3115  0.4745 -0.0403
  238TIP3   OH2  719   0.913   5.736   3.938 -0.1778  0.2248  0.2575
  238TIP3    H1  720   0.844   5.728   3.873 -0.7303  0.2858  0.8231
  238TIP3    H2  721   0.957   5.818   3.917 -0.9497  0.7133  0.5236
  239TIP3   OH2  722   1.405   1.488   1.193 -0.9263  0.4712 -0.0883
  239TIP3    H1  723   1.340   1.419   1.186 -1.3651  0.7057  1.4956
  239TIP3    H2  724   1.471   1.454   1.254  1.1289 -0.2477 -2.5044
  240TIP3   OH2  725   3.839   3.184   4.286  0.4771 -0.4996  0.0875
  240TIP3    H1  726   3.886   3.174   4.204  2.9545  1.6742  1.0994
  240TIP3    H2  727   3.763   3.237   4.264 -0.3611 -2.1378 -1.1832
  241TIP3   OH2  728   2.185   3.993   4.861  0.3712 -0.0013  0.6634
  241TIP3    H1  729   2.227   4.071   4.824  0.6526  0.0495  1.0900
  241TIP3    H2  730   2.092   4.006   4.843  0.5528 -0.2934 -0.6341
  242TIP3   OH2  731   3.072   5.633   0.923  0.9507 -0.5476  0.4154
  242TIP3    H1  732   3.127   5.698   0.878  0.2300  0.1530  0.5165
  242TIP3    H2  733   3.092   5.645   1.016 -0.0067  0.3595  0.5381
  243TIP3   OH2  734   1.390   1.256   0.100  0.2366 -0.2820  0.2255
  243TIP3    H1  735   1.420   1.175   0.058 -0.9882 -0.8471  0.3993
  243TIP3    H2  736   1.464   1.284   0.154  0.8941 -0.9513 -0.3089
  244TIP3   OH2  737   5.415   2.900   0.500  0.5801 -0.1075  0.1619
  244TIP3    H1  738   5.503   2.888   0.535  0.8128 -0.8980 -0.6577
  244TIP3    H2  739   5.403   2.828   0.438 -0.0405  0.8761 -0.9174
  245TIP3   OH2  740   3.426   2.538   3.433  0.3235 -0.1271 -0.1752
  245TIP3    H1  741   3.494   2.599   3.462  0.8489 -1.6813  2.1497
  245TIP3    H2  742   3.471   2.454   3.423 -1.0127 -0.9123  0.1652
  246TIP3   OH2  743   5.846   2.022   4.855 -0.3116  0.4277 -0.0141
  246TIP3    H1  744   5.790   1.946   4.869 -0.8940  0.2411 -2.8301
  246TIP3    H2  745   5.786   2.091   4.826  0.4666  1.3743  0.5675
  247TIP3   OH2  746   1.097   1.803   1.330 -0.1607  0.5089  0.0134
  247TIP3    H1  747   1.037   1.744   1.375  0.6003  0.8259  1.4817
  247TIP3    H2  748   1.184   1.774   1.357  0.3286  0.6977 -1.2814
  248TIP3   OH2  749   2.797   5.120   0.977  0.5368 -0.4089  0.2442
  248TIP3    H1  750   2.825   5.204   0.942 -0.1460 -0.6470 -0.9289
  248TIP3    H2  751   2.714   5.137   1.021  0.5064 -0.4282  0.1946
  249TIP3   OH2  752   0.564   0.332   0.995 -1.0188 -0.2783  0.7113
  249TIP3    H1  753   0.580   0.392   0.922  3.1012 -0.2332  1.3987
  249TIP3    H2  754   0.578   0.245   0.958 -3.0525 -0.6311  0.6316
  250TIP3   OH2  755   3.721   5.510   1.581  0.7889 -0.5139  0.7579
  250TIP3    H1  756   3.680   5.442   1.634 -0.9037 -0.4418 -0.3670
  250TIP3    H2  757   3.692   5.592   1.621 -0.4832 -0.4598 -0.1995
  251TIP3   OH2  758   3.864   3.885   1.698  0.2210 -0.2620  0.1493
  251TIP3    H1  759   3.794   3.820   1.688 -0.2983  0.2468  0.4266
  251TIP3    H2  760   3.936   3.836   1.739 -0.5966 -0.3975  1.4995
  252TIP3   OH2  761   5.674   3.815   3.403 -0.3215  0.1188  0.4670
  252TIP3    H1  762   5.666   3.763   3.323  0.1353  1.7315 -0.6632
  252TIP3    H2  763   5.584   3.833   3.429 -0.4770  0.6556 -0.4131
  253TIP3   OH2  764   5.337   2.572   3.175 -0.5397 -0.1100 -0.2315
  253TIP3    H1  765   5.299   2.518   3.105  0.8851  0.2686 -1.3499
  253TIP3    H2  766   5.326   2.662   3.144  0.9589  0.0205 -0.4523
  254TIP3   OH2  767   2.698   3.881   0.714  0.2806 -0.2414  0.0123
  254TIP3    H1  768   2.761   3.908   0.781  1.4231  1.5697 -1.6492
  254TIP3    H2  769   2.752   3.837   0.648 -0.3025  0.5587 -1.0301
  255TIP3   OH2  770   5.856   2.177   3.526  0.0919  0.2550 -0.1502
  255TIP3    H1  771   5.800   2.113   3.569 -2.2096  1.9413 -0.4120
  255TIP3    H2  772   5.857   2.150   3.434  1.2617 -0.8124  0.1634
  256TIP3   OH2  773   1.580   1.287   2.743 -0.2945 -0.0549 -0.3519
  256TIP3    H1  774   1.519   1.243   2.802  0.8952  0.3434  1.2084
  256TIP3    H2  775   1.643   1.219   2.718 -0.1819  0.0456 -0.3373
  257TIP3   OH2  776   2.561   4.851   3.622  0.7171 -0.6465  0.1428
  257TIP3    H1  777   2.589   4.932   3.580  0.7605  1.2607  3.5075
  257TIP3    H2  778   2.641   4.798   3.629  0.9907 -0.3703 -0.8150
  258TIP3   OH2  779   4.718   5.884   1.665 -0.3214 -0.2203  0.5319
  258TIP3    H1  780   4.805   5.925   1.658 -0.7756  0.5428 -1.6259
  258TIP3    H2  781   4.702   5.848   1.578 -1.9169 -0.8970  1.0723
  259TIP3   OH2  782   2.274   4.752   1.323 -0.8241 -0.3402 -0.3277
  259TIP3    H1  783   2.308   4.840   1.335 -0.1533 -0.8918  2.7988
  259TIP3    H2  784   2.199   4.746   1.382 -1.0256 -1.7696 -0.6739
  260TIP3   OH2  785   0.544   0.807   2.860 -0.3910 -0.3527 -0.3957
  260TIP3    H1  786   0.556   0.773   2.949 -1.7922 -2.0213 -0.7830
  260TIP3    H2  787   0.463   0.858   2.864 -1.1438 -1.4671 -0.9505
  261TIP3   OH2  788   0.529   2.881   2.948 -0.7062 -0.5218 -0.2545
  261TIP3    H1  789   0.436   2.866   2.969 -0.3232 -2.1833  0.4512
  261TIP3    H2  790   0.540   2.846   2.860 -1.2587  2.0282 -1.4184
  262TIP3   OH2  791   3.424   2.550   2.751 -0.2732  0.0416  0.1575
  262TIP3    H1  792   3.373   2.611   2.697 -1.0201 -0.6902  0.0187
  262TIP3    H2  793   3.396   2.463   2.722  0.9976 -0.3776  0.1490
  263TIP3   OH2  794   5.637   2.611   4.777 -0.3195  0.0363  0.1393
  263TIP3    H1  795   5.554   2.574   4.747  0.1308 -0.0192 -1.0780
  263TIP3    H2  796   5.619   2.704   4.787 -0.0772  0.3344 -1.8737
  264TIP3   OH2  797   6.379   3.441   1.521  0.7816 -0.2226 -0.6649
  264TIP3    H1  798   6.292   3.464   1.553  1.4167  0.9451  0.3197
  264TIP3    H2  799   6.365   3.409   1.432 -0.9038 -2.3079  0.2574
  265TIP3   OH2  800   0.271   0.762   0.581 -0.0876 -0.4697  0.5778
  265TIP3    H1  801   0.243   0.758   0.673  0.3650 -2.7054  0.6661
  265TIP3    H2  802   0.198   0.806   0.537 -0.7959 -0.3030  1.8479
  266TIP3   OH2  803   2.882   3.151   1.311  0.0704  0.1346  0.3040
  266TIP3    H1  804   2.801   3.201   1.301  1.1032  1.7140 -0.4649
  266TIP3    H2  805   2.948   3.216   1.333  0.9975 -1.2365  1.7850
  267TIP3   OH2  806   1.279   3.220   4.592 -0.1301  0.5288  0.4834
  267TIP3    H1  807   1.254   3.162   4.520 -1.1492  2.4954 -0.8685
  267TIP3    H2  808   1.372   3.236   4.580 -0.2623  0.7186 -0.3501
  268TIP3   OH2  809   3.190   1.057   2.287 -0.2715  0.0957  0.2301
  268TIP3    H1  810   3.156   0.981   2.239  1.3009 -1.0918  0.9120
  268TIP3    H2  811   3.242   1.019   2.357 -0.3463  1.8257  1.2698
  269TIP3   OH2  812   4.006   1.475   1.292 -0.0646  0.3025 -0.0796
  269TIP3    H1  813   4.046   1.440   1.212  0.2489 -1.4887  0.7975
  269TIP3    H2  814   4.080   1.495   1.350 -0.3262 -1.0687  0.7780
  270TIP3   OH2  815   3.470   5.515   2.317  0.4114 -0.3947  0.1310
  270TIP3    H1  816   3.490   5.429   2.279 -0.6299 -1.7373  2.3976
  270TIP3    H2  817   3.500   5.578   2.251  1.4578 -2.4692 -1.5051
  271TIP3   OH2  818   1.324   5.892   1.645 -0.1771 -0.6038  0.1036
  271TIP3    H1  819   1.346   5.966   1.590 -1.8914 -1.0262 -1.2472
  271TIP3    H2  820   1.228   5.886   1.640 -0.3668 -1.0410  2.6626
  272TIP3   OH2  821   1.903   3.176   3.544  0.0929  0.4252  0.0044
  272TIP3    H1  822   1.911   3.206   3.634 -2.3545 -0.2834  0.5249
  272TIP3    H2  823   1.970   3.108   3.535 -1.1868 -1.2271  2.1181
  273TIP3   OH2  824   3.951   4.702   1.535  0.2473  0.6218 -0.3292
  273TIP3    H1  825   3.954   4.771   1.602  0.1262  1.2103 -0.9143
  273TIP3    H2  826   3.964   4.749   1.452  1.7344 -0.2495 -0.6240
  274TIP3   OH2  827   3.077   5.087   1.992 -0.0765 -0.2094 -0.4514
  274TIP3    H1  828   3.067   5.170   1.945 -0.2267 -0.7525 -1.3796
  274TIP3    H2  829   3.107   5.025   1.926  1.4111 -0.5805  0.5154
  275TIP3   OH2  830   6.093   5.017   2.667  0.1702  0.7617 -0.0550
  275TIP3    H1  831   6.134   4.939   2.629 -0.2807  0.6531 -0.3296
  275TIP3    H2  832   6.045   5.057   2.594 -1.2595  0.1848  0.5250
  276TIP3   OH2  833   4.533   1.295   2.983  0.0203 -0.0816 -0.0199
  276TIP3    H1  834   4.442   1.302   2.955  0.8525  0.1133 -3.0565
  276TIP3    H2  835   4.546   1.370   3.041 -1.1006  1.5008 -1.7086
  277TIP3   OH2  836   1.338   3.519   0.119 -0.2223  0.1587 -0.6891
  277TIP3    H1  837   1.320   3.558   0.033 -1.2592 -2.2571 -1.6586
  277TIP3    H2  838   1.253   3.482   0.146  0.2093  0.4292  1.1560
  278TIP3   OH2  839   1.891   5.187   2.522 -0.4385 -0.2027 -0.0432
  278TIP3    H1  840   1.833   5.173   2.597  0.2667 -0.6680  0.4219
  278TIP3    H2  841   1.975   5.150   2.549  0.3626  1.3277 -0.3445
  279TIP3   OH2  842   5.178   1.051   4.938 -0.3045 -0.4957  0.9386
  279TIP3    H1  843   5.171   1.097   5.022 -0.2590 -0.5017  0.9462
  279TIP3    H2  844   5.101   1.079   4.888  0.2155  0.3388  0.5766
  280TIP3   OH2  845   2.373   4.664   2.571 -0.2543 -0.0634 -0.4668
  280TIP3    H1  846   2.370   4.759   2.556 -2.1006 -0.0764 -0.3849
  280TIP3    H2  847   2.386   4.627   2.484 -1.5838  0.2075 -0.7970
  281TIP3   OH2  848   0.422   5.736  -0.021  0.1635  0.2269 -0.5468
  281TIP3    H1  849   0.466   5.820  -0.031  1.9125 -0.4330  1.0254
  281TIP3    H2  850   0.394   5.734   0.071 -1.9288  0.0030 -1.1395
  282TIP3   OH2  851   2.934   0.444   4.118  0.3868  0.2415  0.1623
  282TIP3    H1  852   2.940   0.513   4.052 -2.1614 -0.9787 -1.4978
  282TIP3    H2  853   2.957   0.364   4.070  0.0905 -0.4841  1.2022
  283TIP3   OH2  854   2.816   1.006   0.987 -0.3948  0.5678  0.3181
  283TIP3    H1  855   2.755   1.079   0.974  0.2257  0.9047 -0.7844
  283TIP3    H2  856   2.784   0.937   0.929  0.1343  0.6529 -0.0752
  284TIP3   OH2  857   4.905   5.063   2.500 -0.3219 -0.0352 -0.1715
  284TIP3    H1  858   4.947   5.136   2.455 -0.1326 -1.0715 -1.7671
  284TIP3    H2  859   4.871   5.101   2.581  3.4900  0.9266  1.1835
  285TIP3   OH2  860   2.209   2.691   1.935  0.4234  0.2201  0.1980
  285TIP3    H1  861   2.223   2.682   2.030 -2.0010  4.6392  1.2826
  285TIP3    H2  862   2.119   2.721   1.927  0.5715  0.0750 -3.5684
  286TIP3   OH2  863   4.127   5.891   4.406  0.1404 -0.5447  0.1116
  286TIP3    H1  864   4.067   5.946   4.355 -0.0808  2.4809  3.2730
  286TIP3    H2  865   4.211   5.898   4.360 -0.3179  1.0536 -0.5496
  287TIP3   OH2  866   2.615   3.129   5.041  0.3729 -0.0381  0.0736
  287TIP3    H1  867   2.578   3.100   4.958 -0.1462  0.3856  0.1526
  287TIP3    H2  868   2.663   3.209   5.020  1.5823 -0.7757 -0.0966
  288TIP3   OH2  869   2.983   5.426   1.546 -0.0052  0.0536  0.1224
  288TIP3    H1  870   2.969   5.346   1.596  0.2502 -0.9242 -1.3352
  288TIP3    H2  871   2.987   5.398   1.455 -2.0615  1.9838 -0.6510
  289TIP3   OH2  872   0.480   4.114   5.076 -0.1072 -0.2178 -0.5657
  289TIP3    H1  873   0.407   4.169   5.103 -0.8144 -0.0814 -2.6316
  289TIP3    H2  874   0.558   4.166   5.098 -0.6902  0.6319 -0.4566
  290TIP3   OH2  875   3.984   4.216   1.324 -0.0394  0.4871 -0.5706
  290TIP3    H1  876   4.021   4.131   1.300 -0.4092  0.9011 -2.8709
  290TIP3    H2  877   3.950   4.204   1.412 -1.0957 -2.1125 -1.2451
  291TIP3   OH2  878   0.037   1.212   0.432  0.6198 -0.3536  0.3907
  291TIP3    H1  879   0.075   1.187   0.348  1.2196 -2.3336  1.1877
  291TIP3    H2  880  -0.028   1.278   0.410  1.5510 -0.0034 -1.4932
  292TIP3   OH2  881   4.465   3.567   4.155 -0.5972 -0.5829 -0.0359
  292TIP3    H1  882   4.376   3.539   4.133 -1.4772  1.0267  1.2496
  292TIP3    H2  883   4.481   3.529   4.241  0.1612 -1.2512 -0.4625
  293TIP3   OH2  884   1.092   2.312   1.862  0.2286  0.2092  0.5917
  293TIP3    H1  885   1.186   2.303   1.879 -0.1897 -0.3394  3.0601
  293TIP3    H2  886   1.058   2.356   1.940 -1.4630  1.1895 -0.6454
  294TIP3   OH2  887   2.287   3.575   1.722 -0.0279 -0.0713 -0.0753
  294TIP3    H1  888   2.265   3.655   1.770 -0.1526  0.5271 -1.0998
  294TIP3    H2  889   2.202   3.537   1.700 -0.0275  0.7026 -1.5099
  295TIP3   OH2  890   4.041   0.468   1.136 -0.3470 -0.5761 -0.0123
  295TIP3    H1  891   4.076   0.400   1.079  0.3276  0.2128 -0.5778
  295TIP3    H2  892   4.086   0.548   1.108 -2.0628  0.3594 -0.2717
  296TIP3   OH2  893   5.458   1.450   2.935 -0.0970 -0.2611  0.5212
  296TIP3    H1  894   5.366   1.426   2.929 -0.9545  1.6866  3.7727
  296TIP3    H2  895   5.459   1.545   2.931  1.6523 -0.1947  1.4922
  297TIP3   OH2  896   0.876   5.940   0.679  0.3035  0.2540  0.7663
  297TIP3    H1  897   0.837   5.968   0.596  0.3771 -0.4648  0.4766
  297TIP3    H2  898   0.803   5.934   0.740  0.0501 -0.4411  0.4055
  298TIP3   OH2  899   5.080   3.232   1.727 -0.3050 -0.1347 -0.3704
  298TIP3    H1  900   5.116   3.165   1.669  0.4916 -0.1636  0.1552
  298TIP3    H2  901   4.987   3.210   1.733 -0.1257 -0.9599 -0.5130
  299TIP3   OH2  902   3.427   0.674   0.516  0.2389  0.0023  0.2539
  299TIP3    H1  903   3.374   0.703   0.443  0.6357 -0.1317 -0.0923
  299TIP3    H2  904   3.386   0.592   0.545  0.1068  0.0336  0.1542
  300TIP3   OH2  905   5.485   1.815   3.720 -0.1081 -0.2990 -0.1806
  300TIP3    H1  906   5.539   1.738   3.702 -0.8712 -0.3522 -2.6960
  300TIP3    H2  907   5.437   1.793   3.799 -0.1090 -2.3061 -0.6872
  301TIP3   OH2  908   1.494   0.584   1.140 -0.1917  0.2393 -0.3875
  301TIP3    H1  909   1.444   0.506   1.164  0.5885  0.3843  1.8970
  301TIP3    H2  910   1.439   0.629   1.076 -1.2815 -1.4576 -0.6965
  302TIP3   OH2  911   4.869   4.017   0.344 -0.1157 -0.2684 -0.1593
  302TIP3    H1  912   4.882   3.976   0.430 -1.9710  0.5402  0.5626
  302TIP3    H2  913   4.796   4.077   0.357  1.0094  1.5754 -1.7617
  303TIP3   OH2  914   4.590   3.950   2.083 -0.5086  0.1915  0.2841
  303TIP3    H1  915   4.630   3.990   2.160  0.7406 -2.2144  0.9778
  303TIP3    H2  916   4.498   3.937   2.108  0.1550 -1.7291  1.9358
  304TIP3   OH2  917   4.205   2.795   3.572  0.3713 -0.2981  0.2375
  304TIP3    H1  918   4.211   2.816   3.665  1.7347 -1.1052  0.3535
  304TIP3    H2  919   4.294   2.805   3.539 -0.5381  2.7238 -1.6564
  305TIP3   OH2  920   2.698   2.898   4.158 -0.2443 -0.0364 -0.0118
  305TIP3    H1  921   2.755   2.953   4.211  0.7671  0.2707 -1.3710
  305TIP3    H2  922   2.715   2.925   4.068 -0.5479 -1.8020 -0.6412
  306TIP3   OH2  923   3.066   3.361   3.882  0.1774 -0.2320  0.1859
  306TIP3    H1  924   3.056   3.266   3.894 -0.3125  0.0304  2.4886
  306TIP3    H2  925   2.978   3.392   3.858 -0.0434 -0.2102  0.9805
  307TIP3   OH2  926   0.543   2.498   4.470  0.4142 -0.0440 -0.2349
  307TIP3    H1  927   0.486   2.575   4.478 -0.3219 -0.4496 -1.3488
  307TIP3    H2  928   0.512   2.454   4.391 -0.4965 -2.5445  1.3860
  308TIP3   OH2  929   1.358   5.101   4.913  0.0737  0.1223 -0.2463
  308TIP3    H1  930   1.293   5.096   4.983  1.1269 -0.5571  0.7202
  308TIP3    H2  931   1.310   5.137   4.839 -1.2086  0.3691  0.6601
  309TIP3   OH2  932  -0.029   5.932   2.613 -0.3859  0.2210 -0.3520
  309TIP3    H1  933   0.027   6.007   2.634  0.7453 -1.1611  2.0050
  309TIP3    H2  934   0.025   5.876   2.559  0.1150 -0.5114  0.8596
  310TIP3   OH2  935   6.344   4.309   3.063  0.1069 -0.4159 -0.5652
  310TIP3    H1  936   6.377   4.282   3.148 -0.0019 -2.7882 -1.2200
  310TIP3    H2  937   6.267   4.362   3.083  0.3241 -0.5874  0.8120
  311TIP3   OH2  938   1.026   5.451   1.272  0.6082 -0.0725 -0.4444
  311TIP3    H1  939   1.077   5.378   1.238  0.3571 -0.9710  1.0096
  311TIP3    H2  940   0.935   5.422   1.264  0.5700 -0.8149  1.9333
  312TIP3   OH2  941   2.607   4.230   4.410  0.2931 -0.3326 -0.4937
  312TIP3    H1  942   2.691   4.275   4.414  0.8440 -1.4528  1.1000
  312TIP3    H2  943   2.545   4.291   4.450  0.2717  0.5463 -1.7816
  313TIP3   OH2  944   2.039   3.209   4.440  0.1657 -0.4285  0.5951
  313TIP3    H1  945   2.123   3.180   4.404  1.4538  1.1113  2.1696
  313TIP3    H2  946   2.050   3.201   4.535 -1.7702 -0.8686  0.8249
  314TIP3   OH2  947   3.890   3.930   0.275  0.2659  0.1530 -0.0438
  314TIP3    H1  948   3.861   3.930   0.184 -0.8701  2.2199  0.2431
  314TIP3    H2  949   3.856   3.848   0.311 -1.2670  0.3641 -0.9289
  315TIP3   OH2  950   4.106   1.682   4.724 -0.2385  0.3802  0.4866
  315TIP3    H1  951   4.110   1.772   4.754  1.0834  0.6036 -0.2652
  315TIP3    H2  952   4.175   1.637   4.774  0.7655  0.3602 -0.8655
  316TIP3   OH2  953   4.008   0.972   0.026 -0.8284 -0.2573  0.3806
  316TIP3    H1  954   4.064   1.002   0.097 -0.0479 -2.0196  0.5792
  316TIP3    H2  955   3.919   0.990   0.055 -0.4439  1.8257  0.4252
  317TIP3   OH2  956   5.513   1.024   2.972  0.2182  0.4332 -0.4459
  317TIP3    H1  957   5.420   1.011   2.958  0.3997 -0.2298 -1.1323
  317TIP3    H2  958   5.526   1.011   3.066 -0.1412 -1.0464 -0.5840
  318TIP3   OH2  959   2.343   3.216   2.802 -0.6385  0.0693 -0.3289
  318TIP3    H1  960   2.371   3.125   2.805  0.3923  0.3674 -0.6526
  318TIP3    H2  961   2.309   3.234   2.890  0.4039 -0.2498  0.1545
  319TIP3   OH2  962   0.084   0.078   4.244 -0.2146 -0.1994  0.0610
  319TIP3    H1  963   0.167   0.065   4.199  0.7790  1.6233  1.2605
  319TIP3    H2  964   0.034   0.135   4.185 -0.8293 -1.6339 -0.8558
  320TIP3   OH2  965   3.200   4.891   1.304  0.3266  0.3055  0.5285
  320TIP3    H1  966   3.289   4.922   1.322 -0.0707  0.6621  2.0487
  320TIP3    H2  967   3.186   4.910   1.212  1.3790  1.4002  0.5647
  321TIP3   OH2  968   2.731   0.228   2.363  0.2700  0.0150  0.5346
  321TIP3    H1  969   2.685   0.208   2.444  1.5128 -0.3364  1.1769
  321TIP3    H2  970   2.691   0.170   2.298 -0.0274 -0.4519  1.1275
  322TIP3   OH2  971   6.250   3.865   2.198  0.7105 -0.2630  0.0601
  322TIP3    H1  972   6.168   3.817   2.210 -0.8455  0.7168 -4.4042
  322TIP3    H2  973   6.292   3.820   2.124  2.5275  1.2593  0.1112
  323TIP3   OH2  974   4.704   0.595   4.568  0.0704 -0.0000 -0.0077
  323TIP3    H1  975   4.758   0.536   4.622  0.4149  0.3284  0.0052
  323TIP3    H2  976   4.766   0.648   4.520 -0.2410 -0.1766 -0.6169
  324TIP3   OH2  977   3.819   0.200   2.994  0.1990 -0.5297  0.3919
  324TIP3    H1  978   3.819   0.187   2.900  1.1689 -0.5052  0.3857
  324TIP3    H2  979   3.752   0.139   3.027  0.4192 -1.1087 -0.2240
  325TIP3   OH2  980   3.407   2.781   1.106  0.1113  0.3812 -0.0747
  325TIP3    H1  981   3.406   2.873   1.132  0.4274  0.5824 -0.7460
  325TIP3    H2  982   3.485   2.772   1.051  0.0015 -0.2506 -0.1350
  326TIP3   OH2  983   4.541   4.947   5.105 -0.2237 -0.0680  0.0007
  326TIP3    H1  984   4.522   5.040   5.093 -0.8768 -0.2774 -0.6823
  326TIP3    H2  985   4.574   4.918   5.020  0.5597 -0.3272  0.3885
  327TIP3   OH2  986   1.784   1.890   2.968 -0.0760 -0.5957  0.6171
  327TIP3    H1  987   1.761   1.824   2.903 -1.4804 -1.0855  1.5795
  327TIP3    H2  988   1.805   1.968   2.915  3.2626 -2.1520 -0.6365
  328TIP3   OH2  989   4.799   5.682   4.102  0.0755  0.1600  0.3464
  328TIP3    H1  990   4.792   5.595   4.062  0.9980  0.3568 -0.2938
  328TIP3    H2  991   4.818   5.665   4.194 -0.3076 -0.3099  0.3440
  329TIP3   OH2  992   0.182   0.210   2.268  0.5883  0.6477 -0.5193
  329TIP3    H1  993   0.266   0.208   2.315  1.3802  0.2691 -1.8684
  329TIP3    H2  994   0.199   0.158   2.189 -1.1582 -0.0502 -0.4666
  330TIP3   OH2  995   4.889   4.727   3.083  0.3467 -0.3442  0.6187
  330TIP3    H1  996   4.965   4.782   3.104 -0.6133  0.2030  2.9480
  330TIP3    H2  997   4.875   4.674   3.161 -1.6223 -0.4757  0.2305
  331TIP3   OH2  998   0.381   4.506   4.588 -0.5923 -0.1916  0.5562
  331TIP3    H1  999   0.410   4.470   4.672 -1.5705 -1.4773  0.3740
  331TIP3    H2 1000   0.290   4.476   4.579 -0.8970  0.9236 -0.4202
  332TIP3   OH2 1001   2.512   0.029   4.145 -0.1138  0.1739  0.4884
  332TIP3    H1 1002   2.585   0.068   4.193  0.9351  0.6713 -1.3991
  332TIP3    H2 1003   2.545  -0.055   4.115  0.0816  0.7909 -1.1678
  333TIP3   OH2 1004   4.070   5.892   1.706 -0.0930 -0.1905  0.6253
  333TIP3    H1 1005   4.113   5.943   1.775 -0.6729  0.5517  0.4581
  333TIP3    H2 1006   4.000   5.845   1.750 -2.6666  2.8435  0.1492
  334TIP3   OH2 1007   3.063   2.844   4.127  0.2499 -0.4053  0.1190
  334TIP3    H1 1008   3.053   2.788   4.204  3.0006  0.5367  1.2904
  334TIP3    H2 1009   3.044   2.786   4.053 -1.3644 -1.6498  1.4345
  335TIP3   OH2 1010   1.429   4.321   2.637 -0.3280  0.4086 -0.5049
  335TIP3    H1 1011   1.405   4.244   2.689  0.5372 -0.0848 -0.8011
  335TIP3    H2 1012   1.359   4.329   2.573 -1.1960  0.7787  0.4583
  336TIP3   OH2 1013   2.486   0.115   3.900  0.4032 -0.5794  0.0545
  336TIP3    H1 1014   2.492   0.071   3.985  1.4478  0.8816  0.7759
  336TIP3    H2 1015   2.449   0.201   3.920  0.0231 -0.4649 -1.0814
  337TIP3   OH2 1016   4.871   4.862   1.157 -0.3196 -0.3890  0.2469
  337TIP3    H1 1017   4.811   4.924   1.116 -1.0004  0.1018  1.9032
  337TIP3    H2 1018   4.908   4.812   1.084 -1.0174  0.8381 -0.9796
  338TIP3   OH2 1019   0.534   3.065   2.529  0.2288  0.4195  0.2785
  338TIP3    H1 1020   0.482   3.143   2.508 -0.4925 -0.6464 -2.2501
  338TIP3    H2 1021   0.469   3.001   2.557  0.0788 -0.7977 -2.5255
  339TIP3   OH2 1022   0.680   4.369   1.282  0.7573 -0.0891 -0.4672
  339TIP3    H1 1023   0.692   4.436   1.350 -0.0357 -0.3579 -0.0517
  339TIP3    H2 1024   0.661   4.289   1.330  0.6838 -0.3903 -0.9945
  340TIP3   OH2 1025   5.866   1.151   2.931 -0.2759 -0.0291  0.3972
  340TIP3    H1 1026   5.812   1.216   2.974 -0.1561  0.4651 -0.1833
  340TIP3    H2 1027   5.823   1.136   2.846  0.8547  0.8753 -0.3590
  341TIP3   OH2 1028   4.793   2.744   2.580 -0.7919  0.4130  0.3403
  341TIP3    H1 1029   4.739   2.753   2.658 -2.1841 -1.0296 -0.4099
  341TIP3    H2 1030   4.807   2.650   2.570  2.9146  0.6965  1.1122
  342TIP3   OH2 1031   4.070   5.107   0.416  0.0721  0.2110  0.4936
  342TIP3    H1 1032   4.145   5.058   0.450 -0.5315 -1.4104 -0.3726
  342TIP3    H2 1033   3.998   5.043   0.416 -0.6737  1.0030 -0.9982
  343TIP3   OH2 1034   5.275   1.024   2.387  0.3456  0.1848 -0.0024
  343TIP3    H1 1035   5.333   1.037   2.462  2.0948  0.7019 -1.3938
  343TIP3    H2 1036   5.318   1.069   2.315  0.2193 -2.7042 -2.0391
  344TIP3   OH2 1037   0.512   2.376   3.385  0.1695  0.0845  0.0761
  344TIP3    H1 1038   0.538   2.421   3.304 -0.0591  0.1287  0.0236
  344TIP3    H2 1039   0.511   2.283   3.362 -0.3545  0.1308 -0.1110
  345TIP3   OH2 1040   5.316   1.262   1.481  0.5003 -0.2212 -0.4541
  345TIP3    H1 1041   5.406   1.261   1.448  0.4445 -0.7129 -0.6023
  345TIP3    H2 1042   5.326   1.277   1.575  0.5297  4.7459 -0.9834
  346TIP3   OH2 1043   5.364   0.100   2.923 -0.1739  0.1782 -0.0624
  346TIP3    H1 1044   5.396   0.186   2.949 -1.8902  0.7458  0.3016
  346TIP3    H2 1045   5.399   0.041   2.991  2.5546  0.1886 -1.2992
  347TIP3   OH2 1046   4.259   4.294   0.351  0.1715  0.3757 -0.7888
  347TIP3    H1 1047   4.299   4.345   0.421  1.2480  0.5225 -1.4756
  347TIP3    H2 1048   4.198   4.234   0.395  0.7350  0.5467  0.2448
  348TIP3   OH2 1049   5.292   0.247   3.806  0.3326 -0.1687  0.3570
  348TIP3    H1 1050   5.224   0.312   3.822 -1.5654 -1.9709  0.0933
  348TIP3    H2 1051   5.326   0.269   3.719 -2.5201 -1.2485 -1.1984
  349TIP3   OH2 1052   1.851   4.623   0.786 -0.0249 -0.8723  0.1087
  349TIP3    H1 1053   1.905   4.549   0.759  0.0782 -0.8711  0.3145
  349TIP3    H2 1054   1.776   4.621   0.727 -0.4541 -1.6549  0.6675
  350TIP3   OH2 1055   3.377   4.540   3.900  0.3924  0.1907 -0.3363
  350TIP3    H1 1056   3.313   4.559   3.831  0.7189  2.4559 -0.0771
  350TIP3    H2 1057   3.417   4.624   3.920  0.9428 -0.5498  2.0157
  351TIP3   OH2 1058   5.154   4.738   4.367  0.3768 -0.0332 -0.5401
  351TIP3    H1 1059   5.215   4.676   4.407  0.0088 -0.3673 -0.5012
  351TIP3    H2 1060   5.075   4.687   4.350 -0.4965  0.7663  0.8918
  352TIP3   OH2 1061   5.092   4.065   1.409  0.1413  0.0776  0.0654
  352TIP3    H1 1062   5.061   4.144   1.454 -1.1230  0.7809 -1.8858
  352TIP3    H2 1063   5.166   4.096   1.357  1.7660 -0.7827  1.7763
  353TIP3   OH2 1064   4.520   5.747   1.792  0.3252 -0.1229 -0.3813
  353TIP3    H1 1065   4.598   5.797   1.767 -0.3701  1.5589  0.6527
  353TIP3    H2 1066   4.460   5.759   1.718 -0.2452  1.5751  0.2904
  354TIP3   OH2 1067   2.736   0.382   0.495 -0.7686  0.3471 -0.6884
  354TIP3    H1 1068   2.810   0.437   0.468 -1.0942  1.5817  0.7319
  354TIP3    H2 1069   2.774   0.322   0.560 -0.8663  0.4571 -0.5302
  355TIP3   OH2 1070   1.863   1.292   0.434 -0.1675  0.4714  0.4781
  355TIP3    H1 1071   1.874   1.387   0.428 -1.8148  0.5943 -1.6114
  355TIP3    H2 1072   1.805   1.269   0.361  0.4100 -2.1948  0.7361
  356TIP3   OH2 1073   6.349   1.651   0.323  0.3131 -0.2151  0.3583
  356TIP3    H1 1074   6.322   1.742   0.324 -2.1162 -0.8678  1.1304
  356TIP3    H2 1075   6.365   1.631   0.230 -0.4223  0.6406  0.0452
  357TIP3   OH2 1076   5.392   3.485   0.711  0.1068 -0.1747 -0.9603
  357TIP3    H1 1077   5.360   3.510   0.625 -0.5851  1.7987 -0.1942
  357TIP3    H2 1078   5.478   3.525   0.718 -0.9680  2.1632  0.2392
  358TIP3   OH2 1079   1.812   2.334   5.121  0.0540 -0.1192  0.3108
  358TIP3    H1 1080   1.751   2.405   5.142 -2.5458 -2.4653  1.2648
  358TIP3    H2 1081   1.868   2.327   5.199 -0.0770  0.4590  0.4646
  359TIP3   OH2 1082   4.249   5.126   1.476 -0.1139  0.3780  0.1841
  359TIP3    H1 1083   4.183   5.193   1.458 -1.2892 -0.5238  1.0016
  359TIP3    H2 1084   4.272   5.139   1.568 -0.2581 -0.2630  0.3134
  360TIP3   OH2 1085   5.677   1.349   2.459  0.3424 -0.3418 -0.0504
  360TIP3    H1 1086   5.770   1.334   2.444  0.3949 -0.2170  0.1589
  360TIP3    H2 1087   5.672   1.389   2.545  0.1199 -0.0594 -0.1898
  361TIP3   OH2 1088   0.460   2.605   2.371 -0.0161  0.8797  0.5539
  361TIP3    H1 1089   0.444   2.668   2.300  0.1015 -1.2642 -1.4998
  361TIP3    H2 1090   0.374   2.565   2.388  0.0573  1.0179  1.2667
  362TIP3   OH2 1091   4.126   4.783   0.549  0.7684 -0.1546  0.2953
  362TIP3    H1 1092   4.045   4.833   0.541 -0.4158 -2.1624 -0.8918
  362TIP3    H2 1093   4.195   4.845   0.524 -0.4274  1.4313  0.8005
  363TIP3   OH2 1094   4.409   2.533   2.432 -0.0309  0.5962 -0.4225
  363TIP3    H1 1095   4.432   2.489   2.513 -1.8130 -2.9613 -1.6364
  363TIP3    H2 1096   4.462   2.490   2.365  0.3290  2.4232 -1.3869
  364TIP3   OH2 1097   6.052   3.558   3.871  0.5063  0.0639 -0.2857
  364TIP3    H1 1098   6.143   3.583   3.856  0.7235 -0.6417 -0.1669
  364TIP3    H2 1099   6.045   3.550   3.966  0.9144 -1.9801 -0.3702
  365TIP3   OH2 1100   4.123   4.488   1.550  0.3770  0.2564 -0.3082
  365TIP3    H1 1101   4.054   4.553   1.553  0.1344 -0.0323  1.1849
  365TIP3    H2 1102   4.127   4.461   1.458 -1.4850  0.2847 -0.4380
  366TIP3   OH2 1103   3.130   4.855   0.058 -0.3727 -0.0028 -0.3412
  366TIP3    H1 1104   3.073   4.838   0.133 -0.0111  0.0713 -0.0433
  366TIP3    H2 1105   3.194   4.783   0.060 -0.9243 -0.5299 -1.1412
  367TIP3   OH2 1106   6.159   3.000   3.809 -0.1622 -0.6270 -0.0971
  367TIP3    H1 1107   6.097   3.070   3.790  1.9835  1.2163 -0.5975
  367TIP3    H2 1108   6.201   3.025   3.891  2.7753  0.3666 -1.7605
  368TIP3   OH2 1109   6.302   4.845   1.619  0.2582 -0.5504  0.1171
  368TIP3    H1 1110   6.283   4.827   1.711  0.0197 -1.4701 -0.1059
  368TIP3    H2 1111   6.290   4.940   1.610 -0.6583 -0.5882  0.8150
  369TIP3   OH2 1112   5.310   5.264   4.728  0.6648  0.6151 -0.2268
  369TIP3    H1 1113   5.385   5.224   4.773  0.5482 -0.9566 -1.3524
  369TIP3    H2 1114   5.337   5.268   4.636 -1.2720 -1.7242 -0.9998
  370TIP3   OH2 1115   3.886   0.022   1.775 -0.1991 -0.5720 -0.1935
  370TIP3    H1 1116   3.936   0.102   1.790  2.1759 -1.9269 -0.3924
  370TIP3    H2 1117   3.818   0.023   1.842  3.1012 -0.9801  3.5598
  371TIP3   OH2 1118   3.348   5.252   1.395 -0.2771 -0.2608  0.0399
  371TIP3    H1 1119   3.382   5.339   1.372 -1.0864  0.1048  0.1944
  371TIP3    H2 1120   3.386   5.193   1.331  2.6370 -0.2843  1.6217
  372TIP3   OH2 1121   2.184   4.119   1.103 -0.3946  0.0292 -0.1355
  372TIP3    H1 1122   2.174   4.030   1.068  0.0439  0.2277 -0.7848
  372TIP3    H2 1123   2.118   4.170   1.057  0.2001  0.2969 -0.7009
  373TIP3   OH2 1124   2.966   2.451   2.820  0.2881  0.0693  0.2846
  373TIP3    H1 1125   2.900   2.387   2.794  0.7252  0.3259 -1.5807
  373TIP3    H2 1126   3.026   2.401   2.876 -1.0735 -0.3206  1.4717
  374TIP3   OH2 1127   1.907   0.594   1.460  0.2411  0.0146 -0.7198
  374TIP3    H1 1128   1.961   0.539   1.404  0.8600  0.4335 -0.5354
  374TIP3    H2 1129   1.836   0.624   1.403  0.0599 -0.7328 -0.8974
  375TIP3   OH2 1130   0.720   1.159   0.869 -0.1370 -0.0926 -0.5378
  375TIP3    H1 1131   0.788   1.226   0.865  1.0924 -1.3572 -1.9599
  375TIP3    H2 1132   0.681   1.159   0.782 -1.2609 -0.1110 -0.0480
  376TIP3   OH2 1133   6.153   0.935   2.364  0.4054  0.2492 -0.1403
  376TIP3    H1 1134   6.082   0.979   2.411  0.2314 -0.3207  0.1331
  376TIP3    H2 1135   6.146   0.843   2.389  1.4246  0.2279  0.1320
  377TIP3   OH2 1136   0.681   0.268   3.994 -0.3278  0.2511  0.5638
  377TIP3    H1 1137   0.676   0.180   3.955  2.7257  0.1827  0.1384
  377TIP3    H2 1138   0.695   0.252   4.087 -4.7610  0.4335  1.5008
  378TIP3   OH2 1139   0.032   2.964   0.380  0.2584  0.3511 -0.1050
  378TIP3    H1 1140  -0.038   3.012   0.335 -0.4009 -0.7611 -0.2843
  378TIP3    H2 1141   0.060   3.023   0.450  1.0857  1.9964 -1.7289
  379TIP3   OH2 1142   2.013   2.848   4.614  0.4634 -0.1542  1.3677
  379TIP3    H1 1143   1.941   2.901   4.580  1.5145  0.0840 -0.6618
  379TIP3    H2 1144   1.981   2.758   4.609  0.0261  0.0096  1.1909
  380TIP3   OH2 1145   2.445   2.952   4.247  0.1045  0.2826 -0.1582
  380TIP3    H1 1146   2.537   2.962   4.221  0.0221  3.1412  0.2357
  380TIP3    H2 1147   2.445   2.879   4.308  2.0980  0.0835 -0.3332
  381TIP3   OH2 1148   4.389   0.481   5.042 -0.1364  0.1998  0.4928
  381TIP3    H1 1149   4.397   0.388   5.021 -1.8661  0.6270 -2.6431
  381TIP3    H2 1150   4.298   0.492   5.072  0.9768  0.4482  4.3420
  382TIP3   OH2 1151   3.536   3.246   0.772 -0.3670  0.3136  0.0732
  382TIP3    H1 1152   3.605   3.240   0.705 -1.2879 -1.0981 -0.7934
  382TIP3    H2 1153   3.565   3.317   0.829  1.9442 -0.4073 -0.1026
  383TIP3   OH2 1154   4.456   3.857   2.468 -0.1187  0.4688 -0.1635
  383TIP3    H1 1155   4.454   3.870   2.563  2.2354 -1.4252  0.2320
  383TIP3    H2 1156   4.371   3.819   2.447 -0.6177  0.7656  1.2140
  384TIP3   OH2 1157   3.721   0.811   2.528  0.6099 -0.3192  0.0311
  384TIP3    H1 1158   3.729   0.722   2.562 -0.7354 -0.8880 -1.0235
  384TIP3    H2 1159   3.735   0.867   2.604  1.0361 -1.4412  0.8113
  385TIP3   OH2 1160   5.274   3.385   1.558  0.3344 -0.3605  0.3689
  385TIP3    H1 1161   5.232   3.469   1.580  1.5860  0.8804 -1.6369
  385TIP3    H2 1162   5.219   3.319   1.601 -0.7393  1.4616  1.9622
  386TIP3   OH2 1163   3.430   0.822   4.435 -0.1470 -0.1895 -0.4416
  386TIP3    H1 1164   3.355   0.854   4.385 -0.0519 -0.6553 -0.8926
  386TIP3    H2 1165   3.401   0.736   4.468  0.1192 -0.2887 -0.4665
  387TIP3   OH2 1166   2.282   5.248   3.407  0.2607 -0.4878  0.0888
  387TIP3    H1 1167   2.287   5.187   3.481  0.2761  0.9042  1.2870
  387TIP3    H2 1168   2.372   5.278   3.394  0.2102 -0.5011 -0.2991
  388TIP3   OH2 1169   1.112   5.057   1.432 -0.3357  0.1999 -0.1092
  388TIP3    H1 1170   1.106   5.136   1.486  1.1183  0.1545  0.1599
  388TIP3    H2 1171   1.022   5.029   1.419 -0.7494  0.6797  1.6021
  389TIP3   OH2 1172   1.005   2.177   3.130  0.1910  0.1158 -0.2266
  389TIP3    H1 1173   1.060   2.172   3.052  1.2991  1.3889  0.4362
  389TIP3    H2 1174   0.921   2.212   3.099 -0.0851 -1.2707 -1.1428
  390TIP3   OH2 1175   4.028   0.392   4.095  0.1891 -0.4189  0.0834
  390TIP3    H1 1176   4.008   0.449   4.169 -0.3992  0.4464 -0.7155
  390TIP3    H2 1177   3.974   0.314   4.109  0.3578 -0.4197  0.7488
  391TIP3   OH2 1178   3.428   0.340   1.858  0.0597  0.4403  0.2481
  391TIP3    H1 1179   3.348   0.390   1.840  0.7411  1.5221  0.1284
  391TIP3    H2 1180   3.396   0.253   1.883 -1.0963  0.1954 -1.8187
  392TIP3   OH2 1181   2.478   3.575   1.115  0.1421  0.1019  0.2366
  392TIP3    H1 1182   2.466   3.653   1.169 -0.0970  0.7055 -0.6769
  392TIP3    H2 1183   2.411   3.514   1.146 -0.2130  0.5674  0.3891
  393TIP3   OH2 1184   0.543   4.268   0.810 -0.4780 -0.3926  0.1550
  393TIP3    H1 1185   0.513   4.346   0.765 -1.8506 -0.8202  0.2854
  393TIP3    H2 1186   0.491   4.264   0.890  0.4468 -0.7820  0.7615
  394TIP3   OH2 1187   2.871   2.575   2.409 -0.2710 -0.3715  0.0120
  394TIP3    H1 1188   2.853   2.635   2.337  0.5334 -0.2618 -0.1068
  394TIP3    H2 1189   2.947   2.525   2.380  0.6832  0.3523  1.1916
  395TIP3   OH2 1190   5.497   1.004   3.644  0.2996 -0.0281  0.1661
  395TIP3    H1 1191   5.471   0.932   3.587 -1.1238  1.4954 -1.2179
  395TIP3    H2 1192   5.573   1.043   3.600  1.0148 -0.6232  0.8660
  396TIP3   OH2 1193   5.592   0.334   2.107  0.1878  0.1288  0.3756
  396TIP3    H1 1194   5.510   0.370   2.074  0.1230 -1.4174 -1.3185
  396TIP3    H2 1195   5.568   0.249   2.144  0.9321 -0.0618  0.4506
  397TIP3   OH2 1196   1.502   2.192   3.545 -0.2434 -0.4963 -0.4860
  397TIP3    H1 1197   1.535   2.127   3.606  0.2696  0.2633  0.0494
  397TIP3    H2 1198   1.416   2.215   3.579 -1.1088 -1.9757 -1.5110
  398TIP3   OH2 1199   0.805   2.980   4.356 -0.0629  0.7624 -0.9879
  398TIP3    H1 1200   0.711   2.999   4.348 -0.2042 -0.4313 -2.6479
  398TIP3    H2 1201   0.844   3.020   4.278  0.8836  1.5494 -0.1316
  399TIP3   OH2 1202   0.608   5.042   0.352  0.4916  0.6083  0.7587
  399TIP3    H1 1203   0.643   4.953   0.350 -0.5039  0.2048 -1.2038
  399TIP3    H2 1204   0.667   5.089   0.411  2.2262 -0.8588  0.3048
  400TIP3   OH2 1205   5.504   1.624   3.173 -0.3666 -0.9414  0.5004
  400TIP3    H1 1206   5.517   1.541   3.218 -1.5409 -1.6172 -0.3445
  400TIP3    H2 1207   5.415   1.651   3.197 -0.7371 -0.9455 -0.7821
  401TIP3   OH2 1208   5.500   1.036   1.974 -0.0275  0.7273  0.1592
  401TIP3    H1 1209   5.430   0.979   2.006  0.0366 -0.4096 -1.5962
  401TIP3    H2 1210   5.571   1.024   2.038 -0.8041  0.5503  1.0145
  402TIP3   OH2 1211   4.524   1.195   2.732  0.5592  0.3134 -0.7979
  402TIP3    H1 1212   4.617   1.190   2.712  0.7775  3.1450 -0.9030
  402TIP3    H2 1213   4.520   1.212   2.826  0.0663 -1.2122 -0.5290
  403TIP3   OH2 1214   5.748   1.078   4.872  0.0495 -0.3171  0.3838
  403TIP3    H1 1215   5.671   1.023   4.859  0.7924 -1.4158  0.4647
  403TIP3    H2 1216   5.793   1.076   4.787 -0.5881  1.2952 -0.0361
  404TIP3   OH2 1217   3.834   0.782   2.273  0.2115 -0.5997  0.1586
  404TIP3    H1 1218   3.789   0.782   2.358 -0.3084  0.9815 -0.0929
  404TIP3    H2 1219   3.925   0.802   2.294  0.2893 -1.2085  0.4245
  405TIP3   OH2 1220   2.180   5.236   1.311  0.6941  0.0535  0.0765
  405TIP3    H1 1221   2.141   5.306   1.258 -0.0137 -0.4559 -0.0982
  405TIP3    H2 1222   2.133   5.157   1.283 -0.3558 -0.1050  2.1025
  406TIP3   OH2 1223   1.379   1.887   2.296 -0.0468 -0.0388 -0.1709
  406TIP3    H1 1224   1.400   1.969   2.252  1.1236  0.0287  0.4875
  406TIP3    H2 1225   1.436   1.822   2.255  1.2870  0.0756  1.3686
  407TIP3   OH2 1226   3.588   5.706   0.760 -0.3095 -0.2714  0.3292
  407TIP3    H1 1227   3.605   5.642   0.691  2.0134  0.9776 -0.3607
  407TIP3    H2 1228   3.652   5.685   0.829  1.8779  2.3555 -0.7407
  408TIP3   OH2 1229   0.808   1.965   2.250  0.2450  0.7727  0.5560
  408TIP3    H1 1230   0.818   1.869   2.246  2.1668  0.9184  0.9756
  408TIP3    H2 1231   0.753   1.980   2.327  0.4693  0.0359  0.8748
  409TIP3   OH2 1232   3.701   3.106   5.005  0.1421 -0.0964  0.5433
  409TIP3    H1 1233   3.764   3.038   4.984 -0.6804 -0.5551 -0.5508
  409TIP3    H2 1234   3.709   3.169   4.932 -0.5415 -0.0851  0.4731
  410TIP3   OH2 1235   1.666   2.762   0.740  0.0328  0.2835  0.1897
  410TIP3    H1 1236   1.580   2.789   0.772 -0.3160  1.2068 -1.3720
  410TIP3    H2 1237   1.646   2.708   0.663  0.8362  0.6725 -0.3029
  411TIP3   OH2 1238   4.825   4.990   1.519 -0.2253  0.3431 -0.0140
  411TIP3    H1 1239   4.904   5.000   1.466  0.3325 -1.5349  0.3832
  411TIP3    H2 1240   4.790   4.905   1.494 -0.0057 -0.5768  2.4996
  412TIP3   OH2 1241   3.432   3.276   3.398  0.4072 -0.2863 -0.1772
  412TIP3    H1 1242   3.472   3.231   3.323  0.6082 -0.2023 -0.1214
  412TIP3    H2 1243   3.427   3.368   3.372  0.3909 -0.2719 -0.1245
  413TIP3   OH2 1244   4.905   2.409   3.084  0.2046  0.0774  0.4622
  413TIP3    H1 1245   4.871   2.343   3.023 -1.5191  0.5988  0.8149
  413TIP3    H2 1246   4.860   2.490   3.059  1.4457  0.8788  0.7649
  414TIP3   OH2 1247   1.209   3.369   2.428  0.3460 -0.1616  0.1031
  414TIP3    H1 1248   1.211   3.277   2.401  0.8772  0.2642 -1.4106
  414TIP3    H2 1249   1.163   3.368   2.512 -0.8436 -1.6530 -0.5076
  415TIP3   OH2 1250   0.882   4.014   0.150  1.0243 -0.2130 -0.5773
  415TIP3    H1 1251   0.965   3.966   0.146  1.3811  0.2400  0.6920
  415TIP3    H2 1252   0.897   4.091   0.094  1.1614 -0.5444 -1.0055
  416TIP3   OH2 1253   3.810   3.366   3.365 -0.1101  0.2437 -0.3721
  416TIP3    H1 1254   3.781   3.421   3.437 -0.1077 -0.2854  0.0417
  416TIP3    H2 1255   3.905   3.378   3.362 -0.1999  0.8829 -0.8106
  417TIP3   OH2 1256   1.056   3.633   0.120  0.2150  0.4513  0.5911
  417TIP3    H1 1257   1.042   3.573   0.047 -1.7955  1.6823 -0.1493
  417TIP3    H2 1258   1.055   3.578   0.198 -0.2924 -0.6218 -0.1486
  418TIP3   OH2 1259   2.271   1.473   0.479 -0.3770 -0.1844  0.4633
  418TIP3    H1 1260   2.283   1.428   0.562  3.2278  1.2546  0.8845
  418TIP3    H2 1261   2.214   1.548   0.500 -1.0453 -0.8810  1.1758
  419TIP3   OH2 1262   3.360   3.882   2.003  0.0200  0.4719 -0.3750
  419TIP3    H1 1263   3.328   3.792   1.996 -0.8950  0.7796 -0.2383
  419TIP3    H2 1264   3.370   3.911   1.912  0.9495  0.0288 -0.4307
  420TIP3   OH2 1265   4.206   2.733   2.484 -0.0913 -0.3560  0.4567
  420TIP3    H1 1266   4.273   2.666   2.469 -1.2010 -1.6973  1.2067
  420TIP3    H2 1267   4.232   2.776   2.565  0.6428  0.1624 -0.0424
  421TIP3   OH2 1268   0.248   0.674   2.979 -0.0453 -0.2227 -0.1151
  421TIP3    H1 1269   0.317   0.731   3.011  0.5055 -1.4803  1.0126
  421TIP3    H2 1270   0.178   0.734   2.951  1.5665  1.0852 -1.5711
  422TIP3   OH2 1271   3.995   3.926   1.112 -0.2185 -0.5951 -0.3742
  422TIP3    H1 1272   3.999   4.012   1.072 -0.9378  0.1830  1.1327
  422TIP3    H2 1273   3.906   3.895   1.092 -0.9617  0.2428  1.3739
  423TIP3   OH2 1274   5.119   5.004   0.492  0.2088  0.3400 -0.0960
  423TIP3    H1 1275   5.084   5.007   0.403  0.0482 -0.7341 -0.0910
  423TIP3    H2 1276   5.137   4.911   0.507  3.2454  0.8154 -0.1644
  424TIP3   OH2 1277   1.538   5.302   4.799  0.1590  0.1204 -0.5803
  424TIP3    H1 1278   1.582   5.234   4.749 -3.4977 -0.4953 -3.3423
  424TIP3    H2 1279   1.496   5.256   4.871 -0.1831 -0.1390 -0.9431
  425TIP3   OH2 1280   5.546   3.544   4.461 -0.3610  0.4464  0.0014
  425TIP3    H1 1281   5.593   3.556   4.544  0.7007  1.0447 -0.6511
  425TIP3    H2 1282   5.577   3.460   4.428 -0.3863  0.4538 -0.0406
  426TIP3   OH2 1283   0.168   2.512   2.769  0.2000 -0.2454  0.6045
  426TIP3    H1 1284   0.260   2.498   2.749  0.5528  0.7116  1.4688
  426TIP3    H2 1285   0.163   2.502   2.864 -0.2830  1.2774  0.7582
  427TIP3   OH2 1286   4.915   0.727   4.456  0.3488  0.1862 -0.2944
  427TIP3    H1 1287   4.916   0.763   4.367  1.6097 -2.0850 -1.2974
  427TIP3    H2 1288   4.999   0.682   4.465  0.4045  0.6454  2.2131
  428TIP3   OH2 1289   3.913   5.126   2.112  0.4755  0.4626 -0.1283
  428TIP3    H1 1290   3.892   5.105   2.203 -0.7346  2.4725  0.1228
  428TIP3    H2 1291   3.998   5.085   2.097  0.6582 -0.0098  1.8720
  429TIP3   OH2 1292   1.899   5.174   4.348 -0.2336 -0.1504  0.4930
  429TIP3    H1 1293   1.987   5.213   4.348 -0.3181  0.1760 -1.4452
  429TIP3    H2 1294   1.913   5.083   4.372  0.5972 -0.0287  0.5124
  430TIP3   OH2 1295   1.442   4.126   5.101 -0.2784  0.2096  0.5287
  430TIP3    H1 1296   1.359   4.112   5.056  0.2528  0.0796 -0.4206
  430TIP3    H2 1297   1.509   4.113   5.034  0.5629 -0.6191  1.4857
  431TIP3   OH2 1298   0.316   1.700   2.558  0.1958  0.3142  0.2255
  431TIP3    H1 1299   0.236   1.651   2.536  0.4131 -0.8862  1.9139
  431TIP3    H2 1300   0.294   1.791   2.540 -0.6700 -0.2159 -1.7688
  432TIP3   OH2 1301   2.175   1.567   4.119  0.6725  0.2744 -0.3636
  432TIP3    H1 1302   2.219   1.509   4.181  0.3259  0.8018  0.3965
  432TIP3    H2 1303   2.122   1.509   4.065  2.9130 -0.4840 -1.8902
  433TIP3   OH2 1304   4.432   3.715   1.924  0.5310 -0.3738  0.2370
  433TIP3    H1 1305   4.367   3.751   1.863  1.1043  0.7240  0.2548
  433TIP3    H2 1306   4.515   3.756   1.898  0.6868  0.6377  2.1255
  434TIP3   OH2 1307   0.268   4.714   0.799 -0.2664 -0.0329  0.2391
  434TIP3    H1 1308   0.185   4.714   0.752 -0.1735 -1.5705  0.0463
  434TIP3    H2 1309   0.317   4.787   0.760 -0.2317 -1.1574 -2.0403
  435TIP3   OH2 1310   1.158   3.674   1.686 -0.0294 -0.0142  0.8066
  435TIP3    H1 1311   1.247   3.689   1.720  0.3256  0.3272 -0.2275
  435TIP3    H2 1312   1.171   3.622   1.607 -0.7474  0.0714  0.6271
  436TIP3   OH2 1313   4.944   3.721   2.670 -0.0868  0.3646  0.1239
  436TIP3    H1 1314   4.901   3.712   2.585  1.1605  1.7107 -0.6976
  436TIP3    H2 1315   4.877   3.696   2.734 -1.8961  1.7483 -1.1190
  437TIP3   OH2 1316   5.805   2.379   3.707  0.1719  0.5345  0.0834
  437TIP3    H1 1317   5.831   2.355   3.796 -0.1577  0.4843  0.1662
  437TIP3    H2 1318   5.821   2.301   3.655 -0.5208  0.2610  0.2759
  438TIP3   OH2 1319   3.143   1.313   0.633  0.1479  0.0195  0.7318
  438TIP3    H1 1320   3.220   1.262   0.658  0.0520 -0.3934  0.1978
  438TIP3    H2 1321   3.152   1.394   0.683  1.2302  0.2201  0.2596
  439TIP3   OH2 1322   1.128   1.004   3.424 -0.4595 -0.1307 -0.1492
  439TIP3    H1 1323   1.222   0.990   3.415 -0.0287  2.9509 -1.6121
  439TIP3    H2 1324   1.117   1.033   3.514  0.4179  1.6804 -0.5694
  440TIP3   OH2 1325   2.687   1.569   4.456  0.4098  0.4815  0.0766
  440TIP3    H1 1326   2.607   1.579   4.405  1.3969  0.7661 -1.4846
  440TIP3    H2 1327   2.676   1.485   4.501 -0.5112  0.2492 -0.5594
  441TIP3   OH2 1328   4.497   4.464   0.779  0.0711 -0.4355  0.3329
  441TIP3    H1 1329   4.462   4.552   0.794 -1.0228 -0.8244  0.0892
  441TIP3    H2 1330   4.427   4.416   0.736  1.2426 -0.9518 -1.1034
  442TIP3   OH2 1331   6.307   1.536   0.562  0.2089 -0.0530  0.4333
  442TIP3    H1 1332   6.236   1.479   0.535 -2.1110  2.9830 -0.5193
  442TIP3    H2 1333   6.353   1.559   0.481 -0.2302  1.0237  0.4687
  443TIP3   OH2 1334   1.129   4.357   3.304 -0.3515 -0.2600 -0.0392
  443TIP3    H1 1335   1.184   4.304   3.363  0.5976  0.2325 -0.4651
  443TIP3    H2 1336   1.044   4.314   3.306  0.0157 -0.9814  0.7212
  444TIP3   OH2 1337   5.251   4.490   0.370  0.6150 -0.7692  0.7218
  444TIP3    H1 1338   5.325   4.535   0.330  0.8613 -2.2819 -0.5885
  444TIP3    H2 1339   5.214   4.437   0.300 -3.4420  1.9208  0.4969
  445TIP3   OH2 1340   2.051   3.662   2.155 -0.1002 -0.0511  0.5098
  445TIP3    H1 1341   2.134   3.708   2.144 -0.2066  0.0809  0.2504
  445TIP3    H2 1342   1.986   3.721   2.116 -0.0780 -0.9815 -1.0045
  446TIP3   OH2 1343   0.529   2.111   2.211 -0.4282  0.4506  0.5427
  446TIP3    H1 1344   0.494   2.024   2.191  0.1240 -0.0597  1.6785
  446TIP3    H2 1345   0.478   2.140   2.287 -0.3719  0.9686  0.3838
  447TIP3   OH2 1346   1.342   3.030   1.172  0.1449  0.4940 -0.6316
  447TIP3    H1 1347   1.340   2.959   1.236 -2.6606  2.5756  1.8792
  447TIP3    H2 1348   1.414   3.086   1.200  1.3598 -0.4722 -1.6896
  448TIP3   OH2 1349   3.624   2.382   3.711  0.0563  0.3654  0.2293
  448TIP3    H1 1350   3.659   2.294   3.724 -0.4855  0.1423  0.1689
  448TIP3    H2 1351   3.688   2.424   3.652  0.6831  0.2493  0.8137
  449TIP3   OH2 1352   3.232   4.276   0.678 -0.6762  0.1033  0.3570
  449TIP3    H1 1353   3.318   4.309   0.654 -0.1880  0.4549  2.3897
  449TIP3    H2 1354   3.197   4.342   0.738 -1.6965 -0.8124  0.8038
  450TIP3   OH2 1355   2.528   2.214   2.663 -0.1745 -0.4397 -0.0643
  450TIP3    H1 1356   2.509   2.123   2.645 -1.7926 -0.7318  2.5499
  450TIP3    H2 1357   2.565   2.213   2.752  1.9484  1.2688 -0.8384
  451TIP3   OH2 1358   5.041   1.241   1.429  0.6951  0.1163  0.5591
  451TIP3    H1 1359   5.124   1.217   1.470  0.0558 -0.2515  1.6452
  451TIP3    H2 1360   5.036   1.337   1.439  1.1535  0.1875  0.1541
  452TIP3   OH2 1361   0.939   2.769   0.546  0.1883  0.0781  0.8004
  452TIP3    H1 1362   0.898   2.702   0.491 -1.4136  1.6071  0.0253
  452TIP3    H2 1363   1.017   2.796   0.498  0.0748 -0.2403  0.4362
  453TIP3   OH2 1364   4.560   2.805   0.404  0.2440 -0.1873  0.4492
  453TIP3    H1 1365   4.525   2.723   0.370 -0.1505 -0.1561  0.7742
  453TIP3    H2 1366   4.598   2.781   0.489  0.0926 -0.0299  0.5630
  454TIP3   OH2 1367   0.970   4.647   2.961  0.4716  0.0117  0.3870
  454TIP3    H1 1368   0.886   4.677   2.928  0.5678 -0.1761 -0.0289
  454TIP3    H2 1369   1.020   4.727   2.977  0.5394  0.0908 -0.2241
  455TIP3   OH2 1370   2.765   5.177   2.678 -0.2406 -0.1165 -0.0614
  455TIP3    H1 1371   2.684   5.216   2.647 -1.3966 -0.1416  2.6040
  455TIP3    H2 1372   2.815   5.251   2.714 -0.5240 -0.4615  1.1071
  456TIP3   OH2 1373   0.389   3.081   1.924 -0.0005 -0.6226 -0.4645
  456TIP3    H1 1374   0.300   3.050   1.939 -0.0785  0.0774  0.5331
  456TIP3    H2 1375   0.429   3.084   2.011  0.5881  0.3079 -0.7574
  457TIP3   OH2 1376   4.276   3.229   0.573  0.2271  0.1542 -0.2440
  457TIP3    H1 1377   4.183   3.207   0.583  0.5236 -0.8378  0.4757
  457TIP3    H2 1378   4.315   3.150   0.535  0.6940  0.7435 -0.9987
  458TIP3   OH2 1379   4.211   0.940   1.448 -0.4291  0.0284 -0.1943
  458TIP3    H1 1380   4.229   1.022   1.401 -0.8369  1.2364  1.6426
  458TIP3    H2 1381   4.123   0.915   1.420 -0.2481  0.1355 -0.8727
  459TIP3   OH2 1382   2.624   3.053   0.066  0.5187  0.1729 -0.3997
  459TIP3    H1 1383   2.595   3.141   0.091  1.7812  0.0996  1.4974
  459TIP3    H2 1384   2.719   3.058   0.064  0.5618 -0.6002 -2.5722
  460TIP3   OH2 1385   1.611   5.296   0.163 -0.2938  0.6208 -0.2327
  460TIP3    H1 1386   1.593   5.232   0.094 -0.7914 -0.3472  0.7572
  460TIP3    H2 1387   1.525   5.331   0.186 -0.3704 -0.3505  1.0714
  461TIP3   OH2 1388   4.609   3.605   0.924 -1.0578 -0.2670  0.1512
  461TIP3    H1 1389   4.693   3.618   0.881 -1.5561  0.1319 -0.7325
  461TIP3    H2 1390   4.550   3.577   0.853 -1.7544 -0.1915  0.6915
  462TIP3   OH2 1391   5.013   4.141   1.813  0.1973 -0.2574 -0.2067
  462TIP3    H1 1392   4.965   4.222   1.793 -0.9722 -0.4206  1.7587
  462TIP3    H2 1393   4.970   4.074   1.759 -0.3048  0.0084 -0.1383
  463TIP3   OH2 1394   3.640   1.760   4.700 -0.1779 -0.7565 -0.0178
  463TIP3    H1 1395   3.658   1.711   4.780  0.3608 -2.3480 -1.0474
  463TIP3    H2 1396   3.595   1.696   4.644  0.5834 -0.0833 -1.4413
  464TIP3   OH2 1397   0.336   2.617   4.978  0.0738  0.3076  0.3291
  464TIP3    H1 1398   0.321   2.574   5.062  1.9014 -0.6282  0.2143
  464TIP3    H2 1399   0.371   2.703   5.002  0.4913  0.0833  0.5356
  465TIP3   OH2 1400   1.680   4.524   0.961 -0.4802  0.1478 -0.3317
  465TIP3    H1 1401   1.726   4.582   0.901 -2.3606  1.5823 -0.4969
  465TIP3    H2 1402   1.685   4.568   1.046  0.1080 -0.6660  0.0710
  466TIP3   OH2 1403   4.060   5.722   0.973 -0.9043 -0.0349  1.0881
  466TIP3    H1 1404   4.117   5.780   0.923  1.4625 -1.6997  1.6502
  466TIP3    H2 1405   4.110   5.640   0.980 -3.8056 -1.9745  0.8279
  467TIP3   OH2 1406   5.168   2.612   0.409  0.2550  0.6400  0.1388
  467TIP3    H1 1407   5.162   2.636   0.502  0.6581  0.2569  0.2642
  467TIP3    H2 1408   5.156   2.517   0.408  0.0478  0.6719 -0.2204
  468TIP3   OH2 1409   1.302   3.117   0.106  0.0614 -0.0169  0.0832
  468TIP3    H1 1410   1.358   3.040   0.102  0.2171  0.1574 -1.5919
  468TIP3    H2 1411   1.323   3.167   0.028 -2.3427  0.0929 -0.5724
  469TIP3   OH2 1412   5.449   3.487   3.231 -0.4032 -0.0195 -0.2739
  469TIP3    H1 1413   5.414   3.398   3.233 -1.9700  0.5389 -0.9073
  469TIP3    H2 1414   5.400   3.530   3.161  1.4295  0.9221 -1.0359
  470TIP3   OH2 1415   1.102   1.640   4.876 -0.8292 -0.2928 -0.1376
  470TIP3    H1 1416   1.154   1.720   4.882 -1.1374 -0.0701 -0.4218
  470TIP3    H2 1417   1.154   1.582   4.820 -0.0380 -0.7432  1.0329
  471TIP3   OH2 1418   1.589   1.519   1.521  0.0258 -0.2203  0.3588
  471TIP3    H1 1419   1.653   1.589   1.535 -1.3682  0.8195  1.7827
  471TIP3    H2 1420   1.632   1.461   1.458  2.4042  0.3890  1.2878
  472TIP3   OH2 1421   1.838   1.937   2.015 -0.4206 -0.1197 -0.8372
  472TIP3    H1 1422   1.806   1.993   2.086 -1.1311  0.1113 -1.3280
  472TIP3    H2 1423   1.845   1.850   2.055  0.5570  0.2757 -0.1063
  473TIP3   OH2 1424   3.293   2.029   0.801 -0.0682 -0.3752  0.1767
  473TIP3    H1 1425   3.367   2.033   0.861 -0.0957  4.2573  0.2602
  473TIP3    H2 1426   3.333   2.016   0.715  1.1662  2.9087  0.0997
  474TIP3   OH2 1427   5.477   5.066   3.360 -0.2368  0.4276  0.7389
  474TIP3    H1 1428   5.568   5.045   3.340 -0.7476 -1.4740  0.2345
  474TIP3    H2 1429   5.444   4.989   3.406 -1.6089  1.0715  0.8828
  475TIP3   OH2 1430   5.027   2.841   1.026 -0.0223  0.0822 -0.5091
  475TIP3    H1 1431   4.980   2.923   1.042 -0.5615 -0.3222  0.0316
  475TIP3    H2 1432   5.006   2.787   1.102  0.3154 -0.5670 -0.8753
  476TIP3   OH2 1433   5.647   5.927   0.313  0.4753  0.0352 -0.1311
  476TIP3    H1 1434   5.604   5.857   0.263 -1.4319  0.0566  1.3489
  476TIP3    H2 1435   5.702   5.881   0.376  0.8261 -0.0566 -0.4984
  477TIP3   OH2 1436   2.316   5.443   4.681  0.4260  0.0414  0.0300
  477TIP3    H1 1437   2.331   5.355   4.647 -0.3353 -0.1394  0.1529
  477TIP3    H2 1438   2.294   5.430   4.773  0.4509  0.3748  0.0849
  478TIP3   OH2 1439   3.673   2.819   1.843  0.2008  0.1843  0.1423
  478TIP3    H1 1440   3.599   2.835   1.900 -0.4564  0.8742 -0.8771
  478TIP3    H2 1441   3.746   2.867   1.883  0.5377 -1.6894  1.9579
  479TIP3   OH2 1442   2.177   2.560   0.813 -0.1894 -0.0742  0.5771
  479TIP3    H1 1443   2.261   2.545   0.769 -0.7230  1.4579 -1.0519
  479TIP3    H2 1444   2.196   2.541   0.905  2.4635  1.9321  0.5782
  480TIP3   OH2 1445   5.471   0.744   3.512 -0.1892  0.1455 -0.6625
  480TIP3    H1 1446   5.384   0.713   3.535  0.3480 -0.0552  1.2393
  480TIP3    H2 1447   5.512   0.670   3.466 -0.0589 -0.8356  0.9571
  481TIP3   OH2 1448   4.427   0.324   2.220  0.1481  0.1826  0.2859
  481TIP3    H1 1449   4.387   0.372   2.293  1.0428  0.9853  0.2689
  481TIP3    H2 1450   4.467   0.392   2.166  1.5625 -0.5796  0.3254
  482TIP3   OH2 1451   1.403   4.541   0.371 -0.2798 -0.0092 -0.0835
  482TIP3    H1 1452   1.469   4.610   0.378  0.1051 -0.4156  0.2756
  482TIP3    H2 1453   1.335   4.579   0.315  0.1419  0.4984 -0.2548
  483TIP3   OH2 1454   4.585   5.532   3.011 -0.1589  0.0491 -0.0657
  483TIP3    H1 1455   4.579   5.575   3.096  1.0337  1.4652 -0.6727
  483TIP3    H2 1456   4.527   5.456   3.019 -1.1754  0.9399  1.5202
  484TIP3   OH2 1457   0.880   2.592   0.755  0.0378  0.6645 -0.0654
  484TIP3    H1 1458   0.958   2.536   0.761 -1.6135 -2.3846 -3.1612
  484TIP3    H2 1459   0.901   2.653   0.684 -0.6376 -0.9125 -1.7146
  485TIP3   OH2 1460   4.381   4.581   0.501 -0.0828  0.5585 -1.0011
  485TIP3    H1 1461   4.442   4.649   0.528  0.8390  0.4109 -2.6045
  485TIP3    H2 1462   4.298   4.627   0.490 -0.1915  0.8513  0.7207
  486TIP3   OH2 1463   0.941   5.383   5.187 -0.0427  0.0470 -0.0366
  486TIP3    H1 1464   0.917   5.385   5.095  0.2812  1.2776 -0.1082
  486TIP3    H2 1465   0.908   5.465   5.223 -1.6208 -1.1125  1.3453
  487TIP3   OH2 1466   5.976   2.569   1.313 -0.1470 -0.3147 -0.1698
  487TIP3    H1 1467   6.007   2.637   1.254 -0.0802 -0.4668 -0.3101
  487TIP3    H2 1468   5.906   2.610   1.364  0.3662  0.0710  0.2356
  488TIP3   OH2 1469   4.334   0.129   4.147  0.1275 -1.3141  0.2377
  488TIP3    H1 1470   4.405   0.091   4.094 -0.9228 -1.7272 -0.9294
  488TIP3    H2 1471   4.342   0.223   4.133  0.1692 -1.3878 -0.2731
  489TIP3   OH2 1472   0.553   0.496   4.124  0.3171  0.1960 -0.4435
  489TIP3    H1 1473   0.516   0.427   4.179 -0.6808 -0.2696 -1.6589
  489TIP3    H2 1474   0.620   0.452   4.073 -0.1772  0.1712 -1.0733
  490TIP3   OH2 1475   2.632   0.818   1.357  0.2058 -1.2662 -0.1762
  490TIP3    H1 1476   2.690   0.894   1.363 -0.5893 -0.4834 -1.8073
  490TIP3    H2 1477   2.635   0.778   1.444  1.1624  0.2410  0.5143
  491TIP3   OH2 1478   5.608   4.819   1.680 -0.6290 -0.5699 -0.3374
  491TIP3    H1 1479   5.654   4.884   1.734 -1.2908 -0.3444 -0.0301
  491TIP3    H2 1480   5.516   4.828   1.706 -0.5368 -2.8969  1.0935
  492TIP3   OH2 1481   0.569   2.327   1.650  0.2153 -0.1996 -0.3058
  492TIP3    H1 1482   0.548   2.333   1.743  1.7105  0.1288  0.0326
  492TIP3    H2 1483   0.539   2.411   1.614 -1.0687 -0.6302 -0.2980
  493TIP3   OH2 1484   5.757   0.621   2.083 -0.2696 -0.0363  0.2216
  493TIP3    H1 1485   5.708   0.663   2.012  0.1656  1.4748  0.7680
  493TIP3    H2 1486   5.703   0.547   2.109 -1.7302  0.9205  0.0461
  494TIP3   OH2 1487   6.302   1.405   1.727 -0.3583  0.6172  0.0401
  494TIP3    H1 1488   6.303   1.389   1.822 -0.8180  1.0616  0.1253
  494TIP3    H2 1489   6.210   1.393   1.702 -0.1573  0.0231 -0.4379
  495TIP3   OH2 1490   3.571   2.762   0.668  0.1109  0.6237  0.0250
  495TIP3    H1 1491   3.567   2.722   0.582 -0.2992  1.5793 -0.4056
  495TIP3    H2 1492   3.564   2.688   0.729  1.1294 -0.1388 -0.7388
  496TIP3   OH2 1493   2.753   3.613   1.649 -0.3303  0.0584  0.2618
  496TIP3    H1 1494   2.691   3.556   1.694 -0.0101 -0.6007 -0.1166
  496TIP3    H2 1495   2.777   3.678   1.714  0.0546 -0.8264  1.0248
  497TIP3   OH2 1496   6.000   5.813   4.628  0.3822 -0.0568 -0.5618
  497TIP3    H1 1497   5.963   5.855   4.706 -0.9418 -0.7730 -0.7721
  497TIP3    H2 1498   6.092   5.797   4.651  0.8613  2.6148 -0.3726
  498TIP3   OH2 1499   5.281   0.692   1.688  0.2684  0.2018  0.5503
  498TIP3    H1 1500   5.364   0.739   1.695  0.3280  0.2887 -0.5139
  498TIP3    H2 1501   5.225   0.750   1.636 -0.5889  0.3018  1.5654
  499TIP3   OH2 1502   1.381   5.883   4.481 -0.4773  0.0747  0.5369
  499TIP3    H1 1503   1.340   5.828   4.415  0.1471  0.1278  0.0896
  499TIP3    H2 1504   1.316   5.890   4.551 -0.1558 -2.1578  1.1214
  500TIP3   OH2 1505   3.231   0.683   4.891  0.4618 -0.1256 -1.0111
  500TIP3    H1 1506   3.294   0.616   4.862 -1.1759 -2.0158 -0.4398
  500TIP3    H2 1507   3.158   0.633   4.928 -0.6369  2.0254 -0.0882
  501TIP3   OH2 1508   4.414   4.241   2.703 -0.0838 -0.8136  0.4114
  501TIP3    H1 1509   4.455   4.325   2.719  0.2027 -1.1866  1.7485
  501TIP3    H2 1510   4.326   4.262   2.672 -0.0740 -0.0319  0.9040
  502TIP3   OH2 1511   0.250   0.037   2.045 -0.0760  0.4918  1.0151
  502TIP3    H1 1512   0.239  -0.058   2.047  0.5251  0.4220  1.2177
  502TIP3    H2 1513   0.202   0.065   1.968  1.3481 -0.1957 -0.1609
  503TIP3   OH2 1514   2.108   5.539   0.379  0.1732 -0.3450 -0.1526
  503TIP3    H1 1515   2.098   5.471   0.313 -0.2234 -0.6850  0.2538
  503TIP3    H2 1516   2.202   5.540   0.399  0.2242 -0.5558 -0.3900
  504TIP3   OH2 1517   1.838   5.878   3.148  0.1676  0.1948 -0.3662
  504TIP3    H1 1518   1.887   5.958   3.166 -2.4181  1.1615  3.5725
  504TIP3    H2 1519   1.886   5.809   3.195  0.2085  0.2282 -0.3594
  505TIP3   OH2 1520   0.677   2.428   0.720 -0.4507 -0.0018 -0.3881
  505TIP3    H1 1521   0.724   2.385   0.648 -0.1754 -0.3215 -0.0181
  505TIP3    H2 1522   0.729   2.506   0.740  1.9553 -2.1201  2.3681
  506TIP3   OH2 1523   2.788   3.319   0.645  0.5238  0.1110  0.0604
  506TIP3    H1 1524   2.759   3.400   0.604 -1.9898 -0.8011 -0.1630
  506TIP3    H2 1525   2.753   3.323   0.734  0.6237 -0.5931  0.1377
  507TIP3   OH2 1526   3.079   5.132   4.276 -0.0958  0.1161 -0.3036
  507TIP3    H1 1527   3.162   5.123   4.229  0.1459 -1.5946  0.3711
  507TIP3    H2 1528   3.030   5.054   4.252 -1.4079  0.9528 -0.4304
  508TIP3   OH2 1529   4.113   0.081   4.462  0.1334  0.2530  0.0375
  508TIP3    H1 1530   4.146   0.048   4.379 -0.7881 -0.0501 -0.2183
  508TIP3    H2 1531   4.144   0.018   4.527  2.4371  1.4641  0.2152
  509TIP3   OH2 1532   5.181   4.433   2.584  0.3110 -0.5906 -0.7433
  509TIP3    H1 1533   5.261   4.386   2.607 -0.0327 -1.2812 -0.9207
  509TIP3    H2 1534   5.128   4.430   2.664  0.8801  0.7796 -0.2955
  510TIP3   OH2 1535   1.280   2.312   3.664 -0.2271  0.1240 -0.4877
  510TIP3    H1 1536   1.251   2.378   3.601  2.9432  1.9074 -0.2756
  510TIP3    H2 1537   1.258   2.350   3.749 -1.6732 -0.8697 -0.3654
  511TIP3   OH2 1538   1.922   5.732   0.416 -0.4184 -0.1836  0.0771
  511TIP3    H1 1539   2.018   5.733   0.428 -0.3898 -0.8257 -0.0768
  511TIP3    H2 1540   1.903   5.643   0.387 -1.0813 -0.0876  0.2218
  512TIP3   OH2 1541   0.265   4.452   4.155  0.0360 -0.1165 -0.2478
  512TIP3    H1 1542   0.182   4.456   4.202  0.2773 -1.0744  0.2725
  512TIP3    H2 1543   0.329   4.424   4.220  0.7292  0.3842 -0.7005
  513TIP3   OH2 1544   3.196   3.480   1.191  0.0838  0.5097  0.3614
  513TIP3    H1 1545   3.278   3.473   1.141  0.0565  1.0246  0.2293
  513TIP3    H2 1546   3.129   3.446   1.132  0.1262  0.6108  0.2538
  514TIP3   OH2 1547   3.779   3.168   4.741 -0.2265  0.0164 -0.0949
  514TIP3    H1 1548   3.805   3.144   4.652  0.1175  0.2941 -0.0735
  514TIP3    H2 1549   3.861   3.165   4.792 -0.7636 -2.5158  0.7784
  515TIP3   OH2 1550   0.564   0.413   1.251 -0.1414  0.2782 -0.0647
  515TIP3    H1 1551   0.471   0.434   1.251  0.0140  1.0218  0.3569
  515TIP3    H2 1552   0.584   0.389   1.160 -0.9451 -0.8730  0.0460
  516TIP3   OH2 1553   1.398   4.151   0.929 -0.2165 -0.1978  0.5693
  516TIP3    H1 1554   1.427   4.171   1.018  0.0464  2.2608  0.0114
  516TIP3    H2 1555   1.443   4.069   0.907  1.6733  0.4180  1.8440
  517TIP3   OH2 1556   0.454   0.783   3.154  0.0371  0.1637  0.0105
  517TIP3    H1 1557   0.419   0.700   3.187 -0.3016 -0.5871 -2.0746
  517TIP3    H2 1558   0.491   0.826   3.231  0.6057 -2.1161  1.0878
  518TIP3   OH2 1559   0.101   1.835   2.231 -0.0207 -0.1164  0.2477
  518TIP3    H1 1560   0.151   1.759   2.202  1.8209  1.4761 -1.0148
  518TIP3    H2 1561   0.130   1.850   2.321  0.8428  0.0330 -0.0488
  519TIP3   OH2 1562   1.333   2.184   0.386 -0.3588 -0.4844 -0.1740
  519TIP3    H1 1563   1.272   2.210   0.456 -2.2396  1.0125 -2.1922
  519TIP3    H2 1564   1.307   2.095   0.364  0.9594 -1.3732  1.6741
  520TIP3   OH2 1565   2.127   0.617   1.062 -0.2421  0.0843 -0.0656
  520TIP3    H1 1566   2.192   0.551   1.038 -0.9347 -0.7447  0.3051
  520TIP3    H2 1567   2.164   0.699   1.028 -0.4259 -0.7859 -2.6029
  521TIP3   OH2 1568   2.502   1.679   3.605  0.4218  0.0827 -0.0400
  521TIP3    H1 1569   2.486   1.584   3.609 -0.8864  0.2855  0.1294
  521TIP3    H2 1570   2.518   1.704   3.696 -1.0700  0.2910  0.1889
  522TIP3   OH2 1571   1.585   0.290   3.880 -0.4151  0.2565 -0.5964
  522TIP3    H1 1572   1.646   0.217   3.873  0.3013  0.9941 -2.8991
  522TIP3    H2 1573   1.509   0.253   3.925  0.5139 -1.4871 -0.3707
  523TIP3   OH2 1574   2.253   1.046   2.371  0.2865  0.3055 -0.1401
  523TIP3    H1 1575   2.248   1.042   2.275  1.2248  0.1766 -0.1979
  523TIP3    H2 1576   2.283   1.134   2.390  1.1417 -0.0015 -0.0284
  524TIP3   OH2 1577   4.436   4.192   4.471  0.1962  0.3847 -0.1659
  524TIP3    H1 1578   4.517   4.219   4.427 -0.0575 -0.6019 -1.2882
  524TIP3    H2 1579   4.447   4.098   4.485 -0.5724  0.3249  0.0623
  525TIP3   OH2 1580   4.634   0.709   2.286  0.0386  0.8012 -0.1913
  525TIP3    H1 1581   4.639   0.796   2.325  0.7402  1.0330 -0.7823
  525TIP3    H2 1582   4.702   0.709   2.218  0.3940 -0.3627  0.1371
  526TIP3   OH2 1583   4.189   5.811   4.025 -0.4289 -0.2721 -0.5284
  526TIP3    H1 1584   4.271   5.762   4.030 -0.5348 -0.3190  1.1591
  526TIP3    H2 1585   4.163   5.804   3.933 -0.0704 -2.7737 -0.5056
  527TIP3   OH2 1586   5.259   5.825   4.846 -0.0515 -0.2490 -0.4886
  527TIP3    H1 1587   5.182   5.882   4.843 -0.0072 -0.1563  0.0621
  527TIP3    H2 1588   5.253   5.782   4.931  0.1836 -0.6945 -0.6967
  528TIP3   OH2 1589   4.506   3.123   4.495 -0.3114  0.1903  0.1833
  528TIP3    H1 1590   4.420   3.084   4.487 -0.1158 -0.3301  0.5984
  528TIP3    H2 1591   4.553   3.067   4.556 -0.0066  1.0387  0.7522
  529TIP3   OH2 1592   2.725   3.325   2.311  0.5747 -0.1483  0.0325
  529TIP3    H1 1593   2.635   3.301   2.286  0.4328 -2.8783  2.5889
  529TIP3    H2 1594   2.715   3.367   2.397  1.6917  0.3910 -0.0851
  530TIP3   OH2 1595   3.672   5.853   1.640  0.0215  0.1250 -0.2821
  530TIP3    H1 1596   3.635   5.859   1.552  2.4955 -0.1275 -1.4194
  530TIP3    H2 1597   3.709   5.940   1.656 -0.1340  0.0735  0.3790
  531TIP3   OH2 1598   3.662   0.571   5.132  0.2721 -0.1931  0.0418
  531TIP3    H1 1599   3.650   0.524   5.214  1.0325  0.2687  0.4321
  531TIP3    H2 1600   3.748   0.542   5.101  0.5216  0.5440  0.0305
  532TIP3   OH2 1601   2.883   3.141   0.873 -0.0389  1.0616  0.1431
  532TIP3    H1 1602   2.833   3.173   0.797  2.2210 -1.4384 -2.6496
  532TIP3    H2 1603   2.973   3.138   0.842  0.8974 -0.7169  2.7456
  533TIP3   OH2 1604   4.596   4.073   2.381 -0.3232  0.0130  0.3304
  533TIP3    H1 1605   4.555   3.990   2.406 -2.0023  0.7411  0.1509
  533TIP3    H2 1606   4.522   4.133   2.370  0.6589  0.8959 -2.0044
  534TIP3   OH2 1607   1.309   5.256   1.577 -0.4561 -0.3131 -0.0362
  534TIP3    H1 1608   1.325   5.184   1.638 -1.2524 -1.9361 -1.6710
  534TIP3    H2 1609   1.242   5.310   1.620  1.6528  0.7480  2.1684
  535TIP3   OH2 1610   2.984   0.527   0.795  0.1429 -0.6531 -0.1379
  535TIP3    H1 1611   2.949   0.562   0.876  0.7705 -3.6095  1.5666
  535TIP3    H2 1612   3.077   0.517   0.811  0.3706 -0.7862 -1.4254
  536TIP3   OH2 1613   5.418   0.887   1.388  0.3709  0.2157 -0.1264
  536TIP3    H1 1614   5.496   0.922   1.431  0.7525 -0.2673 -0.4071
  536TIP3    H2 1615   5.447   0.803   1.352  0.0216  0.5380 -1.1908
  537TIP3   OH2 1616   5.606   1.907   3.197 -0.0715  0.4674 -0.4613
  537TIP3    H1 1617   5.591   1.813   3.201  0.1473  0.4682  1.5213
  537TIP3    H2 1618   5.596   1.929   3.105 -3.2231 -0.9959 -0.5979
  538TIP3   OH2 1619   0.731   0.731   3.488 -0.0098  0.2415 -0.5807
  538TIP3    H1 1620   0.815   0.706   3.451  0.9109  2.7659 -0.3716
  538TIP3    H2 1621   0.720   0.672   3.563  2.9452  1.5151  1.0586
  539TIP3   OH2 1622   3.876   0.747   3.508  0.2437 -0.1520 -0.0983
  539TIP3    H1 1623   3.928   0.762   3.587  0.1207  2.0967 -0.3922
  539TIP3    H2 1624   3.922   0.794   3.439 -0.7681 -0.3482 -0.9340
  540TIP3   OH2 1625   1.632   5.530   1.999 -0.1965  0.3175 -0.0578
  540TIP3    H1 1626   1.593   5.444   1.980 -0.2313  0.0552  1.1600
  540TIP3    H2 1627   1.596   5.587   1.931  0.0316 -0.6727 -1.0511
  541TIP3   OH2 1628   5.764   2.087   4.152 -0.4427  0.3184 -0.0313
  541TIP3    H1 1629   5.712   2.097   4.232  1.0559 -0.9146  1.1702
  541TIP3    H2 1630   5.707   2.035   4.094 -1.1552  0.3131  0.6448
  542TIP3   OH2 1631   3.207   5.030   0.262 -0.3513 -0.1996  0.6740
  542TIP3    H1 1632   3.132   4.990   0.219 -0.7499  1.1967  0.0016
  542TIP3    H2 1633   3.179   5.119   0.282  0.7699  0.0182  1.3771
  543TIP3   OH2 1634   4.284   3.902   0.592  0.2276 -0.0885  0.3673
  543TIP3    H1 1635   4.268   3.947   0.509  0.6787 -0.0008  0.3242
  543TIP3    H2 1636   4.285   3.972   0.657 -0.8292 -0.2335  0.5500
  544TIP3   OH2 1637   0.443   3.825   3.234 -0.2508  0.7096  0.1925
  544TIP3    H1 1638   0.515   3.809   3.296  0.3520 -0.4002 -0.7476
  544TIP3    H2 1639   0.455   3.916   3.207  2.2981 -0.0313 -1.6801
  545TIP3   OH2 1640   3.680   2.691   0.230  0.5507 -0.0241 -0.3144
  545TIP3    H1 1641   3.732   2.643   0.165 -0.2846 -0.5615 -0.5943
  545TIP3    H2 1642   3.638   2.761   0.180 -0.6478 -0.8611 -0.5020
  546TIP3   OH2 1643   5.038   1.677   1.293  1.2634  0.0451 -0.0327
  546TIP3    H1 1644   4.997   1.758   1.265  2.8452  0.3062 -1.7831
  546TIP3    H2 1645   5.051   1.627   1.213  2.9350 -0.6688  0.6265
  547TIP3   OH2 1646   0.887   3.309   3.413  0.1160  0.0632 -0.7567
  547TIP3    H1 1647   0.813   3.352   3.455 -1.5808 -2.0798 -1.3647
  547TIP3    H2 1648   0.951   3.297   3.483 -1.0115  0.0380  0.2949
  548TIP3   OH2 1649   5.086   5.821   4.099  0.0773  0.7577  0.0222
  548TIP3    H1 1650   5.156   5.775   4.146 -1.0919  0.6287  1.7322
  548TIP3    H2 1651   5.077   5.772   4.017  0.5307 -0.5602  0.7194
  549TIP3   OH2 1652   1.786   1.175   4.441  0.2503 -0.1980 -0.4066
  549TIP3    H1 1653   1.839   1.254   4.434 -1.4918  1.1018  0.3077
  549TIP3    H2 1654   1.740   1.170   4.358 -0.8704  0.4997  0.1512
  550TIP3   OH2 1655   1.337   4.780   4.704 -0.2381  0.1723  0.2710
  550TIP3    H1 1656   1.376   4.694   4.717 -3.0872 -1.3421 -0.3808
  550TIP3    H2 1657   1.303   4.778   4.614 -0.2996  2.0152  0.2139
  551TIP3   OH2 1658   4.065   4.346   0.584  0.3249  0.0774 -0.2396
  551TIP3    H1 1659   3.997   4.324   0.647  1.0319  0.0860  0.5434
  551TIP3    H2 1660   4.029   4.320   0.499 -0.1625 -1.0558  0.2979
  552TIP3   OH2 1661   0.808   1.228   1.471  0.0587  0.8649  0.3983
  552TIP3    H1 1662   0.788   1.317   1.499 -0.8961  0.6835  0.3367
  552TIP3    H2 1663   0.797   1.229   1.376  0.6213  0.8155  0.3263
  553TIP3   OH2 1664   4.986   3.787   3.111  0.1519 -0.0644  0.4924
  553TIP3    H1 1665   5.017   3.722   3.173  1.8726 -1.9141 -2.0691
  553TIP3    H2 1666   5.057   3.851   3.106  0.3652 -0.3348 -0.0660
  554TIP3   OH2 1667   3.456   1.167   1.579  0.6728 -0.2921 -0.1216
  554TIP3    H1 1668   3.543   1.182   1.617  0.3236 -0.1494  0.6212
  554TIP3    H2 1669   3.395   1.185   1.649  0.1133 -2.8701  0.1672
  555TIP3   OH2 1670   4.942   0.294   3.901  0.1481  0.4394  0.9985
  555TIP3    H1 1671   4.900   0.372   3.864  0.6085  1.3466  2.3334
  555TIP3    H2 1672   5.028   0.324   3.931  1.1832 -1.0433 -0.2689
  556TIP3   OH2 1673   6.072   3.743   0.614 -0.0360 -0.2131 -0.1779
  556TIP3    H1 1674   6.126   3.783   0.545  0.7254 -1.1534 -0.1389
  556TIP3    H2 1675   6.125   3.750   0.693 -0.7769  0.5738  0.2702
  557TIP3   OH2 1676   3.542   0.830   5.127 -1.1482  0.1062  0.3040
  557TIP3    H1 1677   3.584   0.744   5.129 -1.9929 -0.3196  1.4864
  557TIP3    H2 1678   3.520   0.847   5.219 -1.6355  1.2647 -0.0148
  558TIP3   OH2 1679   1.945   5.569   2.531 -0.2379  0.1125  0.6875
  558TIP3    H1 1680   1.887   5.492   2.530 -1.4250  0.9691  1.2987
  558TIP3    H2 1681   1.943   5.600   2.440 -0.7104  0.1087  0.6915
  559TIP3   OH2 1682   2.843   0.217   1.419 -0.4418 -0.6321 -0.2011
  559TIP3    H1 1683   2.911   0.151   1.409 -0.2327 -0.3346 -0.8719
  559TIP3    H2 1684   2.775   0.191   1.356  0.0640  0.2829 -1.1739
  560TIP3   OH2 1685   2.023   4.595   0.432  0.0760 -0.8015  0.6787
  560TIP3    H1 1686   2.116   4.613   0.429  0.1554 -0.8399  1.9689
  560TIP3    H2 1687   1.984   4.674   0.469 -0.1612 -1.4311  1.8447
  561TIP3   OH2 1688   2.462   4.591   2.816  0.5067 -0.3247  0.3591
  561TIP3    H1 1689   2.558   4.599   2.818  0.8388 -2.8206 -1.0955
  561TIP3    H2 1690   2.438   4.611   2.726 -0.2750 -0.2319  0.5871
  562TIP3   OH2 1691   3.106   1.829   0.667  0.4469  0.4199 -0.2487
  562TIP3    H1 1692   3.174   1.892   0.690 -0.4313  1.4611 -0.4384
  562TIP3    H2 1693   3.063   1.866   0.591 -0.9434  0.2516  0.4303
  563TIP3   OH2 1694   2.333   2.041   1.648 -0.4771 -0.3796 -0.0366
  563TIP3    H1 1695   2.363   2.131   1.660  0.7984 -1.0375  2.5720
  563TIP3    H2 1696   2.256   2.048   1.592 -1.0493  2.4481  0.9487
  564TIP3   OH2 1697   5.199   0.083   1.339 -0.2343 -0.6715  0.6372
  564TIP3    H1 1698   5.154   0.094   1.255  0.2753 -1.2114  0.2853
  564TIP3    H2 1699   5.130   0.092   1.405 -0.1507  3.5210  0.4269
  565TIP3   OH2 1700   1.277   3.025   1.616 -0.4411 -0.0147 -0.1399
  565TIP3    H1 1701   1.277   3.108   1.569 -1.0707 -0.8772 -1.7168
  565TIP3    H2 1702   1.185   3.009   1.638 -0.0346  1.1126  2.8529
  566TIP3   OH2 1703   4.517   1.362   4.162  0.7558  0.0540 -0.3893
  566TIP3    H1 1704   4.572   1.401   4.094  2.2033 -3.0696 -1.1771
  566TIP3    H2 1705   4.458   1.302   4.115 -1.9186  1.6441  0.6770
  567TIP3   OH2 1706   2.654   4.830   0.298 -0.7429 -0.2759 -0.1185
  567TIP3    H1 1707   2.609   4.911   0.322  1.0591  1.2962 -1.7050
  567TIP3    H2 1708   2.627   4.813   0.208 -1.4520 -1.7508  0.3376
  568TIP3   OH2 1709   5.869   1.488   2.878  0.2465 -0.2727  0.1500
  568TIP3    H1 1710   5.947   1.435   2.866  0.0753 -0.0712 -2.2292
  568TIP3    H2 1711   5.798   1.436   2.841 -0.5721  0.0938  1.1225
  569TIP3   OH2 1712   4.520   5.583   0.803 -0.3433  0.2201  0.0027
  569TIP3    H1 1713   4.539   5.630   0.721 -2.2888  1.6325  0.3070
  569TIP3    H2 1714   4.554   5.640   0.872  0.0971 -0.3376  0.2533
  570TIP3   OH2 1715   0.744   4.312   0.627  0.1943  0.3568  0.1521
  570TIP3    H1 1716   0.690   4.284   0.701  0.3880  0.9680  0.5366
  570TIP3    H2 1717   0.834   4.297   0.655  0.2527  0.1306 -0.1541
  571TIP3   OH2 1718   4.844   3.037   2.907 -0.2142 -0.2703  0.0116
  571TIP3    H1 1719   4.854   3.063   2.998  0.2232 -0.1678 -0.0601
  571TIP3    H2 1720   4.801   3.112   2.865  1.5420  0.6157 -0.3084
  572TIP3   OH2 1721   4.916   2.015   2.321  0.3427  0.7675 -0.2021
  572TIP3    H1 1722   4.975   1.946   2.293  0.3015  0.4492  0.4684
  572TIP3    H2 1723   4.829   1.974   2.320  0.2485  0.9666 -0.3126
  573TIP3   OH2 1724   1.885   5.263   4.045 -0.0142  0.4336  0.2739
  573TIP3    H1 1725   1.895   5.176   4.084  1.7783 -0.1784 -1.3923
  573TIP3    H2 1726   1.943   5.320   4.096  0.2433  0.2368  0.2008
  574TIP3   OH2 1727   4.793   5.760   3.521  0.7026 -0.0932 -0.2203
  574TIP3    H1 1728   4.725   5.716   3.571  1.7127 -1.9351 -0.3808
  574TIP3    H2 1729   4.817   5.836   3.574 -1.6791  0.8391 -0.3451
  575TIP3   OH2 1730   0.795   4.298   4.242  0.2543 -0.0462  0.0754
  575TIP3    H1 1731   0.860   4.312   4.173 -0.1076 -2.2147 -0.8082
  575TIP3    H2 1732   0.784   4.203   4.245 -1.2814  0.1256  1.7263
  576TIP3   OH2 1733   1.334   0.413   0.879  1.0263 -0.0903 -0.2191
  576TIP3    H1 1734   1.354   0.411   0.785  1.1705  0.7105 -0.2138
  576TIP3    H2 1735   1.248   0.372   0.887  0.6238  0.6159 -0.8125
  577TIP3   OH2 1736   0.461   2.365   4.234  0.1280 -0.6078 -0.1054
  577TIP3    H1 1737   0.394   2.374   4.166  0.2812 -0.2521 -0.2163
  577TIP3    H2 1738   0.514   2.290   4.206  1.2602  0.5776 -1.3364
  578TIP3   OH2 1739   3.117   3.614   4.883 -0.4745  0.2781  0.0711
  578TIP3    H1 1740   3.204   3.585   4.855 -0.5745 -0.2693  0.3225
  578TIP3    H2 1741   3.130   3.706   4.907 -0.4216  0.8157 -1.8763
  579TIP3   OH2 1742   6.289   3.898   0.749  0.3369  0.6619 -0.5838
  579TIP3    H1 1743   6.373   3.927   0.786  0.5202 -2.1770  1.5336
  579TIP3    H2 1744   6.291   3.929   0.659  1.7661  4.2906  0.5178
  580TIP3   OH2 1745   1.366   3.639   0.718 -0.5925 -0.0272  0.5632
  580TIP3    H1 1746   1.345   3.554   0.679  0.5158  0.1644 -0.5090
  580TIP3    H2 1747   1.400   3.691   0.645 -0.4833  1.0719  1.3774
  581TIP3   OH2 1748   3.986   5.932   1.453 -0.2257 -0.2611 -0.9043
  581TIP3    H1 1749   3.995   5.926   1.548  0.2711  0.3291 -0.9015
  581TIP3    H2 1750   3.961   5.844   1.425 -0.9047 -0.3045 -0.1751
  582TIP3   OH2 1751   4.548   3.508   1.388  0.1660  0.0463 -0.3861
  582TIP3    H1 1752   4.613   3.441   1.408 -0.8799 -1.0278 -0.5220
  582TIP3    H2 1753   4.583   3.588   1.428  1.2378 -0.6585  0.1077
  583TIP3   OH2 1754   1.540   3.033   3.329 -0.2767 -0.1836 -0.5329
  583TIP3    H1 1755   1.448   3.007   3.325 -0.3207  0.0735 -3.7886
  583TIP3    H2 1756   1.588   2.953   3.311  0.3408 -0.6050  2.3815
  584TIP3   OH2 1757   2.015   4.500   1.264  0.1670 -0.2620 -0.2238
  584TIP3    H1 1758   1.936   4.493   1.317  0.3250 -0.6210 -0.0352
  584TIP3    H2 1759   2.042   4.591   1.274  0.3415 -0.3902  0.5238
  585TIP3   OH2 1760   0.142   3.039   1.316  0.0022  0.3752 -0.5090
  585TIP3    H1 1761   0.170   2.977   1.250  1.6917 -0.0017  0.5031
  585TIP3    H2 1762   0.170   3.125   1.283 -0.3818  0.3613 -0.8863
  586TIP3   OH2 1763   1.045   3.928   0.405  0.1171 -0.5031  0.2968
  586TIP3    H1 1764   1.023   4.021   0.405  0.0046 -0.5257  0.8613
  586TIP3    H2 1765   1.117   3.920   0.343  0.3111  0.0015  0.4552
  587TIP3   OH2 1766   4.307   3.457   4.732  0.1214  0.4911  0.9254
  587TIP3    H1 1767   4.281   3.375   4.688 -1.1168  0.2466  2.0407
  587TIP3    H2 1768   4.394   3.439   4.767  0.2450 -0.0242  0.3729
  588TIP3   OH2 1769   0.055   2.182   2.205  0.1873  0.0524 -0.2186
  588TIP3    H1 1770  -0.036   2.153   2.214  1.0556 -2.9650 -0.1724
  588TIP3    H2 1771   0.101   2.141   2.278  1.5640  1.8282 -0.0217
  589TIP3   OH2 1772   4.719   0.012   1.047  0.2910 -0.1880  0.5359
  589TIP3    H1 1773   4.806  -0.003   1.083  0.7647  0.7134 -0.1931
  589TIP3    H2 1774   4.728   0.092   0.995 -1.2517  0.6283  1.4452
  590TIP3   OH2 1775   4.149   3.983   0.348 -0.2858  0.3864  0.5785
  590TIP3    H1 1776   4.062   3.957   0.318 -0.4349  0.2160  1.1437
  590TIP3    H2 1777   4.204   3.979   0.270 -0.5177 -0.7282  0.4516
  591TIP3   OH2 1778   5.927   4.277   3.817 -0.4513 -0.0709 -0.5076
  591TIP3    H1 1779   5.863   4.342   3.847 -0.6325  0.1861 -1.4128
  591TIP3    H2 1780   5.962   4.239   3.898 -0.9999  0.5111  0.0207
  592TIP3   OH2 1781   0.116   0.245   1.096  0.0673 -0.1723 -0.3023
  592TIP3    H1 1782   0.147   0.335   1.090  0.5483 -0.2635  0.5933
  592TIP3    H2 1783   0.026   0.253   1.127  0.4665 -0.0231  0.8560
  593TIP3   OH2 1784   5.006   3.992   4.333  0.1965  0.8427 -0.2177
  593TIP3    H1 1785   5.091   3.966   4.297  1.1288  2.4616  0.7066
  593TIP3    H2 1786   4.952   4.007   4.256  0.8262  0.1013 -0.8305
  594TIP3   OH2 1787   0.689   5.241   1.403  0.1439  0.2393  0.3508
  594TIP3    H1 1788   0.705   5.163   1.349  1.6732  0.5976  0.2433
  594TIP3    H2 1789   0.697   5.315   1.343 -1.9611  0.4937  0.3175
  595TIP3   OH2 1790   5.711   5.769   4.998  0.2303  0.3359 -0.0735
  595TIP3    H1 1791   5.698   5.685   5.042  1.1646 -0.4189 -1.1687
  595TIP3    H2 1792   5.647   5.770   4.928  0.1695  0.5786 -0.0161
  596TIP3   OH2 1793   2.618   5.540   3.898 -0.0924 -0.2446  0.2298
  596TIP3    H1 1794   2.655   5.627   3.903  0.4366 -0.4040 -0.6847
  596TIP3    H2 1795   2.693   5.481   3.897 -0.4277 -0.6848  0.3741
  597TIP3   OH2 1796   2.659   4.522   2.103  0.0339 -0.6777  0.4371
  597TIP3    H1 1797   2.674   4.554   2.192  0.3875  0.5846 -0.0514
  597TIP3    H2 1798   2.724   4.453   2.091  1.9838  1.0806  0.2102
  598TIP3   OH2 1799   2.344   4.879   2.403  0.2244 -0.0496  0.1059
  598TIP3    H1 1800   2.399   4.884   2.325 -0.9221  0.6514 -0.6874
  598TIP3    H2 1801   2.327   4.970   2.427 -2.3612 -0.1416 -0.9979
  599TIP3   OH2 1802   3.647   2.387   2.270 -0.0550  0.2902 -0.4956
  599TIP3    H1 1803   3.615   2.427   2.189 -2.3502 -1.4036 -0.5215
  599TIP3    H2 1804   3.720   2.332   2.242 -0.4232  0.2103 -1.3244
  600TIP3   OH2 1805   1.627   2.532   3.151  0.6705 -0.2166 -0.5073
  600TIP3    H1 1806   1.722   2.534   3.158  0.6284  1.3036  0.0699
  600TIP3    H2 1807   1.597   2.507   3.239  0.5174  1.9750  0.1252
  601TIP3   OH2 1808   0.465   3.742   0.653  0.4200  0.0156 -0.0834
  601TIP3    H1 1809   0.499   3.759   0.565  2.2423  0.5893  0.6945
  601TIP3    H2 1810   0.489   3.651   0.670 -0.7464 -0.3906 -0.5006
  602TIP3   OH2 1811   5.800   5.108   4.958 -0.1535 -0.0355 -0.2828
  602TIP3    H1 1812   5.740   5.095   4.884 -0.0922  0.8618 -0.5059
  602TIP3    H2 1813   5.742   5.116   5.034 -0.3467  0.9999 -0.5224
  603TIP3   OH2 1814   3.795   5.360   4.988 -0.3736  0.1400  0.1930
  603TIP3    H1 1815   3.825   5.351   5.078 -0.8380 -2.8012  0.1755
  603TIP3    H2 1816   3.875   5.352   4.935 -0.3456 -0.4714  0.3174
  604TIP3   OH2 1817   2.217   1.191   0.088  0.0691 -0.2684  0.0688
  604TIP3    H1 1818   2.180   1.196   0.000  1.8528  0.3467 -0.7027
  604TIP3    H2 1819   2.204   1.100   0.115 -0.1843 -0.5601 -0.9914
  605TIP3   OH2 1820   3.809   0.020   4.886  0.3598 -0.0810 -0.0575
  605TIP3    H1 1821   3.864   0.086   4.843 -0.4239 -0.8376 -2.3551
  605TIP3    H2 1822   3.741  -0.001   4.821  1.3103 -4.0888 -0.0362
  606TIP3   OH2 1823   4.431   4.326   2.360  0.0650 -0.0502 -0.4268
  606TIP3    H1 1824   4.515   4.363   2.388  1.2038 -2.2156 -0.8031
  606TIP3    H2 1825   4.410   4.374   2.280  0.1806  1.5096  0.4320
  607TIP3   OH2 1826   2.406   1.226   2.170 -0.1085 -0.4848 -0.1124
  607TIP3    H1 1827   2.370   1.310   2.199 -1.3674 -0.5327 -1.4268
  607TIP3    H2 1828   2.475   1.207   2.233  1.6288  2.5292 -0.9036
  608TIP3   OH2 1829   6.243   0.053   4.638  0.0465 -0.0515  0.1327
  608TIP3    H1 1830   6.260  -0.017   4.574  1.8445  1.2173 -0.8802
  608TIP3    H2 1831   6.148   0.061   4.641 -0.1272 -1.3742 -1.0304
  609TIP3   OH2 1832   2.407   1.040   3.562  0.5174 -0.3060 -0.0828
  609TIP3    H1 1833   2.348   1.069   3.631  1.2728 -0.0465  0.4626
  609TIP3    H2 1834   2.361   1.061   3.481  0.9710  2.3580  0.2806
  610TIP3   OH2 1835   4.330   5.550   0.120  0.1957  0.0089  0.5273
  610TIP3    H1 1836   4.390   5.516   0.054  0.2701  1.3538 -0.1150
  610TIP3    H2 1837   4.372   5.628   0.155 -1.4428  1.3815 -0.4182
  611TIP3   OH2 1838   4.444   0.487   1.434  0.4470 -0.0027  0.0511
  611TIP3    H1 1839   4.449   0.487   1.529  0.6967  1.7630  0.0814
  611TIP3    H2 1840   4.459   0.396   1.409 -0.7379 -0.7117  1.7268
  612TIP3   OH2 1841   0.906   5.764   3.019  0.2959  0.1292  0.6409
  612TIP3    H1 1842   0.945   5.715   3.091  0.3076 -1.3675 -0.3312
  612TIP3    H2 1843   0.815   5.780   3.046 -0.8290 -3.5745 -0.3638
  613TIP3   OH2 1844   4.597   5.378   4.202  0.1367 -0.2195  0.0166
  613TIP3    H1 1845   4.625   5.298   4.247 -1.4575 -0.8510 -0.0690
  613TIP3    H2 1846   4.667   5.395   4.138 -0.1889 -2.4355 -1.0217
  614TIP3   OH2 1847   0.128   1.285   1.575  0.6862 -0.6618  0.1587
  614TIP3    H1 1848   0.106   1.195   1.553 -0.4179 -0.1294 -1.0639
  614TIP3    H2 1849   0.055   1.315   1.630  0.7058 -0.3086 -0.0044
  615TIP3   OH2 1850   0.970   1.480   1.175  0.1884  0.1036  0.5317
  615TIP3    H1 1851   0.887   1.525   1.162  0.4845  0.6084  0.3565
  615TIP3    H2 1852   1.036   1.539   1.137  0.6870 -0.0043  1.1959
  616TIP3   OH2 1853   6.315   5.760   2.150 -0.2450 -0.6559  0.1661
  616TIP3    H1 1854   6.359   5.844   2.155  0.6420 -1.0475 -0.7817
  616TIP3    H2 1855   6.239   5.776   2.095  0.3900 -0.6604 -0.7212
  617TIP3   OH2 1856   5.950   2.436   0.832 -0.1898 -0.4466  0.1297
  617TIP3    H1 1857   5.917   2.432   0.922 -0.8897 -1.6043 -0.1613
  617TIP3    H2 1858   6.040   2.405   0.838 -0.0007  0.1577  0.5282
  618TIP3   OH2 1859   2.804   4.950   1.824  0.1600 -0.5015  0.5762
  618TIP3    H1 1860   2.867   5.018   1.798 -0.6316 -0.0075 -0.1067
  618TIP3    H2 1861   2.858   4.879   1.858  1.3310 -1.1996 -2.3880
  619TIP3   OH2 1862   2.381   3.848   1.206 -0.9109  0.1380  0.6247
  619TIP3    H1 1863   2.337   3.839   1.290 -0.7627 -0.4773  0.6384
  619TIP3    H2 1864   2.389   3.943   1.194  0.2103  0.2489  1.9110
  620TIP3   OH2 1865   2.268   0.025   4.681  0.2331  0.0447 -0.0974
  620TIP3    H1 1866   2.288   0.075   4.602  0.3750  0.8567  0.4388
  620TIP3    H2 1867   2.346  -0.029   4.696 -0.7340 -1.9931 -1.8735
  621TIP3   OH2 1868   0.087   0.456   2.322 -0.6119 -0.0683  0.1610
  621TIP3    H1 1869   0.152   0.393   2.289 -1.6600 -0.1709 -1.8698
  621TIP3    H2 1870   0.133   0.540   2.321 -0.1640 -0.3118 -0.2017
  622TIP3   OH2 1871   6.174   4.760   0.552 -0.0063  0.0979  0.2170
  622TIP3    H1 1872   6.092   4.787   0.594  0.4123 -2.0379  2.5844
  622TIP3    H2 1873   6.149   4.689   0.493  0.3808 -2.8212  3.3156
  623TIP3   OH2 1874   1.829   1.086   3.165 -0.8193 -0.8097 -0.0346
  623TIP3    H1 1875   1.832   1.124   3.077  0.1116 -0.4111  0.1579
  623TIP3    H2 1876   1.909   1.117   3.207  0.0372 -3.0353  0.1245
  624TIP3   OH2 1877   1.497   4.705   2.417  0.2361 -0.0669  0.4606
  624TIP3    H1 1878   1.540   4.746   2.491 -0.4913 -0.9028  1.3746
  624TIP3    H2 1879   1.543   4.622   2.405  0.5898  0.2287 -0.2720
  625TIP3   OH2 1880   4.245   2.082   1.941  0.5053 -0.2788 -0.3302
  625TIP3    H1 1881   4.278   1.992   1.936  1.3353 -0.0215  0.2309
  625TIP3    H2 1882   4.321   2.136   1.919  0.4767  0.3434  1.0290
  626TIP3   OH2 1883   0.929   2.283   2.810  0.2866  0.6451  0.3870
  626TIP3    H1 1884   0.877   2.329   2.745 -0.9976 -1.8268 -0.4598
  626TIP3    H2 1885   1.015   2.273   2.770 -0.1036  0.2953 -0.3674
  627TIP3   OH2 1886   6.113   2.127   2.260  0.3272  0.2988  0.4562
  627TIP3    H1 1887   6.102   2.069   2.335  2.7396  0.1131  0.7324
  627TIP3    H2 1888   6.098   2.071   2.184  1.2155 -0.3521  0.7487
  628TIP3   OH2 1889   1.770   4.540   1.406  0.1502 -0.1003 -0.2112
  628TIP3    H1 1890   1.758   4.623   1.452 -0.3090 -0.3699  0.1641
  628TIP3    H2 1891   1.743   4.558   1.316 -0.2138  0.0850 -0.0663
  629TIP3   OH2 1892   3.194   1.128   1.867 -0.0144  0.1340  0.1755
  629TIP3    H1 1893   3.218   1.206   1.917 -2.2831 -0.6719  2.7761
  629TIP3    H2 1894   3.229   1.055   1.917  0.5311 -0.6229 -1.2595
  630TIP3   OH2 1895   4.896   4.385   1.732  0.3973  0.4993 -0.2734
  630TIP3    H1 1896   4.811   4.340   1.733  0.5484  0.1361  2.3408
  630TIP3    H2 1897   4.881   4.464   1.681 -1.0980 -0.2973 -1.1256
  631TIP3   OH2 1898   0.719   1.599   0.481  0.2763 -0.2245  0.6681
  631TIP3    H1 1899   0.663   1.665   0.521  1.1053  2.0903 -1.7169
  631TIP3    H2 1900   0.714   1.616   0.387  2.7527 -1.7325  0.1687
  632TIP3   OH2 1901   0.928   0.088  -0.001 -0.5803  0.4967 -0.1171
  632TIP3    H1 1902   0.874   0.097   0.077 -1.3083 -1.1698 -0.3807
  632TIP3    H2 1903   0.897   0.007  -0.042  1.0864  0.3142 -1.1057
  633TIP3   OH2 1904   6.081   1.057   4.155  0.0667 -0.2959  0.7672
  633TIP3    H1 1905   5.993   1.084   4.182 -0.9106 -0.9145 -1.5830
  633TIP3    H2 1906   6.124   1.138   4.128  0.0237 -0.0830  1.3143
  634TIP3   OH2 1907   4.498   3.438   2.631  0.2377  0.1773  0.2283
  634TIP3    H1 1908   4.477   3.517   2.681  0.3575 -0.7662  1.8348
  634TIP3    H2 1909   4.428   3.432   2.566 -0.1198  1.2716  0.4962
  635TIP3   OH2 1910   1.613   2.754   1.641 -0.0534 -0.0721 -0.3593
  635TIP3    H1 1911   1.697   2.780   1.679 -0.2600 -1.3149  1.0255
  635TIP3    H2 1912   1.582   2.833   1.598  0.0195  1.6354  2.4522
  636TIP3   OH2 1913   0.231   0.780   1.477 -0.2955 -0.2661 -0.4985
  636TIP3    H1 1914   0.248   0.701   1.527  0.7538  0.9469  1.1490
  636TIP3    H2 1915   0.270   0.851   1.528 -2.1731  1.4841 -1.3252
  637TIP3   OH2 1916   2.471   5.286   2.780 -1.1708  0.4155  0.2355
  637TIP3    H1 1917   2.402   5.231   2.818 -0.0998 -0.2989  1.2258
  637TIP3    H2 1918   2.472   5.363   2.837 -2.3436  1.2693 -0.8617
  638TIP3   OH2 1919   4.604   1.251   1.926 -0.3488 -0.5471 -0.1388
  638TIP3    H1 1920   4.544   1.319   1.957  0.3335  0.0119 -0.0144
  638TIP3    H2 1921   4.677   1.300   1.887 -0.3169 -1.2194 -0.9457
  639TIP3   OH2 1922   1.197   1.210   0.295  0.1326 -0.1953 -0.2245
  639TIP3    H1 1923   1.252   1.209   0.216 -1.0502  2.7471 -1.2352
  639TIP3    H2 1924   1.246   1.159   0.359  2.7070 -0.0036 -1.8953
  640TIP3   OH2 1925   0.642   3.134   3.262 -0.0943  0.2200 -0.3176
  640TIP3    H1 1926   0.607   3.223   3.272 -1.4034 -0.4269  1.3374
  640TIP3    H2 1927   0.691   3.137   3.180 -0.5056  2.3350 -0.5551
  641TIP3   OH2 1928   5.733   0.825   2.478  0.1415  0.5036 -0.4121
  641TIP3    H1 1929   5.752   0.772   2.556 -0.1397  3.6242  1.9521
  641TIP3    H2 1930   5.640   0.809   2.461 -0.2711  1.1170  1.0718
  642TIP3   OH2 1931   0.171   0.169   0.807 -0.4316  0.2305  0.1295
  642TIP3    H1 1932   0.117   0.199   0.880 -1.6815  0.0285 -0.6899
  642TIP3    H2 1933   0.179   0.246   0.751  0.5168  0.3810  0.4447
  643TIP3   OH2 1934   1.019   4.694   2.265 -0.4186  0.0678 -0.5377
  643TIP3    H1 1935   0.993   4.783   2.240 -0.2314  0.9016  1.9776
  643TIP3    H2 1936   1.106   4.705   2.305 -1.8161 -0.5733  3.0738
  644TIP3   OH2 1937   3.184   3.236   4.689  0.1888  0.4404 -0.5967
  644TIP3    H1 1938   3.168   3.153   4.644 -0.6984 -0.1120  0.6881
  644TIP3    H2 1939   3.153   3.302   4.627 -0.7497 -0.2828 -0.9353
  645TIP3   OH2 1940   5.171   1.979   1.433 -0.2726 -0.3246  0.0522
  645TIP3    H1 1941   5.231   2.015   1.498 -0.0929 -1.5876  0.6126
  645TIP3    H2 1942   5.210   2.004   1.349  0.1270  0.3120  0.4157
  646TIP3   OH2 1943   6.190   2.778   0.909 -0.3553  0.1368  0.3644
  646TIP3    H1 1944   6.205   2.778   0.814  2.7843  2.9632  0.6642
  646TIP3    H2 1945   6.225   2.694   0.939 -0.3553 -0.3307 -0.8748
  647TIP3   OH2 1946   5.043   3.789   5.142  0.0141  0.3068 -0.5579
  647TIP3    H1 1947   4.966   3.741   5.113  0.0544 -0.5784  0.7056
  647TIP3    H2 1948   5.026   3.807   5.235  1.4067 -0.0803 -0.2062
  648TIP3   OH2 1949   5.327   0.594   4.823 -0.1265  0.3928  0.0810
  648TIP3    H1 1950   5.332   0.686   4.848 -2.6733  0.4807  0.5592
  648TIP3    H2 1951   5.391   0.549   4.879 -0.6276  1.5425  1.6319
  649TIP3   OH2 1952   0.693   5.587   2.204 -0.2360  0.6135  0.0277
  649TIP3    H1 1953   0.679   5.674   2.240 -1.5337  0.9093 -1.0939
  649TIP3    H2 1954   0.689   5.529   2.280  2.7302  1.6263  1.0948
  650TIP3   OH2 1955   5.590   3.101   2.111 -0.2476  0.3713 -0.0048
  650TIP3    H1 1956   5.654   3.080   2.180 -0.0005 -1.2276 -0.6661
  650TIP3    H2 1957   5.505   3.077   2.150 -0.1011 -0.6080 -0.2494
  651TIP3   OH2 1958   0.868   0.474   1.862 -0.2893  0.1205  0.3372
  651TIP3    H1 1959   0.863   0.394   1.915  0.6635 -0.9136 -1.0542
  651TIP3    H2 1960   0.954   0.470   1.820 -0.8226  1.1122 -0.9339
  652TIP3   OH2 1961   0.277   4.223   2.080 -0.4456  0.3395 -0.6804
  652TIP3    H1 1962   0.257   4.146   2.027 -1.5262  1.5967 -2.2076
  652TIP3    H2 1963   0.336   4.275   2.026  1.1363  0.1597  0.7637
  653TIP3   OH2 1964   2.982   1.593   1.517 -0.5420  0.1097 -0.5364
  653TIP3    H1 1965   2.928   1.622   1.590 -2.3764 -1.2704 -1.2436
  653TIP3    H2 1966   3.028   1.516   1.551 -0.8564 -0.1117 -0.5998
  654TIP3   OH2 1967   3.893   1.950   2.433  0.4006  0.1187  0.3453
  654TIP3    H1 1968   3.809   1.940   2.388  0.5040 -0.2788  0.2398
  654TIP3    H2 1969   3.896   1.876   2.494 -0.4557  1.4869  2.1674
  655TIP3   OH2 1970   0.088   2.538   3.428  0.3134  0.0606 -0.0072
  655TIP3    H1 1971   0.078   2.612   3.369 -1.7486  0.2029  0.4304
  655TIP3    H2 1972   0.166   2.558   3.479  0.4768  1.3354 -0.7171
  656TIP3   OH2 1973   2.887   1.603   3.262  0.5999  0.1464  0.3511
  656TIP3    H1 1974   2.798   1.608   3.298  0.5881 -0.4548  0.4115
  656TIP3    H2 1975   2.881   1.540   3.191  0.5663  1.5272 -0.9165
  657TIP3   OH2 1976   1.631   4.732   5.005  0.2084 -0.4825 -0.5396
  657TIP3    H1 1977   1.661   4.813   5.046 -0.3019 -0.8699  0.6330
  657TIP3    H2 1978   1.617   4.672   5.078 -0.7744 -1.1831 -1.2767
  658TIP3   OH2 1979   0.912   1.489   0.661 -0.3524 -0.3985 -0.0064
  658TIP3    H1 1980   0.852   1.521   0.593  0.4118 -0.4863 -0.7443
  658TIP3    H2 1981   0.966   1.565   0.683  0.5133 -0.7838 -0.7273
  659TIP3   OH2 1982   1.140   5.371   4.924  0.3306  0.5748  0.2951
  659TIP3    H1 1983   1.155   5.310   4.852 -1.2010 -1.1753  1.3593
  659TIP3    H2 1984   1.047   5.393   4.918  0.3883  1.1165  1.1795
  660TIP3   OH2 1985   1.035   4.824   4.065 -0.1622  0.9508 -0.5937
  660TIP3    H1 1986   0.961   4.783   4.109 -0.8596  2.0098 -0.7521
  660TIP3    H2 1987   1.047   4.907   4.111  1.0934  0.6907 -0.4136
  661TIP3   OH2 1988   1.828   0.489   0.740 -0.3874 -0.3872 -0.4764
  661TIP3    H1 1989   1.828   0.464   0.832 -1.3539 -1.7130 -0.8139
  661TIP3    H2 1990   1.921   0.500   0.717 -0.1706  1.1549  0.9299
  662TIP3   OH2 1991   5.083   3.460   0.201  0.6189  0.2378  0.4572
  662TIP3    H1 1992   5.024   3.410   0.257  1.2831 -0.5373  0.4784
  662TIP3    H2 1993   5.117   3.529   0.258  1.1103 -0.4043  0.9566
  663TIP3   OH2 1994   4.230   0.671   1.433 -0.5854 -0.5486 -0.4604
  663TIP3    H1 1995   4.263   0.761   1.442  1.1045 -0.8538 -2.7735
  663TIP3    H2 1996   4.308   0.618   1.425 -1.5440 -2.3736  1.3791
  664TIP3   OH2 1997   3.029   2.869   2.092 -0.0476  0.3285  0.5121
  664TIP3    H1 1998   3.085   2.934   2.135 -0.8696  0.9009  0.7327
  664TIP3    H2 1999   3.080   2.788   2.097  2.6012  1.5335 -2.8055
  665TIP3   OH2 2000   2.889   4.828   1.435  0.2606  0.1954  0.8178
  665TIP3    H1 2001   2.934   4.786   1.509  0.8685  0.8247  0.8257
  665TIP3    H2 2002   2.937   4.910   1.422  0.9760 -0.4696 -1.0875
  666TIP3   OH2 2003   1.863   2.881   1.679  0.2359  0.2875  1.0700
  666TIP3    H1 2004   1.883   2.843   1.765 -1.7316  0.2871  1.5742
  666TIP3    H2 2005   1.840   2.972   1.697 -1.2290  0.0164  0.7172
  667TIP3   OH2 2006   2.704   0.546   1.250 -0.2315 -0.2554 -0.0492
  667TIP3    H1 2007   2.799   0.541   1.238 -0.4522 -0.0864 -2.2845
  667TIP3    H2 2008   2.690   0.633   1.289  0.4357  0.5302 -1.4564
  668TIP3   OH2 2009   4.460   2.871   1.890 -0.6018  0.1882  0.0893
  668TIP3    H1 2010   4.465   2.792   1.943  0.2902  0.7889  0.9311
  668TIP3    H2 2011   4.548   2.908   1.893 -0.8480  0.9005 -0.7980
  669TIP3   OH2 2012   4.496   4.153   4.136 -0.4382 -0.2326  0.7583
  669TIP3    H1 2013   4.414   4.120   4.174 -0.4562 -2.4266 -1.0215
  669TIP3    H2 2014   4.483   4.147   4.041  2.3640 -2.3348  0.3916
  670TIP3   OH2 2015   3.006   3.571   2.883 -0.0504  0.1877  0.0707
  670TIP3    H1 2016   2.954   3.635   2.834  0.0790 -0.0388 -0.3670
  670TIP3    H2 2017   3.085   3.558   2.829 -0.3636 -0.8085 -0.1648
  671TIP3   OH2 2018   4.180   4.594   0.727  0.1897  0.3880  0.2171
  671TIP3    H1 2019   4.134   4.529   0.674  1.6081 -0.0058 -0.5893
  671TIP3    H2 2020   4.170   4.676   0.678  1.0009  0.1432 -0.3701
  672TIP3   OH2 2021   1.041   4.080   3.891 -0.0014 -0.0335  0.2037
  672TIP3    H1 2022   1.035   4.174   3.874  1.3803  0.7099  3.1181
  672TIP3    H2 2023   1.119   4.053   3.842 -1.7424 -0.3255 -2.6486
  673TIP3   OH2 2024   5.049   1.737   3.442 -0.2808  0.6897 -0.2525
  673TIP3    H1 2025   5.107   1.662   3.429 -0.3648  0.8943 -1.9502
  673TIP3    H2 2026   5.095   1.810   3.402 -0.6160  1.3821  0.5949
  674TIP3   OH2 2027   4.423   5.337   4.610  0.0327 -0.1941 -0.0223
  674TIP3    H1 2028   4.501   5.387   4.585 -0.5577  0.8721  0.1972
  674TIP3    H2 2029   4.449   5.245   4.600  1.2323  0.1435 -0.1895
  675TIP3   OH2 2030   4.710   0.660   0.370 -0.5705 -0.2030 -0.8566
  675TIP3    H1 2031   4.681   0.742   0.330  0.0636 -0.3717 -1.7065
  675TIP3    H2 2032   4.801   0.650   0.340  0.0912 -0.1177  1.0241
  676TIP3   OH2 2033   2.307   3.847   0.210 -0.5007  0.2770  0.5438
  676TIP3    H1 2034   2.247   3.826   0.282 -3.4542 -0.0115 -1.8026
  676TIP3    H2 2035   2.281   3.934   0.182  1.7039  1.0592  0.7755
  677TIP3   OH2 2036   1.021   5.646   1.479 -0.1839 -0.3121 -0.8960
  677TIP3    H1 2037   0.949   5.589   1.505 -0.5939  0.6604  0.2178
  677TIP3    H2 2038   1.038   5.623   1.388 -0.8256 -1.6700 -0.7092
  678TIP3   OH2 2039   3.134   2.907   4.534 -0.5503  0.1213  0.2423
  678TIP3    H1 2040   3.143   2.824   4.581 -0.8792  0.1530  0.3617
  678TIP3    H2 2041   3.055   2.947   4.570  0.2166  1.0055  0.9813
  679TIP3   OH2 2042   3.657   2.177   3.483 -0.0157  0.0824 -0.2077
  679TIP3    H1 2043   3.589   2.137   3.429  0.9969 -0.6979 -0.9383
  679TIP3    H2 2044   3.711   2.227   3.422  0.3881  0.2496  0.2758
  680TIP3   OH2 2045   6.206   3.711   1.291  0.6210  0.7581  0.1543
  680TIP3    H1 2046   6.143   3.778   1.262 -0.2794 -0.4219 -0.6909
  680TIP3    H2 2047   6.246   3.749   1.369 -0.3976  1.9865  0.1188
  681TIP3   OH2 2048   1.279   5.309   0.887  0.0967  0.2090  0.3132
  681TIP3    H1 2049   1.275   5.216   0.911  1.0791 -0.0424 -0.4014
  681TIP3    H2 2050   1.211   5.351   0.939 -1.7582 -1.2278 -0.8571
  682TIP3   OH2 2051   3.907   3.161   0.089 -0.0387  0.2500 -0.0290
  682TIP3    H1 2052   3.947   3.143   0.004  0.5762  1.4843 -0.0198
  682TIP3    H2 2053   3.820   3.196   0.068 -1.3057 -2.6399 -0.0453
  683TIP3   OH2 2054   4.860   1.048   2.159 -0.0148  0.0943  0.1418
  683TIP3    H1 2055   4.908   1.130   2.151 -0.3903  0.3331  0.3040
  683TIP3    H2 2056   4.924   0.980   2.137 -0.4983  0.5799 -3.2605
  684TIP3   OH2 2057   2.335   0.495   2.211 -0.3929  0.6231 -0.1013
  684TIP3    H1 2058   2.368   0.526   2.295  0.0766 -1.8332  0.6823
  684TIP3    H2 2059   2.411   0.459   2.167 -1.1183 -0.6396 -0.3702
  685TIP3   OH2 2060   1.198   5.770   2.864  0.2863  0.2266 -0.1426
  685TIP3    H1 2061   1.127   5.748   2.804 -2.1886  1.8569  1.9953
  685TIP3    H2 2062   1.220   5.860   2.843  0.6587  0.2326  0.2580
  686TIP3   OH2 2063   5.829   4.518   1.745 -0.0580 -0.2152 -0.3642
  686TIP3    H1 2064   5.831   4.443   1.804  1.0101 -0.2170 -0.3941
  686TIP3    H2 2065   5.834   4.595   1.802 -2.5484 -0.0723 -0.2240
  687TIP3   OH2 2066   2.292   1.020   4.109 -0.1689 -0.6462 -0.1696
  687TIP3    H1 2067   2.383   0.992   4.105  0.4048  0.8857  1.0403
  687TIP3    H2 2068   2.245   0.945   4.146  0.8224 -0.9722  0.4469
  688TIP3   OH2 2069   1.681   3.394   1.852 -0.1313  0.3556  0.4958
  688TIP3    H1 2070   1.679   3.300   1.833  1.3884 -0.0287  2.0442
  688TIP3    H2 2071   1.767   3.422   1.821 -0.3413  1.1186  0.5952
  689TIP3   OH2 2072   5.685   5.590   0.612 -0.5204 -0.0185  0.1310
  689TIP3    H1 2073   5.593   5.569   0.631 -0.0509 -1.1009  1.3750
  689TIP3    H2 2074   5.720   5.510   0.574  0.0278  0.2341  0.1029
  690TIP3   OH2 2075   1.717   0.606   3.592  0.3366  0.0980 -0.2942
  690TIP3    H1 2076   1.676   0.619   3.678 -2.0590  0.3984 -1.3975
  690TIP3    H2 2077   1.676   0.526   3.559 -0.0286  0.8857 -1.8172
  691TIP3   OH2 2078   1.424   4.448   1.088 -0.0531  0.0652 -0.5564
  691TIP3    H1 2079   1.449   4.442   1.180  0.0417 -0.7668 -0.6267
  691TIP3    H2 2080   1.499   4.488   1.045  0.9730 -1.8497 -0.6667
  692TIP3   OH2 2081   3.104   4.758   0.982  0.0612 -0.0693 -0.3983
  692TIP3    H1 2082   3.045   4.808   1.039 -0.1952 -1.9125  1.0282
  692TIP3    H2 2083   3.080   4.785   0.893 -0.0409  2.3229  0.2791
  693TIP3   OH2 2084   0.662   2.866   3.254 -0.0868  0.3135  0.0488
  693TIP3    H1 2085   0.758   2.858   3.254 -0.0493  0.5596 -1.6481
  693TIP3    H2 2086   0.646   2.958   3.276  0.0214  0.1167  1.0169
  694TIP3   OH2 2087   3.060   3.781   1.604 -0.7369  0.3250 -0.1078
  694TIP3    H1 2088   3.064   3.701   1.552  1.3721 -1.1321  2.0596
  694TIP3    H2 2089   3.031   3.849   1.542 -2.2433 -1.9830 -2.1106
  695TIP3   OH2 2090   5.963   5.143   4.650  0.0248 -0.1394  0.0213
  695TIP3    H1 2091   6.055   5.123   4.639  0.4260  1.2972  0.5832
  695TIP3    H2 2092   5.944   5.122   4.741 -0.3331 -0.8827 -0.2180
  696TIP3   OH2 2093   2.234   4.964   2.730  0.2698 -0.0775 -0.3438
  696TIP3    H1 2094   2.225   5.059   2.729  1.1210  0.0112 -0.1456
  696TIP3    H2 2095   2.173   4.933   2.663 -0.0465  0.6045 -0.3723
  697TIP3   OH2 2096   6.057   1.156   3.470 -0.0819 -0.4902 -0.5874
  697TIP3    H1 2097   6.054   1.141   3.565 -0.6983 -0.0915 -0.5426
  697TIP3    H2 2098   6.141   1.201   3.455 -1.1358  1.8683  0.1320
  698TIP3   OH2 2099   0.655   0.489   3.623 -0.1599  0.0371  0.1584
  698TIP3    H1 2100   0.674   0.401   3.589  2.3385  0.4182  0.4032
  698TIP3    H2 2101   0.702   0.493   3.707 -1.4472  1.1340  0.8787
  699TIP3   OH2 2102   0.793   1.956   0.008  0.3572 -0.3705 -0.2207
  699TIP3    H1 2103   0.826   1.896  -0.059 -0.6959 -2.0774  0.7376
  699TIP3    H2 2104   0.859   1.952   0.078 -0.5644 -1.7862  0.5890
  700TIP3   OH2 2105   5.463   2.395   1.100 -0.0569  0.2537  0.4274
  700TIP3    H1 2106   5.525   2.467   1.111 -0.4059  0.5678  0.3640
  700TIP3    H2 2107   5.479   2.338   1.175 -1.1255  1.4053  1.5875
  701TIP3   OH2 2108   1.223   3.067   2.440  0.0008  0.3028 -0.1102
  701TIP3    H1 2109   1.233   2.976   2.468 -0.2183  0.6413  1.1367
  701TIP3    H2 2110   1.301   3.086   2.387 -0.4927 -0.9304 -1.3456
  702TIP3   OH2 2111   6.150   4.482   3.174  0.0115  0.2641 -0.3792
  702TIP3    H1 2112   6.083   4.507   3.111 -1.3814  2.0142  1.6820
  702TIP3    H2 2113   6.170   4.562   3.222  1.2594 -0.9126  1.1937
  703TIP3   OH2 2114   2.378   0.929   1.578 -0.1459  0.4510 -0.1467
  703TIP3    H1 2115   2.382   0.936   1.482 -0.6112  0.2292 -0.1841
  703TIP3    H2 2116   2.379   1.019   1.608 -0.9549  0.5626 -0.4085
  704TIP3   OH2 2117   0.707   5.111   2.920 -0.3881 -0.8567  0.1935
  704TIP3    H1 2118   0.642   5.055   2.963 -1.2695 -0.3159 -0.3810
  704TIP3    H2 2119   0.686   5.199   2.952  1.3959 -0.8759  1.6078
  705TIP3   OH2 2120   5.232   2.898   4.878 -0.3073 -0.4460  0.0662
  705TIP3    H1 2121   5.176   2.829   4.914 -0.8931 -0.9395 -1.7123
  705TIP3    H2 2122   5.226   2.888   4.783  1.1543  0.8283 -0.2119
  706TIP3   OH2 2123   1.026   5.448   3.022 -0.1941 -0.3005 -0.6384
  706TIP3    H1 2124   0.942   5.469   2.983  0.1338  0.8930 -0.7411
  706TIP3    H2 2125   1.044   5.521   3.081 -0.3480 -1.7023  1.2442
  707TIP3   OH2 2126   1.104   5.587   3.258  0.3244  0.1454 -0.1170
  707TIP3    H1 2127   1.072   5.663   3.305 -1.7926 -1.2999  0.9469
  707TIP3    H2 2128   1.148   5.534   3.325 -0.0132 -0.4996 -0.3934
  708TIP3   OH2 2129   2.416   4.583   3.106 -0.8657 -0.5743 -0.1650
  708TIP3    H1 2130   2.440   4.554   3.018 -0.9950 -0.4170 -0.2534
  708TIP3    H2 2131   2.324   4.560   3.115 -1.0413  0.0292 -0.3330
  709TIP3   OH2 2132   4.551   3.475   0.265  0.1899 -0.4330  0.3301
  709TIP3    H1 2133   4.594   3.551   0.228 -0.4693 -1.1031 -1.9558
  709TIP3    H2 2134   4.500   3.510   0.339 -0.1694  1.3550 -0.7104
  710TIP3   OH2 2135   2.006   1.803   3.506 -0.3978 -0.2122 -0.4914
  710TIP3    H1 2136   2.029   1.817   3.598 -1.1524 -0.2646 -0.2931
  710TIP3    H2 2137   2.090   1.788   3.463 -0.0359 -0.1642  0.1836
  711TIP3   OH2 2138   3.134   3.587   3.299 -0.4918  0.4725  0.5714
  711TIP3    H1 2139   3.069   3.537   3.249  0.7686 -1.3568  0.6650
  711TIP3    H2 2140   3.159   3.659   3.240 -1.2112  0.0933 -0.2225
  712TIP3   OH2 2141   1.589   1.315   1.332  0.4241  0.0318  0.1303
  712TIP3    H1 2142   1.638   1.233   1.322  0.3011 -0.4888  2.8675
  712TIP3    H2 2143   1.523   1.295   1.399 -0.2912  2.0981  0.1150
  713TIP3   OH2 2144   1.218   3.929   5.007  0.2817 -0.3724 -0.5590
  713TIP3    H1 2145   1.275   3.911   4.932  2.0885  1.0301  0.4167
  713TIP3    H2 2146   1.237   3.859   5.069 -0.3270 -0.8520 -0.9021
  714TIP3   OH2 2147   3.468   0.079   1.401  0.0121  0.1000 -0.0525
  714TIP3    H1 2148   3.560   0.105   1.395 -0.3346  1.9080  1.5104
  714TIP3    H2 2149   3.437   0.080   1.311  0.9134  1.9644 -0.3894
  715TIP3   OH2 2150   5.373   5.614   3.357 -0.3373 -0.6931  0.0432
  715TIP3    H1 2151   5.388   5.520   3.349  1.1864 -0.4923  0.3381
  715TIP3    H2 2152   5.435   5.643   3.424 -1.2722  0.4130  0.4734
  716TIP3   OH2 2153   3.395   5.346   1.649  0.4290  0.3841  0.0322
  716TIP3    H1 2154   3.412   5.440   1.637  2.5299 -0.1525 -2.0058
  716TIP3    H2 2155   3.365   5.317   1.563  0.9033 -1.0003  0.3132
  717TIP3   OH2 2156   3.215   2.115   0.035  0.4811 -0.1692 -0.2369
  717TIP3    H1 2157   3.199   2.052  -0.036 -0.6525  0.1835 -0.3229
  717TIP3    H2 2158   3.159   2.084   0.107  0.4657  0.3208 -0.0314
  718TIP3   OH2 2159   3.671   2.189   1.283  0.1131  0.1823 -0.1374
  718TIP3    H1 2160   3.627   2.121   1.233 -0.1439  0.0001  0.3321
  718TIP3    H2 2161   3.764   2.166   1.279 -0.0465 -0.6574  0.6997
  719TIP3   OH2 2162   1.879   3.869   0.246 -0.1595  0.0036  0.1379
  719TIP3    H1 2163   1.886   3.785   0.291 -0.1311  0.5162  1.1015
  719TIP3    H2 2164   1.810   3.854   0.181 -1.2660 -0.3265  1.3368
  720TIP3   OH2 2165   1.602   4.418   4.883 -0.2606  0.3982  0.1519
  720TIP3    H1 2166   1.602   4.323   4.876 -0.2310  0.4777 -1.2464
  720TIP3    H2 2167   1.579   4.436   4.974 -1.6605 -0.9248  0.0945
  721TIP3   OH2 2168   2.105   3.660   4.372 -0.2994 -0.0222 -0.0380
  721TIP3    H1 2169   2.011   3.665   4.384 -0.3023  1.0722 -0.4151
  721TIP3    H2 2170   2.140   3.636   4.458 -0.8777  0.0233  0.2117
  722TIP3   OH2 2171   3.043   5.214   4.750 -0.0145  0.1390  0.0710
  722TIP3    H1 2172   3.027   5.129   4.791  1.2143  0.2212  0.7507
  722TIP3    H2 2173   3.104   5.258   4.809 -0.6526  1.5043 -0.2701
  723TIP3   OH2 2174   5.528   0.969   3.243  0.6073  0.0905  0.3197
  723TIP3    H1 2175   5.442   1.002   3.270  0.5670 -0.2336  0.5975
  723TIP3    H2 2176   5.585   0.987   3.318  0.9773  1.0487 -0.1777
  724TIP3   OH2 2177   3.156   2.686   3.549 -0.1088 -0.6322 -0.0529
  724TIP3    H1 2178   3.232   2.670   3.605  0.6957  4.3900  0.7964
  724TIP3    H2 2179   3.192   2.715   3.466 -0.9760  1.1131  0.1127
  725TIP3   OH2 2180   2.304   1.019   3.235 -0.3882  0.1684 -0.0647
  725TIP3    H1 2181   2.244   0.945   3.231  1.2880 -1.3722  1.1667
  725TIP3    H2 2182   2.353   1.014   3.153  2.3745 -2.6697  1.4990
  726TIP3   OH2 2183   2.014   4.473   4.698  0.3642  0.3620 -0.0100
  726TIP3    H1 2184   2.020   4.503   4.607  3.2574  0.7310  0.1862
  726TIP3    H2 2185   1.927   4.499   4.726 -0.2985  1.0260 -2.4033
  727TIP3   OH2 2186   3.301   0.545   4.049 -0.2374 -0.4950  0.1388
  727TIP3    H1 2187   3.294   0.469   4.106 -1.1636  0.2383  1.0424
  727TIP3    H2 2188   3.213   0.559   4.016 -0.5473  1.3124  1.5485
  728TIP3   OH2 2189   4.582   1.702   0.827  0.0902 -0.7111 -0.3863
  728TIP3    H1 2190   4.573   1.784   0.780  0.0415 -0.8244 -0.5754
  728TIP3    H2 2191   4.669   1.705   0.865 -1.0783  0.9384  2.4690
  729TIP3   OH2 2192   3.174   1.841   2.883 -0.0951 -0.3425  0.4782
  729TIP3    H1 2193   3.257   1.798   2.904  1.8010  1.3500 -2.7513
  729TIP3    H2 2194   3.199   1.926   2.847 -3.4196  1.2541  1.5058
  730TIP3   OH2 2195   3.093   4.077   4.629  0.5647 -0.6077 -0.0385
  730TIP3    H1 2196   3.111   3.983   4.624  2.7298 -0.2832  0.4385
  730TIP3    H2 2197   3.151   4.108   4.699 -1.1195  0.8890  0.7711
  731TIP3   OH2 2198   5.210   5.673   5.070 -0.6471  0.0637 -0.3397
  731TIP3    H1 2199   5.207   5.589   5.024  0.5162  0.0858 -0.4927
  731TIP3    H2 2200   5.282   5.663   5.132 -0.6886  0.8439 -0.1573
  732TIP3   OH2 2201   2.227   3.026   4.083  0.3481  0.1493  0.2030
  732TIP3    H1 2202   2.260   3.001   3.997 -2.3321 -1.9180 -0.3527
  732TIP3    H2 2203   2.279   2.975   4.145 -1.3821 -2.8685 -0.6306
  733TIP3   OH2 2204   4.284   2.967   0.157  0.4717 -0.2849  0.0634
  733TIP3    H1 2205   4.310   2.989   0.246 -0.7724  0.8660  0.1662
  733TIP3    H2 2206   4.332   3.029   0.102 -0.0562  0.1236  0.0610
  734TIP3   OH2 2207   5.089   0.900   3.802  0.2546 -0.1418 -0.1464
  734TIP3    H1 2208   5.025   0.834   3.829  0.2122 -0.3024 -0.6341
  734TIP3    H2 2209   5.093   0.961   3.876 -0.7900  0.1146 -0.2840
  735TIP3   OH2 2210   0.010   4.323   4.243 -0.8968 -0.3905  0.1228
  735TIP3    H1 2211   0.072   4.277   4.187 -0.8261 -0.5137  0.3009
  735TIP3    H2 2212  -0.056   4.358   4.183  1.2673  2.9550 -0.5695
  736TIP3   OH2 2213   4.284   5.830   3.322  0.4385 -0.1866 -0.4098
  736TIP3    H1 2214   4.296   5.924   3.334  2.5156 -0.1716 -2.1651
  736TIP3    H2 2215   4.208   5.823   3.264 -1.1293  0.2378  1.4689
  737TIP3   OH2 2216   2.912   4.133   4.425 -0.2159 -0.7695  0.1380
  737TIP3    H1 2217   2.854   4.057   4.432  0.3038 -1.1376  0.5479
  737TIP3    H2 2218   2.979   4.119   4.492  1.6573 -1.5163 -1.7788
  738TIP3   OH2 2219   3.586   3.476   3.976 -0.0861  0.3280 -0.5346
  738TIP3    H1 2220   3.611   3.395   3.932 -2.4194  0.3309 -2.0430
  738TIP3    H2 2221   3.507   3.505   3.930 -0.9804  1.9502  1.8147
  739TIP3   OH2 2222   0.304   5.139   4.468  0.1738  0.4827  0.5611
  739TIP3    H1 2223   0.327   5.159   4.377 -2.7017 -0.3009 -0.4245
  739TIP3    H2 2224   0.385   5.157   4.517  1.7691  1.0999 -2.0818
  740TIP3   OH2 2225   5.560   0.891   4.756  0.4604  0.0344  0.2283
  740TIP3    H1 2226   5.498   0.890   4.830  0.6924  0.4581  0.4335
  740TIP3    H2 2227   5.505   0.908   4.680  0.4862  2.1441  0.6038
  741TIP3   OH2 2228   0.749   5.488   2.926  0.2013  0.4235  0.4228
  741TIP3    H1 2229   0.692   5.450   2.993  0.3335  1.1395  0.9394
  741TIP3    H2 2230   0.690   5.505   2.852 -0.1033  0.4378  0.6676
  742TIP3   OH2 2231   2.971   2.379   2.110  0.0741  0.1445  0.2904
  742TIP3    H1 2232   2.937   2.299   2.151 -0.9773  1.5038  2.2730
  742TIP3    H2 2233   3.066   2.368   2.111 -0.0763 -2.2788 -2.1964
  743TIP3   OH2 2234   0.995   5.294   2.596  0.0642  0.1132 -0.0684
  743TIP3    H1 2235   0.940   5.346   2.537  1.2873  0.4958 -0.9064
  743TIP3    H2 2236   1.051   5.358   2.640  1.2157 -0.4200 -0.7079
  744TIP3   OH2 2237   4.947   3.741   2.114  0.6830  0.1318 -0.4261
  744TIP3    H1 2238   5.005   3.667   2.133  2.4886  1.2038 -1.4636
  744TIP3    H2 2239   4.980   3.812   2.169  0.4327  0.7843 -1.0975
  745TIP3   OH2 2240   5.286   5.351   2.421 -0.0117  0.0036 -0.0213
  745TIP3    H1 2241   5.339   5.364   2.342 -0.7589  0.2337 -0.4926
  745TIP3    H2 2242   5.306   5.261   2.449  1.6120  0.4983  0.5672
  746TIP3   OH2 2243   5.348   4.878   0.978 -0.6396  0.0580 -0.3081
  746TIP3    H1 2244   5.341   4.960   1.025  2.0023  0.4397 -0.4283
  746TIP3    H2 2245   5.330   4.901   0.887 -2.0857  0.0291 -0.0537
  747TIP3   OH2 2246   1.858   1.057   0.878  0.0624 -0.1728 -0.1134
  747TIP3    H1 2247   1.789   0.991   0.874  0.0389 -0.4253  2.6828
  747TIP3    H2 2248   1.876   1.078   0.786 -3.1908 -0.6018 -0.9837
  748TIP3   OH2 2249   2.346   1.649   3.906  0.5500 -0.2306  1.0029
  748TIP3    H1 2250   2.278   1.649   3.973 -0.2807 -1.0802  0.1865
  748TIP3    H2 2251   2.369   1.742   3.895 -0.0369  0.0080  1.7237
  749TIP3   OH2 2252   5.261   3.697   3.988  0.0211 -0.2670 -0.0966
  749TIP3    H1 2253   5.271   3.726   3.897  2.4672  1.4495  0.6142
  749TIP3    H2 2254   5.296   3.608   3.989 -2.4560 -1.3618 -1.2473
  750TIP3   OH2 2255   1.570   0.064   1.528 -0.1658  0.1820 -0.2059
  750TIP3    H1 2256   1.523   0.083   1.447 -0.0872 -0.9061 -0.5264
  750TIP3    H2 2257   1.660   0.047   1.500  0.4017  1.9801  0.3732
  751TIP3   OH2 2258   4.099   0.027   2.295 -0.2655  0.4344  0.2725
  751TIP3    H1 2259   4.163  -0.008   2.356  1.2149  0.4078 -1.2313
  751TIP3    H2 2260   4.100   0.122   2.311  0.9282  0.5574 -0.4182
  752TIP3   OH2 2261   0.788   5.299   1.690 -0.0851  0.8183 -0.2505
  752TIP3    H1 2262   0.751   5.290   1.602 -0.5905  0.1450  0.0225
  752TIP3    H2 2263   0.713   5.289   1.749  0.4248  0.0363  0.2895
  753TIP3   OH2 2264   6.139   1.901   4.363 -0.2716  0.2608 -0.4032
  753TIP3    H1 2265   6.101   1.955   4.293 -0.3565  0.8914  0.1233
  753TIP3    H2 2266   6.115   1.946   4.444  3.0780  1.7312 -0.0599
  754TIP3   OH2 2267   5.556   5.101   2.231 -0.4938  0.1514  0.2102
  754TIP3    H1 2268   5.600   5.179   2.197  0.1695  0.8469  2.5027
  754TIP3    H2 2269   5.547   5.044   2.154  1.5890  1.2796 -0.9872
  755TIP3   OH2 2270   2.915   3.286   4.211 -0.0261  0.3457 -0.3117
  755TIP3    H1 2271   2.902   3.332   4.128 -0.5121  1.9370  0.5950
  755TIP3    H2 2272   2.902   3.354   4.278 -0.4741 -1.0708  1.0970
  756TIP3   OH2 2273   1.314   3.322   1.572  0.9928 -0.7118 -0.0304
  756TIP3    H1 2274   1.306   3.323   1.477  0.6881 -0.1794 -0.0060
  756TIP3    H2 2275   1.397   3.366   1.590  0.1352  1.0026  0.0068
  757TIP3   OH2 2276   4.138   3.687   2.716 -0.7471  0.4511  0.7908
  757TIP3    H1 2277   4.051   3.648   2.710 -1.3923  1.8528  0.6752
  757TIP3    H2 2278   4.157   3.718   2.628 -0.4395  0.7718  0.9660
  758TIP3   OH2 2279   0.929   5.360   0.958 -0.1581  0.0810 -0.0625
  758TIP3    H1 2280   0.991   5.310   1.012 -0.2455  1.3452  1.2719
  758TIP3    H2 2281   0.966   5.357   0.870  0.5242 -1.2007  0.2315
  759TIP3   OH2 2282   4.133   3.744   5.102 -0.4317 -0.1973 -0.1999
  759TIP3    H1 2283   4.083   3.687   5.044  1.1824 -1.9091  0.0089
  759TIP3    H2 2284   4.141   3.695   5.183  0.2341  0.7165  0.3025
  760TIP3   OH2 2285   5.244   1.998   3.677 -0.1017  0.1927 -0.8188
  760TIP3    H1 2286   5.218   1.985   3.768 -0.6778  0.4442 -0.9467
  760TIP3    H2 2287   5.317   1.937   3.664  0.5328  0.7353  0.0475
  761TIP3   OH2 2288   2.255   4.510   1.067  0.1720 -0.4156  0.6655
  761TIP3    H1 2289   2.163   4.534   1.060  0.7309  1.4600 -1.4928
  761TIP3    H2 2290   2.278   4.531   1.158 -1.0955  0.7522  0.7523
  762TIP3   OH2 2291   2.639   5.015   2.398 -0.0571  0.1736  0.6864
  762TIP3    H1 2292   2.608   5.012   2.488 -0.9567  1.0297  0.4237
  762TIP3    H2 2293   2.615   5.102   2.367  1.6423  0.4658  0.0980
  763TIP3   OH2 2294   6.105   0.447   0.728 -0.7685 -0.4563 -0.1842
  763TIP3    H1 2295   6.054   0.528   0.738 -1.0168 -0.5622 -0.5868
  763TIP3    H2 2296   6.181   0.460   0.784 -0.5603  0.2595 -0.6187
  764TIP3   OH2 2297   5.997   4.064   4.425 -0.0619  0.0176  0.5071
  764TIP3    H1 2298   6.043   3.988   4.459 -0.2912  0.2628  1.3950
  764TIP3    H2 2299   6.015   4.133   4.488 -0.7212  0.4182  0.2682
  765TIP3   OH2 2300   2.773   1.524   5.084  0.2011 -0.0495  0.0526
  765TIP3    H1 2301   2.826   1.583   5.030 -3.5685  2.2613 -1.5135
  765TIP3    H2 2302   2.776   1.440   5.037  1.6058  0.2823 -0.5021
  766TIP3   OH2 2303   3.697   1.088   5.167 -0.2753  0.2902  0.4812
  766TIP3    H1 2304   3.695   1.000   5.204  2.1012 -0.2791 -0.5933
  766TIP3    H2 2305   3.619   1.092   5.111 -1.6499 -0.2633  2.2480
  767TIP3   OH2 2306   0.068   4.987   4.340  0.8570 -0.4890 -0.0713
  767TIP3    H1 2307   0.107   4.902   4.321  0.6612 -0.7302  0.5720
  767TIP3    H2 2308   0.092   5.005   4.431  1.2648  0.3506 -0.3297
  768TIP3   OH2 2309   0.066   1.809   3.679 -0.3305 -0.2724  0.0536
  768TIP3    H1 2310   0.118   1.754   3.619 -0.2220 -1.5900  1.3121
  768TIP3    H2 2311  -0.010   1.834   3.628  0.6962  0.2762 -1.2802
  769TIP3   OH2 2312   1.247   0.479   1.318  0.5297  0.2067  0.1472
  769TIP3    H1 2313   1.184   0.441   1.257  0.4266  0.0672  0.3400
  769TIP3    H2 2314   1.267   0.564   1.281  0.3004  0.2123  0.0323
  770TIP3   OH2 2315   5.761   3.340   2.088  0.0797  0.0908 -0.1625
  770TIP3    H1 2316   5.754   3.250   2.057 -0.8136  0.1844 -0.2679
  770TIP3    H2 2317   5.670   3.367   2.103  0.3395  0.9662 -0.1123
  771TIP3   OH2 2318   5.932   4.728   3.779  0.4487 -0.2395 -0.2293
  771TIP3    H1 2319   5.983   4.697   3.704 -0.0639 -0.8070 -0.3441
  771TIP3    H2 2320   5.896   4.812   3.751  3.0221  1.2551  0.5890
  772TIP3   OH2 2321   5.836   0.274   4.402 -0.4243 -0.2799  0.0204
  772TIP3    H1 2322   5.820   0.357   4.357 -1.4634 -0.5554 -0.1509
  772TIP3    H2 2323   5.845   0.210   4.331 -0.7476 -0.4981  0.1764
  773TIP3   OH2 2324   2.449   5.168   1.484  0.4812  0.5182 -0.3289
  773TIP3    H1 2325   2.440   5.076   1.508  0.4076  0.7664  0.6539
  773TIP3    H2 2326   2.544   5.184   1.488  0.4294  0.6838  0.3016
  774TIP3   OH2 2327   1.111   5.462   2.762  0.3587  0.2245  0.0777
  774TIP3    H1 2328   1.047   5.533   2.755  0.1907  0.0102 -0.5860
  774TIP3    H2 2329   1.120   5.448   2.857 -0.9308 -0.0530  0.1799
  775TIP3   OH2 2330   0.404   3.209   0.011 -0.4090 -0.1272  0.0617
  775TIP3    H1 2331   0.355   3.141   0.057 -1.2880  0.9159  0.7273
  775TIP3    H2 2332   0.399   3.285   0.069  0.1160  0.6544 -0.8914
  776TIP3   OH2 2333   4.303   4.996   0.505  0.3272  0.1731 -0.5112
  776TIP3    H1 2334   4.297   5.068   0.567 -0.0790  0.1024 -0.4638
  776TIP3    H2 2335   4.372   4.939   0.539 -0.4430 -0.2811  0.3056
  777TIP3   OH2 2336   0.658   4.557   0.884  0.2179  0.4765  0.8373
  777TIP3    H1 2337   0.611   4.507   0.817  0.1275 -1.4676  2.2726
  777TIP3    H2 2338   0.740   4.510   0.897  0.7260  1.4514  1.3340
  778TIP3   OH2 2339   3.769   2.874   3.225 -0.8311  0.5152 -0.1975
  778TIP3    H1 2340   3.766   2.904   3.134  1.5996  1.4236 -0.0472
  778TIP3    H2 2341   3.785   2.953   3.275  0.2760 -0.2989  0.7710
  779TIP3   OH2 2342   2.345   2.380   1.956 -0.4959  0.0822 -0.1514
  779TIP3    H1 2343   2.394   2.375   1.874 -0.0949  0.9915  0.0167
  779TIP3    H2 2344   2.319   2.472   1.962 -2.1518 -0.3456 -0.1804
  780TIP3   OH2 2345   1.411   5.634   1.273 -0.4502 -0.6670 -0.2116
  780TIP3    H1 2346   1.443   5.608   1.359 -1.3032 -3.3382 -0.6108
  780TIP3    H2 2347   1.433   5.561   1.215 -0.2680  0.8669 -2.2145
  781TIP3   OH2 2348   5.316   1.726   5.078  0.5306  0.0908  0.4572
  781TIP3    H1 2349   5.280   1.797   5.131  0.0736 -0.3728  0.7713
  781TIP3    H2 2350   5.379   1.682   5.135  1.9320  1.1461 -0.2193
  782TIP3   OH2 2351   4.955   3.662   0.061 -0.1397 -0.1517  0.4000
  782TIP3    H1 2352   4.862   3.680   0.072 -0.4611 -1.3282 -0.2267
  782TIP3    H2 2353   4.970   3.582   0.111  1.0505  1.2168  2.3772
  783TIP3   OH2 2354   4.349   1.432   4.354  0.0334  0.0361  0.0419
  783TIP3    H1 2355   4.403   1.412   4.277 -1.0752  0.0004 -0.7618
  783TIP3    H2 2356   4.387   1.512   4.390  0.4267  0.1978 -0.6996
  784TIP3   OH2 2357   0.645   1.916   2.820  0.3940  0.3618 -0.0329
  784TIP3    H1 2358   0.588   1.845   2.788 -0.6777  0.1984  2.0647
  784TIP3    H2 2359   0.592   1.995   2.810  0.4410  0.4419  0.3311
  785TIP3   OH2 2360   5.108   2.231   1.562  0.6350 -0.1286  0.0586
  785TIP3    H1 2361   5.162   2.241   1.640  0.4686 -1.7040  0.4130
  785TIP3    H2 2362   5.089   2.321   1.534  1.4459  0.4550  1.2961
  786TIP3   OH2 2363   0.579   1.480   0.835 -0.4352  0.1064 -0.4280
  786TIP3    H1 2364   0.634   1.413   0.794 -0.3620  0.2278 -0.5273
  786TIP3    H2 2365   0.544   1.530   0.762  0.6162  1.0548 -0.2994
  787TIP3   OH2 2366   1.785   3.718   1.595 -0.3754  0.7005  0.4483
  787TIP3    H1 2367   1.771   3.779   1.668 -0.2667  0.1992  0.8987
  787TIP3    H2 2368   1.848   3.654   1.629  1.4162  1.6947 -0.8174
  788TIP3   OH2 2369   2.118   0.287   3.673 -0.1476  0.5635 -0.0464
  788TIP3    H1 2370   2.135   0.215   3.613  0.3788 -0.1770  0.9548
  788TIP3    H2 2371   2.121   0.365   3.619  0.8294 -0.0365 -0.8846
  789TIP3   OH2 2372   3.134   3.283   2.321  0.7768  0.0060 -0.4400
  789TIP3    H1 2373   3.180   3.353   2.368  2.6632 -0.4705 -1.4720
  789TIP3    H2 2374   3.097   3.327   2.244  0.3675  0.1997 -0.1374
  790TIP3   OH2 2375   1.510   5.910   4.725 -0.2729  0.2063 -0.1394
  790TIP3    H1 2376   1.491   5.944   4.637 -0.3242  0.2900 -0.0950
  790TIP3    H2 2377   1.512   5.815   4.713  0.3116  0.2356 -0.3573
  791TIP3   OH2 2378   4.483   0.529   2.554 -0.5112  0.0002  0.0764
  791TIP3    H1 2379   4.461   0.619   2.530  0.5837 -0.1984 -1.9137
  791TIP3    H2 2380   4.412   0.477   2.516 -0.8645 -0.0196  0.7612
  792TIP3   OH2 2381   1.014   2.369   0.118 -0.1539 -0.1939  0.1673
  792TIP3    H1 2382   1.081   2.413   0.170  0.7917 -0.7828 -0.5239
  792TIP3    H2 2383   0.948   2.437   0.100  0.2562  0.3893  0.8489
  793TIP3   OH2 2384   5.049   0.864   2.004 -0.4417 -0.0851 -0.1201
  793TIP3    H1 2385   5.116   0.801   2.027 -0.7676 -1.5537 -2.7875
  793TIP3    H2 2386   5.086   0.914   1.931 -1.9410 -0.4766 -1.2038
  794TIP3   OH2 2387   4.111   0.468   1.936  0.0460  0.1806  0.4474
  794TIP3    H1 2388   4.123   0.563   1.926  1.2699 -0.0001  0.0949
  794TIP3    H2 2389   4.056   0.459   2.013 -0.1955  1.1877  0.4048
  795TIP3   OH2 2390   3.750   3.971   0.835  0.3661 -0.0507  0.5624
  795TIP3    H1 2391   3.708   4.056   0.827 -0.3260 -0.3796  0.6447
  795TIP3    H2 2392   3.708   3.930   0.911  1.5258  0.0004  1.2629
  796TIP3   OH2 2393   5.244   0.163   4.192 -0.1563 -0.4067  0.6060
  796TIP3    H1 2394   5.203   0.241   4.231 -0.1294  0.5291 -1.1602
  796TIP3    H2 2395   5.244   0.099   4.263 -1.7278  0.6262  1.6106
  797TIP3   OH2 2396   0.179   5.878   2.826  0.1481  0.1328 -0.3158
  797TIP3    H1 2397   0.268   5.908   2.812  0.6832 -0.8273  0.8567
  797TIP3    H2 2398   0.133   5.898   2.745  1.9808 -1.3576 -1.8091
  798TIP3   OH2 2399   6.161   2.931   1.893 -0.2877  0.4312  0.2145
  798TIP3    H1 2400   6.081   2.880   1.881  0.2685 -0.2496 -0.6572
  798TIP3    H2 2401   6.179   2.925   1.987 -1.0783  0.3337  0.3682
  799TIP3   OH2 2402   4.607   5.374   4.893 -0.5552 -0.0328 -0.2477
  799TIP3    H1 2403   4.675   5.430   4.931 -0.7214 -0.6580  1.0569
  799TIP3    H2 2404   4.641   5.347   4.808  0.7217 -0.1378  0.2801
  800TIP3   OH2 2405   1.605   4.309   0.610 -0.3297  0.3878 -0.3183
  800TIP3    H1 2406   1.637   4.319   0.699  0.2714  1.0793 -0.6060
  800TIP3    H2 2407   1.649   4.230   0.577 -2.3814 -1.3177  0.7696
  801TIP3   OH2 2408   3.166   0.020   3.660 -0.3902  0.5382  0.0814
  801TIP3    H1 2409   3.152  -0.005   3.569 -1.8772  0.2516  0.3450
  801TIP3    H2 2410   3.083   0.059   3.687 -0.4466 -0.5335  1.6569
  802TIP3   OH2 2411   2.287   4.104   3.094 -0.2640  0.0494  0.3736
  802TIP3    H1 2412   2.321   4.025   3.137  1.1705  1.0353  1.1211
  802TIP3    H2 2413   2.306   4.090   3.001  2.7688  0.7249  0.7806
  803TIP3   OH2 2414   3.667   3.638   4.733  0.0366  0.2065  0.1215
  803TIP3    H1 2415   3.658   3.623   4.638 -0.0479 -0.9239  0.2834
  803TIP3    H2 2416   3.759   3.618   4.751 -0.1964 -0.6589  0.4288
  804TIP3   OH2 2417   0.543   0.811   1.964 -0.5768 -0.0070 -0.1468
  804TIP3    H1 2418   0.594   0.888   1.940  1.4098 -0.7482  1.4320
  804TIP3    H2 2419   0.454   0.845   1.977 -0.0014  1.7952 -0.5900
  805TIP3   OH2 2420   5.557   0.668   0.727 -0.1378 -0.1441  0.1930
  805TIP3    H1 2421   5.637   0.695   0.682 -0.7915 -0.9616 -1.5678
  805TIP3    H2 2422   5.580   0.669   0.820  1.8167 -0.0501 -0.2466
  806TIP3   OH2 2423   3.548   1.322   0.258 -0.1147 -0.0608 -0.4526
  806TIP3    H1 2424   3.557   1.417   0.258 -1.8223  0.1637  1.0914
  806TIP3    H2 2425   3.632   1.290   0.291  0.3898  0.9072 -0.7479
  807TIP3   OH2 2426   2.599   5.657   0.537 -0.3520  0.7140 -0.4527
  807TIP3    H1 2427   2.671   5.720   0.545 -0.1146  0.5285 -1.0362
  807TIP3    H2 2428   2.611   5.598   0.612  0.2589  0.5418 -0.6727
  808TIP3   OH2 2429   0.465   1.484   4.269 -0.5777  0.2844  0.5621
  808TIP3    H1 2430   0.370   1.501   4.269 -0.5731  0.3180  0.0116
  808TIP3    H2 2431   0.498   1.533   4.344 -1.2411 -1.0815  1.7998
  809TIP3   OH2 2432   5.606   5.494   4.038 -0.2151  0.2294  0.3411
  809TIP3    H1 2433   5.556   5.429   4.087 -1.4836  1.4493  0.7493
  809TIP3    H2 2434   5.665   5.533   4.103  1.3025 -1.1574 -0.1237
  810TIP3   OH2 2435   0.358   0.255   2.882  0.4313 -0.5760  0.4068
  810TIP3    H1 2436   0.397   0.339   2.907  1.5486 -1.0659  0.3400
  810TIP3    H2 2437   0.358   0.256   2.786 -2.1834  0.5278  0.3368
  811TIP3   OH2 2438   3.173   0.433   3.326 -0.3645  0.2054 -0.0515
  811TIP3    H1 2439   3.225   0.507   3.294  0.0871 -0.0377  0.1094
  811TIP3    H2 2440   3.235   0.360   3.329 -0.3584  0.2311  1.4330
  812TIP3   OH2 2441   4.067   1.266   0.628  0.0272 -0.2290  0.3045
  812TIP3    H1 2442   4.004   1.325   0.669 -0.5656 -1.3650  1.0575
  812TIP3    H2 2443   4.127   1.325   0.581 -1.9109  0.8594 -0.9364
  813TIP3   OH2 2444   1.389   2.890   2.771  0.0796 -0.6376 -0.5096
  813TIP3    H1 2445   1.365   2.820   2.832  0.7463 -0.4554 -0.0301
  813TIP3    H2 2446   1.352   2.863   2.687 -0.2687 -1.2199 -0.1693
  814TIP3   OH2 2447   3.405   4.600   1.252  0.1238  0.5152  0.6105
  814TIP3    H1 2448   3.434   4.518   1.214  0.3713  1.3042 -0.9620
  814TIP3    H2 2449   3.483   4.636   1.294 -0.0217 -0.1028  1.4313
  815TIP3   OH2 2450   5.451   2.671   3.722  0.3038 -0.9593 -0.6245
  815TIP3    H1 2451   5.546   2.682   3.724  0.1931  0.2996  2.3598
  815TIP3    H2 2452   5.434   2.599   3.783 -0.7444  0.1223  0.3945
  816TIP3   OH2 2453   1.301   1.660   0.196 -0.8470  0.4079  0.7720
  816TIP3    H1 2454   1.285   1.621   0.282  1.8406 -0.6041  0.9086
  816TIP3    H2 2455   1.255   1.602   0.134 -0.6451 -0.3646  1.3325
  817TIP3   OH2 2456   1.960   1.729   3.107 -0.4184  0.4773 -0.2645
  817TIP3    H1 2457   1.899   1.777   3.052 -1.1113  0.2159  0.2586
  817TIP3    H2 2458   1.931   1.638   3.101  0.1020  0.3091 -0.2465
  818TIP3   OH2 2459   5.658   2.033   2.802 -0.3896 -0.1289 -0.6705
  818TIP3    H1 2460   5.647   2.128   2.804  1.7192  0.1513 -0.6759
  818TIP3    H2 2461   5.589   2.001   2.860 -3.0676  1.1218 -2.8958
  819TIP3   OH2 2462   3.625   4.657   1.992  0.2185  0.0929 -0.1499
  819TIP3    H1 2463   3.699   4.638   1.935 -0.5492  0.3587 -1.2590
  819TIP3    H2 2464   3.566   4.582   1.981  0.0901  0.1081  0.3701
  820TIP3   OH2 2465   1.331   2.458   4.246 -0.4916 -0.0021 -0.7574
  820TIP3    H1 2466   1.425   2.471   4.228 -0.6854  1.2038 -1.0117
  820TIP3    H2 2467   1.321   2.478   4.339 -0.5744  0.4135 -0.8519
  821TIP3   OH2 2468   5.363   4.532   4.489  0.0378  0.3583  0.6306
  821TIP3    H1 2469   5.446   4.540   4.442  0.4752 -1.6119  0.9741
  821TIP3    H2 2470   5.331   4.445   4.466 -0.9720  0.3331  2.0230
  822TIP3   OH2 2471   1.446   4.313   3.362  0.1253  0.0483  0.0903
  822TIP3    H1 2472   1.517   4.269   3.314  1.6198  1.0260  1.2971
  822TIP3    H2 2473   1.398   4.242   3.404 -0.2773 -0.7098 -1.5832
  823TIP3   OH2 2474   3.220   5.266   4.992  0.2466 -0.0223 -0.3408
  823TIP3    H1 2475   3.186   5.204   5.057  1.5307 -0.9656 -0.5285
  823TIP3    H2 2476   3.314   5.248   4.988  0.2147 -0.0244 -2.4775
  824TIP3   OH2 2477   5.834   0.507   1.699 -0.6334  0.0089  0.4538
  824TIP3    H1 2478   5.788   0.588   1.677 -0.5817 -0.1541 -0.2762
  824TIP3    H2 2479   5.878   0.526   1.782 -1.5008  0.3727  0.8442
  825TIP3   OH2 2480   3.247   1.729   0.297  0.0535 -0.3747  0.2947
  825TIP3    H1 2481   3.277   1.695   0.381  1.1802 -1.9992 -0.7168
  825TIP3    H2 2482   3.198   1.658   0.257  1.2127 -0.3780 -1.2449
  826TIP3   OH2 2483   1.076   5.736   0.667  0.4976  0.3989 -0.4142
  826TIP3    H1 2484   1.014   5.807   0.686  0.8155  0.4920  0.3028
  826TIP3    H2 2485   1.145   5.777   0.615 -0.7128  0.0017 -2.4372
  827TIP3   OH2 2486   5.315   4.306   1.504  0.5405  0.4658  0.1342
  827TIP3    H1 2487   5.305   4.374   1.437  0.4125  0.2991 -0.0174
  827TIP3    H2 2488   5.334   4.354   1.584  1.1589  0.6496 -0.1085
  828TIP3   OH2 2489   2.437   4.643   0.900 -0.3467  0.6804  0.2498
  828TIP3    H1 2490   2.375   4.613   0.835  1.5166 -0.4757 -1.0944
  828TIP3    H2 2491   2.402   4.611   0.983  0.2554 -3.2937 -0.8385
  829TIP3   OH2 2492   5.166   0.229   2.079  0.0633  0.1438 -0.0449
  829TIP3    H1 2493   5.258   0.201   2.083 -0.2666 -0.8771  1.0072
  829TIP3    H2 2494   5.125   0.165   2.021 -0.0398  0.4368 -0.2937
  830TIP3   OH2 2495   5.956   5.478   2.919  0.4841  0.1687 -0.1445
  830TIP3    H1 2496   5.929   5.419   2.849 -1.0442  0.8152 -0.1332
  830TIP3    H2 2497   5.965   5.563   2.877  1.0909  0.2521  0.1482
  831TIP3   OH2 2498   5.319   5.630   2.847 -0.3192  0.2695  0.3131
  831TIP3    H1 2499   5.348   5.549   2.806  1.6710  0.2754  1.5901
  831TIP3    H2 2500   5.246   5.602   2.904 -1.3186 -0.1581 -1.1106
  832TIP3   OH2 2501   2.332   5.861   2.795 -0.5032  0.2899  0.9179
  832TIP3    H1 2502   2.265   5.810   2.750  0.6493 -0.7128  0.2853
  832TIP3    H2 2503   2.352   5.811   2.874  0.1087  0.1453  0.6719
  833TIP3   OH2 2504   5.555   1.096   2.456 -0.1696  0.1685 -0.2564
  833TIP3    H1 2505   5.624   1.037   2.486 -0.2577  0.3206  0.2677
  833TIP3    H2 2506   5.586   1.183   2.484 -0.8174  0.1798  0.4649
  834TIP3   OH2 2507   4.226   1.049   0.209 -0.5306 -0.2065 -0.1805
  834TIP3    H1 2508   4.222   1.144   0.195 -0.4936  0.3188  2.7795
  834TIP3    H2 2509   4.297   1.037   0.271 -0.2496 -2.2627 -0.8376
  835TIP3   OH2 2510   0.270   0.267   0.113 -0.2459  0.2392 -0.1874
  835TIP3    H1 2511   0.205   0.233   0.052  1.7627  0.0802 -2.4159
  835TIP3    H2 2512   0.255   0.362   0.114 -1.0595  0.1128  0.0393
  836TIP3   OH2 2513   0.961   1.496   3.737  0.3657 -0.0578  0.5271
  836TIP3    H1 2514   0.943   1.404   3.754  0.0688  0.0867  0.9958
  836TIP3    H2 2515   1.014   1.525   3.812 -0.3416  0.3914  0.8702
  837TIP3   OH2 2516   2.717   2.302   3.592 -0.2351 -0.2042 -0.5931
  837TIP3    H1 2517   2.689   2.354   3.667  0.5469 -0.6027 -0.0117
  837TIP3    H2 2518   2.808   2.278   3.611  0.5641  1.1205 -2.4681
  838TIP3   OH2 2519   0.402   5.776   1.724 -0.6936  0.4017  0.1847
  838TIP3    H1 2520   0.370   5.722   1.652 -1.4796  1.0579  0.0284
  838TIP3    H2 2521   0.477   5.728   1.759 -0.3860  0.0135 -0.9845
  839TIP3   OH2 2522   5.716   0.654   3.411  0.0543 -0.6972 -0.0780
  839TIP3    H1 2523   5.793   0.678   3.462 -0.0125  1.0927 -0.7495
  839TIP3    H2 2524   5.689   0.569   3.446  3.2578 -2.2014 -0.9073
  840TIP3   OH2 2525   3.435   0.077   5.011 -0.3137  1.0193 -0.2284
  840TIP3    H1 2526   3.384   0.096   5.090 -1.1679  1.5177 -0.8788
  840TIP3    H2 2527   3.392   0.000   4.973 -0.2470  1.1171 -0.5016
  841TIP3   OH2 2528   5.562   3.881   0.216 -0.1665  0.7187 -0.4655
  841TIP3    H1 2529   5.637   3.932   0.246 -0.8405  0.5560  1.6202
  841TIP3    H2 2530   5.486   3.934   0.237 -0.6932  0.8302 -2.4580
  842TIP3   OH2 2531   3.749   0.319   2.459 -0.2263 -0.6185  0.2975
  842TIP3    H1 2532   3.721   0.235   2.494 -0.6061 -0.0138  1.5365
  842TIP3    H2 2533   3.667   0.364   2.436 -0.0594 -0.3783  0.1656
  843TIP3   OH2 2534   3.094   2.250   1.276  0.5536 -0.8486 -0.1910
  843TIP3    H1 2535   3.055   2.336   1.265 -1.0859 -1.0403  2.9404
  843TIP3    H2 2536   3.156   2.261   1.348  1.1967 -2.0459 -0.5349
  844TIP3   OH2 2537   1.496   5.004   1.025 -0.3384  0.1468 -0.3080
  844TIP3    H1 2538   1.409   4.986   0.990 -0.8542 -1.1248  1.5101
  844TIP3    H2 2539   1.482   5.018   1.119  1.4061  0.0576 -0.0028
  845TIP3   OH2 2540   2.550   1.198   2.792 -0.4077  0.2315 -0.3028
  845TIP3    H1 2541   2.595   1.114   2.802 -0.0622  0.4590  0.0719
  845TIP3    H2 2542   2.617   1.264   2.811 -0.5189  0.6160 -1.1742
  846TIP3   OH2 2543   3.173   5.715   4.524 -0.1984 -0.5688  0.0105
  846TIP3    H1 2544   3.087   5.694   4.561  0.2410 -1.1351  0.7351
  846TIP3    H2 2545   3.212   5.629   4.504  0.2608 -0.3223 -0.1618
  847TIP3   OH2 2546   1.966   4.051   1.842  0.2262 -0.3246  0.0197
  847TIP3    H1 2547   2.061   4.063   1.843  0.6080 -2.5977  2.5702
  847TIP3    H2 2548   1.943   4.052   1.749  2.8152 -0.3105 -0.6968
  848TIP3   OH2 2549   3.388   5.247   0.055  0.7110  0.2069 -0.0236
  848TIP3    H1 2550   3.433   5.300   0.120  0.8110  1.1043 -0.8076
  848TIP3    H2 2551   3.298   5.240   0.088  0.8476  0.3541  0.3847
  849TIP3   OH2 2552   3.516   5.211   1.967 -0.1900 -0.1945 -0.1679
  849TIP3    H1 2553   3.440   5.186   2.020 -1.5449  1.1869 -1.3666
  849TIP3    H2 2554   3.528   5.304   1.985  0.3079 -0.0676 -1.0926
  850TIP3   OH2 2555   6.349   1.057   3.682 -0.0494 -0.1394 -0.3843
  850TIP3    H1 2556   6.337   1.142   3.725  0.2533 -1.1089  1.7536
  850TIP3    H2 2557   6.262   1.017   3.684  0.5147 -1.5101  2.4717
  851TIP3   OH2 2558   0.035   4.738   2.791 -0.4451 -0.0223  0.0465
  851TIP3    H1 2559   0.069   4.654   2.824  0.5644 -0.5831 -2.2589
  851TIP3    H2 2560   0.104   4.801   2.813 -0.3236 -0.1580  0.0543
  852TIP3   OH2 2561   2.536   1.468   0.355  0.8034 -0.0634 -0.0253
  852TIP3    H1 2562   2.612   1.437   0.404  0.9958 -0.7453 -0.7403
  852TIP3    H2 2563   2.461   1.428   0.400  1.1035 -2.6020 -1.6054
  853TIP3   OH2 2564   0.751   0.249   4.258 -0.0365 -0.0196 -0.2898
  853TIP3    H1 2565   0.742   0.282   4.348  3.8441  1.1520 -0.1715
  853TIP3    H2 2566   0.830   0.195   4.260 -0.7267 -1.2793 -2.7410
  854TIP3   OH2 2567   0.704   2.866   2.317 -0.4628  0.2041  0.6116
  854TIP3    H1 2568   0.711   2.790   2.375  0.0550 -0.6776 -0.5643
  854TIP3    H2 2569   0.787   2.913   2.331 -0.9661  0.8153  1.6612
  855TIP3   OH2 2570   2.984   1.840   2.053  0.4562 -0.4020  0.4601
  855TIP3    H1 2571   2.897   1.823   2.017  0.3502 -0.4270  0.7200
  855TIP3    H2 2572   2.978   1.928   2.091  0.4727 -0.4965  0.6864
  856TIP3   OH2 2573   4.789   5.311   4.694 -0.1657 -0.5493  0.2260
  856TIP3    H1 2574   4.880   5.318   4.666 -0.4558 -0.4798 -0.7189
  856TIP3    H2 2575   4.788   5.235   4.753  0.7855  0.3670  1.4889
  857TIP3   OH2 2576   1.355   1.433   3.125 -0.1124  0.2868 -0.0583
  857TIP3    H1 2577   1.392   1.444   3.037  0.0986 -1.1201 -0.1702
  857TIP3    H2 2578   1.262   1.453   3.116  0.2021  1.7188 -0.2472
  858TIP3   OH2 2579   5.324   0.792   2.796 -0.2890 -0.0166 -0.4536
  858TIP3    H1 2580   5.420   0.797   2.790 -0.4218  1.5485 -1.7906
  858TIP3    H2 2581   5.299   0.873   2.842 -0.9276 -0.9769  0.9648
  859TIP3   OH2 2582   3.100   4.034   0.754  0.6153 -0.1187 -0.1949
  859TIP3    H1 2583   3.162   3.992   0.813  0.1362  0.3941  0.7035
  859TIP3    H2 2584   3.136   4.122   0.739 -0.8443  0.9519  1.9936
  860TIP3   OH2 2585   4.185   3.930   4.192 -0.1363  0.3704 -0.1304
  860TIP3    H1 2586   4.276   3.912   4.216  0.5134 -0.1206 -2.5977
  860TIP3    H2 2587   4.172   4.022   4.214  0.8964  0.3934  0.4341
  861TIP3   OH2 2588   3.354   0.613   1.141 -1.0435  0.3649  0.8786
  861TIP3    H1 2589   3.374   0.704   1.121 -2.3078  0.8056  1.5718
  861TIP3    H2 2590   3.440   0.570   1.143 -0.4547  1.4637  0.2606
  862TIP3   OH2 2591   0.273   2.618   4.450 -0.2418  0.1470  0.3649
  862TIP3    H1 2592   0.218   2.581   4.519  0.2401 -2.4057 -0.4963
  862TIP3    H2 2593   0.229   2.594   4.369  0.2265  1.3631 -0.2738
  863TIP3   OH2 2594   2.117   1.268   4.828  0.0925  0.4073 -0.1072
  863TIP3    H1 2595   2.170   1.297   4.753 -1.2137  1.0421 -0.8254
  863TIP3    H2 2596   2.164   1.193   4.863  0.5764 -0.1183 -1.7854
  864TIP3   OH2 2597   2.014   3.425   1.431 -0.5650  0.3000  0.0066
  864TIP3    H1 2598   2.032   3.446   1.523 -1.3867  1.3466 -0.0672
  864TIP3    H2 2599   1.926   3.389   1.431 -1.1565  1.6846 -0.5523
  865TIP3   OH2 2600   2.285   5.638   2.273  0.2514 -0.4273  0.6102
  865TIP3    H1 2601   2.306   5.610   2.183  0.4425  1.2888  0.0880
  865TIP3    H2 2602   2.285   5.733   2.269 -0.1954 -0.3237  2.3533
  866TIP3   OH2 2603   1.951   5.017   4.563  0.3195  0.3881  1.2024
  866TIP3    H1 2604   1.932   4.923   4.561 -0.6681  0.5650 -1.1583
  866TIP3    H2 2605   1.890   5.052   4.627 -0.7457 -0.3519  0.6254
  867TIP3   OH2 2606   4.643   3.951   1.764 -0.0649 -0.3894  0.1350
  867TIP3    H1 2607   4.735   3.934   1.743  0.2155  1.2434 -0.0995
  867TIP3    H2 2608   4.646   4.017   1.833 -1.0532  0.0202 -0.1999
  868TIP3   OH2 2609   0.921   1.618   1.443 -0.0892  0.2358  0.1551
  868TIP3    H1 2610   0.872   1.646   1.521  0.7848  0.6615  0.5610
  868TIP3    H2 2611   0.853   1.605   1.377 -0.6864  1.9214  0.3788
  869TIP3   OH2 2612   3.490   2.110   4.937  1.0562  0.1196 -0.5769
  869TIP3    H1 2613   3.432   2.186   4.933 -0.1895 -0.8056 -3.3971
  869TIP3    H2 2614   3.430   2.036   4.954  2.0869 -0.3730  1.0560
  870TIP3   OH2 2615   4.850   5.890   1.214 -0.3963  0.2626  0.1535
  870TIP3    H1 2616   4.773   5.892   1.270 -0.9136  0.1558 -0.5475
  870TIP3    H2 2617   4.840   5.966   1.157 -0.6721 -0.4999 -0.8411
  871TIP3   OH2 2618   0.796   0.946   4.112 -0.2474 -0.2698  0.2883
  871TIP3    H1 2619   0.885   0.975   4.092 -0.8135  1.8965  0.6803
  871TIP3    H2 2620   0.807   0.859   4.151  1.9005  0.8449  2.3802
  872TIP3   OH2 2621   4.815   0.986   2.914  0.2362 -0.1319  0.2631
  872TIP3    H1 2622   4.904   0.968   2.943  0.5582  0.7589 -0.1471
  872TIP3    H2 2623   4.796   0.918   2.849  1.4565  0.9658 -1.3161
  873TIP3   OH2 2624   4.376   5.409   2.585 -0.1669  0.2820 -0.7513
  873TIP3    H1 2625   4.428   5.453   2.652 -1.0455 -0.8457  0.7349
  873TIP3    H2 2626   4.327   5.479   2.541 -0.9356  0.9039  1.0229
  874TIP3   OH2 2627   5.202   4.784   0.234  0.3255  0.3165  0.2996
  874TIP3    H1 2628   5.229   4.698   0.203  0.9782  0.4537  0.4838
  874TIP3    H2 2629   5.201   4.839   0.155  0.2468  0.2296  0.2396
  875TIP3   OH2 2630   0.364   5.794   1.193 -0.2326  0.7422  0.0391
  875TIP3    H1 2631   0.392   5.713   1.150 -0.4698  0.4687  0.3968
  875TIP3    H2 2632   0.297   5.830   1.135 -0.8245  0.1779  0.3589
  876TIP3   OH2 2633   6.137   4.249   0.779 -0.2039  0.1652  0.0042
  876TIP3    H1 2634   6.105   4.339   0.769 -0.7081  0.5634  3.6502
  876TIP3    H2 2635   6.185   4.231   0.698 -1.1504  3.2243 -1.3977
  877TIP3   OH2 2636   3.994   3.785   3.891 -0.5036  0.2352 -0.1549
  877TIP3    H1 2637   3.931   3.732   3.940 -0.6063 -0.2289 -0.7706
  877TIP3    H2 2638   3.960   3.785   3.801 -0.6275  1.5404 -0.1336
  878TIP3   OH2 2639   1.625   2.784   4.607  0.2605  0.5151  0.1063
  878TIP3    H1 2640   1.571   2.722   4.559  0.0797  1.3532 -0.8157
  878TIP3    H2 2641   1.696   2.731   4.644 -1.2606 -0.6449  1.5343
  879TIP3   OH2 2642   5.829   3.797   3.729 -0.3810  0.4781  0.3468
  879TIP3    H1 2643   5.857   3.769   3.817 -0.8973  0.3620  0.4757
  879TIP3    H2 2644   5.773   3.726   3.698 -0.8258  0.8740  0.2403
  880TIP3   OH2 2645   1.925   3.125   0.291 -0.0612 -0.7049  0.1499
  880TIP3    H1 2646   1.927   3.213   0.251 -0.2615 -0.7978 -0.0673
  880TIP3    H2 2647   1.938   3.141   0.385 -1.1172 -0.3485  0.2528
  881TIP3   OH2 2648   3.708   5.224   1.403  0.2470 -0.0512  0.2058
  881TIP3    H1 2649   3.705   5.141   1.450  1.0522 -0.8979 -1.1744
  881TIP3    H2 2650   3.680   5.289   1.468  0.9047 -1.2035  1.7148
  882TIP3   OH2 2651   2.357   4.102   4.307  0.2097 -0.1114 -0.6651
  882TIP3    H1 2652   2.312   4.034   4.358  1.7258 -1.4393 -1.0237
  882TIP3    H2 2653   2.420   4.141   4.367  0.0027  0.3289 -0.7298
  883TIP3   OH2 2654   1.848   5.461   0.216 -0.0952  0.3177 -0.1662
  883TIP3    H1 2655   1.926   5.414   0.187  0.0354 -0.1855  0.9364
  883TIP3    H2 2656   1.775   5.416   0.172  0.1829  0.4296 -0.7531
  884TIP3   OH2 2657   1.723   4.013   4.205 -0.1659  0.5201 -0.2356
  884TIP3    H1 2658   1.677   3.950   4.260  1.0471 -0.0340  0.1653
  884TIP3    H2 2659   1.672   4.094   4.214  0.0189  0.4506  1.7345
  885TIP3   OH2 2660   0.741   4.419   2.158  0.4114 -0.1658 -0.1870
  885TIP3    H1 2661   0.672   4.447   2.097  0.6185  1.3786  0.2481
  885TIP3    H2 2662   0.703   4.344   2.203 -1.1867  0.9092  0.3397
  886TIP3   OH2 2663   0.737   3.585   4.281  0.0365  0.4365 -0.5556
  886TIP3    H1 2664   0.829   3.569   4.303 -0.1638  1.5712  1.3723
  886TIP3    H2 2665   0.700   3.622   4.361 -1.7241  1.4588 -1.7741
  887TIP3   OH2 2666   0.370   0.065   3.972  0.4860 -0.5778 -0.4755
  887TIP3    H1 2667   0.345   0.155   3.996  1.2955 -0.9029  1.9012
  887TIP3    H2 2668   0.289   0.025   3.941 -0.0310  0.7873 -0.9799
  888TIP3   OH2 2669   3.834   2.976   2.673  0.6062 -0.1329 -0.7452
  888TIP3    H1 2670   3.787   2.901   2.638 -2.1030  1.6367 -1.2218
  888TIP3    H2 2671   3.879   2.943   2.751  1.4759 -2.7043 -2.2280
  889TIP3   OH2 2672   6.125   1.348   2.789 -0.2664 -0.0415 -0.0103
  889TIP3    H1 2673   6.147   1.258   2.815  1.5307  0.1482 -0.7667
  889TIP3    H2 2674   6.060   1.337   2.720 -0.2000 -0.7471  0.0243
  890TIP3   OH2 2675   5.410   1.049   0.898  0.3102  0.4025 -0.4247
  890TIP3    H1 2676   5.416   1.056   0.803  2.4746 -1.2302 -0.4779
  890TIP3    H2 2677   5.487   1.096   0.931  1.6590 -2.0954  0.2596
  891TIP3   OH2 2678   0.429   0.590   4.883 -0.1223 -0.8191  0.5184
  891TIP3    H1 2679   0.412   0.643   4.805  0.0979  0.2528  1.1767
  891TIP3    H2 2680   0.351   0.535   4.892 -1.0835  0.5158  0.6993
  892TIP3   OH2 2681   5.652   0.470   3.597 -0.2233  0.7214  0.0144
  892TIP3    H1 2682   5.741   0.445   3.620 -0.6079 -1.3442 -0.5172
  892TIP3    H2 2683   5.613   0.501   3.678 -0.0574 -1.7241  1.1322
  893TIP3   OH2 2684   3.927   4.783   4.065  0.0066 -0.7829 -0.2462
  893TIP3    H1 2685   3.955   4.849   4.001 -0.0551 -1.6974 -1.2250
  893TIP3    H2 2686   3.860   4.732   4.020 -0.1768 -1.3161  0.6160
  894TIP3   OH2 2687   3.360   4.184   0.958 -0.3940 -0.2691 -0.5497
  894TIP3    H1 2688   3.275   4.200   0.998 -1.2314 -0.0005 -2.3447
  894TIP3    H2 2689   3.351   4.098   0.916  0.1373 -0.1215 -0.9765
  895TIP3   OH2 2690   4.602   3.210   0.610 -0.5767 -0.5763 -0.1800
  895TIP3    H1 2691   4.553   3.131   0.632  0.4638 -1.5795 -1.3223
  895TIP3    H2 2692   4.559   3.279   0.659 -1.6718 -1.8075  0.6604
  896TIP3   OH2 2693   2.020   1.211   3.798 -0.3331  0.0853  0.2420
  896TIP3    H1 2694   1.995   1.187   3.709  2.2309 -0.0850 -0.5025
  896TIP3    H2 2695   1.975   1.147   3.853 -0.8130 -0.7156 -1.0268
  897TIP3   OH2 2696   3.713   4.558   1.557 -0.5367 -0.2996 -0.1202
  897TIP3    H1 2697   3.803   4.588   1.570 -0.1329 -1.1640 -0.7819
  897TIP3    H2 2698   3.687   4.522   1.643  0.7002 -2.3965 -0.5393
  898TIP3   OH2 2699   1.808   5.815   4.334 -0.3381  0.3901 -0.1220
  898TIP3    H1 2700   1.814   5.838   4.241  0.3540 -3.0211 -1.0689
  898TIP3    H2 2701   1.899   5.810   4.364 -0.4824 -0.1169  0.2520
  899TIP3   OH2 2702   3.888   2.559   0.069  0.2560  0.2903  0.1733
  899TIP3    H1 2703   3.959   2.562   0.132 -1.0542 -0.4797  1.7500
  899TIP3    H2 2704   3.864   2.466   0.063 -0.1399  0.4461 -0.8792
  900TIP3   OH2 2705   3.223   0.451   2.791  0.3030  0.2094  0.1967
  900TIP3    H1 2706   3.284   0.490   2.728  0.2296  0.6388  0.3843
  900TIP3    H2 2707   3.251   0.485   2.876  0.9483 -1.0699  0.5143
  901TIP3   OH2 2708   4.722   4.099   1.386  0.0694  0.0604  0.2456
  901TIP3    H1 2709   4.665   4.172   1.412 -1.1583 -1.0012  0.5906
  901TIP3    H2 2710   4.811   4.135   1.394 -0.5368  1.9098 -0.8524
  902TIP3   OH2 2711   5.261   0.371   4.529  0.2231  0.3023  0.2313
  902TIP3    H1 2712   5.176   0.358   4.569 -0.6163  0.1807 -1.4837
  902TIP3    H2 2713   5.263   0.464   4.507 -0.4656 -0.0975 -1.7495
  903TIP3   OH2 2714   0.305   0.939   2.775 -0.0953  0.0077  0.8958
  903TIP3    H1 2715   0.288   1.011   2.714 -0.3106 -0.8804 -0.1084
  903TIP3    H2 2716   0.217   0.911   2.802 -0.0577 -0.7172  0.2815
  904TIP3   OH2 2717   5.633   1.388   2.178 -0.0222 -0.3388  1.0167
  904TIP3    H1 2718   5.623   1.380   2.273 -1.2703 -2.8621  0.7517
  904TIP3    H2 2719   5.709   1.333   2.158 -0.7150 -1.1029  0.4277
  905TIP3   OH2 2720   2.806   2.168   0.449 -0.4273 -0.2780 -0.3105
  905TIP3    H1 2721   2.856   2.086   0.452  0.6778  0.3290 -1.1866
  905TIP3    H2 2722   2.745   2.156   0.376 -0.6619 -0.5281 -0.0754
  906TIP3   OH2 2723   6.161   1.763   0.914  0.6588  0.1468  0.3827
  906TIP3    H1 2724   6.154   1.834   0.978  0.5204  0.4144  0.0773
  906TIP3    H2 2725   6.194   1.806   0.835  1.4501 -0.2915  0.4590
  907TIP3   OH2 2726   1.513   5.256   0.739 -0.0900 -0.5948 -0.0135
  907TIP3    H1 2727   1.441   5.299   0.785  0.5203  0.1729  0.2476
  907TIP3    H2 2728   1.474   5.225   0.657 -0.5465  0.4985 -0.2327
  908TIP3   OH2 2729   2.142   2.673   3.075  0.0264  0.1386  0.4225
  908TIP3    H1 2730   2.193   2.603   3.035  0.9698  0.5984  0.7811
  908TIP3    H2 2731   2.151   2.747   3.014 -0.5988  0.0770  0.2572
  909TIP3   OH2 2732   3.265   1.015   1.241  0.4617 -0.2389  0.0281
  909TIP3    H1 2733   3.175   1.036   1.215  0.8898 -0.1769 -1.5431
  909TIP3    H2 2734   3.302   0.972   1.164  2.1173  0.7675  0.2120
  910TIP3   OH2 2735   4.530   4.594   4.081  0.0669 -0.6282 -0.3386
  910TIP3    H1 2736   4.488   4.631   4.159  1.6325  1.7147 -0.5104
  910TIP3    H2 2737   4.587   4.525   4.115 -0.1965 -0.4703  0.4422
  911TIP3   OH2 2738   0.617   1.596   4.057  0.2490 -0.3211 -0.2140
  911TIP3    H1 2739   0.611   1.533   3.985 -0.6368 -1.1745  0.5721
  911TIP3    H2 2740   0.565   1.556   4.128  0.1685  1.0161  0.5102
  912TIP3   OH2 2741   2.830   0.971   2.564  0.0778 -0.3599  0.4104
  912TIP3    H1 2742   2.746   0.986   2.521  0.4284 -0.8953 -0.5001
  912TIP3    H2 2743   2.851   1.055   2.607  0.3146  0.6626 -1.5632
  913TIP3   OH2 2744   5.135   3.329   3.863  0.3921  0.1927 -0.7510
  913TIP3    H1 2745   5.229   3.324   3.846  0.8209 -0.9758  1.5682
  913TIP3    H2 2746   5.103   3.241   3.847  0.1569 -0.0114  0.7136
  914TIP3   OH2 2747   6.148   4.868   4.768  0.1771 -0.0732 -0.2522
  914TIP3    H1 2748   6.170   4.923   4.693 -3.3803  1.3650 -0.4224
  914TIP3    H2 2749   6.168   4.922   4.845 -1.9576  0.9871 -0.3889
  915TIP3   OH2 2750   5.177   0.625   4.045  0.4406 -0.0447 -0.1553
  915TIP3    H1 2751   5.267   0.656   4.055  0.6878 -0.8051 -0.0039
  915TIP3    H2 2752   5.170   0.597   3.954 -0.1412  1.5314 -0.6460
  916TIP3   OH2 2753   1.385   4.575   3.347 -0.3686 -0.3445  0.2189
  916TIP3    H1 2754   1.420   4.487   3.359  0.4701 -0.3001 -1.5984
  916TIP3    H2 2755   1.290   4.562   3.341 -0.2537 -1.1419 -0.0917
  917TIP3   OH2 2756   2.853   0.343   4.600  0.2151  0.3574  0.3605
  917TIP3    H1 2757   2.792   0.354   4.527 -0.0104  0.6965  0.5973
  917TIP3    H2 2758   2.835   0.417   4.658 -0.6045 -0.7036  1.4964
  918TIP3   OH2 2759   0.681   1.845   5.193 -0.2095 -0.3966 -0.1248
  918TIP3    H1 2760   0.700   1.765   5.242 -2.1335 -1.0626 -0.3914
  918TIP3    H2 2761   0.717   1.830   5.106  0.9887 -0.2304  0.3244
  919TIP3   OH2 2762   1.694   3.072   0.771 -0.8564 -0.3272  0.2294
  919TIP3    H1 2763   1.622   3.100   0.714 -0.8365 -2.7656 -1.1378
  919TIP3    H2 2764   1.713   2.983   0.743  1.0195 -0.6572  2.2890
  920TIP3   OH2 2765   4.560   5.205   1.966 -0.3162  0.3098  0.1197
  920TIP3    H1 2766   4.497   5.208   2.037  1.6134 -1.6245  2.0877
  920TIP3    H2 2767   4.591   5.295   1.957 -1.1668  0.7260  1.1649
  921TIP3   OH2 2768   5.246   2.915   0.784  0.2466  0.5411 -0.2825
  921TIP3    H1 2769   5.239   2.980   0.855  0.0807 -0.4150  0.6106
  921TIP3    H2 2770   5.180   2.942   0.721 -0.5180  0.6871  0.5511
  922TIP3   OH2 2771   6.197   1.217   0.739  0.1721 -0.3194 -0.4899
  922TIP3    H1 2772   6.239   1.277   0.801 -1.3193 -0.3203  0.5927
  922TIP3    H2 2773   6.261   1.148   0.725 -0.2059 -1.5324  2.8805
  923TIP3   OH2 2774   0.274   3.077   4.328 -0.4263  0.1928 -0.1424
  923TIP3    H1 2775   0.195   3.118   4.365 -0.9108  0.4490 -1.3924
  923TIP3    H2 2776   0.319   3.039   4.403 -1.6862  0.1445  0.6236
  924TIP3   OH2 2777   2.412   1.907   3.997 -0.0944  0.7981 -0.1455
  924TIP3    H1 2778   2.323   1.935   4.015 -0.8723 -0.3718 -1.8847
  924TIP3    H2 2779   2.439   1.958   3.920  0.3291  0.4071 -0.2645
  925TIP3   OH2 2780   5.411   4.450   4.896  0.1535  0.1681  0.3015
  925TIP3    H1 2781   5.328   4.477   4.936 -1.0609  0.5020 -2.2181
  925TIP3    H2 2782   5.441   4.528   4.849  0.6079 -0.6726 -0.8360
  926TIP3   OH2 2783   2.177   4.306   0.375  0.2109  0.0188 -0.0276
  926TIP3    H1 2784   2.084   4.327   0.373  0.0317 -0.6753  0.5333
  926TIP3    H2 2785   2.212   4.359   0.448  0.5849  1.4752 -1.2083
  927TIP3   OH2 2786   2.567   0.183   4.619  0.0407  0.1521 -0.4405
  927TIP3    H1 2787   2.614   0.184   4.702 -1.5597 -0.1661  0.5147
  927TIP3    H2 2788   2.477   0.205   4.642 -0.0087  2.5509 -2.4141
  928TIP3   OH2 2789   3.879   3.081   0.955  0.1448  0.0045 -0.6413
  928TIP3    H1 2790   3.823   3.086   0.877  0.9648  2.9630 -1.1589
  928TIP3    H2 2791   3.898   2.987   0.964 -1.7031 -0.6810 -2.7048
  929TIP3   OH2 2792   2.780   4.857   2.192 -0.1227 -0.2527  0.1938
  929TIP3    H1 2793   2.779   4.937   2.243 -0.5611  0.5339 -0.9978
  929TIP3    H2 2794   2.873   4.840   2.175 -0.0609  0.4740 -0.2368
  930TIP3   OH2 2795   5.024   5.232   4.072 -0.1359  0.1240  0.0332
  930TIP3    H1 2796   5.066   5.156   4.112  0.2634  0.6501  0.6373
  930TIP3    H2 2797   5.084   5.258   4.002 -1.0249 -1.0332 -1.1958
  931TIP3   OH2 2798   1.357   0.889   1.844  0.2985 -0.3813  0.1822
  931TIP3    H1 2799   1.281   0.883   1.902  0.6627 -3.2687  0.4825
  931TIP3    H2 2800   1.421   0.829   1.882  1.7841  0.0937 -1.4545
  932TIP3   OH2 2801   5.411   0.846   4.415  0.7903  0.3447  0.3480
  932TIP3    H1 2802   5.324   0.830   4.452  1.1597  0.8512  1.4817
  932TIP3    H2 2803   5.404   0.933   4.373  0.8710  0.5862  0.8325
  933TIP3   OH2 2804   2.342   1.439   0.112  0.3516 -0.3702 -0.0351
  933TIP3    H1 2805   2.432   1.406   0.114  0.4133 -0.2029  2.3387
  933TIP3    H2 2806   2.288   1.362   0.095  0.9423 -0.3227 -2.4680
  934TIP3   OH2 2807   6.069  -0.011   3.693  0.1509 -0.5766 -0.1927
  934TIP3    H1 2808   6.156  -0.041   3.717  0.3090 -0.0644 -0.1023
  934TIP3    H2 2809   6.082   0.081   3.669 -0.6072 -0.0223  1.3472
  935TIP3   OH2 2810   6.094   3.319   5.155 -0.6633 -0.3214 -0.1152
  935TIP3    H1 2811   6.125   3.408   5.137 -0.4798 -0.6016 -1.2433
  935TIP3    H2 2812   6.001   3.329   5.172 -0.3360  0.2918  1.4720
  936TIP3   OH2 2813   2.187   3.498   1.234  0.1622 -0.2138  0.4193
  936TIP3    H1 2814   2.123   3.482   1.304  0.0768  0.3299  0.4684
  936TIP3    H2 2815   2.140   3.476   1.154 -0.2104  0.5226  0.4283
  937TIP3   OH2 2816   4.882   2.633   4.215 -0.0128  0.3003 -0.3393
  937TIP3    H1 2817   4.821   2.601   4.282 -1.6383  0.3391 -1.7392
  937TIP3    H2 2818   4.890   2.561   4.153  1.3852  0.3120 -0.2038
  938TIP3   OH2 2819   3.269   5.620   0.115  0.3290 -0.3489  0.2618
  938TIP3    H1 2820   3.236   5.530   0.118  0.4199 -0.3631  1.6424
  938TIP3    H2 2821   3.203   5.668   0.066 -0.0956 -1.0253  0.1515
  939TIP3   OH2 2822   4.624   3.838   3.298  0.1977  0.0446  0.3785
  939TIP3    H1 2823   4.652   3.747   3.297  0.3737  0.0704 -2.1007
  939TIP3    H2 2824   4.704   3.888   3.284 -0.3543  0.3217 -2.3691
  940TIP3   OH2 2825   0.365   3.896   4.629 -0.4465  0.0997 -0.5372
  940TIP3    H1 2826   0.428   3.835   4.590 -0.2791  0.1908 -0.4149
  940TIP3    H2 2827   0.401   3.983   4.610 -2.8232  0.4411 -4.4976
  941TIP3   OH2 2828   0.028   3.871   3.488  0.2048 -0.7460 -0.1168
  941TIP3    H1 2829  -0.024   3.946   3.459  0.4837 -0.1633  0.8593
  941TIP3    H2 2830   0.058   3.830   3.407  1.6464  1.3167 -0.7086
  942TIP3   OH2 2831   1.438   0.572   0.248  0.1631  0.3219 -0.3937
  942TIP3    H1 2832   1.460   0.486   0.211  0.9903  0.4176 -0.1189
  942TIP3    H2 2833   1.446   0.632   0.174 -0.9718  0.0990 -0.7291
  943TIP3   OH2 2834   0.177   1.503   3.701 -0.3906  0.5677  0.0291
  943TIP3    H1 2835   0.223   1.569   3.753  0.5234  0.1738 -0.2581
  943TIP3    H2 2836   0.212   1.419   3.733 -0.8061  0.2674 -0.2971
  944TIP3   OH2 2837   2.825   5.635   4.932 -0.0452 -0.5015 -0.7227
  944TIP3    H1 2838   2.753   5.608   4.874  2.5981 -1.7868 -3.7131
  944TIP3    H2 2839   2.856   5.553   4.970 -1.5671  0.2927  2.5798
  945TIP3   OH2 2840   2.888   3.428   4.436  0.1688  0.1664  0.3801
  945TIP3    H1 2841   2.807   3.462   4.476  0.1293  1.4497 -0.7162
  945TIP3    H2 2842   2.957   3.457   4.495 -0.1327 -0.7562  1.2141
  946TIP3   OH2 2843   2.774   2.891   3.222  0.1340  0.0444 -0.5016
  946TIP3    H1 2844   2.816   2.814   3.184  0.8421  0.2648 -0.1669
  946TIP3    H2 2845   2.756   2.867   3.313 -1.5787 -0.4897 -0.9397
  947TIP3   OH2 2846   3.129   0.271   1.651 -0.1820  0.1056  0.0290
  947TIP3    H1 2847   3.169   0.296   1.567  1.7392 -0.5509  0.7015
  947TIP3    H2 2848   3.144   0.346   1.708 -0.7065  0.2054  0.0366
  948TIP3   OH2 2849   5.827   0.477   0.592  0.0654 -0.5570 -0.0749
  948TIP3    H1 2850   5.736   0.505   0.588 -0.8941 -2.8507  2.3510
  948TIP3    H2 2851   5.870   0.542   0.648 -0.2459  0.1186 -0.6090
  949TIP3   OH2 2852   1.111   1.843   4.484 -0.3010 -0.5108 -0.0633
  949TIP3    H1 2853   1.072   1.930   4.493 -0.4849 -0.5458 -0.4948
  949TIP3    H2 2854   1.101   1.822   4.391  2.0654  0.1105 -0.5290
  950TIP3   OH2 2855   1.182   0.619   4.773  0.0902  0.4843 -0.1055
  950TIP3    H1 2856   1.129   0.578   4.705  1.9278  0.9095 -1.8875
  950TIP3    H2 2857   1.231   0.546   4.812  0.0086  0.4174 -0.1272
  951TIP3   OH2 2858   3.840   0.545   2.581  0.5548 -0.2878 -0.2127
  951TIP3    H1 2859   3.831   0.509   2.669 -1.4919  1.0664  0.1998
  951TIP3    H2 2860   3.799   0.480   2.524  0.5966 -0.5189  0.0193
  952TIP3   OH2 2861   2.028   5.286   1.015 -0.0201  0.2691  0.1131
  952TIP3    H1 2862   2.079   5.242   0.947 -0.2608 -0.7854  0.6044
  952TIP3    H2 2863   1.989   5.361   0.970  2.0032  1.1761 -0.2672
  953TIP3   OH2 2864   1.809   5.895   4.065  0.4234  0.6499  0.0898
  953TIP3    H1 2865   1.870   5.963   4.037 -0.9953  1.9730  0.0713
  953TIP3    H2 2866   1.725   5.921   4.027 -0.4297 -0.3876  1.1801
  954TIP3   OH2 2867   2.118   2.068   1.479  0.5208  0.4122 -0.0048
  954TIP3    H1 2868   2.102   2.152   1.437  0.0946  0.3728  0.0659
  954TIP3    H2 2869   2.038   2.052   1.531  0.6575  0.0356  0.0945
  955TIP3   OH2 2870   5.334   3.883   1.522 -0.0625 -0.0019 -0.3946
  955TIP3    H1 2871   5.270   3.871   1.452  0.1259  0.4705 -0.6555
  955TIP3    H2 2872   5.402   3.938   1.483  0.7197 -0.8405 -0.2624
  956TIP3   OH2 2873   0.441   4.940   1.384  0.9752 -0.8119 -0.1192
  956TIP3    H1 2874   0.353   4.961   1.352  1.1395 -1.7768 -1.2673
  956TIP3    H2 2875   0.446   4.845   1.381  2.7108 -0.7394 -2.0254
  957TIP3   OH2 2876   0.651   4.914   2.507  0.2261 -0.0784 -0.3375
  957TIP3    H1 2877   0.688   4.973   2.572  0.8268  0.1560 -0.8742
  957TIP3    H2 2878   0.648   4.829   2.551 -0.8497  0.3769  0.5107
  958TIP3   OH2 2879   0.429   4.509   0.705 -0.3467  0.4958  0.3085
  958TIP3    H1 2880   0.403   4.600   0.712 -3.4356 -0.2925  0.5154
  958TIP3    H2 2881   0.350   4.463   0.676  1.1973 -2.0768 -0.1818
  959TIP3   OH2 2882   4.704   1.957   3.994  0.5039  0.0295 -0.3615
  959TIP3    H1 2883   4.676   1.919   3.911 -1.8337  0.2538  0.2741
  959TIP3    H2 2884   4.687   1.889   4.059 -0.4353  0.8918  0.3153
  960TIP3   OH2 2885   5.529   0.435   2.719  0.0024  0.1059  0.3307
  960TIP3    H1 2886   5.557   0.510   2.667 -1.9856 -0.0770 -1.1597
  960TIP3    H2 2887   5.444   0.411   2.681 -0.3125 -1.6932  2.0238
  961TIP3   OH2 2888   4.433   5.815   0.184  0.3337 -0.4051 -0.4308
  961TIP3    H1 2889   4.505   5.841   0.127 -1.4124 -0.2727 -2.7661
  961TIP3    H2 2890   4.378   5.893   0.190 -1.0736 -1.2900 -1.1619
  962TIP3   OH2 2891   3.529   5.872   4.331  0.0142 -1.3418 -0.7687
  962TIP3    H1 2892   3.485   5.886   4.414  0.1928 -0.3704 -0.8292
  962TIP3    H2 2893   3.458   5.849   4.270 -0.2184 -1.2147 -0.5456
  963TIP3   OH2 2894   1.949   4.130   0.302  0.0950 -0.2374 -0.0970
  963TIP3    H1 2895   1.907   4.044   0.309 -0.0737 -0.0767  1.3143
  963TIP3    H2 2896   1.876   4.191   0.291  0.1817 -0.2251 -0.6293
  964TIP3   OH2 2897   1.319   1.053   1.249 -0.0555  0.4646 -0.5854
  964TIP3    H1 2898   1.233   1.090   1.231  0.1947  1.8267  0.8375
  964TIP3    H2 2899   1.354   1.106   1.320  2.1784  0.2671 -1.4501
  965TIP3   OH2 2900   5.984   4.227   1.168 -0.3679  0.0423 -0.5669
  965TIP3    H1 2901   5.993   4.315   1.206 -0.3175  0.2309 -1.0004
  965TIP3    H2 2902   5.995   4.241   1.074  0.6753 -0.5795 -0.5492
  966TIP3   OH2 2903   1.129   4.402   0.598  0.5738 -0.3315  0.3872
  966TIP3    H1 2904   1.211   4.358   0.617 -0.3977 -2.9831 -1.0643
  966TIP3    H2 2905   1.077   4.392   0.678  1.1750  0.2128  0.8540
  967TIP3   OH2 2906   2.944   2.941   3.722 -0.2792  0.1724 -0.2425
  967TIP3    H1 2907   2.926   2.861   3.673  0.5798  0.0591 -0.3870
  967TIP3    H2 2908   2.999   2.993   3.664 -0.5643  0.7393 -0.0231
  968TIP3   OH2 2909   5.063   5.485   2.071  0.2695  0.2585  0.0575
  968TIP3    H1 2910   5.107   5.414   2.118 -0.0036  0.2232  0.2624
  968TIP3    H2 2911   5.089   5.564   2.118  1.4703  0.4234 -0.8333
  969TIP3   OH2 2912   1.585   4.387   1.998 -0.0441  0.0568 -0.0517
  969TIP3    H1 2913   1.613   4.471   1.961  2.3392  0.3574  2.1173
  969TIP3    H2 2914   1.667   4.340   2.014 -1.1943 -1.7284  0.8827
  970TIP3   OH2 2915   0.662   1.581   1.868 -0.0214 -0.4751  0.1161
  970TIP3    H1 2916   0.746   1.561   1.910 -0.2646 -0.2865  0.7086
  970TIP3    H2 2917   0.669   1.672   1.841  0.6674 -0.9894 -1.5702
  971TIP3   OH2 2918   0.252   4.615   0.472 -0.3690  0.2713  0.3108
  971TIP3    H1 2919   0.223   4.678   0.407 -0.8478 -0.7659 -0.5092
  971TIP3    H2 2920   0.331   4.653   0.510 -1.3560  1.9562  0.7704
  972TIP3   OH2 2921   3.552   1.066   4.363  0.1232  0.1863  0.3961
  972TIP3    H1 2922   3.641   1.043   4.336  0.3882  2.2426 -0.7030
  972TIP3    H2 2923   3.506   0.983   4.369  1.4273 -0.7381 -1.5864
  973TIP3   OH2 2924   5.966   1.630   1.604  0.2182 -0.1693  0.1582
  973TIP3    H1 2925   5.875   1.656   1.620  0.2491  0.4940 -0.6651
  973TIP3    H2 2926   5.982   1.657   1.514  1.0861 -0.7248  0.1399
  974TIP3   OH2 2927   4.814   5.420   4.045 -0.5781 -0.1936  0.1644
  974TIP3    H1 2928   4.794   5.371   3.965  0.2993  0.2026 -0.3112
  974TIP3    H2 2929   4.894   5.380   4.078 -1.8251 -1.4883  1.8118
  975TIP3   OH2 2930   3.211   3.882   1.105 -0.5925 -0.0115  0.3387
  975TIP3    H1 2931   3.171   3.969   1.104 -0.0080  0.2951  1.5423
  975TIP3    H2 2932   3.140   3.823   1.081 -1.1589  0.7327  0.1317
  976TIP3   OH2 2933   4.366   0.992   0.434  0.3767 -0.5318  0.6429
  976TIP3    H1 2934   4.337   0.902   0.416  1.6721 -1.4328  2.6878
  976TIP3    H2 2935   4.430   0.983   0.504  1.2043  1.9368  0.3024
  977TIP3   OH2 2936   3.455   4.852   2.695 -0.6569  0.0671  0.1067
  977TIP3    H1 2937   3.430   4.918   2.630 -0.5308 -0.1286 -0.1451
  977TIP3    H2 2938   3.533   4.887   2.737  0.3779 -0.6446 -1.1580
  978TIP3   OH2 2939   5.924   0.267   0.822  0.4758  0.6198 -0.3708
  978TIP3    H1 2940   5.830   0.285   0.812  0.8337  3.5675  0.4428
  978TIP3    H2 2941   5.967   0.336   0.771  2.1968  0.4822  0.8092
  979TIP3   OH2 2942   0.755   1.217   4.298  0.4673  0.8421  0.0637
  979TIP3    H1 2943   0.818   1.146   4.310 -1.6453 -0.8633  2.2346
  979TIP3    H2 2944   0.676   1.174   4.263  0.2765  2.8251 -2.2339
  980TIP3   OH2 2945   2.397   3.085   1.426  0.0620  0.4023  0.6359
  980TIP3    H1 2946   2.346   3.044   1.356 -2.2752  1.8702  1.3661
  980TIP3    H2 2947   2.402   3.018   1.494 -0.8019  0.1581  0.4812
  981TIP3   OH2 2948   5.078   0.511   4.754 -0.7602  0.1686  0.3237
  981TIP3    H1 2949   5.155   0.519   4.811 -0.7580 -0.2394  0.3829
  981TIP3    H2 2950   5.035   0.596   4.760  0.3659  0.8444 -0.6968
  982TIP3   OH2 2951   0.962   5.413   3.883  0.5393  0.2040  0.1096
  982TIP3    H1 2952   0.881   5.435   3.930 -0.5934 -1.1724 -1.1129
  982TIP3    H2 2953   0.944   5.329   3.841  2.6993 -0.2520 -0.0386
  983TIP3   OH2 2954   4.980   5.455   0.364  0.3463  0.5569  0.3308
  983TIP3    H1 2955   4.969   5.374   0.314  1.1141  1.0517 -0.6805
  983TIP3    H2 2956   4.963   5.429   0.454  4.2823 -1.6890  0.6792
  984TIP3   OH2 2957   4.284   1.483   0.849  0.4816 -0.4664  0.2386
  984TIP3    H1 2958   4.322   1.508   0.933  1.5377 -1.6283  0.1344
  984TIP3    H2 2959   4.349   1.509   0.784  0.5742 -1.3570 -0.0430
  985TIP3   OH2 2960   0.568   5.358   4.489  0.1871  0.3579 -0.1536
  985TIP3    H1 2961   0.642   5.418   4.479 -0.0907  0.5340 -1.2708
  985TIP3    H2 2962   0.594   5.280   4.441  0.3190 -0.2190  0.8379
  986TIP3   OH2 2963   1.937   4.086   1.568 -0.1058  0.1103 -0.1488
  986TIP3    H1 2964   2.000   4.158   1.558  0.2841 -0.1959  0.0498
  986TIP3    H2 2965   1.937   4.043   1.483 -0.2571  0.2808 -0.2349
  987TIP3   OH2 2966   4.258   1.313   3.269 -0.8410  0.4986 -0.2932
  987TIP3    H1 2967   4.252   1.289   3.361  1.3227  0.4795 -0.1205
  987TIP3    H2 2968   4.331   1.374   3.264 -0.8282  0.3958 -2.0209
  988TIP3   OH2 2969   6.010   0.872   1.241  0.0476  0.1924 -0.1583
  988TIP3    H1 2970   6.091   0.823   1.226  0.1787  0.6857 -1.1739
  988TIP3    H2 2971   6.040   0.957   1.274 -0.0635  0.3177 -0.3787
  989TIP3   OH2 2972   3.169   5.306   1.825 -0.1526  0.5292  0.2067
  989TIP3    H1 2973   3.173   5.399   1.849  0.0150  0.5082  0.2606
  989TIP3    H2 2974   3.257   5.286   1.794 -0.2430  0.4376  0.0068
  990TIP3   OH2 2975   4.007   5.351   4.370  0.3599  0.1314  0.1792
  990TIP3    H1 2976   4.029   5.434   4.326  2.5486 -0.2461  0.4617
  990TIP3    H2 2977   4.066   5.347   4.445 -2.3869  0.1255  2.5305
  991TIP3   OH2 2978   4.479   3.888   4.951  0.4043  0.3651  0.7690
  991TIP3    H1 2979   4.564   3.901   4.909  1.9651  0.7387  3.7590
  991TIP3    H2 2980   4.469   3.793   4.957  0.7737  0.3191  0.6873
  992TIP3   OH2 2981   0.638   5.770   4.750  0.2566 -0.4803 -0.1407
  992TIP3    H1 2982   0.633   5.864   4.768 -2.2640 -0.9036  1.8639
  992TIP3    H2 2983   0.678   5.733   4.829 -0.6914 -1.2832 -0.0208
  993TIP3   OH2 2984   1.817   1.491   3.071  0.0064 -0.0936 -0.5891
  993TIP3    H1 2985   1.737   1.496   3.124  0.0720 -2.1382 -0.2148
  993TIP3    H2 2986   1.809   1.408   3.024  0.5723  1.0473 -2.8233
  994TIP3   OH2 2987   1.570   2.801   1.089 -0.6349 -0.0241 -0.2351
  994TIP3    H1 2988   1.641   2.785   1.151 -0.7103 -0.5129 -0.2711
  994TIP3    H2 2989   1.572   2.895   1.075 -0.8027  0.1431  0.7380
  995TIP3   OH2 2990   5.368   2.164   0.124  0.3242 -0.0131  0.9215
  995TIP3    H1 2991   5.396   2.194   0.211  0.3592  3.6740 -0.2075
  995TIP3    H2 2992   5.305   2.230   0.095  2.0278  0.2056 -2.7762
  996TIP3   OH2 2993   4.813   0.013   3.035  0.4306  0.0255 -0.8220
  996TIP3    H1 2994   4.831   0.084   3.096  1.6127 -0.4517 -0.5813
  996TIP3    H2 2995   4.727  -0.020   3.061  0.4021  0.5891 -0.1688
  997TIP3   OH2 2996   0.583   4.683   1.315 -1.0698 -0.3699  0.0342
  997TIP3    H1 2997   0.674   4.685   1.286 -0.9996 -0.0423  0.2718
  997TIP3    H2 2998   0.585   4.637   1.399 -1.0281  0.2424  0.3696
  998TIP3   OH2 2999   1.990   5.413   1.796 -0.7241  0.2309 -0.0812
  998TIP3    H1 3000   1.987   5.468   1.874  0.5067 -0.3798  0.4142
  998TIP3    H2 3001   1.927   5.453   1.736 -1.5609  0.8125  1.1497
  999TIP3   OH2 3002   0.601   3.976   4.051 -0.0997  0.1996 -0.5818
  999TIP3    H1 3003   0.602   4.027   4.131 -1.4377  0.3700 -0.6587
  999TIP3    H2 3004   0.649   3.896   4.073 -1.3939 -0.2434  0.7339
 1000TIP3   OH2 3005   0.070   3.220   4.453 -0.1003 -0.8010  0.3980
 1000TIP3    H1 3006   0.017   3.180   4.522 -1.5553 -1.0759 -0.8140
 1000TIP3    H2 3007   0.052   3.313   4.459 -1.4070 -0.9659 -0.5013
 1001TIP3   OH2 3008   1.549   4.924   4.801  0.0128  0.0627 -0.0128
 1001TIP3    H1 3009   1.562   4.838   4.841 -1.4694 -0.5124 -0.7052
 1001TIP3    H2 3010   1.462   4.951   4.829 -0.5786  0.1814 -1.8262
 1002TIP3   OH2 3011   5.868   0.932   5.064 -0.2060  0.5763  0.0653
 1002TIP3    H1 3012   5.832   0.990   4.997 -0.3767  0.3973  0.0013
 1002TIP3    H2 3013   5.946   0.894   5.024  1.5575  2.8936  1.0809
 1003TIP3   OH2 3014   3.688   3.174   1.956  0.3972 -0.0890  0.2498
 1003TIP3    H1 3015   3.654   3.135   2.037 -0.0102  2.1925  1.2940
 1003TIP3    H2 3016   3.613   3.178   1.898 -0.6358  2.5023  1.5748
 1004TIP3   OH2 3017   2.862   5.690   3.560 -0.2043 -0.1947  0.6960
 1004TIP3    H1 3018   2.902   5.668   3.475  0.3126  0.4986  0.7481
 1004TIP3    H2 3019   2.770   5.704   3.540 -0.0908 -0.0615  0.2492
 1005TIP3   OH2 3020   4.601   0.273   3.103  0.1964 -0.2140  0.2368
 1005TIP3    H1 3021   4.655   0.194   3.102  0.0471 -0.3339 -1.2037
 1005TIP3    H2 3022   4.654   0.338   3.057 -0.7877 -0.3088 -1.1197
 1006TIP3   OH2 3023   4.015   2.233   2.743  0.8293 -0.4082  0.0533
 1006TIP3    H1 3024   4.026   2.253   2.836 -0.3766 -1.7884  0.5196
 1006TIP3    H2 3025   4.102   2.249   2.705  0.9078  1.9894  1.0113
 1007TIP3   OH2 3026   0.326   1.910   0.247 -0.5208 -0.0263 -0.1972
 1007TIP3    H1 3027   0.257   1.963   0.208 -0.2711 -0.6783 -1.5750
 1007TIP3    H2 3028   0.386   1.891   0.175  0.0785 -1.0828  0.5495
 1008TIP3   OH2 3029   2.539   2.211   4.428 -0.2171  0.0473  0.0369
 1008TIP3    H1 3030   2.567   2.164   4.507 -0.4253  0.5244  0.4008
 1008TIP3    H2 3031   2.517   2.299   4.459  0.8342  0.6074 -0.7490
 1009TIP3   OH2 3032   2.601   1.453   4.793  0.0978  0.0156 -0.1650
 1009TIP3    H1 3033   2.592   1.362   4.823 -2.3505 -0.0322 -0.8730
 1009TIP3    H2 3034   2.689   1.456   4.756  1.4738 -1.1765  2.6600
 1010TIP3   OH2 3035   0.375   4.952   1.092 -0.0418  0.3642  0.0322
 1010TIP3    H1 3036   0.417   4.906   1.020 -0.8388 -0.7095  0.2151
 1010TIP3    H2 3037   0.353   4.883   1.155 -0.3913  1.1261  0.7763
 1011TIP3   OH2 3038   0.817   5.438   2.436  0.2460 -0.2105  0.0473
 1011TIP3    H1 3039   0.869   5.509   2.398 -1.9556  0.8610 -1.1314
 1011TIP3    H2 3040   0.759   5.481   2.499 -0.7954 -1.0096 -0.3298
 1012TIP3   OH2 3041   5.633   4.693   1.208  0.2449  0.5418  0.3817
 1012TIP3    H1 3042   5.624   4.747   1.286 -2.0722  0.5371  0.1774
 1012TIP3    H2 3043   5.666   4.609   1.240 -3.7447 -0.6441  2.0350
 1013TIP3   OH2 3044   3.196   4.374   4.557  0.3792  0.3868  0.0597
 1013TIP3    H1 3045   3.243   4.291   4.550  1.0145  0.8113 -0.9036
 1013TIP3    H2 3046   3.235   4.430   4.491 -0.1440  1.4185  0.5875
 1014TIP3   OH2 3047   6.247   5.442   1.357 -0.0539  0.0431  0.0447
 1014TIP3    H1 3048   6.246   5.361   1.307 -0.3128 -0.4641  0.8491
 1014TIP3    H2 3049   6.186   5.427   1.429  0.6215  0.5842  0.7559
 1015TIP3   OH2 3050   1.460   3.857   4.195 -0.2461  0.6822 -0.2930
 1015TIP3    H1 3051   1.412   3.938   4.181 -0.3800  0.7147  0.3302
 1015TIP3    H2 3052   1.472   3.821   4.107 -0.2208  1.3537 -0.5719
 1016TIP3   OH2 3053   1.198   0.135   4.736 -0.4609  0.4910 -0.2279
 1016TIP3    H1 3054   1.163   0.050   4.761 -1.5314  1.0463  0.2150
 1016TIP3    H2 3055   1.271   0.115   4.678  0.0296 -0.7473  0.7775
 1017TIP3   OH2 3056   0.759   2.537   0.164  0.0510 -0.2807  0.1047
 1017TIP3    H1 3057   0.687   2.509   0.107  0.7555 -2.9758  0.4212
 1017TIP3    H2 3058   0.752   2.633   0.165 -1.7511 -0.2906 -2.1551
 1018TIP3   OH2 3059   1.966   0.961   0.248 -0.2113 -0.2897 -0.3172
 1018TIP3    H1 3060   1.997   1.011   0.324  0.5283 -1.1681 -0.0106
 1018TIP3    H2 3061   1.888   0.915   0.279  0.9174 -1.8284  0.4356
 1019TIP3   OH2 3062   3.052   0.818   2.968  0.7094 -0.4764  0.0624
 1019TIP3    H1 3063   3.077   0.875   3.041  1.2822 -0.8282  0.1503
 1019TIP3    H2 3064   3.133   0.807   2.918  0.6085 -1.2162  0.0476
 1020TIP3   OH2 3065   0.800   2.850   2.998  0.0264 -0.4321 -0.1842
 1020TIP3    H1 3066   0.710   2.824   2.976  0.0667 -0.4519 -0.3278
 1020TIP3    H2 3067   0.801   2.945   2.983 -0.7373  0.0547  2.4286
 1021TIP3   OH2 3068   4.431   3.810   0.324 -0.1900  0.3925 -0.4197
 1021TIP3    H1 3069   4.446   3.800   0.230  0.7605  1.3521 -0.3965
 1021TIP3    H2 3070   4.430   3.905   0.338 -1.7097  0.2834  0.3441
 1022TIP3   OH2 3071   5.103   0.596   1.891 -0.2624  0.5956  0.5461
 1022TIP3    H1 3072   5.184   0.625   1.850 -0.4448 -1.9562 -1.8386
 1022TIP3    H2 3073   5.034   0.648   1.848 -0.1490  0.5981  0.3690
 1023TIP3   OH2 3074   5.192   5.663   2.240  0.0243 -0.0229 -0.2205
 1023TIP3    H1 3075   5.274   5.643   2.285  0.9562 -1.3090 -2.3331
 1023TIP3    H2 3076   5.201   5.755   2.214 -0.2065  0.5040  1.4641
 1024TIP3   OH2 3077   0.067   2.345   1.450 -0.2310  0.2934  0.3869
 1024TIP3    H1 3078   0.130   2.365   1.381  1.1802 -2.7024  0.6941
 1024TIP3    H2 3079   0.114   2.360   1.532 -0.5564 -0.0872  0.6498
 1025TIP3   OH2 3080   0.278   0.671   2.363  0.3342  0.0668  0.5919
 1025TIP3    H1 3081   0.362   0.684   2.319  0.3953 -0.7066  0.4755
 1025TIP3    H2 3082   0.240   0.759   2.368  0.5992  0.2544 -0.4494
 1026TIP3   OH2 3083   1.346   5.226   1.307 -0.0419  0.0561 -0.4968
 1026TIP3    H1 3084   1.436   5.195   1.318  1.0776  3.3057  0.4488
 1026TIP3    H2 3085   1.313   5.235   1.396 -1.6352 -1.7051 -0.8326
 1027TIP3   OH2 3086   4.811   5.832   0.591  0.0420 -0.9220 -0.0899
 1027TIP3    H1 3087   4.869   5.779   0.536 -0.1621 -1.8085  0.5345
 1027TIP3    H2 3088   4.745   5.865   0.531 -0.5342 -2.3782 -0.2920
 1028TIP3   OH2 3089   5.959   1.199   1.156 -0.5905  0.2546 -0.2744
 1028TIP3    H1 3090   5.925   1.157   1.235  1.3063  0.5649  0.7699
 1028TIP3    H2 3091   5.931   1.290   1.162  0.1963  0.4649  0.4853
 1029TIP3   OH2 3092   0.583   0.398   1.991 -0.3288 -0.1905 -0.7068
 1029TIP3    H1 3093   0.613   0.310   1.969 -1.3392 -0.5822 -0.5304
 1029TIP3    H2 3094   0.562   0.438   1.906  1.4878  0.4125 -0.9268
 1030TIP3   OH2 3095   0.141   3.252   1.142 -0.3223  0.6034 -0.1662
 1030TIP3    H1 3096   0.051   3.278   1.127 -0.1827  0.8027 -0.6516
 1030TIP3    H2 3097   0.175   3.316   1.205 -0.9627 -0.3495  1.1964
 1031TIP3   OH2 3098   6.233   2.613   1.524  0.4076 -0.5162 -0.8164
 1031TIP3    H1 3099   6.210   2.681   1.587  1.3874  0.2617 -1.2709
 1031TIP3    H2 3100   6.239   2.660   1.440  0.4089 -1.2999 -1.2643
 1032TIP3   OH2 3101   4.093   0.681   2.776  0.3800  0.1651  0.3216
 1032TIP3    H1 3102   4.123   0.697   2.866 -0.6321  3.0847  0.2235
 1032TIP3    H2 3103   4.013   0.629   2.787 -0.0783  1.0121  1.1863
 1033TIP3   OH2 3104   2.452   1.407   1.216  0.0605  0.4808  0.2020
 1033TIP3    H1 3105   2.477   1.373   1.302 -2.5888  2.1190  1.7595
 1033TIP3    H2 3106   2.506   1.485   1.204  1.5601 -0.6061 -0.4193
 1034TIP3   OH2 3107   4.606   3.658   2.973 -0.1315 -0.2581  0.2163
 1034TIP3    H1 3108   4.562   3.649   3.057 -1.6448  2.3196 -0.1700
 1034TIP3    H2 3109   4.538   3.637   2.908  0.6698 -1.0347 -0.3909
 1035TIP3   OH2 3110   5.743   4.055   3.328  0.4389 -0.8051 -0.3419
 1035TIP3    H1 3111   5.730   4.107   3.407  0.2236 -1.0134 -0.2393
 1035TIP3    H2 3112   5.723   3.965   3.355 -0.3279 -0.7792 -0.8061
 1036TIP3   OH2 3113   3.308   2.886   0.730  0.3478 -0.1692  0.4687
 1036TIP3    H1 3114   3.375   2.862   0.665  0.3249 -1.1999  0.8053
 1036TIP3    H2 3115   3.227   2.893   0.680  0.0593 -2.2783  0.5280
 1037TIP3   OH2 3116   4.590   2.923   4.646  0.3462  0.3579 -0.0632
 1037TIP3    H1 3117   4.572   2.829   4.640  2.2652  0.0330 -1.4044
 1037TIP3    H2 3118   4.685   2.929   4.651  0.4726  2.2974 -2.7456
 1038TIP3   OH2 3119   0.135   5.492   4.106  0.8265  0.7021 -0.1453
 1038TIP3    H1 3120   0.136   5.470   4.199 -1.8147 -0.1155 -0.2361
 1038TIP3    H2 3121   0.068   5.560   4.097 -1.9947 -2.0025 -1.8457
 1039TIP3   OH2 3122   4.954   2.497   2.638  0.1958 -0.2756 -0.0286
 1039TIP3    H1 3123   5.033   2.551   2.633  0.5312 -0.7452  0.1507
 1039TIP3    H2 3124   4.945   2.476   2.731  1.6916 -2.9038 -0.3965
 1040TIP3   OH2 3125   1.642   0.629   2.411 -0.5985 -0.1981 -0.3237
 1040TIP3    H1 3126   1.667   0.590   2.495  1.3965  0.0861 -0.7174
 1040TIP3    H2 3127   1.566   0.579   2.382 -0.7398 -0.9120  1.2039
 1041TIP3   OH2 3128   0.646   5.900   3.167  0.5452  0.2566  0.0416
 1041TIP3    H1 3129   0.679   5.811   3.185  1.1512  0.4672 -0.0019
 1041TIP3    H2 3130   0.571   5.910   3.225 -0.3475 -0.7678 -0.8778
 1042TIP3   OH2 3131   0.179   2.369   1.208  0.1461  0.0313  0.3059
 1042TIP3    H1 3132   0.258   2.414   1.181 -0.4413 -0.3191 -2.2212
 1042TIP3    H2 3133   0.109   2.434   1.199 -0.1571 -0.2682  0.4485
 1043TIP3   OH2 3134   5.509   3.349   2.396 -0.1397 -0.2024 -0.1101
 1043TIP3    H1 3135   5.592   3.302   2.407 -0.3324 -0.6229 -0.4347
 1043TIP3    H2 3136   5.521   3.400   2.316 -0.8765 -1.7761 -1.2877
 1044TIP3   OH2 3137   5.152   5.003   4.207  0.5208  0.4684 -0.4991
 1044TIP3    H1 3138   5.100   4.923   4.203 -0.2223  0.9041  0.0302
 1044TIP3    H2 3139   5.191   5.001   4.295 -0.3570  1.1782 -0.0700
 1045TIP3   OH2 3140   2.380   4.489   0.226 -0.4086 -0.1626  0.2610
 1045TIP3    H1 3141   2.370   4.398   0.255  2.1894 -0.6928 -0.2524
 1045TIP3    H2 3142   2.325   4.540   0.286 -0.8517 -1.9201  1.4306
 1046TIP3   OH2 3143   5.099   3.895   0.032  0.1267 -0.4334 -0.0626
 1046TIP3    H1 3144   5.023   3.838   0.039  1.1385 -1.5980  2.8438
 1046TIP3    H2 3145   5.170   3.847   0.075  1.2846  2.5831  1.7117
 1047TIP3   OH2 3146   2.190   3.379   0.372  0.2286  0.5267 -0.6784
 1047TIP3    H1 3147   2.137   3.430   0.433  0.0869 -1.0078  0.5366
 1047TIP3    H2 3148   2.131   3.360   0.299 -1.4833 -2.3822  1.3032
 1048TIP3   OH2 3149   1.763   1.090   2.700  0.3629 -0.1298  0.2165
 1048TIP3    H1 3150   1.779   1.070   2.608 -1.6642 -1.1284  0.0419
 1048TIP3    H2 3151   1.734   1.007   2.738 -1.8487  0.9337  1.0135
 1049TIP3   OH2 3152   0.016   4.231   3.328  0.2067 -0.5328  0.3826
 1049TIP3    H1 3153  -0.055   4.205   3.386 -0.6847  1.4459  0.2565
 1049TIP3    H2 3154   0.068   4.151   3.316 -2.2117 -2.1717  0.1391
 1050TIP3   OH2 3155   3.486   1.998   2.859  0.4157 -0.3024  0.2350
 1050TIP3    H1 3156   3.453   1.925   2.910 -3.9515  0.0584 -1.6356
 1050TIP3    H2 3157   3.444   2.075   2.896  1.0676  0.5956 -0.8120
 1051TIP3   OH2 3158   2.718   4.707   2.917 -0.7726 -0.2212  0.0231
 1051TIP3    H1 3159   2.790   4.733   2.975 -0.1970  0.6678 -1.0551
 1051TIP3    H2 3160   2.694   4.787   2.871  1.3504 -1.4957 -3.7442
 1052TIP3   OH2 3161   0.366   4.837   2.420  0.1743 -0.2563 -0.2309
 1052TIP3    H1 3162   0.397   4.883   2.342 -0.8946 -0.0600 -0.5661
 1052TIP3    H2 3163   0.444   4.823   2.473  0.8819 -0.1550 -1.2162
 1053TIP3   OH2 3164   3.561   3.814   3.885 -0.0223  0.0278 -0.3435
 1053TIP3    H1 3165   3.472   3.849   3.895  0.4399  1.2874 -0.4541
 1053TIP3    H2 3166   3.550   3.737   3.829 -1.1747 -0.5083  0.5638
 1054TIP3   OH2 3167   4.487   4.505   1.648  0.3412 -0.4586  0.6921
 1054TIP3    H1 3168   4.548   4.559   1.697  0.5715 -1.2487  1.3097
 1054TIP3    H2 3169   4.409   4.559   1.638  0.7213  0.1361  0.9082
 1055TIP3   OH2 3170   1.744   1.099   1.268  0.7275  0.0109  0.3590
 1055TIP3    H1 3171   1.769   1.009   1.244 -0.7701 -0.4414  0.4183
 1055TIP3    H2 3172   1.755   1.102   1.363  1.3888  0.0941  0.2828
 1056TIP3   OH2 3173   3.515   5.778   2.151 -0.4897  0.2814 -0.7825
 1056TIP3    H1 3174   3.512   5.842   2.222  0.5414  0.1261 -0.5866
 1056TIP3    H2 3175   3.549   5.827   2.076 -0.7865  0.2343 -0.9522
 1057TIP3   OH2 3176   5.381   5.584   1.544 -0.2644  0.0379  0.2131
 1057TIP3    H1 3177   5.422   5.532   1.612 -0.5859  2.1348  2.1165
 1057TIP3    H2 3178   5.289   5.559   1.546 -0.2388 -0.0365  0.4307
 1058TIP3   OH2 3179   2.107   3.750   1.825 -0.3371  0.5890  0.3642
 1058TIP3    H1 3180   2.047   3.796   1.884 -0.5138 -0.9801  1.4864
 1058TIP3    H2 3181   2.062   3.668   1.805  0.0501  0.7694 -1.4275
 1059TIP3   OH2 3182   3.211   5.641   2.304  0.1123 -0.2699  0.2948
 1059TIP3    H1 3183   3.147   5.575   2.331  0.5891 -1.1727 -0.7576
 1059TIP3    H2 3184   3.294   5.595   2.301  0.4735  0.4028 -0.3259
 1060TIP3   OH2 3185   1.060   1.231   4.333  0.0559 -0.2700 -0.0682
 1060TIP3    H1 3186   1.039   1.210   4.424  0.5623 -0.1227  0.0819
 1060TIP3    H2 3187   1.147   1.194   4.319  0.8843  1.5255  0.1338
 1061TIP3   OH2 3188   2.539   1.731   4.767  0.2108  0.6300  0.0131
 1061TIP3    H1 3189   2.557   1.638   4.751  0.0022  0.7393 -0.9008
 1061TIP3    H2 3190   2.600   1.777   4.709  0.2553  1.0634  0.4031
 1062TIP3   OH2 3191   3.732   0.903   0.665  0.5441 -0.1376  0.2687
 1062TIP3    H1 3192   3.773   0.828   0.709  1.6180  0.6593  0.6674
 1062TIP3    H2 3193   3.764   0.898   0.575 -0.0850 -0.6385  0.0604
 1063TIP3   OH2 3194   0.041   4.969   3.017 -0.6753  0.6670  0.7090
 1063TIP3    H1 3195  -0.028   5.032   2.998  0.9265  2.2671 -0.0756
 1063TIP3    H2 3196   0.077   4.945   2.932 -2.5783 -3.0375  0.7545
 1064TIP3   OH2 3197   0.860   2.766   4.501 -0.0778 -0.2145 -0.3162
 1064TIP3    H1 3198   0.857   2.852   4.459  1.9012  0.0537 -0.0003
 1064TIP3    H2 3199   0.810   2.778   4.582 -0.5295  0.3910 -0.6707
 1065TIP3   OH2 3200   5.195   0.775   2.289 -0.2478 -0.4270  0.3011
 1065TIP3    H1 3201   5.197   0.870   2.301  0.0882 -0.1905 -1.3681
 1065TIP3    H2 3202   5.267   0.757   2.229  0.1261 -1.8431  1.1371
 1066TIP3   OH2 3203   5.573   0.659   4.295 -0.5314  0.1569 -0.4345
 1066TIP3    H1 3204   5.534   0.576   4.324 -0.3773  0.2848  0.1487
 1066TIP3    H2 3205   5.523   0.726   4.341 -0.8546  0.4017 -1.1438
 1067TIP3   OH2 3206   0.787   3.836   0.369 -0.1489  0.4574  0.0514
 1067TIP3    H1 3207   0.749   3.922   0.384 -1.4574 -0.2795  1.1196
 1067TIP3    H2 3208   0.881   3.852   0.362 -0.4546  2.0715 -0.7238
 1068TIP3   OH2 3209   2.169   3.269   5.086 -0.4783 -0.1299  0.5139
 1068TIP3    H1 3210   2.136   3.351   5.050 -0.9887 -1.2481 -1.7879
 1068TIP3    H2 3211   2.238   3.243   5.025  1.3011 -0.3175  2.4925
 1069TIP3   OH2 3212   3.409   4.121   2.379  0.5240  0.2941 -0.4771
 1069TIP3    H1 3213   3.348   4.070   2.432  0.6131 -0.8009 -1.3887
 1069TIP3    H2 3214   3.477   4.150   2.441 -0.3978  0.7204  0.3623
 1070TIP3   OH2 3215   1.627   5.171   4.348 -0.2961 -0.0570  0.4690
 1070TIP3    H1 3216   1.719   5.171   4.325 -0.8928  0.3658 -2.1920
 1070TIP3    H2 3217   1.583   5.132   4.272 -2.2639 -0.8876  1.9408
 1071TIP3   OH2 3218   0.203   4.957   2.809  0.2158  0.0663  0.3671
 1071TIP3    H1 3219   0.286   5.003   2.818  0.6084 -0.2806 -1.2613
 1071TIP3    H2 3220   0.177   4.971   2.718 -2.7693  2.2151  1.3957
 1072TIP3   OH2 3221   3.833   1.300   1.426  0.0808  0.0848  0.0679
 1072TIP3    H1 3222   3.747   1.310   1.385  0.8053 -1.7994 -2.0868
 1072TIP3    H2 3223   3.894   1.343   1.366  0.8689 -0.2142  0.6294
 1073TIP3   OH2 3224   4.020   3.933   2.014 -0.4045  0.1829 -0.0349
 1073TIP3    H1 3225   3.961   3.956   2.086  0.2482 -0.4898  0.7420
 1073TIP3    H2 3226   4.001   3.997   1.945 -1.3116  0.6040  0.5929
 1074TIP3   OH2 3227   6.242   5.608   2.855  0.6607 -0.0887  0.4022
 1074TIP3    H1 3228   6.264   5.661   2.931  0.8064  2.3735 -1.2411
 1074TIP3    H2 3229   6.147   5.616   2.847  0.3860 -1.9155  1.3555
 1075TIP3   OH2 3230   0.035   1.322   3.854  0.6952 -0.4881  0.3683
 1075TIP3    H1 3231   0.010   1.410   3.883 -0.3127 -0.9460  0.9572
 1075TIP3    H2 3232   0.069   1.280   3.933 -0.8543 -1.3178  0.6476
 1076TIP3   OH2 3233   0.926   3.528   4.634 -0.1895 -0.1803 -0.0659
 1076TIP3    H1 3234   0.977   3.448   4.649 -0.3495 -0.0190  1.3927
 1076TIP3    H2 3235   0.987   3.585   4.587 -0.2287 -1.3015 -1.5910
 1077TIP3   OH2 3236   4.717   3.166   3.788 -0.2363 -0.4913  0.5675
 1077TIP3    H1 3237   4.720   3.108   3.711  0.0935  2.2052 -1.6355
 1077TIP3    H2 3238   4.640   3.221   3.774  0.9729  1.4171  1.0456
 1078TIP3   OH2 3239   1.875   4.767   4.613  0.3649 -0.6589 -0.1890
 1078TIP3    H1 3240   1.856   4.697   4.675  0.2017 -2.1970 -1.9066
 1078TIP3    H2 3241   1.889   4.723   4.530 -2.9723  1.4858 -2.1210
 1079TIP3   OH2 3242   6.012   3.944   0.860  0.3142  0.0269  0.7392
 1079TIP3    H1 3243   6.099   3.915   0.833 -0.7564 -2.3001 -0.4947
 1079TIP3    H2 3244   6.006   4.036   0.831  1.9235 -0.1430 -0.2061
 1080TIP3   OH2 3245   5.706   1.376   0.455 -0.6478  0.2870  0.0503
 1080TIP3    H1 3246   5.685   1.356   0.546 -0.2446 -0.4712 -0.0237
 1080TIP3    H2 3247   5.664   1.306   0.405  0.5153 -0.2277 -0.2259
 1081TIP3   OH2 3248   4.512   4.203   3.319 -0.2184  0.2159  0.0163
 1081TIP3    H1 3249   4.436   4.250   3.355 -0.0761  1.5178 -1.2859
 1081TIP3    H2 3250   4.556   4.167   3.396 -1.0892  1.0835  0.9564
 1082TIP3   OH2 3251   0.355   5.873   4.834  0.0318  0.6127 -0.2361
 1082TIP3    H1 3252   0.361   5.778   4.843  0.4677  0.5429 -1.1703
 1082TIP3    H2 3253   0.298   5.900   4.906 -2.0407 -0.6218 -1.3131
 1083TIP3   OH2 3254   1.252   2.799   2.559 -0.1901 -0.0010  0.6615
 1083TIP3    H1 3255   1.172   2.763   2.597  0.8404 -0.0038  2.9756
 1083TIP3    H2 3256   1.288   2.727   2.507  0.2048 -1.3287  2.6601
 1084TIP3   OH2 3257   1.274   5.531   5.088 -0.1997 -0.1915  0.1953
 1084TIP3    H1 3258   1.232   5.474   5.024  0.7880 -0.6767 -0.0446
 1084TIP3    H2 3259   1.357   5.556   5.047  1.3014 -1.9502  1.9623
 1085TIP3   OH2 3260   2.831   3.699   4.892  0.3443 -0.0014  0.4987
 1085TIP3    H1 3261   2.788   3.737   4.815 -1.4818 -0.0569  1.4302
 1085TIP3    H2 3262   2.832   3.769   4.957  1.0006 -0.2339  0.7476
 1086TIP3   OH2 3263   5.726   1.659   2.474  0.1600 -1.0897 -0.0885
 1086TIP3    H1 3264   5.712   1.753   2.470 -0.1433 -1.1586 -0.9357
 1086TIP3    H2 3265   5.820   1.648   2.460  0.3833 -0.8625  1.1471
 1087TIP3   OH2 3266   4.018   4.828   0.188  0.5283  0.2105  0.6238
 1087TIP3    H1 3267   4.095   4.866   0.146  0.6838 -0.2015  0.5319
 1087TIP3    H2 3268   3.978   4.774   0.120 -0.1493  0.8485  0.5040
 1088TIP3   OH2 3269   4.034   0.271   2.465  0.0996 -0.3855 -0.5082
 1088TIP3    H1 3270   3.939   0.285   2.471  0.3482  1.1707  0.2448
 1088TIP3    H2 3271   4.061   0.253   2.555  0.5044 -1.0107 -0.7501
 1089TIP3   OH2 3272   5.864   0.083   5.078  0.3172 -0.2674  0.6038
 1089TIP3    H1 3273   5.934   0.026   5.049  1.3470  0.7439  1.0072
 1089TIP3    H2 3274   5.875   0.163   5.026  0.9659  0.8117  2.3269
 1090TIP3   OH2 3275   0.425   5.778   0.568 -0.1160  0.1791 -0.0124
 1090TIP3    H1 3276   0.345   5.788   0.620 -2.0757  0.0650 -2.7918
 1090TIP3    H2 3277   0.457   5.690   0.591 -0.5052  0.3779  1.4188
 1091TIP3   OH2 3278   3.146   0.026   2.952 -0.3078  0.4933 -0.0055
 1091TIP3    H1 3279   3.089  -0.046   2.979  1.9101 -0.9969  1.0475
 1091TIP3    H2 3280   3.195   0.049   3.031  0.8810  1.3709 -0.9543
 1092TIP3   OH2 3281   3.102   2.191   0.364 -0.0011  0.3141  0.0467
 1092TIP3    H1 3282   3.052   2.116   0.331  0.4307  0.2209 -0.3951
 1092TIP3    H2 3283   3.058   2.214   0.446 -0.1412 -0.4134  0.1826
 1093TIP3   OH2 3284   3.306   0.268   3.816 -0.1893 -0.0083 -0.0047
 1093TIP3    H1 3285   3.383   0.233   3.772  0.5999  1.4677  0.1672
 1093TIP3    H2 3286   3.252   0.304   3.745 -0.4729 -0.5365 -0.0659
 1094TIP3   OH2 3287   4.468   2.231   0.875 -0.0901 -0.1651  0.1218
 1094TIP3    H1 3288   4.376   2.207   0.883  0.3755 -1.2526  3.2099
 1094TIP3    H2 3289   4.508   2.156   0.830 -0.3799 -0.5592  0.5141
 1095TIP3   OH2 3290   0.729   0.071   2.375 -0.5799 -0.2448 -0.1001
 1095TIP3    H1 3291   0.764   0.160   2.368 -0.4132 -0.3754 -0.9763
 1095TIP3    H2 3292   0.725   0.039   2.285 -1.0947 -0.9541  0.1651
 1096TIP3   OH2 3293   4.226   4.908   5.003 -0.1835 -0.1384 -0.4620
 1096TIP3    H1 3294   4.320   4.892   4.994 -0.2820 -1.7472  0.9503
 1096TIP3    H2 3295   4.218   5.003   4.997  1.9804  0.3848  2.6850
 1097TIP3   OH2 3296   3.563   0.952   1.414  0.1045  0.0410  0.2410
 1097TIP3    H1 3297   3.500   1.018   1.440 -0.2200 -0.0830 -0.2133
 1097TIP3    H2 3298   3.612   0.933   1.493 -0.9795 -0.4563  0.8155
 1098TIP3   OH2 3299   5.193   2.364   3.056  0.0272 -0.0467 -0.8985
 1098TIP3    H1 3300   5.099   2.359   3.072  0.1099 -4.2229 -0.8605
 1098TIP3    H2 3301   5.206   2.318   2.973  2.0744  0.1882 -0.7488
 1099TIP3   OH2 3302   3.908   1.077   4.434  0.4997  0.3181  0.4088
 1099TIP3    H1 3303   3.893   1.162   4.476 -0.3899 -0.8773  2.7494
 1099TIP3    H2 3304   3.831   1.063   4.380 -0.3521  0.1734  1.6108
 1100TIP3   OH2 3305   4.550   2.382   4.479  0.0596 -0.7795  0.3308
 1100TIP3    H1 3306   4.579   2.340   4.560  1.6763 -1.0590 -0.3458
 1100TIP3    H2 3307   4.579   2.323   4.410 -0.6566 -0.1925 -0.4895
 1101TIP3   OH2 3308   4.616   1.102   1.525  0.2707  0.6141 -0.3127
 1101TIP3    H1 3309   4.560   1.158   1.577  0.6768  0.5514  0.1988
 1101TIP3    H2 3310   4.695   1.090   1.578  0.3869 -0.0452 -0.6220
 1102TIP3   OH2 3311   5.698   3.264   4.478  0.6866  0.1161  0.7497
 1102TIP3    H1 3312   5.615   3.219   4.466  1.5919 -1.3706 -0.3190
 1102TIP3    H2 3313   5.753   3.200   4.525  1.7217  0.4305  0.0067
 1103TIP3   OH2 3314   0.959   2.377   4.857  0.6129 -0.4838  0.6939
 1103TIP3    H1 3315   0.911   2.441   4.909 -0.1249 -0.7645  0.3640
 1103TIP3    H2 3316   0.891   2.324   4.815  1.1544  0.3188 -1.3127
 1104TIP3   OH2 3317   3.327   1.352   4.461  0.0754 -0.2752 -0.3422
 1104TIP3    H1 3318   3.420   1.367   4.444 -0.0066  1.6148  0.6392
 1104TIP3    H2 3319   3.323   1.265   4.501  1.4511 -0.2577 -0.1419
 1105TIP3   OH2 3320   2.348   1.318   2.442  0.0374  0.0685  0.6097
 1105TIP3    H1 3321   2.434   1.360   2.441  0.7608 -1.3161  1.7608
 1105TIP3    H2 3322   2.292   1.377   2.390  1.6137  1.0832 -0.0092
 1106TIP3   OH2 3323   6.115   5.937   2.793 -0.3712 -0.1486  0.2090
 1106TIP3    H1 3324   6.145   5.963   2.881 -0.0816  0.0076  0.0634
 1106TIP3    H2 3325   6.180   5.974   2.734 -0.7264 -0.0057 -0.0932
 1107TIP3   OH2 3326   5.010   1.185   4.299  0.2015 -0.1492 -0.2462
 1107TIP3    H1 3327   4.919   1.186   4.268  0.5863  0.4250 -1.4322
 1107TIP3    H2 3328   5.014   1.255   4.363  0.1061  0.7235 -1.1687
 1108TIP3   OH2 3329   6.186   1.792   0.589  0.2336  0.3853  0.2650
 1108TIP3    H1 3330   6.238   1.713   0.577  0.1669  0.2077  1.1080
 1108TIP3    H2 3331   6.249   1.863   0.580  0.1353  0.3015 -1.4308
 1109TIP3   OH2 3332   1.603   2.707   4.112  0.6938 -0.7168 -0.6969
 1109TIP3    H1 3333   1.694   2.687   4.136  1.7163  3.7840  0.1446
 1109TIP3    H2 3334   1.554   2.699   4.194  1.4017  1.4053 -0.0040
 1110TIP3   OH2 3335   6.119   1.340   4.075  0.5693  0.0913  0.0706
 1110TIP3    H1 3336   6.187   1.322   4.140 -1.5650 -0.0868  2.3797
 1110TIP3    H2 3337   6.085   1.426   4.099 -0.2190  0.0659 -0.8803
 1111TIP3   OH2 3338   3.871   1.055   2.972 -0.0465 -0.4714  0.9061
 1111TIP3    H1 3339   3.944   1.088   3.024  0.1835 -0.2767  0.4625
 1111TIP3    H2 3340   3.867   1.113   2.896  1.1015 -2.1006 -0.4850
 1112TIP3   OH2 3341   3.667   4.568   1.085 -0.6694  0.1714  0.2691
 1112TIP3    H1 3342   3.578   4.573   1.049 -0.6875  0.5181  0.3604
 1112TIP3    H2 3343   3.724   4.598   1.013 -0.2174 -3.6734 -1.2403
 1113TIP3   OH2 3344   4.603   5.904   4.423  0.3146  0.1368 -0.2761
 1113TIP3    H1 3345   4.548   5.830   4.397  0.7881 -0.2420 -0.2069
 1113TIP3    H2 3346   4.651   5.928   4.343 -1.1997  1.5893 -0.8149
 1114TIP3   OH2 3347   3.336   0.480   3.044 -0.0692 -0.2986 -0.7116
 1114TIP3    H1 3348   3.377   0.563   3.069 -0.8636  0.1499 -0.8753
 1114TIP3    H2 3349   3.374   0.416   3.104  2.3310 -0.2813 -2.0851
 1115TIP3   OH2 3350   2.113   4.944   0.328  0.4264  0.6562 -0.7858
 1115TIP3    H1 3351   2.025   4.907   0.317  0.7934  0.2738 -2.6629
 1115TIP3    H2 3352   2.099   5.026   0.375 -1.1401  1.4906 -2.6286
 1116TIP3   OH2 3353   2.445   0.107   0.130 -0.5789 -0.4700  0.3809
 1116TIP3    H1 3354   2.449   0.183   0.072  0.5938  0.9811  2.2429
 1116TIP3    H2 3355   2.535   0.074   0.133 -0.9779 -1.6263  0.0136
 1117TIP3   OH2 3356   0.304   4.112   4.085 -0.2880  0.3333 -0.1789
 1117TIP3    H1 3357   0.273   4.185   4.032 -1.3723 -1.2656 -1.8311
 1117TIP3    H2 3358   0.399   4.121   4.084 -0.2587  0.3347 -2.4803
 1118TIP3   OH2 3359   2.728   2.104   1.780  0.6210  0.0459 -0.2533
 1118TIP3    H1 3360   2.742   2.118   1.874 -1.4323  1.1020 -0.0327
 1118TIP3    H2 3361   2.792   2.038   1.756  0.5525 -1.0029  2.1181
 1119TIP3   OH2 3362   1.469   1.501   4.623 -0.1183 -0.0128  0.0622
 1119TIP3    H1 3363   1.562   1.523   4.628  0.4312 -2.1745  0.2922
 1119TIP3    H2 3364   1.462   1.442   4.548 -1.1481 -0.6118  0.6076
 1120TIP3   OH2 3365   5.408   4.273   4.311  0.4450 -0.1297 -0.0542
 1120TIP3    H1 3366   5.398   4.212   4.384  2.0294  0.6548  0.8606
 1120TIP3    H2 3367   5.323   4.317   4.306 -0.2757 -1.4546  0.1269
 1121TIP3   OH2 3368   1.388   1.645   1.915 -0.0086 -0.2446  0.0463
 1121TIP3    H1 3369   1.316   1.705   1.896  0.6436  0.8007  0.7686
 1121TIP3    H2 3370   1.457   1.670   1.854  0.6063  0.3867  0.9773
 1122TIP3   OH2 3371   5.972   3.837   3.332  0.2424 -0.7423 -0.1397
 1122TIP3    H1 3372   5.959   3.928   3.362  0.8904 -1.0389  1.1196
 1122TIP3    H2 3373   5.890   3.815   3.287  0.7766  1.0845 -2.1606
 1123TIP3   OH2 3374   5.878   4.528   4.736  0.0098 -0.2089  0.1748
 1123TIP3    H1 3375   5.811   4.544   4.802  0.4125  2.2862  0.1068
 1123TIP3    H2 3376   5.831   4.525   4.653 -0.3254 -1.8095  0.3904
 1124TIP3   OH2 3377   0.064   4.599   4.870  0.1554  0.5791  0.0752
 1124TIP3    H1 3378   0.110   4.537   4.812 -0.0947  0.1074  0.3692
 1124TIP3    H2 3379  -0.028   4.590   4.845  0.0478  0.3799  0.5401
 1125TIP3   OH2 3380   5.189   1.468   0.676  0.3391  0.1023 -0.1570
 1125TIP3    H1 3381   5.261   1.448   0.617  1.5931  1.0671  0.9841
 1125TIP3    H2 3382   5.211   1.424   0.757 -0.6208  0.0021  0.0657
 1126TIP3   OH2 3383   5.791   2.386   0.289 -0.5707  0.0571 -0.3413
 1126TIP3    H1 3384   5.826   2.471   0.261  1.8309 -0.1836  1.6181
 1126TIP3    H2 3385   5.829   2.324   0.228 -0.6250  0.1623 -0.4848
 1127TIP3   OH2 3386   5.259   2.580   1.098 -0.4374  0.2224 -0.0890
 1127TIP3    H1 3387   5.172   2.541   1.087 -0.1923 -0.0669 -1.0659
 1127TIP3    H2 3388   5.318   2.505   1.109 -0.0677  0.3285 -1.2348
 1128TIP3   OH2 3389   4.592   4.444   0.385  0.2954 -0.2236 -0.5666
 1128TIP3    H1 3390   4.567   4.427   0.294 -0.7235 -0.1135 -0.3279
 1128TIP3    H2 3391   4.510   4.473   0.426  1.0921  1.3647 -0.0157
 1129TIP3   OH2 3392   3.235   2.829   1.887 -0.5465  0.2101 -0.1223
 1129TIP3    H1 3393   3.142   2.839   1.905 -0.6352 -1.4629  0.5460
 1129TIP3    H2 3394   3.249   2.873   1.803 -1.9316  0.4757 -0.2283
 1130TIP3   OH2 3395   1.396   1.211   1.486 -0.2064  0.6661  0.0700
 1130TIP3    H1 3396   1.398   1.145   1.556 -0.5807  0.7614  0.1706
 1130TIP3    H2 3397   1.310   1.253   1.495 -1.1053 -0.6822 -1.7214
 1131TIP3   OH2 3398   4.946   2.907   1.526 -0.8985 -0.1727  0.3280
 1131TIP3    H1 3399   4.877   2.850   1.559 -1.3548  0.6047  0.7551
 1131TIP3    H2 3400   5.025   2.879   1.573 -1.5313  0.8835  2.1174
 1132TIP3   OH2 3401   4.843   2.422   3.383 -0.0234 -0.1660  0.8195
 1132TIP3    H1 3402   4.906   2.494   3.381 -0.2967  0.1853  3.0562
 1132TIP3    H2 3403   4.847   2.385   3.295  3.3185 -0.1816  0.8615
 1133TIP3   OH2 3404   5.865   3.292   2.725  0.5905 -0.9930  0.0292
 1133TIP3    H1 3405   5.780   3.287   2.770  0.4929  1.5477  0.2789
 1133TIP3    H2 3406   5.843   3.292   2.632  0.3194 -0.6155  0.0899
 1134TIP3   OH2 3407   0.038   2.035   1.248  0.6873  0.5487 -0.5850
 1134TIP3    H1 3408   0.035   2.098   1.320  1.3381 -0.6102  0.4954
 1134TIP3    H2 3409   0.127   2.042   1.214  1.2335 -0.8043  0.5073
 1135TIP3   OH2 3410   0.822   2.530   4.290  0.3714  0.5379  0.0476
 1135TIP3    H1 3411   0.737   2.541   4.331  0.9849  0.0647  1.5264
 1135TIP3    H2 3412   0.810   2.458   4.227 -0.3981  0.7500 -0.0567
 1136TIP3   OH2 3413   5.874   5.058   2.876 -0.0570  0.5833  0.2451
 1136TIP3    H1 3414   5.932   5.012   2.815 -1.0796 -1.1764  0.5428
 1136TIP3    H2 3415   5.824   5.118   2.821  0.7478  0.8046 -0.2664
 1137TIP3   OH2 3416   2.182   5.219   1.900 -0.0650  0.1503 -0.5449
 1137TIP3    H1 3417   2.176   5.241   1.993 -0.9800 -1.7238 -0.1045
 1137TIP3    H2 3418   2.142   5.293   1.855 -0.5860  0.6037  0.6275
 1138TIP3   OH2 3419   4.340   2.732   0.952 -0.3055 -0.3224 -0.1732
 1138TIP3    H1 3420   4.316   2.650   0.909  2.5577 -0.0790 -2.5599
 1138TIP3    H2 3421   4.290   2.799   0.906  1.5079 -0.2472 -2.1979
 1139TIP3   OH2 3422   1.166   0.885   4.746  0.0294  0.2844  0.1394
 1139TIP3    H1 3423   1.182   0.794   4.771  0.1920  0.2708 -0.0092
 1139TIP3    H2 3424   1.071   0.892   4.741 -0.0500  0.5204  1.6115
 1140TIP3   OH2 3425   1.082   5.610   0.237  0.1950  0.3093 -0.6722
 1140TIP3    H1 3426   1.160   5.663   0.219 -1.1699  2.2750 -1.1852
 1140TIP3    H2 3427   1.035   5.609   0.153 -1.7823  1.7491  0.3523
 1141TIP3   OH2 3428   5.584   5.167   2.524 -0.2163 -0.3660  0.6659
 1141TIP3    H1 3429   5.622   5.082   2.499 -0.3594 -0.7420  1.6683
 1141TIP3    H2 3430   5.572   5.213   2.441  0.5838 -1.0218  0.1649
 1142TIP3   OH2 3431   2.710   0.114   1.181  0.2928  1.2755 -0.3736
 1142TIP3    H1 3432   2.649   0.088   1.111  0.0463  3.4835 -1.0466
 1142TIP3    H2 3433   2.690   0.054   1.253 -1.2704  0.6312 -1.2831
 1143TIP3   OH2 3434   5.377   5.390   2.680  0.2041  0.0332  0.3355
 1143TIP3    H1 3435   5.360   5.419   2.590  1.1698  1.3454  0.5480
 1143TIP3    H2 3436   5.363   5.295   2.677  1.0589 -0.0839 -1.4208
 1144TIP3   OH2 3437   5.461   1.556   0.275  0.2510 -0.7081 -0.0191
 1144TIP3    H1 3438   5.544   1.586   0.238 -0.3592 -0.3066 -1.1402
 1144TIP3    H2 3439   5.402   1.551   0.199 -0.3936 -2.2346  0.5525
 1145TIP3   OH2 3440   1.629   1.992   4.352 -0.1070 -0.0357  0.3099
 1145TIP3    H1 3441   1.555   2.052   4.364 -0.6519 -0.5807 -0.2423
 1145TIP3    H2 3442   1.604   1.938   4.278  1.1004  0.1224 -0.2277
 1146TIP3   OH2 3443   2.915   2.205   3.784 -0.1507  0.0965  0.1063
 1146TIP3    H1 3444   2.844   2.217   3.846 -1.2754 -1.1374 -0.8702
 1146TIP3    H2 3445   2.976   2.146   3.828 -1.2361 -1.2600 -0.1439
 1147TIP3   OH2 3446   3.785   5.824   3.878  0.4924  0.0770 -0.0901
 1147TIP3    H1 3447   3.741   5.905   3.904 -1.8340  0.4679 -4.3204
 1147TIP3    H2 3448   3.832   5.847   3.798  1.0507 -2.4155 -0.5809
 1148TIP3   OH2 3449   4.173   2.999   3.333  0.5219 -0.8871  0.1183
 1148TIP3    H1 3450   4.140   2.940   3.401 -0.7011 -0.7078 -0.2962
 1148TIP3    H2 3451   4.190   2.942   3.258 -0.7144 -0.7395 -0.3014
 1149TIP3   OH2 3452   5.696   2.899   4.131  0.2203  0.0209  0.1751
 1149TIP3    H1 3453   5.755   2.937   4.066 -0.2445  0.2146 -0.1334
 1149TIP3    H2 3454   5.623   2.960   4.136  0.2848  0.0446  0.9343
 1150TIP3   OH2 3455   6.101   0.410   2.721 -0.0630  0.0490  0.3882
 1150TIP3    H1 3456   6.025   0.379   2.672 -1.7282  0.9553  2.2568
 1150TIP3    H2 3457   6.176   0.384   2.668 -1.6672 -0.6434 -1.6707
 1151TIP3   OH2 3458   4.887   0.994   4.040  0.9686 -0.3438  0.1183
 1151TIP3    H1 3459   4.966   1.042   4.064  0.6531  0.2394  0.0005
 1151TIP3    H2 3460   4.834   1.057   3.991  0.7339 -0.9347 -0.4107
 1152TIP3   OH2 3461   4.094   0.928   2.323 -0.0231 -0.2513  0.0651
 1152TIP3    H1 3462   4.103   0.924   2.418  0.3474  0.8226  0.0996
 1152TIP3    H2 3463   4.174   0.972   2.294  0.2067 -1.2258 -0.8199
 1153TIP3   OH2 3464   1.396   4.759   1.851  0.3725 -0.8257  0.3893
 1153TIP3    H1 3465   1.448   4.838   1.837  1.1778 -1.4038  0.0532
 1153TIP3    H2 3466   1.306   4.790   1.855  0.3987 -0.1059 -2.2572
 1154TIP3   OH2 3467   1.119   1.342   3.289 -0.6306 -0.5888  0.4532
 1154TIP3    H1 3468   1.094   1.434   3.299 -3.0007 -0.7009 -2.9252
 1154TIP3    H2 3469   1.184   1.328   3.358 -1.3356  3.1340  2.1493
 1155TIP3   OH2 3470   2.052   2.932   0.998 -0.1448 -0.6132  0.3009
 1155TIP3    H1 3471   2.000   2.857   0.970 -2.6247  1.7033 -1.8579
 1155TIP3    H2 3472   1.990   2.989   1.043  1.2603  0.8747  0.4565
 1156TIP3   OH2 3473   4.484   1.022   4.116  0.3367 -0.0210  0.0000
 1156TIP3    H1 3474   4.547   0.995   4.184  0.4756  1.4540  0.4833
 1156TIP3    H2 3475   4.403   1.038   4.165  0.1318  0.0137 -0.3510
 1157TIP3   OH2 3476   0.504   1.021   4.374  0.1959  0.4624  0.0584
 1157TIP3    H1 3477   0.447   1.081   4.421  0.0838  0.7779 -0.4664
 1157TIP3    H2 3478   0.565   0.989   4.440  0.5834  1.5439  0.2494
 1158TIP3   OH2 3479   2.899   1.225   2.660  0.2079  0.2347 -0.9084
 1158TIP3    H1 3480   2.836   1.284   2.702  0.1303 -0.1527 -0.4750
 1158TIP3    H2 3481   2.957   1.283   2.610 -0.1100  0.6437 -0.8039
 1159TIP3   OH2 3482   1.213   0.807   0.081 -0.1900 -0.3210  0.0811
 1159TIP3    H1 3483   1.228   0.870   0.151 -0.8635  2.1458 -1.8194
 1159TIP3    H2 3484   1.300   0.768   0.065  0.9535  2.1955 -0.4209
 1160TIP3   OH2 3485   4.587   5.574   1.429 -0.6869 -0.2423  0.2686
 1160TIP3    H1 3486   4.539   5.505   1.475 -1.2741  0.6350  0.9968
 1160TIP3    H2 3487   4.567   5.559   1.336  0.9983 -2.3995  0.1712
 1161TIP3   OH2 3488   0.474   1.866   1.949  0.3564 -0.2030  0.2941
 1161TIP3    H1 3489   0.568   1.847   1.940  0.0553 -1.9964  0.6242
 1161TIP3    H2 3490   0.458   1.862   2.043 -0.0972 -0.1597  0.2194
 1162TIP3   OH2 3491   0.372   3.429   2.715  0.9728 -0.0750 -0.0491
 1162TIP3    H1 3492   0.283   3.429   2.678  0.6277 -1.0029  0.7597
 1162TIP3    H2 3493   0.377   3.512   2.763  0.8196  0.3319 -0.7174
 1163TIP3   OH2 3494   4.525   3.323   5.145 -0.1655  0.8942 -0.4332
 1163TIP3    H1 3495   4.438   3.308   5.107  0.2494  0.9454 -1.4533
 1163TIP3    H2 3496   4.544   3.415   5.125  1.1878  0.2237 -2.5835
 1164TIP3   OH2 3497   5.116   4.385   0.149  0.1205 -0.3767 -0.0638
 1164TIP3    H1 3498   5.039   4.435   0.179  1.1469  1.5785 -0.5197
 1164TIP3    H2 3499   5.079   4.304   0.113 -1.6948  0.3214  0.0947
 1165TIP3   OH2 3500   6.214   4.771   2.536  0.0621  0.6722  0.0562
 1165TIP3    H1 3501   6.294   4.797   2.582  0.2861 -1.8393  1.3068
 1165TIP3    H2 3502   6.230   4.792   2.445  2.4914 -0.3346  0.1685
 1166TIP3   OH2 3503   6.196   2.325   3.339 -0.8249 -0.1463  0.3433
 1166TIP3    H1 3504   6.177   2.418   3.348 -0.9255 -0.1784  0.4658
 1166TIP3    H2 3505   6.139   2.296   3.268 -1.1669 -0.2221  0.6470
 1167TIP3   OH2 3506   4.257   0.403   2.434 -0.3056  0.1766 -0.5849
 1167TIP3    H1 3507   4.187   0.339   2.442 -1.0827  0.6535 -3.0297
 1167TIP3    H2 3508   4.214   0.488   2.444  0.1635  0.4281 -0.6755
 1168TIP3   OH2 3509   2.411   1.622   1.693  0.4548 -0.2952  0.3785
 1168TIP3    H1 3510   2.502   1.595   1.705 -0.2182 -2.8173  0.5176
 1168TIP3    H2 3511   2.375   1.557   1.632 -1.9148 -1.0597  2.4209
 1169TIP3   OH2 3512   4.972   0.279   1.656  0.1623 -0.1962  0.6811
 1169TIP3    H1 3513   4.910   0.337   1.700  1.8965 -0.4810  3.8167
 1169TIP3    H2 3514   5.040   0.337   1.621 -0.7222 -0.0443 -0.8714
 1170TIP3   OH2 3515   2.262   5.307   2.158 -0.1880  0.1486 -0.0564
 1170TIP3    H1 3516   2.340   5.252   2.164 -0.1040  0.0057 -1.7912
 1170TIP3    H2 3517   2.294   5.396   2.167  0.0092  0.0354  0.3822
 1171TIP3   OH2 3518   2.034   0.417   2.617  0.2630  0.6799 -0.3056
 1171TIP3    H1 3519   2.089   0.433   2.540  1.0973 -0.2571  0.0675
 1171TIP3    H2 3520   1.976   0.347   2.590  0.9260 -0.0281  0.0789
 1172TIP3   OH2 3521   4.845   5.569   1.510 -0.3152 -0.5439 -0.6496
 1172TIP3    H1 3522   4.759   5.601   1.484  0.2660 -0.8153 -3.1261
 1172TIP3    H2 3523   4.904   5.597   1.440  1.6231 -0.5247  0.8682
 1173TIP3   OH2 3524   5.197   5.437   4.905 -0.3336 -0.0767  0.5388
 1173TIP3    H1 3525   5.234   5.389   4.831 -0.0792 -0.1906  0.7368
 1173TIP3    H2 3526   5.143   5.505   4.865 -1.3080 -0.9930  0.2576
 1174TIP3   OH2 3527   0.227   0.497   3.845  0.5700  0.0297  0.1730
 1174TIP3    H1 3528   0.149   0.489   3.791  0.2137 -0.0712  0.7017
 1174TIP3    H2 3529   0.284   0.557   3.796 -0.5659  1.5254  0.6249
 1175TIP3   OH2 3530   0.924   0.577   1.347  0.2088  0.6852  0.1521
 1175TIP3    H1 3531   0.965   0.645   1.401 -0.4654 -0.4400  2.1776
 1175TIP3    H2 3532   0.881   0.626   1.276  0.2264  2.3283  1.2137
 1176TIP3   OH2 3533   0.395   4.625   1.032  0.3808 -0.5748 -0.0994
 1176TIP3    H1 3534   0.464   4.690   1.018  0.5380 -1.1340 -2.1900
 1176TIP3    H2 3535   0.334   4.638   0.959 -0.6548 -1.4432  0.5855
 1177TIP3   OH2 3536   1.272   0.262   3.580 -0.6135 -0.3397 -0.1474
 1177TIP3    H1 3537   1.219   0.270   3.500  0.8749  1.1545 -1.0430
 1177TIP3    H2 3538   1.317   0.178   3.570 -0.3714 -0.1308 -0.9499
 1178TIP3   OH2 3539   3.480   0.541   2.687  0.4799 -0.2253  0.5501
 1178TIP3    H1 3540   3.470   0.587   2.604  2.4264 -0.4101  0.1721
 1178TIP3    H2 3541   3.510   0.453   2.663 -0.7175 -0.9022  1.3874
 1179TIP3   OH2 3542   6.274   1.899   0.287 -0.0697  0.2538  0.4087
 1179TIP3    H1 3543   6.271   1.975   0.345 -0.7810  0.4706  0.0960
 1179TIP3    H2 3544   6.198   1.909   0.230  1.1967  0.5998 -1.3010
 1180TIP3   OH2 3545   3.395   4.816   0.248 -0.0899 -0.8168  0.6010
 1180TIP3    H1 3546   3.359   4.891   0.200 -1.0809 -1.7176 -0.1014
 1180TIP3    H2 3547   3.435   4.855   0.326  1.4832  0.6822 -0.8631
 1181TIP3   OH2 3548   1.331   3.995   2.056 -0.1544  0.1379 -0.2437
 1181TIP3    H1 3549   1.254   3.963   2.102  1.3322 -1.1497  1.4919
 1181TIP3    H2 3550   1.355   4.075   2.102 -0.3808  0.4862 -0.7221
 1182TIP3   OH2 3551   4.399   3.685   2.776 -0.0336  0.4972  0.7848
 1182TIP3    H1 3552   4.428   3.776   2.777 -0.3905  0.6237  0.0812
 1182TIP3    H2 3553   4.308   3.689   2.746  0.4890 -0.2112 -1.0465
 1183TIP3   OH2 3554   4.991   4.763   3.645 -0.4683  0.9381 -0.1015
 1183TIP3    H1 3555   4.901   4.735   3.625 -0.0857 -1.8905  1.5474
 1183TIP3    H2 3556   4.981   4.832   3.710 -1.4213  1.4768 -0.7900
 1184TIP3   OH2 3557   3.703   4.380   2.885 -0.2749 -0.1536  0.3612
 1184TIP3    H1 3558   3.678   4.420   2.968  0.4897 -0.2867  0.6688
 1184TIP3    H2 3559   3.776   4.322   2.907  0.2883  0.1970 -0.4761
 1185TIP3   OH2 3560   0.545   2.624   3.205  0.2662  0.4875 -0.3540
 1185TIP3    H1 3561   0.580   2.709   3.231 -1.3505  0.9267  0.5099
 1185TIP3    H2 3562   0.590   2.604   3.123  2.9595  0.7043  0.9453
 1186TIP3   OH2 3563   0.792   1.798   3.985 -0.0971 -0.0175 -0.0650
 1186TIP3    H1 3564   0.812   1.783   3.893  1.2928  2.0939 -0.1907
 1186TIP3    H2 3565   0.744   1.721   4.013  1.0580 -1.5512 -2.0741
 1187TIP3   OH2 3566   0.532   4.497   4.941  0.4076 -0.1277  0.1120
 1187TIP3    H1 3567   0.594   4.494   5.014  0.7337 -1.3435 -0.1890
 1187TIP3    H2 3568   0.469   4.564   4.966  1.1527  0.2674  0.9895
 1188TIP3   OH2 3569   0.239   4.740   1.220  0.2297  0.2562  0.5479
 1188TIP3    H1 3570   0.196   4.674   1.274 -1.3098 -1.0598 -2.0791
 1188TIP3    H2 3571   0.299   4.690   1.165  0.1879  1.2518 -0.4282
 1189TIP3   OH2 3572   5.754   2.354   4.821 -0.5190 -0.4757  0.2934
 1189TIP3    H1 3573   5.714   2.434   4.789 -0.3940 -0.6290 -0.2559
 1189TIP3    H2 3574   5.681   2.292   4.828 -0.5237 -0.4824  0.1784
 1190TIP3   OH2 3575   6.220   5.182   4.264 -0.3677 -0.1570  0.4467
 1190TIP3    H1 3576   6.267   5.101   4.285  0.0013  0.1937  1.0188
 1190TIP3    H2 3577   6.289   5.245   4.245 -0.6665 -0.0801 -0.4264
 1191TIP3   OH2 3578   4.182   4.024   0.820  0.4900 -0.0813  0.3887
 1191TIP3    H1 3579   4.114   4.059   0.877  0.0931  0.6438 -0.5055
 1191TIP3    H2 3580   4.150   3.938   0.793 -0.0865  0.2746 -0.0599
 1192TIP3   OH2 3581   3.227   5.522   4.904 -0.1579  0.0632  0.1906
 1192TIP3    H1 3582   3.214   5.432   4.935  0.4525  0.1867  0.8343
 1192TIP3    H2 3583   3.306   5.519   4.851 -1.2617 -0.1641 -1.5069
 1193TIP3   OH2 3584   0.245   3.510   3.984  0.0621 -0.1991 -0.5532
 1193TIP3    H1 3585   0.175   3.543   3.928  0.4475 -0.5660 -1.2666
 1193TIP3    H2 3586   0.200   3.471   4.059 -0.4184  2.4810  0.6915
 1194TIP3   OH2 3587   4.447   3.175   0.113  0.3075  0.0903 -0.4487
 1194TIP3    H1 3588   4.506   3.117   0.161  0.6935  0.3987 -0.5440
 1194TIP3    H2 3589   4.386   3.207   0.179  0.0942 -0.4260 -0.3978
 1195TIP3   OH2 3590   5.007   1.791   3.758 -0.0247 -0.1351 -0.1891
 1195TIP3    H1 3591   5.032   1.798   3.666  0.3698 -5.5159 -0.8322
 1195TIP3    H2 3592   4.913   1.810   3.759  0.2095  1.2101 -1.3976
 1196TIP3   OH2 3593   0.180   1.645   4.701 -0.1425 -0.0195 -0.3343
 1196TIP3    H1 3594   0.239   1.677   4.769  0.1959  1.3309 -1.2155
 1196TIP3    H2 3595   0.100   1.621   4.748  0.6027 -0.5588  0.7017
 1197TIP3   OH2 3596   4.990   3.098   3.832  0.2483 -0.2370 -0.2023
 1197TIP3    H1 3597   4.988   3.017   3.783 -1.8212 -0.4492  0.1422
 1197TIP3    H2 3598   4.898   3.121   3.845  0.7418  0.9895  1.6027
 1198TIP3   OH2 3599   4.563   2.145   1.318  0.4137  0.2164 -0.8643
 1198TIP3    H1 3600   4.517   2.145   1.402 -0.2223 -1.1916 -1.1909
 1198TIP3    H2 3601   4.653   2.167   1.340 -0.2113  2.3656 -0.1317
 1199TIP3   OH2 3602   3.675   3.244   3.889  0.0725 -0.0003 -0.3088
 1199TIP3    H1 3603   3.769   3.240   3.905 -0.2146 -1.4955  1.1931
 1199TIP3    H2 3604   3.647   3.153   3.881 -1.1814  0.4337 -1.2578
 1200TIP3   OH2 3605   3.115   5.304   2.596  0.0547  0.1820 -0.0337
 1200TIP3    H1 3606   3.186   5.311   2.660  1.4266  0.8977 -1.5436
 1200TIP3    H2 3607   3.083   5.215   2.606  0.5962  0.1066  1.2672
 1201TIP3   OH2 3608   1.560   5.640   1.734 -0.0743  0.1093  0.1300
 1201TIP3    H1 3609   1.480   5.689   1.753  0.5766  1.1153  0.3051
 1201TIP3    H2 3610   1.535   5.579   1.664 -0.7424  1.0968 -0.5064
 1202TIP3   OH2 3611   1.999   3.108   0.580 -0.3869  0.3244  0.4972
 1202TIP3    H1 3612   2.037   3.020   0.581  1.6357  1.0897 -1.0475
 1202TIP3    H2 3613   1.999   3.134   0.672 -1.4845 -1.4242  1.0493
 1203TIP3   OH2 3614   1.804   2.747   2.889 -0.0684 -0.0161  0.1149
 1203TIP3    H1 3615   1.795   2.813   2.958 -0.3172 -0.1580  0.2238
 1203TIP3    H2 3616   1.765   2.668   2.928 -0.8721  0.0876 -0.4415
 1204TIP3   OH2 3617   2.560   2.050   2.994  0.8867 -0.0491 -0.0711
 1204TIP3    H1 3618   2.606   2.008   2.921 -1.4717  2.0282 -3.0159
 1204TIP3    H2 3619   2.593   2.140   2.994 -1.4343  0.8835 -0.8734
 1205TIP3   OH2 3620   5.938   2.588   0.180 -0.0392  0.4493 -0.1646
 1205TIP3    H1 3621   5.894   2.672   0.187  1.6050  1.2623  1.6631
 1205TIP3    H2 3622   5.984   2.591   0.096 -0.9418  0.8566 -0.6507
 1206TIP3   OH2 3623   0.772   4.397   3.182  0.2082  0.5003  0.1919
 1206TIP3    H1 3624   0.793   4.486   3.209 -1.3890  0.7348  0.7623
 1206TIP3    H2 3625   0.747   4.404   3.090 -0.5482  0.7718  0.4084
 1207TIP3   OH2 3626   4.886   4.603   2.080  0.2899 -0.0456 -0.0295
 1207TIP3    H1 3627   4.938   4.587   2.159  0.1019  0.8028  0.2832
 1207TIP3    H2 3628   4.950   4.602   2.009  0.5326 -0.3311  0.1872
 1208TIP3   OH2 3629   6.126   4.619   4.833 -0.0259 -0.0687 -0.5202
 1208TIP3    H1 3630   6.034   4.595   4.830 -0.6186  1.3025  2.4965
 1208TIP3    H2 3631   6.127   4.714   4.825  1.5005 -0.2333 -3.7033
 1209TIP3   OH2 3632   0.140   4.856   4.923 -0.2037 -0.2380  0.5134
 1209TIP3    H1 3633   0.119   4.764   4.905  0.3282 -0.1568 -0.6174
 1209TIP3    H2 3634   0.082   4.880   4.995 -1.5704 -0.9645 -0.3052
 1210TIP3   OH2 3635   1.965   5.802   3.503 -0.3511 -0.1177  0.1077
 1210TIP3    H1 3636   1.988   5.721   3.547 -0.5067  0.1298  0.6531
 1210TIP3    H2 3637   1.980   5.784   3.410 -1.8783 -1.2712  0.0562
 1211TIP3   OH2 3638   0.207   1.750   4.028 -0.8145  0.3375 -0.2935
 1211TIP3    H1 3639   0.231   1.697   4.104  0.3284  0.6764 -0.3982
 1211TIP3    H2 3640   0.267   1.722   3.960 -1.6522  0.2323 -1.0043
 1212TIP3   OH2 3641   3.237   2.959   1.634  0.2729 -0.6957 -0.5971
 1212TIP3    H1 3642   3.268   2.964   1.543 -1.7437  0.1631 -1.2939
 1212TIP3    H2 3643   3.173   3.029   1.641 -0.0103 -1.1056  1.3496
 1213TIP3   OH2 3644   3.068   2.848   0.535 -0.1786 -0.1996 -0.1295
 1213TIP3    H1 3645   3.102   2.761   0.516  2.5909  0.8243 -0.3411
 1213TIP3    H2 3646   3.001   2.863   0.468 -0.2074 -1.8685 -0.5173
 1214TIP3   OH2 3647   1.416   5.610   3.967 -0.3605 -0.4840  0.1263
 1214TIP3    H1 3648   1.325   5.633   3.986 -0.1419 -0.2290  0.8659
 1214TIP3    H2 3649   1.416   5.515   3.960 -0.7462 -0.4623 -0.2408
 1215TIP3   OH2 3650   4.854   3.325   4.441 -0.3687 -0.1931  0.0354
 1215TIP3    H1 3651   4.812   3.382   4.377 -1.9054 -2.4894 -1.1217
 1215TIP3    H2 3652   4.936   3.297   4.399  0.5354  1.2611  0.7222
 1216TIP3   OH2 3653   4.247   2.708   0.004 -0.9408 -0.6665 -0.2774
 1216TIP3    H1 3654   4.261   2.780   0.066 -2.0053 -0.1891 -0.5656
 1216TIP3    H2 3655   4.264   2.629   0.055  1.4679 -0.2266 -0.2804
 1217TIP3   OH2 3656   2.846   3.434   4.741 -0.0909  0.1133  0.5581
 1217TIP3    H1 3657   2.799   3.485   4.674  1.3428 -0.4032 -0.9082
 1217TIP3    H2 3658   2.793   3.355   4.753  0.8668 -1.0339 -1.9553
 1218TIP3   OH2 3659   1.693   4.422   0.034 -0.0227  0.0468  0.7870
 1218TIP3    H1 3660   1.735   4.338   0.018  0.5679  0.2527  1.2426
 1218TIP3    H2 3661   1.686   4.427   0.130 -1.7515 -0.3094  0.7123
 1219TIP3   OH2 3662   4.931   4.596   4.361 -0.0872  0.2930 -0.1371
 1219TIP3    H1 3663   4.877   4.522   4.332 -0.3783  0.3475  0.2642
 1219TIP3    H2 3664   4.891   4.625   4.443  0.9451 -0.0813  0.5155
 1220TIP3   OH2 3665   3.136   5.785   5.008 -0.0604  0.7670  0.1653
 1220TIP3    H1 3666   3.129   5.692   4.986  0.8195  0.8324 -0.4298
 1220TIP3    H2 3667   3.046   5.818   5.004 -0.5825 -0.3303  1.6821
 1221TIP3   OH2 3668   5.035   1.234   2.101  0.0961  0.1245 -0.1008
 1221TIP3    H1 3669   5.031   1.305   2.037  2.5247  1.7012  1.3284
 1221TIP3    H2 3670   5.103   1.176   2.068 -0.3318 -0.3595 -0.1415
 1222TIP3   OH2 3671   2.315   5.776   0.210 -0.0710  0.1198  1.1851
 1222TIP3    H1 3672   2.358   5.861   0.221 -1.6234  0.8549  1.9262
 1222TIP3    H2 3673   2.228   5.797   0.176  0.1924 -1.3331 -0.5370
 1223TIP3   OH2 3674   5.429   0.418   4.328 -0.5572  0.4206  0.5469
 1223TIP3    H1 3675   5.422   0.348   4.394 -2.0014  0.5632  0.5613
 1223TIP3    H2 3676   5.349   0.411   4.276  1.1208 -0.5425 -2.1021
 1224TIP3   OH2 3677   5.526   5.823   4.397 -0.3877  0.3003  0.0227
 1224TIP3    H1 3678   5.447   5.774   4.415 -0.2628  0.3860  0.8137
 1224TIP3    H2 3679   5.596   5.758   4.398 -0.0143  0.6507  2.5255
 1225TIP3   OH2 3680   2.297   5.398   4.987  0.3198 -0.2166  0.0085
 1225TIP3    H1 3681   2.291   5.305   5.006 -0.6092 -0.1964 -0.1277
 1225TIP3    H2 3682   2.386   5.423   5.013  0.0155 -0.7649  1.6922
 1226TIP3   OH2 3683   2.934   5.858   3.758  0.4054  0.1870  0.1257
 1226TIP3    H1 3684   2.913   5.802   3.683 -3.8790  1.6700 -0.0382
 1226TIP3    H2 3685   2.942   5.946   3.721  2.5060  0.4315  0.9849
 1227TIP3   OH2 3686   3.574   2.592   0.444 -0.7663 -0.3282  0.2204
 1227TIP3    H1 3687   3.536   2.518   0.398  0.5532 -0.4763 -0.6999
 1227TIP3    H2 3688   3.582   2.661   0.378 -1.5217  0.4743  0.9473
 1228TIP3   OH2 3689   0.940   0.330   1.498 -0.0038 -0.3592 -0.1960
 1228TIP3    H1 3690   0.904   0.416   1.518 -1.3243 -1.2607  1.6863
 1228TIP3    H2 3691   1.001   0.345   1.426 -0.5065  2.0556 -0.2021
 1229TIP3   OH2 3692   1.116   0.432   1.725  0.3029  0.2785 -0.2453
 1229TIP3    H1 3693   1.179   0.377   1.678  1.7905  1.1764  0.6008
 1229TIP3    H2 3694   1.119   0.399   1.815 -0.9457 -0.0694 -0.3101
 1230TIP3   OH2 3695   6.051   3.564   4.502 -0.0666  0.2021  0.7774
 1230TIP3    H1 3696   6.088   3.486   4.542 -0.9787 -1.0717 -0.7373
 1230TIP3    H2 3697   5.985   3.531   4.441  2.4586  1.7598 -3.1996
 1231TIP3   OH2 3698   4.423   5.772   4.834  0.2094 -0.1355  0.3326
 1231TIP3    H1 3699   4.519   5.769   4.838  0.3228  0.8876 -0.9667
 1231TIP3    H2 3700   4.395   5.730   4.915  1.7627 -0.0501  0.9601
 1232TIP3   OH2 3701   0.440   2.293   0.894 -0.1612 -0.0802  0.3666
 1232TIP3    H1 3702   0.512   2.316   0.836  1.2164  1.1482  2.4200
 1232TIP3    H2 3703   0.482   2.269   0.977 -1.9810 -2.7498  0.6635
 1233TIP3   OH2 3704   5.137   4.863   3.142  0.3517 -0.0633  0.0872
 1233TIP3    H1 3705   5.205   4.795   3.142 -0.9785 -1.5050  1.4795
 1233TIP3    H2 3706   5.144   4.902   3.229  0.1496  0.5844 -0.1898
 1234TIP3   OH2 3707   5.717   4.302   4.552 -0.5100  0.0370 -0.1061
 1234TIP3    H1 3708   5.718   4.262   4.639 -2.1261 -0.4543 -0.2927
 1234TIP3    H2 3709   5.704   4.229   4.491 -2.0882  0.6523 -0.5499
 1235TIP3   OH2 3710   5.832   1.097   0.664  0.1266 -0.5092 -0.1654
 1235TIP3    H1 3711   5.744   1.134   0.658 -0.4619 -1.4980  1.6912
 1235TIP3    H2 3712   5.854   1.101   0.757  1.7900 -0.8726 -0.5072
 1236TIP3   OH2 3713   5.253   3.671   5.033 -0.4682  0.1249  0.2612
 1236TIP3    H1 3714   5.196   3.739   5.069 -0.9900  0.0246 -0.3514
 1236TIP3    H2 3715   5.207   3.589   5.050 -0.3324  0.0104  0.0852
 1237TIP3   OH2 3716   5.489   3.229   0.658  0.4968  0.4026 -0.1358
 1237TIP3    H1 3717   5.465   3.308   0.707  1.2717  0.2106  0.5773
 1237TIP3    H2 3718   5.426   3.226   0.586  0.4382  1.6489 -0.1588
 1238TIP3   OH2 3719   0.218   1.587   2.817  0.0740  0.4248 -0.3436
 1238TIP3    H1 3720   0.215   1.598   2.722 -1.6981  1.6237 -0.1989
 1238TIP3    H2 3721   0.126   1.580   2.844  0.5526 -0.3904  1.2455
 1239TIP3   OH2 3722   0.905   4.420   1.599  0.8985 -0.2991 -0.2689
 1239TIP3    H1 3723   0.957   4.350   1.639  0.5437 -1.0236 -1.0520
 1239TIP3    H2 3724   0.931   4.419   1.507 -0.3460 -0.5471 -0.6379
 1240TIP3   OH2 3725   1.668   4.749   4.257  0.0985 -0.3536  0.5350
 1240TIP3    H1 3726   1.595   4.690   4.238 -0.0704  0.3699 -1.3091
 1240TIP3    H2 3727   1.655   4.775   4.348 -0.2956 -2.4593  1.1211
 1241TIP3   OH2 3728   6.274   2.746   2.514 -0.4006 -0.1265 -0.1773
 1241TIP3    H1 3729   6.220   2.782   2.444 -0.5959  0.4999  0.2875
 1241TIP3    H2 3730   6.249   2.654   2.519 -1.0865  0.0539 -0.2730
 1242TIP3   OH2 3731   2.759   3.526   0.917  0.2015 -0.2376  0.3977
 1242TIP3    H1 3732   2.727   3.590   0.981 -1.0222  1.0632 -1.4280
 1242TIP3    H2 3733   2.696   3.455   0.920 -0.2604  0.1560  0.1333
 1243TIP3   OH2 3734   4.907   2.532   1.859 -0.4750 -0.1949  0.1650
 1243TIP3    H1 3735   4.847   2.523   1.932 -1.1048  0.8047 -0.2126
 1243TIP3    H2 3736   4.857   2.504   1.783 -0.4381  0.5419 -0.1381
 1244TIP3   OH2 3737   3.289   2.378   0.593  0.1174 -0.0826  0.0709
 1244TIP3    H1 3738   3.363   2.391   0.652  0.2361  1.1667 -0.3182
 1244TIP3    H2 3739   3.254   2.292   0.617 -1.0484  1.1225  3.3240
 1245TIP3   OH2 3740   1.720   1.245   4.148  0.1361 -0.6571  0.6372
 1245TIP3    H1 3741   1.636   1.281   4.120  0.7109  1.7499  1.7657
 1245TIP3    H2 3742   1.774   1.322   4.167  1.8205 -2.1342  2.1768
 1246TIP3   OH2 3743   2.370   0.497   3.122 -0.2133  0.0689  0.9000
 1246TIP3    H1 3744   2.454   0.511   3.078  0.2480 -2.6552  0.7471
 1246TIP3    H2 3745   2.380   0.539   3.207  1.4190 -0.4277  0.9832
 1247TIP3   OH2 3746   2.989   5.506   2.476 -0.5461 -0.5688  0.0569
 1247TIP3    H1 3747   2.902   5.483   2.508 -0.9605 -0.3133 -0.8602
 1247TIP3    H2 3748   3.039   5.424   2.483 -1.4317 -1.2581 -1.2648
 1248TIP3   OH2 3749   0.321   0.858   1.174 -0.1782 -0.4366 -0.7432
 1248TIP3    H1 3750   0.400   0.811   1.202 -0.3410  0.1293  0.7818
 1248TIP3    H2 3751   0.326   0.942   1.220 -0.9629  0.1777 -1.7479
 1249TIP3   OH2 3752   3.686   0.402   3.510 -0.2650 -0.9646 -0.4294
 1249TIP3    H1 3753   3.740   0.421   3.434 -0.0106  0.2513  0.0304
 1249TIP3    H2 3754   3.706   0.311   3.532  2.0269 -0.4129  0.0426
 1250TIP3   OH2 3755   1.737   5.513   4.045 -0.5681  0.3980 -0.4047
 1250TIP3    H1 3756   1.810   5.574   4.030  0.1041 -0.2890 -0.0166
 1250TIP3    H2 3757   1.779   5.428   4.056 -1.5524 -0.3452 -1.9621
 1251TIP3   OH2 3758   1.668   2.003   4.046  0.2491 -0.0340 -0.6638
 1251TIP3    H1 3759   1.575   2.011   4.022  0.1806  0.0845 -0.3600
 1251TIP3    H2 3760   1.689   2.087   4.088  0.4985 -0.0556 -0.7444
 1252TIP3   OH2 3761   1.144   1.938   3.905  0.4888  0.3297 -0.2023
 1252TIP3    H1 3762   1.207   1.908   3.840 -0.1218  0.1300 -0.7090
 1252TIP3    H2 3763   1.061   1.945   3.858  0.3269  1.5330  0.2259
 1253TIP3   OH2 3764   5.172   0.448   4.254  0.5769 -0.3555 -0.7599
 1253TIP3    H1 3765   5.100   0.454   4.317  0.4754 -0.5900 -0.8509
 1253TIP3    H2 3766   5.171   0.533   4.209 -0.2459 -0.6854 -1.4015
 1254TIP3   OH2 3767   6.143   0.531   3.969  0.2205 -0.1885 -0.5011
 1254TIP3    H1 3768   6.174   0.616   4.000  0.0768 -0.6379  0.9770
 1254TIP3    H2 3769   6.051   0.545   3.950 -0.9939 -0.8929  3.8308
 1255TIP3   OH2 3770   3.183   0.973   0.033  0.5068  0.2537 -0.1080
 1255TIP3    H1 3771   3.266   0.932   0.059 -1.1123 -1.8315  2.2456
 1255TIP3    H2 3772   3.162   0.932  -0.051  1.6402  0.4678 -0.5074
 1256TIP3   OH2 3773   4.275   3.660   1.441 -0.5754  0.0707  0.3476
 1256TIP3    H1 3774   4.339   3.614   1.386 -0.0380 -1.0285  1.8186
 1256TIP3    H2 3775   4.199   3.671   1.385 -1.4881 -4.3396  0.3477
 1257TIP3   OH2 3776   2.079   1.039   0.494 -0.1245  0.2847 -0.1445
 1257TIP3    H1 3777   2.142   1.107   0.469  0.5014 -0.0415  0.4972
 1257TIP3    H2 3778   2.041   1.071   0.576  0.0741 -0.0729  0.0879
 1258TIP3   OH2 3779   4.469   5.136   2.590  0.7142 -0.8270 -0.1653
 1258TIP3    H1 3780   4.562   5.148   2.610  0.3532  0.5234  0.8547
 1258TIP3    H2 3781   4.437   5.224   2.572 -1.1743 -0.6103  3.3549
 1259TIP3   OH2 3782   0.523   2.862   3.505  0.3660 -0.2833 -0.0540
 1259TIP3    H1 3783   0.542   2.951   3.534 -0.5325 -0.4000  0.9441
 1259TIP3    H2 3784   0.580   2.849   3.429  1.3126  0.7484  0.4490
 1260TIP3   OH2 3785   4.682   0.706   4.150 -0.2342  0.4038 -0.0114
 1260TIP3    H1 3786   4.642   0.627   4.189  0.3910  0.6401  1.1437
 1260TIP3    H2 3787   4.709   0.678   4.062 -0.9365 -0.3805  0.0080
 1261TIP3   OH2 3788   2.564   5.982   3.688 -0.1827 -0.0090  0.1318
 1261TIP3    H1 3789   2.471   5.972   3.671  0.1964 -1.5721 -1.2145
 1261TIP3    H2 3790   2.608   5.941   3.613  1.5835 -2.3599  2.2348
 1262TIP3   OH2 3791   4.810   1.233   2.764 -0.4004  0.5954  0.2322
 1262TIP3    H1 3792   4.806   1.311   2.819 -1.0311 -0.8534  2.3642
 1262TIP3    H2 3793   4.845   1.165   2.822  0.6709 -0.5990 -1.7215
 1263TIP3   OH2 3794   6.244   0.127   2.962  0.0996  0.1521 -0.1966
 1263TIP3    H1 3795   6.332   0.138   2.927  0.1091  0.6050 -0.0335
 1263TIP3    H2 3796   6.187   0.131   2.885  0.3048 -1.5433 -0.4861
 1264TIP3   OH2 3797   1.530   4.593   2.775  0.1056 -0.0557 -0.2292
 1264TIP3    H1 3798   1.469   4.580   2.847 -0.3232  1.4303 -0.2944
 1264TIP3    H2 3799   1.486   4.555   2.699 -0.2798  0.0837 -0.0768
 1265TIP3   OH2 3800   1.369   5.539   0.561 -0.0912  0.8878 -0.1779
 1265TIP3    H1 3801   1.361   5.602   0.489  1.7363  0.1264 -1.1126
 1265TIP3    H2 3802   1.417   5.588   0.629  0.5234  0.8204 -0.5480
 1266TIP3   OH2 3803   4.162   0.756   3.019 -0.0667  0.2298  0.1909
 1266TIP3    H1 3804   4.117   0.779   3.100  0.8800  0.1086  0.7784
 1266TIP3    H2 3805   4.245   0.803   3.024  0.1092  0.0153 -0.5901
 1267TIP3   OH2 3806   2.911   4.962   3.477 -0.3879 -0.6994  0.0335
 1267TIP3    H1 3807   2.845   4.988   3.412  0.3050 -4.1878 -2.2998
 1267TIP3    H2 3808   2.979   5.028   3.469 -1.8186  0.8160 -0.2760
 1268TIP3   OH2 3809   3.052   0.922   2.089  0.4872 -0.0750 -0.4611
 1268TIP3    H1 3810   2.997   0.988   2.046 -0.3237 -0.6514 -0.3425
 1268TIP3    H2 3811   2.999   0.842   2.087  0.7379 -0.2930  0.9547
 1269TIP3   OH2 3812   3.207   3.121   0.426  0.6943  0.7026 -0.3360
 1269TIP3    H1 3813   3.255   3.198   0.458  1.6474 -0.9615  2.6310
 1269TIP3    H2 3814   3.121   3.127   0.467 -0.0690  1.2797 -1.9313
 1270TIP3   OH2 3815   0.395   2.727   1.921  0.6075  0.2022 -0.2878
 1270TIP3    H1 3816   0.365   2.817   1.937  0.9564  0.6044 -1.8295
 1270TIP3    H2 3817   0.468   2.715   1.982  0.8691  1.1255 -0.4116
 1271TIP3   OH2 3818   5.728   4.068   4.399 -0.3278 -0.3401 -0.1950
 1271TIP3    H1 3819   5.820   4.042   4.406 -0.4064 -1.3002 -1.9962
 1271TIP3    H2 3820   5.681   3.985   4.397 -1.0877  0.0982 -0.7500
 1272TIP3   OH2 3821   5.999   4.220   2.427 -0.1947 -0.7354  0.6015
 1272TIP3    H1 3822   6.085   4.183   2.443  0.0533 -0.1092  0.7439
 1272TIP3    H2 3823   5.978   4.194   2.337  0.7847  0.3335  0.0455
 1273TIP3   OH2 3824   3.556   4.221   1.677 -0.3739 -0.2886  0.6132
 1273TIP3    H1 3825   3.512   4.197   1.596  1.3619 -0.3658 -0.3513
 1273TIP3    H2 3826   3.549   4.143   1.732  1.0844 -1.3875 -0.6645
 1274TIP3   OH2 3827   2.837   1.289   1.392  0.3706 -0.2797 -0.0319
 1274TIP3    H1 3828   2.797   1.336   1.319  0.5882 -1.0462 -0.6666
 1274TIP3    H2 3829   2.928   1.276   1.364  0.0284 -2.0714 -0.3918
 1275TIP3   OH2 3830   3.100   2.255   2.940 -0.3307  0.2125  0.0223
 1275TIP3    H1 3831   3.091   2.186   2.874  1.4988  0.1384 -0.1867
 1275TIP3    H2 3832   3.040   2.229   3.010  0.8252 -2.0092  0.2769
 1276TIP3   OH2 3833   2.250   3.806   1.435 -0.4904 -0.2410  0.3775
 1276TIP3    H1 3834   2.158   3.800   1.412 -0.2201 -1.7645 -0.4494
 1276TIP3    H2 3835   2.274   3.717   1.460  0.4091  0.4193  2.0509
 1277TIP3   OH2 3836   4.336   5.590   4.478 -0.6146  0.5707  0.0355
 1277TIP3    H1 3837   4.269   5.597   4.546  0.0677 -0.4546  0.8179
 1277TIP3    H2 3838   4.417   5.570   4.524  0.3403  2.0689 -0.8684
 1278TIP3   OH2 3839   1.075   4.652   3.365 -0.5484  0.4575 -0.2113
 1278TIP3    H1 3840   0.981   4.672   3.358 -0.4691  0.3737 -2.2912
 1278TIP3    H2 3841   1.086   4.574   3.310  0.6858  0.2402  0.3198
 1279TIP3   OH2 3842   2.111   3.241   2.297  0.4699 -0.2555  0.0113
 1279TIP3    H1 3843   2.056   3.291   2.358  0.6836 -0.8567  0.7073
 1279TIP3    H2 3844   2.166   3.308   2.255 -1.8195  0.5708 -1.8633
 1280TIP3   OH2 3845   5.386   5.054   3.751  0.0870 -0.1919 -0.0021
 1280TIP3    H1 3846   5.409   4.970   3.712 -1.8295 -0.7100 -0.1227
 1280TIP3    H2 3847   5.386   5.038   3.845 -1.1027 -0.5770 -0.0575
 1281TIP3   OH2 3848   5.587   0.678   1.888  0.1740 -0.1855  0.0773
 1281TIP3    H1 3849   5.601   0.720   1.803  2.7943 -0.1987  0.3997
 1281TIP3    H2 3850   5.579   0.585   1.867  0.9304 -0.2035 -0.1682
 1282TIP3   OH2 3851   1.755   4.197   3.852 -0.0634  0.2544 -0.2706
 1282TIP3    H1 3852   1.808   4.260   3.803  2.0669  0.9380  2.6823
 1282TIP3    H2 3853   1.700   4.251   3.909 -1.3109 -0.5417 -0.6747
 1283TIP3   OH2 3854   3.281   3.546   4.341 -0.0741 -0.2352 -0.2939
 1283TIP3    H1 3855   3.220   3.501   4.282 -1.2785  0.1168  0.6430
 1283TIP3    H2 3856   3.279   3.637   4.312 -1.4445  0.1436  0.8541
 1284TIP3   OH2 3857   5.278   4.147   3.772  0.5156 -0.3846  0.3302
 1284TIP3    H1 3858   5.249   4.153   3.863  1.4358  1.0850  0.5605
 1284TIP3    H2 3859   5.344   4.077   3.773  0.0678 -0.8059  0.6677
 1285TIP3   OH2 3860   3.697   1.524   0.637  0.2856  0.4421  0.4374
 1285TIP3    H1 3861   3.607   1.550   0.657  0.5532  1.8499 -0.0614
 1285TIP3    H2 3862   3.742   1.526   0.721  0.6172  3.0507  0.2747
 1286TIP3   OH2 3863   0.766   5.598   5.166 -0.2886 -0.0329  0.2452
 1286TIP3    H1 3864   0.771   5.652   5.087  1.5522 -1.1161 -0.4533
 1286TIP3    H2 3865   0.717   5.651   5.228  0.5845  2.0242 -0.7147
 1287TIP3   OH2 3866   0.672   0.883   1.508 -0.5106 -0.6902  0.0805
 1287TIP3    H1 3867   0.649   0.970   1.540  0.7788 -1.4741  3.6905
 1287TIP3    H2 3868   0.700   0.835   1.587  1.6214 -3.4780 -2.1233
 1288TIP3   OH2 3869   3.065   2.377   4.289  0.3161 -0.2817 -0.1220
 1288TIP3    H1 3870   2.971   2.362   4.282  0.4950 -0.8374 -1.5804
 1288TIP3    H2 3871   3.100   2.297   4.328  0.1137  0.2115  1.1074
 1289TIP3   OH2 3872   2.700   5.575   1.048 -0.1614  0.3309 -0.0641
 1289TIP3    H1 3873   2.624   5.629   1.066  0.9925  1.6768  1.0247
 1289TIP3    H2 3874   2.718   5.589   0.955 -0.8576  0.5116 -0.1749
 1290TIP3   OH2 3875   4.047   2.702   0.370 -0.5599  0.2258  0.6618
 1290TIP3    H1 3876   3.967   2.694   0.421 -0.8803  1.2391  0.3356
 1290TIP3    H2 3877   4.034   2.780   0.316 -0.3748 -0.9575 -1.2113
 1291TIP3   OH2 3878   1.811   4.954   0.208 -0.5762  0.4272  0.4790
 1291TIP3    H1 3879   1.792   4.874   0.159  1.7433 -0.5760  1.1100
 1291TIP3    H2 3880   1.847   5.014   0.142 -0.9249  0.4383  0.2930
 1292TIP3   OH2 3881   1.837   0.837   3.017  0.0203  0.4001  0.2052
 1292TIP3    H1 3882   1.757   0.828   2.966  1.0117  0.7318 -1.4936
 1292TIP3    H2 3883   1.831   0.924   3.056  0.1456  1.0229 -1.0840
 1293TIP3   OH2 3884   0.122   0.204   1.442 -0.4978 -0.2961  0.1060
 1293TIP3    H1 3885   0.096   0.158   1.522  1.3915  0.0796  0.9769
 1293TIP3    H2 3886   0.071   0.161   1.373 -1.3632 -1.3628  1.3502
 1294TIP3   OH2 3887   3.156   1.892   3.595 -0.2007  0.5032  0.7603
 1294TIP3    H1 3888   3.095   1.864   3.527  0.0313 -0.8687  1.0820
 1294TIP3    H2 3889   3.117   1.861   3.677  1.7607 -2.1376  0.8322
 1295TIP3   OH2 3890   0.447   0.091   4.632  0.1150  0.0855 -0.2789
 1295TIP3    H1 3891   0.447   0.037   4.712 -0.7683  0.6567  0.1129
 1295TIP3    H2 3892   0.391   0.043   4.571 -1.7767  1.1722  0.5211
 1296TIP3   OH2 3893   3.631   0.402   4.282 -0.5187 -0.1946  0.4813
 1296TIP3    H1 3894   3.611   0.489   4.249 -2.2825 -0.7829 -0.1005
 1296TIP3    H2 3895   3.641   0.413   4.376 -2.3951  0.3893  0.6420
 1297TIP3   OH2 3896   5.076   3.835   0.850  0.2415  0.1931  0.1846
 1297TIP3    H1 3897   5.113   3.915   0.887  0.9106  0.7284 -1.5352
 1297TIP3    H2 3898   5.016   3.803   0.917  0.7938  1.5238  1.3700
 1298TIP3   OH2 3899   1.876   4.515   3.120  0.2371 -0.0644 -0.2071
 1298TIP3    H1 3900   1.808   4.491   3.182  0.2217  0.9415  0.1760
 1298TIP3    H2 3901   1.853   4.468   3.040  0.5083 -1.7263  0.6475
 1299TIP3   OH2 3902   1.328   5.755   4.249  0.3757 -0.2684  0.4584
 1299TIP3    H1 3903   1.412   5.732   4.209 -0.3658  0.6806 -1.8418
 1299TIP3    H2 3904   1.263   5.717   4.191 -0.8207 -0.8721  2.1305
 1300TIP3   OH2 3905   1.828   1.384   3.355 -0.3785  0.6190 -0.6682
 1300TIP3    H1 3906   1.874   1.423   3.280 -0.8609  3.4032  0.3590
 1300TIP3    H2 3907   1.755   1.336   3.316 -0.5832  1.9492 -2.0188
 1301TIP3   OH2 3908   5.251   2.263   1.291 -0.1429 -0.0245  0.5241
 1301TIP3    H1 3909   5.339   2.278   1.326  0.1781 -1.0974  0.2191
 1301TIP3    H2 3910   5.195   2.320   1.343  0.6527  0.2354  1.1252
 1302TIP3   OH2 3911   2.743   1.402   2.819  0.0234  0.4924 -0.2170
 1302TIP3    H1 3912   2.792   1.453   2.884  1.6637 -0.4346 -0.6869
 1302TIP3    H2 3913   2.733   1.462   2.745  1.0272  0.4901 -0.3655
 1303TIP3   OH2 3914   0.608   2.144   4.171 -0.1315 -0.5131 -0.5062
 1303TIP3    H1 3915   0.630   2.093   4.248  0.8767  0.6611  0.0342
 1303TIP3    H2 3916   0.677   2.123   4.108 -0.7025 -1.1342 -0.9277
 1304TIP3   OH2 3917   5.718   1.811   5.003 -0.0265 -0.2977  0.6728
 1304TIP3    H1 3918   5.763   1.727   5.004 -0.6993 -0.6620  0.5913
 1304TIP3    H2 3919   5.638   1.795   4.953  0.0316  0.4882  0.3087
 1305TIP3   OH2 3920   0.406   2.712   4.115  0.2943  0.0992  0.0028
 1305TIP3    H1 3921   0.438   2.725   4.204  0.9771  2.4857 -0.5255
 1305TIP3    H2 3922   0.478   2.670   4.069  0.2121 -0.4586  0.3672
 1306TIP3   OH2 3923   5.901   1.984   1.012 -0.0479  0.4267 -0.3756
 1306TIP3    H1 3924   5.947   1.988   0.928  1.1456  0.5850  0.2557
 1306TIP3    H2 3925   5.963   1.941   1.070 -1.5886 -1.3987 -0.0137
 1307TIP3   OH2 3926   4.661   3.334   0.973 -0.6860 -0.0085  0.0394
 1307TIP3    H1 3927   4.626   3.417   1.003 -0.0687  0.3923 -0.3298
 1307TIP3    H2 3928   4.754   3.351   0.957 -0.3621 -0.9831  0.7604
 1308TIP3   OH2 3929   1.923   1.178   1.466 -0.1756  0.0035 -0.6445
 1308TIP3    H1 3930   2.010   1.168   1.427  0.7967  1.8124  0.9155
 1308TIP3    H2 3931   1.925   1.119   1.542 -0.3521 -0.0179 -0.6566
 1309TIP3   OH2 3932   0.318   0.549   1.284  0.0719  0.1206  0.0321
 1309TIP3    H1 3933   0.265   0.561   1.205  0.7637 -0.3609 -0.5224
 1309TIP3    H2 3934   0.322   0.637   1.323 -1.4866  0.0680  0.3329
 1310TIP3   OH2 3935   3.135   0.345   4.867  0.0834 -0.1002 -0.6035
 1310TIP3    H1 3936   3.078   0.418   4.892 -0.7383 -1.2756  1.1520
 1310TIP3    H2 3937   3.188   0.328   4.944  1.5162 -0.2687 -1.5787
 1311TIP3   OH2 3938   4.822   0.388   4.714  0.1891  0.3681  0.0783
 1311TIP3    H1 3939   4.757   0.365   4.781  1.0663 -0.5740  0.6240
 1311TIP3    H2 3940   4.904   0.395   4.762  1.2509 -2.3187 -1.1395
 1312TIP3   OH2 3941   0.106   3.938   3.740  0.9286 -0.2662 -0.3446
 1312TIP3    H1 3942   0.069   3.916   3.655  0.4835  2.9292 -1.1162
 1312TIP3    H2 3943   0.149   4.022   3.727  2.2265 -0.4126  2.2464
 1313TIP3   OH2 3944   0.157   4.087   0.377  0.2531 -0.1563 -0.3980
 1313TIP3    H1 3945   0.214   4.163   0.386  2.1071 -1.1919 -2.3328
 1313TIP3    H2 3946   0.167   4.060   0.285  0.2815 -3.1543  0.3751
 1314TIP3   OH2 3947   1.936   2.888   3.797  0.2474 -0.2068  0.1612
 1314TIP3    H1 3948   1.952   2.962   3.855 -0.9472  0.7811 -0.7250
 1314TIP3    H2 3949   1.986   2.816   3.836 -0.9745  0.2277  2.7754
 1315TIP3   OH2 3950   3.839   5.883   3.436 -0.4213  0.1348  0.1961
 1315TIP3    H1 3951   3.854   5.928   3.519 -1.1368 -0.9576  0.9399
 1315TIP3    H2 3952   3.864   5.792   3.453  0.0783  0.0237 -0.9936
 1316TIP3   OH2 3953   2.094   0.848   1.422  0.3500 -0.1140 -0.5337
 1316TIP3    H1 3954   2.072   0.761   1.387 -1.5558 -0.4685  1.3302
 1316TIP3    H2 3955   2.139   0.892   1.350 -1.0641 -1.6877 -2.5050
 1317TIP3   OH2 3956   2.712   2.009   2.354 -0.0740 -0.4877  0.1202
 1317TIP3    H1 3957   2.624   1.972   2.344 -0.2742  0.0609 -0.2523
 1317TIP3    H2 3958   2.766   1.937   2.385 -0.1977 -1.3898 -1.6747
 1318TIP3   OH2 3959   1.004   0.519   0.328  0.2834 -0.2867  1.0077
 1318TIP3    H1 3960   0.920   0.516   0.282  1.8274  2.9015 -2.6652
 1318TIP3    H2 3961   1.055   0.448   0.289  0.5717  0.4500 -0.0138
 1319TIP3   OH2 3962   2.011   3.497   2.398 -0.2537  0.3898  0.1638
 1319TIP3    H1 3963   2.021   3.548   2.318 -1.7437 -1.0035 -0.9826
 1319TIP3    H2 3964   2.064   3.543   2.463  2.2847  0.6991 -1.9779
 1320TIP3   OH2 3965   5.010   0.779   4.215 -0.0184 -0.6116  0.3478
 1320TIP3    H1 3966   5.080   0.735   4.166 -0.4416 -0.2737 -0.5796
 1320TIP3    H2 3967   4.992   0.859   4.165 -0.3393 -0.1593  1.1587
 1321TIP3   OH2 3968   2.975   4.331   3.579 -0.2609  0.3314  0.1453
 1321TIP3    H1 3969   2.890   4.288   3.576 -0.9576  1.6933 -1.7209
 1321TIP3    H2 3970   2.957   4.418   3.615  0.4153  0.4852  0.1271
 1322TIP3   OH2 3971   3.563   3.174   0.030  0.1513 -0.2737 -0.8801
 1322TIP3    H1 3972   3.553   3.243   0.095 -0.2720  0.4040 -1.6380
 1322TIP3    H2 3973   3.474   3.158  -0.002  0.4024 -0.2134 -1.6498
 1323TIP3   OH2 3974   3.468   3.213   1.579 -0.1808  0.0846  0.3993
 1323TIP3    H1 3975   3.478   3.155   1.655  1.6457 -2.0867 -1.3398
 1323TIP3    H2 3976   3.437   3.155   1.509  1.1357  1.2951 -1.2737
 1324TIP3   OH2 3977   1.704   2.304   3.407  0.1360  0.1683 -0.3111
 1324TIP3    H1 3978   1.718   2.379   3.465 -2.0090 -0.2136  0.7836
 1324TIP3    H2 3979   1.620   2.267   3.434  0.1667 -1.4422 -2.1548
 1325TIP3   OH2 3980   0.634   3.218   0.536  0.2879 -0.2373  0.6471
 1325TIP3    H1 3981   0.687   3.139   0.548  0.0820 -0.3119  1.1016
 1325TIP3    H2 3982   0.676   3.265   0.463  1.1094 -0.1864  1.1378
 1326TIP3   OH2 3983   3.873   2.982   3.609 -0.2355  0.3129 -0.4740
 1326TIP3    H1 3984   3.936   3.034   3.660 -0.0984  1.4585 -1.7610
 1326TIP3    H2 3985   3.854   3.035   3.532 -2.1383 -0.4006 -0.5521
 1327TIP3   OH2 3986   3.920   2.890   4.196  0.3365 -0.5610 -0.1001
 1327TIP3    H1 3987   3.902   2.977   4.162  0.2036 -1.0083 -1.2226
 1327TIP3    H2 3988   3.859   2.879   4.269  0.5619  0.3912  0.2361
 1328TIP3   OH2 3989   1.269   1.581   4.189 -0.1727  0.4471 -0.0743
 1328TIP3    H1 3990   1.312   1.497   4.202  1.4219  1.1764 -0.4285
 1328TIP3    H2 3991   1.329   1.646   4.226 -2.3035  1.3151  2.1347
 1329TIP3   OH2 3992   0.202   3.945   2.499 -0.1188  0.7901  0.3682
 1329TIP3    H1 3993   0.247   4.013   2.449 -1.6383  1.9294  0.4576
 1329TIP3    H2 3994   0.177   3.988   2.580  3.6226 -1.4256  2.9759
 1330TIP3   OH2 3995   4.001   4.725   1.025 -0.7167  0.3158 -0.1320
 1330TIP3    H1 3996   3.955   4.727   0.941  1.6193  2.9879 -1.5082
 1330TIP3    H2 3997   3.955   4.789   1.079 -1.1991 -0.1932  0.0773
 1331TIP3   OH2 3998   1.519   2.194   2.980 -0.2257 -0.3896  0.0453
 1331TIP3    H1 3999   1.591   2.201   3.043 -0.7721 -0.0889  0.6461
 1331TIP3    H2 4000   1.519   2.102   2.954 -0.6317 -0.7498  1.2569
 1332TIP3   OH2 4001   6.236   0.331   1.267  0.7911  0.4416  0.3218
 1332TIP3    H1 4002   6.171   0.312   1.199  1.7556  0.4712 -0.6222
 1332TIP3    H2 4003   6.254   0.246   1.307 -0.0101  0.4713  0.7607
 1333TIP3   OH2 4004   1.755   3.735   3.059 -0.3400 -0.6915  0.6809
 1333TIP3    H1 4005   1.712   3.786   3.128  0.0044 -1.1971  1.2809
 1333TIP3    H2 4006   1.716   3.649   3.065  1.0592 -1.3101  1.5612
 1334TIP3   OH2 4007   4.610   1.916   3.311 -0.5818 -0.1355  0.2124
 1334TIP3    H1 4008   4.672   1.923   3.384  0.6364 -0.5967 -0.7488
 1334TIP3    H2 4009   4.574   2.005   3.302  2.1679  0.9695 -1.0870
 1335TIP3   OH2 4010   3.921   5.715   0.424 -0.0652 -0.2593  0.3042
 1335TIP3    H1 4011   3.985   5.782   0.399  0.8320 -1.1678  0.0697
 1335TIP3    H2 4012   3.850   5.763   0.466  1.0602  0.7267  1.1453
 1336TIP3   OH2 4013   0.810   4.686   3.319  0.1319  0.1629  0.8735
 1336TIP3    H1 4014   0.724   4.657   3.351 -0.1916  0.5935  0.4059
 1336TIP3    H2 4015   0.790   4.755   3.256  0.7603 -0.7036 -0.3138
 1337TIP3   OH2 4016   1.439   3.762   4.612  0.3016  0.2354 -0.4298
 1337TIP3    H1 4017   1.511   3.823   4.605  0.8307 -0.2817  0.2822
 1337TIP3    H2 4018   1.432   3.721   4.526 -1.0193  2.3083 -1.3798
 1338TIP3   OH2 4019   1.233   4.698   2.452  0.1276 -0.2313  0.2971
 1338TIP3    H1 4020   1.243   4.709   2.546  1.0863  0.7679  0.1064
 1338TIP3    H2 4021   1.323   4.697   2.419 -0.1887 -0.8067 -0.5912
 1339TIP3   OH2 4022   2.388   1.658   2.637  0.4711  0.1839  0.2297
 1339TIP3    H1 4023   2.357   1.740   2.601 -0.1508  0.0477  0.4383
 1339TIP3    H2 4024   2.341   1.648   2.720 -1.7791 -1.7992 -1.1328
 1340TIP3   OH2 4025   1.644   5.809   2.503  0.1039  0.0251  0.2609
 1340TIP3    H1 4026   1.729   5.846   2.526  1.5727 -1.9527 -1.5316
 1340TIP3    H2 4027   1.660   5.715   2.501 -2.4426 -0.4759  0.8599
 1341TIP3   OH2 4028   5.975   1.253   1.924  0.0881  0.1311  0.8084
 1341TIP3    H1 4029   6.053   1.264   1.977  1.7511 -1.0021 -1.2479
 1341TIP3    H2 4030   6.005   1.263   1.834 -2.2688  0.2854 -0.0406
 1342TIP3   OH2 4031   0.849   4.625   2.453  0.0019 -0.1493 -0.4649
 1342TIP3    H1 4032   0.809   4.541   2.431 -0.2003 -0.0611 -0.4389
 1342TIP3    H2 4033   0.919   4.636   2.389 -0.0212 -0.3031 -0.5162
 1343TIP3   OH2 4034   2.728   3.380   3.623  0.0332  0.7597 -0.1263
 1343TIP3    H1 4035   2.728   3.470   3.590  0.6408  0.8434  0.0831
 1343TIP3    H2 4036   2.810   3.342   3.591  0.7533  0.9136  1.4345
 1344TIP3   OH2 4037   4.314   2.594   1.862  0.4154 -0.6587  0.8204
 1344TIP3    H1 4038   4.385   2.604   1.926  1.1681  0.5526 -0.1460
 1344TIP3    H2 4039   4.348   2.530   1.799  0.3308 -0.6721  0.7882
 1345TIP3   OH2 4040   5.225   0.149   0.380 -0.2123 -0.6516 -0.6399
 1345TIP3    H1 4041   5.148   0.108   0.420 -0.3769 -0.8603 -1.1575
 1345TIP3    H2 4042   5.293   0.144   0.448 -0.3397 -1.4526 -0.5615
 1346TIP3   OH2 4043   2.778   4.087   0.504  0.2772  0.0610 -0.5303
 1346TIP3    H1 4044   2.805   4.006   0.548 -2.2335 -0.5971 -0.0198
 1346TIP3    H2 4045   2.806   4.157   0.563  0.7246 -0.5587  0.0068
 1347TIP3   OH2 4046   2.263   0.515   1.609  0.2490  0.2568 -0.5620
 1347TIP3    H1 4047   2.244   0.422   1.625 -2.3494  0.7669 -0.2873
 1347TIP3    H2 4048   2.254   0.525   1.514 -0.6841  0.4522 -0.4581
 1348TIP3   OH2 4049   0.420   0.704   3.993  0.2283 -0.0894  0.0964
 1348TIP3    H1 4050   0.439   0.796   4.014 -0.8460  0.5864 -1.6493
 1348TIP3    H2 4051   0.490   0.655   4.035  2.0817  1.7099 -0.7321
 1349TIP3   OH2 4052   1.536   3.484   0.332  0.3811  0.1996 -0.5524
 1349TIP3    H1 4053   1.482   3.517   0.259  1.4601 -0.2190 -1.5683
 1349TIP3    H2 4054   1.600   3.427   0.290  0.7849 -0.3648  0.7908
 1350TIP3   OH2 4055   0.502   4.090   3.246 -0.0866 -0.5851  0.1112
 1350TIP3    H1 4056   0.502   4.112   3.340  1.6022 -2.1745  0.5347
 1350TIP3    H2 4057   0.594   4.095   3.220 -0.2172 -2.5162 -0.8659
 1351TIP3   OH2 4058   1.794   1.278   0.076 -0.0995 -0.1315  0.3203
 1351TIP3    H1 4059   1.794   1.315  -0.013  0.7823  2.1442  1.2061
 1351TIP3    H2 4060   1.879   1.235   0.084  0.0294  0.1180  0.2682
 1352TIP3   OH2 4061   4.804   0.311   0.476  0.1979 -0.0263  0.3487
 1352TIP3    H1 4062   4.780   0.361   0.554  0.5788 -0.5978  0.8335
 1352TIP3    H2 4063   4.860   0.241   0.508 -0.5820 -0.9580 -0.2866
 1353TIP3   OH2 4064   1.546   3.528   1.539 -0.4305 -0.2249  0.8781
 1353TIP3    H1 4065   1.620   3.589   1.538 -1.0896  0.6485 -1.5507
 1353TIP3    H2 4066   1.488   3.559   1.470 -2.1527 -2.0287  1.4132
 1354TIP3   OH2 4067   5.805   3.768   0.954  0.3314 -0.4278 -0.5865
 1354TIP3    H1 4068   5.891   3.800   0.930  1.2227  1.2835  3.8073
 1354TIP3    H2 4069   5.749   3.846   0.953 -0.0755 -0.6852  0.4735
 1355TIP3   OH2 4070   4.970   2.682   3.795  0.3524  0.0038 -0.3740
 1355TIP3    H1 4071   4.942   2.597   3.827 -1.2024 -0.1422 -1.9749
 1355TIP3    H2 4072   4.930   2.745   3.855  1.5285 -0.3487  0.8296
 1356TIP3   OH2 4073   3.508   0.283   2.686 -0.2179 -0.2326 -0.0057
 1356TIP3    H1 4074   3.524   0.220   2.615 -1.3164  1.7298 -2.1459
 1356TIP3    H2 4075   3.440   0.243   2.739 -0.1352 -1.3033 -0.6762
 1357TIP3   OH2 4076   1.539   4.789   3.737 -0.4003  0.0631 -0.4289
 1357TIP3    H1 4077   1.570   4.699   3.746 -0.5493 -0.0680 -1.2043
 1357TIP3    H2 4078   1.613   4.843   3.764 -0.6656 -0.2859  1.1428
 1358TIP3   OH2 4079   2.617   1.708   3.336  0.1540  0.1942 -0.3123
 1358TIP3    H1 4080   2.597   1.707   3.430 -0.9155  0.1937 -0.5197
 1358TIP3    H2 4081   2.539   1.748   3.297 -0.1158 -1.2910 -1.3548
 1359TIP3   OH2 4082   3.478   3.160   4.440 -0.4515  0.2534 -0.5722
 1359TIP3    H1 4083   3.384   3.140   4.431 -0.8124  1.4905  0.1484
 1359TIP3    H2 4084   3.496   3.222   4.370 -0.3298  0.4917 -0.3323
 1360TIP3   OH2 4085   4.513   4.364   0.111 -0.0243 -0.1757 -0.7217
 1360TIP3    H1 4086   4.435   4.417   0.096  1.1968  1.2071 -2.6318
 1360TIP3    H2 4087   4.502   4.289   0.052  0.1830  0.1312 -1.1536
 1361TIP3   OH2 4088   3.126   5.394   0.048 -0.5774 -0.3238  0.2582
 1361TIP3    H1 4089   3.066   5.368   0.118  1.5739 -0.5707  2.1051
 1361TIP3    H2 4090   3.127   5.319  -0.012 -0.8334 -1.0200  1.0979
 1362TIP3   OH2 4091   4.936   5.088   0.302  0.2492 -0.1448  0.2019
 1362TIP3    H1 4092   4.959   5.047   0.218 -0.2436 -0.7729  0.3637
 1362TIP3    H2 4093   4.841   5.078   0.307 -0.0531  2.0610 -0.2918
 1363TIP3   OH2 4094   5.900   4.347   5.149 -0.5669  0.3611  0.1274
 1363TIP3    H1 4095   5.910   4.269   5.203  1.3304  0.2271 -0.3443
 1363TIP3    H2 4096   5.913   4.316   5.060 -2.2134  0.8325 -0.3046
 1364TIP3   OH2 4097   5.893   2.234   3.944  0.5188  0.4199 -0.1775
 1364TIP3    H1 4098   5.836   2.171   3.989  1.1528 -0.3043 -0.3614
 1364TIP3    H2 4099   5.958   2.179   3.899  0.7039  1.1853 -0.8660
 1365TIP3   OH2 4100   5.497   3.414   2.129  0.1950 -0.3161  0.1080
 1365TIP3    H1 4101   5.487   3.492   2.074  1.8443 -0.0142  0.2021
 1365TIP3    H2 4102   5.442   3.348   2.087 -1.5308  0.9676  0.2255
 1366TIP3   OH2 4103   3.177   4.863   5.080 -0.3274 -0.1334  0.0410
 1366TIP3    H1 4104   3.272   4.856   5.071 -0.3410 -0.2398 -0.0306
 1366TIP3    H2 4105   3.162   4.949   5.119 -0.2112 -0.0398 -0.1204
 1367TIP3   OH2 4106   2.723   0.549   1.615 -0.3551  0.3414 -0.0792
 1367TIP3    H1 4107   2.780   0.608   1.665  0.0970  1.2977 -1.6766
 1367TIP3    H2 4108   2.640   0.596   1.609 -1.6053 -1.2598  2.6793
 1368TIP3   OH2 4109   0.310   0.372   1.778 -0.1389 -0.2693 -0.0507
 1368TIP3    H1 4110   0.283   0.414   1.697 -1.0099 -1.2373 -0.2757
 1368TIP3    H2 4111   0.396   0.335   1.758  0.4132  0.9210  0.0008
 1369TIP3   OH2 4112   4.701   2.156   1.727  0.0601  0.3401  0.5607
 1369TIP3    H1 4113   4.756   2.107   1.666  0.3014 -1.4131  2.0995
 1369TIP3    H2 4114   4.731   2.247   1.718  1.5757 -0.2082 -0.3408
 1370TIP3   OH2 4115   1.313   4.947   3.670 -0.4484 -0.3727 -0.3742
 1370TIP3    H1 4116   1.346   5.037   3.669 -1.8515  0.2093 -2.7637
 1370TIP3    H2 4117   1.388   4.895   3.701  1.1263  1.3815 -1.0230
 1371TIP3   OH2 4118   4.884  -0.004   0.726  0.0897  0.0032 -0.1205
 1371TIP3    H1 4119   4.916   0.034   0.808  0.3706 -0.4261 -0.0275
 1371TIP3    H2 4120   4.802   0.041   0.709  0.3038  0.4807  0.1122
 1372TIP3   OH2 4121   0.897   3.378   4.106 -0.0225  0.0611 -0.6248
 1372TIP3    H1 4122   0.911   3.385   4.201  2.2183  2.3332 -1.0195
 1372TIP3    H2 4123   0.816   3.427   4.091  0.2711  0.7573  0.0011
 1373TIP3   OH2 4124   3.727   4.372   3.947  0.2318 -0.5927 -0.5778
 1373TIP3    H1 4125   3.690   4.361   3.859 -1.3532 -0.7935  0.0718
 1373TIP3    H2 4126   3.712   4.288   3.990 -0.4227 -0.0129  0.3655
 1374TIP3   OH2 4127   1.854   4.847   0.531 -0.1599  0.6839 -0.2012
 1374TIP3    H1 4128   1.815   4.935   0.534 -1.6102  0.0638  1.3267
 1374TIP3    H2 4129   1.930   4.852   0.589 -1.8014  0.3241  2.1149
 1375TIP3   OH2 4130   0.482   3.451   4.515 -0.0572 -0.4443 -0.5450
 1375TIP3    H1 4131   0.428   3.393   4.569 -0.3621 -0.4574 -0.8572
 1375TIP3    H2 4132   0.513   3.394   4.444 -1.4828  0.0646 -1.6348
 1376TIP3   OH2 4133   0.032   4.372   2.674 -0.2078  0.2841 -0.0025
 1376TIP3    H1 4134   0.057   4.390   2.583 -0.2608  1.1809  0.1557
 1376TIP3    H2 4135  -0.051   4.419   2.686 -0.3807 -0.1169  0.4115
 1377TIP3   OH2 4136   6.142   0.100   3.249  0.1160  0.0688 -0.0100
 1377TIP3    H1 4137   6.116   0.010   3.234 -0.8823  0.1076  1.3102
 1377TIP3    H2 4138   6.208   0.094   3.318 -1.2566  0.4374  1.3920
 1378TIP3   OH2 4139   2.652   4.894   0.743  0.2104 -0.3704  0.6239
 1378TIP3    H1 4140   2.704   4.937   0.810  0.5957  0.0318  0.0696
 1378TIP3    H2 4141   2.714   4.837   0.697 -0.2103 -1.2390  1.0978
 1379TIP3   OH2 4142   3.853   3.834   3.627 -0.0098  0.1725  0.5157
 1379TIP3    H1 4143   3.773   3.840   3.575 -1.0904 -2.4587  1.6910
 1379TIP3    H2 4144   3.921   3.809   3.565 -0.3648  1.1566 -0.2842
 1380TIP3   OH2 4145   5.133   5.236   2.854 -0.1213  0.0804 -0.3335
 1380TIP3    H1 4146   5.158   5.232   2.762  1.2585 -1.2272  0.0535
 1380TIP3    H2 4147   5.104   5.146   2.875 -0.0101  0.2504  0.6118
 1381TIP3   OH2 4148   0.216   2.282   4.682  0.6933 -0.0820 -0.6347
 1381TIP3    H1 4149   0.175   2.360   4.645  0.8464 -0.2758 -1.2174
 1381TIP3    H2 4150   0.234   2.226   4.607  1.1696 -0.4055 -0.2863
 1382TIP3   OH2 4151   5.684   4.743   5.107 -0.2476 -0.0835  0.3622
 1382TIP3    H1 4152   5.766   4.793   5.114 -0.0505 -0.6496  2.7062
 1382TIP3    H2 4153   5.622   4.790   5.163 -0.7663 -1.1097  0.6797
 1383TIP3   OH2 4154   1.657   4.974   4.107 -0.2550 -0.3794  0.0744
 1383TIP3    H1 4155   1.636   4.901   4.166  0.4641 -0.8978 -0.3034
 1383TIP3    H2 4156   1.749   4.962   4.086 -0.3944  0.0613 -0.8036
 1384TIP3   OH2 4157   1.167   1.706   2.242  0.3392  0.1921 -0.0123
 1384TIP3    H1 4158   1.231   1.766   2.281 -0.1237  0.7766 -0.1489
 1384TIP3    H2 4159   1.203   1.619   2.260  0.8083  0.4907  0.5450
 1385TIP3   OH2 4160   2.654   0.927   2.816 -0.1177  0.2393  0.2252
 1385TIP3    H1 4161   2.736   0.909   2.770  0.5473 -0.4183  1.6076
 1385TIP3    H2 4162   2.601   0.849   2.803 -0.2957  0.4177 -0.1534
 1386TIP3   OH2 4163   5.030   0.114   3.634 -0.0379 -0.6223  0.3462
 1386TIP3    H1 4164   5.100   0.119   3.569  0.0629 -1.6934  0.3521
 1386TIP3    H2 4165   5.019   0.204   3.664 -0.5681  0.0341 -1.6385
 1387TIP3   OH2 4166   3.208   5.617   1.177 -0.2770 -0.8100  0.0251
 1387TIP3    H1 4167   3.134   5.585   1.229 -0.2632 -1.2292 -0.2088
 1387TIP3    H2 4168   3.206   5.712   1.188 -1.6290 -0.6915 -1.0110
 1388TIP3   OH2 4169   2.831   5.915   4.963 -0.2194 -0.1609  0.5319
 1388TIP3    H1 4170   2.809   5.945   4.875  1.3728 -0.5929 -0.0472
 1388TIP3    H2 4171   2.796   5.826   4.967  0.1924 -0.3448  0.1212
 1389TIP3   OH2 4172   1.553   2.155   0.611 -0.4823 -0.6375  0.4789
 1389TIP3    H1 4173   1.516   2.131   0.525  0.4109  0.7727 -0.3317
 1389TIP3    H2 4174   1.644   2.129   0.606  0.0333  1.0883  0.2879
 1390TIP3   OH2 4175   2.944   5.743   0.316 -0.7670  0.3063  0.2335
 1390TIP3    H1 4176   2.978   5.672   0.369 -0.7916 -0.2707 -0.5002
 1390TIP3    H2 4177   3.021   5.777   0.270 -1.0608 -0.6409 -1.0104
 1391TIP3   OH2 4178   1.610   3.930   5.201 -0.5014 -0.3869 -0.3636
 1391TIP3    H1 4179   1.549   3.992   5.161  0.5128 -1.3791 -3.7616
 1391TIP3    H2 4180   1.592   3.847   5.157  1.1053 -1.4818  0.9278
 1392TIP3   OH2 4181   2.584   0.997   0.293  0.3585  0.0101  0.1027
 1392TIP3    H1 4182   2.545   1.023   0.210 -0.6757 -1.0232  0.2380
 1392TIP3    H2 4183   2.523   1.027   0.360  0.3007 -0.6963  0.3824
 1393TIP3   OH2 4184   4.524   5.210   5.100  0.4026 -0.6675 -0.2263
 1393TIP3    H1 4185   4.480   5.277   5.151  0.2915 -1.4806  0.7921
 1393TIP3    H2 4186   4.576   5.258   5.036  1.6764  0.4800  1.5587
 1394TIP3   OH2 4187   4.287   1.823   1.943  0.4464 -0.1338  0.2015
 1394TIP3    H1 4188   4.373   1.797   1.910  1.9318  2.1069  1.9672
 1394TIP3    H2 4189   4.277   1.775   2.025 -1.1695 -2.2078 -1.1040
 1395TIP3   OH2 4190   3.977   3.136   2.538 -0.6113  0.4738  0.6599
 1395TIP3    H1 4191   4.055   3.149   2.592 -0.0753 -0.3849  0.1134
 1395TIP3    H2 4192   3.930   3.064   2.580 -0.4206  0.1027  0.2528
 1396TIP3   OH2 4193   3.163   1.690   1.769  0.2258 -0.2285  0.1003
 1396TIP3    H1 4194   3.088   1.631   1.773  0.2520 -0.2023  2.1930
 1396TIP3    H2 4195   3.222   1.650   1.705 -0.4211 -1.6800  0.3670
 1397TIP3   OH2 4196   2.896   1.130   1.970 -0.1007  0.5164  0.6318
 1397TIP3    H1 4197   2.945   1.167   1.897  0.5924 -3.7644 -1.3552
 1397TIP3    H2 4198   2.805   1.131   1.941  0.1000 -0.6001 -0.0904
 1398TIP3   OH2 4199   2.582   2.701   3.379 -0.0819 -0.1584  0.3774
 1398TIP3    H1 4200   2.539   2.760   3.317 -0.0397 -0.0392  0.4625
 1398TIP3    H2 4201   2.523   2.696   3.454  0.0828  0.0548  0.5213
 1399TIP3   OH2 4202   1.361   1.309   3.435  0.2901 -0.3956 -0.6618
 1399TIP3    H1 4203   1.363   1.384   3.494 -0.2100 -0.7854 -0.1457
 1399TIP3    H2 4204   1.428   1.329   3.369  0.6901  0.1541 -0.1031
 1400TIP3   OH2 4205   0.989   3.344   2.169  0.8823 -0.2681  0.5671
 1400TIP3    H1 4206   1.048   3.344   2.245  1.4954 -0.2758  0.0956
 1400TIP3    H2 4207   1.039   3.386   2.100  0.3182 -0.2541  0.1658
 1401TIP3   OH2 4208   2.090   4.053   0.536 -0.2045  0.4160 -0.2026
 1401TIP3    H1 4209   2.170   4.095   0.504 -0.0575 -0.2458 -0.7176
 1401TIP3    H2 4210   2.025   4.070   0.467 -0.5456  1.0425  0.2613
 1402TIP3   OH2 4211   2.911   0.954   3.419  0.1452  0.2077 -0.1973
 1402TIP3    H1 4212   2.973   1.027   3.414  0.0172  0.3734  0.4891
 1402TIP3    H2 4213   2.963   0.877   3.395  0.9234  0.1898  1.3822
 1403TIP3   OH2 4214   5.347   4.919   1.790  0.1379 -0.5964  0.4965
 1403TIP3    H1 4215   5.274   4.860   1.774  0.1848 -0.5130 -0.0424
 1403TIP3    H2 4216   5.325   4.998   1.742 -0.1613  0.0271  1.6250
 1404TIP3   OH2 4217   4.241   5.921   0.513 -0.3034 -0.4000 -0.4135
 1404TIP3    H1 4218   4.306   5.991   0.506  0.1939 -0.6474  1.4152
 1404TIP3    H2 4219   4.167   5.953   0.462  0.0440  1.3085  0.0826
 1405TIP3   OH2 4220   6.115   3.124   4.255 -0.0004 -0.4437 -0.5041
 1405TIP3    H1 4221   6.089   3.216   4.252 -2.6150 -0.9538  1.9824
 1405TIP3    H2 4222   6.139   3.109   4.347  2.8167 -1.7329 -1.3418
 1406TIP3   OH2 4223   3.791   2.203   2.584 -0.2903 -0.6556  0.2770
 1406TIP3    H1 4224   3.847   2.227   2.658  0.5925  1.6574 -1.0225
 1406TIP3    H2 4225   3.837   2.130   2.543  0.5691 -0.3174  0.5909
 1407TIP3   OH2 4226   1.435   5.984   2.776 -0.4762  0.2632 -0.0420
 1407TIP3    H1 4227   1.454   5.976   2.869 -0.9271  0.5764  0.0796
 1407TIP3    H2 4228   1.435   5.893   2.744  3.3624  0.2645 -0.5254
 1408TIP3   OH2 4229   4.880   2.861   3.461  0.0421 -0.5310 -0.5255
 1408TIP3    H1 4230   4.933   2.792   3.421  0.7158  0.0283 -0.6274
 1408TIP3    H2 4231   4.910   2.941   3.419 -0.0603 -0.0646  0.2692
 1409TIP3   OH2 4232   5.218   2.231   2.811  0.0604 -0.1462 -0.0689
 1409TIP3    H1 4233   5.124   2.248   2.816  0.1847  0.2728  3.0930
 1409TIP3    H2 4234   5.225   2.139   2.784 -1.1854  0.0556 -1.1642
 1410TIP3   OH2 4235   1.553   0.959   4.081  0.7705  0.1406 -0.3508
 1410TIP3    H1 4236   1.551   0.870   4.046 -1.1555  0.3360 -0.8406
 1410TIP3    H2 4237   1.567   0.947   4.175  0.6975 -0.6704 -0.4355
 1411TIP3   OH2 4238   4.735   0.339   2.209 -0.0493  1.2906 -0.2995
 1411TIP3    H1 4239   4.813   0.385   2.177  1.9390 -0.1931  2.0475
 1411TIP3    H2 4240   4.724   0.368   2.299 -1.6199  0.6971 -0.2681
 1412TIP3   OH2 4241   4.989   0.377   0.248  0.2076  0.2518 -0.2864
 1412TIP3    H1 4242   4.997   0.471   0.266  0.4536  0.1309  0.2700
 1412TIP3    H2 4243   4.935   0.344   0.320 -0.8708  0.1592 -1.1177
 1413TIP3   OH2 4244   3.124   3.095   2.552 -0.1128  0.0792 -0.7029
 1413TIP3    H1 4245   3.053   3.107   2.615 -0.9245  1.9851 -1.9165
 1413TIP3    H2 4246   3.195   3.056   2.604 -1.8733 -1.5586  0.6089
 1414TIP3   OH2 4247   4.415   3.964   2.729  0.0556  0.1458  0.0221
 1414TIP3    H1 4248   4.491   4.022   2.738  0.6589 -0.8298  1.5926
 1414TIP3    H2 4249   4.347   4.020   2.693  1.2419  1.2786 -0.5589
 1415TIP3   OH2 4250   5.739   1.890   0.387  0.2032  0.0883  0.3882
 1415TIP3    H1 4251   5.669   1.903   0.323  0.7494  2.1391  0.1458
 1415TIP3    H2 4252   5.768   1.800   0.372 -1.2608 -0.2526 -0.6305
 1416TIP3   OH2 4253   1.800   3.009   4.557  0.2368  0.2230 -0.3730
 1416TIP3    H1 4254   1.724   2.953   4.538 -0.2674  0.8743 -0.3227
 1416TIP3    H2 4255   1.777   3.053   4.639 -0.0254  1.6097 -1.1675
 1417TIP3   OH2 4256   4.516   4.240   2.013  0.4383 -0.4565  0.1498
 1417TIP3    H1 4257   4.477   4.306   2.070  0.1397 -0.0887 -0.4627
 1417TIP3    H2 4258   4.449   4.172   2.005  1.1945 -1.4433  1.7408
 1418TIP3   OH2 4259   1.745   0.951   3.758 -0.1730  0.6282 -0.1891
 1418TIP3    H1 4260   1.774   1.019   3.819  1.0286  0.2360 -0.2860
 1418TIP3    H2 4261   1.728   0.875   3.814  0.4315  0.4216 -0.2789
 1419TIP3   OH2 4262   0.215   3.676   3.278 -0.0451  0.1107 -0.0246
 1419TIP3    H1 4263   0.165   3.690   3.198 -0.7997 -1.0118  0.2136
 1419TIP3    H2 4264   0.298   3.722   3.264 -0.4106  0.4399 -1.1947
 1420TIP3   OH2 4265   3.016   1.100   1.141 -0.8844 -0.0855 -0.1759
 1420TIP3    H1 4266   2.955   1.043   1.094 -0.0464  0.0540 -1.4690
 1420TIP3    H2 4267   2.964   1.176   1.166 -1.8350 -1.0544  0.9376
 1421TIP3   OH2 4268   5.007   4.704   2.778 -0.0859  0.1729  0.2549
 1421TIP3    H1 4269   4.941   4.760   2.819  0.0102 -0.3379  1.1585
 1421TIP3    H2 4270   5.004   4.623   2.830  0.9838  0.0055  0.0705
 1422TIP3   OH2 4271   5.993   5.479   4.779  0.5205  0.2359  0.5597
 1422TIP3    H1 4272   6.083   5.451   4.760  0.6883 -1.7910  3.7227
 1422TIP3    H2 4273   6.002   5.542   4.850 -0.5553 -1.6655  2.5021
 1423TIP3   OH2 4274   6.128   0.961   4.742 -0.6193 -0.5600  0.3225
 1423TIP3    H1 4275   6.117   0.885   4.684 -1.1261 -0.5572  0.4108
 1423TIP3    H2 4276   6.179   0.927   4.817  2.4096  0.0313 -1.2921
 1424TIP3   OH2 4277   6.006   1.916   0.076 -0.0425 -0.2027  0.5998
 1424TIP3    H1 4278   5.920   1.918   0.119 -0.9820  0.7617 -1.2190
 1424TIP3    H2 4279   6.030   1.823   0.076  0.9291 -0.1720  4.7566
 1425TIP3   OH2 4280   4.155   4.369   4.398 -0.4002 -0.1852  0.2057
 1425TIP3    H1 4281   4.089   4.351   4.465 -1.0139  2.1086  0.2902
 1425TIP3    H2 4282   4.177   4.461   4.409  0.4775 -0.0817 -1.8850
 1426TIP3   OH2 4283   1.420   4.514   4.685 -0.3900 -0.2986 -0.5698
 1426TIP3    H1 4284   1.467   4.496   4.767  2.3293 -1.4966 -2.2383
 1426TIP3    H2 4285   1.366   4.436   4.671 -2.3729  0.7325  0.9604
 1427TIP3   OH2 4286   3.920   1.877   4.904  0.0111  0.3554 -0.0312
 1427TIP3    H1 4287   3.988   1.857   4.968  0.3704  0.7783 -0.2686
 1427TIP3    H2 4288   3.842   1.831   4.935 -0.1896  1.6076  1.4179
 1428TIP3   OH2 4289   0.932   4.366   4.023  0.4220 -0.5258 -0.0177
 1428TIP3    H1 4290   0.870   4.341   3.955  1.6315 -1.2951 -0.8683
 1428TIP3    H2 4291   0.961   4.454   3.998 -0.1504 -0.2449  0.2752
 1429TIP3   OH2 4292   4.878   4.731   4.121  0.2292 -0.0572  0.3387
 1429TIP3    H1 4293   4.847   4.698   4.206 -0.6906  1.5450  0.6725
 1429TIP3    H2 4294   4.849   4.823   4.119 -0.5401 -0.2886 -2.0812
 1430TIP3   OH2 4295   6.079   0.688   3.515  0.3685 -0.1507 -0.0760
 1430TIP3    H1 4296   6.109   0.728   3.597  1.7056  0.9722 -1.0666
 1430TIP3    H2 4297   6.020   0.753   3.476  0.4242 -0.3040 -0.4189
 1431TIP3   OH2 4298   0.516   4.982   2.048 -0.1120  0.1101 -0.4105
 1431TIP3    H1 4299   0.469   4.899   2.034  0.7247 -0.3035 -0.8640
 1431TIP3    H2 4300   0.505   5.001   2.141 -1.7362  0.3817 -0.6296
 1432TIP3   OH2 4301   3.498   0.118   3.721 -0.2447  0.2067 -0.5278
 1432TIP3    H1 4302   3.580   0.121   3.771  0.8440  1.1173 -2.2759
 1432TIP3    H2 4303   3.462   0.031   3.738  1.4433 -0.4741 -0.2871
 1433TIP3   OH2 4304   5.581   0.560   0.140  0.2883 -0.0248 -0.1936
 1433TIP3    H1 4305   5.643   0.487   0.137 -0.3833 -0.5626 -1.3917
 1433TIP3    H2 4306   5.536   0.550   0.224  1.8197  0.3948  0.7187
 1434TIP3   OH2 4307   2.456   0.726   2.868  0.0468  0.2494  0.3465
 1434TIP3    H1 4308   2.373   0.686   2.841 -0.6994  1.3769  0.8731
 1434TIP3    H2 4309   2.494   0.662   2.928 -0.3409 -0.3678 -0.0438
 1435TIP3   OH2 4310   6.122   5.825   1.978  0.0568 -0.2563 -0.0456
 1435TIP3    H1 4311   6.069   5.750   1.950 -1.4372  0.7551 -0.0512
 1435TIP3    H2 4312   6.058   5.892   2.003  1.2922  1.7668 -1.9225
 1436TIP3   OH2 4313   4.331   0.990   2.760  0.6543 -0.2641 -0.5656
 1436TIP3    H1 4314   4.409   1.045   2.751  1.5218 -1.2281  0.6496
 1436TIP3    H2 4315   4.329   0.967   2.853 -1.4860  0.2791 -0.4320
 1437TIP3   OH2 4316   4.854   2.475   0.178  0.3069 -0.2778  0.0206
 1437TIP3    H1 4317   4.901   2.504   0.099  0.8221 -0.5011  0.2394
 1437TIP3    H2 4318   4.908   2.404   0.213 -0.0749 -0.3768  0.4126
 1438TIP3   OH2 4319   0.899   1.291   0.030 -0.3629 -0.1430 -0.4032
 1438TIP3    H1 4320   0.811   1.324   0.016 -0.2363  0.3203 -0.1138
 1438TIP3    H2 4321   0.898   1.203  -0.008 -1.0613 -0.2899 -0.0594
 1439TIP3   OH2 4322   0.976   5.241   4.585  0.8539  0.5679  0.6648
 1439TIP3    H1 4323   1.006   5.246   4.494  0.4225 -0.9477  0.4094
 1439TIP3    H2 4324   0.937   5.327   4.602 -2.8911 -0.3640 -1.9943
 1440TIP3   OH2 4325   3.005   2.287   2.495  0.0302  0.6961  0.2236
 1440TIP3    H1 4326   3.056   2.357   2.535  0.1663  0.6140  0.1962
 1440TIP3    H2 4327   2.971   2.237   2.569  1.6311 -0.4287  0.2565
 1441TIP3   OH2 4328   0.373   4.702   5.030  0.5311  0.3377  0.0938
 1441TIP3    H1 4329   0.306   4.708   4.962  0.0582 -1.1843  0.3817
 1441TIP3    H2 4330   0.362   4.782   5.082  0.5254  1.2508 -1.2527
 1442TIP3   OH2 4331   0.955   0.036   4.252  0.5016 -0.6928  0.0840
 1442TIP3    H1 4332   0.956   0.006   4.343  1.2777  0.9562  0.6557
 1442TIP3    H2 4333   0.904  -0.031   4.205 -1.1960 -0.8418  1.9942
 1443TIP3   OH2 4334   2.189   4.420   2.999 -0.1646 -0.1374 -0.0463
 1443TIP3    H1 4335   2.141   4.337   3.007 -0.7804  0.2701  0.5980
 1443TIP3    H2 4336   2.235   4.413   2.915  0.5037 -1.5013  0.4070
 1444TIP3   OH2 4337   2.599   2.531   2.438 -0.1028 -0.5909 -0.6607
 1444TIP3    H1 4338   2.688   2.556   2.463  0.2804 -1.1982 -1.3722
 1444TIP3    H2 4339   2.606   2.437   2.417 -1.2377 -1.0545  0.8078
 1445TIP3   OH2 4340   0.032   0.632   4.258 -0.3191  0.1954  0.2560
 1445TIP3    H1 4341   0.098   0.701   4.263  0.5429 -0.5409 -0.5189
 1445TIP3    H2 4342  -0.016   0.652   4.177 -0.6965  0.4202  0.5329
 1446TIP3   OH2 4343   5.387   3.277   0.247 -0.1537  0.7138  0.0869
 1446TIP3    H1 4344   5.478   3.299   0.263  0.3202 -1.4371  0.6754
 1446TIP3    H2 4345   5.353   3.252   0.333 -0.4484 -1.2246 -0.5272
 1447TIP3   OH2 4346   5.233   1.678   2.291 -0.5593  0.5890  0.2073
 1447TIP3    H1 4347   5.185   1.599   2.315 -1.0919  0.4595 -1.2211
 1447TIP3    H2 4348   5.314   1.646   2.250 -0.3903  0.8006  0.3675
 1448TIP3   OH2 4349   1.341   5.365   0.248 -0.4872  0.0716 -0.2375
 1448TIP3    H1 4350   1.282   5.439   0.231 -1.5564 -0.8886 -0.8808
 1448TIP3    H2 4351   1.335   5.311   0.169  2.0980  0.4457 -0.7757
 1449TIP3   OH2 4352   0.476   2.642   0.629  0.2428  0.0955 -0.2417
 1449TIP3    H1 4353   0.503   2.692   0.552  3.4048 -0.5894  0.2909
 1449TIP3    H2 4354   0.497   2.551   0.607  0.3563 -0.2196  1.0720
 1450TIP3   OH2 4355   3.232   0.119   0.744  0.0244  0.9277 -0.4716
 1450TIP3    H1 4356   3.199   0.157   0.826  1.5645  2.0705 -0.3578
 1450TIP3    H2 4357   3.154   0.078   0.705 -0.7535  0.3561  1.5367
 1451TIP3   OH2 4358   4.014   4.423   2.329  0.1234 -0.2026 -0.1367
 1451TIP3    H1 4359   4.056   4.401   2.246 -0.7961 -1.9702 -0.1938
 1451TIP3    H2 4360   3.920   4.411   2.312 -0.2084  1.0741  0.6982
 1452TIP3   OH2 4361   0.487   5.106   4.679  0.0151 -0.1072 -0.7310
 1452TIP3    H1 4362   0.485   5.012   4.700  0.8036  0.0868  0.3321
 1452TIP3    H2 4363   0.569   5.119   4.632  0.2087  0.1481 -0.3286
 1453TIP3   OH2 4364   2.475   0.681   1.658 -0.6325  0.3719  0.1092
 1453TIP3    H1 4365   2.424   0.760   1.644  0.1386  0.7193 -0.8905
 1453TIP3    H2 4366   2.422   0.611   1.620 -2.5950 -0.1145  3.3604
 1454TIP3   OH2 4367   5.493   2.217   1.822  0.7825  0.1857 -0.3829
 1454TIP3    H1 4368   5.444   2.294   1.792 -1.1080  0.1850  2.2933
 1454TIP3    H2 4369   5.527   2.243   1.908 -1.0746 -2.2940  1.2440
 1455TIP3   OH2 4370   4.368   0.930   3.052 -0.1873  0.0212  0.2656
 1455TIP3    H1 4371   4.373   1.002   3.115  2.1568  1.2285 -1.1670
 1455TIP3    H2 4372   4.459   0.904   3.037 -0.8086 -1.5325 -1.2045
 1456TIP3   OH2 4373   5.595   2.659   1.112 -0.2856 -0.6680  0.4675
 1456TIP3    H1 4374   5.552   2.743   1.096 -0.5086 -0.8515  0.1026
 1456TIP3    H2 4375   5.673   2.660   1.056 -0.2975 -0.7110  0.4500
 1457TIP3   OH2 4376   6.047   2.553   4.472  0.0817 -0.6094  0.1837
 1457TIP3    H1 4377   6.099   2.519   4.545  0.3446 -0.1377  0.2194
 1457TIP3    H2 4378   5.960   2.515   4.485 -0.8506  1.9971  2.6644
 1458TIP3   OH2 4379   2.858   4.812   3.137 -0.2584  0.0840  0.2727
 1458TIP3    H1 4380   2.897   4.803   3.223  0.6558 -2.7491 -0.3417
 1458TIP3    H2 4381   2.785   4.873   3.150 -0.4936 -0.6644  3.1510
 1459TIP3   OH2 4382   3.354   1.903   1.194  0.1580  0.1570 -0.2358
 1459TIP3    H1 4383   3.368   1.841   1.266  0.8421 -0.0215 -0.5102
 1459TIP3    H2 4384   3.278   1.869   1.148 -0.8466  0.7750  0.9216
 1460TIP3   OH2 4385   4.292   2.375   3.893  0.5440 -0.2939  0.0195
 1460TIP3    H1 4386   4.283   2.392   3.800  1.0915 -1.1961 -0.2119
 1460TIP3    H2 4387   4.358   2.437   3.923  1.3315 -0.8638 -0.4789
 1461TIP3   OH2 4388   0.592   1.288   1.799 -0.0104 -0.5294 -0.2473
 1461TIP3    H1 4389   0.642   1.368   1.783 -0.2015 -0.6216 -1.3971
 1461TIP3    H2 4390   0.503   1.318   1.817  0.6413 -0.2629  3.2704
 1462TIP3   OH2 4391   5.831   4.335   2.636 -0.1402 -0.0455 -0.0579
 1462TIP3    H1 4392   5.858   4.426   2.632  0.4969 -0.2736 -1.1960
 1462TIP3    H2 4393   5.877   4.292   2.564  0.7072 -1.5636  1.2922
 1463TIP3   OH2 4394   5.009   1.504   3.195 -0.5920 -0.4176 -0.2928
 1463TIP3    H1 4395   4.919   1.496   3.162  0.2313 -1.4856 -2.4535
 1463TIP3    H2 4396   5.048   1.575   3.145 -0.1447 -0.0798  0.5056
 1464TIP3   OH2 4397   6.272   4.384   1.766 -0.2697  0.2832  0.4765
 1464TIP3    H1 4398   6.270   4.415   1.856  1.5463  0.3862  0.5078
 1464TIP3    H2 4399   6.320   4.301   1.770 -0.2667  0.2354 -0.3853
 1465TIP3   OH2 4400   4.439   4.878   2.994 -0.0780  0.0835 -0.1573
 1465TIP3    H1 4401   4.510   4.842   2.941 -0.1425 -1.4104  0.7171
 1465TIP3    H2 4402   4.481   4.909   3.073 -0.3603 -0.7574  0.3418
 1466TIP3   OH2 4403   3.012   4.694   3.378  0.0203  0.4019  0.0687
 1466TIP3    H1 4404   3.026   4.601   3.360  0.5331  0.1362  1.6536
 1466TIP3    H2 4405   3.076   4.739   3.324  1.9384 -0.3828  1.5897
 1467TIP3   OH2 4406   0.086   0.771   1.031 -0.3045  0.5006  0.1157
 1467TIP3    H1 4407   0.080   0.798   0.939 -1.0250  0.6642  0.2050
 1467TIP3    H2 4408   0.176   0.789   1.055  0.6751 -1.9560 -1.3014
 1468TIP3   OH2 4409   3.606  -0.007   1.879  0.2893 -0.0504  0.1997
 1468TIP3    H1 4410   3.622   0.086   1.867  2.1494 -0.2771  0.6622
 1468TIP3    H2 4411   3.541  -0.029   1.811 -0.0680  1.5258  0.0002
 1469TIP3   OH2 4412   4.157   4.193   0.047  0.3286  0.2419  0.0082
 1469TIP3    H1 4413   4.250   4.203   0.023 -0.0907 -1.6386 -2.8846
 1469TIP3    H2 4414   4.150   4.104   0.081 -0.2774  0.7756  1.3797
 1470TIP3   OH2 4415   0.572   4.665   2.307  0.6983 -1.6399  0.1531
 1470TIP3    H1 4416   0.650   4.627   2.267  0.9795 -1.4058  0.4737
 1470TIP3    H2 4417   0.517   4.690   2.233  0.8797 -1.9055 -0.0721
 1471TIP3   OH2 4418   5.806   0.794   4.467  0.5797  1.0944  0.2458
 1471TIP3    H1 4419   5.877   0.754   4.416 -0.1391 -0.5236  0.4523
 1471TIP3    H2 4420   5.736   0.809   4.403 -0.1212 -0.4398  0.6093
 1472TIP3   OH2 4421   4.805   3.660   5.103 -0.4626  0.0293  0.7148
 1472TIP3    H1 4422   4.803   3.574   5.062 -0.4163  0.3464  0.0213
 1472TIP3    H2 4423   4.760   3.649   5.186  1.8905 -1.3006  1.9240
 1473TIP3   OH2 4424   3.207   2.319   1.519  0.3560 -0.3762 -0.0524
 1473TIP3    H1 4425   3.160   2.247   1.561  0.7403 -0.6615 -0.0993
 1473TIP3    H2 4426   3.182   2.396   1.569  0.9668 -0.7407  0.8555
 1474TIP3   OH2 4427   5.805   3.558   1.156  0.3170 -0.1870  0.2621
 1474TIP3    H1 4428   5.816   3.617   1.230 -2.0568  0.3246  0.2775
 1474TIP3    H2 4429   5.788   3.616   1.081  0.3769 -0.7643 -0.2045
 1475TIP3   OH2 4430   4.183   2.881   1.861  0.5326 -0.0321 -0.5274
 1475TIP3    H1 4431   4.173   2.966   1.818  2.0597  0.8231  0.6915
 1475TIP3    H2 4432   4.277   2.865   1.859  0.5377 -0.5013  1.4314
 1476TIP3   OH2 4433   4.839   2.955   1.247  0.2535  0.0393  0.2205
 1476TIP3    H1 4434   4.874   3.000   1.324  1.3616  1.3727 -0.9936
 1476TIP3    H2 4435   4.789   3.022   1.201 -1.2207 -0.9963  0.2354
 1477TIP3   OH2 4436   3.319   4.277   1.442 -0.6786  0.1567  0.4158
 1477TIP3    H1 4437   3.357   4.263   1.356 -0.2280 -0.3421  0.6873
 1477TIP3    H2 4438   3.336   4.369   1.461  0.2476 -0.0033  0.4433
 1478TIP3   OH2 4439   0.717   0.007   4.660  0.0423  0.0975 -0.1251
 1478TIP3    H1 4440   0.769   0.017   4.740  1.7782 -0.7555 -1.1111
 1478TIP3    H2 4441   0.664   0.087   4.656 -0.2350  0.0738  1.9558
 1479TIP3   OH2 4442   6.357   2.568   1.119  0.1354 -0.0951 -0.0092
 1479TIP3    H1 4443   6.376   2.577   1.025 -2.2892  1.1508 -0.4635
 1479TIP3    H2 4444   6.286   2.503   1.123  0.8546 -0.8469  1.0838
 1480TIP3   OH2 4445   6.332   5.764   1.314 -0.5031 -0.2869  0.0654
 1480TIP3    H1 4446   6.378   5.712   1.248 -1.0180 -0.9819  0.2371
 1480TIP3    H2 4447   6.281   5.699   1.364  0.8090  0.0318  1.9542
 1481TIP3   OH2 4448   1.802   3.261   5.129  0.3458  0.4893  0.3625
 1481TIP3    H1 4449   1.794   3.173   5.092 -1.7620  0.9157 -0.3312
 1481TIP3    H2 4450   1.797   3.248   5.223 -0.2769 -0.1159  0.2497
 1482TIP3   OH2 4451   0.871   1.688   2.266  0.1950  0.1459  0.0769
 1482TIP3    H1 4452   0.964   1.669   2.272  0.1286 -1.0613 -1.7624
 1482TIP3    H2 4453   0.833   1.650   2.345  1.1460 -0.2991  0.3255
 1483TIP3   OH2 4454   5.674   3.225   1.023  0.3070 -0.4503 -0.4083
 1483TIP3    H1 4455   5.626   3.274   1.089  0.1041 -0.3325 -0.6413
 1483TIP3    H2 4456   5.633   3.139   1.022 -0.6281 -0.0239 -1.3630
 1484TIP3   OH2 4457   2.427   3.541   4.601  0.2886 -0.2132 -0.8192
 1484TIP3    H1 4458   2.449   3.571   4.689  1.4376 -0.2582 -1.0731
 1484TIP3    H2 4459   2.336   3.569   4.587  0.3924  0.5663  0.0400
 1485TIP3   OH2 4460   0.640   4.443   2.943 -0.1131 -0.9181 -0.0945
 1485TIP3    H1 4461   0.573   4.477   2.884  0.3573 -0.0835 -0.1567
 1485TIP3    H2 4462   0.591   4.413   3.020 -0.5139  0.2646  0.1292
 1486TIP3   OH2 4463   4.923   4.305   4.066  0.0477  0.7169  1.0043
 1486TIP3    H1 4464   4.849   4.351   4.026  0.0115  0.5545  0.8816
 1486TIP3    H2 4465   4.995   4.369   4.064  0.7261 -0.0161 -1.4647
 1487TIP3   OH2 4466   6.309   5.813   3.706  0.2070 -0.4801  0.2967
 1487TIP3    H1 4467   6.354   5.752   3.764 -0.9908 -0.9259  0.7902
 1487TIP3    H2 4468   6.217   5.803   3.728 -0.1983 -0.0569 -1.1243
 1488TIP3   OH2 4469   4.829   4.839   2.335 -0.0579 -0.4130 -0.0296
 1488TIP3    H1 4470   4.919   4.842   2.302 -0.4923  0.5889 -1.1826
 1488TIP3    H2 4471   4.827   4.904   2.405 -0.6982  2.0937 -2.2443
 1489TIP3   OH2 4472   3.726   4.407   0.519  0.2496  0.5697  0.0116
 1489TIP3    H1 4473   3.718   4.497   0.550 -1.7790 -0.0559  1.4593
 1489TIP3    H2 4474   3.697   4.410   0.428 -0.9198  1.2049  0.3902
 1490TIP3   OH2 4475   4.655   5.234   1.472 -0.0153  0.0996  0.2370
 1490TIP3    H1 4476   4.694   5.148   1.462  1.7715  0.9136 -0.1306
 1490TIP3    H2 4477   4.700   5.273   1.547 -0.8799  0.6849  0.4719
 1491TIP3   OH2 4478   1.812   4.083   5.107 -0.0083 -0.0289 -0.5852
 1491TIP3    H1 4479   1.755   4.033   5.165 -0.5771 -0.1140 -1.2095
 1491TIP3    H2 4480   1.754   4.117   5.040  0.3147  1.7506 -0.0004
 1492TIP3   OH2 4481   2.763   0.482   2.452  0.6225  0.2437 -0.7632
 1492TIP3    H1 4482   2.754   0.390   2.431 -1.2172 -0.0398  0.8696
 1492TIP3    H2 4483   2.759   0.527   2.368  1.7550 -1.1479 -1.5989
 1493TIP3   OH2 4484   0.899   1.443   4.128 -0.6820  0.1943 -0.2828
 1493TIP3    H1 4485   0.843   1.511   4.163 -2.6242 -0.9678 -0.9921
 1493TIP3    H2 4486   0.881   1.366   4.182  0.8341 -0.0160 -0.0354
 1494TIP3   OH2 4487   3.925   4.665   3.656  0.0985 -0.4744 -0.0920
 1494TIP3    H1 4488   4.004   4.707   3.621 -0.8094  0.5838 -0.9228
 1494TIP3    H2 4489   3.857   4.685   3.592 -0.9298 -1.0935  0.7818
 1495TIP3   OH2 4490   5.662   4.472   1.379  0.2224 -0.3092  0.1640
 1495TIP3    H1 4491   5.750   4.454   1.413  0.1451 -1.6247 -0.2981
 1495TIP3    H2 4492   5.609   4.488   1.457  0.4206 -1.5835  0.5776
 1496TIP3   OH2 4493   4.241   1.574   1.429  0.2412 -0.3356  0.0126
 1496TIP3    H1 4494   4.286   1.522   1.496  0.7961  0.8623  0.5921
 1496TIP3    H2 4495   4.282   1.660   1.433 -0.1684 -0.0391 -1.4307
 1497TIP3   OH2 4496   4.791   1.642   4.711  0.1637  0.6313  0.3503
 1497TIP3    H1 4497   4.828   1.727   4.732 -0.9548  1.7356 -1.8324
 1497TIP3    H2 4498   4.697   1.651   4.726 -0.1522  0.2786 -1.2174
 1498TIP3   OH2 4499   2.698   1.184   3.403 -0.1942 -0.5493 -0.5428
 1498TIP3    H1 4500   2.644   1.206   3.326 -0.1576  0.9629 -0.1522
 1498TIP3    H2 4501   2.736   1.267   3.431 -0.1541 -1.0839  1.0880
 1499TIP3   OH2 4502   3.324   1.733   2.565 -0.5386  0.0317 -0.0616
 1499TIP3    H1 4503   3.315   1.677   2.488  2.0161 -0.6511  0.0706
 1499TIP3    H2 4504   3.343   1.820   2.529  1.5607 -0.4677 -0.2454
 1500TIP3   OH2 4505   1.729   1.822   4.920 -0.3962 -0.1333  0.1526
 1500TIP3    H1 4506   1.716   1.835   4.826 -0.9963 -2.5986 -0.1953
 1500TIP3    H2 4507   1.738   1.910   4.956 -1.0011  0.9190 -2.0867
 1501TIP3   OH2 4508   1.201   2.134   2.953  0.0031  0.5013 -0.6962
 1501TIP3    H1 4509   1.262   2.061   2.954  0.7369  1.1002 -0.4813
 1501TIP3    H2 4510   1.194   2.158   2.860 -1.7483 -1.0425 -1.0161
 1502TIP3   OH2 4511   3.997   1.509   0.774 -0.1308 -0.2981 -0.1306
 1502TIP3    H1 4512   3.934   1.551   0.833 -0.0680 -0.7607  0.2822
 1502TIP3    H2 4513   4.082   1.532   0.809 -0.0924 -0.5572 -0.0506
 1503TIP3   OH2 4514   0.977   4.961   2.114  0.5394  0.9006  0.2929
 1503TIP3    H1 4515   0.929   5.043   2.103  0.9913  1.1954  0.5144
 1503TIP3    H2 4516   0.940   4.903   2.047 -0.4970  0.9464  0.7985
 1504TIP3   OH2 4517   2.177   2.647   0.361 -0.2778 -0.0658 -0.2188
 1504TIP3    H1 4518   2.144   2.619   0.276  0.0233 -0.6355 -0.1487
 1504TIP3    H2 4519   2.148   2.579   0.422  1.0020 -0.5648 -0.1505
 1505TIP3   OH2 4520   0.287   4.960   3.144 -0.1463  0.1274  0.7633
 1505TIP3    H1 4521   0.200   4.947   3.107  0.1713 -1.9852  0.6316
 1505TIP3    H2 4522   0.289   4.902   3.220  0.8116  0.9270  1.3757
 1506TIP3   OH2 4523   1.656   0.178   2.759 -0.1824 -0.4381  0.0614
 1506TIP3    H1 4524   1.738   0.128   2.764  0.2233  0.0579 -1.2257
 1506TIP3    H2 4525   1.595   0.129   2.813  0.9685 -0.8090  1.0622
 1507TIP3   OH2 4526   5.297   0.194   1.803  0.0947 -0.4013 -0.5343
 1507TIP3    H1 4527   5.336   0.159   1.883  2.0283 -0.0627 -1.2650
 1507TIP3    H2 4528   5.259   0.118   1.759 -2.6214 -0.3532  1.4744
 1508TIP3   OH2 4529   4.416   2.695   1.442 -0.3444  0.2478 -0.8992
 1508TIP3    H1 4530   4.323   2.697   1.462 -0.7014 -1.3717 -2.1650
 1508TIP3    H2 4531   4.419   2.684   1.347  1.1294 -0.3206 -0.8086
 1509TIP3   OH2 4532   3.225   2.075   2.738  0.1864  0.6691 -0.0939
 1509TIP3    H1 4533   3.277   2.148   2.704  0.3752  0.2281 -0.7899
 1509TIP3    H2 4534   3.248   2.002   2.681  0.1889  0.0027  0.7467
 1510TIP3   OH2 4535   0.679   2.982   1.296  0.0755  0.0834  0.0772
 1510TIP3    H1 4536   0.711   2.893   1.284  1.0932  0.2214  1.5022
 1510TIP3    H2 4537   0.605   2.989   1.236  0.6768 -1.3408 -0.8967
 1511TIP3   OH2 4538   5.471   0.258   4.631  0.9959 -0.2527  0.3019
 1511TIP3    H1 4539   5.401   0.309   4.591 -0.9750 -2.8648  0.1497
 1511TIP3    H2 4540   5.431   0.218   4.708  2.9726 -0.1879  1.4423
 1512TIP3   OH2 4541   3.801   1.557   3.233 -0.1543  0.0618 -0.2014
 1512TIP3    H1 4542   3.776   1.608   3.310  1.0761 -0.0294  0.2900
 1512TIP3    H2 4543   3.897   1.565   3.229 -0.2146  0.3447 -1.9208
 1513TIP3   OH2 4544   2.700   1.008   3.655  0.2771 -0.2510  0.7813
 1513TIP3    H1 4545   2.735   1.084   3.700 -0.5337  1.0449 -0.6871
 1513TIP3    H2 4546   2.622   0.984   3.706 -0.9440  1.5373 -0.1503
 1514TIP3   OH2 4547   1.191   4.297   1.081 -0.5320  0.2928 -0.2622
 1514TIP3    H1 4548   1.272   4.347   1.075 -0.7851  0.7532  0.1166
 1514TIP3    H2 4549   1.214   4.210   1.048  0.2414  0.2690  0.3151
 1515TIP3   OH2 4550   1.011   4.201   0.428  0.4876 -0.6566  0.0742
 1515TIP3    H1 4551   1.015   4.265   0.357 -2.0444  1.1609  1.4271
 1515TIP3    H2 4552   1.077   4.230   0.490  0.0968  0.0406  0.1785
 1516TIP3   OH2 4553   1.471   3.860   2.361 -0.0132 -0.1153  0.4406
 1516TIP3    H1 4554   1.390   3.839   2.408 -1.4845  0.7727 -1.5729
 1516TIP3    H2 4555   1.471   3.800   2.286  1.7538 -0.8075  0.9450
 1517TIP3   OH2 4556   5.082   1.768   0.363  0.1939  0.2552 -0.4357
 1517TIP3    H1 4557   5.162   1.808   0.329 -0.8771  2.3183 -0.6727
 1517TIP3    H2 4558   5.060   1.819   0.440 -1.6255  0.6612 -1.1661
 1518TIP3   OH2 4559   0.694   0.171   1.505  0.1675  0.1900  0.1744
 1518TIP3    H1 4560   0.722   0.083   1.477 -0.2716  0.4274 -1.0997
 1518TIP3    H2 4561   0.774   0.222   1.506  0.5470 -0.3967  1.6744
 1519TIP3   OH2 4562   3.076   4.910   2.427 -0.2903 -0.5771 -0.3676
 1519TIP3    H1 4563   2.984   4.905   2.452 -0.0817 -0.2916  0.4778
 1519TIP3    H2 4564   3.123   4.872   2.501  0.2099 -1.8653 -1.2983
 1520TIP3   OH2 4565   4.102   5.519   1.995  0.0873 -0.0813  0.4978
 1520TIP3    H1 4566   4.070   5.597   1.950  1.0206  0.5187  0.8431
 1520TIP3    H2 4567   4.029   5.457   1.992  0.4988 -0.6508 -3.1029
 1521TIP3   OH2 4568   3.067   2.136   1.643 -0.1775  0.4254  0.1183
 1521TIP3    H1 4569   3.151   2.096   1.668 -0.0865  0.7034  0.2677
 1521TIP3    H2 4570   3.004   2.065   1.651  0.1567  0.0156 -0.7252
 1522TIP3   OH2 4571   1.472   3.499   0.961 -0.9277  0.2427  0.1150
 1522TIP3    H1 4572   1.416   3.552   0.905  1.2079  2.9757  0.3476
 1522TIP3    H2 4573   1.468   3.542   1.047  0.5058 -0.2121  0.4392
 1523TIP3   OH2 4574   4.734   4.416   3.517  0.1915  0.1355  0.3920
 1523TIP3    H1 4575   4.758   4.495   3.566 -0.3085  0.6321 -0.1474
 1523TIP3    H2 4576   4.666   4.446   3.456  1.9727 -0.0629 -1.8284
 1524TIP3   OH2 4577   3.466   5.584   3.396 -0.3725 -0.0786  0.0932
 1524TIP3    H1 4578   3.407   5.539   3.457 -0.7260 -2.1324 -1.6236
 1524TIP3    H2 4579   3.521   5.639   3.451 -1.2596 -1.1534  2.1573
 1525TIP3   OH2 4580   2.578   1.659   2.316 -0.2861 -0.3013  0.2668
 1525TIP3    H1 4581   2.567   1.576   2.362 -0.7144  0.8219  2.3281
 1525TIP3    H2 4582   2.489   1.683   2.288 -0.2121 -0.3818 -0.0386
 1526TIP3   OH2 4583   2.781   1.048   1.491 -0.4951  0.1535 -0.1810
 1526TIP3    H1 4584   2.789   1.133   1.448  0.3818  1.2368  1.9543
 1526TIP3    H2 4585   2.743   1.068   1.576 -0.1111 -1.5788  0.4330
 1527TIP3   OH2 4586   4.192   0.379   4.746 -0.0606  0.6480  0.3615
 1527TIP3    H1 4587   4.199   0.474   4.755  1.4301  0.7068 -1.0133
 1527TIP3    H2 4588   4.256   0.356   4.679 -1.2128 -1.2041 -0.1848
 1528TIP3   OH2 4589   1.227   5.017   0.898  0.1706  0.2292  0.4692
 1528TIP3    H1 4590   1.270   5.040   0.815 -1.1888  0.3178 -0.2411
 1528TIP3    H2 4591   1.228   4.921   0.899 -0.2715  0.2147  0.0823
 1529TIP3   OH2 4592   0.897   2.044   4.373 -0.2268  0.0599  0.1385
 1529TIP3    H1 4593   0.933   2.127   4.403  0.8556 -0.6558  0.9228
 1529TIP3    H2 4594   0.808   2.043   4.407 -0.3974  1.0807 -0.2561
 1530TIP3   OH2 4595   4.277   5.845   2.996 -0.1052  0.6457  0.3353
 1530TIP3    H1 4596   4.250   5.863   2.906  2.1720  0.9877 -0.3452
 1530TIP3    H2 4597   4.203   5.872   3.050 -1.7401 -0.0705 -1.4437
 1531TIP3   OH2 4598   4.963   4.325   1.456  0.0650 -0.4188 -0.5525
 1531TIP3    H1 4599   5.016   4.366   1.525  1.2242 -0.7073 -1.2392
 1531TIP3    H2 4600   4.916   4.397   1.415 -2.1349 -0.4176  1.6966
 1532TIP3   OH2 4601   0.907   1.203   0.584  0.5732 -0.2931  0.5753
 1532TIP3    H1 4602   0.902   1.223   0.490 -3.5041 -0.7990  0.5178
 1532TIP3    H2 4603   0.890   1.287   0.627  1.6631 -0.2214  0.9084
 1533TIP3   OH2 4604   0.301   2.874   4.544 -0.0254  0.1170  0.0688
 1533TIP3    H1 4605   0.297   2.793   4.494 -2.5802  0.6501 -0.7228
 1533TIP3    H2 4606   0.342   2.849   4.627 -2.8796 -2.5782  0.8331
 1534TIP3   OH2 4607   0.976   4.000   1.953  0.1063  0.4130  0.0891
 1534TIP3    H1 4608   1.005   3.927   2.008  0.3119  1.5232  1.5146
 1534TIP3    H2 4609   1.042   4.068   1.967  0.9368  0.2849 -2.6524
 1535TIP3   OH2 4610   1.966   3.483   5.118 -0.4789  0.0528  0.6460
 1535TIP3    H1 4611   1.915   3.402   5.112  2.7027 -2.0806  0.1248
 1535TIP3    H2 4612   1.950   3.528   5.035 -0.4255 -1.3123 -0.1416
 1536TIP3   OH2 4613   4.436   5.738   0.564 -0.1951  0.1825  0.4698
 1536TIP3    H1 4614   4.504   5.783   0.514  0.1994 -2.2296 -1.4030
 1536TIP3    H2 4615   4.357   5.790   0.551  0.5053  1.0366 -0.4955
 1537TIP3   OH2 4616   4.895   2.741   0.813  0.4430 -0.2218  0.0641
 1537TIP3    H1 4617   4.940   2.773   0.891  0.5725 -0.3277  0.0325
 1537TIP3    H2 4618   4.811   2.787   0.813 -0.4797 -1.7918  1.4500
 1538TIP3   OH2 4619   0.874   0.355   5.025 -0.0227  0.0573 -0.0295
 1538TIP3    H1 4620   0.871   0.440   4.981  1.1103  2.5075  4.0528
 1538TIP3    H2 4621   0.961   0.353   5.066 -0.8500 -2.0451  1.8070
 1539TIP3   OH2 4622   0.778   1.543   2.471  0.0588 -0.3506 -0.1356
 1539TIP3    H1 4623   0.805   1.546   2.563  0.9810  1.2103 -0.4021
 1539TIP3    H2 4624   0.738   1.457   2.459 -0.7166 -0.3153  1.8909
 1540TIP3   OH2 4625   0.074   3.073   0.676  0.6991 -0.0503  0.0738
 1540TIP3    H1 4626   0.018   3.115   0.742 -1.8346 -1.3455 -1.1152
 1540TIP3    H2 4627   0.162   3.075   0.715  0.2619  3.6994  1.2777
 1541TIP3   OH2 4628   5.209   1.414   4.101 -0.1995 -0.1508 -0.1017
 1541TIP3    H1 4629   5.163   1.426   4.018  0.5061  0.3028 -0.4446
 1541TIP3    H2 4630   5.271   1.487   4.105  1.6451 -1.6035 -0.4616
 1542TIP3   OH2 4631   2.272   2.237   0.418  0.1745  0.2244  0.1171
 1542TIP3    H1 4632   2.232   2.257   0.503 -0.7247 -0.1720 -0.2043
 1542TIP3    H2 4633   2.345   2.180   0.439 -0.9898 -1.1829  0.5227
 1543TIP3   OH2 4634   3.194   3.469   3.543  0.2949 -0.0813 -0.0150
 1543TIP3    H1 4635   3.262   3.403   3.529 -0.2682 -0.4901 -0.9070
 1543TIP3    H2 4636   3.181   3.509   3.457 -0.5171  0.0550  0.1622
 1544TIP3   OH2 4637   5.839   4.504   3.939  0.0156  0.3522 -0.1456
 1544TIP3    H1 4638   5.760   4.540   3.979 -0.2128  0.1271 -0.3855
 1544TIP3    H2 4639   5.870   4.573   3.880 -1.5942 -0.5724 -2.1940
 1545TIP3   OH2 4640   4.763   5.202   3.865 -0.0747  0.1012 -0.1760
 1545TIP3    H1 4641   4.717   5.118   3.861 -1.6468  0.9180  0.0987
 1545TIP3    H2 4642   4.824   5.199   3.791  0.2696 -1.4647  0.1223
 1546TIP3   OH2 4643   4.739   2.513   5.005  0.1318 -0.5922 -0.3372
 1546TIP3    H1 4644   4.649   2.485   4.988 -0.1325 -0.2008  0.3400
 1546TIP3    H2 4645   4.729   2.591   5.061  0.8993 -1.0052  0.3975
 1547TIP3   OH2 4646   5.752   1.285   1.688  0.0847  0.8384 -0.1140
 1547TIP3    H1 4647   5.700   1.313   1.764 -0.4520  0.7992 -0.4630
 1547TIP3    H2 4648   5.842   1.283   1.720  0.1036  2.6034  0.0224
 1548TIP3   OH2 4649   5.916   0.421   3.597  0.5977  0.3380  0.3865
 1548TIP3    H1 4650   5.940   0.337   3.558 -1.1989  0.2727 -0.7205
 1548TIP3    H2 4651   5.981   0.483   3.563  1.0849 -0.3543  0.0412
 1549TIP3   OH2 4652   0.279   2.603   3.771 -0.3431 -0.2115  0.3807
 1549TIP3    H1 4653   0.366   2.643   3.768 -0.7305  0.6637  0.3709
 1549TIP3    H2 4654   0.286   2.526   3.715  0.1715  0.3727 -0.3821
 1550TIP3   OH2 4655   2.664   4.088   2.376  0.4878 -0.7169 -0.0686
 1550TIP3    H1 4656   2.657   4.151   2.448 -0.0773 -0.3668 -0.4201
 1550TIP3    H2 4657   2.754   4.058   2.379  0.7732  0.1248  0.1030
 1551TIP3   OH2 4658   2.606   0.889   3.349 -0.0544  0.3518  0.3415
 1551TIP3    H1 4659   2.530   0.841   3.381 -0.2409  2.1785  2.8900
 1551TIP3    H2 4660   2.604   0.876   3.254 -2.8816 -0.5925  0.4469
 1552TIP3   OH2 4661   0.254   3.400   3.319 -0.0896 -0.0466 -0.1559
 1552TIP3    H1 4662   0.235   3.493   3.303 -1.1816 -0.2630 -0.2014
 1552TIP3    H2 4663   0.201   3.378   3.396  1.3843 -0.2419  0.8353
 1553TIP3   OH2 4664   4.194   5.079   2.289  0.0597 -0.0939  0.0784
 1553TIP3    H1 4665   4.132   5.080   2.361 -0.2487  0.2474 -0.1858
 1553TIP3    H2 4666   4.181   5.164   2.245 -1.4493 -1.2293 -1.8070
 1554TIP3   OH2 4667   0.463   5.371   4.770  0.2797 -0.1282  0.0108
 1554TIP3    H1 4668   0.500   5.402   4.687  0.1649 -1.0160 -0.3851
 1554TIP3    H2 4669   0.445   5.279   4.755  0.5003 -0.3682  1.1206
 1555TIP3   OH2 4670   4.984   5.648   1.293 -0.3154 -0.2994  0.6849
 1555TIP3    H1 4671   4.965   5.737   1.263  1.7700  0.3968  1.2993
 1555TIP3    H2 4672   5.000   5.599   1.212  0.6447  0.4218  0.4210
 1556TIP3   OH2 4673   0.841   5.666   0.895 -0.2005 -0.3161  0.0803
 1556TIP3    H1 4674   0.772   5.728   0.917 -1.5169 -2.3710  2.2563
 1556TIP3    H2 4675   0.801   5.606   0.833  0.2379 -0.4136 -0.1075
 1557TIP3   OH2 4676   0.662   2.140   5.016  0.1755 -0.4941  0.3483
 1557TIP3    H1 4677   0.693   2.179   4.934  0.5341 -1.2278  0.1333
 1557TIP3    H2 4678   0.735   2.088   5.047  1.3122  2.2857  2.8417
 1558TIP3   OH2 4679   0.083   1.638   0.054 -0.4329  0.5272  0.5985
 1558TIP3    H1 4680   0.160   1.586   0.032  0.9944  1.6815  2.5837
 1558TIP3    H2 4681   0.030   1.637  -0.026  2.1728  0.6781 -1.2550
 1559TIP3   OH2 4682   4.103   0.499   5.117 -0.1416  0.5169  0.1974
 1559TIP3    H1 4683   4.076   0.408   5.105  0.1262  0.6205 -1.4528
 1559TIP3    H2 4684   4.039   0.536   5.177 -1.6609 -0.1405 -0.9664
 1560TIP3   OH2 4685   1.704   5.376   0.455 -0.5238  0.4410  0.1076
 1560TIP3    H1 4686   1.719   5.390   0.362 -0.1761  0.1426  0.1148
 1560TIP3    H2 4687   1.614   5.406   0.470 -1.3243 -1.3916 -0.7401
 1561TIP3   OH2 4688   0.879   1.051   2.818 -0.2621 -0.5258  0.6287
 1561TIP3    H1 4689   0.821   1.127   2.813  1.2283  0.6175 -0.0181
 1561TIP3    H2 4690   0.922   1.059   2.903  0.9052  0.1563 -0.0023
 1562TIP3   OH2 4691   4.534   1.295   1.336 -0.6401 -0.5290 -0.3351
 1562TIP3    H1 4692   4.584   1.369   1.370  1.6466 -1.5355 -1.3224
 1562TIP3    H2 4693   4.555   1.223   1.395 -0.9195 -0.9871 -0.7892
 1563TIP3   OH2 4694   3.153   0.270   4.035  0.2283 -0.3370 -0.0469
 1563TIP3    H1 4695   3.225   0.253   4.096  0.3426 -1.4960 -0.4675
 1563TIP3    H2 4696   3.195   0.274   3.949 -0.0624  0.2122 -0.1651
 1564TIP3   OH2 4697   3.855   5.442   2.248  0.1100  0.3593  0.6561
 1564TIP3    H1 4698   3.777   5.396   2.280 -0.0701 -1.1675 -1.7159
 1564TIP3    H2 4699   3.865   5.412   2.158  0.6905  4.1713 -0.7256
 1565TIP3   OH2 4700   2.890   3.127   2.691 -0.7149  0.0485  0.4983
 1565TIP3    H1 4701   2.838   3.142   2.770  1.7570 -4.6244  3.5044
 1565TIP3    H2 4702   2.835   3.070   2.636 -1.8662  2.1337 -0.6493
 1566TIP3   OH2 4703   0.938   5.837   2.219  0.9342  0.3743 -0.4188
 1566TIP3    H1 4704   0.953   5.821   2.313  1.8094 -0.8134 -0.7435
 1566TIP3    H2 4705   0.884   5.763   2.191 -0.2338  1.2873 -0.6423
 1567TIP3   OH2 4706   4.485   1.456   2.312  0.0642  0.3076  0.1190
 1567TIP3    H1 4707   4.456   1.371   2.280 -1.0920  0.2245  1.2863
 1567TIP3    H2 4708   4.428   1.474   2.388 -1.1958  3.0604 -1.3203
 1568TIP3   OH2 4709   2.507   2.185   3.955 -0.3452  0.0786 -0.2793
 1568TIP3    H1 4710   2.506   2.220   4.044 -1.1655 -2.4830  0.8142
 1568TIP3    H2 4711   2.599   2.165   3.937 -0.2238  0.2625  0.1393
 1569TIP3   OH2 4712   4.976   1.731   1.761  0.4706  0.1431  0.2493
 1569TIP3    H1 4713   5.003   1.787   1.834  0.0328 -0.3328  0.7851
 1569TIP3    H2 4714   5.050   1.734   1.700  2.3289 -2.0300  2.1948
 1570TIP3   OH2 4715   1.803   3.130   4.312  0.1300  0.1337  0.4253
 1570TIP3    H1 4716   1.875   3.191   4.330  1.0424 -0.6320 -0.5107
 1570TIP3    H2 4717   1.800   3.073   4.389  1.6107 -0.8393 -0.1897
 1571TIP3   OH2 4718   3.265   1.204   0.973 -0.1780 -0.5303 -0.4142
 1571TIP3    H1 4719   3.180   1.163   0.988 -0.2005 -1.4794 -2.6900
 1571TIP3    H2 4720   3.301   1.158   0.897  1.2083  1.5978 -1.1438
 1572TIP3   OH2 4721   3.575   5.023   0.035 -0.4633  0.2715 -0.2163
 1572TIP3    H1 4722   3.634   5.022   0.111 -1.1104 -0.7935  0.2988
 1572TIP3    H2 4723   3.499   5.073   0.063 -0.9603 -0.6152  0.0620
 1573TIP3   OH2 4724   4.804   2.703   4.639 -0.3672  0.0813 -0.2255
 1573TIP3    H1 4725   4.741   2.668   4.702  0.3672 -1.6160 -0.3737
 1573TIP3    H2 4726   4.766   2.685   4.554  0.4253 -1.2796 -0.3269
 1574TIP3   OH2 4727   0.172   1.560   3.443  0.0695  0.1531 -0.1345
 1574TIP3    H1 4728   0.153   1.529   3.532 -2.5866  0.8805 -0.3617
 1574TIP3    H2 4729   0.259   1.601   3.450  0.2782 -0.5281  1.9199
 1575TIP3   OH2 4730   0.195   5.739   0.683 -0.0761  0.4391  0.2511
 1575TIP3    H1 4731   0.149   5.819   0.707 -0.2331 -0.0227  1.5754
 1575TIP3    H2 4732   0.125   5.676   0.665  0.0383  0.2134  0.5879
 1576TIP3   OH2 4733   1.207   4.653   1.127  0.7001 -0.3284  0.5711
 1576TIP3    H1 4734   1.226   4.731   1.179 -0.6633  0.1796  0.3307
 1576TIP3    H2 4735   1.292   4.611   1.116  1.4657  1.1273  0.6830
 1577TIP3   OH2 4736   2.461   2.611   2.146  0.1597  0.2966 -0.1465
 1577TIP3    H1 4737   2.533   2.548   2.146  1.4170  1.5192  2.8742
 1577TIP3    H2 4738   2.391   2.569   2.195  0.0207  0.2933 -0.3462
 1578TIP3   OH2 4739   5.490   4.842   4.912 -0.5253 -0.2763  0.5373
 1578TIP3    H1 4740   5.558   4.788   4.953 -1.9099 -1.3211  1.5415
 1578TIP3    H2 4741   5.493   4.818   4.820  0.0604 -0.7797  0.6779
 1579TIP3   OH2 4742   1.016   3.292   0.612 -0.1278  0.0523  0.1265
 1579TIP3    H1 4743   0.992   3.330   0.697  0.7370 -1.2876  1.0157
 1579TIP3    H2 4744   1.097   3.336   0.588 -0.8417  1.0827 -0.4820
 1580TIP3   OH2 4745   0.843   2.224   3.359  0.7228  0.1708 -0.0572
 1580TIP3    H1 4746   0.911   2.222   3.292 -0.1830  0.9980 -1.0407
 1580TIP3    H2 4747   0.844   2.313   3.392 -1.4724  0.9585 -1.8426
 1581TIP3   OH2 4748   1.669   4.983   2.415 -0.1999  0.3722  0.1676
 1581TIP3    H1 4749   1.643   4.939   2.496 -0.2460  2.9291  1.6399
 1581TIP3    H2 4750   1.759   5.011   2.432 -0.5337  1.7706 -0.2498
 1582TIP3   OH2 4751   0.373   3.269   0.651  0.5228  0.0576  0.1729
 1582TIP3    H1 4752   0.364   3.243   0.743  2.2840 -0.6300  0.2093
 1582TIP3    H2 4753   0.462   3.240   0.628  0.0023 -0.0586 -1.8331
 1583TIP3   OH2 4754   5.273   1.981   2.647 -0.2819  0.0115  0.3982
 1583TIP3    H1 4755   5.316   2.055   2.604 -1.6377  0.5732 -0.0592
 1583TIP3    H2 4756   5.326   1.905   2.622  0.5052  0.6828 -0.0345
 1584TIP3   OH2 4757   0.569   1.385   2.791  0.4246  0.7443 -0.3411
 1584TIP3    H1 4758   0.521   1.321   2.843  0.1246  1.3500  0.1417
 1584TIP3    H2 4759   0.660   1.374   2.817  0.4915 -0.0469 -0.8720
 1585TIP3   OH2 4760   1.965   1.671   1.091  0.5147  0.5390 -0.0280
 1585TIP3    H1 4761   1.914   1.590   1.088 -0.9617  1.4358 -0.3785
 1585TIP3    H2 4762   1.899   1.740   1.095  1.6647  1.6657  3.7197
 1586TIP3   OH2 4763   5.005   0.382   2.589 -0.3082 -0.4158 -0.3904
 1586TIP3    H1 4764   4.915   0.350   2.583 -0.7965  0.5421  1.2025
 1586TIP3    H2 4765   5.033   0.391   2.498 -1.7448 -0.9467 -0.9132
 1587TIP3   OH2 4766   0.764   5.023   4.029 -0.0875 -0.3515  0.2396
 1587TIP3    H1 4767   0.730   4.933   4.025 -1.3318  0.1055  0.2598
 1587TIP3    H2 4768   0.789   5.035   4.120  0.9032 -0.9563  0.0647
 1588TIP3   OH2 4769   3.250   0.401   5.148  0.1388 -0.9456  0.1176
 1588TIP3    H1 4770   3.320   0.445   5.098  0.0276  0.2711  0.9779
 1588TIP3    H2 4771   3.296   0.352   5.215  0.2429 -1.8285 -0.5780
 1589TIP3   OH2 4772   3.094   4.884   1.776  0.4938 -0.2767  0.4944
 1589TIP3    H1 4773   3.045   4.827   1.717 -0.8153 -0.7731  1.9859
 1589TIP3    H2 4774   3.143   4.825   1.832 -0.2829  0.0374  1.5525
 1590TIP3   OH2 4775   3.474   1.068   4.989 -0.2933  0.0923  0.4501
 1590TIP3    H1 4776   3.501   0.976   4.991  0.7775  0.4022  1.4485
 1590TIP3    H2 4777   3.390   1.070   5.035  0.7894 -0.0762  2.5227
 1591TIP3   OH2 4778   5.851   3.152   1.368 -0.2387 -0.0251  0.3767
 1591TIP3    H1 4779   5.842   3.080   1.305 -0.5861  0.1677  0.2035
 1591TIP3    H2 4780   5.894   3.222   1.318  1.6022 -0.6761  0.9921
 1592TIP3   OH2 4781   1.693   5.125   3.857  0.3246 -0.5809  0.6608
 1592TIP3    H1 4782   1.785   5.145   3.845  0.1855 -0.5145 -0.4100
 1592TIP3    H2 4783   1.692   5.045   3.909  1.0536 -1.5690 -0.7640
 1593TIP3   OH2 4784   0.344   5.228   2.249  0.7269 -0.0406 -0.1513
 1593TIP3    H1 4785   0.407   5.162   2.278  2.0146  1.6568  1.1400
 1593TIP3    H2 4786   0.390   5.275   2.178  0.1142 -0.0691 -0.5752
 1594TIP3   OH2 4787   0.261   3.300   0.366  0.1909 -0.0878 -0.4165
 1594TIP3    H1 4788   0.261   3.208   0.395 -1.8954 -0.4181 -1.2632
 1594TIP3    H2 4789   0.217   3.348   0.436 -1.1256 -0.2131 -1.1203
 1595TIP3   OH2 4790   4.620   4.984   3.201 -0.0276  0.1068  0.7380
 1595TIP3    H1 4791   4.668   5.047   3.254 -0.5391  2.9252 -1.8720
 1595TIP3    H2 4792   4.675   4.906   3.199  1.4972  1.0637  2.6699
 1596TIP3   OH2 4793   0.826   0.573   0.935  0.1485 -0.2690  0.3491
 1596TIP3    H1 4794   0.883   0.499   0.959  0.5791  0.2990  1.1071
 1596TIP3    H2 4795   0.863   0.606   0.853 -0.2647 -1.1103 -0.1935
 1597TIP3   OH2 4796   4.526   0.042   0.247  0.4787 -0.0110  0.2202
 1597TIP3    H1 4797   4.589   0.068   0.180  0.3525 -0.5480 -0.1037
 1597TIP3    H2 4798   4.447   0.092   0.227  0.9217  0.9872  0.8759
 1598TIP3   OH2 4799   1.998   4.385   0.813 -0.2237 -0.1735  0.2462
 1598TIP3    H1 4800   1.966   4.347   0.895 -1.7582  0.8080  0.1376
 1598TIP3    H2 4801   2.065   4.324   0.783 -1.3839 -1.8654  0.9598
 1599TIP3   OH2 4802   0.243   1.965   3.836  0.5343  0.5234 -0.2739
 1599TIP3    H1 4803   0.236   1.942   3.928  0.9063  0.2046 -0.3219
 1599TIP3    H2 4804   0.187   1.901   3.791  1.2861 -0.0770 -0.3745
 1600TIP3   OH2 4805   4.623   4.673   2.453 -0.4223  0.4268 -0.1509
 1600TIP3    H1 4806   4.697   4.713   2.407 -0.3977  0.3937 -0.1403
 1600TIP3    H2 4807   4.574   4.747   2.488 -0.4990  0.4578 -0.3216
 1601TIP3   OH2 4808   6.296   2.134   4.710  0.3127 -0.0738  0.4974
 1601TIP3    H1 4809   6.318   2.113   4.619  0.8275  1.3171  0.2783
 1601TIP3    H2 4810   6.210   2.094   4.724  0.0837 -0.0384 -0.7092
 1602TIP3   OH2 4811   6.238   2.870   1.627  0.4431  0.5865  0.4598
 1602TIP3    H1 4812   6.217   2.902   1.715 -0.5146  0.4673  0.2812
 1602TIP3    H2 4813   6.329   2.896   1.614  0.8646 -0.1005  1.8019
 1603TIP3   OH2 4814   4.650   2.229   3.968 -0.3340  0.6369 -0.5437
 1603TIP3    H1 4815   4.697   2.145   3.973 -0.6518  0.4850  0.0090
 1603TIP3    H2 4816   4.653   2.264   4.057 -3.7578 -0.7796  0.3118
 1604TIP3   OH2 4817   6.283   5.842   4.695  0.6828  0.4529  0.3412
 1604TIP3    H1 4818   6.293   5.815   4.787  0.0660 -1.3787 -0.0921
 1604TIP3    H2 4819   6.321   5.930   4.692  0.6764  0.5811  2.3594
 1605TIP3   OH2 4820   0.246   3.975   1.960  0.4309  0.3093  0.1725
 1605TIP3    H1 4821   0.175   3.911   1.967  0.7864 -0.0114  0.9414
 1605TIP3    H2 4822   0.324   3.926   1.984  1.1723  0.2393 -2.1400
 1606TIP3   OH2 4823   5.422   4.192   4.759  0.6076 -0.2691 -0.6844
 1606TIP3    H1 4824   5.407   4.277   4.799  1.2614 -1.3659  2.1174
 1606TIP3    H2 4825   5.516   4.177   4.770  0.8422 -0.6496 -2.7467
 1607TIP3   OH2 4826   1.806   5.471   4.893  0.6347  1.2207 -0.0769
 1607TIP3    H1 4827   1.720   5.444   4.859  0.2049  1.2385  0.9750
 1607TIP3    H2 4828   1.788   5.504   4.981  1.9808 -0.7219  0.9983
 1608TIP3   OH2 4829   4.897   0.341   1.366  0.4660 -0.1665 -0.3687
 1608TIP3    H1 4830   4.905   0.431   1.400  3.5166 -0.0724 -1.0485
 1608TIP3    H2 4831   4.846   0.350   1.285 -1.8903  0.4235  1.0791
 1609TIP3   OH2 4832   0.567   1.816   3.697  0.5485 -0.0095  0.1195
 1609TIP3    H1 4833   0.590   1.878   3.628  1.0360 -0.2821  0.0398
 1609TIP3    H2 4834   0.648   1.769   3.717  1.3004  2.2246  3.1308
 1610TIP3   OH2 4835   1.049   1.521   1.924 -0.0230 -0.4476 -0.4635
 1610TIP3    H1 4836   1.115   1.486   1.863  0.3802 -0.6453  0.0809
 1610TIP3    H2 4837   1.040   1.453   1.991 -0.4448 -0.2183 -0.2872
 1611TIP3   OH2 4838   0.109   3.554   4.796  0.2071  0.0343  0.2431
 1611TIP3    H1 4839   0.020   3.558   4.830  0.0721 -0.6309 -0.0272
 1611TIP3    H2 4840   0.133   3.646   4.782 -1.4674  0.1791 -2.2945
 1612TIP3   OH2 4841   2.865   1.472   0.288  0.2836  0.0467  0.4828
 1612TIP3    H1 4842   2.789   1.421   0.262  0.5118  0.0700 -0.2580
 1612TIP3    H2 4843   2.852   1.489   0.381  0.2635 -1.4492  0.7709
 1613TIP3   OH2 4844   0.882   3.040   4.823 -0.3550  0.3413  0.5959
 1613TIP3    H1 4845   0.841   2.957   4.846  1.4920 -0.4732  1.1370
 1613TIP3    H2 4846   0.829   3.106   4.868 -1.3490 -0.6099  0.8616
 1614TIP3   OH2 4847   1.623   3.123   1.282  0.4185 -0.6130  0.5639
 1614TIP3    H1 4848   1.635   3.124   1.187 -0.8083 -1.5343  0.3661
 1614TIP3    H2 4849   1.702   3.082   1.316  0.5129 -1.0256 -0.1404
 1615TIP3   OH2 4850   6.182   2.877   4.823  0.3157  0.3722  0.1809
 1615TIP3    H1 4851   6.274   2.897   4.805  0.5237  0.6032  1.3724
 1615TIP3    H2 4852   6.149   2.956   4.865 -0.5420  0.4270 -0.5608
 1616TIP3   OH2 4853   4.272   1.549   4.880 -0.2522 -0.0907  0.0471
 1616TIP3    H1 4854   4.277   1.525   4.973 -0.4579 -0.2888  0.0083
 1616TIP3    H2 4855   4.348   1.605   4.866  0.6405 -1.2873 -0.0246
 1617TIP3   OH2 4856   2.989   5.094   1.399  0.6023  0.4334 -0.3638
 1617TIP3    H1 4857   3.079   5.065   1.415  0.8311 -0.0528 -2.3125
 1617TIP3    H2 4858   2.996   5.188   1.383  0.2686  1.1147  2.7135
 1618TIP3   OH2 4859   1.600   4.471   2.455 -0.2975  0.0119 -0.1068
 1618TIP3    H1 4860   1.575   4.396   2.510 -2.6376  0.4828 -0.4278
 1618TIP3    H2 4861   1.614   4.433   2.368  2.2112 -0.5423  0.4400
 1619TIP3   OH2 4862   2.098   0.540   3.587  0.2544 -0.4201  0.1186
 1619TIP3    H1 4863   2.052   0.616   3.622  0.9110 -0.6379  1.5234
 1619TIP3    H2 4864   2.040   0.506   3.518 -1.6921 -0.6878  1.8059
 1620TIP3   OH2 4865   0.394   3.596   3.038  0.2340 -0.1986  0.0582
 1620TIP3    H1 4866   0.426   3.672   3.088  2.2591 -0.7077 -0.3700
 1620TIP3    H2 4867   0.338   3.634   2.970  0.1780  0.7990  0.6396
 1621TIP3   OH2 4868   6.050   4.663   3.348 -0.6639  0.2862 -0.0465
 1621TIP3    H1 4869   5.965   4.677   3.391 -1.7898 -0.2709 -2.0000
 1621TIP3    H2 4870   6.032   4.671   3.255  1.0592 -1.7074 -0.6217
 1622TIP3   OH2 4871   5.953   4.044   3.672  0.4977 -0.0416 -0.8184
 1622TIP3    H1 4872   5.958   4.124   3.725 -1.7552  1.4480 -2.6975
 1622TIP3    H2 4873   5.922   3.978   3.733 -1.9487  1.5924 -0.1414
 1623TIP3   OH2 4874   3.768   2.484   2.547 -0.1588 -0.5089 -0.3154
 1623TIP3    H1 4875   3.703   2.457   2.482 -0.7880 -0.9503  0.4695
 1623TIP3    H2 4876   3.837   2.419   2.541 -1.3289 -1.9829  1.0681
 1624TIP3   OH2 4877   4.677   0.177   0.719 -0.4037  0.0459  0.4930
 1624TIP3    H1 4878   4.598   0.144   0.675 -0.3336  0.7877 -0.1966
 1624TIP3    H2 4879   4.666   0.272   0.721 -0.1156  0.0689  1.5429
 1625TIP3   OH2 4880   4.958  -0.012   4.289 -0.1212  0.0513  0.2595
 1625TIP3    H1 4881   4.994   0.043   4.358  0.1949  0.6680 -0.3794
 1625TIP3    H2 4882   4.929   0.050   4.222  1.5273 -0.5795 -1.1066
 1626TIP3   OH2 4883   0.416   3.679   4.113 -0.2503 -0.4672 -0.1863
 1626TIP3    H1 4884   0.351   3.633   4.060 -0.3724 -1.3273  0.6779
 1626TIP3    H2 4885   0.458   3.740   4.052 -2.8286  1.1736 -0.4595
 1627TIP3   OH2 4886   1.223   4.135   3.008  0.0987  0.1446 -0.4705
 1627TIP3    H1 4887   1.199   4.086   3.087  2.6593  1.6426  1.4142
 1627TIP3    H2 4888   1.207   4.227   3.033  1.9092  0.7113 -1.2844
 1628TIP3   OH2 4889   2.117   5.727   1.403 -0.1288 -0.3902  0.4432
 1628TIP3    H1 4890   2.111   5.706   1.497 -2.1257 -0.4306  0.3568
 1628TIP3    H2 4891   2.033   5.769   1.383  0.0076 -0.9403 -1.4531
 1629TIP3   OH2 4892   2.967   1.226  -0.013  0.0888 -0.0854  0.2848
 1629TIP3    H1 4893   2.883   1.215   0.033 -0.3616 -1.0147 -0.6999
 1629TIP3    H2 4894   3.026   1.165   0.030 -0.1205 -0.3962  0.1380
 1630TIP3   OH2 4895   2.868   1.487   4.732  0.2450  0.5178 -0.1977
 1630TIP3    H1 4896   2.938   1.436   4.691 -0.4460 -0.4731 -0.1537
 1630TIP3    H2 4897   2.914   1.548   4.789  1.0934  0.1578 -0.4775
 1631TIP3   OH2 4898   0.609   3.704   2.726 -0.3663 -0.4723 -0.1605
 1631TIP3    H1 4899   0.606   3.760   2.804 -0.9695 -0.4097 -0.2216
 1631TIP3    H2 4900   0.635   3.764   2.656  0.8852 -0.6763  0.1076
 1632TIP3   OH2 4901   4.342   4.673   2.428 -0.6204 -0.0448 -0.5238
 1632TIP3    H1 4902   4.430   4.650   2.399  0.0614  0.0792  1.2997
 1632TIP3    H2 4903   4.286   4.653   2.354  0.5940 -2.6397 -0.8345
 1633TIP3   OH2 4904   2.856   1.777   1.312  0.4152  0.2969 -0.3968
 1633TIP3    H1 4905   2.903   1.704   1.351  0.2729  1.2911  1.7971
 1633TIP3    H2 4906   2.925   1.836   1.281  0.6921  1.0394  1.4521
 1634TIP3   OH2 4907   3.296   3.922   3.367  0.2950  0.2526 -0.3154
 1634TIP3    H1 4908   3.310   3.885   3.279  0.1704  0.3778 -0.3890
 1634TIP3    H2 4909   3.202   3.916   3.380  0.5127 -1.7027  0.6754
 1635TIP3   OH2 4910   1.831   4.897   1.213  0.3419  0.0783 -0.1115
 1635TIP3    H1 4911   1.822   4.992   1.207 -0.6888 -0.0122 -0.2143
 1635TIP3    H2 4912   1.868   4.871   1.129  3.6370  0.6733  1.0413
 1636TIP3   OH2 4913   0.628   1.498   1.547  0.2898  0.4610 -0.2245
 1636TIP3    H1 4914   0.707   1.490   1.602  0.8832  0.1041 -1.1090
 1636TIP3    H2 4915   0.556   1.479   1.607  0.9929 -1.0395  0.1981
 1637TIP3   OH2 4916   5.773   1.645   4.172 -0.0562  0.2920 -0.7816
 1637TIP3    H1 4917   5.850   1.694   4.142  0.1328  0.3828 -0.1648
 1637TIP3    H2 4918   5.731   1.615   4.091  1.2700 -0.7754 -1.1184
 1638TIP3   OH2 4919   0.378   4.053   1.085  0.3620 -0.2016  0.3918
 1638TIP3    H1 4920   0.428   3.989   1.033  0.3508 -1.9100  2.3405
 1638TIP3    H2 4921   0.436   4.128   1.094  1.2836 -0.8359 -0.1047
 1639TIP3   OH2 4922   4.431   2.109   4.264 -0.3744  0.6583 -0.8909
 1639TIP3    H1 4923   4.370   2.106   4.337  1.2515  0.8591  0.5572
 1639TIP3    H2 4924   4.441   2.017   4.237 -0.6765  0.5363 -0.5799
 1640TIP3   OH2 4925   1.521   5.023   3.321  0.5101  0.5424  0.2303
 1640TIP3    H1 4926   1.537   4.943   3.371  1.1427  0.0540 -0.7314
 1640TIP3    H2 4927   1.551   5.003   3.233 -0.0139  1.5992 -0.2080
 1641TIP3   OH2 4928   5.046   4.761   0.934  0.2227 -0.0009  0.2380
 1641TIP3    H1 4929   5.127   4.805   0.906 -0.2665  0.9814  0.3386
 1641TIP3    H2 4930   4.976   4.819   0.904 -0.3687  0.4537  2.3564
 1642TIP3   OH2 4931   5.499   1.466   3.792 -0.0007 -0.2591 -0.2828
 1642TIP3    H1 4932   5.512   1.491   3.701  0.0038  0.4034 -0.1069
 1642TIP3    H2 4933   5.411   1.498   3.813 -0.2456 -0.9406 -0.2236
 1643TIP3   OH2 4934   2.549   3.370   3.358  0.6621  0.0120  0.8518
 1643TIP3    H1 4935   2.584   3.346   3.444  1.3514 -0.0033  0.5737
 1643TIP3    H2 4936   2.625   3.402   3.309  0.6020 -1.4727 -0.2891
 1644TIP3   OH2 4937   2.638   5.548   1.352 -0.1401  0.2959  0.8909
 1644TIP3    H1 4938   2.635   5.597   1.434 -0.0710  0.6133  0.7063
 1644TIP3    H2 4939   2.596   5.606   1.288  0.0822  0.1775  0.6378
 1645TIP3   OH2 4940   1.457   4.650   1.411  0.0697 -0.3527 -0.3821
 1645TIP3    H1 4941   1.363   4.641   1.422  0.0418  0.6481  0.3095
 1645TIP3    H2 4942   1.478   4.735   1.449  1.5076 -1.3229  1.1583
 1646TIP3   OH2 4943   3.607   3.505   2.269  0.2838 -0.6257  0.3042
 1646TIP3    H1 4944   3.608   3.537   2.179 -0.4956 -2.2108 -0.3145
 1646TIP3    H2 4945   3.516   3.513   2.296  0.6067  0.3501  1.1796
 1647TIP3   OH2 4946   0.521   3.396   4.191 -0.4693  0.0472  0.4274
 1647TIP3    H1 4947   0.535   3.384   4.097 -3.5293  1.2240 -0.2781
 1647TIP3    H2 4948   0.550   3.486   4.208  0.9983 -0.4789  0.8809
 1648TIP3   OH2 4949   3.060   0.021   2.582  0.0892 -0.3379 -0.3103
 1648TIP3    H1 4950   3.151  -0.007   2.578  0.2098  0.1353 -0.9100
 1648TIP3    H2 4951   3.064   0.117   2.582 -0.3522 -0.2865  1.0242
 1649TIP3   OH2 4952   2.352   5.471   1.422  0.8208 -0.3456 -0.3017
 1649TIP3    H1 4953   2.413   5.471   1.497 -0.3917  2.1628  0.8056
 1649TIP3    H2 4954   2.354   5.561   1.390 -1.6513 -0.3986 -0.7672
 1650TIP3   OH2 4955   1.215   3.135   3.550 -0.1758  0.2203 -0.3908
 1650TIP3    H1 4956   1.229   3.110   3.459  0.9001 -0.7330  0.0155
 1650TIP3    H2 4957   1.291   3.100   3.596  0.8619  3.2720  0.4295
 1651TIP3   OH2 4958   5.150   1.265   2.672  0.1980  0.5629 -0.1394
 1651TIP3    H1 4959   5.126   1.175   2.651  1.4942  0.1055  0.2328
 1651TIP3    H2 4960   5.068   1.314   2.665 -0.9773 -1.0072  1.7239
 1652TIP3   OH2 4961   2.598   5.382   3.650 -0.1523 -0.4008 -0.0097
 1652TIP3    H1 4962   2.567   5.420   3.567  0.9897  2.2638  0.6752
 1652TIP3    H2 4963   2.577   5.449   3.716  1.7290 -1.0816  1.3568
 1653TIP3   OH2 4964   3.469   4.302   4.821 -0.7545  0.3656  0.3050
 1653TIP3    H1 4965   3.558   4.281   4.847 -0.8511  0.9620  1.1721
 1653TIP3    H2 4966   3.478   4.370   4.755 -0.5894  1.9120  1.8448
 1654TIP3   OH2 4967   0.483   5.897   2.891 -0.1950  0.4800  0.1908
 1654TIP3    H1 4968   0.524   5.900   2.977  0.2884 -0.5589  0.0166
 1654TIP3    H2 4969   0.519   5.972   2.844 -0.3419  0.9631  0.8329
 1655TIP3   OH2 4970   4.324   4.987   0.973  0.2119  0.0168  0.0483
 1655TIP3    H1 4971   4.254   5.052   0.966 -0.6620 -0.6063  2.2109
 1655TIP3    H2 4972   4.384   5.009   0.902 -1.6299  1.2228 -1.2402
 1656TIP3   OH2 4973   2.289   5.723   4.546 -0.3565 -0.1151  0.8681
 1656TIP3    H1 4974   2.364   5.783   4.536  0.2476 -0.7622  1.4625
 1656TIP3    H2 4975   2.316   5.661   4.613 -0.1815 -2.2477 -1.0564
 1657TIP3   OH2 4976   3.778   1.082   4.199  0.4417  0.0411  0.7620
 1657TIP3    H1 4977   3.814   1.150   4.143 -0.0584  0.6839  1.2069
 1657TIP3    H2 4978   3.702   1.049   4.150  2.0992 -1.9823 -0.6234
 1658TIP3   OH2 4979   3.923   2.318   2.212  0.0000 -0.0863  0.7452
 1658TIP3    H1 4980   3.937   2.410   2.233  2.4594  0.0167 -0.9118
 1658TIP3    H2 4981   3.964   2.270   2.284  2.3692  0.2055 -0.3298
 1659TIP3   OH2 4982   6.342   2.111   3.045  0.2505  0.7302  0.1493
 1659TIP3    H1 4983   6.384   2.113   3.131  0.0277  1.3042  0.2486
 1659TIP3    H2 4984   6.283   2.035   3.049  0.2466  0.7478  0.5022
 1660TIP3   OH2 4985   0.738   2.176   2.978  0.0361  0.2328  0.2198
 1660TIP3    H1 4986   0.690   2.120   2.916  0.9479 -0.6128  0.2693
 1660TIP3    H2 4987   0.788   2.236   2.922  0.0010  0.2029  0.1563
 1661TIP3   OH2 4988   2.467   2.823   3.155  0.2909 -0.5648  0.1696
 1661TIP3    H1 4989   2.509   2.908   3.163  0.7124 -0.8077  0.6385
 1661TIP3    H2 4990   2.373   2.841   3.153  0.3973 -0.0608 -0.1863
 1662TIP3   OH2 4991   3.282   0.215   2.253 -0.6122 -0.1476 -0.1486
 1662TIP3    H1 4992   3.295   0.230   2.347  1.2920 -2.7835  0.1344
 1662TIP3    H2 4993   3.191   0.188   2.245 -1.5183  2.3601  0.4877
 1663TIP3   OH2 4994   4.782   2.461   1.412  0.3365 -0.1292 -0.8470
 1663TIP3    H1 4995   4.795   2.399   1.340  1.4827 -0.4144 -0.4119
 1663TIP3    H2 4996   4.763   2.544   1.369 -0.9663 -0.7090 -1.4428
 1664TIP3   OH2 4997   0.981   4.074   4.161 -0.0711 -0.7142  0.5243
 1664TIP3    H1 4998   0.987   4.083   4.066  0.7676 -0.1182  0.6314
 1664TIP3    H2 4999   0.931   3.993   4.174  0.1722 -1.0217 -0.4195
 1665TIP3   OH2 5000   5.608   0.616   5.039 -0.1691 -0.4655  0.2768
 1665TIP3    H1 5001   5.605   0.679   4.967 -1.7416  0.6486  1.2331
 1665TIP3    H2 5002   5.695   0.577   5.033  0.1945  0.4876 -1.4546
 1666TIP3   OH2 5003   1.582   2.545   0.952 -0.2984  0.3933 -0.3193
 1666TIP3    H1 5004   1.586   2.638   0.976 -0.2614 -0.0678  1.6521
 1666TIP3    H2 5005   1.657   2.505   0.996 -0.6412 -0.6665 -0.6618
 1667TIP3   OH2 5006   0.319   1.494   1.030  0.1889  0.6120 -0.2876
 1667TIP3    H1 5007   0.389   1.482   0.966 -0.2609  0.2435 -0.7280
 1667TIP3    H2 5008   0.357   1.467   1.113  0.1906 -0.8355 -0.7269
 1668TIP3   OH2 5009   5.818   2.311   2.457  0.4296  0.6599 -0.1111
 1668TIP3    H1 5010   5.890   2.313   2.395  1.3948 -0.0428  0.9391
 1668TIP3    H2 5011   5.858   2.330   2.542  0.0249 -2.7188  1.0117
 1669TIP3   OH2 5012   6.207   2.531   3.564  0.0981 -0.3061 -0.2184
 1669TIP3    H1 5013   6.211   2.592   3.638  0.6641 -0.4342 -0.1392
 1669TIP3    H2 5014   6.295   2.533   3.527 -0.2918  0.0557 -1.1369
 1670TIP3   OH2 5015   2.977   0.444   1.414 -0.5926  0.0010 -0.9512
 1670TIP3    H1 5016   3.051   0.409   1.365 -0.8548  1.0780 -2.1649
 1670TIP3    H2 5017   2.912   0.373   1.415 -0.2202 -0.3486 -1.3730
 1671TIP3   OH2 5018   2.782   2.667   3.594  0.2855  0.0628  0.1601
 1671TIP3    H1 5019   2.859   2.612   3.583 -0.1081 -0.4900  0.1051
 1671TIP3    H2 5020   2.729   2.651   3.516 -0.1332  0.0276  0.4432
 1672TIP3   OH2 5021   3.353   4.134   0.003 -0.3372  0.2746 -0.2250
 1672TIP3    H1 5022   3.271   4.088   0.022  0.4689 -1.1630 -0.0597
 1672TIP3    H2 5023   3.372   4.182   0.084 -1.2063  0.9771 -0.4101
 1673TIP3   OH2 5024   4.289   2.220   2.639  0.2513  0.2553  0.5808
 1673TIP3    H1 5025   4.302   2.156   2.709  1.4305  0.6533  0.7339
 1673TIP3    H2 5026   4.359   2.284   2.651  0.4292  0.3716 -0.9174
 1674TIP3   OH2 5027   2.705   2.908   2.609 -0.2737  0.1038  0.0894
 1674TIP3    H1 5028   2.718   2.817   2.634 -0.1508  0.6784  2.3910
 1674TIP3    H2 5029   2.647   2.905   2.533 -0.6822 -1.8655  0.4434
 1675TIP3   OH2 5030   0.930   5.073   3.460  0.1967 -0.0048  0.2906
 1675TIP3    H1 5031   1.010   5.024   3.439 -0.6282 -1.4879  0.4792
 1675TIP3    H2 5032   0.933   5.149   3.402  0.8728 -0.9641 -0.9901
 1676TIP3   OH2 5033   1.490   5.106   2.272 -0.3239  0.2222  0.1054
 1676TIP3    H1 5034   1.444   5.149   2.344 -1.2692  0.5661 -0.6897
 1676TIP3    H2 5035   1.550   5.045   2.316 -0.0365  1.2440  1.2142
 1677TIP3   OH2 5036   4.247   0.788   0.127  0.0611 -0.1451  0.3119
 1677TIP3    H1 5037   4.217   0.879   0.133  0.7527  0.1024  0.0990
 1677TIP3    H2 5038   4.268   0.776   0.034  0.3173 -0.4151  0.4052
 1678TIP3   OH2 5039   4.801   1.333   4.521  0.6278  0.6616  0.0918
 1678TIP3    H1 5040   4.877   1.365   4.569  0.6837  1.3971 -0.4678
 1678TIP3    H2 5041   4.735   1.318   4.589  1.0642  0.6132  0.5137
 1679TIP3   OH2 5042   5.373   5.048   4.030 -0.5460  0.5204 -0.6713
 1679TIP3    H1 5043   5.301   5.005   4.076 -1.1364  0.8575 -1.2543
 1679TIP3    H2 5044   5.370   5.139   4.061  0.9938  0.0741  0.9166
 1680TIP3   OH2 5045   5.584   1.032   1.538  0.5295  0.0896  0.1199
 1680TIP3    H1 5046   5.616   0.999   1.622 -1.7808 -0.1440  0.9714
 1680TIP3    H2 5047   5.626   1.118   1.529 -0.0613  0.6493  2.1161
 1681TIP3   OH2 5048   1.166   0.737   4.431  0.0459 -0.6983 -0.3149
 1681TIP3    H1 5049   1.179   0.672   4.362 -0.2597 -2.1087  0.9040
 1681TIP3    H2 5050   1.084   0.711   4.473  0.6307 -0.3692  1.0904
 1682TIP3   OH2 5051   5.490   5.032   4.515  0.2756 -0.5887  0.0444
 1682TIP3    H1 5052   5.449   4.953   4.551  1.3267 -1.5997 -0.9023
 1682TIP3    H2 5053   5.530   5.004   4.433  0.0661  1.1066 -0.6882
 1683TIP3   OH2 5054   3.181   0.259   4.619  0.0302  0.5776  0.2132
 1683TIP3    H1 5055   3.260   0.209   4.600 -0.0230  0.5165  0.1530
 1683TIP3    H2 5056   3.191   0.286   4.710 -1.8612 -3.0675  1.6619
 1684TIP3   OH2 5057   4.033   2.178   2.402 -0.3900  0.0152  0.0146
 1684TIP3    H1 5058   4.096   2.193   2.473 -1.4108  0.4075  0.8567
 1684TIP3    H2 5059   4.007   2.087   2.412  0.7457 -0.4392 -0.9375
 1685TIP3   OH2 5060   0.538   0.950   4.104  0.4027 -1.0489  0.1402
 1685TIP3    H1 5061   0.542   0.982   4.194  1.0876 -1.4616  0.2617
 1685TIP3    H2 5062   0.629   0.952   4.073  0.0895 -0.2503 -0.7785
 1686TIP3   OH2 5063   6.175   0.610   1.847  0.0896  0.1601  0.2140
 1686TIP3    H1 5064   6.221   0.566   1.776  1.5236 -0.6312  1.5645
 1686TIP3    H2 5065   6.144   0.538   1.903  0.1132  0.7952  1.0515
 1687TIP3   OH2 5066   3.568   0.983   0.885  0.1830 -0.0500 -0.3020
 1687TIP3    H1 5067   3.609   1.022   0.962 -0.9185  2.0413 -0.7131
 1687TIP3    H2 5068   3.639   0.975   0.821  0.7902 -0.4400  0.3987
 1688TIP3   OH2 5069   5.521   0.310   2.954 -0.1631 -0.1456 -0.2178
 1688TIP3    H1 5070   5.540   0.376   3.021 -3.5214  1.6961 -0.8760
 1688TIP3    H2 5071   5.519   0.359   2.872  1.4103 -1.9209 -1.4027
 1689TIP3   OH2 5072   4.040   1.666   4.208 -0.0977  0.3227  0.4789
 1689TIP3    H1 5073   4.059   1.691   4.118 -1.8081 -1.1917 -0.3765
 1689TIP3    H2 5074   4.061   1.573   4.213 -2.7178 -0.3575  0.7172
 1690TIP3   OH2 5075   3.742   0.060   4.372 -0.1624 -0.1392  0.0318
 1690TIP3    H1 5076   3.794  -0.020   4.379 -0.3746 -0.5075 -1.9983
 1690TIP3    H2 5077   3.651   0.029   4.366 -0.1735  0.1564 -1.7730
 1691TIP3   OH2 5078   3.175   4.603   4.987 -0.1633  0.4649 -0.1588
 1691TIP3    H1 5079   3.175   4.695   5.015  0.7375  0.8625 -1.3440
 1691TIP3    H2 5080   3.241   4.561   5.041 -0.8814  0.4058  0.6864
 1692TIP3   OH2 5081   1.422   2.766   4.313 -0.0523  0.1885 -0.5269
 1692TIP3    H1 5082   1.425   2.705   4.387  0.1805  0.8413  0.0128
 1692TIP3    H2 5083   1.330   2.769   4.287 -0.1114 -0.1541 -0.3628
 1693TIP3   OH2 5084   6.212   3.539   5.045  0.5522 -0.3820 -0.3041
 1693TIP3    H1 5085   6.289   3.592   5.067 -0.0191 -0.3338  1.7373
 1693TIP3    H2 5086   6.146   3.603   5.019  0.0320 -0.0605  1.6466
 1694TIP3   OH2 5087   5.836   0.050   4.244  0.6133 -0.0142  0.3552
 1694TIP3    H1 5088   5.769  -0.016   4.265 -0.0477 -0.3635 -2.4470
 1694TIP3    H2 5089   5.915  -0.000   4.227  0.6280  0.0719  0.1612
 1695TIP3   OH2 5090   6.330   3.560   3.878  0.1391  0.0560  0.1525
 1695TIP3    H1 5091   6.320   3.465   3.882 -0.6513  0.1004 -0.4706
 1695TIP3    H2 5092   6.331   3.580   3.784  0.4111  0.6531  0.2781
 1696TIP3   OH2 5093   5.649   0.698   1.609  0.5884 -0.0505 -0.1638
 1696TIP3    H1 5094   5.687   0.785   1.596 -2.0754  1.3447  0.7071
 1696TIP3    H2 5095   5.605   0.679   1.526  0.2111 -0.0434  0.0323
 1697TIP3   OH2 5096   5.101   4.947   2.887  0.1363 -0.1867 -0.2171
 1697TIP3    H1 5097   5.125   4.916   2.974  3.2406 -0.8547 -1.1720
 1697TIP3    H2 5098   5.135   4.880   2.828  1.0210  1.7623 -2.0523
 1698TIP3   OH2 5099   2.624   5.965   1.883 -0.7457 -0.2880  0.1105
 1698TIP3    H1 5100   2.568   6.035   1.916 -0.6460  0.8335 -1.9475
 1698TIP3    H2 5101   2.656   5.921   1.962 -2.9566  0.2485  1.3823
 1699TIP3   OH2 5102   1.522   4.696   0.099 -0.5792 -0.0355  0.1273
 1699TIP3    H1 5103   1.526   4.788   0.071  0.5100 -0.2846 -0.5638
 1699TIP3    H2 5104   1.448   4.660   0.050 -0.1154  0.1210 -0.7164
 1700TIP3   OH2 5105   1.762   4.591   1.906  0.4909  0.0793 -0.2174
 1700TIP3    H1 5106   1.828   4.602   1.975 -0.6312  3.2614  0.5256
 1700TIP3    H2 5107   1.812   4.574   1.827  2.0747  0.2674  0.7022
 1701TIP3   OH2 5108   1.934   1.507   2.260  0.2066 -0.0298  0.4166
 1701TIP3    H1 5109   1.847   1.498   2.300 -0.1956  0.5392 -0.3248
 1701TIP3    H2 5110   1.962   1.417   2.243 -0.8672 -0.1842 -0.6598
 1702TIP3   OH2 5111   5.820   5.922   3.925  0.4803  0.0842  0.3696
 1702TIP3    H1 5112   5.783   5.980   3.992 -0.4286 -2.7599  2.5818
 1702TIP3    H2 5113   5.744   5.895   3.872  0.2187 -1.5242  1.4672
 1703TIP3   OH2 5114   5.687   4.691   4.067 -0.2026  0.4333 -0.1806
 1703TIP3    H1 5115   5.764   4.735   4.103 -0.5320  0.3457  0.6434
 1703TIP3    H2 5116   5.663   4.745   3.991 -1.2122  2.3264  1.3812
 1704TIP3   OH2 5117   5.027   4.254   2.081  0.1256  0.2178  0.2965
 1704TIP3    H1 5118   5.029   4.204   2.000 -1.2229 -0.4691  0.6555
 1704TIP3    H2 5119   4.936   4.247   2.111  0.4386  1.0351  1.5088
 1705TIP3   OH2 5120   0.100   3.652   2.345  0.0044  0.1148 -0.0461
 1705TIP3    H1 5121   0.189   3.679   2.326 -0.6270  0.2607 -3.5065
 1705TIP3    H2 5122   0.046   3.725   2.316 -1.3223 -0.9239 -0.3130
 1706TIP3   OH2 5123   2.829   5.788   1.397  0.6657  0.6044 -0.2768
 1706TIP3    H1 5124   2.779   5.732   1.456  0.7843 -0.2384 -0.9583
 1706TIP3    H2 5125   2.816   5.877   1.431  2.5689 -0.0073  2.3965
 1707TIP3   OH2 5126   2.660   0.838   4.714 -0.2038  0.5947  0.0136
 1707TIP3    H1 5127   2.609   0.792   4.648  0.8979  0.5523 -0.8495
 1707TIP3    H2 5128   2.691   0.769   4.773  0.0240  0.4424 -0.2813
 1708TIP3   OH2 5129   5.174   0.491   0.833  0.1179  0.5074 -0.3671
 1708TIP3    H1 5130   5.241   0.559   0.826  1.0555 -0.4989 -1.9398
 1708TIP3    H2 5131   5.125   0.513   0.912  2.6924  0.9624  1.2114
 1709TIP3   OH2 5132   3.576   1.551   5.114 -0.1517  0.0614 -0.5652
 1709TIP3    H1 5133   3.616   1.465   5.116 -1.3014 -0.4925  0.8158
 1709TIP3    H2 5134   3.590   1.586   5.202 -0.0665  1.1244 -0.9800
 1710TIP3   OH2 5135   1.406   1.793   4.519 -0.0847 -0.1413 -0.4669
 1710TIP3    H1 5136   1.374   1.714   4.562  2.1555  1.0551  3.9319
 1710TIP3    H2 5137   1.334   1.856   4.527 -0.0502 -0.2399  0.8713
 1711TIP3   OH2 5138   0.622   0.518   0.743 -0.1478  0.1207 -0.5720
 1711TIP3    H1 5139   0.604   0.576   0.818 -0.2681 -1.0013  0.2899
 1711TIP3    H2 5140   0.712   0.489   0.757 -0.2523 -0.2813 -0.7434
 1712TIP3   OH2 5141   3.088   1.475   4.361  0.1782 -0.8790 -0.0952
 1712TIP3    H1 5142   3.162   1.447   4.413  0.5210 -0.6073 -0.4273
 1712TIP3    H2 5143   3.081   1.409   4.291  2.3268  0.8896 -2.1594
 1713TIP3   OH2 5144   3.842   4.900   1.189 -0.2315 -0.0267 -0.4337
 1713TIP3    H1 5145   3.756   4.887   1.229 -0.4063  0.7555 -0.5436
 1713TIP3    H2 5146   3.902   4.906   1.263 -0.3026 -0.3330 -0.3495
 1714TIP3   OH2 5147   0.609   0.531   4.576 -0.1427  0.3811  0.3969
 1714TIP3    H1 5148   0.516   0.522   4.598  0.1356 -1.2279  1.0410
 1714TIP3    H2 5149   0.612   0.602   4.512 -2.1146 -1.0929 -1.4478
 1715TIP3   OH2 5150   0.311   5.435   4.354  0.1364 -0.3580  0.2752
 1715TIP3    H1 5151   0.398   5.467   4.378 -0.2961  1.2050 -0.1300
 1715TIP3    H2 5152   0.327   5.355   4.304  1.4359  0.7155 -1.1129
 1716TIP3   OH2 5153   4.605   2.962   0.160  0.1828 -0.0061 -0.4060
 1716TIP3    H1 5154   4.677   3.015   0.195  0.0732 -1.0083  1.4557
 1716TIP3    H2 5155   4.590   2.894   0.226 -2.1820 -0.1094 -0.9471
 1717TIP3   OH2 5156   1.965   0.470   3.364  0.3301 -0.3406  0.5822
 1717TIP3    H1 5157   1.952   0.510   3.279  0.1966  0.2927  0.8991
 1717TIP3    H2 5158   2.036   0.407   3.350  1.5080  0.9859  0.3927
 1718TIP3   OH2 5159   3.481   2.031   3.846 -0.4677  0.5229 -0.1947
 1718TIP3    H1 5160   3.401   2.084   3.851 -0.6862  0.3949 -1.7168
 1718TIP3    H2 5161   3.468   1.962   3.910  0.1007  2.5857  2.3201
 1719TIP3   OH2 5162   3.696   2.445   5.030 -0.0154 -0.6304 -0.4683
 1719TIP3    H1 5163   3.709   2.352   5.046 -0.8702 -0.4522  1.6262
 1719TIP3    H2 5164   3.620   2.449   4.973  0.9692 -1.2239 -1.8821
 1720TIP3   OH2 5165   2.130   3.806   0.813 -0.1766 -0.1077  0.3980
 1720TIP3    H1 5166   2.216   3.773   0.791 -0.9811 -1.8203 -0.3308
 1720TIP3    H2 5167   2.072   3.730   0.807 -1.4317  0.5453  2.7970
 1721TIP3   OH2 5168   2.663   5.143   0.260  0.1370 -0.0389  0.0113
 1721TIP3    H1 5169   2.647   5.227   0.217  0.6406 -0.3020 -0.7037
 1721TIP3    H2 5170   2.581   5.094   0.247  0.4346 -0.2828 -1.0619
 1722TIP3   OH2 5171   5.977   1.073   0.887  0.0883 -0.2566  0.1176
 1722TIP3    H1 5172   6.032   1.145   0.854  0.9763 -1.6378 -1.6048
 1722TIP3    H2 5173   5.944   1.105   0.970  1.9326  1.4436  0.2905
 1723TIP3   OH2 5174   4.985   5.243   1.335 -0.8795 -0.1190 -0.3017
 1723TIP3    H1 5175   4.897   5.243   1.296 -1.1484  0.3758  0.2934
 1723TIP3    H2 5176   5.013   5.152   1.330 -1.2755 -0.2203 -0.8290
 1724TIP3   OH2 5177   0.841   3.820   4.144  0.3363 -0.9236 -0.1566
 1724TIP3    H1 5178   0.794   3.736   4.136  1.1092 -1.3053 -0.9533
 1724TIP3    H2 5179   0.933   3.795   4.143  0.5817 -0.0355 -0.8447
 1725TIP3   OH2 5180   0.121   4.643   5.173 -0.0647  0.0340 -0.2231
 1725TIP3    H1 5181   0.077   4.619   5.091  1.8392 -2.5116 -0.6343
 1725TIP3    H2 5182   0.176   4.718   5.149 -0.8200  0.4140 -0.8157
 1726TIP3   OH2 5183   3.310   4.323   2.226  0.0353  0.2388  0.2823
 1726TIP3    H1 5184   3.377   4.263   2.256  0.9685  0.2702 -1.5602
 1726TIP3    H2 5185   3.298   4.302   2.133 -0.1558  2.3536 -0.2443
 1727TIP3   OH2 5186   5.282   0.417   5.117 -0.6178 -0.0280 -0.0946
 1727TIP3    H1 5187   5.323   0.346   5.066  0.1750 -1.9260  2.9165
 1727TIP3    H2 5188   5.196   0.383   5.140 -0.4749  0.2315  0.8660
 1728TIP3   OH2 5189   0.700   5.973   3.960 -0.3009 -0.8611  0.8411
 1728TIP3    H1 5190   0.774   5.989   4.020 -1.5489 -1.2599  2.5730
 1728TIP3    H2 5191   0.667   5.886   3.986 -0.5907 -1.2738 -0.7879
 1729TIP3   OH2 5192   2.277   2.076   1.162  0.1066  0.1185  0.1987
 1729TIP3    H1 5193   2.268   2.095   1.255 -0.6413  0.6031  0.0312
 1729TIP3    H2 5194   2.298   2.160   1.121 -2.0354  0.4237 -0.3846
 1730TIP3   OH2 5195   1.282   3.390   0.565 -0.2245  0.4015  0.0015
 1730TIP3    H1 5196   1.356   3.351   0.518  0.1842  1.7487 -0.5317
 1730TIP3    H2 5197   1.298   3.367   0.657 -0.0662 -0.7403 -0.2943
 1731TIP3   OH2 5198   3.715   5.099   4.569  0.0605 -0.4198  0.2055
 1731TIP3    H1 5199   3.776   5.095   4.496 -1.2182 -1.2982 -0.8714
 1731TIP3    H2 5200   3.711   5.192   4.593 -1.3182  0.3313 -2.5092
 1732TIP3   OH2 5201   0.257   4.277   0.573 -0.3040 -0.3132  0.4813
 1732TIP3    H1 5202   0.220   4.296   0.659  1.4922  1.2278  0.9928
 1732TIP3    H2 5203   0.247   4.358   0.523  1.6626 -0.0430  0.4299
 1733TIP3   OH2 5204   5.123   3.435   0.840 -0.2002 -0.3275  0.3039
 1733TIP3    H1 5205   5.168   3.416   0.922 -0.8295  0.7910  0.9344
 1733TIP3    H2 5206   5.191   3.431   0.773  0.7847  0.9791  1.1851
 1734TIP3   OH2 5207   1.640   0.603   1.376 -0.0692  0.3163  0.5216
 1734TIP3    H1 5208   1.585   0.536   1.416  1.4173 -1.0166  0.4126
 1734TIP3    H2 5209   1.611   0.608   1.285 -0.8209  0.5214  0.7695
 1735TIP3   OH2 5210   3.647   1.571   0.143  0.5534  0.2872  0.1832
 1735TIP3    H1 5211   3.623   1.633   0.075 -0.3069  0.7796  0.9083
 1735TIP3    H2 5212   3.695   1.502   0.097 -3.2258 -1.4061 -1.6536
 1736TIP3   OH2 5213   2.127   2.891   1.395 -0.2600 -0.4796 -0.3786
 1736TIP3    H1 5214   2.152   2.866   1.484  1.4647 -1.7815 -1.1583
 1736TIP3    H2 5215   2.042   2.932   1.405 -0.0044 -0.3342  1.9069
 1737TIP3   OH2 5216   4.024   2.117   0.072 -0.0209  0.4472  0.0059
 1737TIP3    H1 5217   3.951   2.108   0.132 -0.8150  2.1079 -0.6512
 1737TIP3    H2 5218   4.102   2.120   0.128 -0.2615 -2.6644  0.6443
 1738TIP3   OH2 5219   1.329   1.186   2.360 -0.1105  0.0229  0.0279
 1738TIP3    H1 5220   1.381   1.241   2.420 -1.3481  2.9095 -1.3534
 1738TIP3    H2 5221   1.392   1.157   2.295  0.5704 -0.1772  0.7501
 1739TIP3   OH2 5222   1.130   3.005   4.078  0.5076 -0.1367 -0.2279
 1739TIP3    H1 5223   1.186   2.951   4.133  1.5141  0.7050 -0.3959
 1739TIP3    H2 5224   1.186   3.032   4.006 -0.3659  0.0234 -0.8604
 1740TIP3   OH2 5225   1.188   6.015   4.252  0.2615 -0.1510  0.1267
 1740TIP3    H1 5226   1.222   5.926   4.261 -0.5191 -0.6395 -1.4778
 1740TIP3    H2 5227   1.093   6.004   4.246  0.0567  0.9045  1.1124
 1741TIP3   OH2 5228   4.536   1.816   0.386  0.2047 -0.6215 -0.0597
 1741TIP3    H1 5229   4.604   1.753   0.411  1.3540 -0.0118 -1.5323
 1741TIP3    H2 5230   4.570   1.901   0.415 -0.9011 -0.5251  1.0530
 1742TIP3   OH2 5231   2.640   1.891   1.194 -0.4993 -0.8201 -0.1697
 1742TIP3    H1 5232   2.723   1.865   1.235 -0.1436 -0.7193 -0.8134
 1742TIP3    H2 5233   2.574   1.877   1.262 -0.2648 -2.9225 -0.3182
 1743TIP3   OH2 5234   2.473   0.913   1.133  0.8499 -0.6318 -0.2362
 1743TIP3    H1 5235   2.525   0.875   1.204 -0.1312  0.7295  1.2721
 1743TIP3    H2 5236   2.538   0.940   1.068  1.9013 -0.5551  0.8085
 1744TIP3   OH2 5237   5.548   4.340   5.110  0.3585 -0.2411  0.1633
 1744TIP3    H1 5238   5.483   4.380   5.053  0.7128 -0.0434 -0.1072
 1744TIP3    H2 5239   5.501   4.321   5.191 -0.2347 -0.8210 -0.3005
 1745TIP3   OH2 5240   1.663   1.304   4.852  0.3692 -0.0343  0.6446
 1745TIP3    H1 5241   1.633   1.297   4.943 -0.9820  0.1886  0.2429
 1745TIP3    H2 5242   1.598   1.255   4.802  0.7239  0.4156 -0.2753
 1746TIP3   OH2 5243   3.694   1.087   3.885 -0.3164 -0.2610 -0.1564
 1746TIP3    H1 5244   3.693   1.116   3.794  1.4122  0.1170 -0.0970
 1746TIP3    H2 5245   3.731   0.999   3.881  1.2239  0.3324  0.2797
 1747TIP3   OH2 5246   5.050   2.662   3.375 -0.4671  0.1313  0.3588
 1747TIP3    H1 5247   5.120   2.674   3.311 -1.6080  2.7537 -0.4970
 1747TIP3    H2 5248   5.095   2.626   3.452  1.5419  0.2561 -0.6823
 1748TIP3   OH2 5249   5.695   2.418   1.715  0.0076 -0.0661  0.3080
 1748TIP3    H1 5250   5.610   2.455   1.690  0.1607  1.1855  1.5726
 1748TIP3    H2 5251   5.676   2.326   1.735 -0.9948  0.1431  0.3663
 1749TIP3   OH2 5252   3.386   2.228   3.027  0.0798 -0.2690  0.0921
 1749TIP3    H1 5253   3.294   2.243   3.009  0.1287  2.4919  1.5964
 1749TIP3    H2 5254   3.422   2.316   3.043  2.8489 -1.3019  0.0447
 1750TIP3   OH2 5255   0.212   5.315   5.146  0.1294  0.0122  0.5464
 1750TIP3    H1 5256   0.191   5.380   5.078  1.2780  2.5876  2.4810
 1750TIP3    H2 5257   0.245   5.240   5.097  0.3151  1.4974 -1.7913
 1751TIP3   OH2 5258   5.334   3.961   2.112  0.6367  0.2683  0.2941
 1751TIP3    H1 5259   5.301   3.930   2.028 -1.3035 -2.0727  1.7927
 1751TIP3    H2 5260   5.261   3.948   2.172  2.7124 -0.4103  2.8163
 1752TIP3   OH2 5261   1.568   3.065   1.009  0.5824 -0.6290 -0.2199
 1752TIP3    H1 5262   1.595   3.058   0.917  0.7024  2.2518 -0.5013
 1752TIP3    H2 5263   1.472   3.067   1.006  0.5893 -0.3731 -0.3141
 1753TIP3   OH2 5264   0.708   0.782   4.430  0.2809  0.2022 -0.3914
 1753TIP3    H1 5265   0.674   0.777   4.341 -2.2255 -1.2369  0.5459
 1753TIP3    H2 5266   0.800   0.756   4.422 -0.7336 -3.5996 -2.1737
 1754TIP3   OH2 5267   4.124   4.291   4.786  0.4942 -0.4214 -0.4490
 1754TIP3    H1 5268   4.062   4.327   4.722  1.4501  0.8293 -0.7137
 1754TIP3    H2 5269   4.100   4.199   4.793 -1.0765 -0.0801 -0.9073
 1755TIP3   OH2 5270   2.161   4.279   3.863  0.0257 -0.3481  0.2989
 1755TIP3    H1 5271   2.226   4.349   3.870  0.5811 -0.9978  1.9864
 1755TIP3    H2 5272   2.111   4.301   3.784  1.0604  1.1932  0.0306
 1756TIP3   OH2 5273   5.729   4.679   0.186 -0.3542 -0.0732 -0.1722
 1756TIP3    H1 5274   5.710   4.649   0.275 -2.0049 -1.6574 -1.0106
 1756TIP3    H2 5275   5.821   4.655   0.172 -0.7078 -1.8979  0.3445
 1757TIP3   OH2 5276   3.952   1.951   2.787 -0.4605 -0.7248  0.1022
 1757TIP3    H1 5277   3.990   2.029   2.746 -1.9639  0.5677  1.0420
 1757TIP3    H2 5278   3.899   1.986   2.859 -1.9694 -2.5445 -0.0653
 1758TIP3   OH2 5279   0.106   0.914   3.158  0.3349 -0.3822 -0.2438
 1758TIP3    H1 5280   0.021   0.924   3.200  0.6656  1.3284  0.0936
 1758TIP3    H2 5281   0.086   0.882   3.070 -0.5885 -0.7725  0.0929
 1759TIP3   OH2 5282   0.314   0.986   3.944  0.6626  0.2886  0.1156
 1759TIP3    H1 5283   0.396   1.007   3.989  0.3883 -0.6575  1.0979
 1759TIP3    H2 5284   0.248   1.039   3.988  0.7538  1.2142 -0.8159
 1760TIP3   OH2 5285   5.895   5.383   0.565  1.2289  0.3581 -0.2601
 1760TIP3    H1 5286   5.955   5.318   0.601  0.4069  0.1186  0.7476
 1760TIP3    H2 5287   5.948   5.462   0.556  1.8204  0.0173  0.1423
 1761TIP3   OH2 5288   0.464   4.096   0.559 -0.5961 -0.1344  0.2669
 1761TIP3    H1 5289   0.529   4.130   0.498 -0.0525 -0.4851  0.6494
 1761TIP3    H2 5290   0.400   4.167   0.568 -0.3887  0.1251 -0.2779
 1762TIP3   OH2 5291   0.298   4.336   0.282 -0.0093 -0.0108  0.1702
 1762TIP3    H1 5292   0.286   4.422   0.241 -1.4817  0.4289  1.4234
 1762TIP3    H2 5293   0.393   4.323   0.282  0.6487  3.2366  3.0079
 1763TIP3   OH2 5294   1.136   3.177   1.036 -0.4692  0.7142  0.2123
 1763TIP3    H1 5295   1.069   3.193   1.102  0.0408  0.2413  0.8702
 1763TIP3    H2 5296   1.187   3.104   1.072 -0.9798 -0.4372 -1.3117
 1764TIP3   OH2 5297   3.404   3.574   0.383  0.4072 -0.1589 -0.7701
 1764TIP3    H1 5298   3.464   3.514   0.339 -0.5325 -0.3635 -1.8114
 1764TIP3    H2 5299   3.317   3.546   0.356 -0.1851  0.0680  0.7910
 1765TIP3   OH2 5300   0.261   2.449   3.201 -0.4506 -0.0084 -0.4560
 1765TIP3    H1 5301   0.274   2.484   3.289 -1.2065 -0.4348 -0.1626
 1765TIP3    H2 5302   0.177   2.486   3.172 -0.4460 -0.2580 -0.7987
 1766TIP3   OH2 5303   2.729   0.825   3.983 -0.2680  0.0337  0.3515
 1766TIP3    H1 5304   2.783   0.825   4.062  1.6604 -0.3187 -0.8964
 1766TIP3    H2 5305   2.782   0.871   3.918 -0.8732 -1.5102 -1.3142
 1767TIP3   OH2 5306   0.061   5.709   1.037 -0.5169  0.5359 -0.1156
 1767TIP3    H1 5307   0.111   5.628   1.026  0.5079  0.5326  3.4225
 1767TIP3    H2 5308  -0.031   5.681   1.037 -0.3658 -0.1135 -1.9025
 1768TIP3   OH2 5309   3.549   0.733   1.869  0.3570  0.1267  0.7200
 1768TIP3    H1 5310   3.559   0.638   1.874  0.5850  0.1101 -0.0054
 1768TIP3    H2 5311   3.597   0.766   1.945 -0.6445 -0.3893  1.5943
 1769TIP3   OH2 5312   4.227   4.734   4.796 -0.0988 -0.1523 -0.7117
 1769TIP3    H1 5313   4.195   4.798   4.860  1.7327 -0.7876  0.9504
 1769TIP3    H2 5314   4.286   4.784   4.740  0.9694 -0.2451  0.2961
 1770TIP3   OH2 5315   4.168   4.836   3.542 -0.1056  0.1549  0.3512
 1770TIP3    H1 5316   4.216   4.807   3.463 -0.2266 -2.2574  1.0751
 1770TIP3    H2 5317   4.180   4.931   3.543 -1.4315  0.5601 -3.4508
 1771TIP3   OH2 5318   6.026   5.438   3.200 -0.2719  0.2292 -0.0346
 1771TIP3    H1 5319   6.017   5.437   3.105  0.9405 -0.6075 -0.1694
 1771TIP3    H2 5320   5.937   5.427   3.233 -0.5814 -0.6547 -1.0956
 1772TIP3   OH2 5321   2.403   0.759   3.563  0.2517 -0.0212  0.3144
 1772TIP3    H1 5322   2.480   0.720   3.604  0.3780 -0.3012 -0.1796
 1772TIP3    H2 5323   2.420   0.853   3.563  1.4527 -0.1829 -1.4423
 1773TIP3   OH2 5324   1.511   3.441   4.829  0.2856 -0.0719 -0.3731
 1773TIP3    H1 5325   1.490   3.388   4.752  0.0183 -0.9278  0.2750
 1773TIP3    H2 5326   1.468   3.525   4.813  1.3882  0.2657 -1.7915
 1774TIP3   OH2 5327   4.743   5.684   1.004 -0.4085 -0.0080  0.2178
 1774TIP3    H1 5328   4.827   5.685   0.957  1.5466 -0.1166  3.3916
 1774TIP3    H2 5329   4.744   5.765   1.055 -1.7066 -0.5472  1.1376
 1775TIP3   OH2 5330   4.448   3.450   3.406  0.0850 -0.3321  0.2761
 1775TIP3    H1 5331   4.385   3.380   3.425  0.0028 -0.4332 -0.3559
 1775TIP3    H2 5332   4.398   3.530   3.418 -0.0923 -0.4067  0.0395
 1776TIP3   OH2 5333   4.679   2.456   2.007  0.3398  0.3867 -0.0800
 1776TIP3    H1 5334   4.633   2.426   2.085  3.0408  0.6310  1.7356
 1776TIP3    H2 5335   4.673   2.382   1.946 -0.9104 -0.2262  0.7400
 1777TIP3   OH2 5336   2.051   2.013   2.483 -0.3923 -0.2950 -0.3555
 1777TIP3    H1 5337   2.058   2.010   2.387 -2.9285  0.2630 -0.6335
 1777TIP3    H2 5338   2.014   1.927   2.506  2.1466 -1.2583  0.4111
 1778TIP3   OH2 5339   2.344   5.564   1.981  0.0471 -0.0970 -0.0874
 1778TIP3    H1 5340   2.328   5.658   1.971 -0.3118  0.0900  1.7545
 1778TIP3    H2 5341   2.314   5.525   1.899 -1.0954  1.2629 -0.3613
 1779TIP3   OH2 5342   2.527   4.056   3.366 -0.1198 -0.0127  0.4956
 1779TIP3    H1 5343   2.532   4.140   3.321  0.9420  0.7590  1.9628
 1779TIP3    H2 5344   2.481   3.999   3.305 -0.2838  1.4449 -0.8122
 1780TIP3   OH2 5345   5.946   2.777   1.903  0.4747  0.0117  0.6292
 1780TIP3    H1 5346   5.852   2.770   1.920  0.3626  0.1673  0.0832
 1780TIP3    H2 5347   5.987   2.723   1.971 -0.1117 -1.8864 -0.4214
 1781TIP3   OH2 5348   1.764   2.462   1.601  0.3505 -0.4881 -0.0062
 1781TIP3    H1 5349   1.766   2.501   1.513 -0.7113 -0.4824 -0.0339
 1781TIP3    H2 5350   1.857   2.453   1.624  0.6435 -0.0849 -0.9441
 1782TIP3   OH2 5351   1.960   3.101   4.045  0.1042  1.1784  0.1793
 1782TIP3    H1 5352   1.911   3.072   4.122  1.1452  0.2618  0.5208
 1782TIP3    H2 5353   2.051   3.100   4.074  0.4561  1.3707 -0.9067
 1783TIP3   OH2 5354   4.679   1.805   1.398 -0.1023  0.1204  0.8352
 1783TIP3    H1 5355   4.639   1.778   1.316 -2.3651  0.5830  1.7140
 1783TIP3    H2 5356   4.740   1.875   1.373  0.5936 -0.9468 -0.6068
 1784TIP3   OH2 5357   3.321   0.599   1.482 -0.0333 -0.3278  0.0687
 1784TIP3    H1 5358   3.411   0.587   1.514 -0.4330 -0.9554  1.0169
 1784TIP3    H2 5359   3.298   0.515   1.443 -0.2890 -0.2455  0.0449
 1785TIP3   OH2 5360   4.742   5.664   2.357  0.6340 -0.2542  0.1832
 1785TIP3    H1 5361   4.726   5.632   2.446  0.8243 -1.4829 -0.2039
 1785TIP3    H2 5362   4.693   5.603   2.301  1.8925 -0.5310 -0.6485
 1786TIP3   OH2 5363   6.256   1.688   1.675  0.1257  0.2715  0.5469
 1786TIP3    H1 5364   6.289   1.612   1.722  0.8106  0.4965  0.4448
 1786TIP3    H2 5365   6.169   1.662   1.644  0.8534 -0.9489 -0.5814
 1787TIP3   OH2 5366   3.045   4.221   1.424 -0.2435 -0.3475 -0.3256
 1787TIP3    H1 5367   3.132   4.252   1.448 -0.7687  0.0748  1.1574
 1787TIP3    H2 5368   3.006   4.295   1.376 -0.9033  0.7596  1.7905
 1788TIP3   OH2 5369   3.911   3.356   2.174 -0.0186 -0.1292  0.4955
 1788TIP3    H1 5370   3.834   3.398   2.211 -2.6802 -3.1990 -1.0413
 1788TIP3    H2 5371   3.914   3.386   2.083  1.4409  0.9364  0.8630
 1789TIP3   OH2 5372   2.886   5.931   1.065 -0.7630 -0.4989 -0.4238
 1789TIP3    H1 5373   2.898   6.006   1.007  0.4584 -0.9347 -0.7649
 1789TIP3    H2 5374   2.957   5.870   1.041  0.3228 -0.3448  2.0432
 1790TIP3   OH2 5375   5.827   4.401   3.321  0.4956 -0.6203 -0.1268
 1790TIP3    H1 5376   5.765   4.355   3.377  1.9252 -0.6021  1.5607
 1790TIP3    H2 5377   5.811   4.494   3.339  0.7030 -0.6021 -0.0329
 1791TIP3   OH2 5378   1.750   5.888   3.661  0.2638  0.0011 -0.7668
 1791TIP3    H1 5379   1.840   5.903   3.633  0.1806  0.9915 -0.5255
 1791TIP3    H2 5380   1.740   5.939   3.741 -0.1666 -1.0413 -0.1430
 1792TIP3   OH2 5381   5.963   2.893   0.710 -0.3717 -0.0895  0.1571
 1792TIP3    H1 5382   5.965   2.981   0.748  0.5511 -0.5174  1.1640
 1792TIP3    H2 5383   6.055   2.870   0.697 -0.6471 -0.4103 -1.3120
 1793TIP3   OH2 5384   2.116   0.178   1.789  0.7080  0.1638 -0.8537
 1793TIP3    H1 5385   2.152   0.237   1.855  0.6123 -1.7911  1.0356
 1793TIP3    H2 5386   2.189   0.159   1.731  1.9037 -1.0276  0.9263
 1794TIP3   OH2 5387   3.867   0.207   4.564  0.1328 -0.2248 -0.3132
 1794TIP3    H1 5388   3.962   0.204   4.554  0.1830 -0.5616  0.1985
 1794TIP3    H2 5389   3.833   0.154   4.492  0.2878  0.5663 -0.9849
 1795TIP3   OH2 5390   5.665   4.416   2.232  0.7506  0.3193 -0.2852
 1795TIP3    H1 5391   5.634   4.439   2.319 -2.4350 -2.0779 -0.5856
 1795TIP3    H2 5392   5.632   4.487   2.176  0.7025  0.6527  0.1634
 1796TIP3   OH2 5393   2.318   5.058   3.628 -0.4235 -0.3613 -0.2661
 1796TIP3    H1 5394   2.357   4.980   3.587  0.2876 -0.9863  1.5255
 1796TIP3    H2 5395   2.393   5.111   3.655 -0.8750  0.0277  0.2435
 1797TIP3   OH2 5396   2.356   1.226   4.454 -0.3585 -0.3177 -0.3033
 1797TIP3    H1 5397   2.363   1.274   4.537  1.5021 -0.4432 -0.3408
 1797TIP3    H2 5398   2.381   1.136   4.476  1.0152 -0.1683 -1.1152
 1798TIP3   OH2 5399   1.166   5.038   2.298  0.1889  0.2079 -0.0557
 1798TIP3    H1 5400   1.136   5.017   2.386  1.9192 -0.9179  0.3166
 1798TIP3    H2 5401   1.099   5.003   2.240 -0.4129 -0.0458  0.7795
 1799TIP3   OH2 5402   0.933   3.090   5.131  0.5439 -0.2121  0.0242
 1799TIP3    H1 5403   0.876   3.140   5.073  0.1469 -0.7301 -0.0400
 1799TIP3    H2 5404   0.960   3.152   5.198  2.8093  1.0258 -1.8912
 1800TIP3   OH2 5405   2.751   2.682   4.743  0.5101 -0.4170  0.2936
 1800TIP3    H1 5406   2.819   2.617   4.758  0.3160 -0.6875  0.0032
 1800TIP3    H2 5407   2.790   2.744   4.681  1.8870  1.5623  2.9194
 1801TIP3   OH2 5408   4.712   0.477   2.712 -0.4149  0.0007 -0.3576
 1801TIP3    H1 5409   4.626   0.487   2.671 -0.0426 -0.7682 -1.3519
 1801TIP3    H2 5410   4.740   0.389   2.689  0.5748  0.1769  0.1039
 1802TIP3   OH2 5411   3.565   1.822   0.696  0.0606 -0.1155 -0.1035
 1802TIP3    H1 5412   3.657   1.825   0.724 -0.0565  1.5064  0.1954
 1802TIP3    H2 5413   3.533   1.912   0.709 -1.5896 -0.6682 -0.1322
 1803TIP3   OH2 5414   4.795   3.927   5.038 -0.7667  0.5062  0.0364
 1803TIP3    H1 5415   4.888   3.944   5.019 -0.6708  0.3207  0.3410
 1803TIP3    H2 5416   4.792   3.834   5.061 -0.9067  0.7011  0.8007
 1804TIP3   OH2 5417   4.484   1.129   3.862 -0.7155  0.3418  0.8948
 1804TIP3    H1 5418   4.393   1.143   3.834 -1.0168 -1.5282  0.8221
 1804TIP3    H2 5419   4.477   1.072   3.939  0.3919  0.3101  0.9875
 1805TIP3   OH2 5420   4.511   5.590   2.739  0.6193 -0.2463  0.2508
 1805TIP3    H1 5421   4.506   5.603   2.833  1.1279  0.7946  0.1500
 1805TIP3    H2 5422   4.580   5.525   2.728  0.6451 -0.2794  0.5940
 1806TIP3   OH2 5423   0.987   3.319   2.624  0.4777  0.1304  0.3266
 1806TIP3    H1 5424   0.915   3.383   2.626  1.7947  1.8682 -2.3860
 1806TIP3    H2 5425   0.944   3.236   2.604 -1.1870  0.1811  3.1220
 1807TIP3   OH2 5426   0.235   3.878   4.914  0.1902  0.7064 -0.9309
 1807TIP3    H1 5427   0.299   3.845   4.978  0.0808  0.9369 -0.7037
 1807TIP3    H2 5428   0.288   3.897   4.836  0.3508  0.5941 -0.8517
 1808TIP3   OH2 5429   2.730   2.522   0.786 -0.2249 -0.6032 -0.0834
 1808TIP3    H1 5430   2.688   2.502   0.869  1.2324 -1.4085  0.4854
 1808TIP3    H2 5431   2.819   2.548   0.809 -1.1252  4.3627 -0.9314
 1809TIP3   OH2 5432   3.142   3.028   0.192 -0.4145 -0.2606 -0.2669
 1809TIP3    H1 5433   3.151   3.070   0.278 -0.4858  4.0142 -2.1057
 1809TIP3    H2 5434   3.047   3.027   0.177 -0.3577  2.9128 -1.7738
 1810TIP3   OH2 5435   6.143   4.408   3.685  0.5574 -0.2694  0.1586
 1810TIP3    H1 5436   6.144   4.386   3.592 -0.9003 -0.8821  0.2618
 1810TIP3    H2 5437   6.063   4.369   3.718 -0.2001  1.9775  1.1701
 1811TIP3   OH2 5438   4.152   4.681   2.181  0.1465 -0.0397  0.2502
 1811TIP3    H1 5439   4.152   4.772   2.151  1.3454  0.7187  2.2989
 1811TIP3    H2 5440   4.186   4.631   2.106 -1.9997  0.9189 -1.4599
 1812TIP3   OH2 5441   4.068   1.863   1.287  0.4656 -0.6136  0.2141
 1812TIP3    H1 5442   4.131   1.812   1.236  0.2539 -0.1896 -0.4750
 1812TIP3    H2 5443   4.120   1.901   1.358  1.6252  2.0688 -1.9192
 1813TIP3   OH2 5444   4.019   2.176   3.890  0.5715  0.0017  0.3869
 1813TIP3    H1 5445   4.030   2.082   3.876 -0.2232  0.2970 -3.1230
 1813TIP3    H2 5446   3.928   2.185   3.918  0.7404 -0.2707  1.0463
 1814TIP3   OH2 5447   4.531   4.813   3.472  0.5656 -0.0174 -0.2460
 1814TIP3    H1 5448   4.518   4.899   3.512 -0.5130 -0.4563  0.3782
 1814TIP3    H2 5449   4.455   4.800   3.416  0.3496 -0.8572  0.2196
 1815TIP3   OH2 5450   5.550   0.804   0.046  0.6268 -0.1149 -0.6224
 1815TIP3    H1 5451   5.544   0.842   0.133 -2.0612  0.2096 -0.8648
 1815TIP3    H2 5452   5.555   0.710   0.061  1.7443  0.0208 -0.1070
 1816TIP3   OH2 5453   5.142   5.239   2.148  0.6469  0.0345  0.3275
 1816TIP3    H1 5454   5.194   5.208   2.222 -0.3731 -0.3644  0.8955
 1816TIP3    H2 5455   5.097   5.160   2.116 -0.1699  0.4992  0.3110
 1817TIP3   OH2 5456   2.055   4.153   3.224  0.2900 -0.3056  0.4466
 1817TIP3    H1 5457   2.128   4.139   3.163 -0.6801 -0.0498 -0.8203
 1817TIP3    H2 5458   2.084   4.112   3.306  1.8575 -0.1810 -0.0069
 1818TIP3   OH2 5459   5.027   2.669   3.004 -0.1117 -0.0718  0.1001
 1818TIP3    H1 5460   5.033   2.700   2.914 -0.4412  0.0038  0.1038
 1818TIP3    H2 5461   5.102   2.709   3.048 -0.8536  1.1917  0.2481
 1819TIP3   OH2 5462   2.904   4.615   1.179 -0.4411  0.1234 -0.4936
 1819TIP3    H1 5463   2.919   4.690   1.237 -1.0389 -0.6705  0.7210
 1819TIP3    H2 5464   2.865   4.654   1.100  0.7746  1.2663 -0.5681
 1820TIP3   OH2 5465   4.378   4.699   0.882  0.3065 -0.6991 -0.4362
 1820TIP3    H1 5466   4.292   4.672   0.850  0.4330 -1.4090 -0.1934
 1820TIP3    H2 5467   4.372   4.794   0.892  0.0739 -0.5277 -1.9877
 1821TIP3   OH2 5468   5.154   3.068   2.087  0.5274 -0.1615  0.2061
 1821TIP3    H1 5469   5.232   3.121   2.071  0.6265  0.0817  1.4136
 1821TIP3    H2 5470   5.086   3.131   2.109  0.6323 -0.5082  1.6062
 1822TIP3   OH2 5471   3.575   2.773   4.116 -0.3428  0.2882  0.0400
 1822TIP3    H1 5472   3.546   2.863   4.102  0.4896  0.3343 -1.6397
 1822TIP3    H2 5473   3.508   2.719   4.074  0.6489  0.2871 -1.6153
 1823TIP3   OH2 5474   1.572   4.004   0.458 -0.3578  0.2589  0.5672
 1823TIP3    H1 5475   1.641   4.027   0.520 -0.9015  2.0416  0.5608
 1823TIP3    H2 5476   1.615   4.006   0.372  0.0163 -0.5894  0.7265
 1824TIP3   OH2 5477   3.086   3.686   3.712  0.3977 -0.5681 -0.3766
 1824TIP3    H1 5478   3.130   3.616   3.665  1.4568 -0.2907  0.1592
 1824TIP3    H2 5479   3.070   3.753   3.645  1.4324 -0.3850 -0.4576
 1825TIP3   OH2 5480   3.166   2.579   1.682  0.0344  0.0778 -0.2763
 1825TIP3    H1 5481   3.144   2.666   1.715  0.9767  0.8998 -1.6982
 1825TIP3    H2 5482   3.113   2.569   1.603 -0.9980 -1.1955  0.5235
 1826TIP3   OH2 5483   2.165   4.708   4.599  0.4067 -0.3262  0.0075
 1826TIP3    H1 5484   2.182   4.630   4.546  3.2157 -0.9082  1.5404
 1826TIP3    H2 5485   2.202   4.780   4.548 -1.0061 -0.1690 -0.8219
 1827TIP3   OH2 5486   3.063   0.470   3.087 -0.4147 -0.3265  0.6187
 1827TIP3    H1 5487   3.157   0.473   3.068 -0.4648 -1.0917  0.1944
 1827TIP3    H2 5488   3.058   0.455   3.181 -0.0529 -2.3866  0.3677
 1828TIP3   OH2 5489   1.167   3.966   3.204  0.2071 -0.0165  0.2034
 1828TIP3    H1 5490   1.116   3.886   3.199  0.5582 -0.2521  0.3908
 1828TIP3    H2 5491   1.169   3.988   3.297  0.6220 -0.1229  0.2221
 1829TIP3   OH2 5492   1.643   4.959   1.732  0.3821  0.1764  0.1512
 1829TIP3    H1 5493   1.674   4.971   1.821 -1.8076  1.0195  0.8649
 1829TIP3    H2 5494   1.664   5.041   1.687  0.1920  0.3148  0.3140
 1830TIP3   OH2 5495   4.665   3.659   3.986  0.0702  0.3556 -0.0860
 1830TIP3    H1 5496   4.614   3.630   4.061  0.0932  0.8337  0.1194
 1830TIP3    H2 5497   4.653   3.754   3.984  0.8916  0.4700 -0.0690
 1831TIP3   OH2 5498   0.423   2.291   5.197 -0.2140  0.8992  0.4559
 1831TIP3    H1 5499   0.493   2.286   5.132  0.9304  0.0938  1.6960
 1831TIP3    H2 5500   0.374   2.210   5.185 -0.7789  1.3331 -0.2259
 1832TIP3   OH2 5501   1.094   3.481   1.173 -0.1787  0.5884  0.1507
 1832TIP3    H1 5502   1.073   3.416   1.240  0.5697 -0.9552 -1.0379
 1832TIP3    H2 5503   1.010   3.519   1.149 -0.3352  2.3099  2.9874
 1833TIP3   OH2 5504   3.893   3.584   2.591 -0.1230  0.1216 -0.1565
 1833TIP3    H1 5505   3.830   3.606   2.523  0.0393  0.4393 -0.2095
 1833TIP3    H2 5506   3.944   3.511   2.555  1.1470  1.4326 -1.1379
 1834TIP3   OH2 5507   1.735   1.548   2.624 -0.2521  0.3138  0.2720
 1834TIP3    H1 5508   1.735   1.495   2.545 -2.2388  0.5636  0.0383
 1834TIP3    H2 5509   1.803   1.510   2.679  1.4834  0.4070 -1.6985
 1835TIP3   OH2 5510   4.722   1.677   1.662  0.2955 -0.2905  0.7077
 1835TIP3    H1 5511   4.710   1.729   1.583 -1.0200 -0.1105  1.0004
 1835TIP3    H2 5512   4.803   1.711   1.702 -0.6068  1.6565  0.9770
 1836TIP3   OH2 5513   0.806   0.574   4.891  0.1280  0.3233 -0.1780
 1836TIP3    H1 5514   0.710   0.570   4.889  0.0365  1.9480 -0.9025
 1836TIP3    H2 5515   0.826   0.665   4.869  1.8708 -0.2192 -1.0071
 1837TIP3   OH2 5516   5.352   3.953   4.857 -0.2627 -0.1943  0.0572
 1837TIP3    H1 5517   5.384   4.023   4.800  1.4539 -0.6933  0.3518
 1837TIP3    H2 5518   5.336   3.879   4.798 -2.0585  0.3907 -0.2513
 1838TIP3   OH2 5519   6.028   1.232   4.932 -0.5487  0.0868  0.2036
 1838TIP3    H1 5520   6.047   1.287   4.856 -1.1240 -0.5350 -0.4057
 1838TIP3    H2 5521   6.101   1.172   4.937 -0.5161  0.1206  0.1356
 1839TIP3   OH2 5522   0.588   5.044   1.557 -0.2368 -0.1743 -0.3799
 1839TIP3    H1 5523   0.528   5.003   1.495 -0.9484  0.4623 -0.1152
 1839TIP3    H2 5524   0.617   5.124   1.513 -0.8539  0.3531  0.1531
 1840TIP3   OH2 5525   5.863   1.369   3.985  0.0225 -0.0330 -0.8495
 1840TIP3    H1 5526   5.881   1.347   3.893 -1.4022 -0.3899 -1.0593
 1840TIP3    H2 5527   5.947   1.354   4.029  0.5950 -0.3763 -1.9931
 1841TIP3   OH2 5528   6.103   5.340   2.289 -0.3048  0.1979 -0.2179
 1841TIP3    H1 5529   6.155   5.260   2.300 -0.5127 -0.0315 -0.8646
 1841TIP3    H2 5530   6.117   5.365   2.198  0.2878  1.2764  0.1638
 1842TIP3   OH2 5531   3.781   3.047   1.527 -0.0115  0.2092 -0.4424
 1842TIP3    H1 5532   3.704   3.040   1.584  0.5538 -1.7317  0.1622
 1842TIP3    H2 5533   3.781   2.967   1.476  0.7440  0.9190 -1.6010
 1843TIP3   OH2 5534   5.520   5.857   0.582 -0.4053  0.2894 -0.0833
 1843TIP3    H1 5535   5.587   5.791   0.601  0.2706  0.7471 -0.8236
 1843TIP3    H2 5536   5.568   5.940   0.581 -1.1933  0.7558  0.5199
 1844TIP3   OH2 5537   1.447   3.767   3.912  0.4354  0.0091 -0.2280
 1844TIP3    H1 5538   1.367   3.716   3.899 -0.4081  1.2848 -0.1375
 1844TIP3    H2 5539   1.518   3.706   3.889 -0.5326 -1.2365  0.0062
 1845TIP3   OH2 5540   1.239   1.409   1.760 -0.6871 -0.0673  0.0201
 1845TIP3    H1 5541   1.319   1.452   1.790 -1.2786  0.2907  1.1207
 1845TIP3    H2 5542   1.266   1.318   1.744 -0.0085  0.1003  0.1763
 1846TIP3   OH2 5543   4.697   5.290   2.389  0.1978 -0.2107 -0.4105
 1846TIP3    H1 5544   4.745   5.276   2.307  0.0315  1.3400 -0.7989
 1846TIP3    H2 5545   4.607   5.304   2.363  0.0238 -0.3623  0.0907
 1847TIP3   OH2 5546   0.110   3.836   4.582  0.0939 -0.2776 -0.0084
 1847TIP3    H1 5547   0.185   3.871   4.631 -0.2441 -1.3399  1.3403
 1847TIP3    H2 5548   0.148   3.781   4.514  0.5565  0.0225  0.0075
 1848TIP3   OH2 5549   0.231   3.762   1.651 -0.4419  0.0686  0.0101
 1848TIP3    H1 5550   0.281   3.740   1.572  0.6018  1.9153  0.0984
 1848TIP3    H2 5551   0.225   3.679   1.699  0.6215 -0.6727 -1.0661
 1849TIP3   OH2 5552   1.604   3.530   4.056 -0.1826 -0.7277 -0.5183
 1849TIP3    H1 5553   1.664   3.596   4.090 -0.7339  0.9087 -2.5051
 1849TIP3    H2 5554   1.647   3.498   3.977  0.6325 -3.7275  1.0042
 1850TIP3   OH2 5555   3.009   0.872   1.743 -0.2513  0.1072  0.1963
 1850TIP3    H1 5556   3.103   0.872   1.764 -0.4162 -2.1708  1.2487
 1850TIP3    H2 5557   3.000   0.805   1.675 -1.1693  0.0641  0.3571
 1851TIP3   OH2 5558   2.145   3.384   4.664  0.4932 -0.2589  0.1178
 1851TIP3    H1 5559   2.229   3.371   4.620  0.2743 -0.3847 -0.2665
 1851TIP3    H2 5560   2.160   3.457   4.724  0.1319  1.5618 -1.9128
 1852TIP3   OH2 5561   1.915   4.949   4.051  0.1564 -0.4570 -0.4241
 1852TIP3    H1 5562   1.976   4.973   3.981  0.6856 -2.5409 -0.7369
 1852TIP3    H2 5563   1.912   4.853   4.049 -0.9955 -0.5105  1.4237
 1853TIP3   OH2 5564   1.584   1.418   3.989 -0.5322  0.5826 -0.8032
 1853TIP3    H1 5565   1.624   1.500   4.017 -0.5348  0.5762 -0.7810
 1853TIP3    H2 5566   1.632   1.394   3.910 -0.2091  0.3618 -0.5475
 1854TIP3   OH2 5567   1.882   0.340   1.650  0.1835 -0.0897 -0.0152
 1854TIP3    H1 5568   1.957   0.285   1.670  0.5630 -0.1300 -1.4444
 1854TIP3    H2 5569   1.832   0.291   1.584 -0.4493  0.4580  0.0371
 1855TIP3   OH2 5570   5.498   1.711   4.887  0.2014 -0.0151 -0.5609
 1855TIP3    H1 5571   5.463   1.627   4.857  1.6192 -1.6875  2.0877
 1855TIP3    H2 5572   5.433   1.742   4.951 -0.0801  0.7174 -1.1803
 1856TIP3   OH2 5573   1.119   4.981   4.422  0.0556  0.2357  0.6539
 1856TIP3    H1 5574   1.101   4.938   4.506  0.5137  1.5614  1.4499
 1856TIP3    H2 5575   1.199   4.940   4.390  0.9559  1.0645  1.8121
 1857TIP3   OH2 5576   4.660   2.047   0.508 -0.7575  0.4503 -0.6432
 1857TIP3    H1 5577   4.643   2.132   0.549  1.6904  0.2206  1.1370
 1857TIP3    H2 5578   4.741   2.061   0.459 -0.9804 -0.5668 -1.3158
 1858TIP3   OH2 5579   6.222   1.189   2.526  0.0531 -0.0097 -0.3818
 1858TIP3    H1 5580   6.130   1.208   2.542  0.0391  0.3051 -0.8006
 1858TIP3    H2 5581   6.249   1.133   2.599  0.1198  1.7292  0.9959
 1859TIP3   OH2 5582   1.033   4.123   1.258  0.1346  0.0569  0.3186
 1859TIP3    H1 5583   1.117   4.163   1.280  0.8836  0.7691 -3.1942
 1859TIP3    H2 5584   1.055   4.047   1.203 -1.4681  0.1134 -0.4919
 1860TIP3   OH2 5585   5.443   2.029   3.422  0.8552  0.1286 -0.2342
 1860TIP3    H1 5586   5.487   1.979   3.353  1.9410  0.2605  0.3429
 1860TIP3    H2 5587   5.505   2.097   3.446 -0.3114  1.3232 -0.4948
 1861TIP3   OH2 5588   5.394   5.944   0.923  0.1764  0.2691  0.0764
 1861TIP3    H1 5589   5.475   5.894   0.913  0.2226  0.1354  1.0379
 1861TIP3    H2 5590   5.330   5.897   0.870  0.3685 -0.4909  0.4997
 1862TIP3   OH2 5591   1.747   5.469   3.763  0.1477 -0.0683  0.3773
 1862TIP3    H1 5592   1.716   5.444   3.849  1.6513 -0.8010  0.7444
 1862TIP3    H2 5593   1.738   5.390   3.710  0.2439  0.0625  0.1643
 1863TIP3   OH2 5594   1.085   5.957   0.259 -0.5004 -0.4125  0.7526
 1863TIP3    H1 5595   1.085   6.012   0.337  2.4708  0.8585  0.0069
 1863TIP3    H2 5596   1.122   5.874   0.288 -0.6337 -0.4001  0.9581
 1864TIP3   OH2 5597   5.498   5.346   3.139 -0.4013 -0.2521 -0.0922
 1864TIP3    H1 5598   5.506   5.420   3.079 -0.6522 -1.0879 -1.1904
 1864TIP3    H2 5599   5.582   5.341   3.183 -0.7417  1.3424  0.8071
 1865TIP3   OH2 5600   4.585   0.833  -0.008  0.0246  0.1630 -0.4712
 1865TIP3    H1 5601   4.623   0.920  -0.005 -0.2021  0.2431  0.2662
 1865TIP3    H2 5602   4.561   0.814   0.083  0.4308 -0.8217 -0.5499
 1866TIP3   OH2 5603   1.095   2.595   4.176  0.0429 -0.2312  0.3715
 1866TIP3    H1 5604   1.018   2.545   4.201  0.4840 -1.1699 -0.0929
 1866TIP3    H2 5605   1.165   2.530   4.169  1.2244  0.7724  2.1318
 1867TIP3   OH2 5606   6.060   1.179   5.197 -0.0716 -0.1114  0.5206
 1867TIP3    H1 5607   6.112   1.100   5.185 -1.4056 -0.9213 -0.1955
 1867TIP3    H2 5608   6.025   1.198   5.110 -1.4296  0.0450  1.0711
 1868TIP3   OH2 5609   0.943   3.209   0.364 -0.2585 -0.2639 -0.5296
 1868TIP3    H1 5610   0.880   3.280   0.349  1.6648  1.3084 -1.5709
 1868TIP3    H2 5611   0.979   3.227   0.450  1.3843  1.0462 -1.4334
 1869TIP3   OH2 5612   3.823   0.606   0.063  0.0672 -0.3655  1.0408
 1869TIP3    H1 5613   3.773   0.574   0.138 -0.0205 -1.2623  0.6076
 1869TIP3    H2 5614   3.914   0.609   0.094 -0.1543  0.7252  1.6481
 1870TIP3   OH2 5615   2.762   3.927   3.197  0.2369  0.0381 -0.2025
 1870TIP3    H1 5616   2.687   3.971   3.237  0.3843  1.2801 -1.2395
 1870TIP3    H2 5617   2.771   3.969   3.112  0.8137 -1.5537 -0.9602
 1871TIP3   OH2 5618   3.812   5.561   0.034  0.1835 -0.0664 -0.6659
 1871TIP3    H1 5619   3.728   5.589   0.072  0.5709  0.2850 -0.0408
 1871TIP3    H2 5620   3.877   5.591   0.097  0.8582  0.5695 -1.6350
 1872TIP3   OH2 5621   2.337   1.975   0.709 -0.2084  0.4057 -0.6649
 1872TIP3    H1 5622   2.280   1.899   0.724 -1.1809  1.0929 -0.7501
 1872TIP3    H2 5623   2.388   1.952   0.632 -0.2547 -0.2948 -0.4934
 1873TIP3   OH2 5624   2.344   4.735   3.689  0.6277 -0.1603 -0.2923
 1873TIP3    H1 5625   2.419   4.784   3.656 -0.3445  1.8474  0.3428
 1873TIP3    H2 5626   2.351   4.739   3.784  1.4404 -2.8101 -0.1526
 1874TIP3   OH2 5627   4.798   4.068   4.557  0.2971 -0.1255 -0.1119
 1874TIP3    H1 5628   4.878   4.114   4.583  1.1241 -1.1036 -0.8465
 1874TIP3    H2 5629   4.819   4.031   4.471 -0.4948 -1.4848  0.2544
 1875TIP3   OH2 5630   1.803   0.644   1.993  0.3797 -0.1363 -0.0089
 1875TIP3    H1 5631   1.866   0.691   2.048 -1.2236  0.6193  1.2488
 1875TIP3    H2 5632   1.803   0.555   2.029 -0.6839  0.3591  1.2999
 1876TIP3   OH2 5633   2.982   4.461   1.809  0.0820 -0.4575  0.6535
 1876TIP3    H1 5634   2.949   4.493   1.893  0.5039 -0.1351  0.7000
 1876TIP3    H2 5635   3.062   4.413   1.831  1.3456  1.3657  0.2501
 1877TIP3   OH2 5636   3.986   3.437   4.981 -0.1666  0.7070 -0.2358
 1877TIP3    H1 5637   3.979   3.346   5.010  1.5786  0.8672  0.8268
 1877TIP3    H2 5638   3.913   3.481   5.024  0.5179  0.2924  1.4715
 1878TIP3   OH2 5639   4.289   1.273   2.604 -0.3429  0.2880  0.5590
 1878TIP3    H1 5640   4.376   1.249   2.635 -0.2271 -2.0569 -1.3371
 1878TIP3    H2 5641   4.297   1.364   2.576  0.9588  0.7055  2.1478
 1879TIP3   OH2 5642   3.584   5.489   2.028 -0.5576  0.3154 -0.4637
 1879TIP3    H1 5643   3.557   5.580   2.033 -0.4157  0.2686  1.9914
 1879TIP3    H2 5644   3.661   5.490   1.970 -1.4296  1.4823 -1.6636
 1880TIP3   OH2 5645   3.092   1.582   2.482  0.3483  0.3788 -0.1247
 1880TIP3    H1 5646   3.117   1.490   2.485 -0.1745  0.2321 -0.0810
 1880TIP3    H2 5647   3.147   1.625   2.548 -1.8593 -0.5219  2.4916
 1881TIP3   OH2 5648   5.935   3.371   3.112 -0.2753  0.5106 -0.2237
 1881TIP3    H1 5649   5.949   3.386   3.206 -1.1973  2.3827 -0.3332
 1881TIP3    H2 5650   5.972   3.448   3.070 -0.5789  0.0564 -1.3408
 1882TIP3   OH2 5651   0.199   1.553   4.233 -0.2808 -0.1763  0.4100
 1882TIP3    H1 5652   0.146   1.522   4.159 -2.4269  3.9312 -0.0648
 1882TIP3    H2 5653   0.140   1.549   4.308 -0.0560  0.9783  0.6644
 1883TIP3   OH2 5654   0.816   2.846   1.799 -0.2226  0.3348 -0.2615
 1883TIP3    H1 5655   0.758   2.878   1.868 -1.0672 -0.9052 -0.3599
 1883TIP3    H2 5656   0.848   2.762   1.832 -1.0033 -0.4960 -1.5416
 1884TIP3   OH2 5657   1.412   4.304   0.036 -0.7551  0.2692  0.6647
 1884TIP3    H1 5658   1.413   4.299   0.132 -0.2951 -0.8666  0.6187
 1884TIP3    H2 5659   1.500   4.332   0.012 -1.2859  2.0158  0.6065
 1885TIP3   OH2 5660   1.817   4.702   3.494 -0.3156  0.1306 -0.6881
 1885TIP3    H1 5661   1.737   4.752   3.482 -0.8918 -0.9061 -1.3255
 1885TIP3    H2 5662   1.799   4.617   3.454  1.2618  0.0313 -1.3030
 1886TIP3   OH2 5663   6.287   0.367   0.165  0.1146  0.0825 -0.3131
 1886TIP3    H1 5664   6.264   0.429   0.096  0.6287  0.1903 -0.3887
 1886TIP3    H2 5665   6.353   0.310   0.125  0.3238  0.0665  0.0541
 1887TIP3   OH2 5666   2.569   3.838   5.163 -0.0942 -0.4184  0.1578
 1887TIP3    H1 5667   2.515   3.823   5.085  0.0453  0.4745 -0.1173
 1887TIP3    H2 5668   2.659   3.837   5.131  0.0340 -1.1732  0.5031
 1888TIP3   OH2 5669   0.443   1.192   2.922  0.3923 -0.5683  0.4999
 1888TIP3    H1 5670   0.393   1.158   2.997 -0.0937 -0.2590  0.3208
 1888TIP3    H2 5671   0.386   1.176   2.847 -0.5473  1.9975  0.5727
 1889TIP3   OH2 5672   6.168   5.962   1.715 -0.4787  0.3174  0.3010
 1889TIP3    H1 5673   6.236   6.024   1.739 -1.8959  1.8515  0.4866
 1889TIP3    H2 5674   6.130   5.934   1.798 -0.7408  0.2500  0.1603
 1890TIP3   OH2 5675   1.726   5.650   2.256  0.1608 -0.2595 -0.0841
 1890TIP3    H1 5676   1.804   5.604   2.226 -0.3510 -1.9445  1.0309
 1890TIP3    H2 5677   1.734   5.738   2.219  2.2700 -0.5763 -0.4872
 1891TIP3   OH2 5678   4.782   3.159   2.307 -0.0782  0.0688 -0.3930
 1891TIP3    H1 5679   4.750   3.232   2.360  0.9441  0.7483 -0.6757
 1891TIP3    H2 5680   4.864   3.191   2.270  2.9024 -2.7422  3.0651
 1892TIP3   OH2 5681   4.383   4.222   1.304 -0.0632 -0.3462 -0.1080
 1892TIP3    H1 5682   4.455   4.271   1.344  0.0982 -1.4307  1.0072
 1892TIP3    H2 5683   4.321   4.289   1.276  0.5716  0.5315  0.5293
 1893TIP3   OH2 5684   2.188   5.120   4.765  0.0066 -0.0495 -0.5256
 1893TIP3    H1 5685   2.244   5.096   4.838  2.0205  0.3579 -1.8701
 1893TIP3    H2 5686   2.120   5.174   4.804  0.6516 -0.3698  1.1263
 1894TIP3   OH2 5687   3.587   0.283   4.899 -0.2628  0.2657 -0.2263
 1894TIP3    H1 5688   3.517   0.219   4.913 -0.6966  0.6547 -0.5550
 1894TIP3    H2 5689   3.602   0.282   4.805  0.3720 -0.0094 -0.1267
 1895TIP3   OH2 5690   3.204   5.541   1.966 -0.3721 -0.2180  0.1106
 1895TIP3    H1 5691   3.295   5.568   1.956 -0.2019 -0.8615 -0.1596
 1895TIP3    H2 5692   3.153   5.620   1.949  0.1634  0.3853  1.2526
 1896TIP3   OH2 5693   2.771   4.446   4.460 -0.2636  0.0689 -0.0517
 1896TIP3    H1 5694   2.798   4.535   4.439 -0.8226  0.2784  0.1161
 1896TIP3    H2 5695   2.806   4.430   4.548 -1.5052  0.6983  0.5817
 1897TIP3   OH2 5696   2.830   5.756   2.910 -0.1983 -0.0707  0.3066
 1897TIP3    H1 5697   2.923   5.778   2.918 -0.1917  0.1337 -0.2914
 1897TIP3    H2 5698   2.785   5.840   2.916 -0.1968  0.1031 -1.5918
 1898TIP3   OH2 5699   0.431   3.880   4.308  0.0128  0.1288  0.0601
 1898TIP3    H1 5700   0.399   3.808   4.254 -0.3602 -0.0915  0.5701
 1898TIP3    H2 5701   0.483   3.837   4.377  0.3711  0.3960 -0.0427
 1899TIP3   OH2 5702   0.943   0.640   0.694  0.1732  0.3009  0.3819
 1899TIP3    H1 5703   0.893   0.717   0.667  0.0616 -0.1943 -0.8893
 1899TIP3    H2 5704   1.035   0.669   0.691  0.2645 -0.0699 -1.8004
 1900TIP3   OH2 5705   1.991   3.649   4.825 -1.0139  0.1509  0.1021
 1900TIP3    H1 5706   1.967   3.741   4.812 -3.5036 -0.6812 -2.0401
 1900TIP3    H2 5707   1.909   3.606   4.849 -0.0109 -1.6336  0.4693
 1901TIP3   OH2 5708   2.606   5.098   3.551  0.1052 -0.3766 -0.3544
 1901TIP3    H1 5709   2.631   5.184   3.584  0.7118 -0.8708  0.5480
 1901TIP3    H2 5710   2.626   5.100   3.458 -0.3054  0.6048 -0.4219
 1902TIP3   OH2 5711   5.189   1.211   5.147 -0.2025 -0.2604  0.9138
 1902TIP3    H1 5712   5.253   1.222   5.217  0.2800 -0.4581  0.5106
 1902TIP3    H2 5713   5.129   1.285   5.157  1.3530  1.1729 -0.0516
 1903TIP3   OH2 5714   2.943   1.947   0.942  0.1420  0.3146  0.0427
 1903TIP3    H1 5715   2.943   1.989   1.028  0.9825 -0.2428  0.3265
 1903TIP3    H2 5716   2.971   2.016   0.882  1.2349  0.2533  0.4635
 1904TIP3   OH2 5717   0.711   5.667   1.755 -0.3818  0.0912  0.5354
 1904TIP3    H1 5718   0.774   5.640   1.822 -0.8268  0.8416  1.2760
 1904TIP3    H2 5719   0.670   5.585   1.727  0.4286 -0.3294  0.5400
 1905TIP3   OH2 5720   0.635   2.041   4.429 -0.2473  0.1503  0.1138
 1905TIP3    H1 5721   0.644   1.963   4.484 -1.0119  1.4655  2.2338
 1905TIP3    H2 5722   0.552   2.079   4.456 -0.7248  0.8040 -2.1239
 1906TIP3   OH2 5723   0.602   0.544   1.739 -0.2923  0.3724 -0.4745
 1906TIP3    H1 5724   0.697   0.545   1.752 -0.4454 -1.7651  1.4454
 1906TIP3    H2 5725   0.591   0.533   1.645  1.3635  0.8733 -0.7568
 1907TIP3   OH2 5726   0.330   4.545   2.427  0.0090 -0.2055 -0.2188
 1907TIP3    H1 5727   0.267   4.533   2.357 -1.4859  2.9853  0.4365
 1907TIP3    H2 5728   0.357   4.636   2.421  1.9000 -0.5385  1.7401
 1908TIP3   OH2 5729   4.970   4.582   0.572  0.3335  0.0827 -0.5075
 1908TIP3    H1 5730   4.957   4.575   0.478 -0.1084 -0.0120 -0.4411
 1908TIP3    H2 5731   5.036   4.650   0.583 -1.2055  1.6755 -0.7867
 1909TIP3   OH2 5732   1.448   1.724   1.630 -0.4376  0.0562 -0.6327
 1909TIP3    H1 5733   1.534   1.755   1.659 -1.0827  0.7798  0.6219
 1909TIP3    H2 5734   1.465   1.640   1.589  0.7149 -0.4786  0.8694
 1910TIP3   OH2 5735   4.275   1.347   2.911  0.4714  0.5194  0.1666
 1910TIP3    H1 5736   4.229   1.274   2.872  0.9910 -0.1165  0.7228
 1910TIP3    H2 5737   4.206   1.408   2.938  0.1210  1.3261 -2.3718
 1911TIP3   OH2 5738   0.704   4.393   4.748 -0.0696  0.5464  0.1015
 1911TIP3    H1 5739   0.629   4.428   4.797  0.2814  1.8029 -0.2288
 1911TIP3    H2 5740   0.775   4.391   4.812 -0.5919 -1.6005  0.6957
 1912TIP3   OH2 5741   1.980   1.640   1.839  0.2873 -0.2356  0.3704
 1912TIP3    H1 5742   2.033   1.697   1.783  0.5823 -0.7695  0.1090
 1912TIP3    H2 5743   2.005   1.551   1.814 -0.6874 -0.4920  0.2803
 1913TIP3   OH2 5744   4.163   5.075   4.502 -0.0890  0.0312 -0.8525
 1913TIP3    H1 5745   4.214   5.006   4.545  0.4127  0.5558 -0.5805
 1913TIP3    H2 5746   4.124   5.032   4.426 -0.5189 -0.7700 -0.1966
 1914TIP3   OH2 5747   2.142   5.543   1.201  0.0901 -0.5881  0.4470
 1914TIP3    H1 5748   2.048   5.551   1.185  0.1466 -1.9599 -0.8422
 1914TIP3    H2 5749   2.160   5.602   1.273 -1.1868  2.1559 -1.3285
 1915TIP3   OH2 5750   1.096   4.563   3.940 -0.0267 -0.0911  0.6051
 1915TIP3    H1 5751   1.069   4.646   3.980 -0.6273 -0.2027  0.4408
 1915TIP3    H2 5752   1.075   4.575   3.847 -0.6411 -0.6326  0.6669
 1916TIP3   OH2 5753   3.749   1.781   2.646  0.3031 -0.0851  0.2100
 1916TIP3    H1 5754   3.679   1.846   2.655  0.1870 -0.4011  1.9377
 1916TIP3    H2 5755   3.827   1.826   2.675  1.0556  0.5076 -2.4223
 1917TIP3   OH2 5756   3.361   3.552   3.858 -0.1509 -0.0958 -0.2591
 1917TIP3    H1 5757   3.281   3.512   3.826 -0.4111  1.2498 -1.4138
 1917TIP3    H2 5758   3.401   3.592   3.780  1.2999 -0.1700  0.4024
 1918TIP3   OH2 5759   5.479   3.018   0.118  0.6553  0.2147 -0.0009
 1918TIP3    H1 5760   5.448   3.073   0.189 -1.5109  0.8069 -1.3291
 1918TIP3    H2 5761   5.457   2.929   0.146  2.7470  0.0793  1.4427
 1919TIP3   OH2 5762   0.638   3.841   2.174  0.1487  0.7081  0.0007
 1919TIP3    H1 5763   0.624   3.894   2.252  0.4537 -0.6041  0.9659
 1919TIP3    H2 5764   0.660   3.754   2.207  1.0626  0.3214 -1.5331
 1920TIP3   OH2 5765   4.986   0.615   3.084 -0.1100 -0.2028 -0.2170
 1920TIP3    H1 5766   5.050   0.544   3.074  0.9308  0.5158  0.9265
 1920TIP3    H2 5767   4.980   0.654   2.997  1.0187 -0.2973 -0.3556
 1921TIP3   OH2 5768   4.912   1.960   1.238  0.4612 -0.3941  0.3484
 1921TIP3    H1 5769   4.915   2.007   1.155 -0.0260 -0.7653  0.1183
 1921TIP3    H2 5770   4.989   1.991   1.286  1.3436 -0.9814 -0.6595
 1922TIP3   OH2 5771   3.345   4.802   4.610  0.2859 -0.1410 -0.3762
 1922TIP3    H1 5772   3.289   4.733   4.645 -1.3962  1.0700 -0.5650
 1922TIP3    H2 5773   3.337   4.793   4.515  0.2558  0.1510 -0.4035
 1923TIP3   OH2 5774   2.595   1.348   0.019  0.0795 -0.2606 -0.5907
 1923TIP3    H1 5775   2.601   1.299  -0.063  0.3056  1.5318 -1.7051
 1923TIP3    H2 5776   2.676   1.326   0.065 -1.4457 -3.8025  0.7471
 1924TIP3   OH2 5777   3.214   3.025   2.228 -0.1156 -0.0103  0.2580
 1924TIP3    H1 5778   3.227   3.068   2.143 -0.8088 -0.3957 -0.0493
 1924TIP3    H2 5779   3.296   3.039   2.274 -0.3165  1.6902  0.1848
 1925TIP3   OH2 5780   5.154   2.645   1.845  0.3277 -0.0096 -0.0561
 1925TIP3    H1 5781   5.115   2.732   1.841  0.5293  0.1347  0.8656
 1925TIP3    H2 5782   5.080   2.585   1.848  0.1548  0.2498  1.4687
 1926TIP3   OH2 5783   2.616   2.005   4.633  0.4907  0.6707  0.4318
 1926TIP3    H1 5784   2.679   1.938   4.608 -0.9509  0.0412 -1.8134
 1926TIP3    H2 5785   2.663   2.059   4.698  3.0649 -0.1474 -0.6050
 1927TIP3   OH2 5786   0.482   5.786   4.352 -0.4303 -0.3643  0.2824
 1927TIP3    H1 5787   0.452   5.754   4.436 -0.1588  0.4254  0.6937
 1927TIP3    H2 5788   0.518   5.873   4.371  0.0333 -0.3573 -0.5685
 1928TIP3   OH2 5789   1.903   3.834   3.403 -0.0126  0.5268 -0.0214
 1928TIP3    H1 5790   1.818   3.865   3.372 -0.6214 -1.0463  0.0281
 1928TIP3    H2 5791   1.941   3.910   3.447 -0.8689  1.6019 -1.0705
 1929TIP3   OH2 5792   4.371   4.910   4.635 -0.0695  0.7711  0.3634
 1929TIP3    H1 5793   4.434   4.980   4.623  1.1266 -0.1074  1.1875
 1929TIP3    H2 5794   4.417   4.831   4.608 -1.0483  0.1793  0.3585
 1930TIP3   OH2 5795   2.674   4.072   2.735  0.6458  0.7174 -0.4491
 1930TIP3    H1 5796   2.608   4.015   2.695  0.8649  0.8840 -1.0565
 1930TIP3    H2 5797   2.650   4.160   2.706 -0.6620  1.1877  1.7801
 1931TIP3   OH2 5798   0.465   2.363   2.649 -0.3551 -0.2515  0.3243
 1931TIP3    H1 5799   0.452   2.457   2.656 -0.7691 -0.3562  1.0718
 1931TIP3    H2 5800   0.400   2.325   2.708  1.3453 -0.9136  1.8710
 1932TIP3   OH2 5801   3.347   4.880   3.541 -0.2675 -0.0786  0.2194
 1932TIP3    H1 5802   3.252   4.870   3.548 -0.6351  0.7222 -2.3284
 1932TIP3    H2 5803   3.373   4.811   3.479  0.7358 -0.0056  0.5473
 1933TIP3   OH2 5804   4.187   2.635   1.592  0.2362 -0.0716  0.0324
 1933TIP3    H1 5805   4.209   2.617   1.684  0.0272  0.5106  0.1999
 1933TIP3    H2 5806   4.097   2.667   1.595 -0.2546 -1.3364 -0.5291
 1934TIP3   OH2 5807   2.057   0.252   0.905 -0.6774  0.6698  0.3843
 1934TIP3    H1 5808   1.965   0.229   0.920 -0.8960  1.8708  0.9460
 1934TIP3    H2 5809   2.092   0.270   0.992 -0.4902  2.2902  0.0017
 1935TIP3   OH2 5810   2.387   1.993   4.785 -0.4136 -0.1900 -0.1577
 1935TIP3    H1 5811   2.317   1.959   4.728 -0.2093 -1.7066  0.4657
 1935TIP3    H2 5812   2.465   1.990   4.730 -0.4062 -0.7180 -0.1280
 1936TIP3   OH2 5813   3.667   0.876   1.651 -0.4032 -0.0938 -0.1091
 1936TIP3    H1 5814   3.657   0.945   1.717  1.1921 -0.0929  0.1703
 1936TIP3    H2 5815   3.629   0.798   1.692 -0.1110  0.0822  0.5116
 1937TIP3   OH2 5816  -0.005   3.254   2.079 -0.7933  0.6915 -0.1312
 1937TIP3    H1 5817   0.040   3.170   2.078 -2.4015 -0.2555 -2.5429
 1937TIP3    H2 5818   0.036   3.305   2.010 -0.7934  1.3435  0.3392
 1938TIP3   OH2 5819   2.207   5.087   3.152 -0.0310 -0.4034  0.4200
 1938TIP3    H1 5820   2.223   5.002   3.193 -1.1116 -1.2893 -0.9148
 1938TIP3    H2 5821   2.233   5.151   3.218 -0.0868 -1.7669  1.8048
 1939TIP3   OH2 5822   0.535   3.480   0.686  0.3735 -0.1554 -0.6596
 1939TIP3    H1 5823   0.464   3.424   0.655  0.2723  1.1895 -3.1253
 1939TIP3    H2 5824   0.605   3.467   0.621  1.5182  0.2866  0.4469
 1940TIP3   OH2 5825   3.471   3.519   1.287 -0.3424  0.3999 -0.1119
 1940TIP3    H1 5826   3.530   3.452   1.320  0.5845  0.8373 -0.8300
 1940TIP3    H2 5827   3.384   3.491   1.316  0.3690  0.7551  2.6526
 1941TIP3   OH2 5828   4.398   4.380   3.738  0.1859 -0.2197  0.0122
 1941TIP3    H1 5829   4.328   4.426   3.786  0.6310 -0.4403  0.8892
 1941TIP3    H2 5830   4.418   4.438   3.665  0.3760  0.7613  0.8065
 1942TIP3   OH2 5831   5.585   5.374   1.470  0.3824 -0.4032  0.4986
 1942TIP3    H1 5832   5.525   5.358   1.398  0.6881 -1.2160  0.4176
 1942TIP3    H2 5833   5.530   5.372   1.549  0.0292  0.6074  0.2897
 1943TIP3   OH2 5834   0.560   2.704   3.742 -0.2598  0.4144  0.3578
 1943TIP3    H1 5835   0.610   2.631   3.706  0.6520  0.6526  1.0994
 1943TIP3    H2 5836   0.551   2.765   3.669 -0.6125 -0.2216 -0.1371
 1944TIP3   OH2 5837   0.337   1.709   1.736 -1.0322 -0.5308 -0.1514
 1944TIP3    H1 5838   0.370   1.768   1.803 -2.1966  0.8779 -0.7732
 1944TIP3    H2 5839   0.401   1.716   1.665  0.0427 -1.8007  0.6173
 1945TIP3   OH2 5840   1.524   0.543   3.127 -0.3898 -0.0690  0.0093
 1945TIP3    H1 5841   1.539   0.467   3.072  1.4884  1.0893 -1.2054
 1945TIP3    H2 5842   1.481   0.607   3.069  3.0423  1.7541 -0.7758
 1946TIP3   OH2 5843   4.445   2.026   2.220 -0.0135 -0.4444 -0.6707
 1946TIP3    H1 5844   4.361   2.061   2.192  0.1098  1.6480  1.2762
 1946TIP3    H2 5845   4.503   2.102   2.223  0.7506 -0.9963  2.0986
 1947TIP3   OH2 5846   1.997   0.782   2.168 -0.4729  0.3998  0.8033
 1947TIP3    H1 5847   1.976   0.875   2.176 -0.1248  0.4035  1.9256
 1947TIP3    H2 5848   2.071   0.769   2.227 -0.5955 -0.6169  0.7586
 1948TIP3   OH2 5849   3.146   0.194   0.988  0.0855  0.8747  0.1920
 1948TIP3    H1 5850   3.120   0.125   1.050  0.5585  0.1901 -0.3660
 1948TIP3    H2 5851   3.168   0.269   1.044 -0.3424  0.5511  0.8080
 1949TIP3   OH2 5852   5.268   0.272   2.655 -0.1691 -0.5676  0.5479
 1949TIP3    H1 5853   5.239   0.233   2.738 -2.8214 -1.0744 -0.5170
 1949TIP3    H2 5854   5.188   0.309   2.616  1.4001  1.7013 -0.7575
 1950TIP3   OH2 5855   5.897   5.972   4.878  0.2973  0.3298 -0.4820
 1950TIP3    H1 5856   5.964   5.988   4.944  0.2616  1.7094 -0.7526
 1950TIP3    H2 5857   5.843   5.902   4.915  1.6006 -0.4884 -0.0658
 1951TIP3   OH2 5858   6.303   2.623   5.161  0.3786 -0.2232  0.0161
 1951TIP3    H1 5859   6.342   2.543   5.195  0.4874  0.2001  0.9275
 1951TIP3    H2 5860   6.316   2.619   5.066  0.6229 -1.1474  0.0874
 1952TIP3   OH2 5861   1.396   2.327   1.169  0.2224 -0.4550  0.2110
 1952TIP3    H1 5862   1.486   2.346   1.195  0.7284 -1.4688 -0.7459
 1952TIP3    H2 5863   1.394   2.232   1.156 -1.1416 -0.5331  0.7789
 1953TIP3   OH2 5864   2.203   1.028   1.827 -0.3966  0.0947 -0.3642
 1953TIP3    H1 5865   2.231   1.088   1.757  0.1033 -0.1604 -0.3866
 1953TIP3    H2 5866   2.278   0.970   1.840 -0.4100  0.2771  0.5436
 1954TIP3   OH2 5867   3.605   0.487   4.528  0.4843 -0.1076  0.0857
 1954TIP3    H1 5868   3.587   0.417   4.590  2.0411  1.3130  2.3375
 1954TIP3    H2 5869   3.519   0.521   4.503 -0.2099 -1.3729  0.6907
 1955TIP3   OH2 5870   3.019   4.323   4.928  0.1268  0.0524  0.2889
 1955TIP3    H1 5871   2.940   4.284   4.966  0.0991  0.1132  0.2937
 1955TIP3    H2 5872   3.033   4.402   4.980  0.0320  0.1885  0.1071
 1956TIP3   OH2 5873   2.961   2.398   3.275  0.4030 -0.4147 -0.4247
 1956TIP3    H1 5874   3.008   2.315   3.281 -2.0328 -1.9297 -1.0273
 1956TIP3    H2 5875   2.957   2.431   3.365  2.1841 -0.4285 -0.3070
 1957TIP3   OH2 5876   5.411   2.998   2.338 -0.0661  0.4999 -0.7450
 1957TIP3    H1 5877   5.474   2.942   2.383 -0.1746  0.3889 -0.7316
 1957TIP3    H2 5878   5.328   2.984   2.385  0.0801  1.2721 -0.2288
 1958TIP3   OH2 5879   1.234   1.056   3.726  0.0882 -0.2499 -0.2312
 1958TIP3    H1 5880   1.277   1.140   3.741 -0.8821  0.1969  0.0891
 1958TIP3    H2 5881   1.298   1.005   3.676  0.9603  0.4239  0.1723
 1959TIP3   OH2 5882   4.142   5.365   2.225  0.1076  0.4038  0.0786
 1959TIP3    H1 5883   4.069   5.411   2.268  0.5607  1.5230 -0.3197
 1959TIP3    H2 5884   4.153   5.410   2.141  1.0850  0.0809  0.0205
 1960TIP3   OH2 5885   1.807   0.369   1.031 -0.0753  0.4237  0.5589
 1960TIP3    H1 5886   1.832   0.336   1.118 -0.5770 -0.5048  0.3667
 1960TIP3    H2 5887   1.716   0.342   1.021  0.2874 -0.4198 -0.6804
 1961TIP3   OH2 5888   0.250   1.857   4.527  0.2535 -0.5850 -0.1985
 1961TIP3    H1 5889   0.229   1.804   4.604  0.8352 -2.1608 -1.0702
 1961TIP3    H2 5890   0.338   1.890   4.544  0.0078 -0.1351  0.2180
 1962TIP3   OH2 5891   0.383   5.923   2.603  0.4656 -0.2529 -0.4001
 1962TIP3    H1 5892   0.436   5.956   2.530  0.5332  1.1155  0.2354
 1962TIP3    H2 5893   0.444   5.872   2.656  1.6647  2.5696  1.1691
 1963TIP3   OH2 5894   1.338   0.767   3.733 -0.3033 -0.6393 -0.2006
 1963TIP3    H1 5895   1.385   0.691   3.768 -0.3064 -0.2998  0.5640
 1963TIP3    H2 5896   1.270   0.785   3.798  0.7660  1.0645  0.5183
 1964TIP3   OH2 5897   0.698   5.611   2.630  0.2791  0.2610  0.1192
 1964TIP3    H1 5898   0.706   5.683   2.568  1.8714 -1.4655 -1.8339
 1964TIP3    H2 5899   0.613   5.624   2.671 -0.3052  2.1718 -1.5491
 1965TIP3   OH2 5900   6.317   2.055   0.598 -0.1446  0.0247 -0.2084
 1965TIP3    H1 5901   6.402   2.066   0.640 -0.3275 -1.9650  0.8040
 1965TIP3    H2 5902   6.268   2.135   0.622  0.3893 -0.1993  1.8551
 1966TIP3   OH2 5903   1.921   2.183   4.455 -0.1843  0.3883 -0.4050
 1966TIP3    H1 5904   1.980   2.157   4.526 -0.4893 -1.6487 -0.8429
 1966TIP3    H2 5905   1.833   2.175   4.493 -0.2634  2.6323 -0.0049
 1967TIP3   OH2 5906   3.587   1.991   2.606 -0.1537  0.8065 -0.3644
 1967TIP3    H1 5907   3.534   1.981   2.685 -0.1742 -1.2390 -0.5600
 1967TIP3    H2 5908   3.615   2.082   2.606  0.0033  0.8292  2.1044
 1968TIP3   OH2 5909   3.468   2.886   2.291  0.2390 -0.1523 -0.8993
 1968TIP3    H1 5910   3.548   2.897   2.342  1.5045 -1.4911 -2.4706
 1968TIP3    H2 5911   3.420   2.817   2.337  1.4102 -1.4157 -1.5032
 1969TIP3   OH2 5912   3.481   2.454   0.811 -0.1234  0.6941  0.2607
 1969TIP3    H1 5913   3.423   2.513   0.859  0.6815  1.3653  0.4168
 1969TIP3    H2 5914   3.525   2.403   0.879 -1.3991 -0.6923  0.1115
 1970TIP3   OH2 5915   0.950   4.143   4.736  0.2071  0.1720 -0.3519
 1970TIP3    H1 5916   0.989   4.123   4.651  1.4444  0.7474  0.0530
 1970TIP3    H2 5917   0.948   4.058   4.781 -0.6469 -0.1703 -1.0238
 1971TIP3   OH2 5918   2.641   5.611   3.227  0.0098 -0.3745  0.1867
 1971TIP3    H1 5919   2.621   5.679   3.292  0.6499 -1.7389  1.8856
 1971TIP3    H2 5920   2.731   5.628   3.201 -0.7183  1.1154 -1.6235
 1972TIP3   OH2 5921   4.305   4.349   3.441  0.1409  0.1616 -0.0346
 1972TIP3    H1 5922   4.280   4.290   3.513 -0.0480  0.8371  0.4632
 1972TIP3    H2 5923   4.230   4.349   3.382  0.2338 -0.2748 -0.1581
 1973TIP3   OH2 5924   5.041   1.515   0.279  0.0176 -0.2572  0.5853
 1973TIP3    H1 5925   5.067   1.597   0.322  2.6287 -1.6709  1.9627
 1973TIP3    H2 5926   4.966   1.484   0.331 -1.9491  1.8385 -0.8176
 1974TIP3   OH2 5927   0.813   3.322   0.010 -0.5542 -0.5118  0.0148
 1974TIP3    H1 5928   0.750   3.394   0.002  1.4802  1.5218  0.9794
 1974TIP3    H2 5929   0.810   3.299   0.103 -1.5494 -2.1158 -0.3711
 1975TIP3   OH2 5930   0.915   4.597   0.203  0.1104 -0.0955  0.2606
 1975TIP3    H1 5931   0.950   4.609   0.115  1.1934  1.8874  0.9005
 1975TIP3    H2 5932   0.820   4.605   0.192  0.0508 -1.9654 -0.9776
 1976TIP3   OH2 5933   5.396   0.994   0.322  0.1174  0.3252 -0.1360
 1976TIP3    H1 5934   5.426   0.912   0.360 -2.4222  0.1818  1.8405
 1976TIP3    H2 5935   5.475   1.048   0.316  1.7315 -1.9899 -0.9167
 1977TIP3   OH2 5936   3.931   3.526   4.715 -0.0867  0.0448  0.8890
 1977TIP3    H1 5937   4.022   3.551   4.702 -0.3350 -0.2127 -2.1570
 1977TIP3    H2 5938   3.932   3.475   4.796  2.6464 -0.6555  0.5385
 1978TIP3   OH2 5939   0.570   3.138   4.246 -0.1339  0.2658 -0.4944
 1978TIP3    H1 5940   0.507   3.068   4.232 -0.9764  0.7260  0.8963
 1978TIP3    H2 5941   0.530   3.215   4.206 -1.6305  1.1185  2.4087
 1979TIP3   OH2 5942   3.757   4.309   4.330 -0.5104 -0.6285 -0.0180
 1979TIP3    H1 5943   3.823   4.273   4.270 -1.9932 -0.4670 -1.8478
 1979TIP3    H2 5944   3.690   4.240   4.336 -0.7861 -0.3013  0.8070
 1980TIP3   OH2 5945   0.886   2.741   3.960  0.2179  0.3622 -0.5377
 1980TIP3    H1 5946   0.950   2.782   3.901  0.7130  0.0888 -0.2000
 1980TIP3    H2 5947   0.932   2.734   4.043 -0.7111  1.3948  0.0901
 1981TIP3   OH2 5948   3.520   4.847   2.160 -0.1683 -0.1978 -0.5309
 1981TIP3    H1 5949   3.556   4.782   2.101 -0.4867 -1.5780  0.7402
 1981TIP3    H2 5950   3.438   4.875   2.119  0.0025 -0.5518 -1.1131
 1982TIP3   OH2 5951   2.555   1.085   4.993 -0.2603 -0.0710  0.4983
 1982TIP3    H1 5952   2.558   1.103   4.899 -1.5389 -0.2683  0.4014
 1982TIP3    H2 5953   2.635   1.125   5.028  0.6172 -0.6409 -0.7688
 1983TIP3   OH2 5954   3.593   2.679   3.153  0.2912  0.3361  0.1613
 1983TIP3    H1 5955   3.520   2.728   3.190 -0.4817  0.5217 -1.5025
 1983TIP3    H2 5956   3.671   2.729   3.179 -0.2967  1.0947  0.5092
 1984TIP3   OH2 5957   1.678   0.646   5.004 -0.2473 -0.0786  0.6720
 1984TIP3    H1 5958   1.607   0.689   4.955  0.7679 -0.7313 -1.5012
 1984TIP3    H2 5959   1.704   0.572   4.949  0.6513 -1.1796  2.4822
 1985TIP3   OH2 5960   2.309   5.497   2.494  0.5930 -0.3568 -0.7470
 1985TIP3    H1 5961   2.305   5.552   2.416  0.2869  1.7393  0.6552
 1985TIP3    H2 5962   2.401   5.473   2.501  0.2977 -2.4532 -2.9069
 1986TIP3   OH2 5963   6.029   3.604   3.000  0.2916  0.2013  0.1171
 1986TIP3    H1 5964   6.001   3.680   2.949  1.1588  0.4907  0.0537
 1986TIP3    H2 5965   6.112   3.631   3.040  1.4395 -1.2079 -1.1389
 1987TIP3   OH2 5966   1.592   5.161   2.957  0.2092  0.1012  0.5560
 1987TIP3    H1 5967   1.575   5.233   2.896  1.7782  0.2932  0.2936
 1987TIP3    H2 5968   1.610   5.204   3.040  1.9216  0.0967  0.2192
 1988TIP3   OH2 5969   5.421   4.181   2.412 -0.5037  0.1374  0.0840
 1988TIP3    H1 5970   5.335   4.201   2.375  0.5184  1.5304 -1.7215
 1988TIP3    H2 5971   5.430   4.242   2.485  0.4726  2.9925 -2.2037
 1989TIP3   OH2 5972   5.035   1.031   1.244 -0.3486  0.6093  0.1964
 1989TIP3    H1 5973   4.942   1.012   1.255 -0.7928  2.6389  0.3451
 1989TIP3    H2 5974   5.052   1.103   1.304  1.4953 -0.1624  0.6417
 1990TIP3   OH2 5975   3.942   4.206   2.836  0.3250 -0.0311  0.1913
 1990TIP3    H1 5976   4.020   4.259   2.822  1.5344 -1.1650  2.1685
 1990TIP3    H2 5977   3.964   4.151   2.911 -2.3172 -0.5217  0.7014
 1991TIP3   OH2 5978   3.007   0.135   2.277  0.3508 -0.5433 -0.0743
 1991TIP3    H1 5979   3.019   0.040   2.269  0.6680 -0.4591 -0.6745
 1991TIP3    H2 5980   2.928   0.145   2.330 -0.5935 -1.1777 -1.3003
 1992TIP3   OH2 5981   3.621   1.516   2.298  0.3295 -0.0853  0.0497
 1992TIP3    H1 5982   3.716   1.523   2.312  0.1105 -0.5446  2.1895
 1992TIP3    H2 5983   3.607   1.423   2.279  0.4496  0.2660 -1.8909
 1993TIP3   OH2 5984   1.172   5.833   4.850  0.4748  0.0345  0.2883
 1993TIP3    H1 5985   1.149   5.767   4.784  0.5937 -0.1544  0.4366
 1993TIP3    H2 5986   1.208   5.783   4.923  0.3558  0.2446  0.4941
 1994TIP3   OH2 5987   3.733   4.056   1.908 -0.3701 -0.4545 -0.0150
 1994TIP3    H1 5988   3.762   4.014   1.826  0.5860  2.5057 -1.3244
 1994TIP3    H2 5989   3.745   3.989   1.975 -1.3614 -3.0823 -2.2658
 1995TIP3   OH2 5990   5.927   5.186   2.452  0.0675 -0.0057  0.5810
 1995TIP3    H1 5991   5.928   5.253   2.384  0.6510 -0.3828  0.2075
 1995TIP3    H2 5992   6.010   5.139   2.441 -0.3835 -0.8628  0.7585
 1996TIP3   OH2 5993   4.632   5.519   4.581 -0.1432  0.3001  0.2810
 1996TIP3    H1 5994   4.685   5.440   4.594 -2.4343 -1.1069  1.6102
 1996TIP3    H2 5995   4.697   5.589   4.573  2.0013 -1.6819 -1.2478
 1997TIP3   OH2 5996   5.854   3.363   0.121 -0.3822  0.3712  0.0181
 1997TIP3    H1 5997   5.887   3.304   0.052  1.2805 -0.3189  1.3343
 1997TIP3    H2 5998   5.930   3.417   0.144 -0.0664 -1.2478  3.1655
 1998TIP3   OH2 5999   2.419   4.982   0.239  0.4362 -0.2998  0.1370
 1998TIP3    H1 6000   2.343   5.015   0.287 -0.0568  0.5900 -1.1961
 1998TIP3    H2 6001   2.381   4.924   0.173  1.1126 -1.6431  0.8990
 1999TIP3   OH2 6002   5.525   2.287   2.751  0.0047  0.1796 -0.1687
 1999TIP3    H1 6003   5.445   2.267   2.800 -0.3903  0.4030 -0.7082
 1999TIP3    H2 6004   5.555   2.371   2.787  0.6053 -0.4196  0.7773
 2000TIP3   OH2 6005   4.635   5.859   1.382  0.0241 -0.0880  0.4905
 2000TIP3    H1 6006   4.613   5.769   1.406  0.2568  0.4464  2.9492
 2000TIP3    H2 6007   4.567   5.883   1.319 -0.1355 -1.9026 -0.1128
 2001TIP3   OH2 6008   6.146   4.527   2.659  0.6497 -0.9758 -0.1771
 2001TIP3    H1 6009   6.075   4.527   2.596  0.8181  1.4850 -0.4735
 2001TIP3    H2 6010   6.203   4.598   2.631  0.7733  0.1906  2.6638
 2002TIP3   OH2 6011   0.868   5.361   0.189 -0.0380  0.4575  0.0252
 2002TIP3    H1 6012   0.938   5.327   0.245 -0.6595  0.4543  0.8228
 2002TIP3    H2 6013   0.888   5.454   0.180  1.7934 -0.0952 -2.3545
 2003TIP3   OH2 6014   4.270   2.265   0.158 -0.0978  0.4594 -0.3399
 2003TIP3    H1 6015   4.212   2.339   0.176  0.2015  0.5091  0.4961
 2003TIP3    H2 6016   4.311   2.285   0.074 -1.4381  0.3215 -1.0450
 2004TIP3   OH2 6017   2.117   2.458   2.361  0.3118  0.4010 -0.6756
 2004TIP3    H1 6018   2.205   2.426   2.338  0.2482 -0.0532 -0.3039
 2004TIP3    H2 6019   2.091   2.404   2.435 -0.6248 -0.0446 -1.3084
 2005TIP3   OH2 6020   0.675   0.958   2.659  0.0779  0.5775 -0.4966
 2005TIP3    H1 6021   0.637   0.893   2.717  0.7405 -0.0660 -0.7719
 2005TIP3    H2 6022   0.752   0.990   2.706 -0.4440  1.4407 -0.2017
 2006TIP3   OH2 6023   0.638   5.319   3.124  0.4127 -0.1765  0.5096
 2006TIP3    H1 6024   0.657   5.308   3.217 -1.1282 -0.1484  0.8569
 2006TIP3    H2 6025   0.546   5.293   3.116  0.3386  0.4666 -0.8911
 2007TIP3   OH2 6026   4.853   0.106   2.196 -0.4236  0.5444 -0.0274
 2007TIP3    H1 6027   4.787   0.045   2.162  0.8478 -0.1685 -1.3569
 2007TIP3    H2 6028   4.816   0.193   2.181 -1.2692  0.1446 -0.3006
 2008TIP3   OH2 6029   3.434   1.449   0.733 -0.8395  0.3112 -0.6706
 2008TIP3    H1 6030   3.471   1.517   0.790 -1.4703  0.9339 -0.9806
 2008TIP3    H2 6031   3.410   1.379   0.793 -0.0518  0.2941 -0.3580
 2009TIP3   OH2 6032   4.852   3.833   3.760 -0.6192  0.3392 -0.2516
 2009TIP3    H1 6033   4.942   3.857   3.780 -1.0195  1.7721 -0.0111
 2009TIP3    H2 6034   4.801   3.866   3.834 -1.1815 -1.9192  0.4236
 2010TIP3   OH2 6035   3.826   3.411   1.933 -0.0650 -0.2045  0.0344
 2010TIP3    H1 6036   3.769   3.335   1.949 -0.9856  0.6087  0.7553
 2010TIP3    H2 6037   3.842   3.409   1.839  0.6151 -1.7587  0.1568
 2011TIP3   OH2 6038   0.649   4.255   1.704 -0.0747  0.3115  0.8158
 2011TIP3    H1 6039   0.680   4.187   1.764 -0.0171  0.7217  1.2534
 2011TIP3    H2 6040   0.691   4.234   1.620 -0.4966 -0.5183  0.7989
 2012TIP3   OH2 6041   4.531   1.004   0.662 -0.4944  0.8305 -0.0417
 2012TIP3    H1 6042   4.622   0.983   0.682 -0.4446  1.0136 -0.0712
 2012TIP3    H2 6043   4.481   0.960   0.731 -0.4394  0.1459 -0.4298
 2013TIP3   OH2 6044   3.984   1.436   1.629 -0.1066 -0.1560 -0.2017
 2013TIP3    H1 6045   3.928   1.494   1.682 -0.0237  0.6532 -0.9829
 2013TIP3    H2 6046   3.931   1.358   1.617 -0.0435 -0.4580  1.2569
 2014TIP3   OH2 6047   3.125   0.921   4.227  0.0373  0.4557 -0.5870
 2014TIP3    H1 6048   3.131   0.969   4.309 -0.2667 -0.5859  0.0640
 2014TIP3    H2 6049   3.162   0.980   4.162 -0.6098  1.6949  0.1235
 2015TIP3   OH2 6050   0.782   4.232   3.376  0.3636  0.0934  0.2970
 2015TIP3    H1 6051   0.770   4.302   3.312 -0.0804 -1.2073 -1.1181
 2015TIP3    H2 6052   0.693   4.204   3.397  0.5567 -0.7338  0.0424
 2016TIP3   OH2 6053   2.358   0.195   2.073 -0.1769  0.3941  0.1103
 2016TIP3    H1 6054   2.422   0.179   2.004 -0.2165 -0.6708  0.2981
 2016TIP3    H2 6055   2.297   0.258   2.035  0.1726  0.3315 -0.5783
 2017TIP3   OH2 6056   2.493   2.572   1.781 -0.2803 -0.0656 -0.1206
 2017TIP3    H1 6057   2.583   2.544   1.767 -0.5100  0.1799 -2.4471
 2017TIP3    H2 6058   2.500   2.643   1.844  0.8753 -1.5139  1.4867
 2018TIP3   OH2 6059   2.594   3.317   0.210  0.1434  0.0355 -0.2001
 2018TIP3    H1 6060   2.585   3.270   0.293  0.3314 -0.2776 -0.3563
 2018TIP3    H2 6061   2.541   3.396   0.222 -0.0457 -0.1356  0.1219
 2019TIP3   OH2 6062   5.459   3.049   3.646 -0.3885 -0.7020 -0.4300
 2019TIP3    H1 6063   5.493   3.060   3.558  0.0671 -1.5370 -0.3690
 2019TIP3    H2 6064   5.402   2.973   3.641  0.1077 -1.1223  0.1172
 2020TIP3   OH2 6065   4.086   0.267   3.013 -0.5133 -0.5048 -0.6069
 2020TIP3    H1 6066   4.099   0.174   3.030 -1.5557 -0.7906 -1.2956
 2020TIP3    H2 6067   3.992   0.276   2.995 -0.9209  1.0683  1.8138
 2021TIP3   OH2 6068   3.240   0.874   1.466  0.1385  0.3351 -0.6182
 2021TIP3    H1 6069   3.241   0.906   1.376  1.2051  1.9914 -0.0816
 2021TIP3    H2 6070   3.282   0.788   1.462 -0.2366  0.1905 -1.7514
 2022TIP3   OH2 6071   6.212   0.267   4.840  0.6567  0.2169 -0.5368
 2022TIP3    H1 6072   6.256   0.213   4.774 -0.4863 -0.2540 -0.9396
 2022TIP3    H2 6073   6.235   0.225   4.924  0.4337 -0.4164 -0.7888
 2023TIP3   OH2 6074   1.193   0.734   0.692 -0.7032  0.8866 -0.2843
 2023TIP3    H1 6075   1.233   0.819   0.711  0.8427 -0.0269  0.7227
 2023TIP3    H2 6076   1.220   0.715   0.602 -0.4424  1.1207 -0.2570
 2024TIP3   OH2 6077   3.100   3.723   0.901  1.1791  0.5338 -1.1327
 2024TIP3    H1 6078   3.188   3.732   0.865  0.2565  1.0133 -3.5027
 2024TIP3    H2 6079   3.055   3.665   0.839  0.5487 -2.1454  1.5632
 2025TIP3   OH2 6080   5.360   4.081   2.757 -0.5913 -0.6738 -0.2141
 2025TIP3    H1 6081   5.413   4.036   2.823 -0.4781 -0.3408 -0.0732
 2025TIP3    H2 6082   5.273   4.041   2.764 -0.5157 -0.8077 -0.0320
 2026TIP3   OH2 6083   1.264   3.972   4.450  0.0448 -0.2755  0.2606
 2026TIP3    H1 6084   1.290   3.991   4.360 -0.7491 -1.5984 -0.2720
 2026TIP3    H2 6085   1.338   3.922   4.486  0.3337  0.1971  0.3326
 2027TIP3   OH2 6086   3.717   1.550   0.927 -0.0719 -0.4310  0.2231
 2027TIP3    H1 6087   3.666   1.631   0.918 -1.0650 -1.0308  0.3066
 2027TIP3    H2 6088   3.791   1.574   0.982 -0.4524  0.3808  0.3965
 2028TIP3   OH2 6089   1.867   2.130   3.560  0.2047 -0.6779  0.3232
 2028TIP3    H1 6090   1.838   2.179   3.483  0.9260  0.2087  0.5939
 2028TIP3    H2 6091   1.955   2.100   3.538  0.3503 -0.5634  0.7296
 2029TIP3   OH2 6092   5.670   2.468   5.150  0.3738  0.4632  0.1206
 2029TIP3    H1 6093   5.738   2.402   5.141 -0.2521 -0.2461  0.5217
 2029TIP3    H2 6094   5.597   2.435   5.099  0.2281  1.0870 -0.0794
 2030TIP3   OH2 6095   3.264   1.297   0.174  0.7957  0.9083 -0.2151
 2030TIP3    H1 6096   3.341   1.281   0.229  1.6634  0.5569 -1.4843
 2030TIP3    H2 6097   3.236   1.209   0.147 -0.2879  1.0072  0.5132
 2031TIP3   OH2 6098   5.952   3.090   3.039  0.2530  0.0040  0.0363
 2031TIP3    H1 6099   5.936   3.185   3.039  0.9877  0.1345  0.6019
 2031TIP3    H2 6100   6.015   3.076   3.110  0.6880 -0.8226 -0.5025
 2032TIP3   OH2 6101   2.757   0.028   3.549 -0.0932  0.3699  0.3199
 2032TIP3    H1 6102   2.817   0.097   3.577  0.2232  1.1172 -1.9937
 2032TIP3    H2 6103   2.814  -0.043   3.519 -0.4105 -0.1304  0.8733
 2033TIP3   OH2 6104   0.706   5.625   0.498 -0.0001  0.1184 -0.1069
 2033TIP3    H1 6105   0.672   5.594   0.582 -0.8006 -0.0861 -0.4971
 2033TIP3    H2 6106   0.801   5.618   0.506 -0.0301  0.9090  1.0896
 2034TIP3   OH2 6107   2.263   3.925   2.412  0.2461  0.0411  0.4042
 2034TIP3    H1 6108   2.174   3.958   2.427 -0.4471 -1.5866  0.0688
 2034TIP3    H2 6109   2.303   3.989   2.353 -1.0246  0.3049 -0.1949
 2035TIP3   OH2 6110   2.599   3.882   3.643 -0.2101  0.1876  0.2163
 2035TIP3    H1 6111   2.585   3.920   3.730  0.8939  1.1864 -0.0093
 2035TIP3    H2 6112   2.563   3.947   3.583  1.8193  1.0096 -0.1857
 2036TIP3   OH2 6113   3.070   5.743   2.588 -0.0967  0.2879  0.2480
 2036TIP3    H1 6114   3.122   5.791   2.524 -2.2374  1.4388 -0.7496
 2036TIP3    H2 6115   3.044   5.662   2.543  3.9329 -2.3438  2.0971
 2037TIP3   OH2 6116   5.051   4.210   3.623 -0.6966 -0.2320 -0.5297
 2037TIP3    H1 6117   5.039   4.305   3.617 -2.0769 -0.3958 -0.6049
 2037TIP3    H2 6118   5.132   4.200   3.674 -0.9970  0.9732  0.2387
 2038TIP3   OH2 6119   0.988   2.680   2.572 -0.4054  0.1657  0.1186
 2038TIP3    H1 6120   1.015   2.589   2.566 -0.3117  0.0952  1.3530
 2038TIP3    H2 6121   0.936   2.696   2.493  0.2965 -0.7006 -0.5319
 2039TIP3   OH2 6122   3.532   2.472   2.990  0.0906 -0.0597 -0.0004
 2039TIP3    H1 6123   3.514   2.513   2.905  2.6959  1.4555  0.0756
 2039TIP3    H2 6124   3.528   2.544   3.053 -1.0217 -1.0260  1.0778
 2040TIP3   OH2 6125   5.201   3.466   4.682 -0.2838 -0.4638  0.0610
 2040TIP3    H1 6126   5.184   3.374   4.663  0.2003 -0.2689 -1.4096
 2040TIP3    H2 6127   5.114   3.506   4.684 -0.4211 -0.7239 -0.5211
 2041TIP3   OH2 6128   1.432   5.173   3.732  0.4481 -0.0135 -0.0052
 2041TIP3    H1 6129   1.498   5.164   3.801 -0.3455 -1.4011  0.6148
 2041TIP3    H2 6130   1.361   5.224   3.772  0.7673  0.7863 -0.4188
 2042TIP3   OH2 6131   5.726   5.679   3.401  0.3583  0.7367  0.0656
 2042TIP3    H1 6132   5.814   5.655   3.429 -0.3398 -1.3524  0.6775
 2042TIP3    H2 6133   5.673   5.672   3.480 -0.7556 -0.3317 -0.7431
 2043TIP3   OH2 6134   1.791   4.725   0.041  0.1937  0.4124  0.7081
 2043TIP3    H1 6135   1.810   4.750  -0.049 -0.2269  3.0647  1.2888
 2043TIP3    H2 6136   1.707   4.678   0.035  0.2642  0.3888 -0.2802
 2044TIP3   OH2 6137   1.333   5.033   0.631 -0.1683 -0.0513 -0.3171
 2044TIP3    H1 6138   1.404   5.007   0.572  0.2249  1.2777 -0.4722
 2044TIP3    H2 6139   1.316   5.125   0.608 -1.8760 -0.3179 -0.2043
 2045TIP3   OH2 6140   1.738   0.915   3.499  0.4784  0.0106  0.2503
 2045TIP3    H1 6141   1.819   0.867   3.485 -0.5548 -2.3586  1.7244
 2045TIP3    H2 6142   1.727   0.916   3.594 -0.2709  2.0466  0.1957
 2046TIP3   OH2 6143   2.162   5.899   5.153 -0.2626  0.4508 -0.1978
 2046TIP3    H1 6144   2.092   5.890   5.089 -0.4654 -1.3489  0.2202
 2046TIP3    H2 6145   2.231   5.946   5.107 -0.1364 -1.3599 -2.0046
 2047TIP3   OH2 6146   2.732   0.117   5.132 -0.4816 -0.5051  0.1053
 2047TIP3    H1 6147   2.752   0.118   5.225  1.4801  0.4033 -0.2636
 2047TIP3    H2 6148   2.798   0.058   5.094  0.8417  1.5691 -1.0335
 2048TIP3   OH2 6149   0.473   2.191   3.702 -0.1212 -0.2154 -0.3183
 2048TIP3    H1 6150   0.424   2.111   3.682  0.5245 -0.4635 -0.9439
 2048TIP3    H2 6151   0.465   2.201   3.797  0.7564 -1.6646 -0.0582
 2049TIP3   OH2 6152   4.923   0.717   2.502  0.0706 -0.5868  0.1397
 2049TIP3    H1 6153   5.013   0.717   2.534  0.3344  2.9149 -0.2106
 2049TIP3    H2 6154   4.925   0.661   2.424  2.3562  0.6132 -0.7510
 2050TIP3   OH2 6155   2.088   3.574   2.946 -0.4885 -0.2813 -0.4059
 2050TIP3    H1 6156   2.020   3.565   2.879  0.3503 -0.3671 -1.2583
 2050TIP3    H2 6157   2.056   3.521   3.019 -1.0056 -0.8936 -1.0552
 2051TIP3   OH2 6158   4.292   4.764   3.315  0.3229 -0.1334  0.1084
 2051TIP3    H1 6159   4.335   4.680   3.297 -1.0923 -0.8862  0.1298
 2051TIP3    H2 6160   4.253   4.790   3.232  0.3873  0.2882  0.2065
 2052TIP3   OH2 6161   5.738   3.041   2.678 -0.5985  0.9402  0.2697
 2052TIP3    H1 6162   5.749   3.097   2.602  1.3553  0.7267  0.3431
 2052TIP3    H2 6163   5.826   3.030   2.713 -1.0393 -1.3040  0.8831
 2053TIP3   OH2 6164   0.878   1.312   0.305 -0.4106 -0.6791 -0.8312
 2053TIP3    H1 6165   0.894   1.283   0.216  0.3000  0.1921 -1.0050
 2053TIP3    H2 6166   0.905   1.404   0.306  1.4088 -1.1546  0.7347
 2054TIP3   OH2 6167   3.437   2.470   3.894 -0.2609  0.1179  0.1250
 2054TIP3    H1 6168   3.471   2.422   3.969  0.8533 -1.9180 -1.5353
 2054TIP3    H2 6169   3.502   2.453   3.824 -2.7629 -0.7910 -2.1527
 2055TIP3   OH2 6170   1.437   2.139   1.452  0.6535 -0.1968  0.4145
 2055TIP3    H1 6171   1.398   2.226   1.461  0.5788  0.2183 -2.7654
 2055TIP3    H2 6172   1.529   2.151   1.476  1.0397  1.2494 -1.5068
 2056TIP3   OH2 6173   1.009   3.915   2.790  0.0230  0.0270  0.2522
 2056TIP3    H1 6174   1.029   3.981   2.856 -1.2232  1.1525 -0.4667
 2056TIP3    H2 6175   0.963   3.846   2.838 -1.1874  0.9958  0.5243
 2057TIP3   OH2 6176   2.233   3.052   0.841 -0.0301  0.2048 -0.1575
 2057TIP3    H1 6177   2.166   3.026   0.904 -0.4171  1.4507 -0.0367
 2057TIP3    H2 6178   2.217   3.145   0.825  1.4765  0.4542 -0.3701
 2058TIP3   OH2 6179   1.055   5.433   4.197  0.3596 -0.1314  0.0276
 2058TIP3    H1 6180   1.088   5.414   4.285  1.0664  0.0286 -0.1987
 2058TIP3    H2 6181   1.055   5.348   4.152 -1.4810 -0.5125  0.6426
 2059TIP3   OH2 6182   3.825   1.766   2.018  0.7337 -0.2242  0.5504
 2059TIP3    H1 6183   3.732   1.759   2.041  0.7408  0.3231  0.7533
 2059TIP3    H2 6184   3.834   1.854   1.981  1.2017 -0.2195  0.6731
 2060TIP3   OH2 6185   4.576   4.606   4.826 -0.0905  0.2276 -0.5385
 2060TIP3    H1 6186   4.613   4.518   4.814 -2.0444 -0.7391  0.1364
 2060TIP3    H2 6187   4.501   4.593   4.884  0.2550  2.5336  0.5552
 2061TIP3   OH2 6188   3.837   4.895   3.137  0.3492 -0.0191 -0.5262
 2061TIP3    H1 6189   3.829   4.799   3.135  2.2993 -0.2607  0.6664
 2061TIP3    H2 6190   3.763   4.924   3.190  0.0061 -0.9127 -0.4984
 2062TIP3   OH2 6191   5.505   0.236   0.154  0.1869 -0.4015 -0.0912
 2062TIP3    H1 6192   5.515   0.317   0.103  0.2235 -0.6439 -0.4714
 2062TIP3    H2 6193   5.411   0.230   0.172  0.0983 -0.5883 -0.5882
 2063TIP3   OH2 6194   5.499   3.822   2.315 -0.1797  0.4799  0.0289
 2063TIP3    H1 6195   5.562   3.894   2.309  2.6562 -1.8574 -1.6380
 2063TIP3    H2 6196   5.439   3.837   2.242  0.1250  1.3980 -0.0438
 2064TIP3   OH2 6197   3.539   0.242   0.969 -0.0725  0.3771  0.6884
 2064TIP3    H1 6198   3.512   0.332   0.951  0.6814  0.4332 -0.3138
 2064TIP3    H2 6199   3.472   0.207   1.027 -0.7529  1.3632  0.5211
 2065TIP3   OH2 6200   0.796   0.720   1.145 -0.4177  0.3272 -0.3304
 2065TIP3    H1 6201   0.881   0.762   1.133 -0.9910  1.3186 -1.1464
 2065TIP3    H2 6202   0.789   0.660   1.071 -0.6524  0.6529 -0.5753
 2066TIP3   OH2 6203   5.764   4.660   3.406 -0.1003  0.2637  0.1968
 2066TIP3    H1 6204   5.747   4.707   3.325  0.5886  0.2244  0.0244
 2066TIP3    H2 6205   5.756   4.726   3.475  0.7766  0.6152 -0.0350
 2067TIP3   OH2 6206   4.248   1.178   0.906 -0.0858  0.4092  0.7850
 2067TIP3    H1 6207   4.305   1.229   0.849  0.9255 -0.7782  0.6955
 2067TIP3    H2 6208   4.194   1.127   0.846 -0.1174  0.3302  0.8813
 2068TIP3   OH2 6209   4.418   1.285   4.857  0.2165 -0.3653 -0.3905
 2068TIP3    H1 6210   4.447   1.215   4.916  0.9105 -0.1765 -0.5016
 2068TIP3    H2 6211   4.348   1.330   4.906 -0.3524 -1.2239 -0.3827
 2069TIP3   OH2 6212   1.191   2.477   1.320 -0.1565 -0.1381 -0.0027
 2069TIP3    H1 6213   1.281   2.465   1.288 -1.2920 -2.7154 -2.5748
 2069TIP3    H2 6214   1.203   2.501   1.412  3.1782  1.7941 -0.7431
 2070TIP3   OH2 6215   2.275   5.415   4.324 -0.0762 -0.0399  0.0556
 2070TIP3    H1 6216   2.272   5.330   4.367  0.5470  0.6005  1.4478
 2070TIP3    H2 6217   2.218   5.471   4.377  0.9564  0.8575  0.2646
 2071TIP3   OH2 6218   5.331   2.202   4.287  0.0289  0.5099 -0.6647
 2071TIP3    H1 6219   5.259   2.215   4.349  0.4339 -0.3058  0.0113
 2071TIP3    H2 6220   5.295   2.225   4.202 -1.1930 -0.4054 -0.4142
 2072TIP3   OH2 6221   4.125   0.611   4.286  0.9488 -0.2193 -0.3134
 2072TIP3    H1 6222   4.134   0.529   4.336  1.3384  0.8116  1.3747
 2072TIP3    H2 6223   4.118   0.679   4.352 -1.4101  0.9543 -1.6604
 2073TIP3   OH2 6224   1.829   4.244   3.385  0.4606  0.6017  0.2635
 2073TIP3    H1 6225   1.914   4.224   3.347  0.0705 -0.3497 -0.1510
 2073TIP3    H2 6226   1.772   4.263   3.310  0.4089  1.6701  0.5614
 2074TIP3   OH2 6227   5.078   0.383   2.326  0.0651  0.1485  0.0751
 2074TIP3    H1 6228   5.036   0.453   2.277  2.0361  1.1924 -0.2074
 2074TIP3    H2 6229   5.076   0.308   2.267 -1.5428  0.0910  0.1560
 2075TIP3   OH2 6230   1.256   4.528   4.243 -0.2675  0.1270 -0.5952
 2075TIP3    H1 6231   1.194   4.567   4.181 -0.5294  1.2657  0.3593
 2075TIP3    H2 6232   1.213   4.449   4.273 -1.3297  0.9531  0.1222
 2076TIP3   OH2 6233   6.355   1.564   0.829 -0.3075  0.0164 -0.5587
 2076TIP3    H1 6234   6.330   1.564   0.737 -0.4853 -0.1906 -0.5112
 2076TIP3    H2 6235   6.280   1.603   0.874 -1.5570 -2.6396 -0.1533
 2077TIP3   OH2 6236   0.277   4.706   3.686  0.6684  0.0224 -0.5071
 2077TIP3    H1 6237   0.364   4.736   3.659 -0.0256  3.0861  0.1769
 2077TIP3    H2 6238   0.279   4.710   3.781 -0.2600  0.3470 -0.4894
 2078TIP3   OH2 6239   5.734   4.520   0.790 -0.2974  0.0994 -0.3164
 2078TIP3    H1 6240   5.666   4.567   0.838 -2.9819 -1.0192 -2.6701
 2078TIP3    H2 6241   5.706   4.428   0.794  0.1793 -0.2119 -2.6059
 2079TIP3   OH2 6242   3.352   3.407   2.076  0.6241  0.2201  0.3654
 2079TIP3    H1 6243   3.396   3.355   2.143  3.7222 -1.0959 -2.3924
 2079TIP3    H2 6244   3.418   3.471   2.048 -0.0114 -0.1827 -2.2840
 2080TIP3   OH2 6245   2.696   1.171   3.979 -0.1413  0.0623 -0.1379
 2080TIP3    H1 6246   2.626   1.212   3.929 -1.2350 -0.0538  1.2704
 2080TIP3    H2 6247   2.684   1.201   4.069  2.8509  1.6830 -0.1562
 2081TIP3   OH2 6248   2.746   5.730   4.218 -0.2093  0.3291  0.3508
 2081TIP3    H1 6249   2.769   5.819   4.245  0.0685  0.2941  0.2360
 2081TIP3    H2 6250   2.702   5.742   4.134 -1.3945  0.4660  0.9791
 2082TIP3   OH2 6251   5.787   3.883   2.521  0.1632 -0.3909  0.1061
 2082TIP3    H1 6252   5.755   3.941   2.590 -0.2603 -0.1003 -0.3331
 2082TIP3    H2 6253   5.739   3.909   2.442  0.1326 -1.1761 -0.1502
 2083TIP3   OH2 6254   3.822   2.068   0.263 -0.7484 -0.4693 -0.5516
 2083TIP3    H1 6255   3.828   1.977   0.290 -0.2929 -1.1049 -2.6222
 2083TIP3    H2 6256   3.728   2.085   0.254 -0.7927 -1.2773 -1.7949
 2084TIP3   OH2 6257   2.590   2.255   0.711  0.2202 -0.8918  0.5382
 2084TIP3    H1 6258   2.586   2.206   0.629  1.6061 -2.0704  1.1299
 2084TIP3    H2 6259   2.643   2.332   0.692 -1.7974  0.3463 -0.3473
 2085TIP3   OH2 6260   5.213   2.204   3.435 -0.4011  0.0354  0.4409
 2085TIP3    H1 6261   5.272   2.129   3.441  1.2481  1.3419  1.5108
 2085TIP3    H2 6262   5.263   2.270   3.387 -2.0932  0.2619 -1.1432
 2086TIP3   OH2 6263   0.948   1.929   2.567 -0.5664  0.2152 -0.1885
 2086TIP3    H1 6264   0.960   1.890   2.654  1.0721 -0.8368 -0.8376
 2086TIP3    H2 6265   1.030   1.911   2.521 -1.3045  0.9552 -1.8845
 2087TIP3   OH2 6266   5.128   5.774   0.927  0.2274 -1.0458  0.1617
 2087TIP3    H1 6267   5.062   5.843   0.924  0.8348 -0.4522  0.0541
 2087TIP3    H2 6268   5.116   5.726   0.845  0.8724 -0.0239 -0.5627
 2088TIP3   OH2 6269   2.156   0.794   3.229 -0.1922 -0.0808  0.4485
 2088TIP3    H1 6270   2.079   0.785   3.285 -0.7688 -0.0167 -0.3197
 2088TIP3    H2 6271   2.202   0.710   3.238  0.4177  0.3633  1.9794
 2089TIP3   OH2 6272   4.140   4.380   2.781 -0.2056  0.1079 -0.1240
 2089TIP3    H1 6273   4.187   4.438   2.841 -0.9855 -0.0829  0.6906
 2089TIP3    H2 6274   4.134   4.431   2.700  0.0631  0.7371  0.2356
 2090TIP3   OH2 6275   2.377   5.054   2.949  0.3678  0.1338 -0.7540
 2090TIP3    H1 6276   2.312   5.028   2.883  0.4164 -1.0588 -0.3477
 2090TIP3    H2 6277   2.327   5.066   3.029  0.6979 -1.2600 -0.3234
 2091TIP3   OH2 6278   0.056   4.837   3.922 -0.3042 -0.5295 -0.3685
 2091TIP3    H1 6279   0.130   4.777   3.921  0.9249  0.9251 -1.3261
 2091TIP3    H2 6280  -0.013   4.790   3.969  1.1229 -2.0298  0.3105
 2092TIP3   OH2 6281   1.485   5.760   2.083  0.3305  0.1408  0.0447
 2092TIP3    H1 6282   1.506   5.844   2.042  1.0476 -0.3137 -0.5522
 2092TIP3    H2 6283   1.428   5.716   2.020  0.2556  0.0331  0.1881
 2093TIP3   OH2 6284   5.353   5.664   4.146 -0.4761  0.4016 -0.2113
 2093TIP3    H1 6285   5.324   5.604   4.077 -1.5457  0.7405 -0.0610
 2093TIP3    H2 6286   5.407   5.609   4.203  0.2704  0.0730 -1.2017
 2094TIP3   OH2 6287   3.626   3.352   4.611  0.5336 -0.2097 -0.6364
 2094TIP3    H1 6288   3.679   3.296   4.668  0.1466 -0.0087 -0.0818
 2094TIP3    H2 6289   3.557   3.294   4.578  0.5028 -0.2137 -0.5636
 2095TIP3   OH2 6290   6.083   2.096   5.031  0.3004  0.4748 -0.4615
 2095TIP3    H1 6291   6.130   2.024   5.073  2.1047  1.3157 -0.9398
 2095TIP3    H2 6292   6.037   2.055   4.958  1.1970 -0.2123 -0.6542
 2096TIP3   OH2 6293   4.344   5.313   1.005  0.2985 -0.5912  0.4113
 2096TIP3    H1 6294   4.272   5.249   0.997  0.0560 -0.3082  0.3259
 2096TIP3    H2 6295   4.376   5.301   1.094 -0.4053 -0.1359  0.7315
 2097TIP3   OH2 6296   2.696   4.246   0.317 -0.1469 -0.4405  0.0721
 2097TIP3    H1 6297   2.765   4.261   0.253  0.0347 -0.1832  0.3279
 2097TIP3    H2 6298   2.730   4.175   0.372  0.8877  1.1307  1.5693
 2098TIP3   OH2 6299   4.824   3.511   4.219 -0.4962  0.5382 -0.1173
 2098TIP3    H1 6300   4.913   3.548   4.224 -0.7436  1.1491 -0.1926
 2098TIP3    H2 6301   4.812   3.493   4.126 -0.6197  0.8741 -0.1665
 2099TIP3   OH2 6302   0.421   4.768   0.254 -0.3417 -0.0488 -0.1025
 2099TIP3    H1 6303   0.457   4.784   0.342  1.4229  0.1125 -0.8031
 2099TIP3    H2 6304   0.370   4.846   0.234  1.0209  0.8931 -0.0389
 2100TIP3   OH2 6305   0.998   3.876   4.837 -0.2448  0.7222 -0.2919
 2100TIP3    H1 6306   1.054   3.909   4.907 -2.2927  2.4960  0.6112
 2100TIP3    H2 6307   0.957   3.798   4.874  1.5243 -0.5960 -0.9644
 2101TIP3   OH2 6308   4.998   4.143   0.086 -0.2770 -1.2475  0.2573
 2101TIP3    H1 6309   5.065   4.075   0.088  0.5430 -0.4362  1.7995
 2101TIP3    H2 6310   4.938   4.120   0.157  1.7754  1.2490  3.0763
 2102TIP3   OH2 6311   5.980   5.016   0.824  0.6343  0.2451 -0.4119
 2102TIP3    H1 6312   5.915   5.061   0.770  0.3579 -0.0416 -0.3249
 2102TIP3    H2 6313   5.942   4.929   0.838  0.8993  0.1789 -0.1068
 2103TIP3   OH2 6314   1.028   0.439   4.301 -0.3433  0.1251 -0.2600
 2103TIP3    H1 6315   0.964   0.414   4.367  0.1572  0.6655  0.4486
 2103TIP3    H2 6316   1.110   0.448   4.349  0.1385  0.0488 -1.0426
 2104TIP3   OH2 6317   3.798   4.453   0.188 -0.3429  0.0198 -0.3523
 2104TIP3    H1 6318   3.874   4.393   0.190  0.0488  0.3732 -2.4905
 2104TIP3    H2 6319   3.821   4.522   0.249  0.6468 -0.3673 -0.2606
 2105TIP3   OH2 6320   5.924   4.448   1.478 -0.6188 -0.4111  0.0932
 2105TIP3    H1 6321   5.890   4.471   1.565 -0.2414 -0.3862  0.2378
 2105TIP3    H2 6322   6.012   4.487   1.476 -0.9074  0.2138 -0.5774
 2106TIP3   OH2 6323   3.746   2.701   2.289  0.6503  0.2580 -0.5383
 2106TIP3    H1 6324   3.704   2.649   2.220  1.8279 -0.7775 -0.5229
 2106TIP3    H2 6325   3.828   2.654   2.307 -0.2824 -0.3688  2.5990
 2107TIP3   OH2 6326   3.205   5.943   1.564  0.1054  0.2868 -0.0608
 2107TIP3    H1 6327   3.176   5.862   1.522 -0.1338  0.6411 -0.5879
 2107TIP3    H2 6328   3.210   6.006   1.493  1.7134  0.3742  0.0951
 2108TIP3   OH2 6329   5.069   1.810   4.015 -0.1388 -0.2859  0.4066
 2108TIP3    H1 6330   5.122   1.889   4.005 -0.6700 -0.0963 -1.0382
 2108TIP3    H2 6331   5.033   1.794   3.928 -2.6990 -0.2478  1.3805
 2109TIP3   OH2 6332   2.041   2.391   1.649  0.0701  0.0128 -0.3778
 2109TIP3    H1 6333   2.052   2.340   1.729  1.6901  0.8562 -0.0112
 2109TIP3    H2 6334   2.110   2.457   1.653  0.3346 -0.0335 -2.5655
 2110TIP3   OH2 6335   2.654   1.121   2.239 -0.4932  1.0324 -0.1850
 2110TIP3    H1 6336   2.699   1.140   2.156 -0.3438  1.6437  0.0251
 2110TIP3    H2 6337   2.658   1.026   2.248  0.3357  1.0343 -0.4190
 2111TIP3   OH2 6338   2.219   0.193   1.169  0.9527 -0.5030 -0.3007
 2111TIP3    H1 6339   2.235   0.106   1.131  1.7831 -0.1033 -0.8977
 2111TIP3    H2 6340   2.306   0.232   1.178  0.4991  0.9123 -1.6179
 2112TIP3   OH2 6341   2.804   1.751   0.787  0.1112  0.3209 -0.0956
 2112TIP3    H1 6342   2.866   1.810   0.829 -0.7501 -0.2673  2.1237
 2112TIP3    H2 6343   2.721   1.766   0.832 -0.7177 -0.8067 -1.1680
 2113TIP3   OH2 6344   3.631   4.642   0.718 -0.0595  0.5252  0.2903
 2113TIP3    H1 6345   3.673   4.717   0.759 -0.5766 -0.2962  2.4167
 2113TIP3    H2 6346   3.560   4.618   0.777 -0.1937 -1.3692 -0.5562
 2114TIP3   OH2 6347   1.165   2.541   4.859  0.1566 -0.2945  0.4366
 2114TIP3    H1 6348   1.125   2.617   4.902  0.1919  0.6644 -1.1419
 2114TIP3    H2 6349   1.102   2.470   4.872  0.6318 -0.3486  2.9132
 2115TIP3   OH2 6350   5.241   5.137   1.647 -0.0201 -0.0176  0.0290
 2115TIP3    H1 6351   5.179   5.066   1.629 -0.4689  0.6512 -1.2174
 2115TIP3    H2 6352   5.185   5.213   1.668  0.3594  0.5463 -0.9409
 2116TIP3   OH2 6353   5.266   1.016   3.295  0.0290 -0.2244 -0.1665
 2116TIP3    H1 6354   5.215   1.018   3.376 -0.2756 -1.0012 -0.3265
 2116TIP3    H2 6355   5.271   0.923   3.273 -1.5008  0.0936 -2.0673
 2117TIP3   OH2 6356   6.220   0.938   4.378 -0.0425 -0.2064  0.4734
 2117TIP3    H1 6357   6.181   0.986   4.305 -0.9593  0.1521  1.1814
 2117TIP3    H2 6358   6.168   0.857   4.384 -1.5018  0.7645  2.1216
 2118TIP3   OH2 6359   2.218   3.994   3.695 -0.3419  0.3582  0.3292
 2118TIP3    H1 6360   2.248   3.921   3.750 -1.4871 -0.5771 -0.2415
 2118TIP3    H2 6361   2.185   4.059   3.757 -0.1604 -0.0075  0.8181
 2119TIP3   OH2 6362   1.707   0.135   3.296  0.4875 -0.6374 -0.0793
 2119TIP3    H1 6363   1.687   0.043   3.280 -1.7491 -0.0994 -0.7169
 2119TIP3    H2 6364   1.712   0.174   3.209 -1.5874  0.3530  0.1660
 2120TIP3   OH2 6365   1.162   4.765   0.284  0.6623 -0.6237 -0.1086
 2120TIP3    H1 6366   1.163   4.747   0.378 -0.5383 -0.1663  0.0112
 2120TIP3    H2 6367   1.083   4.722   0.252 -0.5154  1.5864 -0.3771
 2121TIP3   OH2 6368   0.719   1.675   2.993  0.4761  0.6020  0.5721
 2121TIP3    H1 6369   0.707   1.770   3.001 -0.0598  0.7896 -1.5845
 2121TIP3    H2 6370   0.633   1.638   3.013  0.2075  0.7479 -0.2393
 2122TIP3   OH2 6371   0.868   4.407   1.071  0.3479  0.3764 -0.2814
 2122TIP3    H1 6372   0.790   4.387   1.122  0.4966  0.6546  0.0574
 2122TIP3    H2 6373   0.931   4.339   1.094  0.7067  0.9763  0.5501
 2123TIP3   OH2 6374   1.080   0.358   3.011  0.5970  0.1252 -0.0052
 2123TIP3    H1 6375   1.007   0.358   3.073 -0.8595 -0.8931 -1.6131
 2123TIP3    H2 6376   1.119   0.445   3.017  0.0372  0.2727  1.7752
 2124TIP3   OH2 6377   2.075   4.031   3.479 -0.2810 -0.4585 -0.2240
 2124TIP3    H1 6378   2.091   4.122   3.504  0.9871 -0.8493  0.4784
 2124TIP3    H2 6379   2.120   3.980   3.546 -1.5308 -1.6259 -0.2415
 2125TIP3   OH2 6380   1.914   3.176   1.666  0.2447 -0.1570 -0.1695
 2125TIP3    H1 6381   1.849   3.196   1.599  1.3413  0.5534 -1.0563
 2125TIP3    H2 6382   1.957   3.260   1.683  0.1149 -0.3633  1.3032
 2126TIP3   OH2 6383   3.821   2.594   1.975  0.0259  0.4310  0.2969
 2126TIP3    H1 6384   3.906   2.639   1.969  0.3103 -0.0677  0.5290
 2126TIP3    H2 6385   3.760   2.653   1.931  0.2560  1.4027  1.2123
 2127TIP3   OH2 6386   4.000   4.168   0.956 -0.2199 -0.5670  0.4681
 2127TIP3    H1 6387   4.002   4.256   0.995  0.6755 -1.0794  1.6271
 2127TIP3    H2 6388   3.925   4.171   0.896 -1.5394  0.3542  2.0426
 2128TIP3   OH2 6389   3.337   3.253   3.987 -0.7807  0.1505 -0.0768
 2128TIP3    H1 6390   3.241   3.253   3.987 -0.7822  0.4947  0.0589
 2128TIP3    H2 6391   3.361   3.340   3.955 -0.5100 -0.1094 -0.5935
 2129TIP3   OH2 6392   3.399   4.974   2.420 -0.3650 -0.4705  0.2920
 2129TIP3    H1 6393   3.364   4.935   2.340  2.2903  1.0421 -1.7724
 2129TIP3    H2 6394   3.490   4.945   2.424  0.1479  1.1522  1.6008
 2130TIP3   OH2 6395   4.571   5.346   3.246  0.3067  0.4700  0.1167
 2130TIP3    H1 6396   4.661   5.333   3.217  0.7890  2.3695  0.6176
 2130TIP3    H2 6397   4.565   5.440   3.264 -2.4732  0.8777 -2.2500
 2131TIP3   OH2 6398   2.281   2.497   2.914 -0.5695 -0.0978  0.0658
 2131TIP3    H1 6399   2.311   2.546   2.838 -1.1580  1.7511  0.9657
 2131TIP3    H2 6400   2.349   2.432   2.930  0.8267  1.1854 -0.4856
 2132TIP3   OH2 6401   5.313   4.538   0.989 -0.2628  0.5621  0.1266
 2132TIP3    H1 6402   5.397   4.583   0.975  0.2013  0.0860  1.2309
 2132TIP3    H2 6403   5.252   4.608   1.013 -0.2477  0.9375 -0.8698
 2133TIP3   OH2 6404   5.174   0.453   1.562  0.7032 -0.6037  0.5126
 2133TIP3    H1 6405   5.184   0.530   1.618  0.4795 -0.9502  1.0405
 2133TIP3    H2 6406   5.259   0.409   1.566 -0.0638 -2.0696  2.7795
 2134TIP3   OH2 6407   4.297   4.725   0.259 -0.1502 -0.1384  0.0120
 2134TIP3    H1 6408   4.207   4.752   0.275 -0.6625 -1.0966 -1.1434
 2134TIP3    H2 6409   4.294   4.674   0.178  1.4140 -0.2729 -0.0032
 2135TIP3   OH2 6410   3.036   5.383   4.388 -0.1584 -0.5035 -0.1251
 2135TIP3    H1 6411   2.984   5.403   4.466  0.2292 -0.8680  0.2277
 2135TIP3    H2 6412   3.024   5.289   4.375  1.2619 -0.8070  0.5904
 2136TIP3   OH2 6413   0.924   5.496   2.002 -1.2336 -0.7732 -0.0293
 2136TIP3    H1 6414   0.931   5.401   2.001 -1.2698 -0.7958  1.1284
 2136TIP3    H2 6415   0.867   5.516   2.076  0.8933  0.2535  1.4510
 2137TIP3   OH2 6416   3.442   1.245   1.321  0.1285  0.1122  0.0662
 2137TIP3    H1 6417   3.400   1.185   1.260 -0.2467  1.0216 -0.6066
 2137TIP3    H2 6418   3.434   1.204   1.406 -0.5294 -0.5650 -0.3144
 2138TIP3   OH2 6419   5.959   4.652   1.977 -0.6674 -0.4369  0.1473
 2138TIP3    H1 6420   5.983   4.572   2.024 -0.6744  0.6749  2.1186
 2138TIP3    H2 6421   6.040   4.682   1.936 -0.1432 -0.2558  1.2893
 2139TIP3   OH2 6422   0.565   3.581   2.142  0.6412  0.7853  0.4047
 2139TIP3    H1 6423   0.494   3.587   2.206 -0.2786 -1.1863 -0.3717
 2139TIP3    H2 6424   0.526   3.541   2.065  2.9520 -2.4157  0.6590
 2140TIP3   OH2 6425   4.601   0.397   4.094  0.2702 -0.5426  0.6610
 2140TIP3    H1 6426   4.506   0.393   4.092  0.2051 -0.6069  2.2444
 2140TIP3    H2 6427   4.630   0.336   4.026 -0.8068 -0.5031  0.1512
 2141TIP3   OH2 6428   4.224   5.287   0.083  0.1908 -0.0354  0.1299
 2141TIP3    H1 6429   4.300   5.230   0.095  1.0307  1.2945  1.4657
 2141TIP3    H2 6430   4.253   5.373   0.113 -1.6578  0.6500  0.1031
 2142TIP3   OH2 6431   0.118   2.801   2.735 -0.0649 -0.1092 -0.4224
 2142TIP3    H1 6432   0.087   2.808   2.645  0.8852  0.9361 -0.6904
 2142TIP3    H2 6433   0.181   2.729   2.732 -0.6102 -0.5935 -0.4141
 2143TIP3   OH2 6434   1.323   3.290   0.827  0.0577  0.1763 -0.3879
 2143TIP3    H1 6435   1.263   3.224   0.860 -0.9035  1.5132  0.6344
 2143TIP3    H2 6436   1.352   3.338   0.904  2.2059 -0.2087 -0.8940
 2144TIP3   OH2 6437   6.128   1.652   4.210 -0.2177 -0.2469  0.3499
 2144TIP3    H1 6438   6.143   1.734   4.257  1.7559 -0.1044 -0.4303
 2144TIP3    H2 6439   6.141   1.584   4.276  2.6660 -0.0535  0.1093
 2145TIP3   OH2 6440   0.988   5.539   0.484  0.4602 -0.3208 -0.0175
 2145TIP3    H1 6441   1.003   5.569   0.394 -1.0595 -1.0960 -0.5571
 2145TIP3    H2 6442   1.020   5.612   0.538  1.8059 -0.0227 -1.1449
 2146TIP3   OH2 6443   2.291   1.837   0.992 -0.1346  0.2388 -0.0593
 2146TIP3    H1 6444   2.313   1.915   1.044  0.5419  0.2883 -0.4044
 2146TIP3    H2 6445   2.273   1.769   1.058  2.6637 -0.2511  0.3376
 2147TIP3   OH2 6446   3.785   0.346   1.118 -0.4360 -0.1536 -0.0514
 2147TIP3    H1 6447   3.854   0.405   1.090  0.2577 -1.7294 -1.8835
 2147TIP3    H2 6448   3.712   0.364   1.059 -0.4877 -0.6028 -0.1281
 2148TIP3   OH2 6449   5.837   5.028   4.229 -0.3098  0.7119 -0.5865
 2148TIP3    H1 6450   5.866   5.094   4.293 -1.2892  1.1033 -0.5271
 2148TIP3    H2 6451   5.892   5.043   4.152 -0.6497  1.7420 -0.6475
 2149TIP3   OH2 6452   0.317   5.208   1.043  0.3152  0.1586  0.9250
 2149TIP3    H1 6453   0.379   5.241   1.108  0.3975  0.1990  0.8282
 2149TIP3    H2 6454   0.341   5.116   1.032 -0.5946 -0.2087  1.9652
 2150TIP3   OH2 6455   3.792   0.963   1.913 -0.2873 -0.4398 -0.2563
 2150TIP3    H1 6456   3.871   0.909   1.918  0.0488 -0.2258 -2.3830
 2150TIP3    H2 6457   3.818   1.040   1.864 -1.2810  0.7685  1.0098
 2151TIP3   OH2 6458   0.340   3.296   0.947  0.1076 -0.1412  0.1852
 2151TIP3    H1 6459   0.288   3.276   1.024  1.9284 -1.9442  1.0362
 2151TIP3    H2 6460   0.398   3.367   0.974  0.5246 -0.5576  0.4068
 2152TIP3   OH2 6461   1.173   0.898   4.181  0.1905 -0.0603  0.1408
 2152TIP3    H1 6462   1.168   0.871   4.272  0.0117  0.0012  0.1491
 2152TIP3    H2 6463   1.232   0.974   4.182  0.5872 -0.3655  0.1341
 2153TIP3   OH2 6464   0.611   2.798   1.553  0.2135  0.4759  0.0868
 2153TIP3    H1 6465   0.646   2.850   1.480  1.6624 -0.9155 -0.2637
 2153TIP3    H2 6466   0.670   2.816   1.626  0.8751 -0.8214 -0.1046
 2154TIP3   OH2 6467   3.585   1.453   3.672 -0.1969 -0.2575  0.0577
 2154TIP3    H1 6468   3.537   1.465   3.754 -1.6657 -2.6520 -0.3617
 2154TIP3    H2 6469   3.600   1.359   3.666  3.1681  0.2034 -0.6975
 2155TIP3   OH2 6470   0.153   4.418   0.776 -0.3486  0.5438 -0.0976
 2155TIP3    H1 6471   0.132   4.511   0.765 -0.8938  0.5455  0.8413
 2155TIP3    H2 6472   0.077   4.381   0.822  1.0680  0.2881  2.2254
 2156TIP3   OH2 6473   3.015   0.629   3.927  0.4391  0.5426  0.2267
 2156TIP3    H1 6474   3.017   0.646   3.833 -0.9808  1.7428  0.3874
 2156TIP3    H2 6475   2.965   0.701   3.964  1.7269  0.5841  2.0351
 2157TIP3   OH2 6476   4.024   1.508   5.146 -0.2551  0.0611 -0.4260
 2157TIP3    H1 6477   3.975   1.468   5.074  1.7476 -0.6623 -1.4833
 2157TIP3    H2 6478   4.100   1.451   5.157 -0.1178  0.5947  1.7853
 2158TIP3   OH2 6479   1.349   5.828   3.759 -0.5573  0.1441 -0.1591
 2158TIP3    H1 6480   1.267   5.780   3.749 -0.2642 -0.2543 -0.6742
 2158TIP3    H2 6481   1.417   5.764   3.740 -0.0452  0.0893  1.6024
 2159TIP3   OH2 6482   4.160   1.866   0.649  0.7579 -0.1885 -0.0911
 2159TIP3    H1 6483   4.166   1.944   0.595 -3.3955 -0.9540 -2.0742
 2159TIP3    H2 6484   4.193   1.796   0.593  2.6510 -0.2120  0.9679
 2160TIP3   OH2 6485   1.668   3.254   2.370 -0.5283  0.3019 -0.4552
 2160TIP3    H1 6486   1.712   3.169   2.375 -1.5510 -0.2504 -0.3775
 2160TIP3    H2 6487   1.674   3.279   2.278 -0.3417  0.0676 -0.5078
 2161TIP3   OH2 6488   1.321   1.084   4.367  0.0042 -0.0068 -0.5605
 2161TIP3    H1 6489   1.335   1.035   4.448  0.9409 -0.8478 -1.2086
 2161TIP3    H2 6490   1.406   1.125   4.349 -0.7609  1.9551 -0.0112
 2162TIP3   OH2 6491   3.602   1.339   4.409 -0.5723 -0.1079 -0.0094
 2162TIP3    H1 6492   3.571   1.249   4.411 -0.8458 -0.0089  0.9465
 2162TIP3    H2 6493   3.696   1.333   4.395 -0.7566 -0.4896 -1.1409
 2163TIP3   OH2 6494   3.580   5.276   2.771 -0.0161 -0.0191  0.1684
 2163TIP3    H1 6495   3.652   5.285   2.709 -0.1361  0.0409  0.0380
 2163TIP3    H2 6496   3.504   5.255   2.717 -0.1995  0.4079  0.2516
 2164TIP3   OH2 6497   5.149   3.033   4.062  0.1030  0.1244  0.2732
 2164TIP3    H1 6498   5.114   3.074   3.984  1.5380  1.0277  0.0513
 2164TIP3    H2 6499   5.105   2.948   4.068 -0.9339  0.5728 -0.8011
 2165TIP3   OH2 6500   0.656   0.596   0.361 -0.1055 -0.1017  0.3800
 2165TIP3    H1 6501   0.693   0.510   0.337 -0.9643  0.4025 -3.3565
 2165TIP3    H2 6502   0.589   0.576   0.426 -1.1333 -2.5271 -1.2661
 2166TIP3   OH2 6503   2.761   0.982   0.498 -0.1648  0.0191  0.3859
 2166TIP3    H1 6504   2.804   1.068   0.497 -1.5554  0.7483 -0.0661
 2166TIP3    H2 6505   2.686   0.992   0.439 -0.8540 -1.2471  1.0034
 2167TIP3   OH2 6506   0.983   3.386   3.168  0.1365 -0.6570 -0.9085
 2167TIP3    H1 6507   1.056   3.440   3.198 -0.7136  0.3199 -0.5550
 2167TIP3    H2 6508   0.930   3.372   3.247 -0.2608 -1.0398 -1.2424
 2168TIP3   OH2 6509   5.757   3.780   2.884 -0.0858 -0.1740  0.5548
 2168TIP3    H1 6510   5.721   3.715   2.823 -0.4926  0.1309  0.4663
 2168TIP3    H2 6511   5.686   3.843   2.897  0.2041  0.0912  0.8750
 2169TIP3   OH2 6512   2.653   2.470   0.513 -0.0804 -0.2482  0.2981
 2169TIP3    H1 6513   2.714   2.436   0.447 -0.3931 -0.2670  0.0175
 2169TIP3    H2 6514   2.709   2.492   0.588  0.1682 -1.0833  0.3692
 2170TIP3   OH2 6515   0.455   1.243   4.104 -0.2483  0.4245 -0.0883
 2170TIP3    H1 6516   0.482   1.285   4.186  1.7177 -0.3873 -0.2875
 2170TIP3    H2 6517   0.514   1.280   4.038  1.6903 -2.6561 -0.2558
 2171TIP3   OH2 6518   2.409   1.507   4.995 -0.2116 -0.0065 -0.7892
 2171TIP3    H1 6519   2.494   1.508   4.952  0.5407  2.2430  0.6066
 2171TIP3    H2 6520   2.396   1.597   5.026 -1.1699 -1.1868  2.6884
 2172TIP3   OH2 6521   5.697   3.179   3.099 -0.2641 -0.0941  0.3680
 2172TIP3    H1 6522   5.739   3.099   3.069  0.3338  0.5837 -0.6616
 2172TIP3    H2 6523   5.677   3.227   3.019 -2.8423 -0.2821  0.8077
 2173TIP3   OH2 6524   5.777   3.197   2.448  0.2146  0.2463  0.6843
 2173TIP3    H1 6525   5.823   3.259   2.391  1.6688 -1.4105 -0.0615
 2173TIP3    H2 6526   5.796   3.111   2.409 -1.4217 -0.6991  1.8727
 2174TIP3   OH2 6527   5.823   2.306   0.554  0.2718  0.4029 -0.4063
 2174TIP3    H1 6528   5.799   2.332   0.465  0.1517 -2.2535 -1.2181
 2174TIP3    H2 6529   5.826   2.210   0.552  0.9374  0.2783  2.2906
 2175TIP3   OH2 6530   0.613   0.070   1.993  0.2840  0.3704  0.9072
 2175TIP3    H1 6531   0.696   0.099   2.031  1.3123 -1.5369  0.2752
 2175TIP3    H2 6532   0.583   0.000   2.052  0.2506 -0.4118 -0.0141
 2176TIP3   OH2 6533   4.266   1.572   4.018 -0.4255  0.2827 -0.2809
 2176TIP3    H1 6534   4.279   1.654   4.065 -0.3781 -0.0810  0.3467
 2176TIP3    H2 6535   4.320   1.581   3.939  2.2506 -0.4079  1.3329
 2177TIP3   OH2 6536   1.441   4.776   3.993  0.6209  0.3061  0.2440
 2177TIP3    H1 6537   1.450   4.681   4.006  0.1293  0.1065 -0.7716
 2177TIP3    H2 6538   1.502   4.797   3.923 -0.1130  0.5257 -0.3426
 2178TIP3   OH2 6539   1.909   4.356   0.554 -0.1917 -0.7747 -0.2948
 2178TIP3    H1 6540   1.908   4.340   0.649 -4.1889  0.1123  0.0037
 2178TIP3    H2 6541   1.939   4.446   0.546 -1.4551 -0.2589  0.3793
 2179TIP3   OH2 6542   1.303   2.299   4.726 -0.4261 -0.2096  0.5863
 2179TIP3    H1 6543   1.386   2.275   4.768  0.4128  0.4144 -0.6471
 2179TIP3    H2 6544   1.250   2.337   4.796  0.3594 -0.5598  1.3827
 2180TIP3   OH2 6545   5.633   1.338   2.760 -0.3027 -0.0885  0.2546
 2180TIP3    H1 6546   5.555   1.298   2.723 -0.7317 -0.3236  1.3515
 2180TIP3    H2 6547   5.600   1.394   2.831  0.6306 -2.4981  2.7813
 2181TIP3   OH2 6548   4.709   1.938   2.631 -0.1531  0.2320 -0.8636
 2181TIP3    H1 6549   4.701   2.034   2.631  0.1261  0.2700  0.2687
 2181TIP3    H2 6550   4.798   1.922   2.663  0.0495 -0.4030 -1.7078
 2182TIP3   OH2 6551   4.426   0.644   4.262  0.1043 -0.1679  0.2857
 2182TIP3    H1 6552   4.481   0.714   4.295  0.8187 -0.5820 -0.0145
 2182TIP3    H2 6553   4.398   0.597   4.341  0.8946 -0.4809  0.3879
 2183TIP3   OH2 6554   1.873   0.227   2.467  0.6564 -0.3472  0.1172
 2183TIP3    H1 6555   1.851   0.135   2.484  0.1421 -0.5055 -1.3208
 2183TIP3    H2 6556   1.796   0.262   2.422  1.2110  0.5537 -0.1388
 2184TIP3   OH2 6557   2.963   2.494   1.499 -0.0073 -0.0191 -0.1896
 2184TIP3    H1 6558   2.919   2.570   1.538 -0.8605 -0.1933 -0.7713
 2184TIP3    H2 6559   2.892   2.444   1.459  0.8023  0.1641 -1.9656
 2185TIP3   OH2 6560   5.977   0.610   4.397  0.0619 -0.2527  0.4733
 2185TIP3    H1 6561   6.057   0.558   4.397  1.4405  1.7670 -0.0890
 2185TIP3    H2 6562   5.920   0.565   4.334  1.0006 -1.3421  0.3638
 2186TIP3   OH2 6563   4.142   5.053   2.884 -0.0725 -0.3807 -0.0299
 2186TIP3    H1 6564   4.202   5.025   2.814  1.4151  0.3945  0.8899
 2186TIP3    H2 6565   4.139   5.148   2.876 -0.4165 -0.3419  0.5543
 2187TIP3   OH2 6566   6.220   5.914   3.291 -0.2242 -0.5730  0.5064
 2187TIP3    H1 6567   6.263   5.846   3.343 -1.3707 -1.0375  0.8826
 2187TIP3    H2 6568   6.135   5.877   3.270 -0.0274 -0.1304 -1.1823
 2188TIP3   OH2 6569   5.470   5.518   3.754  0.1924  0.4126  0.0088
 2188TIP3    H1 6570   5.457   5.428   3.725  0.0535  0.4323  0.0105
 2188TIP3    H2 6571   5.413   5.528   3.831  0.7858  0.2660  0.4767
 2189TIP3   OH2 6572   4.763   0.451   2.987 -0.2862 -0.2975  0.1030
 2189TIP3    H1 6573   4.813   0.517   3.036 -0.9443  0.1013  0.2537
 2189TIP3    H2 6574   4.766   0.481   2.896  0.6947 -0.8829 -0.0627
 2190TIP3   OH2 6575   3.225   0.993   0.464 -0.2220 -0.6334  0.2236
 2190TIP3    H1 6576   3.276   1.054   0.516 -1.2203  0.3082  0.1357
 2190TIP3    H2 6577   3.275   0.982   0.383  0.8924 -1.4167  1.0015
 2191TIP3   OH2 6578   6.268   4.906   3.689 -0.5394 -0.3066 -0.3220
 2191TIP3    H1 6579   6.197   4.842   3.677 -0.1336 -0.7208 -0.5496
 2191TIP3    H2 6580   6.306   4.884   3.774 -0.3895 -0.3764 -0.4074
 2192TIP3   OH2 6581   0.521   5.359   0.449 -0.6656  0.5686  0.3424
 2192TIP3    H1 6582   0.593   5.322   0.501 -0.4774  1.6435  0.8769
 2192TIP3    H2 6583   0.562   5.382   0.366 -0.3852  1.1745  0.6442
 2193TIP3   OH2 6584   0.100   4.433  -0.029  0.5511 -0.0883  0.2609
 2193TIP3    H1 6585   0.140   4.490   0.037 -1.2908 -1.0317  2.3256
 2193TIP3    H2 6586   0.059   4.363   0.022 -1.3976 -0.6166 -1.8671
 2194TIP3   OH2 6587   3.914   1.047   1.555  0.5662  0.3839 -0.6505
 2194TIP3    H1 6588   3.908   1.132   1.512  0.6526  0.6573 -0.1306
 2194TIP3    H2 6589   3.827   1.031   1.591  1.3241  1.7844  2.0769
 2195TIP3   OH2 6590   1.498   4.549   4.164 -0.7207  0.0087  0.6896
 2195TIP3    H1 6591   1.554   4.491   4.215 -0.1572 -0.8275 -0.8344
 2195TIP3    H2 6592   1.409   4.528   4.192 -0.4641 -0.9490  0.8002
 2196TIP3   OH2 6593   4.307   0.705   0.396  0.3079 -0.3271  0.4924
 2196TIP3    H1 6594   4.231   0.669   0.440  0.5899  1.5077  2.6918
 2196TIP3    H2 6595   4.292   0.689   0.303 -0.8848 -3.3704  1.1027
 2197TIP3   OH2 6596   5.567   3.969   2.925  0.4356  0.1542  0.0880
 2197TIP3    H1 6597   5.518   3.909   2.982 -1.4921  2.1171  0.6446
 2197TIP3    H2 6598   5.612   4.028   2.986  0.6674  0.5203 -0.4311
 2198TIP3   OH2 6599   3.339   4.801   4.323  0.3790 -0.3301  0.1766
 2198TIP3    H1 6600   3.290   4.821   4.243  0.9982 -2.6109 -0.8577
 2198TIP3    H2 6601   3.415   4.860   4.320  0.3681 -0.3473 -0.9083
 2199TIP3   OH2 6602   3.886   0.405   0.423  0.5599 -0.2644  0.2794
 2199TIP3    H1 6603   3.806   0.447   0.452 -0.5428  0.2308 -3.1011
 2199TIP3    H2 6604   3.865   0.311   0.423  0.2707 -0.2007  0.2243
 2200TIP3   OH2 6605   5.674   4.023   2.300  0.0043  0.1515 -0.4975
 2200TIP3    H1 6606   5.610   4.093   2.309 -0.4734 -0.3250 -0.0962
 2200TIP3    H2 6607   5.741   4.059   2.242  1.5698  2.2122  2.3690
 2201TIP3   OH2 6608   0.439   2.092   2.887  0.0163  0.0893  0.6482
 2201TIP3    H1 6609   0.391   2.170   2.916 -0.6990 -1.2301  3.3094
 2201TIP3    H2 6610   0.376   2.021   2.896  0.9231 -0.9505 -0.9058
 2202TIP3   OH2 6611   4.408   4.729   2.683 -0.4164  0.0091 -0.2184
 2202TIP3    H1 6612   4.463   4.650   2.690  2.1714  1.6657 -0.3255
 2202TIP3    H2 6613   4.360   4.717   2.601  0.1440 -1.3521 -0.3791
 2203TIP3   OH2 6614   2.280   4.388   2.729 -0.3975  0.1589  0.4786
 2203TIP3    H1 6615   2.283   4.357   2.639 -0.5515  0.7314  0.2750
 2203TIP3    H2 6616   2.318   4.476   2.726 -1.2324  0.5458  0.8080
 2204TIP3   OH2 6617   4.364   4.200   0.971 -0.2933 -0.1440 -0.2418
 2204TIP3    H1 6618   4.316   4.121   0.946  0.1920 -0.4909 -0.0960
 2204TIP3    H2 6619   4.322   4.229   1.052 -0.9087  0.1336 -0.6575
 2205TIP3   OH2 6620   3.160   1.797   4.633 -0.0082  0.6860  0.2325
 2205TIP3    H1 6621   3.182   1.704   4.641 -1.5724  0.2866  0.3038
 2205TIP3    H2 6622   3.244   1.841   4.619  0.9089 -0.5861  1.4665
 2206TIP3   OH2 6623   6.262   0.282   4.098 -0.0554  0.2779 -0.4603
 2206TIP3    H1 6624   6.176   0.244   4.081 -1.2767  0.5625  3.7595
 2206TIP3    H2 6625   6.256   0.371   4.064 -1.7294  0.5056  0.2975
 2207TIP3   OH2 6626   1.627   1.150   0.604 -0.4353  0.1481  0.6571
 2207TIP3    H1 6627   1.680   1.185   0.532  1.3110 -0.6954  1.4743
 2207TIP3    H2 6628   1.557   1.100   0.560  0.9525 -0.8638 -0.4955
 2208TIP3   OH2 6629   2.700   1.887   0.047 -0.5327 -0.3710  0.3799
 2208TIP3    H1 6630   2.608   1.866   0.030 -0.3614 -1.7511  0.9997
 2208TIP3    H2 6631   2.738   1.804   0.075  1.1795 -0.1098 -0.9750
 2209TIP3   OH2 6632   2.237   3.178   3.046 -0.3189 -0.1479 -0.0137
 2209TIP3    H1 6633   2.293   3.123   3.101  0.2139  1.0031  0.6257
 2209TIP3    H2 6634   2.253   3.267   3.077 -2.5842  0.2257  0.2407
 2210TIP3   OH2 6635   4.631   4.689   1.766 -0.0692 -0.3105  0.1891
 2210TIP3    H1 6636   4.631   4.655   1.856 -1.5628 -0.6512  0.0815
 2210TIP3    H2 6637   4.621   4.783   1.776 -1.7388 -0.4851  0.3676
 2211TIP3   OH2 6638   1.423   0.407   1.512 -0.3103 -0.1762 -0.4670
 2211TIP3    H1 6639   1.390   0.334   1.564 -1.5442  1.1260  0.6673
 2211TIP3    H2 6640   1.373   0.404   1.431 -0.6815 -0.3344 -0.2323
 2212TIP3   OH2 6641   1.988   2.074   4.202 -0.0149  0.2391 -0.0271
 2212TIP3    H1 6642   1.960   2.093   4.291  0.6110  0.1675  0.1872
 2212TIP3    H2 6643   2.038   1.993   4.209 -0.0239  0.1915 -0.4552
 2213TIP3   OH2 6644   0.468   4.331   1.116 -0.7055  0.8876 -0.3043
 2213TIP3    H1 6645   0.552   4.359   1.153  0.0511  1.5545 -2.3501
 2213TIP3    H2 6646   0.427   4.413   1.087 -1.9998  0.5437  0.5185
 2214TIP3   OH2 6647   0.617   4.658   2.610  0.1796  0.6960 -0.2338
 2214TIP3    H1 6648   0.656   4.631   2.527 -0.0532  0.8041 -0.3809
 2214TIP3    H2 6649   0.543   4.598   2.621  0.0024  0.9074 -0.2770
 2215TIP3   OH2 6650   4.875   3.400   3.974  0.4934  0.2200 -0.0085
 2215TIP3    H1 6651   4.967   3.388   3.952  0.4248  1.6438 -1.1795
 2215TIP3    H2 6652   4.827   3.351   3.907  0.3632  1.7604 -1.0832
 2216TIP3   OH2 6653   4.337   3.144   1.532 -0.2273 -0.3978  0.0113
 2216TIP3    H1 6654   4.312   3.228   1.570 -0.0914 -0.0181 -0.7186
 2216TIP3    H2 6655   4.416   3.163   1.482  0.6067 -1.2484  0.9561
 2217TIP3   OH2 6656   2.851   5.372   1.954  0.6330  0.6937 -0.0421
 2217TIP3    H1 6657   2.868   5.452   1.905  0.1717  0.9115  0.1488
 2217TIP3    H2 6658   2.869   5.396   2.045  0.6892  0.5218 -0.0073
 2218TIP3   OH2 6659   3.400   3.377   5.103  0.1910  0.7106  0.6833
 2218TIP3    H1 6660   3.411   3.404   5.012  0.5979  2.1091  1.1148
 2218TIP3    H2 6661   3.339   3.441   5.140 -3.1007 -2.0296  0.4929
 2219TIP3   OH2 6662   4.073   0.719   3.723 -0.3313 -0.1413 -0.3899
 2219TIP3    H1 6663   4.024   0.644   3.756 -0.6358 -0.1409 -0.8235
 2219TIP3    H2 6664   4.116   0.756   3.800  0.1323 -0.9844 -0.2253
 2220TIP3   OH2 6665   1.617   4.793   2.086  0.2293 -0.0355 -0.0163
 2220TIP3    H1 6666   1.524   4.812   2.098  0.1977 -0.7690  1.0314
 2220TIP3    H2 6667   1.624   4.757   1.998 -0.6878 -1.1495  0.3457
 2221TIP3   OH2 6668   5.971   1.169   1.488  0.6641 -0.2733  0.3189
 2221TIP3    H1 6669   6.048   1.128   1.449  0.2426 -1.4250  0.6624
 2221TIP3    H2 6670   5.909   1.097   1.500 -0.5064  0.6529 -0.0438
 2222TIP3   OH2 6671   1.729   3.677   0.669 -0.5479 -0.1011 -0.6403
 2222TIP3    H1 6672   1.693   3.593   0.641 -2.2188 -0.5135  2.3078
 2222TIP3    H2 6673   1.656   3.739   0.658 -0.4997  0.1829  0.5296
 2223TIP3   OH2 6674   3.382   3.675   0.685  0.3938 -0.3921  0.1746
 2223TIP3    H1 6675   3.315   3.616   0.719  0.8558 -0.4371  1.0498
 2223TIP3    H2 6676   3.400   3.643   0.597 -0.9458 -0.1856 -0.1860
 2224TIP3   OH2 6677   6.317   5.893   4.278 -0.3370 -0.0915  0.7968
 2224TIP3    H1 6678   6.245   5.910   4.339 -0.2116  0.8847  0.6880
 2224TIP3    H2 6679   6.368   5.823   4.320 -0.5521  0.2018  1.5587
 2225TIP3   OH2 6680   4.095   4.084   3.041 -0.7925 -0.3697  0.1888
 2225TIP3    H1 6681   4.087   4.138   3.120 -1.2467 -0.5978  0.3000
 2225TIP3    H2 6682   4.189   4.084   3.021 -0.5524 -1.0877  1.2624
 2226TIP3   OH2 6683   2.908   3.513   3.142  0.0774 -0.1811 -0.5042
 2226TIP3    H1 6684   2.913   3.514   3.046 -0.7442  0.2157 -0.5505
 2226TIP3    H2 6685   2.820   3.544   3.162 -0.0622 -1.0947  0.3626
 2227TIP3   OH2 6686   2.692   2.988   0.698  0.7428  0.5410 -0.3068
 2227TIP3    H1 6687   2.636   2.913   0.716 -0.0459  0.4234 -2.9296
 2227TIP3    H2 6688   2.767   2.976   0.757 -0.1335 -1.4033  0.4974
 2228TIP3   OH2 6689   1.897   0.210   4.161 -0.5403 -0.3317  0.0571
 2228TIP3    H1 6690   1.823   0.262   4.191 -0.2545  0.0557  0.0988
 2228TIP3    H2 6691   1.964   0.274   4.138 -0.2238 -0.6764  0.0000
 2229TIP3   OH2 6692   1.159   1.568   3.471 -0.6900  0.1041  0.0108
 2229TIP3    H1 6693   1.244   1.609   3.486  0.7847 -2.0118 -1.9121
 2229TIP3    H2 6694   1.124   1.553   3.559  1.2593  0.3952  0.8883
 2230TIP3   OH2 6695   2.818   1.693   4.019 -0.3457  0.1764  0.5741
 2230TIP3    H1 6696   2.835   1.688   4.113  3.6999 -1.9100 -0.0700
 2230TIP3    H2 6697   2.869   1.769   3.990 -0.7911  0.2211 -0.1025
 2231TIP3   OH2 6698   0.561   5.065   2.307 -0.4257  0.7202  0.2661
 2231TIP3    H1 6699   0.638   5.111   2.274 -0.5326  0.4577 -0.3824
 2231TIP3    H2 6700   0.593   5.014   2.381  0.1466  0.2189 -0.3063
 2232TIP3   OH2 6701   2.204   2.884   2.924 -0.3371  0.4240  0.6294
 2232TIP3    H1 6702   2.298   2.897   2.911 -0.5357  0.5048 -0.9608
 2232TIP3    H2 6703   2.175   2.839   2.844 -1.8802  1.6556  0.4474
 2233TIP3   OH2 6704   1.843   1.647   1.567 -0.4797 -0.0505 -0.1089
 2233TIP3    H1 6705   1.892   1.578   1.613 -0.8942 -0.6718 -0.5841
 2233TIP3    H2 6706   1.908   1.690   1.512 -0.6879 -1.7915 -1.8158
 2234TIP3   OH2 6707   3.094   3.121   3.998 -0.0948  0.3823 -0.2533
 2234TIP3    H1 6708   3.124   3.072   3.922 -1.0534  0.6129 -0.8004
 2234TIP3    H2 6709   3.078   3.054   4.065  1.0857  0.2097 -0.1109
 2235TIP3   OH2 6710   0.169   3.191   5.195 -0.4301  0.5952 -0.2633
 2235TIP3    H1 6711   0.259   3.160   5.188  0.1107  2.0483 -0.1916
 2235TIP3    H2 6712   0.117   3.126   5.149  0.3739 -1.3880  1.4894
 2236TIP3   OH2 6713   2.267   1.408   2.686  0.0895 -0.0447 -0.9771
 2236TIP3    H1 6714   2.301   1.489   2.649  0.2540 -1.0278 -3.1328
 2236TIP3    H2 6715   2.253   1.351   2.611 -2.0049 -1.3081  0.2531
 2237TIP3   OH2 6716   2.258  -0.017   2.258  0.4332 -0.1099  0.0787
 2237TIP3    H1 6717   2.195   0.044   2.298 -0.7064  0.2358 -2.0877
 2237TIP3    H2 6718   2.298   0.034   2.187 -0.7278 -1.9004 -1.9610
 2238TIP3   OH2 6719   1.211   0.458   3.768 -0.3724  0.4027  0.0207
 2238TIP3    H1 6720   1.227   0.373   3.727 -1.0206  0.8754 -1.2610
 2238TIP3    H2 6721   1.166   0.437   3.850 -0.8982 -0.4917 -0.4764
 2239TIP3   OH2 6722   6.122   3.152   0.553  0.0922  0.2505 -0.0215
 2239TIP3    H1 6723   6.093   3.218   0.617 -3.3875 -2.6189  1.7829
 2239TIP3    H2 6724   6.173   3.090   0.605  0.6266 -0.0952 -0.9500
 2240TIP3   OH2 6725   0.830   1.734   3.725  0.8682 -0.9123 -0.3717
 2240TIP3    H1 6726   0.866   1.806   3.673  0.5039 -1.0699 -0.8421
 2240TIP3    H2 6727   0.893   1.662   3.714  3.6394  0.5265  3.4836
 2241TIP3   OH2 6728   1.183   0.171   4.226 -0.9458 -0.2914 -0.8194
 2241TIP3    H1 6729   1.132   0.234   4.276 -1.0227  0.4293 -1.7927
 2241TIP3    H2 6730   1.130   0.091   4.226 -0.3429 -0.7756  1.3885
 2242TIP3   OH2 6731   4.059   2.165   1.742  0.2735 -0.0151 -0.3464
 2242TIP3    H1 6732   3.993   2.222   1.781  0.5149  0.0424 -0.0218
 2242TIP3    H2 6733   4.114   2.138   1.815  0.5576 -0.1332 -0.6023
 2243TIP3   OH2 6734   5.986   5.715   2.794 -0.1116 -0.0139  0.4314
 2243TIP3    H1 6735   6.049   5.787   2.794  0.9624 -0.9422  0.3386
 2243TIP3    H2 6736   5.948   5.716   2.706 -0.3824  0.6620  0.5472
 2244TIP3   OH2 6737   1.339   2.118   4.521  0.3521 -0.0114 -0.1860
 2244TIP3    H1 6738   1.317   2.189   4.580 -1.9492 -1.5275  0.9531
 2244TIP3    H2 6739   1.315   2.150   4.434  0.8512  1.1506  0.0986
 2245TIP3   OH2 6740   0.714   3.365   0.305 -0.1306 -0.1525  0.1303
 2245TIP3    H1 6741   0.753   3.441   0.349  0.4461 -1.5252  2.1057
 2245TIP3    H2 6742   0.645   3.403   0.250  0.8623  1.8924  0.1865
 2246TIP3   OH2 6743   3.203   3.798   4.546 -1.0468 -0.0492 -0.6084
 2246TIP3    H1 6744   3.287   3.779   4.588 -0.6851  0.5991 -1.0133
 2246TIP3    H2 6745   3.225   3.811   4.453 -1.9732 -2.4779 -1.2371
 2247TIP3   OH2 6746   2.107   3.408   2.008  0.0019  0.1727  0.0143
 2247TIP3    H1 6747   2.081   3.461   1.932  1.3874 -0.2293 -0.7751
 2247TIP3    H2 6748   2.105   3.468   2.082 -1.5536  0.5339 -0.2849
 2248TIP3   OH2 6749   3.739   0.326   1.921  0.4054  0.1202  0.6063
 2248TIP3    H1 6750   3.651   0.363   1.936  0.3080  0.0818  0.1330
 2248TIP3    H2 6751   3.781   0.388   1.862 -0.2284 -1.1734 -1.2701
 2249TIP3   OH2 6752   3.407   3.873   0.140  0.5151  1.0244  0.4939
 2249TIP3    H1 6753   3.416   3.923   0.059  0.8146  1.8253  1.0104
 2249TIP3    H2 6754   3.472   3.803   0.132 -1.2099 -0.5373 -1.0978
 2250TIP3   OH2 6755   3.239   4.947   2.898 -0.0189  0.0390 -0.4919
 2250TIP3    H1 6756   3.245   4.895   2.978 -0.9529  1.0429  0.2687
 2250TIP3    H2 6757   3.328   4.979   2.884  0.4575 -1.2976 -0.6809
 2251TIP3   OH2 6758   5.328   1.575   1.918 -0.1421 -0.7477 -0.2024
 2251TIP3    H1 6759   5.332   1.605   1.827  1.1248  1.3696  0.4817
 2251TIP3    H2 6760   5.417   1.548   1.938 -0.2177 -0.3943  0.6465
 2252TIP3   OH2 6761   3.877   4.161   1.620  0.1722 -0.1957 -0.2811
 2252TIP3    H1 6762   3.854   4.069   1.635  0.0681 -0.0457  0.5082
 2252TIP3    H2 6763   3.794   4.203   1.598  0.0313 -0.0774  0.4537
 2253TIP3   OH2 6764   2.087   4.661   4.250 -0.6384  0.2692 -0.5774
 2253TIP3    H1 6765   2.151   4.590   4.246 -1.8989 -1.0302  0.9128
 2253TIP3    H2 6766   2.100   4.709   4.169  2.1939  0.0666 -0.3603
 2254TIP3   OH2 6767   3.377   4.247   3.870  0.4439 -0.1886  0.3190
 2254TIP3    H1 6768   3.292   4.206   3.882  0.3132  0.1642  0.6197
 2254TIP3    H2 6769   3.365   4.337   3.901  0.9526 -0.1679  0.4627
 2255TIP3   OH2 6770   6.192   1.979   1.680 -0.7224 -0.2035  0.1713
 2255TIP3    H1 6771   6.286   1.999   1.688 -0.5411  0.0771 -2.0975
 2255TIP3    H2 6772   6.184   1.890   1.714  0.6522 -0.7734 -0.8958
 2256TIP3   OH2 6773   1.455   0.112   3.426  0.3344  0.5015 -0.7676
 2256TIP3    H1 6774   1.550   0.111   3.434  0.3158  1.3259 -0.3231
 2256TIP3    H2 6775   1.435   0.195   3.383 -0.1919  0.4328 -0.6680
 2257TIP3   OH2 6776   4.610   3.029   3.491  0.0255  0.0519  0.0403
 2257TIP3    H1 6777   4.702   3.054   3.495  0.6608 -2.0379  0.1631
 2257TIP3    H2 6778   4.584   3.045   3.401 -0.1843  2.7287  0.5185
 2258TIP3   OH2 6779   5.266   3.253   1.282  0.6318 -0.1175  0.3410
 2258TIP3    H1 6780   5.218   3.312   1.223 -1.1921 -1.3633  0.4883
 2258TIP3    H2 6781   5.262   3.297   1.367 -0.4135 -0.2799  0.3831
 2259TIP3   OH2 6782   5.445   4.596   2.171 -0.4212  0.2021 -0.0062
 2259TIP3    H1 6783   5.435   4.691   2.167 -1.4386  0.0552 -1.4635
 2259TIP3    H2 6784   5.366   4.564   2.215  0.3421  0.0640  1.3370
 2260TIP3   OH2 6785   5.136   0.490   3.809 -0.0894 -0.4977  0.6050
 2260TIP3    H1 6786   5.041   0.498   3.822 -0.2733 -2.2849  0.5935
 2260TIP3    H2 6787   5.151   0.529   3.723 -0.6049  0.8606  1.0904
 2261TIP3   OH2 6788   3.648   3.317   1.392 -0.4821 -0.5377 -0.0654
 2261TIP3    H1 6789   3.579   3.295   1.455 -1.7464 -3.5078 -2.1919
 2261TIP3    H2 6790   3.727   3.276   1.426 -0.4056  0.4310  0.9763
 2262TIP3   OH2 6791   4.752   5.157   2.733  0.0806 -0.6577 -0.4953
 2262TIP3    H1 6792   4.800   5.239   2.746 -0.8398 -0.3378  1.0571
 2262TIP3    H2 6793   4.698   5.147   2.811 -0.7009 -2.1676 -1.1745
 2263TIP3   OH2 6794   3.060   3.232   3.031 -0.1932  0.1290 -0.2512
 2263TIP3    H1 6795   3.133   3.234   2.970 -0.1495 -0.6198 -0.2290
 2263TIP3    H2 6796   3.032   3.324   3.037  1.0978  0.5174  0.1886
 2264TIP3   OH2 6797   5.644   2.428   0.756 -0.1799  0.0125 -0.4476
 2264TIP3    H1 6798   5.656   2.347   0.805 -1.9587 -1.5522 -2.3936
 2264TIP3    H2 6799   5.550   2.441   0.754  0.0551  1.9372 -0.5182
 2265TIP3   OH2 6800   6.053   5.493   0.118 -0.0649 -0.2837 -0.5744
 2265TIP3    H1 6801   5.975   5.548   0.111 -2.8236 -3.4819  1.7630
 2265TIP3    H2 6802   6.074   5.469   0.028 -0.8709  1.7456 -1.3654
 2266TIP3   OH2 6803   2.729   4.248   3.524 -0.1457 -0.2739 -0.0931
 2266TIP3    H1 6804   2.658   4.304   3.492  0.5545  0.9062  0.3785
 2266TIP3    H2 6805   2.726   4.171   3.466  0.6321  1.4454 -2.5885
 2267TIP3   OH2 6806   1.478   0.541   3.811 -0.4272  0.1236  0.2026
 2267TIP3    H1 6807   1.388   0.508   3.810  0.2030 -1.7543  0.6036
 2267TIP3    H2 6808   1.529   0.469   3.847  1.0345  1.7688  1.5685
 2268TIP3   OH2 6809   2.454   4.523   1.478  0.2044  0.4056  0.4641
 2268TIP3    H1 6810   2.524   4.542   1.541 -1.7696  1.1578  2.5779
 2268TIP3    H2 6811   2.498   4.522   1.393  2.7712  0.7913  1.6901
 2269TIP3   OH2 6812   0.270   0.362   4.919 -0.0506  0.2596  0.5440
 2269TIP3    H1 6813   0.346   0.304   4.920 -1.1774 -1.2741  1.3548
 2269TIP3    H2 6814   0.219   0.334   4.844 -0.8392 -0.1525  1.2132
 2270TIP3   OH2 6815   0.361   0.968   1.660 -0.4747 -0.3016 -0.2974
 2270TIP3    H1 6816   0.450   0.986   1.630 -0.5147  0.5043  0.0307
 2270TIP3    H2 6817   0.360   0.874   1.677  0.3460 -0.3050 -0.2107
 2271TIP3   OH2 6818   1.328   2.054   0.882  0.1505  0.0985 -1.2270
 2271TIP3    H1 6819   1.329   1.960   0.864  2.1711 -0.2333  0.3096
 2271TIP3    H2 6820   1.312   2.060   0.976  1.5874  1.1949 -1.0229
 2272TIP3   OH2 6821   4.041   0.125   3.586  0.3545 -0.4237 -0.5886
 2272TIP3    H1 6822   4.070   0.064   3.517  1.4267  0.7420 -1.2177
 2272TIP3    H2 6823   4.062   0.212   3.551 -0.0675  0.2513  0.7743
 2273TIP3   OH2 6824   4.221   2.548   0.221  0.1330  0.3109  0.5314
 2273TIP3    H1 6825   4.305   2.538   0.264  0.4288  0.3464 -0.0304
 2273TIP3    H2 6826   4.170   2.604   0.279  0.7496  0.8918  0.5252
 2274TIP3   OH2 6827   2.932   1.684   4.902 -1.1271 -0.1837 -0.3751
 2274TIP3    H1 6828   2.889   1.769   4.910 -0.7042  0.0290 -0.3487
 2274TIP3    H2 6829   3.011   1.702   4.851 -1.3899 -0.6817 -0.9760
 2275TIP3   OH2 6830   3.267   5.428   0.576  0.1162 -0.4425 -0.2822
 2275TIP3    H1 6831   3.237   5.389   0.658  1.4042  1.5391  1.2101
 2275TIP3    H2 6832   3.340   5.485   0.601  0.3489  0.4786 -2.7655
 2276TIP3   OH2 6833   1.230   4.755   0.803 -0.0732  0.2005 -0.0756
 2276TIP3    H1 6834   1.221   4.661   0.819 -2.8920  0.0859 -1.6976
 2276TIP3    H2 6835   1.286   4.761   0.726 -0.2133 -0.1916 -0.2112
 2277TIP3   OH2 6836   2.479   1.712   0.255  0.2045 -0.1058 -0.3146
 2277TIP3    H1 6837   2.490   1.695   0.161 -2.4356  1.0269 -0.9341
 2277TIP3    H2 6838   2.507   1.631   0.298  0.7568 -0.9304 -2.1118
 2278TIP3   OH2 6839   2.461   2.761   0.188  0.3847  0.2787  0.0953
 2278TIP3    H1 6840   2.390   2.808   0.233  2.1342  1.7579  1.4629
 2278TIP3    H2 6841   2.457   2.673   0.225 -0.4697  0.4524  0.4646
 2279TIP3   OH2 6842   6.238   2.055   2.541  0.0422 -0.2834 -0.2854
 2279TIP3    H1 6843   6.290   2.076   2.619  0.2323  2.4419 -1.0793
 2279TIP3    H2 6844   6.147   2.058   2.571  0.1663 -0.8814  0.1708
 2280TIP3   OH2 6845   4.974   2.740   4.919  0.5889 -0.3700  0.6816
 2280TIP3    H1 6846   4.930   2.658   4.899 -1.1145  0.5761  0.3454
 2280TIP3    H2 6847   4.997   2.777   4.834  1.0967 -0.3639  0.8190
 2281TIP3   OH2 6848   0.412   2.583   1.526  0.0536 -0.3594  0.6752
 2281TIP3    H1 6849   0.477   2.652   1.541  1.2434 -1.6620  1.8083
 2281TIP3    H2 6850   0.331   2.630   1.505  0.5918  1.4054  2.2991
 2282TIP3   OH2 6851   2.659   4.346   2.504 -0.5194  0.0052  0.1544
 2282TIP3    H1 6852   2.745   4.364   2.541  2.0079 -2.2678 -3.7682
 2282TIP3    H2 6853   2.648   4.412   2.436 -0.0779 -1.6698 -1.6569
 2283TIP3   OH2 6854   5.595   0.761   2.826  0.2738 -0.0166 -0.2454
 2283TIP3    H1 6855   5.664   0.712   2.781 -0.4567 -0.0548 -1.3417
 2283TIP3    H2 6856   5.623   0.761   2.918  1.6431 -0.1723 -0.6392
 2284TIP3   OH2 6857   1.401   3.658   4.370 -0.2975  0.2436  0.1710
 2284TIP3    H1 6858   1.394   3.578   4.319 -1.4838  0.8027 -0.5849
 2284TIP3    H2 6859   1.426   3.725   4.306 -2.2923  1.0511  0.1602
 2285TIP3   OH2 6860   1.014   2.439   2.100  0.1415  0.2584  0.1244
 2285TIP3    H1 6861   0.933   2.445   2.151  0.1656 -0.6811  0.2907
 2285TIP3    H2 6862   1.076   2.396   2.158 -0.1912 -1.9849 -1.0715
 2286TIP3   OH2 6863   1.307   3.398   1.843  0.5886 -0.0753  0.4839
 2286TIP3    H1 6864   1.375   3.338   1.874 -1.5686 -2.0952  1.5268
 2286TIP3    H2 6865   1.277   3.360   1.761 -1.2207 -0.8429  1.4590
 2287TIP3   OH2 6866   1.959   0.423   0.290  0.2035  0.5399 -0.1404
 2287TIP3    H1 6867   1.901   0.353   0.321  1.9305 -0.3613  1.1783
 2287TIP3    H2 6868   2.043   0.405   0.331  1.5017  1.7051 -2.1355
 2288TIP3   OH2 6869   3.049   1.517   3.688  0.0564 -0.1435  0.3402
 2288TIP3    H1 6870   3.081   1.488   3.602 -0.6200  0.1385 -0.0227
 2288TIP3    H2 6871   2.980   1.580   3.667  0.6430  0.7794  1.1015
 2289TIP3   OH2 6872   3.478   2.695   1.379 -0.0203 -0.2193 -0.4228
 2289TIP3    H1 6873   3.431   2.725   1.301 -0.5426  2.4054  0.7877
 2289TIP3    H2 6874   3.456   2.602   1.386 -2.1128  0.0881 -1.9344
 2290TIP3   OH2 6875   5.035   3.496   3.648  0.3928  0.7884 -0.0432
 2290TIP3    H1 6876   4.963   3.441   3.616 -1.1894  1.5555  2.0097
 2290TIP3    H2 6877   5.066   3.451   3.726  0.0892  1.9905  0.7988
 2291TIP3   OH2 6878   4.332   2.990   1.145  0.3095 -0.8042  0.2113
 2291TIP3    H1 6879   4.356   2.944   1.065  0.4448  1.8212 -1.3449
 2291TIP3    H2 6880   4.251   2.946   1.174 -1.4628 -0.0297 -3.0538
 2292TIP3   OH2 6881   0.383   5.447   1.798 -0.1061  0.0405 -0.3428
 2292TIP3    H1 6882   0.429   5.456   1.714 -2.2772 -0.3417 -1.6501
 2292TIP3    H2 6883   0.322   5.375   1.784 -1.0649  0.4831  1.3282
 2293TIP3   OH2 6884   3.466   1.109   2.799 -0.1147  0.3544  0.3799
 2293TIP3    H1 6885   3.419   1.145   2.874 -0.0777  0.4563  0.3543
 2293TIP3    H2 6886   3.545   1.162   2.792  0.0646  0.1070  0.4956
 2294TIP3   OH2 6887   1.670   5.321   5.158  0.0017 -0.2877  0.2771
 2294TIP3    H1 6888   1.699   5.258   5.092 -1.1230  0.4223 -0.9408
 2294TIP3    H2 6889   1.725   5.303   5.234  0.7076 -1.7419 -0.5383
 2295TIP3   OH2 6890   5.002   5.606   4.793 -0.0464  0.2315 -0.0340
 2295TIP3    H1 6891   4.961   5.606   4.880  1.1644  3.0096  0.6378
 2295TIP3    H2 6892   4.933   5.635   4.734 -1.3385 -3.1028 -0.4032
 2296TIP3   OH2 6893   5.834   1.738   3.496 -0.0360  0.4664 -0.0036
 2296TIP3    H1 6894   5.864   1.825   3.521  0.0090  0.6030 -0.5153
 2296TIP3    H2 6895   5.854   1.732   3.402 -2.9130  1.1035 -0.7363
 2297TIP3   OH2 6896   2.075   0.523   4.173  0.1470  0.0682  0.2268
 2297TIP3    H1 6897   1.992   0.549   4.212 -0.0879 -0.0399 -0.1904
 2297TIP3    H2 6898   2.133   0.507   4.247 -0.0727  0.5743  0.5172
 2298TIP3   OH2 6899   5.752   0.710   3.150 -0.1915  0.0540  0.7902
 2298TIP3    H1 6900   5.810   0.787   3.140  1.7819 -1.4501 -0.0433
 2298TIP3    H2 6901   5.737   0.704   3.244  0.6719  0.7429  0.9870
 2299TIP3   OH2 6902   3.105   4.403   0.097  0.1564  0.4668 -0.2820
 2299TIP3    H1 6903   3.090   4.421   0.005 -0.3001  0.2576 -0.2556
 2299TIP3    H2 6904   3.169   4.468   0.125  0.0200  0.7638 -0.6557
 2300TIP3   OH2 6905   1.811   5.041   0.822 -0.0049  0.7870 -0.2122
 2300TIP3    H1 6906   1.836   4.954   0.852  0.6957  0.7124 -0.9554
 2300TIP3    H2 6907   1.727   5.059   0.864 -0.3075 -0.3806 -0.2961
 2301TIP3   OH2 6908   5.141   5.642   0.672  0.2673 -0.4708 -0.3253
 2301TIP3    H1 6909   5.081   5.667   0.602 -0.5078 -0.3213  0.3639
 2301TIP3    H2 6910   5.144   5.546   0.668  0.0864 -0.4718 -0.4516
 2302TIP3   OH2 6911   4.400   1.631   3.749 -0.6832 -0.0023 -0.1990
 2302TIP3    H1 6912   4.470   1.679   3.703  0.2948  0.5507  1.7638
 2302TIP3    H2 6913   4.325   1.691   3.747 -0.7998 -0.1635 -1.4137
 2303TIP3   OH2 6914   3.117   3.545   1.448 -0.1245 -0.1828  0.1448
 2303TIP3    H1 6915   3.174   3.524   1.373 -0.5373  1.6758 -0.7360
 2303TIP3    H2 6916   3.028   3.542   1.412 -0.3993 -0.3104  0.8265
 2304TIP3   OH2 6917   0.518   0.160   0.195 -0.5151 -0.1722 -0.0946
 2304TIP3    H1 6918   0.433   0.192   0.165 -0.4436 -0.5676 -0.7450
 2304TIP3    H2 6919   0.517   0.172   0.290 -1.7192 -1.2029  0.0441
 2305TIP3   OH2 6920   5.568   1.739   1.074  0.1397 -0.1767  0.0297
 2305TIP3    H1 6921   5.568   1.834   1.091 -0.2827 -0.2745  0.5964
 2305TIP3    H2 6922   5.590   1.732   0.981  1.8289  0.4184  0.3384
 2306TIP3   OH2 6923   6.177   5.273   2.715  0.1086  0.0178  0.5516
 2306TIP3    H1 6924   6.253   5.309   2.669 -0.3735 -0.4473 -0.6511
 2306TIP3    H2 6925   6.160   5.189   2.671  0.0052 -0.7480  2.0013
 2307TIP3   OH2 6926   4.080   2.411   4.848  0.1394  0.0237 -0.3099
 2307TIP3    H1 6927   4.005   2.460   4.883  0.9941  1.0088  0.2315
 2307TIP3    H2 6928   4.051   2.380   4.763 -0.3814  1.7380 -0.8107
 2308TIP3   OH2 6929   0.906   0.538   2.620  0.3116  0.1369 -0.6144
 2308TIP3    H1 6930   0.855   0.492   2.553  0.8167 -0.4819 -0.5794
 2308TIP3    H2 6931   0.871   0.627   2.619 -2.1901 -0.7439  0.8114
 2309TIP3   OH2 6932   2.424   0.444   4.831 -0.0696  0.4369  0.1888
 2309TIP3    H1 6933   2.488   0.453   4.901  0.2476  1.1769 -0.1875
 2309TIP3    H2 6934   2.441   0.518   4.773 -0.3718 -0.1295 -0.6379
 2310TIP3   OH2 6935   1.072   4.240   2.329  0.2783 -0.2856 -0.1138
 2310TIP3    H1 6936   1.030   4.207   2.408  0.7702 -0.1047  0.2288
 2310TIP3    H2 6937   1.152   4.283   2.360 -0.2784  1.1233 -0.5514
 2311TIP3   OH2 6938   2.750   2.208   2.847  0.2816  0.0825  0.0756
 2311TIP3    H1 6939   2.816   2.167   2.791  1.0925  0.4583  0.7213
 2311TIP3    H2 6940   2.784   2.195   2.936 -0.3901  0.5152  0.4040
 2312TIP3   OH2 6941   2.533   2.631   1.453  0.7876  0.4464  0.2000
 2312TIP3    H1 6942   2.502   2.686   1.525 -0.5166  0.3070 -0.2380
 2312TIP3    H2 6943   2.547   2.693   1.381  0.0115  0.3062 -0.0752
 2313TIP3   OH2 6944   3.569   1.820   3.232 -0.5332  0.0819 -0.4595
 2313TIP3    H1 6945   3.570   1.910   3.264  0.4033  0.8290 -2.4334
 2313TIP3    H2 6946   3.599   1.768   3.306  0.1897  1.5463  0.3202
 2314TIP3   OH2 6947   1.021   0.619   0.008 -0.0443 -0.3996  0.0277
 2314TIP3    H1 6948   1.037   0.561   0.083 -1.0453 -1.7776 -0.7730
 2314TIP3    H2 6949   1.062   0.702   0.033 -1.5894 -0.3253  2.7208
 2315TIP3   OH2 6950   1.364   2.632   2.856 -0.0833 -0.7268  0.0380
 2315TIP3    H1 6951   1.438   2.586   2.816 -0.1886 -1.8405  1.0758
 2315TIP3    H2 6952   1.324   2.567   2.914 -0.7868  0.4099  0.8575
 2316TIP3   OH2 6953   0.922   5.485   4.674 -0.7342  0.4394  0.1355
 2316TIP3    H1 6954   0.841   5.497   4.625 -1.1455 -0.7256  0.4760
 2316TIP3    H2 6955   0.894   5.473   4.765 -0.2826 -0.8341  0.1402
 2317TIP3   OH2 6956   4.036   2.894   2.846  0.0292 -0.1703 -0.0114
 2317TIP3    H1 6957   4.075   2.807   2.830 -1.1031 -0.5655 -0.7158
 2317TIP3    H2 6958   4.037   2.904   2.941  1.8786 -0.1428  0.0028
 2318TIP3   OH2 6959   5.008   4.498   4.640  0.4596  0.9740 -0.4654
 2318TIP3    H1 6960   4.990   4.411   4.605 -0.1696  0.5207  0.9272
 2318TIP3    H2 6961   4.922   4.540   4.644  0.7711  1.7254 -1.2412
 2319TIP3   OH2 6962   5.389   2.055   2.229 -0.0488  0.4500  0.5188
 2319TIP3    H1 6963   5.438   1.984   2.187  0.1083 -0.2842  1.8564
 2319TIP3    H2 6964   5.456   2.119   2.253  0.5610 -1.0915  3.4148
 2320TIP3   OH2 6965   5.286   0.561   2.966 -0.4372  0.0833 -0.2902
 2320TIP3    H1 6966   5.226   0.506   2.916 -0.5595  0.9786 -1.1565
 2320TIP3    H2 6967   5.300   0.638   2.911  0.3993  0.5350  0.5196
 2321TIP3   OH2 6968   1.017   1.158   4.071 -0.2173 -0.1318 -0.0402
 2321TIP3    H1 6969   1.016   1.208   4.152  0.3926  0.0493 -0.1395
 2321TIP3    H2 6970   1.110   1.141   4.054 -0.1805  1.3445 -1.6066
 2322TIP3   OH2 6971   5.894   3.628   4.975  0.2246  0.1259  0.2914
 2322TIP3    H1 6972   5.939   3.710   4.955 -0.5877  0.3233 -0.7711
 2322TIP3    H2 6973   5.920   3.608   5.065  0.9057  1.2297  0.3542
 2323TIP3   OH2 6974   4.977   3.733   1.781  0.3570  0.3951  0.3279
 2323TIP3    H1 6975   4.893   3.744   1.826  0.5993  1.3025  0.5941
 2323TIP3    H2 6976   5.033   3.690   1.846 -0.0082 -0.5860  0.0085
 2324TIP3   OH2 6977   3.586   5.364   3.703 -0.1557  0.1633 -0.0760
 2324TIP3    H1 6978   3.519   5.326   3.759 -1.0248 -1.0456 -1.8668
 2324TIP3    H2 6979   3.653   5.296   3.696 -0.0137  0.3383 -0.4469
 2325TIP3   OH2 6980   2.875   3.773   3.900  0.4018  0.3073 -0.7444
 2325TIP3    H1 6981   2.919   3.728   3.828  0.4290  1.1887 -1.2950
 2325TIP3    H2 6982   2.811   3.830   3.857 -2.7859 -2.3756  0.0576
 2326TIP3   OH2 6983   1.461   5.408   1.108 -0.0925 -0.1054  0.3587
 2326TIP3    H1 6984   1.525   5.391   1.039 -0.8291  0.7301 -0.5685
 2326TIP3    H2 6985   1.434   5.322   1.138  0.2278 -0.4921 -0.4242
 2327TIP3   OH2 6986   5.164   2.189   2.326 -0.1062  0.1841 -0.0236
 2327TIP3    H1 6987   5.108   2.114   2.307  0.3737 -0.0040 -0.7569
 2327TIP3    H2 6988   5.251   2.162   2.296 -0.0555  1.2577 -0.8906
 2328TIP3   OH2 6989   4.080   3.412   3.356 -0.0832 -0.5554  0.2693
 2328TIP3    H1 6990   4.109   3.389   3.268 -0.4521 -1.5967  0.4008
 2328TIP3    H2 6991   4.129   3.352   3.413 -1.8864 -1.8431  0.5436
 2329TIP3   OH2 6992   4.359   0.910   2.267 -0.1394  0.5222 -0.8172
 2329TIP3    H1 6993   4.449   0.932   2.291 -0.5645  2.2407 -0.6441
 2329TIP3    H2 6994   4.368   0.850   2.193  1.1479  0.2933 -0.4979
 2330TIP3   OH2 6995   0.608   5.728   4.105 -0.1647 -0.4023  0.5732
 2330TIP3    H1 6996   0.571   5.752   4.191  1.6916 -1.6883  1.7928
 2330TIP3    H2 6997   0.542   5.670   4.067 -1.3945  0.8344  0.7236
 2331TIP3   OH2 6998   0.296   3.133   3.168 -0.0555  0.2245 -0.6910
 2331TIP3    H1 6999   0.269   3.049   3.205  0.7904 -0.6461 -1.9914
 2331TIP3    H2 7000   0.316   3.187   3.244 -1.6042 -0.3850  0.2055
 2332TIP3   OH2 7001   3.335   5.936   4.829 -0.3209  0.1015 -0.3996
 2332TIP3    H1 7002   3.251   5.903   4.860  0.0985  0.0741  0.7774
 2332TIP3    H2 7003   3.400   5.885   4.877  0.4239 -1.0483 -2.5075
 2333TIP3   OH2 7004   5.592   5.117   5.159 -0.2987 -0.3199  0.0843
 2333TIP3    H1 7005   5.565   5.025   5.165 -0.8531 -0.2140 -0.6320
 2333TIP3    H2 7006   5.510   5.165   5.152  0.0009  0.2153  0.2413
 2334TIP3   OH2 7007   2.320   4.463   0.541 -0.1060  0.0805  0.0237
 2334TIP3    H1 7008   2.300   4.556   0.537 -1.1238 -0.1015  0.4141
 2334TIP3    H2 7009   2.336   4.446   0.634 -0.9191 -0.3065  0.1052
 2335TIP3   OH2 7010   2.545   1.828   2.827 -0.7266  0.5374 -0.0225
 2335TIP3    H1 7011   2.463   1.847   2.872 -1.3528  0.0331 -0.9050
 2335TIP3    H2 7012   2.591   1.768   2.885 -0.9657  0.8513  0.4965
 2336TIP3   OH2 7013   2.554   1.070   2.528  0.4497 -0.8901  0.6244
 2336TIP3    H1 7014   2.549   1.124   2.449 -1.3201 -0.8860  0.6958
 2336TIP3    H2 7015   2.493   1.111   2.589  1.1182 -1.4173  1.6770
 2337TIP3   OH2 7016   1.987   3.276   2.788 -0.0009  0.0297 -0.0292
 2337TIP3    H1 7017   2.003   3.360   2.745  0.9730  0.1758  0.6055
 2337TIP3    H2 7018   1.974   3.214   2.715 -3.3115  1.1397 -0.5466
 2338TIP3   OH2 7019   4.024   3.624   2.144 -0.2807 -0.0804 -0.0327
 2338TIP3    H1 7020   4.047   3.554   2.083 -0.5292  1.1782 -1.6694
 2338TIP3    H2 7021   4.108   3.660   2.172 -0.1622 -0.6538  0.3516
 2339TIP3   OH2 7022   2.158   1.922   4.549  0.2800  0.0090  0.5589
 2339TIP3    H1 7023   2.176   1.828   4.558 -0.5103 -0.3437 -1.1584
 2339TIP3    H2 7024   2.231   1.955   4.496  0.6364  0.4068  1.2880
 2340TIP3   OH2 7025   4.683   2.513   3.610  0.3258 -0.5350 -0.0023
 2340TIP3    H1 7026   4.746   2.497   3.540  0.8441  0.2755  0.2670
 2340TIP3    H2 7027   4.680   2.608   3.619 -1.5332 -0.5126 -0.5351
 2341TIP3   OH2 7028   4.047   3.496   3.649 -0.0873 -0.1743 -0.5761
 2341TIP3    H1 7029   4.044   3.563   3.580  2.2901  0.2753 -0.3359
 2341TIP3    H2 7030   4.140   3.474   3.656 -0.4008 -0.9643  1.7937
 2342TIP3   OH2 7031   1.908   0.913   4.260 -0.0771  0.4945  0.6945
 2342TIP3    H1 7032   1.871   0.952   4.181  3.4567  1.9945 -0.4105
 2342TIP3    H2 7033   1.938   0.988   4.312  1.4404 -0.5497  1.4130
 2343TIP3   OH2 7034   4.143   4.220   3.629  0.4497  0.0006  0.2962
 2343TIP3    H1 7035   4.133   4.300   3.681  0.8522 -0.2034  0.6894
 2343TIP3    H2 7036   4.060   4.174   3.641  0.9210 -0.5496  1.6252
 2344TIP3   OH2 7037   4.722   0.964   4.276  0.3451  0.1769 -0.0639
 2344TIP3    H1 7038   4.707   0.880   4.233  0.4859  0.4602 -0.6801
 2344TIP3    H2 7039   4.775   1.014   4.214  0.6641  0.5490  0.5010
 2345TIP3   OH2 7040   0.467   1.605   0.630  0.0084  0.0465  0.3802
 2345TIP3    H1 7041   0.405   1.662   0.676  1.5078  0.9774  1.3315
 2345TIP3    H2 7042   0.419   1.574   0.553 -2.0153 -0.2063  1.6769
 2346TIP3   OH2 7043   4.190   3.702   2.425  0.2236  0.1824 -0.0640
 2346TIP3    H1 7044   4.223   3.693   2.336 -1.9694  0.2782 -0.9403
 2346TIP3    H2 7045   4.099   3.730   2.415  0.0900  0.8084  2.2235
 2347TIP3   OH2 7046   1.474   3.104   3.651  0.1798 -0.4730 -0.1931
 2347TIP3    H1 7047   1.490   3.140   3.564 -1.2592 -2.5318 -1.4122
 2347TIP3    H2 7048   1.552   3.054   3.672  1.0635  1.0596  0.3204
 2348TIP3   OH2 7049   2.870   2.404   0.183 -0.5499  0.1593 -0.2663
 2348TIP3    H1 7050   2.784   2.385   0.146 -0.2938 -1.2412 -0.1985
 2348TIP3    H2 7051   2.931   2.390   0.110 -0.2679 -0.1585  0.0284
 2349TIP3   OH2 7052   4.966   2.855   4.360  0.0590 -0.3491 -0.2865
 2349TIP3    H1 7053   4.947   2.779   4.305 -0.3633 -1.5780  1.4701
 2349TIP3    H2 7054   4.904   2.922   4.330  1.2589 -0.2205 -2.6812
 2350TIP3   OH2 7055   2.532   2.818   1.231 -0.1201 -0.2627  0.4187
 2350TIP3    H1 7056   2.448   2.855   1.205  1.0551  2.5837  0.3892
 2350TIP3    H2 7057   2.554   2.756   1.161 -1.2702  0.4533 -0.6067
 2351TIP3   OH2 7058   2.553   2.248   1.262 -0.9498 -0.0689 -0.2263
 2351TIP3    H1 7059   2.501   2.252   1.181  2.0908 -0.4947 -2.3670
 2351TIP3    H2 7060   2.626   2.190   1.241 -0.6799 -1.2663  3.3365
 2352TIP3   OH2 7061   4.921   1.573   2.109 -0.5289  0.2004 -0.7133
 2352TIP3    H1 7062   4.933   1.661   2.144 -0.6904  0.8611 -2.2833
 2352TIP3    H2 7063   4.835   1.546   2.142 -0.0741  0.2150  0.5635
 2353TIP3   OH2 7064   4.891   5.919   0.847  0.4269 -0.1899  0.7957
 2353TIP3    H1 7065   4.806   5.948   0.879  0.6522  2.4967 -0.6477
 2353TIP3    H2 7066   4.878   5.906   0.753  1.3540 -0.8193  0.7415
 2354TIP3   OH2 7067   6.015   1.575   0.574 -0.2968 -0.5604  0.0837
 2354TIP3    H1 7068   6.047   1.665   0.574 -2.3899  0.2690 -1.3042
 2354TIP3    H2 7069   6.012   1.551   0.481 -3.4580 -0.5605  0.0924
 2355TIP3   OH2 7070   0.885   2.663   2.019 -0.3135  0.3716 -0.0034
 2355TIP3    H1 7071   0.935   2.581   2.018  1.1057  1.2021  0.8223
 2355TIP3    H2 7072   0.915   2.709   2.096 -1.1161  1.6833 -0.4440
 2356TIP3   OH2 7073   5.376   2.411   0.700  0.1607  0.5452  0.4906
 2356TIP3    H1 7074   5.341   2.486   0.749 -2.8357 -0.7310  0.5365
 2356TIP3    H2 7075   5.302   2.380   0.648  1.8539 -1.2394 -1.0030
 2357TIP3   OH2 7076   3.978   0.301   0.742 -1.0662  0.0157 -0.0123
 2357TIP3    H1 7077   4.002   0.272   0.654 -0.0733  0.5405  0.0711
 2357TIP3    H2 7078   3.917   0.235   0.773  1.3806 -2.2458  0.3085
 2358TIP3   OH2 7079   2.696   3.576   4.583 -0.2791 -0.2371  0.9113
 2358TIP3    H1 7080   2.742   3.658   4.564 -0.6754 -0.4282 -1.1535
 2358TIP3    H2 7081   2.603   3.601   4.584 -0.5574 -0.8604 -1.5372
 2359TIP3   OH2 7082   1.639   4.027   0.186 -0.0270 -0.0184 -0.1705
 2359TIP3    H1 7083   1.692   4.086   0.132 -1.5847  2.7654  1.1326
 2359TIP3    H2 7084   1.592   3.973   0.123  1.5023  0.0268 -1.4258
 2360TIP3   OH2 7085   3.936   4.904   1.720  0.4416  0.5548 -0.6788
 2360TIP3    H1 7086   3.905   4.884   1.808  2.1652  1.8734  0.3189
 2360TIP3    H2 7087   4.031   4.916   1.730  0.6878  0.7961 -2.7083
 2361TIP3   OH2 7088   0.572   0.084   3.772  0.1449  0.3449 -0.4433
 2361TIP3    H1 7089   0.534   0.083   3.685 -2.8443  1.3115  0.7009
 2361TIP3    H2 7090   0.500   0.112   3.829  2.1916  0.5950  2.2281
 2362TIP3   OH2 7091   5.967   1.776   4.032 -0.3090  0.4788 -0.2905
 2362TIP3    H1 7092   6.040   1.725   4.068 -1.0743  1.1126  2.3363
 2362TIP3    H2 7093   5.942   1.729   3.953  1.2773 -1.2199  0.1571
 2363TIP3   OH2 7094   0.729   3.482   2.631  0.2361 -0.3731  0.3126
 2363TIP3    H1 7095   0.672   3.473   2.554 -0.5545  1.8377  0.5617
 2363TIP3    H2 7096   0.701   3.564   2.672  2.2111 -0.3059  1.6628
 2364TIP3   OH2 7097   4.445   0.026   0.872 -0.2952  0.1274  0.2072
 2364TIP3    H1 7098   4.500  -0.038   0.917  1.0660  1.3772  0.3699
 2364TIP3    H2 7099   4.463   0.109   0.916 -1.6206  0.7450 -0.3582
 2365TIP3   OH2 7100   0.588   4.597   3.481  0.4558  0.7034 -0.6686
 2365TIP3    H1 7101   0.513   4.554   3.440  0.3550  0.4999 -0.2745
 2365TIP3    H2 7102   0.550   4.660   3.542  0.5619 -1.2931  1.5532
 2366TIP3   OH2 7103   3.631   1.844   1.102 -0.3370  0.5195 -0.3145
 2366TIP3    H1 7104   3.674   1.764   1.131  0.7674  0.6944 -1.3600
 2366TIP3    H2 7105   3.545   1.842   1.143 -0.1725 -0.9992 -0.0023
 2367TIP3   OH2 7106   3.924   2.096   1.266 -0.4492  0.4888 -0.3768
 2367TIP3    H1 7107   3.963   2.009   1.257 -0.3200  0.7133 -2.3776
 2367TIP3    H2 7108   3.990   2.146   1.314  0.1040 -0.1306 -0.4668
 2368TIP3   OH2 7109   0.187   1.899   4.899 -0.0379  0.7108  0.2560
 2368TIP3    H1 7110   0.240   1.823   4.925 -1.2818 -0.7447 -1.2754
 2368TIP3    H2 7111   0.220   1.970   4.954  0.2871 -1.2028  2.7253
 2369TIP3   OH2 7112   5.260   1.765   2.854 -0.3698 -0.2204 -0.4945
 2369TIP3    H1 7113   5.193   1.702   2.827  0.7608 -1.2767 -0.9225
 2369TIP3    H2 7114   5.297   1.797   2.771 -1.1764  1.3321 -0.3037
 2370TIP3   OH2 7115   4.830   0.684   0.858  0.1154  0.2218  0.0164
 2370TIP3    H1 7116   4.772   0.679   0.934  0.5966 -0.3782  0.3555
 2370TIP3    H2 7117   4.918   0.681   0.896  0.3982  1.8443 -0.4393
 2371TIP3   OH2 7118   2.852   0.051   2.815  0.2290 -0.0192  0.2317
 2371TIP3    H1 7119   2.925   0.016   2.764  0.3308  0.4658  0.0380
 2371TIP3    H2 7120   2.892   0.121   2.868 -0.0965  0.2430  0.1283
 2372TIP3   OH2 7121   2.227   1.758   2.864  0.2764  0.2252 -0.2858
 2372TIP3    H1 7122   2.249   1.849   2.883 -1.4133  0.8078 -0.9368
 2372TIP3    H2 7123   2.216   1.717   2.949  2.4250  0.2345  0.0410
 2373TIP3   OH2 7124   4.599   0.972   4.984  0.4841  0.0718  0.0905
 2373TIP3    H1 7125   4.657   1.047   4.998  0.3592 -0.1588  2.0979
 2373TIP3    H2 7126   4.585   0.935   5.072 -2.0216 -0.3874 -0.4177
 2374TIP3   OH2 7127   5.879   3.579   0.444  0.3589 -0.3573  0.1334
 2374TIP3    H1 7128   5.911   3.587   0.354 -1.9387  0.1355 -0.7116
 2374TIP3    H2 7129   5.926   3.646   0.493  0.5966  0.3571 -1.0436
 2375TIP3   OH2 7130   2.674   1.682   3.036 -0.3277 -0.3002  0.1766
 2375TIP3    H1 7131   2.706   1.649   3.120  0.5578 -0.0616 -0.0616
 2375TIP3    H2 7132   2.751   1.719   2.994 -1.3213  2.3978  0.5638
 2376TIP3   OH2 7133   0.478   1.446   2.072  0.2559  0.1360  0.1694
 2376TIP3    H1 7134   0.534   1.393   2.129 -0.4298  0.2055  0.9325
 2376TIP3    H2 7135   0.538   1.481   2.006  1.0015 -0.2880  0.5961
 2377TIP3   OH2 7136   2.864   1.929   1.609  0.1553 -0.4457 -0.0249
 2377TIP3    H1 7137   2.927   1.921   1.537  0.4576  1.0982  0.0314
 2377TIP3    H2 7138   2.781   1.947   1.566  0.1407 -0.4937 -0.0171
 2378TIP3   OH2 7139   3.144   2.139   2.308 -0.0123 -0.0978 -0.0754
 2378TIP3    H1 7140   3.116   2.202   2.374 -0.3469 -0.0994 -0.2164
 2378TIP3    H2 7141   3.178   2.193   2.236  0.6377 -0.1025  0.2238
 2379TIP3   OH2 7142   1.756   2.609   0.309  0.3731 -0.1782  0.3614
 2379TIP3    H1 7143   1.713   2.639   0.389  1.9903 -2.1281  2.0838
 2379TIP3    H2 7144   1.686   2.606   0.244 -1.2704  0.3306  2.0048
 2380TIP3   OH2 7145   3.996   0.313   1.376  0.5390  0.1941  0.0503
 2380TIP3    H1 7146   4.003   0.359   1.292 -2.2194  0.0502 -0.3504
 2380TIP3    H2 7147   4.060   0.357   1.432  1.2306  1.4523 -1.6178
 2381TIP3   OH2 7148   4.512   4.423   1.051 -0.2566  0.0885 -1.0906
 2381TIP3    H1 7149   4.452   4.349   1.063 -0.2410 -0.1343 -2.2740
 2381TIP3    H2 7150   4.505   4.444   0.958  0.6069  0.8397 -0.9933
 2382TIP3   OH2 7151   1.296   3.647   4.839  0.7629 -0.4951  0.3208
 2382TIP3    H1 7152   1.359   3.680   4.903  1.5782  0.2228 -0.8261
 2382TIP3    H2 7153   1.309   3.701   4.762 -2.0660  0.4771  0.3967
 2383TIP3   OH2 7154   4.893   3.270   0.746 -0.0176  0.3190  0.0691
 2383TIP3    H1 7155   4.807   3.275   0.706 -0.5352  0.1798  1.1196
 2383TIP3    H2 7156   4.912   3.360   0.774  0.7957  0.6220 -1.3537
 2384TIP3   OH2 7157   3.842   1.284   4.622  0.5028 -0.2035 -0.3992
 2384TIP3    H1 7158   3.859   1.378   4.610 -1.4168  0.1678 -0.4268
 2384TIP3    H2 7159   3.762   1.280   4.675 -0.1024 -1.8244 -1.3753
 2385TIP3   OH2 7160   2.282   0.123   2.653  0.6814 -0.1960  0.8651
 2385TIP3    H1 7161   2.356   0.080   2.611  0.0779  1.2281 -1.9136
 2385TIP3    H2 7162   2.316   0.208   2.681  0.3371  0.1336  0.3170
 2386TIP3   OH2 7163   1.525   2.695   0.504  0.0071 -0.0724 -0.2140
 2386TIP3    H1 7164   1.452   2.737   0.459  0.6941  2.1511  0.6279
 2386TIP3    H2 7165   1.506   2.601   0.498 -0.4992  0.0996 -4.1305
 2387TIP3   OH2 7166   1.236   3.333   3.969  0.7619  0.4532 -0.1862
 2387TIP3    H1 7167   1.275   3.353   4.055  0.1782  0.6909  0.0264
 2387TIP3    H2 7168   1.284   3.255   3.939  0.5462 -0.0139  0.6390
 2388TIP3   OH2 7169   1.119   0.671   3.609 -0.7377  0.1229  0.4614
 2388TIP3    H1 7170   1.198   0.717   3.639  1.2232 -1.5726 -1.7031
 2388TIP3    H2 7171   1.097   0.612   3.681  0.4742  0.0323  0.7769
 2389TIP3   OH2 7172   5.192   1.369   2.999  0.2050  0.2780 -0.0809
 2389TIP3    H1 7173   5.132   1.376   2.925  0.9394  1.3950 -0.5904
 2389TIP3    H2 7174   5.140   1.399   3.074 -1.0124 -2.2283  0.1914
 2390TIP3   OH2 7175   4.828   2.699   0.461 -0.4504 -0.3237  0.1243
 2390TIP3    H1 7176   4.921   2.695   0.440 -0.1895  0.9771  0.9080
 2390TIP3    H2 7177   4.812   2.622   0.515 -0.1962 -1.3930 -1.2575
 2391TIP3   OH2 7178   1.184   1.792   1.655 -0.4631 -0.1893 -0.5074
 2391TIP3    H1 7179   1.277   1.779   1.636 -0.1420  0.5336  0.4811
 2391TIP3    H2 7180   1.171   1.887   1.647 -0.7889 -0.1193  0.7479
 2392TIP3   OH2 7181   2.461   3.738   0.819 -0.7235  0.5003 -0.0030
 2392TIP3    H1 7182   2.466   3.670   0.886 -0.8398 -2.9305 -3.1296
 2392TIP3    H2 7183   2.551   3.766   0.806 -0.4345 -0.3013  0.1957
 2393TIP3   OH2 7184   1.799   0.774   5.196  0.2950  0.0331 -0.0556
 2393TIP3    H1 7185   1.754   0.707   5.144 -0.0146 -0.2008  0.5059
 2393TIP3    H2 7186   1.769   0.857   5.159 -0.3743 -0.1234  0.1101
 2394TIP3   OH2 7187   3.361   3.304   0.175  0.2054 -0.1757  0.0209
 2394TIP3    H1 7188   3.282   3.357   0.192 -0.3945 -0.9400 -0.3523
 2394TIP3    H2 7189   3.328   3.215   0.164  0.9235 -0.2249 -1.9907
 2395TIP3   OH2 7190   5.408   0.268   0.888 -0.4534  0.3438  0.6263
 2395TIP3    H1 7191   5.344   0.338   0.902  0.9078  1.6512  0.5235
 2395TIP3    H2 7192   5.412   0.223   0.973 -0.9737  0.7088  0.8508
 2396TIP3   OH2 7193   5.997   2.800   4.611  0.4705 -0.4905 -0.4225
 2396TIP3    H1 7194   6.056   2.787   4.686 -0.3875 -0.9129  0.1881
 2396TIP3    H2 7195   6.004   2.718   4.562 -1.2564 -1.4360  0.8333
 2397TIP3   OH2 7196   4.601   2.257   3.684  0.1243  0.1057  0.1513
 2397TIP3    H1 7197   4.599   2.350   3.662 -1.6898  0.1489  0.3252
 2397TIP3    H2 7198   4.584   2.253   3.778 -3.0936 -0.4271 -0.3112
 2398TIP3   OH2 7199   2.297   0.494   0.229 -0.7312 -0.1078 -0.0829
 2398TIP3    H1 7200   2.257   0.488   0.316 -2.7608  1.2999 -0.8614
 2398TIP3    H2 7201   2.270   0.414   0.185  1.0689 -1.2794  0.8116
 2399TIP3   OH2 7202   1.553   5.546   5.053 -0.9495  0.4487  0.4064
 2399TIP3    H1 7203   1.559   5.617   5.117  0.6465  1.1033 -0.4076
 2399TIP3    H2 7204   1.589   5.470   5.098 -0.4130  0.7491  0.4871
 2400TIP3   OH2 7205   2.209   5.415   3.155  0.7057  0.1028  0.3580
 2400TIP3    H1 7206   2.120   5.380   3.167  0.0783  1.7162  0.6517
 2400TIP3    H2 7207   2.209   5.450   3.065  1.0899 -0.0065  0.3137
 2401TIP3   OH2 7208   4.692   4.961   3.771  0.1697 -0.4523  0.1073
 2401TIP3    H1 7209   4.774   4.916   3.793 -0.4779 -0.6954  2.2456
 2401TIP3    H2 7210   4.627   4.921   3.829 -1.7651 -1.0990 -2.3343
 2402TIP3   OH2 7211   1.166   2.186   2.678 -0.7524 -0.0532 -0.0805
 2402TIP3    H1 7212   1.261   2.191   2.689 -0.8386  3.2993 -0.0782
 2402TIP3    H2 7213   1.154   2.135   2.598  1.2481  1.9470 -1.7811
 2403TIP3   OH2 7214   3.961   4.764   5.094 -0.2929 -0.4552  0.0108
 2403TIP3    H1 7215   3.975   4.771   5.188  1.2339 -1.2231 -0.1213
 2403TIP3    H2 7216   3.995   4.846   5.058 -0.4752 -0.3448  0.0898
 2404TIP3   OH2 7217   5.034   1.649   2.779 -0.2627  0.5383 -0.6820
 2404TIP3    H1 7218   5.022   1.601   2.697 -0.2013 -0.2539 -0.2266
 2404TIP3    H2 7219   4.975   1.607   2.841 -0.5876  1.3768 -0.4066
 2405TIP3   OH2 7220   6.297   0.498   1.623  0.6345 -0.1574  0.4465
 2405TIP3    H1 7221   6.389   0.486   1.601  0.6589  0.6167  0.0888
 2405TIP3    H2 7222   6.253   0.422   1.585  0.8472  0.5089 -1.1932
 2406TIP3   OH2 7223   2.643   3.253   2.825 -0.3528  0.2632  0.6195
 2406TIP3    H1 7224   2.656   3.175   2.880  0.1393  0.0323  0.1872
 2406TIP3    H2 7225   2.554   3.244   2.791 -0.2414 -0.2008  0.4419
 2407TIP3   OH2 7226   5.387   2.449   1.726 -0.1006 -0.2955 -0.4886
 2407TIP3    H1 7227   5.439   2.496   1.792 -0.3785 -0.5074 -0.1163
 2407TIP3    H2 7228   5.329   2.515   1.689  0.1131 -0.1578 -0.5770
 2408TIP3   OH2 7229   1.202   2.059   1.631 -0.3999  0.1293 -0.1987
 2408TIP3    H1 7230   1.131   2.121   1.641  0.7454  1.3404  0.7929
 2408TIP3    H2 7231   1.247   2.086   1.550 -0.4223  0.0500 -0.2377
 2409TIP3   OH2 7232   0.143   4.100   2.721  0.6089  0.1684 -0.5574
 2409TIP3    H1 7233   0.095   4.039   2.776  0.3597  0.6389 -0.2458
 2409TIP3    H2 7234   0.088   4.178   2.718 -0.1454 -0.3832 -2.7589
 2410TIP3   OH2 7235   4.060   4.085   3.322 -0.0738 -0.1708 -0.4435
 2410TIP3    H1 7236   4.108   4.028   3.383  1.2271  1.4028  0.0781
 2410TIP3    H2 7237   3.995   4.129   3.377  0.3128  0.3726 -0.4139
 2411TIP3   OH2 7238   5.765   4.873   3.588  0.1255 -0.3657  0.2051
 2411TIP3    H1 7239   5.676   4.843   3.607 -1.0647  0.8652 -2.7438
 2411TIP3    H2 7240   5.773   4.955   3.637 -0.2167 -0.6608  0.7741
 2412TIP3   OH2 7241   0.877   2.249   0.323 -0.2672 -0.0964 -0.3967
 2412TIP3    H1 7242   0.917   2.284   0.244 -0.0355 -1.0595 -0.7182
 2412TIP3    H2 7243   0.834   2.168   0.295  0.7474 -1.0343  0.6413
 2413TIP3   OH2 7244   1.655   1.254   0.884 -0.2383  0.3822 -0.3972
 2413TIP3    H1 7245   1.703   1.173   0.896 -0.1057  0.3888 -0.8637
 2413TIP3    H2 7246   1.629   1.253   0.792 -0.6600  0.6353 -0.2815
 2414TIP3   OH2 7247   1.187   1.308   1.218 -0.0257  0.1020 -0.0430
 2414TIP3    H1 7248   1.189   1.323   1.312  0.0686 -0.8452  0.1207
 2414TIP3    H2 7249   1.094   1.299   1.196 -0.0013 -2.9118  0.5613
 2415TIP3   OH2 7250   3.082   3.982   3.037 -0.5181 -0.0944 -0.5097
 2415TIP3    H1 7251   2.999   3.947   3.004 -0.1199 -2.4878  0.8145
 2415TIP3    H2 7252   3.063   4.004   3.129  0.2848 -0.6744 -0.1895
 2416TIP3   OH2 7253   2.693   5.770   0.248  0.0792 -0.1302 -0.1515
 2416TIP3    H1 7254   2.788   5.754   0.246 -0.1043 -1.8866  1.3996
 2416TIP3    H2 7255   2.682   5.837   0.316  0.2617  0.6467 -0.8843
 2417TIP3   OH2 7256   5.316   3.247   3.213 -0.0741 -0.3340 -0.4590
 2417TIP3    H1 7257   5.329   3.175   3.151 -0.4249 -0.6404 -0.1810
 2417TIP3    H2 7258   5.244   3.298   3.175 -1.0631 -1.1609  0.2563
 2418TIP3   OH2 7259   1.445   4.156   3.712  0.1837 -0.4100  0.4091
 2418TIP3    H1 7260   1.525   4.170   3.661  1.7435  1.0963  3.0421
 2418TIP3    H2 7261   1.429   4.239   3.756 -3.4141 -0.3619 -0.6204
 2419TIP3   OH2 7262   4.679   4.604   5.159 -0.1716 -0.2630 -0.0988
 2419TIP3    H1 7263   4.697   4.517   5.193  0.0869 -1.3583 -2.7891
 2419TIP3    H2 7264   4.607   4.592   5.097  0.5454  1.2065 -1.3024
 2420TIP3   OH2 7265   5.288   5.095   1.166 -0.1159 -0.4970 -0.1269
 2420TIP3    H1 7266   5.237   5.055   1.236 -1.6236 -1.0822 -1.5054
 2420TIP3    H2 7267   5.270   5.189   1.173  0.0011 -0.5156  0.4533
 2421TIP3   OH2 7268   2.990   4.953   4.544 -0.8087 -0.6870  0.7469
 2421TIP3    H1 7269   3.066   4.940   4.601 -0.2906 -0.7840  0.0495
 2421TIP3    H2 7270   3.001   4.887   4.475 -2.9712 -2.6034  2.0911
 2422TIP3   OH2 7271   0.173   0.512   0.999  0.0765  0.2301 -0.6549
 2422TIP3    H1 7272   0.123   0.593   1.012  1.7723  1.1029  0.9102
 2422TIP3    H2 7273   0.166   0.493   0.906 -3.5590 -0.0143 -0.4637
 2423TIP3   OH2 7274   1.252   4.302   4.003  0.0081  0.2979 -0.0458
 2423TIP3    H1 7275   1.176   4.356   3.982  0.2697  1.3616  1.6276
 2423TIP3    H2 7276   1.325   4.363   4.005  0.1442  0.1876  2.9189
 2424TIP3   OH2 7277   3.698   3.195   2.780  0.2800 -0.1683 -0.0398
 2424TIP3    H1 7278   3.746   3.138   2.720  1.1302  1.0296 -0.5243
 2424TIP3    H2 7279   3.609   3.197   2.746  0.5816 -0.0922 -0.8397
 2425TIP3   OH2 7280   3.529   3.763   1.791 -0.3917 -0.3377 -0.5782
 2425TIP3    H1 7281   3.455   3.797   1.741 -0.9141 -1.0606 -0.3172
 2425TIP3    H2 7282   3.562   3.690   1.737 -1.9559 -2.1767  0.8120
 2426TIP3   OH2 7283   1.111   5.601   0.900  0.1488 -0.1440 -0.6460
 2426TIP3    H1 7284   1.017   5.599   0.920  0.3242  2.7825  1.1297
 2426TIP3    H2 7285   1.116   5.613   0.806 -1.4591  2.4503 -0.5030
 2427TIP3   OH2 7286   5.982   0.079   4.568 -0.8620  0.7564 -0.3294
 2427TIP3    H1 7287   5.898   0.123   4.584 -0.3438  1.6451  0.0086
 2427TIP3    H2 7288   6.013   0.117   4.486 -0.3199  1.1577  0.0625
 2428TIP3   OH2 7289   4.662   2.921   2.253  0.7826  0.0497  0.0522
 2428TIP3    H1 7290   4.705   3.007   2.256  0.1491  0.3542  0.7478
 2428TIP3    H2 7291   4.730   2.862   2.221  1.3173  0.7533 -0.1558
 2429TIP3   OH2 7292   1.660   1.781   2.764  0.5851 -0.0941  0.1576
 2429TIP3    H1 7293   1.577   1.764   2.721 -0.3084  1.8073  0.9868
 2429TIP3    H2 7294   1.727   1.747   2.704 -0.7058  0.1726 -1.4946
 2430TIP3   OH2 7295   2.123   5.950   2.524 -0.2156 -0.2995  0.0388
 2430TIP3    H1 7296   2.193   6.010   2.550  0.5246 -0.7754 -0.7819
 2430TIP3    H2 7297   2.134   5.874   2.580 -0.0967 -0.3551 -0.0587
 2431TIP3   OH2 7298   2.030   4.390   0.123 -0.3658 -0.0649 -0.1416
 2431TIP3    H1 7299   2.049   4.347   0.206 -0.3930 -0.5288 -0.3724
 2431TIP3    H2 7300   1.975   4.328   0.075  1.6145 -0.8819 -1.4864
 2432TIP3   OH2 7301   5.028   4.223   4.586  0.4094  0.3526 -0.1305
 2432TIP3    H1 7302   5.028   4.194   4.677 -0.6759 -1.0323 -0.5267
 2432TIP3    H2 7303   5.116   4.203   4.554  0.3583 -0.5253  0.2311
 2433TIP3   OH2 7304   2.678   3.146   0.431 -0.3806 -0.8160 -0.0337
 2433TIP3    H1 7305   2.583   3.158   0.444 -0.5181 -0.5903 -1.1402
 2433TIP3    H2 7306   2.716   3.165   0.517 -1.0973  2.0705 -0.2207
 2434TIP3   OH2 7307   2.714   0.751   0.906 -0.1030 -0.0441  0.1422
 2434TIP3    H1 7308   2.651   0.686   0.934 -0.8942  1.2345  1.4550
 2434TIP3    H2 7309   2.687   0.774   0.817 -1.7571  0.7425  0.8024
 2435TIP3   OH2 7310   1.414   0.469   0.629  0.1823  0.1979 -0.0706
 2435TIP3    H1 7311   1.499   0.457   0.587  1.0095  2.2138  0.8532
 2435TIP3    H2 7312   1.364   0.522   0.566 -0.2646 -0.6514 -0.4425
 2436TIP3   OH2 7313   1.116   0.621   3.065 -0.1287 -0.2250 -0.2071
 2436TIP3    H1 7314   1.173   0.668   3.127 -1.1787  0.7410  0.0656
 2436TIP3    H2 7315   1.146   0.651   2.979  0.6280 -0.7444 -0.1360
 2437TIP3   OH2 7316   5.601   4.217   3.919  0.0119  0.7085 -0.7581
 2437TIP3    H1 7317   5.642   4.217   4.005 -0.7921  0.4793 -0.3661
 2437TIP3    H2 7318   5.606   4.308   3.889 -1.5666  1.2486  0.4592
 2438TIP3   OH2 7319   5.210   2.621   3.613 -0.0529 -0.7385 -0.3970
 2438TIP3    H1 7320   5.304   2.621   3.630 -0.2164 -0.1738  0.5593
 2438TIP3    H2 7321   5.170   2.598   3.697 -0.7474 -1.7259 -0.9823
 2439TIP3   OH2 7322   5.470   2.869   5.063  0.0902  0.2461  0.6312
 2439TIP3    H1 7323   5.378   2.891   5.046 -0.0179 -0.5644  0.1314
 2439TIP3    H2 7324   5.514   2.878   4.979  0.5162  0.8121  0.9064
 2440TIP3   OH2 7325   2.181   3.207   1.839  0.0644 -0.4212  0.5727
 2440TIP3    H1 7326   2.151   3.285   1.886  0.1428  0.2998 -0.5352
 2440TIP3    H2 7327   2.123   3.201   1.763  0.9484 -0.6131 -0.1094
 2441TIP3   OH2 7328   0.195   0.442   1.534  0.1711  0.7853  0.4060
 2441TIP3    H1 7329   0.254   0.481   1.471  2.5895 -1.2044  1.2625
 2441TIP3    H2 7330   0.164   0.361   1.492 -0.6714  0.9939  0.5967
 2442TIP3   OH2 7331   3.521   5.387   0.274 -0.4817  0.1358 -0.0347
 2442TIP3    H1 7332   3.594   5.445   0.295 -1.4258  2.1920 -2.0821
 2442TIP3    H2 7333   3.447   5.422   0.323 -0.7686 -0.1860 -0.2324
 2443TIP3   OH2 7334   2.946   3.576   0.710 -0.6354 -0.3076 -0.4424
 2443TIP3    H1 7335   2.871   3.569   0.771  0.6234 -0.2499  1.1836
 2443TIP3    H2 7336   2.925   3.651   0.655  0.3928  3.0989  3.2853
 2444TIP3   OH2 7337   3.940   5.632   3.466  0.4000  0.1115  0.3678
 2444TIP3    H1 7338   3.991   5.561   3.426 -1.6823 -0.7024 -0.9807
 2444TIP3    H2 7339   3.958   5.623   3.560  2.0337 -0.6684  0.0362
 2445TIP3   OH2 7340   2.918   1.252   1.726  0.5714 -0.7950 -0.4888
 2445TIP3    H1 7341   2.955   1.191   1.662  1.0208 -1.6719  0.5753
 2445TIP3    H2 7342   2.825   1.230   1.729  1.0109 -2.7088  1.1788
 2446TIP3   OH2 7343   0.302   1.767   0.776 -0.2595  0.2228 -0.0711
 2446TIP3    H1 7344   0.270   1.811   0.697 -1.5661  0.8987  0.7944
 2446TIP3    H2 7345   0.233   1.781   0.841  0.1807 -1.4376  0.8187
 2447TIP3   OH2 7346   1.488   3.742   0.498 -0.4376 -0.7916 -0.2430
 2447TIP3    H1 7347   1.516   3.692   0.422 -1.3826 -0.9528 -0.5024
 2447TIP3    H2 7348   1.509   3.833   0.475 -0.8051 -0.8255 -0.7558
 2448TIP3   OH2 7349   4.747   2.667   1.255  0.0304 -0.3308  0.3237
 2448TIP3    H1 7350   4.777   2.758   1.245  2.3008 -1.1866 -1.7243
 2448TIP3    H2 7351   4.652   2.671   1.240  0.3867  1.4608 -1.9601
 2449TIP3   OH2 7352   2.332   0.003   5.046 -0.3518  0.2210  0.1566
 2449TIP3    H1 7353   2.240  -0.008   5.020 -1.0274  1.5768  1.7679
 2449TIP3    H2 7354   2.335   0.092   5.082  1.0375 -0.6640  2.3682
 2450TIP3   OH2 7355   3.796   4.643   3.066 -0.3112  0.9246  0.5089
 2450TIP3    H1 7356   3.802   4.645   2.970  1.7660  0.5645  0.5754
 2450TIP3    H2 7357   3.732   4.575   3.084 -1.2489  1.4656 -0.6186
 2451TIP3   OH2 7358   0.420   0.743   0.248 -1.0955  0.2820 -0.3382
 2451TIP3    H1 7359   0.436   0.784   0.163 -0.8008  1.9683  0.4767
 2451TIP3    H2 7360   0.496   0.688   0.263 -0.3718  1.2194 -0.4764
 2452TIP3   OH2 7361   2.309   4.675   4.853  0.4945 -0.3737  0.0940
 2452TIP3    H1 7362   2.392   4.720   4.870 -0.8620  1.6608  1.8453
 2452TIP3    H2 7363   2.289   4.697   4.762  2.3628 -1.8419 -0.7394
 2453TIP3   OH2 7364   3.963   0.843   1.328  0.2158  0.0243 -0.1182
 2453TIP3    H1 7365   3.886   0.897   1.316  0.5639  0.1786 -1.8441
 2453TIP3    H2 7366   4.020   0.864   1.254  2.4911  0.8274  1.7156
 2454TIP3   OH2 7367   1.759   2.576   3.894  0.4715  0.0274  0.0886
 2454TIP3    H1 7368   1.759   2.482   3.878 -1.5303 -0.3164  1.6493
 2454TIP3    H2 7369   1.669   2.604   3.874  1.4081  1.9467 -1.8347
 2455TIP3   OH2 7370   1.721   4.895   3.151 -0.6981  0.4875  0.3413
 2455TIP3    H1 7371   1.763   4.936   3.075 -0.0901 -0.5699  0.0911
 2455TIP3    H2 7372   1.678   4.817   3.116  0.4683 -0.5842  1.2446
 2456TIP3   OH2 7373   4.162   2.531   1.196 -0.0342 -0.1407 -0.1090
 2456TIP3    H1 7374   4.218   2.564   1.125 -0.7224  0.3922 -0.4136
 2456TIP3    H2 7375   4.127   2.610   1.237 -0.2659 -0.4654  0.3149
 2457TIP3   OH2 7376   3.802   4.063   3.166 -0.4657 -0.0485 -0.1878
 2457TIP3    H1 7377   3.892   4.048   3.134 -0.2939  0.6605 -0.0561
 2457TIP3    H2 7378   3.760   3.977   3.160  0.1730 -0.3546 -0.4104
 2458TIP3   OH2 7379   6.297   0.471   3.735  0.0909 -0.2546  0.1441
 2458TIP3    H1 7380   6.282   0.564   3.718 -2.0465 -0.3442  1.1178
 2458TIP3    H2 7381   6.258   0.457   3.822  0.9528 -1.9396  0.2919
 2459TIP3   OH2 7382   5.091   0.930   3.054 -0.6555 -0.3709  0.2121
 2459TIP3    H1 7383   5.136   0.857   3.097 -0.6004  0.2404  1.2174
 2459TIP3    H2 7384   5.161   0.978   3.010 -0.8601 -1.6889 -1.6604
 2460TIP3   OH2 7385   2.254   4.368   4.781 -0.2776  0.2399 -0.2319
 2460TIP3    H1 7386   2.334   4.418   4.793 -0.5451  0.1093  3.3123
 2460TIP3    H2 7387   2.192   4.429   4.740  0.5943  1.4917  0.2627
 2461TIP3   OH2 7388   1.485   3.265   2.583  0.7865  0.1842 -0.0935
 2461TIP3    H1 7389   1.409   3.320   2.565  2.3707  3.4016  2.0737
 2461TIP3    H2 7390   1.540   3.273   2.505  0.1684  0.1274 -0.5394
 2462TIP3   OH2 7391   4.939   0.084   1.481  0.7460 -0.1139  0.1941
 2462TIP3    H1 7392   4.932   0.121   1.569  1.0526 -0.6118  0.4343
 2462TIP3    H2 7393   4.920   0.157   1.422 -0.3085  0.0272  0.6824
 2463TIP3   OH2 7394   3.324   0.652   3.747 -0.0400  0.3463 -0.0242
 2463TIP3    H1 7395   3.400   0.624   3.696 -0.8733 -3.4036  0.5387
 2463TIP3    H2 7396   3.355   0.655   3.838  0.1528  1.9777 -0.1077
 2464TIP3   OH2 7397   1.195   0.268   0.369  0.4316  0.2051  0.4117
 2464TIP3    H1 7398   1.282   0.229   0.362 -0.1642 -1.4384  1.6683
 2464TIP3    H2 7399   1.190   0.299   0.460 -0.4101  0.0188  0.4343
 2465TIP3   OH2 7400   3.434   4.467   2.595 -0.2427  1.0851 -0.4378
 2465TIP3    H1 7401   3.485   4.386   2.601 -2.4778 -0.6163 -2.3378
 2465TIP3    H2 7402   3.398   4.479   2.683  0.1252  0.0297 -0.1225
 2466TIP3   OH2 7403   2.792   5.586   0.007  0.0696  0.0417  0.2874
 2466TIP3    H1 7404   2.752   5.512   0.053 -0.7159  0.6224  0.5586
 2466TIP3    H2 7405   2.811   5.649   0.076  1.2175 -0.1119  0.1224
 2467TIP3   OH2 7406   3.521   3.825   0.432 -0.4834 -0.0686 -0.2638
 2467TIP3    H1 7407   3.563   3.782   0.506  1.4847  0.6121 -0.9110
 2467TIP3    H2 7408   3.462   3.759   0.396  1.0658 -1.6156 -0.1120
 2468TIP3   OH2 7409   5.111   4.706   1.430 -0.3481  0.8868 -0.1032
 2468TIP3    H1 7410   5.184   4.663   1.386 -2.2469 -1.2713 -1.3981
 2468TIP3    H2 7411   5.125   4.689   1.523 -0.4315 -1.7338 -0.4954
 2469TIP3   OH2 7412   0.610   5.781   2.370 -0.3156  0.0666  0.7939
 2469TIP3    H1 7413   0.545   5.724   2.410 -0.9050  0.3849  0.3089
 2469TIP3    H2 7414   0.562   5.860   2.346  0.1487  0.1185 -0.0026
 2470TIP3   OH2 7415   6.299   0.307   2.024  0.0437 -0.2145  0.0205
 2470TIP3    H1 7416   6.386   0.326   2.059 -0.1755  1.8060 -0.3796
 2470TIP3    H2 7417   6.240   0.320   2.099 -0.0777  0.3734 -0.1703
 2471TIP3   OH2 7418   0.820   0.991   5.064  0.5016 -0.5711 -0.5218
 2471TIP3    H1 7419   0.832   0.953   5.151  0.0249  0.7422  0.1366
 2471TIP3    H2 7420   0.733   0.963   5.037  1.0730 -1.9047 -1.0808
 2472TIP3   OH2 7421   5.595   5.191   4.757 -0.1316  0.3315 -0.2834
 2472TIP3    H1 7422   5.651   5.268   4.750  0.3211  0.1836  1.3010
 2472TIP3    H2 7423   5.611   5.142   4.676  4.8531 -1.5439  1.4257
 2473TIP3   OH2 7424   2.597   0.418   3.279  0.6615 -0.4555  0.1680
 2473TIP3    H1 7425   2.650   0.493   3.306  1.6333 -0.7909 -0.7711
 2473TIP3    H2 7426   2.620   0.404   3.187 -2.0584  0.2378 -0.7226
 2474TIP3   OH2 7427   6.039   0.875   3.755 -0.0430 -0.2380  0.2789
 2474TIP3    H1 7428   5.974   0.817   3.796 -1.2389  1.9609  1.7126
 2474TIP3    H2 7429   6.123   0.831   3.769 -1.0950 -3.0538 -1.4083
 2475TIP3   OH2 7430   3.085   5.855   0.092  0.1779  0.2405  0.3143
 2475TIP3    H1 7431   3.051   5.929   0.041  0.0125 -0.4202 -0.5720
 2475TIP3    H2 7432   3.163   5.889   0.135  0.2580  0.8570 -0.2968
 2476TIP3   OH2 7433   4.820   3.998   3.194  0.5756 -0.3681  0.1579
 2476TIP3    H1 7434   4.872   4.057   3.249  1.7794 -1.0770 -0.1822
 2476TIP3    H2 7435   4.884   3.936   3.159 -0.2584 -0.3494 -1.4942
 2477TIP3   OH2 7436   5.407   4.092   1.662  0.2432  0.4258 -0.2300
 2477TIP3    H1 7437   5.355   4.013   1.650 -2.3205  1.3412  3.2351
 2477TIP3    H2 7438   5.349   4.163   1.635  1.4589  1.3072 -0.6084
 2478TIP3   OH2 7439   1.633   0.846   0.899 -0.5672  0.3492 -0.2171
 2478TIP3    H1 7440   1.667   0.759   0.922  1.8478  1.2164 -0.1774
 2478TIP3    H2 7441   1.576   0.870   0.972 -1.6709 -1.3548 -0.4562
 2479TIP3   OH2 7442   2.177   5.558   2.890  0.2175  0.3498  0.1320
 2479TIP3    H1 7443   2.196   5.589   2.801 -0.3015  0.1045 -0.0684
 2479TIP3    H2 7444   2.083   5.543   2.890  0.2307  0.2715  0.7033
 2480TIP3   OH2 7445   5.468   2.988   2.765 -0.4062 -0.1546 -0.4529
 2480TIP3    H1 7446   5.436   3.070   2.727  1.2687  1.1293  0.7366
 2480TIP3    H2 7447   5.552   2.973   2.721 -0.3142 -0.7703 -0.0743
 2481TIP3   OH2 7448   4.068   2.255   3.549 -0.0473  0.2913 -0.2233
 2481TIP3    H1 7449   4.075   2.340   3.593  1.3128  0.0156  0.1411
 2481TIP3    H2 7450   4.043   2.194   3.619 -0.5839  0.3162 -0.3929
 2482TIP3   OH2 7451   3.189   5.957   4.407 -0.4888 -0.7946  0.3493
 2482TIP3    H1 7452   3.178   5.876   4.458  1.0289 -0.9629  0.4546
 2482TIP3    H2 7453   3.220   6.021   4.472 -1.4562 -0.1838  0.2178
 2483TIP3   OH2 7454   5.370   0.854   4.944  0.1768  0.2267 -0.0674
 2483TIP3    H1 7455   5.379   0.893   5.031  0.2636  1.0715 -0.4464
 2483TIP3    H2 7456   5.301   0.906   4.902  1.0810  0.7273 -0.9862
 2484TIP3   OH2 7457   1.636   2.927   2.630 -0.3678 -0.0866  0.0753
 2484TIP3    H1 7458   1.603   2.921   2.540 -0.8039  2.2917  0.0155
 2484TIP3    H2 7459   1.568   2.887   2.684 -0.3333 -1.0697 -0.5838
 2485TIP3   OH2 7460   0.542   4.092   3.811 -0.1110 -0.0684  0.0254
 2485TIP3    H1 7461   0.573   4.055   3.893 -0.0712 -0.3467 -0.1165
 2485TIP3    H2 7462   0.509   4.017   3.761 -0.9523  0.2025  0.1481
 2486TIP3   OH2 7463   4.135   3.407   2.006  0.6840 -0.4038  0.2618
 2486TIP3    H1 7464   4.101   3.319   2.020  1.0797 -0.3876  1.4710
 2486TIP3    H2 7465   4.207   3.396   1.945 -0.3341 -0.6783 -0.9248
 2487TIP3   OH2 7466   3.445   1.717   2.272  0.1095  0.2215 -0.1423
 2487TIP3    H1 7467   3.484   1.631   2.258  1.2429  0.3523  1.7853
 2487TIP3    H2 7468   3.363   1.715   2.224 -1.0301 -2.7773  1.6989
 2488TIP3   OH2 7469   2.930   5.225   0.662  0.3334 -0.1209 -0.2960
 2488TIP3    H1 7470   2.921   5.278   0.742  1.2654  0.5884 -0.6397
 2488TIP3    H2 7471   2.968   5.143   0.692  1.6633  0.5284 -0.1142
 2489TIP3   OH2 7472   5.944   3.377   2.283  0.3013 -0.1815 -0.6523
 2489TIP3    H1 7473   5.901   3.455   2.318  0.8080 -1.2468  2.6947
 2489TIP3    H2 7474   5.910   3.370   2.194 -2.0302  2.1864 -0.1089
 2490TIP3   OH2 7475   6.158   0.853   0.330  0.1053  0.3168 -0.2406
 2490TIP3    H1 7476   6.094   0.900   0.383  0.6806 -0.8838  1.6164
 2490TIP3    H2 7477   6.222   0.919   0.305 -0.7899  1.1354 -0.4630
 2491TIP3   OH2 7478   5.806   4.287   1.888 -0.3844  0.5070  0.6250
 2491TIP3    H1 7479   5.828   4.269   1.980  1.0319  0.1713  0.2450
 2491TIP3    H2 7480   5.728   4.234   1.872 -1.1519  1.2025  1.8498
 2492TIP3   OH2 7481   1.868   5.910   5.081 -0.2906  0.3015 -0.3851
 2492TIP3    H1 7482   1.819   5.955   5.012  1.8141  1.9599 -0.9073
 2492TIP3    H2 7483   1.809   5.909   5.156 -1.5328  1.1592 -1.3027
 2493TIP3   OH2 7484   3.845   2.541   3.555  0.2190  0.4091  0.0027
 2493TIP3    H1 7485   3.783   2.512   3.489 -0.9210 -0.2408  1.3087
 2493TIP3    H2 7486   3.916   2.581   3.505  0.0990 -1.3461 -1.6812
 2494TIP3   OH2 7487   5.745   4.343   0.107 -0.0048  0.0551  0.3162
 2494TIP3    H1 7488   5.673   4.326   0.168  1.4098  0.2122  2.0963
 2494TIP3    H2 7489   5.755   4.261   0.059 -1.5125  0.1096 -0.1435
 2495TIP3   OH2 7490   5.484   3.639   1.962 -0.1655 -0.1004  0.0488
 2495TIP3    H1 7491   5.426   3.646   1.886 -0.1436  0.8201  0.0952
 2495TIP3    H2 7492   5.554   3.702   1.944 -1.5748  2.2449  2.0072
 2496TIP3   OH2 7493   0.942   5.471   3.567 -0.0541  0.1820 -0.4429
 2496TIP3    H1 7494   1.032   5.457   3.538  0.2786 -0.2898  0.7529
 2496TIP3    H2 7495   0.937   5.430   3.653 -1.9870 -1.6369 -1.3237
 2497TIP3   OH2 7496   1.117   5.215   1.142  0.1256 -0.4559 -0.3159
 2497TIP3    H1 7497   1.191   5.191   1.199  0.7589 -0.8976 -1.3076
 2497TIP3    H2 7498   1.064   5.135   1.137  1.3138 -1.1895 -2.2062
 2498TIP3   OH2 7499   0.406   1.677   3.495  0.2009  0.1265  0.3051
 2498TIP3    H1 7500   0.478   1.693   3.434  0.5568  1.4248  1.0318
 2498TIP3    H2 7501   0.438   1.709   3.579 -0.7223 -0.5479  0.9351
 2499TIP3   OH2 7502   4.737   4.619   3.858 -0.9555  0.1282  0.0008
 2499TIP3    H1 7503   4.801   4.642   3.926  0.4128 -2.7464 -0.1784
 2499TIP3    H2 7504   4.715   4.528   3.875  0.1411 -1.0616 -3.8290
 2500TIP3   OH2 7505   3.197   1.096   4.012  0.0859  0.2833 -0.3305
 2500TIP3    H1 7506   3.289   1.120   4.003 -0.1927  2.0068  0.8600
 2500TIP3    H2 7507   3.158   1.121   3.928  0.7196 -0.6488 -0.9174
 2501TIP3   OH2 7508   0.458   5.195   3.475 -0.1275 -0.9143  0.3055
 2501TIP3    H1 7509   0.524   5.171   3.540 -0.9547 -0.9427  1.1657
 2501TIP3    H2 7510   0.378   5.152   3.506 -1.0873  0.9332  0.5330
 2502TIP3   OH2 7511   2.610   4.971   2.843 -0.0793  0.5573  0.8070
 2502TIP3    H1 7512   2.543   5.017   2.894  0.8935  1.3606  1.3953
 2502TIP3    H2 7513   2.670   5.040   2.815 -0.0449 -0.0170 -0.5761
 2503TIP3   OH2 7514   1.128   1.280   4.935 -0.3413  0.0038  0.5692
 2503TIP3    H1 7515   1.174   1.348   4.886  1.1406 -0.7477  0.8594
 2503TIP3    H2 7516   1.190   1.253   5.002 -0.6698 -2.0073  0.1266
 2504TIP3   OH2 7517   3.998   3.529   3.049 -0.0725  0.3252 -0.1428
 2504TIP3    H1 7518   3.916   3.513   3.002 -0.5016  2.1331 -0.0869
 2504TIP3    H2 7519   4.027   3.442   3.076 -0.9410 -0.5621 -1.8606
 2505TIP3   OH2 7520   1.925   3.258   4.753 -0.0478 -0.2024 -0.8965
 2505TIP3    H1 7521   2.008   3.292   4.721 -0.2993  0.2120 -1.1083
 2505TIP3    H2 7522   1.950   3.185   4.811  0.4194 -1.0222 -2.0826
 2506TIP3   OH2 7523   5.138   1.037   0.298  0.0669  0.0769  0.2915
 2506TIP3    H1 7524   5.139   1.061   0.205 -1.8622  1.4720  0.5526
 2506TIP3    H2 7525   5.226   1.006   0.316  0.1414 -1.5455 -2.3178
 2507TIP3   OH2 7526   4.269   3.294   5.005 -0.5124  0.1249  0.1830
 2507TIP3    H1 7527   4.194   3.338   4.965 -1.7507 -0.4297  1.8006
 2507TIP3    H2 7528   4.231   3.227   5.061  1.2071 -0.2524  0.9702
 2508TIP3   OH2 7529   5.891   3.934   0.516 -0.0055 -0.0726  0.3178
 2508TIP3    H1 7530   5.820   3.950   0.579  0.6159  1.6072  0.6218
 2508TIP3    H2 7531   5.952   3.878   0.563 -1.8241 -2.9838 -0.4897
 2509TIP3   OH2 7532   2.603   5.271   2.333  0.4277 -0.5465  0.1208
 2509TIP3    H1 7533   2.598   5.336   2.403 -1.1172 -0.6776  0.1800
 2509TIP3    H2 7534   2.621   5.321   2.254  0.9216 -0.2467  0.4191
 2510TIP3   OH2 7535   4.022   2.308   5.083 -0.8958  0.1441 -0.1105
 2510TIP3    H1 7536   3.945   2.253   5.073 -1.5249  1.0302 -0.2386
 2510TIP3    H2 7537   4.069   2.299   5.000 -1.0659 -0.0738 -0.1838
 2511TIP3   OH2 7538   5.596   5.779   2.613  0.0626  0.2604  0.0180
 2511TIP3    H1 7539   5.619   5.693   2.647 -1.7500 -0.0850  0.4920
 2511TIP3    H2 7540   5.546   5.820   2.683 -1.0937  0.7699 -1.0629
 2512TIP3   OH2 7541   0.283   1.596   0.410  0.1898 -0.0253  0.1799
 2512TIP3    H1 7542   0.316   1.566   0.326  0.0112 -0.7119  0.3537
 2512TIP3    H2 7543   0.193   1.624   0.392  0.5786  1.1078 -0.1282
 2513TIP3   OH2 7544   3.618   0.075   2.458 -0.3698  0.3330  0.4349
 2513TIP3    H1 7545   3.558   0.069   2.384 -0.5665 -1.6272  0.6765
 2513TIP3    H2 7546   3.665  -0.009   2.457  0.6494  0.8469  1.6827
 2514TIP3   OH2 7547   4.380   0.608   2.859 -0.0313 -0.1952 -0.4819
 2514TIP3    H1 7548   4.461   0.617   2.807 -0.2735  0.3694 -0.7748
 2514TIP3    H2 7549   4.312   0.645   2.803 -0.4638 -0.5084 -0.1613
 2515TIP3   OH2 7550   0.277   1.851   0.513 -0.1679  0.4983 -0.6041
 2515TIP3    H1 7551   0.274   1.756   0.502  2.6332  0.4350 -1.5207
 2515TIP3    H2 7552   0.276   1.886   0.424 -1.6799  1.4187 -0.2740
 2516TIP3   OH2 7553   0.751   2.213   4.760  0.3940 -0.7802 -0.0416
 2516TIP3    H1 7554   0.724   2.301   4.737  0.6870 -0.5730  0.3885
 2516TIP3    H2 7555   0.671   2.160   4.752 -0.2927 -0.0832  1.6844
 2517TIP3   OH2 7556   5.144   1.392   2.344 -0.0786 -0.2240 -0.7289
 2517TIP3    H1 7557   5.228   1.352   2.319 -0.4242 -1.0244 -0.6132
 2517TIP3    H2 7558   5.082   1.359   2.280 -0.3052  0.4286 -0.8573
 2518TIP3   OH2 7559   5.597   1.543   1.957  0.1753  0.3971 -0.2588
 2518TIP3    H1 7560   5.596   1.509   2.046 -0.6367  0.3283 -0.2910
 2518TIP3    H2 7561   5.661   1.615   1.960  1.9145 -1.0777 -0.1968
 2519TIP3   OH2 7562   1.056   1.037   0.907 -0.9849  0.6259 -0.1204
 2519TIP3    H1 7563   1.056   1.118   0.855 -2.5035 -0.3387 -1.7614
 2519TIP3    H2 7564   0.994   1.055   0.977 -0.1504  1.3903  0.4438
 2520TIP3   OH2 7565   0.021   2.605   0.313  0.5461 -0.1030  0.3597
 2520TIP3    H1 7566   0.090   2.623   0.249  1.1867  0.0625  1.0837
 2520TIP3    H2 7567   0.064   2.553   0.381 -0.2660 -0.7800  0.3795
 2521TIP3   OH2 7568   0.922   0.135   3.739 -0.0153  0.4530  0.1811
 2521TIP3    H1 7569   0.954   0.207   3.793 -2.3001  1.1165  0.7798
 2521TIP3    H2 7570   0.835   0.115   3.774 -0.0537 -1.6351 -0.9079
 2522TIP3   OH2 7571   4.778   1.938   4.340  0.0868 -0.0342  0.0576
 2522TIP3    H1 7572   4.835   1.874   4.299 -0.5869 -0.5599 -0.0723
 2522TIP3    H2 7573   4.701   1.888   4.368  0.1417  0.4717  1.1635
 2523TIP3   OH2 7574   2.812   1.230   5.015 -0.0841  0.0826  0.5002
 2523TIP3    H1 7575   2.855   1.165   4.959 -0.0501  0.5555 -0.0250
 2523TIP3    H2 7576   2.843   1.209   5.104  2.2544  1.1842  0.0255
 2524TIP3   OH2 7577   1.083   5.354   1.710 -0.3524  0.0009 -0.1841
 2524TIP3    H1 7578   1.100   5.445   1.685  0.4150 -0.0619  0.0832
 2524TIP3    H2 7579   0.988   5.349   1.719 -0.7437 -0.0162 -3.2751
 2525TIP3   OH2 7580   3.168   2.653   2.805 -0.5354 -0.0191 -0.5388
 2525TIP3    H1 7581   3.098   2.587   2.815 -2.4902  1.8439 -1.1247
 2525TIP3    H2 7582   3.230   2.632   2.875 -2.0109 -1.3660  0.4566
 2526TIP3   OH2 7583   5.216   1.858   0.770  0.1039  0.2542 -0.1663
 2526TIP3    H1 7584   5.226   1.919   0.697 -0.4537  0.4591 -0.0764
 2526TIP3    H2 7585   5.299   1.810   0.773  0.7479  1.3471  0.0725
 2527TIP3   OH2 7586   4.919   0.682   2.797  0.4513  0.3948  0.0013
 2527TIP3    H1 7587   4.983   0.671   2.727 -0.0434 -0.7136 -0.3059
 2527TIP3    H2 7588   4.835   0.657   2.757  0.3347 -1.5181  1.2797
 2528TIP3   OH2 7589   1.106   3.781   0.858  0.0250 -0.6248  0.1559
 2528TIP3    H1 7590   1.055   3.826   0.792  0.7128  2.2555  1.4489
 2528TIP3    H2 7591   1.185   3.752   0.813  0.6171  1.5426 -0.2747
 2529TIP3   OH2 7592   2.908   5.039   0.160 -0.3468 -0.1477 -0.1070
 2529TIP3    H1 7593   2.840   5.067   0.222 -1.5907 -0.0875 -1.4615
 2529TIP3    H2 7594   2.866   4.972   0.107  0.5466  0.1372 -1.1986
 2530TIP3   OH2 7595   4.233   1.471   0.522  0.3381  0.1440  0.4111
 2530TIP3    H1 7596   4.294   1.543   0.534  1.7806 -0.6612 -1.5201
 2530TIP3    H2 7597   4.180   1.495   0.446 -0.7511  0.1546  1.1468
 2531TIP3   OH2 7598   5.881   2.311   2.844  0.0717  0.4537 -0.1915
 2531TIP3    H1 7599   5.948   2.320   2.777  1.5743 -0.7071  1.1012
 2531TIP3    H2 7600   5.928   2.320   2.927 -1.7030  1.6587  0.7461
 2532TIP3   OH2 7601   0.153   2.973   1.617 -0.6386  0.2448 -0.0738
 2532TIP3    H1 7602   0.232   3.020   1.589 -0.8765 -0.3245 -1.8365
 2532TIP3    H2 7603   0.177   2.881   1.613 -0.5843  0.1190  2.0913
 2533TIP3   OH2 7604   2.906   3.988   2.461 -0.2654 -0.2009  0.1311
 2533TIP3    H1 7605   2.865   3.907   2.494  0.7635 -0.4619  0.7969
 2533TIP3    H2 7606   2.966   4.014   2.531 -1.5086  1.8679  0.4983
 2534TIP3   OH2 7607   4.757   5.356   1.673 -0.0656 -0.2168  0.5899
 2534TIP3    H1 7608   4.798   5.435   1.639  0.6228 -1.3546 -1.3850
 2534TIP3    H2 7609   4.730   5.379   1.762  1.0905  1.8712  0.4524
 2535TIP3   OH2 7610   3.057   3.860   2.225 -0.4167 -0.1726  0.2879
 2535TIP3    H1 7611   3.127   3.914   2.186 -2.1596  1.1538 -1.1805
 2535TIP3    H2 7612   3.037   3.795   2.159 -0.8800 -0.2604  0.5104
 2536TIP3   OH2 7613   3.020   3.925   3.325 -0.4922 -0.2555 -0.7724
 2536TIP3    H1 7614   3.016   3.918   3.420  0.3313  0.5688 -0.6630
 2536TIP3    H2 7615   2.930   3.937   3.297 -0.9254 -1.9617 -0.2405
 2537TIP3   OH2 7616   5.572   2.277   3.490 -0.0683  0.4162  0.2663
 2537TIP3    H1 7617   5.652   2.310   3.450 -0.0577 -0.0496 -0.1016
 2537TIP3    H2 7618   5.503   2.294   3.426 -0.5176  1.9951  1.0981
 2538TIP3   OH2 7619   3.715   5.013   1.586  0.6579  0.1721  0.6066
 2538TIP3    H1 7620   3.662   4.933   1.582  0.8059  0.0305  1.2364
 2538TIP3    H2 7621   3.803   4.981   1.608  1.3126  0.2849 -1.6160
 2539TIP3   OH2 7622   0.533   0.210   1.737  0.1403  0.0437  0.4201
 2539TIP3    H1 7623   0.592   0.202   1.662 -0.3899  0.5716 -0.0659
 2539TIP3    H2 7624   0.552   0.134   1.792  1.3556  0.2760  0.3351
 2540TIP3   OH2 7625   1.988   0.133   3.084  0.1122 -0.5472 -0.1217
 2540TIP3    H1 7626   2.009   0.048   3.123  1.9751 -0.3569 -0.6372
 2540TIP3    H2 7627   2.069   0.183   3.090 -0.4347  0.5671 -1.5017
 2541TIP3   OH2 7628   0.788   3.763   1.210 -0.5007 -0.2496  0.1047
 2541TIP3    H1 7629   0.837   3.727   1.136 -0.3755  0.6249 -0.2446
 2541TIP3    H2 7630   0.793   3.858   1.199 -2.1529 -0.1265  0.1363
 2542TIP3   OH2 7631   1.464   0.960   0.544  0.2181  0.0470  0.0239
 2542TIP3    H1 7632   1.537   0.901   0.560  0.2310  0.3433  1.1559
 2542TIP3    H2 7633   1.412   0.956   0.625  0.0836  1.3774  0.0300
 2543TIP3   OH2 7634   5.000   1.456   4.710 -0.0231 -0.1210 -0.3741
 2543TIP3    H1 7635   4.928   1.520   4.709  0.1180  0.0349 -1.0837
 2543TIP3    H2 7636   5.057   1.486   4.780 -1.3707 -1.0653  1.1961
 2544TIP3   OH2 7637   3.039   0.109   3.335 -0.3994 -0.1955  0.0783
 2544TIP3    H1 7638   2.983   0.094   3.259 -0.5400 -0.4153  0.2264
 2544TIP3    H2 7639   3.009   0.194   3.369  1.0421  0.9549 -1.3267
 2545TIP3   OH2 7640   4.007   4.246   3.921 -0.2139  0.0387  0.2771
 2545TIP3    H1 7641   3.951   4.213   3.851  0.1248  0.7726 -0.3459
 2545TIP3    H2 7642   4.042   4.328   3.887  2.3612 -1.0724  0.0556
 2546TIP3   OH2 7643   3.849   1.838   0.600  0.0007 -0.1737  0.4547
 2546TIP3    H1 7644   3.837   1.811   0.510 -0.3099 -2.7462  1.1875
 2546TIP3    H2 7645   3.926   1.790   0.630 -0.1415  0.3040  1.6654
 2547TIP3   OH2 7646   2.669   3.657   3.175  0.1281  0.4609 -0.1377
 2547TIP3    H1 7647   2.589   3.668   3.124  0.0531  2.3502  0.3113
 2547TIP3    H2 7648   2.704   3.745   3.184  0.6864  0.0711  2.2052
 2548TIP3   OH2 7649   5.527   2.212   1.311  0.1426 -0.1609 -0.5947
 2548TIP3    H1 7650   5.601   2.158   1.283 -0.0705  0.0934 -1.6954
 2548TIP3    H2 7651   5.567   2.289   1.352  0.4930  0.0174 -1.2682
 2549TIP3   OH2 7652   2.579   0.129   1.859 -0.4991 -0.2171 -0.4419
 2549TIP3    H1 7653   2.632   0.179   1.798 -1.7475  0.7550 -0.7787
 2549TIP3    H2 7654   2.510   0.090   1.805 -0.1842 -1.4164 -0.0122
 2550TIP3   OH2 7655   4.358   2.084   3.648  1.1307  0.6193 -0.1321
 2550TIP3    H1 7656   4.326   2.098   3.559 -2.4359  2.6948  1.2698
 2550TIP3    H2 7657   4.421   2.154   3.662 -0.4631  2.1310 -0.1792
 2551TIP3   OH2 7658   0.811   4.326   2.741  0.3270 -0.0594  0.1354
 2551TIP3    H1 7659   0.798   4.376   2.660  2.8595  0.9726  0.2673
 2551TIP3    H2 7660   0.752   4.367   2.804 -1.5035 -0.7240 -1.0971
 2552TIP3   OH2 7661   4.676   1.527   4.976  0.2830 -0.1653 -0.3818
 2552TIP3    H1 7662   4.711   1.600   5.026  0.4079 -0.4285 -0.0802
 2552TIP3    H2 7663   4.605   1.565   4.925 -0.7616 -0.1490  1.0167
 2553TIP3   OH2 7664   2.767   0.590   2.218 -0.3410  0.7253  0.2426
 2553TIP3    H1 7665   2.707   0.542   2.160  1.4339  0.8221 -1.7980
 2553TIP3    H2 7666   2.846   0.602   2.166  0.3894  3.2334  1.7633
 2554TIP3   OH2 7667   0.355   5.700   4.590 -0.1688 -0.0708 -0.6295
 2554TIP3    H1 7668   0.289   5.676   4.655 -1.1772  2.4212 -0.6245
 2554TIP3    H2 7669   0.428   5.733   4.642 -1.1061  2.2414 -0.6535
 2555TIP3   OH2 7670   4.087   4.551   2.557  0.0973 -0.5565  0.2546
 2555TIP3    H1 7671   4.126   4.522   2.474  3.6937 -0.9914  1.9299
 2555TIP3    H2 7672   4.093   4.647   2.554 -1.6016 -0.4343 -0.7016
 2556TIP3   OH2 7673   1.044   3.021   2.755  0.5069  0.0668  0.1072
 2556TIP3    H1 7674   0.966   2.980   2.716  0.5658 -0.8565  0.9067
 2556TIP3    H2 7675   1.082   2.951   2.809  1.9919  0.4547 -0.4156
 2557TIP3   OH2 7676   2.616   2.497   3.754 -0.3198  0.6734  0.2292
 2557TIP3    H1 7677   2.632   2.484   3.848  2.5679 -0.4906 -0.3170
 2557TIP3    H2 7678   2.657   2.581   3.734 -2.2250  1.6478  0.2187
 2558TIP3   OH2 7679   3.874   3.868   4.192  0.2238 -0.5224  0.6197
 2558TIP3    H1 7680   3.964   3.882   4.164  0.0683 -2.2931 -0.9775
 2558TIP3    H2 7681   3.875   3.781   4.233 -0.8179 -0.7394  0.2119
 2559TIP3   OH2 7682   5.262   1.868   1.874 -0.2212 -0.0787 -0.4594
 2559TIP3    H1 7683   5.204   1.933   1.914  1.5444  1.3304 -0.0964
 2559TIP3    H2 7684   5.243   1.787   1.923 -1.7864  0.3550 -0.2935
 2560TIP3   OH2 7685   5.265   4.573   2.366  0.0147 -0.0079  0.4145
 2560TIP3    H1 7686   5.182   4.613   2.340 -0.3071 -1.2009 -0.4914
 2560TIP3    H2 7687   5.242   4.510   2.434  0.1700 -0.3521  0.1523
 2561TIP3   OH2 7688   4.069   1.831   4.456  0.1381  0.0381 -0.3664
 2561TIP3    H1 7689   4.069   1.768   4.384  1.0901 -0.2351 -0.1388
 2561TIP3    H2 7690   4.112   1.786   4.528 -1.0782  0.1964  0.4908
 2562TIP3   OH2 7691   1.836   1.373   1.677  0.1937  0.2141  0.0979
 2562TIP3    H1 7692   1.860   1.318   1.602  1.2221  0.7055  0.0432
 2562TIP3    H2 7693   1.848   1.316   1.753  0.7323  0.1966  0.0028
 2563TIP3   OH2 7694   3.944   1.095   4.831  0.4469 -0.2036  0.1148
 2563TIP3    H1 7695   3.894   1.138   4.761 -1.4969  1.0767  2.1678
 2563TIP3    H2 7696   3.908   1.006   4.834  1.6866 -0.8134 -1.5048
 2564TIP3   OH2 7697   6.030   5.136   1.372 -0.2913 -0.1647 -0.0488
 2564TIP3    H1 7698   5.940   5.165   1.383  0.7058  3.1605  0.5209
 2564TIP3    H2 7699   6.039   5.118   1.279 -1.3975  0.0856 -0.2116
 2565TIP3   OH2 7700   2.460   0.310   1.218 -0.4373 -0.1506  0.4924
 2565TIP3    H1 7701   2.457   0.373   1.290 -0.9913  0.4851 -0.0773
 2565TIP3    H2 7702   2.545   0.325   1.177  0.3108 -1.1999  1.6019
 2566TIP3   OH2 7703   6.194   4.037   4.834  0.0105 -0.1329  0.3822
 2566TIP3    H1 7704   6.234   4.107   4.886  0.2958  0.4400 -0.5754
 2566TIP3    H2 7705   6.220   4.056   4.744  0.7083 -1.8943  0.1703
 2567TIP3   OH2 7706   3.376   2.907   0.431 -0.3435  0.2540  0.7687
 2567TIP3    H1 7707   3.328   2.838   0.385  1.2872 -0.1086 -0.4641
 2567TIP3    H2 7708   3.308   2.970   0.455 -1.3976  0.1112 -1.5429
 2568TIP3   OH2 7709   2.531   4.148   0.067 -0.1672 -0.3154 -0.5192
 2568TIP3    H1 7710   2.593   4.207   0.025 -0.8362  0.2322 -0.7455
 2568TIP3    H2 7711   2.586   4.078   0.103  1.0416  1.8153  2.2486
 2569TIP3   OH2 7712   5.419   4.572   0.149 -0.4154 -0.6130  0.0140
 2569TIP3    H1 7713   5.513   4.553   0.159 -0.1743  0.5479  0.0562
 2569TIP3    H2 7714   5.413   4.631   0.074 -1.1534 -0.9476 -0.2011
 2570TIP3   OH2 7715   2.184   0.046   3.550  0.5346 -0.6654 -0.0105
 2570TIP3    H1 7716   2.277   0.062   3.561  0.3489  0.1288  0.5312
 2570TIP3    H2 7717   2.171  -0.043   3.583  1.0803 -0.7315  0.0343
 2571TIP3   OH2 7718   5.964   4.217   4.935  0.3833 -0.1451 -0.5745
 2571TIP3    H1 7719   6.023   4.147   4.963  1.6889  0.6081 -1.3412
 2571TIP3    H2 7720   6.002   4.250   4.853  0.1579  1.8648  0.0691
 2572TIP3   OH2 7721   0.303   5.781   3.935 -0.0644 -0.5154 -0.7037
 2572TIP3    H1 7722   0.328   5.703   3.983 -0.0906 -0.6636 -0.9283
 2572TIP3    H2 7723   0.353   5.776   3.853  0.3146 -0.0415 -0.5066
 2573TIP3   OH2 7724   3.200   3.896   4.889  0.0355 -0.3561  0.3357
 2573TIP3    H1 7725   3.203   3.990   4.873 -1.4960 -0.3983 -0.4125
 2573TIP3    H2 7726   3.279   3.861   4.847  0.6458  0.5856  0.6769
 2574TIP3   OH2 7727   4.686   3.714   2.410 -0.0393 -0.1935  0.9117
 2574TIP3    H1 7728   4.665   3.684   2.321 -0.8024 -1.2897  1.4456
 2574TIP3    H2 7729   4.613   3.771   2.435 -0.2780 -0.6162  1.1788
 2575TIP3   OH2 7730   1.792   5.062   2.758  0.1708  0.3750  0.2768
 2575TIP3    H1 7731   1.857   5.047   2.827  2.5538  4.4519 -0.7264
 2575TIP3    H2 7732   1.726   5.118   2.799 -0.1211  0.1694  0.0842
 2576TIP3   OH2 7733   4.965   0.147   2.840  0.4500  0.1089  0.0053
 2576TIP3    H1 7734   4.932   0.091   2.910  1.2374  0.4437  0.6633
 2576TIP3    H2 7735   5.045   0.103   2.809  0.6470  0.4657 -0.0023
 2577TIP3   OH2 7736   1.174   2.258   0.627  0.0275  0.4084 -0.1186
 2577TIP3    H1 7737   1.203   2.215   0.707 -0.9221  0.0878  0.0591
 2577TIP3    H2 7738   1.160   2.349   0.652  1.0049  0.6011 -0.2418
 2578TIP3   OH2 7739   3.670   4.189   0.145 -0.2248  0.4371  0.1114
 2578TIP3    H1 7740   3.642   4.155   0.229  1.4882  1.0164  0.9491
 2578TIP3    H2 7741   3.708   4.275   0.165 -0.0500  0.7207 -1.2974
 2579TIP3   OH2 7742   5.354   1.316   0.439  0.1608 -0.1580 -0.5401
 2579TIP3    H1 7743   5.274   1.316   0.386  1.2443  0.2055 -2.2348
 2579TIP3    H2 7744   5.411   1.380   0.397  1.9808 -1.5813 -0.3875
 2580TIP3   OH2 7745   0.703   4.008   1.871  0.4565  0.2832 -0.0375
 2580TIP3    H1 7746   0.794   4.012   1.900  0.3489 -1.4718  0.6686
 2580TIP3    H2 7747   0.654   3.981   1.949 -0.1956 -2.0057 -1.1577
 2581TIP3   OH2 7748   1.960   5.280   3.187  0.2358  0.5419  0.6604
 2581TIP3    H1 7749   1.919   5.278   3.100  2.1809  1.9837 -0.3808
 2581TIP3    H2 7750   1.949   5.191   3.220 -1.8401  0.3189 -0.3975
 2582TIP3   OH2 7751   3.228   4.158   4.861 -0.5802 -0.1287 -0.0326
 2582TIP3    H1 7752   3.162   4.223   4.886 -0.3201  0.6369 -1.2758
 2582TIP3    H2 7753   3.306   4.209   4.841 -0.1127 -0.8945 -0.2189
 2583TIP3   OH2 7754   6.313   3.508   3.039  1.0469  0.7060 -0.3874
 2583TIP3    H1 7755   6.399   3.471   3.016  0.7558  0.6172 -1.3932
 2583TIP3    H2 7756   6.294   3.473   3.126  1.2517 -0.6775 -0.8770
 2584TIP3   OH2 7757   1.925   3.158   2.089 -0.7485  0.2239  0.2622
 2584TIP3    H1 7758   1.969   3.235   2.052  0.1586 -0.1975  0.4488
 2584TIP3    H2 7759   1.977   3.134   2.165 -0.0135 -1.5838 -0.7379
 2585TIP3   OH2 7760   2.522   0.248   2.887 -0.6599  0.4591  0.0915
 2585TIP3    H1 7761   2.451   0.296   2.845 -0.2740  1.6537  0.7431
 2585TIP3    H2 7762   2.482   0.203   2.961 -0.7942  0.9665  0.3357
 2586TIP3   OH2 7763   1.318   5.447   4.672 -0.0728  0.2541  0.3507
 2586TIP3    H1 7764   1.306   5.357   4.702 -2.5427  0.3101 -0.2530
 2586TIP3    H2 7765   1.390   5.441   4.609  0.5296 -1.0913  1.1192
 2587TIP3   OH2 7766   5.435   4.304   2.663 -0.4407 -0.1488  0.2087
 2587TIP3    H1 7767   5.403   4.217   2.687 -1.0449 -0.0076 -0.0890
 2587TIP3    H2 7768   5.511   4.317   2.720  1.6766 -2.1960 -1.9194
 2588TIP3   OH2 7769   3.800   5.601   3.239  0.1048 -0.0982  0.0484
 2588TIP3    H1 7770   3.729   5.656   3.207  0.0351 -0.0312  0.3149
 2588TIP3    H2 7771   3.819   5.635   3.326 -0.3402 -0.8644  0.4561
 2589TIP3   OH2 7772   3.335   2.673   4.053 -0.1253 -0.3186  0.1441
 2589TIP3    H1 7773   3.251   2.712   4.027  0.2780  0.7075  0.3413
 2589TIP3    H2 7774   3.352   2.606   3.986 -0.1854  0.7571 -0.9885
 2590TIP3   OH2 7775   1.586   1.368   2.083 -0.5292 -0.0109  0.0913
 2590TIP3    H1 7776   1.618   1.450   2.046 -0.3367 -0.1719 -0.1077
 2590TIP3    H2 7777   1.524   1.335   2.017  1.3742 -1.3597 -1.1728
 2591TIP3   OH2 7778   4.018   3.079   0.637 -0.6038 -0.2113 -0.2222
 2591TIP3    H1 7779   3.985   3.164   0.668 -1.6088 -1.0574  1.1194
 2591TIP3    H2 7780   3.958   3.053   0.568 -0.0405  0.3497 -0.9395
 2592TIP3   OH2 7781   4.235   1.324   1.572  0.3743 -0.4718  0.0436
 2592TIP3    H1 7782   4.218   1.287   1.486 -0.7773 -1.1894  0.5573
 2592TIP3    H2 7783   4.168   1.391   1.583  1.8563  1.1843 -0.4846
 2593TIP3   OH2 7784   5.080   3.566   1.545  0.6184  0.1147  0.1330
 2593TIP3    H1 7785   5.060   3.630   1.614  0.2976 -0.2271  0.3588
 2593TIP3    H2 7786   5.103   3.619   1.469 -0.4249  0.5034  0.0825
 2594TIP3   OH2 7787   5.940   4.866   1.513 -0.2515  0.5454 -0.1159
 2594TIP3    H1 7788   5.987   4.927   1.457  0.0596 -0.2194 -0.6969
 2594TIP3    H2 7789   5.953   4.901   1.602  1.6370  0.2202 -0.2255
 2595TIP3   OH2 7790   3.882   1.595   2.247 -0.5062 -0.0934  0.2610
 2595TIP3    H1 7791   3.869   1.678   2.202 -1.3632 -0.0407  0.5948
 2595TIP3    H2 7792   3.977   1.590   2.261 -0.2773  0.1365 -1.0528
 2596TIP3   OH2 7793   3.867   4.116   3.690 -0.4458 -0.1735  0.4678
 2596TIP3    H1 7794   3.864   4.020   3.688  1.1302 -0.3098  1.8723
 2596TIP3    H2 7795   3.847   4.143   3.601  0.9667 -1.9132 -0.4444
 2597TIP3   OH2 7796   5.033   3.652   4.830  0.2078 -0.5222 -0.4675
 2597TIP3    H1 7797   4.994   3.594   4.895 -1.0098  1.0649  0.2578
 2597TIP3    H2 7798   5.111   3.687   4.873  0.1887 -0.5586 -0.4025
 2598TIP3   OH2 7799   1.768   1.430   1.069  0.4646  0.3321 -0.1205
 2598TIP3    H1 7800   1.725   1.380   1.000 -0.5410  1.5610 -0.4284
 2598TIP3    H2 7801   1.701   1.437   1.138  0.4685  1.4712 -0.2120
 2599TIP3   OH2 7802   1.892   4.420   4.199 -0.5275 -0.1959  0.0538
 2599TIP3    H1 7803   1.868   4.394   4.288  1.8608  1.4003  1.2652
 2599TIP3    H2 7804   1.944   4.347   4.166 -1.7187 -0.9495 -0.2273
 2600TIP3   OH2 7805   0.029   2.008   4.481  0.1812 -1.1865  0.1864
 2600TIP3    H1 7806  -0.029   1.962   4.420 -1.7486 -1.7347  2.2923
 2600TIP3    H2 7807   0.106   1.952   4.488  0.2704 -1.3037 -1.4118
 2601TIP3   OH2 7808   0.454   1.857   2.241  0.0883  0.2288  0.5142
 2601TIP3    H1 7809   0.488   1.797   2.307  1.0178  0.6416  0.4236
 2601TIP3    H2 7810   0.360   1.837   2.236  0.3494 -1.0976  0.5980
 2602TIP3   OH2 7811   3.291   2.632   0.896 -0.1501  0.4294  0.2509
 2602TIP3    H1 7812   3.329   2.676   0.972 -2.4962  1.9049  0.6688
 2602TIP3    H2 7813   3.289   2.699   0.828 -0.3260 -0.1462 -0.3159
 2603TIP3   OH2 7814   3.307   0.790   2.747  0.3405  0.3324  0.1184
 2603TIP3    H1 7815   3.353   0.761   2.668  0.9964 -1.2246  1.0185
 2603TIP3    H2 7816   3.355   0.748   2.819 -1.7633 -0.3723  1.1733
 2604TIP3   OH2 7817   0.429   3.322   3.923  0.2985  0.5142  0.3074
 2604TIP3    H1 7818   0.365   3.390   3.947 -0.4703 -0.3038  0.6156
 2604TIP3    H2 7819   0.394   3.242   3.962  1.1221 -0.0900 -0.1816
 2605TIP3   OH2 7820   3.803   2.438   0.331 -0.0846  0.0124 -0.3999
 2605TIP3    H1 7821   3.753   2.415   0.409  0.8909 -1.7193 -0.2428
 2605TIP3    H2 7822   3.788   2.532   0.320 -0.5015  0.2365  1.6751
 2606TIP3   OH2 7823   1.918   0.835   4.855  0.0470  0.3739  0.2946
 2606TIP3    H1 7824   1.905   0.930   4.853  0.1638  0.3763 -0.9675
 2606TIP3    H2 7825   1.829   0.800   4.863 -0.0680  0.5810 -0.0116
 2607TIP3   OH2 7826   0.556   5.757   0.260  0.2508 -0.1759 -0.2597
 2607TIP3    H1 7827   0.474   5.709   0.274 -1.1526  2.2612  0.4997
 2607TIP3    H2 7828   0.622   5.705   0.305 -1.0350 -1.7684 -0.1248
 2608TIP3   OH2 7829   1.512   3.078   5.179 -0.0354 -0.3783 -0.2126
 2608TIP3    H1 7830   1.574   3.056   5.109 -0.6639  0.4802 -1.0787
 2608TIP3    H2 7831   1.456   3.145   5.140 -1.9961 -1.6488  0.2737
 2609TIP3   OH2 7832   2.966   0.748   1.318  0.1565  0.6547 -0.5719
 2609TIP3    H1 7833   2.998   0.671   1.364  0.6453  0.2557 -1.5471
 2609TIP3    H2 7834   3.013   0.821   1.357  0.1423  0.3941 -0.0594
 2610TIP3   OH2 7835   5.542   2.156   4.791 -0.0320 -0.0981 -0.1143
 2610TIP3    H1 7836   5.542   2.062   4.776 -0.5545 -0.2824  0.9096
 2610TIP3    H2 7837   5.486   2.192   4.723  1.6804 -0.2738 -1.7168
 2611TIP3   OH2 7838   5.651   5.645   2.186 -0.1314 -0.2362 -0.3665
 2611TIP3    H1 7839   5.736   5.685   2.201  0.7599 -1.9001 -0.7551
 2611TIP3    H2 7840   5.637   5.651   2.092 -0.0256 -0.7612 -0.4180
 2612TIP3   OH2 7841   6.251   4.038   2.416  0.3272 -0.2823 -0.2756
 2612TIP3    H1 7842   6.228   3.958   2.463  0.1670 -0.3727 -0.5079
 2612TIP3    H2 7843   6.283   4.008   2.332  1.2168 -0.1557  0.0077
 2613TIP3   OH2 7844   5.210   4.160   4.035 -0.1829  0.1864 -0.8126
 2613TIP3    H1 7845   5.226   4.100   4.108 -1.7223 -0.0480 -0.6421
 2613TIP3    H2 7846   5.121   4.140   4.006 -1.6316  3.7470  0.5848
 2614TIP3   OH2 7847   6.227   3.217   0.797  0.0346 -0.2115 -0.3942
 2614TIP3    H1 7848   6.210   3.293   0.743 -0.9343 -0.4172 -0.3863
 2614TIP3    H2 7849   6.253   3.253   0.882 -0.5662  0.1031 -0.3469
 2615TIP3   OH2 7850   2.493   1.611   0.664  0.4658 -0.4347  0.5632
 2615TIP3    H1 7851   2.493   1.661   0.746 -0.5666 -1.5828  1.2898
 2615TIP3    H2 7852   2.439   1.663   0.604  0.4379 -0.0599  0.9105
 2616TIP3   OH2 7853   3.678   2.103   4.752  0.2165 -0.5490 -0.5189
 2616TIP3    H1 7854   3.601   2.113   4.808 -1.0155 -0.9434 -2.0441
 2616TIP3    H2 7855   3.686   2.009   4.739 -0.8921 -0.4254 -2.6822
 2617TIP3   OH2 7856   2.319   4.577   3.441  0.2488 -0.0603 -0.3574
 2617TIP3    H1 7857   2.295   4.645   3.503  0.0185 -0.7930  0.3816
 2617TIP3    H2 7858   2.414   4.586   3.431  0.0273  1.2815 -1.3919
 2618TIP3   OH2 7859   2.390   0.114   1.416 -0.1934  0.5700 -0.3570
 2618TIP3    H1 7860   2.464   0.059   1.440  0.6591  1.7227 -0.2908
 2618TIP3    H2 7861   2.414   0.152   1.331 -1.8282 -1.0117 -1.6127
 2619TIP3   OH2 7862   5.652   4.215   4.200 -0.0742 -0.1230 -0.0618
 2619TIP3    H1 7863   5.702   4.194   4.279  1.3445 -1.5127 -1.2617
 2619TIP3    H2 7864   5.580   4.270   4.231  2.1300  1.9803  1.7993
 2620TIP3   OH2 7865   1.529   1.304   1.826  0.3681  0.4464  0.1121
 2620TIP3    H1 7866   1.587   1.376   1.800  2.1231 -0.5351  1.0354
 2620TIP3    H2 7867   1.556   1.230   1.771 -1.0514  0.3371 -0.4653
 2621TIP3   OH2 7868   2.658   1.938   4.133 -0.6877  0.1635 -0.2458
 2621TIP3    H1 7869   2.564   1.953   4.120 -0.8111  0.1070  0.5637
 2621TIP3    H2 7870   2.699   1.975   4.054 -1.3906  0.1370 -0.6296
 2622TIP3   OH2 7871   2.467   2.870   1.601 -0.2420  0.0451  0.4939
 2622TIP3    H1 7872   2.402   2.877   1.671  0.2607 -3.3220  1.4793
 2622TIP3    H2 7873   2.540   2.925   1.629 -0.3113 -0.7518  2.3573
 2623TIP3   OH2 7874   4.779   5.186   1.160  0.3181 -0.2780  0.3389
 2623TIP3    H1 7875   4.731   5.222   1.086  1.8447  1.5154  0.1554
 2623TIP3    H2 7876   4.727   5.110   1.187 -0.0134 -1.3678 -2.8761
 2624TIP3   OH2 7877   4.618   1.656   2.141 -0.8734 -0.2027 -0.0748
 2624TIP3    H1 7878   4.579   1.687   2.059  0.5691 -0.2643 -0.8134
 2624TIP3    H2 7879   4.556   1.591   2.174 -1.6700  0.1136 -0.9108
 2625TIP3   OH2 7880   2.507   0.646   4.598 -0.2388 -0.1555  0.1336
 2625TIP3    H1 7881   2.459   0.697   4.532 -1.4529 -0.6210  0.6334
 2625TIP3    H2 7882   2.509   0.557   4.563  0.7285 -0.0449 -0.1203
 2626TIP3   OH2 7883   0.275   0.794   4.214  0.0588  0.2883 -0.6287
 2626TIP3    H1 7884   0.319   0.814   4.297  0.1129 -1.6820 -0.1143
 2626TIP3    H2 7885   0.346   0.773   4.154 -0.0615 -1.0578 -0.3329
 2627TIP3   OH2 7886   2.666   0.455   0.965  0.6796 -0.4424 -0.1779
 2627TIP3    H1 7887   2.723   0.493   1.032  0.4650  0.0738 -0.2835
 2627TIP3    H2 7888   2.719   0.387   0.924  1.3534  0.2922 -0.5423
 2628TIP3   OH2 7889   1.285   5.292   0.520  0.3411 -0.5133 -0.1355
 2628TIP3    H1 7890   1.315   5.383   0.529 -0.9726 -0.0994  0.2764
 2628TIP3    H2 7891   1.315   5.266   0.433  0.7736  0.3026 -0.2433
 2629TIP3   OH2 7892   1.760   1.049   5.182 -0.0495  0.0211  0.0948
 2629TIP3    H1 7893   1.701   1.112   5.223 -0.6707 -0.5766  0.1249
 2629TIP3    H2 7894   1.806   1.101   5.115 -1.0535  0.3587 -0.3584
 2630TIP3   OH2 7895   0.861   4.020   0.904 -0.0565  0.1937 -0.2065
 2630TIP3    H1 7896   0.840   4.053   0.992 -0.2144  0.0427 -0.1859
 2630TIP3    H2 7897   0.825   3.931   0.903  0.4180  0.0005 -0.2412
 2631TIP3   OH2 7898   2.348   3.598   0.569  0.3934 -0.2899 -0.3188
 2631TIP3    H1 7899   2.294   3.647   0.508 -0.3263 -1.4116 -0.6075
 2631TIP3    H2 7900   2.413   3.662   0.600 -0.6499  0.8980 -0.4846
 2632TIP3   OH2 7901   1.987   2.134   3.133 -0.1057  0.0129  0.2612
 2632TIP3    H1 7902   1.933   2.055   3.128 -1.1372  0.7146  0.0398
 2632TIP3    H2 7903   2.059   2.110   3.191 -0.0679 -1.2766 -0.2750
 2633TIP3   OH2 7904   6.006   3.638   3.505 -0.8578 -0.2864 -0.5627
 2633TIP3    H1 7905   6.012   3.711   3.444 -0.5642  0.1098 -0.0736
 2633TIP3    H2 7906   5.953   3.673   3.578  1.2281  0.2367  0.7768
 2634TIP3   OH2 7907   0.910   3.042   1.450 -0.3504  0.1459 -0.5890
 2634TIP3    H1 7908   0.907   2.967   1.390 -1.1154  0.2095 -0.6378
 2634TIP3    H2 7909   0.831   3.091   1.431  0.1317  0.9641 -0.5354
 2635TIP3   OH2 7910   5.860   1.089   4.341 -0.3346 -0.4513  0.0087
 2635TIP3    H1 7911   5.820   1.011   4.304 -0.6810 -0.9490  1.3725
 2635TIP3    H2 7912   5.878   1.066   4.433 -0.5280  1.0836  0.4626
 2636TIP3   OH2 7913   1.206   4.699   4.452 -0.3962  0.4341 -0.0324
 2636TIP3    H1 7914   1.111   4.699   4.445 -0.3939  0.1731 -0.0875
 2636TIP3    H2 7915   1.234   4.628   4.394 -0.1833  0.3587  0.1635
 2637TIP3   OH2 7916   5.490   2.465   4.390 -0.3935  0.0814 -0.1286
 2637TIP3    H1 7917   5.475   2.535   4.326  0.5324  0.2391 -0.1873
 2637TIP3    H2 7918   5.445   2.389   4.353 -1.4565  0.6498 -0.0370
 2638TIP3   OH2 7919   2.291   5.060   1.684 -0.2988  0.1868 -0.4683
 2638TIP3    H1 7920   2.258   5.122   1.619  0.5202  0.3294 -0.7542
 2638TIP3    H2 7921   2.258   5.093   1.768  0.3153  1.1384 -0.5947
 2639TIP3   OH2 7922   5.154   2.216   4.097  0.3034 -0.4643 -0.2452
 2639TIP3    H1 7923   5.079   2.170   4.135  0.2446 -2.3645 -2.4374
 2639TIP3    H2 7924   5.120   2.302   4.072 -0.0272  0.2860  2.4271
 2640TIP3   OH2 7925   1.745   0.646   1.044 -0.0420 -0.7826 -0.5082
 2640TIP3    H1 7926   1.670   0.612   1.092  0.6401 -0.5322  0.7802
 2640TIP3    H2 7927   1.794   0.568   1.017  1.2475 -0.9497  2.0024
 2641TIP3   OH2 7928   3.351   1.415   3.289  0.6861 -0.0159 -0.0816
 2641TIP3    H1 7929   3.446   1.419   3.297  0.5989  0.0862  1.0303
 2641TIP3    H2 7930   3.326   1.336   3.338 -0.0150  1.3865  1.9528
 2642TIP3   OH2 7931   1.301   0.383   4.846  0.0719 -0.0840  0.3880
 2642TIP3    H1 7932   1.279   0.291   4.840  0.1477 -0.0842  0.0790
 2642TIP3    H2 7933   1.281   0.408   4.936 -2.7248  0.3182 -0.2757
 2643TIP3   OH2 7934   5.466   1.455   4.794  0.2121 -0.0716  0.2337
 2643TIP3    H1 7935   5.410   1.402   4.851  0.7158 -1.1295 -0.2284
 2643TIP3    H2 7936   5.555   1.423   4.812  0.2651 -1.4337 -2.1448
 2644TIP3   OH2 7937   5.596   4.834  -0.003  0.3767  0.4334 -0.6817
 2644TIP3    H1 7938   5.529   4.869   0.056  0.0664  0.9245 -1.3140
 2644TIP3    H2 7939   5.665   4.802   0.055 -0.1071  0.5330 -0.0413
 2645TIP3   OH2 7940   3.634   3.150   2.444 -0.2518 -0.1124 -0.0354
 2645TIP3    H1 7941   3.705   3.212   2.457  0.1030 -0.9930  2.8639
 2645TIP3    H2 7942   3.677   3.069   2.417 -0.3187 -0.1980  0.1145
 2646TIP3   OH2 7943   4.688   2.226   2.585  0.4370  0.4589 -0.4963
 2646TIP3    H1 7944   4.778   2.257   2.573 -0.1918  1.9084 -1.7611
 2646TIP3    H2 7945   4.646   2.294   2.636  0.5817 -1.2941  2.1705
 2647TIP3   OH2 7946   1.596   0.162   4.679 -0.1202 -0.1214 -1.0277
 2647TIP3    H1 7947   1.610   0.090   4.741  0.4200  2.2082  1.7401
 2647TIP3    H2 7948   1.520   0.135   4.628 -1.7025 -1.4616  1.8196
 2648TIP3   OH2 7949   6.242   2.461   2.744 -0.3660  0.0900  0.6003
 2648TIP3    H1 7950   6.205   2.422   2.823  1.0940  1.0388  1.8088
 2648TIP3    H2 7951   6.336   2.467   2.761 -0.0900  0.8803 -0.9676
 2649TIP3   OH2 7952   5.409   3.252   3.860  0.7834  0.0146 -0.4818
 2649TIP3    H1 7953   5.429   3.195   3.786 -0.6056  0.4751 -1.2463
 2649TIP3    H2 7954   5.413   3.194   3.936  0.5339 -0.8576 -1.1102
 2650TIP3   OH2 7955   1.306   2.456   0.926 -0.1938 -0.7494 -0.4811
 2650TIP3    H1 7956   1.396   2.490   0.925 -0.2016 -0.6505  1.0788
 2650TIP3    H2 7957   1.313   2.370   0.966 -0.9169 -0.3720  0.4767
 2651TIP3   OH2 7958   6.114   1.907   1.170  0.2129 -0.0526  0.4064
 2651TIP3    H1 7959   6.202   1.944   1.178  0.8429 -1.4301  0.0917
 2651TIP3    H2 7960   6.115   1.831   1.229 -0.1677 -1.1433 -0.9591
 2652TIP3   OH2 7961   1.924   4.378   3.712 -0.0359 -0.1449 -0.4945
 2652TIP3    H1 7962   1.946   4.458   3.760 -0.4609 -0.3839  0.1211
 2652TIP3    H2 7963   1.929   4.402   3.620 -0.5374  0.6926 -0.3120
 2653TIP3   OH2 7964   2.523   4.120   4.958  0.4408 -0.0771 -0.2397
 2653TIP3    H1 7965   2.587   4.184   4.990  0.3854 -0.1736  0.0700
 2653TIP3    H2 7966   2.444   4.137   5.010  0.7026 -0.9862  0.4892
 2654TIP3   OH2 7967   0.391   4.426   3.327 -0.1863  0.1844 -0.4385
 2654TIP3    H1 7968   0.297   4.443   3.313 -0.3461  0.1200  0.5085
 2654TIP3    H2 7969   0.421   4.388   3.244 -1.3258 -1.1705 -0.2723
 2655TIP3   OH2 7970   4.614   1.449   0.931 -0.5501 -0.0061 -0.2952
 2655TIP3    H1 7971   4.675   1.418   0.999  0.2575 -0.0687 -1.0290
 2655TIP3    H2 7972   4.649   1.534   0.905 -1.1494  0.2482 -0.2771
 2656TIP3   OH2 7973   3.420   1.716   4.374 -0.4674 -0.2324 -0.4246
 2656TIP3    H1 7974   3.435   1.804   4.340  0.4328 -0.0921  0.2745
 2656TIP3    H2 7975   3.364   1.674   4.309  1.0657  0.0539 -2.0267
 2657TIP3   OH2 7976   3.253   0.196   0.409  0.6650 -0.1530  0.5622
 2657TIP3    H1 7977   3.260   0.259   0.337 -0.8540 -0.6366 -0.0519
 2657TIP3    H2 7978   3.282   0.245   0.486  1.9010  0.5084 -0.2867
 2658TIP3   OH2 7979   4.875   0.183   3.212 -0.0478  0.0548  0.1499
 2658TIP3    H1 7980   4.845   0.218   3.296 -2.8589  0.1285 -0.7813
 2658TIP3    H2 7981   4.946   0.241   3.186 -1.2471  2.0105  1.0288
 2659TIP3   OH2 7982   3.376   3.417   0.967 -0.0201 -0.5358 -0.2037
 2659TIP3    H1 7983   3.318   3.438   0.893  0.6123  0.3042 -0.4786
 2659TIP3    H2 7984   3.462   3.451   0.941 -0.2982  2.2872  1.9697
 2660TIP3   OH2 7985   5.273   2.566   4.939 -0.0383 -0.5313 -0.2521
 2660TIP3    H1 7986   5.248   2.580   4.848 -0.1289  0.3572 -0.1005
 2660TIP3    H2 7987   5.364   2.538   4.935  0.4044  0.8842 -0.5487
 2661TIP3   OH2 7988   3.216   2.967   3.153  0.1740 -0.5594 -0.3213
 2661TIP3    H1 7989   3.136   2.970   3.205 -0.6952  1.4125 -1.6408
 2661TIP3    H2 7990   3.282   3.007   3.209 -0.4633  0.4347 -0.2499
 2662TIP3   OH2 7991   5.152   0.678   2.631  0.4751 -0.5018 -0.1823
 2662TIP3    H1 7992   5.221   0.720   2.683  0.6200 -0.9709  0.0093
 2662TIP3    H2 7993   5.199   0.624   2.568  0.2914 -0.2166 -0.5717
 2663TIP3   OH2 7994   0.145   0.954   0.829 -0.0966 -0.0223 -0.0349
 2663TIP3    H1 7995   0.124   0.998   0.747 -0.6756  0.5053  0.3934
 2663TIP3    H2 7996   0.213   1.008   0.869  0.6525 -0.6236 -0.4514
 2664TIP3   OH2 7997   0.938   4.162   2.934 -0.4625 -0.0684  0.7298
 2664TIP3    H1 7998   0.891   4.203   2.862 -0.5673  0.3816  1.0540
 2664TIP3    H2 7999   0.984   4.234   2.977  0.3018 -0.4564  0.5887
 2665TIP3   OH2 8000   0.532   4.812   4.624 -0.1908 -0.4414  0.6954
 2665TIP3    H1 8001   0.475   4.738   4.644 -0.9644  0.3260  1.4340
 2665TIP3    H2 8002   0.620   4.782   4.648 -0.5260 -1.0377  1.1902
 2666TIP3   OH2 8003   0.964   2.955   2.444  0.4723  0.4619  0.7375
 2666TIP3    H1 8004   1.050   2.991   2.466  1.0294  2.0213 -3.1546
 2666TIP3    H2 8005   0.904   3.030   2.454  0.2057  0.3335  0.1482
 2667TIP3   OH2 8006   2.381   4.890   0.644  0.0195  0.0816  0.3258
 2667TIP3    H1 8007   2.389   4.985   0.636 -0.7418  0.6885  4.4828
 2667TIP3    H2 8008   2.466   4.861   0.677 -0.3564 -0.4124  0.8750
 2668TIP3   OH2 8009   0.926   3.196   4.480 -0.1311 -0.4759  0.3847
 2668TIP3    H1 8010   1.001   3.163   4.430 -0.1985  0.6019 -0.4547
 2668TIP3    H2 8011   0.860   3.127   4.471 -0.3542 -0.0795 -1.5425
 2669TIP3   OH2 8012   4.636   0.706   3.293 -0.1088  0.6218  0.3935
 2669TIP3    H1 8013   4.574   0.729   3.224  0.1896 -2.3191 -1.0238
 2669TIP3    H2 8014   4.628   0.611   3.302  2.4605  0.4493  1.8939
 2670TIP3   OH2 8015   2.397   0.829   2.512 -0.3310 -0.0913 -0.0001
 2670TIP3    H1 8016   2.408   0.898   2.446 -0.5294 -0.4554 -0.4162
 2670TIP3    H2 8017   2.358   0.875   2.587  1.0730  0.5865  0.3625
 2671TIP3   OH2 8018   1.132   5.599   2.126  0.4519  0.2470 -0.4297
 2671TIP3    H1 8019   1.111   5.687   2.156 -1.0588 -0.0739 -0.4454
 2671TIP3    H2 8020   1.062   5.578   2.063  0.2533 -1.2821  0.2573
 2672TIP3   OH2 8021   2.705   2.696   1.921 -0.0140 -0.0648 -0.3334
 2672TIP3    H1 8022   2.748   2.611   1.926 -1.1971 -0.8241 -1.8819
 2672TIP3    H2 8023   2.766   2.751   1.872  0.6936 -0.0370  0.5520
 2673TIP3   OH2 8024   0.191   3.259   3.778  0.2868 -0.3330 -0.0713
 2673TIP3    H1 8025   0.103   3.243   3.812 -0.4346 -0.3015 -1.8085
 2673TIP3    H2 8026   0.178   3.320   3.705  2.0771  1.7941  1.2915
 2674TIP3   OH2 8027   0.309   2.446   1.902 -0.1766  0.4440  0.3045
 2674TIP3    H1 8028   0.229   2.445   1.954  0.7630  0.4756  1.8353
 2674TIP3    H2 8029   0.323   2.538   1.881  0.5879  0.7427  1.9500
 2675TIP3   OH2 8030   3.448   0.493   4.977  0.3534  0.0393  0.0783
 2675TIP3    H1 8031   3.515   0.537   5.029 -0.5174 -0.4327  1.6530
 2675TIP3    H2 8032   3.486   0.408   4.957  0.6060  0.1351  0.1479
 2676TIP3   OH2 8033   1.023   4.601   4.705 -0.1311  0.2501  0.2426
 2676TIP3    H1 8034   1.087   4.537   4.735 -0.5594 -0.0618  0.4955
 2676TIP3    H2 8035   1.013   4.584   4.611 -1.3781 -1.0652  0.5920
 2677TIP3   OH2 8036   0.493   5.449   0.164 -0.0041  0.8768 -0.1716
 2677TIP3    H1 8037   0.513   5.474   0.074  1.2773 -0.4381 -0.2781
 2677TIP3    H2 8038   0.474   5.355   0.160 -0.7485  0.9650  0.8185
 2678TIP3   OH2 8039   1.158   2.855   0.372  0.0720 -0.7178  0.1594
 2678TIP3    H1 8040   1.154   2.846   0.277  0.4009 -0.3193  0.1041
 2678TIP3    H2 8041   1.251   2.873   0.390 -0.4334  2.3267  0.2623
 2679TIP3   OH2 8042   2.771   2.789   0.066  0.0642 -0.2397 -0.0256
 2679TIP3    H1 8043   2.781   2.770   0.159  0.0105 -1.3277 -0.2274
 2679TIP3    H2 8044   2.694   2.846   0.061  0.3302  0.1926  0.6235
 2680TIP3   OH2 8045   6.282   1.818   1.929 -0.2810  0.2164  0.4207
 2680TIP3    H1 8046   6.344   1.870   1.980  1.4563 -0.7187 -0.6489
 2680TIP3    H2 8047   6.331   1.739   1.904 -1.2265  0.3506 -2.1591
 2681TIP3   OH2 8048   4.205   3.630   4.026  0.4991  0.2255 -0.1708
 2681TIP3    H1 8049   4.242   3.709   3.988 -0.3588  0.6017 -0.2436
 2681TIP3    H2 8050   4.118   3.623   3.987 -0.0146  0.0827  0.9660
 2682TIP3   OH2 8051   0.653   2.566   3.503  0.4454  0.0416 -0.1242
 2682TIP3    H1 8052   0.584   2.506   3.475  1.7313 -0.7340 -1.7936
 2682TIP3    H2 8053   0.647   2.640   3.442  1.0034  0.0347 -0.1866
 2683TIP3   OH2 8054   6.216   2.887   3.530 -0.6410  0.0047  0.2883
 2683TIP3    H1 8055   6.228   2.973   3.571  1.2892 -0.0613 -0.0241
 2683TIP3    H2 8056   6.272   2.828   3.582 -0.9864 -0.8169 -0.2511
 2684TIP3   OH2 8057   4.084   5.962   2.024  0.5801  0.2000  0.7965
 2684TIP3    H1 8058   4.152   5.894   2.022  1.2095  0.7993  1.4003
 2684TIP3    H2 8059   4.104   6.014   2.102 -1.6239 -0.6726  2.0324
 2685TIP3   OH2 8060   0.249   2.764   0.393 -0.7499  0.2085  0.0967
 2685TIP3    H1 8061   0.190   2.698   0.429 -0.2829 -0.1703  0.1732
 2685TIP3    H2 8062   0.191   2.830   0.354 -1.2675  0.5373  1.3663
 2686TIP3   OH2 8063   0.601   2.712   2.101 -0.1432 -0.0405 -0.0985
 2686TIP3    H1 8064   0.632   2.766   2.173 -0.8862  0.7750 -0.3804
 2686TIP3    H2 8065   0.681   2.677   2.061  0.3657  1.2025 -0.1834
 2687TIP3   OH2 8066   2.947   3.119   0.586 -0.2867 -0.2616  0.0268
 2687TIP3    H1 8067   2.900   3.202   0.590 -1.0507 -0.6890  0.1179
 2687TIP3    H2 8068   2.882   3.053   0.612  0.6079 -0.7708  1.0976
 2688TIP3   OH2 8069   3.709   1.429   2.995  0.3652 -0.2405 -0.0014
 2688TIP3    H1 8070   3.787   1.382   2.968 -0.1854 -2.0254  1.3552
 2688TIP3    H2 8071   3.733   1.471   3.077  0.8151  1.8920 -1.1315
 2689TIP3   OH2 8072   4.437   3.435   1.923 -0.4653 -0.0406 -0.4327
 2689TIP3    H1 8073   4.436   3.530   1.936  1.0908 -0.1602  0.9696
 2689TIP3    H2 8074   4.434   3.399   2.012  2.7681 -1.1593 -0.6345
 2690TIP3   OH2 8075   3.950   5.017   3.373 -0.0677 -0.2905  0.0707
 2690TIP3    H1 8076   3.937   4.953   3.303 -0.3133  0.0882 -0.2318
 2690TIP3    H2 8077   3.958   5.101   3.328 -0.5832  0.0043  0.5120
 2691TIP3   OH2 8078   5.746   0.806   0.547 -0.3313  0.1937 -0.0840
 2691TIP3    H1 8079   5.794   0.786   0.467  1.6772 -2.9333  1.6736
 2691TIP3    H2 8080   5.786   0.887   0.580  0.4038  0.2334 -1.0497
 2692TIP3   OH2 8081   4.247   2.656   3.885  0.6618  0.2141 -0.6918
 2692TIP3    H1 8082   4.292   2.608   3.955  0.6859 -0.5840 -1.2503
 2692TIP3    H2 8083   4.195   2.722   3.931  0.7017 -0.2828  0.0813
 2693TIP3   OH2 8084   5.407   1.305   2.608  0.1425  0.1679 -0.1444
 2693TIP3    H1 8085   5.396   1.368   2.537 -0.3720  1.8078  1.3231
 2693TIP3    H2 8086   5.317   1.286   2.637  0.3626 -0.2769  0.2573
 2694TIP3   OH2 8087   0.195   0.678   5.143  0.3525 -0.5624  0.3428
 2694TIP3    H1 8088   0.210   0.717   5.229 -0.0227  0.7547 -0.1621
 2694TIP3    H2 8089   0.245   0.596   5.145  1.3527  0.0385  1.3779
 2695TIP3   OH2 8090   5.258   2.668   4.392 -0.2042  0.3876 -0.3382
 2695TIP3    H1 8091   5.256   2.658   4.297 -1.8605 -0.4368 -0.2553
 2695TIP3    H2 8092   5.281   2.760   4.406  0.8431  0.3218 -1.4999
 2696TIP3   OH2 8093   1.144   0.364   1.995  0.3771 -0.1748 -0.2410
 2696TIP3    H1 8094   1.075   0.298   2.001  0.6684 -0.6593 -1.7582
 2696TIP3    H2 8095   1.225   0.314   1.994  0.6535  0.2726 -0.3743
 2697TIP3   OH2 8096   0.195   5.472   0.981  0.2601 -0.3871  0.4075
 2697TIP3    H1 8097   0.186   5.435   0.892 -0.7826  0.2506  0.2269
 2697TIP3    H2 8098   0.249   5.409   1.027 -0.0454 -1.2703 -0.3951
 2698TIP3   OH2 8099   6.294   1.842   4.780  0.1075  0.2423  0.2314
 2698TIP3    H1 8100   6.273   1.916   4.723  0.5063 -1.1449 -1.8040
 2698TIP3    H2 8101   6.383   1.859   4.810  0.2661  0.5053 -0.3708
 2699TIP3   OH2 8102   2.550   4.545   1.228  0.1172 -0.0230 -1.2629
 2699TIP3    H1 8103   2.587   4.626   1.264  1.0760 -1.7280  1.8457
 2699TIP3    H2 8104   2.620   4.509   1.174  0.6678 -0.0724 -0.5262
 2700TIP3   OH2 8105   6.238   2.853   0.634 -0.1803 -0.0560  0.1176
 2700TIP3    H1 8106   6.319   2.901   0.648 -0.4054  0.4574 -0.3258
 2700TIP3    H2 8107   6.245   2.818   0.545 -1.8113  2.7656 -1.2678
 2701TIP3   OH2 8108   3.041   0.018   5.091 -0.0132 -0.2268  0.5687
 2701TIP3    H1 8109   3.023   0.099   5.140 -1.6199 -0.5639  0.5886
 2701TIP3    H2 8110   3.121  -0.016   5.131 -0.4980  0.2538  2.0177
 2702TIP3   OH2 8111   1.221   4.721   4.955  0.4743 -0.0646 -0.1450
 2702TIP3    H1 8112   1.264   4.758   4.878 -1.9568  0.4774 -1.3300
 2702TIP3    H2 8113   1.212   4.795   5.015  0.8183 -0.0846 -0.0670
 2703TIP3   OH2 8114   3.525   5.525   4.191  0.2753 -0.8830  0.4688
 2703TIP3    H1 8115   3.564   5.438   4.190  1.7652 -0.2496 -0.2855
 2703TIP3    H2 8116   3.555   5.564   4.273  1.4385 -0.3266 -0.2000
 2704TIP3   OH2 8117   1.272   0.611   4.040  0.4195 -0.4282  0.0631
 2704TIP3    H1 8118   1.344   0.584   4.096  0.8285 -0.0451 -0.2714
 2704TIP3    H2 8119   1.253   0.701   4.067  1.8241  0.4282 -1.6012
 2705TIP3   OH2 8120   4.155   0.370   3.731 -0.0259 -0.1805 -0.5866
 2705TIP3    H1 8121   4.135   0.277   3.736  1.4903 -0.4852  2.8669
 2705TIP3    H2 8122   4.084   0.412   3.781  1.1812  0.0423  1.0195
 2706TIP3   OH2 8123   5.716   5.066   3.119 -0.5440  0.1929  0.0614
 2706TIP3    H1 8124   5.642   5.069   3.059 -0.0270  1.4903 -0.5422
 2706TIP3    H2 8125   5.793   5.059   3.063 -0.1030  0.6241  0.5989
 2707TIP3   OH2 8126   5.135   2.283   4.455 -0.4278 -0.4465  0.2249
 2707TIP3    H1 8127   5.059   2.256   4.404 -0.8953  1.0145  0.1078
 2707TIP3    H2 8128   5.112   2.369   4.489  0.3785 -0.8399  1.8785
 2708TIP3   OH2 8129   2.791   2.300   4.001 -0.2350 -0.8581  0.2403
 2708TIP3    H1 8130   2.768   2.393   4.001 -0.2310 -0.8541 -0.0280
 2708TIP3    H2 8131   2.794   2.275   4.093  1.0945 -0.2774  0.3756
 2709TIP3   OH2 8132   1.513   4.134   2.399 -0.0863  0.0055 -0.0352
 2709TIP3    H1 8133   1.474   4.179   2.324  1.3975 -0.2680 -1.0098
 2709TIP3    H2 8134   1.489   4.042   2.387  2.7022 -0.6169 -2.0137
 2710TIP3   OH2 8135  -0.021   0.818   1.285 -0.4349  0.2601  0.6090
 2710TIP3    H1 8136   0.068   0.805   1.319 -0.6573 -0.7592  0.8430
 2710TIP3    H2 8137  -0.011   0.811   1.190 -0.5453 -2.0250  0.7049
 2711TIP3   OH2 8138   3.571   0.621   3.615  0.1550  0.5318 -0.0149
 2711TIP3    H1 8139   3.618   0.554   3.564  0.1908 -0.5227  1.3538
 2711TIP3    H2 8140   3.584   0.702   3.565  0.9470 -0.2812 -1.1997
 2712TIP3   OH2 8141   3.492   4.650   3.639 -0.0076 -0.6117  0.4007
 2712TIP3    H1 8142   3.398   4.636   3.629 -0.4778  2.3111 -0.0356
 2712TIP3    H2 8143   3.524   4.568   3.677 -2.5473 -2.0409 -0.2912
 2713TIP3   OH2 8144   6.250   4.936   0.830 -0.2551  0.2190 -0.4315
 2713TIP3    H1 8145   6.229   4.896   0.914  0.9238 -0.4996 -0.4552
 2713TIP3    H2 8146   6.168   4.974   0.800 -1.1896 -1.3327  0.0688
 2714TIP3   OH2 8147   5.857   3.077   4.633  0.2341 -0.2224  0.0528
 2714TIP3    H1 8148   5.916   3.004   4.653  0.5092 -0.2983 -0.9338
 2714TIP3    H2 8149   5.851   3.127   4.714  2.6203  0.4394 -0.0966
 2715TIP3   OH2 8150   4.719   2.331   0.848  0.0996 -0.2651  0.3033
 2715TIP3    H1 8151   4.753   2.256   0.800 -0.9353 -0.0822 -0.7624
 2715TIP3    H2 8152   4.624   2.329   0.832  0.1135  1.5893 -0.2510
 2716TIP3   OH2 8153   4.075   1.783   5.104 -0.6491  0.0473 -0.3423
 2716TIP3    H1 8154   4.060   1.694   5.135 -0.5836 -0.6121 -2.1071
 2716TIP3    H2 8155   4.158   1.809   5.144 -1.7590  0.2537  2.0628
 2717TIP3   OH2 8156   5.780   2.751   0.905 -0.4079 -0.2551  0.4102
 2717TIP3    H1 8157   5.859   2.794   0.871 -0.3852  0.1568  0.9569
 2717TIP3    H2 8158   5.721   2.746   0.830 -0.5942  1.1872  0.4215
 2718TIP3   OH2 8159   0.443   5.525   4.016  0.5248  0.4538 -0.3533
 2718TIP3    H1 8160   0.444   5.488   3.928  2.5695  0.2292 -0.2799
 2718TIP3    H2 8161   0.398   5.460   4.070  2.9236 -1.4213 -0.4776
 2719TIP3   OH2 8162   0.661   4.779   1.687  0.6239 -0.1127  0.2420
 2719TIP3    H1 8163   0.584   4.722   1.685  1.2212 -0.9254 -1.8631
 2719TIP3    H2 8164   0.642   4.848   1.624  1.0023  0.5689  0.8560
 2720TIP3   OH2 8165   5.054   3.090   2.517  0.6578  0.5703  0.3581
 2720TIP3    H1 8166   5.010   3.005   2.519 -0.1409  0.9238 -0.8392
 2720TIP3    H2 8167   4.993   3.147   2.471  0.9337  1.9489  1.6177
 2721TIP3   OH2 8168   2.462   5.233   4.533  0.8735 -0.8496 -0.0089
 2721TIP3    H1 8169   2.523   5.270   4.469 -0.5042  1.0288 -0.3052
 2721TIP3    H2 8170   2.394   5.191   4.479  0.3257 -0.2828  0.2289
 2722TIP3   OH2 8171   4.582   1.813   4.481 -0.3431 -0.5872 -0.4431
 2722TIP3    H1 8172   4.570   1.838   4.572  1.3238  0.3212 -0.4355
 2722TIP3    H2 8173   4.571   1.718   4.480  2.1335 -0.9887  1.2132
 2723TIP3   OH2 8174   2.624   1.755   3.842  0.0027  0.5144  0.0213
 2723TIP3    H1 8175   2.669   1.701   3.907  1.3599 -0.7720 -1.8917
 2723TIP3    H2 8176   2.637   1.845   3.873  0.2701 -0.0631  1.7001
 2724TIP3   OH2 8177   0.998   1.197   4.647 -0.3276 -0.0581  0.4267
 2724TIP3    H1 8178   0.903   1.193   4.664 -0.6161  0.9518 -0.7650
 2724TIP3    H2 8179   1.038   1.173   4.730 -1.6314 -0.7272  0.9018
 2725TIP3   OH2 8180   4.462   4.132   3.862  0.2479 -0.5665 -0.6598
 2725TIP3    H1 8181   4.381   4.080   3.867  0.3231 -0.8434 -1.8398
 2725TIP3    H2 8182   4.444   4.197   3.794  0.9828 -0.5671 -0.8642
 2726TIP3   OH2 8183   2.315   4.220   2.310 -0.1301 -0.2319  0.1608
 2726TIP3    H1 8184   2.378   4.291   2.306 -0.0513 -0.3509 -1.1802
 2726TIP3    H2 8185   2.252   4.239   2.240 -0.5037 -1.1130  0.2390
 2727TIP3   OH2 8186   6.104   0.672   0.151 -0.0653  0.2379 -0.4955
 2727TIP3    H1 8187   6.123   0.747   0.207  0.4043 -0.6049  0.5073
 2727TIP3    H2 8188   6.035   0.624   0.197  1.4510 -1.3419  0.2491
 2728TIP3   OH2 8189   3.920   3.345   4.491 -0.4567 -0.9642  0.4505
 2728TIP3    H1 8190   3.835   3.317   4.458 -0.6949  0.4644 -0.1709
 2728TIP3    H2 8191   3.900   3.407   4.561  0.0857 -0.9906  0.6368
 2729TIP3   OH2 8192   4.347   3.792   1.683 -0.1916 -0.7249  0.6063
 2729TIP3    H1 8193   4.442   3.801   1.694 -0.1831  0.5235 -0.2561
 2729TIP3    H2 8194   4.336   3.770   1.590 -0.8083  1.1509  0.1887
 2730TIP3   OH2 8195   0.165   5.965   1.018  0.3702  0.6687  0.0491
 2730TIP3    H1 8196   0.127   5.878   1.028 -0.0838  1.1333  3.4244
 2730TIP3    H2 8197   0.125   6.000   0.938 -0.7041 -1.5642 -0.4681
 2731TIP3   OH2 8198   4.574   0.137   2.811  0.2136 -0.1267  0.4362
 2731TIP3    H1 8199   4.511   0.196   2.852  1.1059 -0.7329  2.8557
 2731TIP3    H2 8200   4.531   0.052   2.812 -0.1701  0.0305 -0.9342
 2732TIP3   OH2 8201   2.176   0.637   2.723 -0.2910 -0.2893 -0.1003
 2732TIP3    H1 8202   2.125   0.705   2.767  0.4097 -0.8779  1.7378
 2732TIP3    H2 8203   2.112   0.587   2.673 -1.3491 -0.3384  1.2535
 2733TIP3   OH2 8204   5.003   5.204   0.994  0.4067 -0.8712 -0.0885
 2733TIP3    H1 8205   5.080   5.251   1.028  0.2127 -0.9785  0.5059
 2733TIP3    H2 8206   4.929   5.245   1.038 -0.0475  0.3714 -1.9143
 2734TIP3   OH2 8207   2.874   1.749   2.865 -0.0673  0.2700  0.3410
 2734TIP3    H1 8208   2.848   1.793   2.784  0.8455  0.8667  0.3594
 2734TIP3    H2 8209   2.961   1.784   2.884  0.0371 -0.4273  1.1783
 2735TIP3   OH2 8210   0.853   1.734   4.247  0.2216  0.1936 -0.1008
 2735TIP3    H1 8211   0.844   1.768   4.157 -1.4521  0.3080  0.0764
 2735TIP3    H2 8212   0.792   1.787   4.298 -0.0213 -0.9214  0.8007
 2736TIP3   OH2 8213   4.785   0.833   0.609 -0.6578  0.0157  0.0994
 2736TIP3    H1 8214   4.781   0.796   0.698 -1.1788 -1.4456 -0.4900
 2736TIP3    H2 8215   4.778   0.756   0.552 -0.7919  0.9756 -1.2068
 2737TIP3   OH2 8216   5.081   0.384   2.882 -0.4178 -0.4883 -0.4577
 2737TIP3    H1 8217   5.064   0.427   2.799  1.1975  0.4496 -0.3376
 2737TIP3    H2 8218   5.037   0.299   2.874 -0.2506 -0.4441 -2.2801
 2738TIP3   OH2 8219   4.362   1.113   1.146  0.2306 -0.0055 -0.6288
 2738TIP3    H1 8220   4.458   1.118   1.141  0.2424 -0.3977 -0.8548
 2738TIP3    H2 8221   4.331   1.156   1.067  0.2057  0.4867 -0.3552
 2739TIP3   OH2 8222   4.249   5.101   3.719 -0.2542 -0.6003  0.3852
 2739TIP3    H1 8223   4.209   5.177   3.677  0.2190 -0.5125  0.0816
 2739TIP3    H2 8224   4.279   5.133   3.804  1.4719  0.0310 -0.3997
 2740TIP3   OH2 8225   2.949   4.965   1.136 -0.0811 -0.7456  0.3811
 2740TIP3    H1 8226   2.886   4.972   1.207 -0.4537 -0.8526  0.0648
 2740TIP3    H2 8227   2.900   4.989   1.057  0.0266 -1.7051  0.0103
 2741TIP3   OH2 8228   0.519   2.882   4.933  0.4802 -0.3622  0.0595
 2741TIP3    H1 8229   0.497   2.856   5.022 -0.6378  0.1938 -0.0354
 2741TIP3    H2 8230   0.454   2.949   4.911  1.5866  0.5095 -0.6767
 2742TIP3   OH2 8231   1.348   3.420   3.213 -0.4477  0.8284  0.3056
 2742TIP3    H1 8232   1.384   3.477   3.280  0.1141 -0.8537  1.4859
 2742TIP3    H2 8233   1.422   3.366   3.185 -0.9474  0.7054 -0.8419
 2743TIP3   OH2 8234   4.635   5.498   1.912 -0.1299  0.4086  0.4182
 2743TIP3    H1 8235   4.593   5.577   1.877 -0.9863 -0.0312  0.4153
 2743TIP3    H2 8236   4.723   5.526   1.936 -0.4600  1.3950  0.5268
 2744TIP3   OH2 8237   3.143   5.217   2.846  0.2489 -0.0907 -0.3831
 2744TIP3    H1 8238   3.192   5.269   2.910  2.6605 -0.8564 -1.4943
 2744TIP3    H2 8239   3.144   5.129   2.882 -0.1717 -0.1495 -0.5135
 2745TIP3   OH2 8240   1.330   4.517   2.132  0.0655 -0.1807 -0.2637
 2745TIP3    H1 8241   1.241   4.528   2.099  0.0800 -0.9755 -0.5946
 2745TIP3    H2 8242   1.377   4.595   2.102 -0.3656 -0.0556 -0.6179
 2746TIP3   OH2 8243   2.163   4.668   3.158  0.1462  0.1594 -0.3588
 2746TIP3    H1 8244   2.175   4.704   3.070  1.1645 -1.2180 -0.8159
 2746TIP3    H2 8245   2.131   4.579   3.143  1.3281 -0.4626  0.6164
 2747TIP3   OH2 8246   3.786   5.869   0.100  0.3442 -0.2596  0.6552
 2747TIP3    H1 8247   3.729   5.797   0.127  1.6328 -3.1725 -3.4340
 2747TIP3    H2 8248   3.725   5.936   0.066 -0.7887 -0.9425  1.2868
 2748TIP3   OH2 8249   6.059   3.415   0.690 -0.2665  0.3316  0.1178
 2748TIP3    H1 8250   6.045   3.510   0.686 -0.4163  0.2744 -1.2255
 2748TIP3    H2 8251   5.977   3.381   0.725  0.3310  0.7977  2.0512
 2749TIP3   OH2 8252   4.316   0.619   4.821  0.0179 -0.0431 -0.0121
 2749TIP3    H1 8253   4.383   0.687   4.813 -0.4098  0.7808  2.4955
 2749TIP3    H2 8254   4.359   0.549   4.871 -0.4858 -0.2271  0.1699
 2750TIP3   OH2 8255   3.262   4.302   3.143 -0.2694 -0.9198 -0.0101
 2750TIP3    H1 8256   3.220   4.280   3.226  0.0707 -1.6988 -0.0366
 2750TIP3    H2 8257   3.349   4.263   3.149  0.1328 -0.1159 -0.3279
 2751TIP3   OH2 8258   4.823   1.344   3.004 -0.2047 -0.3610 -0.1981
 2751TIP3    H1 8259   4.735   1.317   3.032 -0.1462 -0.8537 -0.4871
 2751TIP3    H2 8260   4.810   1.431   2.967 -0.3496  0.1474  1.0026
 2752TIP3   OH2 8261   3.328   1.062   3.658 -0.4691  0.1927 -0.2939
 2752TIP3    H1 8262   3.254   1.001   3.665 -1.4400  1.1682 -1.5356
 2752TIP3    H2 8263   3.296   1.143   3.698  0.4179  0.2244  0.3654
 2753TIP3   OH2 8264   3.526   3.476   1.698  0.1010 -0.2118  0.0028
 2753TIP3    H1 8265   3.497   3.398   1.652 -0.0828  1.3543 -2.7664
 2753TIP3    H2 8266   3.608   3.501   1.654  0.4320  0.8780  1.1665
 2754TIP3   OH2 8267   4.622   5.349   0.972 -0.1880 -0.7067 -0.6320
 2754TIP3    H1 8268   4.539   5.312   0.942  0.7243 -0.8598 -3.2209
 2754TIP3    H2 8269   4.639   5.422   0.912  1.1175 -0.0901  0.4240
 2755TIP3   OH2 8270   1.314   0.159   2.102 -0.1076 -0.1880 -0.6766
 2755TIP3    H1 8271   1.308   0.188   2.193 -0.2720  2.8687 -1.5564
 2755TIP3    H2 8272   1.408   0.144   2.088  0.1403  1.0230 -0.4290
 2756TIP3   OH2 8273   0.300   0.264   3.524 -0.3925  0.1905  0.0614
 2756TIP3    H1 8274   0.282   0.250   3.432 -0.6913  0.4635  0.0731
 2756TIP3    H2 8275   0.213   0.262   3.566 -0.4315  1.6392  0.1048
 2757TIP3   OH2 8276   0.649   4.175   2.229 -0.1017  0.1788 -0.2766
 2757TIP3    H1 8277   0.697   4.172   2.146 -0.7554  1.7865 -0.7547
 2757TIP3    H2 8278   0.667   4.091   2.270 -1.1771 -1.4468 -2.8562
 2758TIP3   OH2 8279   3.503   3.128   5.182 -0.2608 -0.3659 -0.0308
 2758TIP3    H1 8280   3.468   3.215   5.160 -0.8551 -0.3559  0.8923
 2758TIP3    H2 8281   3.584   3.121   5.131 -0.1130  0.7961  0.0135
 2759TIP3   OH2 8282   4.419   1.646   0.593  1.1173  0.2462 -0.1110
 2759TIP3    H1 8283   4.460   1.695   0.522  2.0467  0.6279  0.6790
 2759TIP3    H2 8284   4.473   1.663   0.669  1.5283 -2.0634  0.2025
 2760TIP3   OH2 8285   4.073   3.433   0.550 -0.3251  0.2587  0.1422
 2760TIP3    H1 8286   4.142   3.499   0.555  0.8403 -0.9997  1.5593
 2760TIP3    H2 8287   4.064   3.415   0.456  1.1841  0.5433 -0.0851
 2761TIP3   OH2 8288   3.734   0.415   2.810 -0.0362  0.3167  0.1731
 2761TIP3    H1 8289   3.648   0.404   2.769 -0.4667  0.8874  0.9017
 2761TIP3    H2 8290   3.727   0.367   2.893  0.0680  1.0613  0.6147
 2762TIP3   OH2 8291   4.639   1.357   4.746  0.3607 -0.6901  0.2249
 2762TIP3    H1 8292   4.551   1.349   4.785 -0.3304  2.6872 -0.3769
 2762TIP3    H2 8293   4.687   1.412   4.808  1.9264 -1.9841  0.2230
 2763TIP3   OH2 8294   0.089   4.151   1.743 -0.0892 -0.4352 -0.3395
 2763TIP3    H1 8295   0.169   4.127   1.788  0.4499  1.4911 -0.1852
 2763TIP3    H2 8296   0.089   4.099   1.663  1.1669 -0.6751 -0.1966
 2764TIP3   OH2 8297   2.607   4.439   0.492  0.3423  0.0246  0.4604
 2764TIP3    H1 8298   2.520   4.451   0.453 -0.1111  0.4444  1.5568
 2764TIP3    H2 8299   2.648   4.371   0.438 -1.1417 -1.0713  0.6474
 2765TIP3   OH2 8300   4.388   3.875   5.210 -0.2429  0.2704  0.2093
 2765TIP3    H1 8301   4.475   3.910   5.194 -0.1751  0.2724  0.5850
 2765TIP3    H2 8302   4.349   3.868   5.123  0.4163 -0.4698 -0.0403
 2766TIP3   OH2 8303   2.066   1.206   3.253  0.0909  0.1956 -0.5415
 2766TIP3    H1 8304   2.148   1.160   3.231 -0.2020 -0.3220 -0.5671
 2766TIP3    H2 8305   2.093   1.276   3.311  0.2132 -1.8080  1.9796
 2767TIP3   OH2 8306   5.313   3.287   4.236 -0.5905  0.1463 -0.1540
 2767TIP3    H1 8307   5.309   3.370   4.283 -1.7628  0.7541 -1.2410
 2767TIP3    H2 8308   5.406   3.271   4.221 -0.1953  0.0467  2.1028
 2768TIP3   OH2 8309   2.780   4.306   1.749 -0.0749 -0.1088  0.3873
 2768TIP3    H1 8310   2.820   4.224   1.718  0.0284 -0.3652  1.1793
 2768TIP3    H2 8311   2.854   4.360   1.776 -0.1929 -0.0581  0.6053
 2769TIP3   OH2 8312   5.757   2.097   1.217  0.8528 -0.2089 -0.0943
 2769TIP3    H1 8313   5.717   2.018   1.252  0.7989 -0.3145 -0.3865
 2769TIP3    H2 8314   5.806   2.067   1.140 -1.2530  0.3602 -1.7831
 2770TIP3   OH2 8315   6.292   1.935   3.921 -0.2202 -0.1122  0.3851
 2770TIP3    H1 8316   6.212   1.977   3.891  0.3022  1.4034  1.0328
 2770TIP3    H2 8317   6.349   1.934   3.844 -0.5768 -0.5182  0.1203
 2771TIP3   OH2 8318   2.397   4.005   0.921 -0.5877  0.2870 -0.0313
 2771TIP3    H1 8319   2.420   4.038   1.007  1.0663  2.2400 -1.1301
 2771TIP3    H2 8320   2.449   3.925   0.911  0.7943  1.1375  0.0623
 2772TIP3   OH2 8321   5.630   1.857   1.320 -0.5583  0.2164 -0.3170
 2772TIP3    H1 8322   5.615   1.797   1.247  1.4924 -0.5625 -0.1543
 2772TIP3    H2 8323   5.543   1.873   1.356 -1.2698 -1.9866 -0.9026
 2773TIP3   OH2 8324   4.466   5.711   4.042 -0.4582 -0.8178  0.9906
 2773TIP3    H1 8325   4.517   5.709   4.123  1.5640 -0.6589 -0.2160
 2773TIP3    H2 8326   4.472   5.622   4.008 -0.3833 -0.6228  0.4869
 2774TIP3   OH2 8327   4.664   1.680   4.114  0.3230 -0.2251  0.1272
 2774TIP3    H1 8328   4.666   1.618   4.041  1.8477 -0.4141  0.3162
 2774TIP3    H2 8329   4.694   1.631   4.190  1.3071  0.6535  0.3340
 2775TIP3   OH2 8330   4.761   2.953   3.966  0.5016 -0.4423 -0.6367
 2775TIP3    H1 8331   4.680   2.906   3.987  0.5084  0.3674  1.4699
 2775TIP3    H2 8332   4.732   3.028   3.913 -0.0090 -0.6293 -0.6274
 2776TIP3   OH2 8333   4.000   5.002   0.693  0.0154  0.7003 -0.5719
 2776TIP3    H1 8334   4.095   5.009   0.682  0.2748 -0.1289  0.9026
 2776TIP3    H2 8335   3.974   5.088   0.727  0.4634  0.4674  0.3842
 2777TIP3   OH2 8336   0.350   4.120   2.351 -0.0517  0.1091  0.0891
 2777TIP3    H1 8337   0.364   4.184   2.281  0.6526  0.5378  0.6148
 2777TIP3    H2 8338   0.432   4.119   2.400 -0.7434  0.2441  1.2720
 2778TIP3   OH2 8339   0.988   1.567   0.253  0.7893  0.2459  0.3669
 2778TIP3    H1 8340   1.038   1.545   0.175  0.4592 -0.4784  0.3497
 2778TIP3    H2 8341   1.053   1.575   0.323  1.2245  2.0484 -0.1801
 2779TIP3   OH2 8342   1.402   1.833   4.240  0.4454  0.2967  0.8536
 2779TIP3    H1 8343   1.422   1.861   4.330  0.5177 -0.5360  1.1073
 2779TIP3    H2 8344   1.308   1.848   4.231  0.6225  1.3994  0.6873
 2780TIP3   OH2 8345   4.355   0.416   0.179 -0.5301  0.2964  0.2027
 2780TIP3    H1 8346   4.341   0.333   0.133 -2.7494 -0.6142  2.3252
 2780TIP3    H2 8347   4.432   0.401   0.233 -1.7526 -0.9574  1.6651
 2781TIP3   OH2 8348   5.526   3.425   4.064 -0.3565 -0.5442  0.2437
 2781TIP3    H1 8349   5.539   3.519   4.078  0.0466 -0.4131 -0.9539
 2781TIP3    H2 8350   5.513   3.416   3.970  2.3476 -2.0040 -0.0698
 2782TIP3   OH2 8351   4.897   5.384   2.835 -0.0203 -0.5514  0.2851
 2782TIP3    H1 8352   4.879   5.460   2.890  0.6900  0.1164 -0.3698
 2782TIP3    H2 8353   4.977   5.346   2.872 -0.2270 -0.8324  0.4502
 2783TIP3   OH2 8354   1.775   3.438   0.030 -0.2490  0.3752  0.0550
 2783TIP3    H1 8355   1.748   3.453  -0.060 -1.1597  0.8572  0.3898
 2783TIP3    H2 8356   1.706   3.383   0.067  0.6097 -0.6322  0.2005
 2784TIP3   OH2 8357   0.701   2.476   4.696  0.2017 -0.2901  0.0456
 2784TIP3    H1 8358   0.721   2.569   4.703  0.6011 -0.2720 -1.1240
 2784TIP3    H2 8359   0.649   2.469   4.616 -1.0697 -0.8921  0.8811
 2785TIP3   OH2 8360   2.721   4.151   1.447 -0.2866 -0.4509 -0.2320
 2785TIP3    H1 8361   2.768   4.129   1.367  2.6129  0.0603  1.2284
 2785TIP3    H2 8362   2.767   4.227   1.483 -2.5288  0.3845  1.1193
 2786TIP3   OH2 8363   0.393   4.366   3.699  0.4690 -0.3667 -0.5720
 2786TIP3    H1 8364   0.331   4.311   3.746 -0.3591  1.8548  1.1397
 2786TIP3    H2 8365   0.338   4.423   3.645  0.9670  1.1730  0.4568
 2787TIP3   OH2 8366   2.932   2.792   0.775  0.3354  0.7338  0.1344
 2787TIP3    H1 8367   2.987   2.854   0.727  2.6390  1.2087  3.0719
 2787TIP3    H2 8368   2.955   2.707   0.737 -3.0196  1.3766 -4.0952
 2788TIP3   OH2 8369   1.426   2.751   2.171 -0.0714 -0.1250 -0.3711
 2788TIP3    H1 8370   1.431   2.678   2.234  2.1749 -0.2160 -0.5891
 2788TIP3    H2 8371   1.335   2.749   2.140  0.1485 -3.5130 -1.1634
 2789TIP3   OH2 8372   5.506   3.039   1.802  0.3506 -0.3184  0.2936
 2789TIP3    H1 8373   5.593   3.073   1.823 -0.1970  1.1149  0.3950
 2789TIP3    H2 8374   5.507   2.948   1.832  2.2863 -0.8023 -1.0310
 2790TIP3   OH2 8375   1.941   5.485   0.597 -0.2725 -0.5449 -0.0562
 2790TIP3    H1 8376   1.976   5.499   0.509  1.1342 -0.1221  0.5512
 2790TIP3    H2 8377   1.862   5.432   0.583  0.4223 -1.2486 -1.5028
 2791TIP3   OH2 8378   5.226   3.299   2.361  0.2082  0.5131  0.0861
 2791TIP3    H1 8379   5.320   3.304   2.345  0.3520 -0.2593  0.6310
 2791TIP3    H2 8380   5.207   3.206   2.366 -0.8236  0.6155 -1.3038
 2792TIP3   OH2 8381   6.062   5.002   0.115  0.0942  0.3428  0.5365
 2792TIP3    H1 8382   6.086   4.927   0.061  1.1757  2.0835 -1.5266
 2792TIP3    H2 8383   5.992   4.969   0.172 -1.6796 -1.4196 -2.4194
 2793TIP3   OH2 8384   0.380   5.226   3.109 -0.0215 -0.1840 -0.2006
 2793TIP3    H1 8385   0.329   5.272   3.175 -0.2197 -0.8060  0.0871
 2793TIP3    H2 8386   0.356   5.134   3.120  0.3784 -0.3589 -0.7560
 2794TIP3   OH2 8387   5.729   5.962   4.224  0.7417 -0.0308 -0.0696
 2794TIP3    H1 8388   5.802   5.915   4.264  0.5029 -0.9809 -0.7223
 2794TIP3    H2 8389   5.663   5.895   4.209 -0.1765  0.7708  0.2790
 2795TIP3   OH2 8390   5.012   2.141   0.727  0.5015  0.1894 -0.2050
 2795TIP3    H1 8391   5.071   2.121   0.654  0.3459 -0.1004 -0.2495
 2795TIP3    H2 8392   5.024   2.235   0.742 -0.2380  0.4665 -1.2880
 2796TIP3   OH2 8393   5.698   2.777   2.048 -0.4701  0.4549  0.3147
 2796TIP3    H1 8394   5.666   2.863   2.075  0.9350  1.3982 -0.9466
 2796TIP3    H2 8395   5.710   2.730   2.131  1.1355  2.3309  1.2372
 2797TIP3   OH2 8396   3.113   2.985   1.207  0.2882 -0.1243 -0.3016
 2797TIP3    H1 8397   3.087   2.893   1.196  0.1844 -0.2309  0.6829
 2797TIP3    H2 8398   3.033   3.029   1.235  0.3931  0.2233 -0.5448
 2798TIP3   OH2 8399   5.757   0.987   1.317 -0.3004 -0.2727 -0.3013
 2798TIP3    H1 8400   5.767   0.994   1.412  1.0828 -0.9679 -0.3764
 2798TIP3    H2 8401   5.823   0.923   1.290 -0.8580 -0.2963 -1.7034
 2799TIP3   OH2 8402   4.556   5.658   4.309 -0.3149 -0.3733 -0.0012
 2799TIP3    H1 8403   4.603   5.575   4.296  1.2419  0.2262  1.4610
 2799TIP3    H2 8404   4.487   5.636   4.371  0.0500 -0.6184  0.3298
 2800TIP3   OH2 8405   5.683   1.914   3.948  0.1491 -0.1824  0.1255
 2800TIP3    H1 8406   5.616   1.846   3.956 -0.4692  0.4431  0.4166
 2800TIP3    H2 8407   5.763   1.873   3.980 -0.2789 -0.6852  0.5705
 2801TIP3   OH2 8408   5.312   2.843   3.885  0.2533  0.4469  0.4048
 2801TIP3    H1 8409   5.353   2.782   3.824 -0.9982 -0.5436  0.5043
 2801TIP3    H2 8410   5.254   2.896   3.830  1.1309  1.3972  0.3603
 2802TIP3   OH2 8411   4.179   4.251   2.475 -0.4543 -0.0673  0.2187
 2802TIP3    H1 8412   4.260   4.291   2.445 -0.3544  0.6278  1.3688
 2802TIP3    H2 8413   4.113   4.320   2.466 -0.6602 -0.2220  0.5165
 2803TIP3   OH2 8414   0.973   5.033   3.051 -0.1484 -0.3567 -0.2787
 2803TIP3    H1 8415   0.916   5.072   2.985  0.2352  1.7087  0.5279
 2803TIP3    H2 8416   0.970   5.095   3.124  1.9866 -0.9084  0.3452
 2804TIP3   OH2 8417   3.394   3.239   2.872 -0.0006 -0.9085  0.1071
 2804TIP3    H1 8418   3.360   3.153   2.897  0.2723 -1.6626 -1.9195
 2804TIP3    H2 8419   3.407   3.233   2.777 -0.8756  1.6869 -0.2759
 2805TIP3   OH2 8420   4.451   0.396   1.713  0.6740  0.3744 -0.2559
 2805TIP3    H1 8421   4.480   0.474   1.761 -0.3478  0.3298  0.4781
 2805TIP3    H2 8422   4.392   0.352   1.774  0.1163 -0.2115 -1.2039
 2806TIP3   OH2 8423   0.926   0.298   3.244 -0.9197  0.5463 -0.3980
 2806TIP3    H1 8424   0.832   0.305   3.232 -1.0135  0.6140  0.3304
 2806TIP3    H2 8425   0.946   0.207   3.221 -1.2871  0.3108  0.1659
 2807TIP3   OH2 8426   3.093   2.077   4.922  0.2631  0.4210  0.0325
 2807TIP3    H1 8427   3.143   1.996   4.914  0.4839  0.6473 -1.1895
 2807TIP3    H2 8428   3.092   2.113   4.833 -0.2160  1.5268  0.4628
 2808TIP3   OH2 8429   4.702   4.712   3.288 -0.7964  0.0815  0.0372
 2808TIP3    H1 8430   4.704   4.755   3.374 -1.3790  0.4117 -0.1116
 2808TIP3    H2 8431   4.613   4.676   3.281 -0.6894 -0.1120 -0.3489
 2809TIP3   OH2 8432   0.612   2.251   0.479 -1.0151  0.2685 -0.0193
 2809TIP3    H1 8433   0.697   2.248   0.435 -0.0052 -0.7264  1.9027
 2809TIP3    H2 8434   0.565   2.174   0.447 -0.3721 -0.3312  0.4653
 2810TIP3   OH2 8435   0.613   1.342   0.604 -0.2280  0.5850 -0.0050
 2810TIP3    H1 8436   0.642   1.419   0.556 -1.1327  0.9772  0.0527
 2810TIP3    H2 8437   0.530   1.369   0.644 -1.1332 -0.7496 -0.8842
 2811TIP3   OH2 8438   3.964   0.450   2.173  0.6115  0.1945 -0.5999
 2811TIP3    H1 8439   3.984   0.515   2.240 -0.2608 -0.0177 -0.1164
 2811TIP3    H2 8440   3.923   0.378   2.222 -1.6581  0.7567 -1.5303
 2812TIP3   OH2 8441   3.600   0.196   0.636  0.0398 -0.2546  0.1680
 2812TIP3    H1 8442   3.651   0.140   0.578  0.0948 -0.2037  0.1678
 2812TIP3    H2 8443   3.612   0.158   0.723 -0.8247 -0.9127  0.0139
 2813TIP3   OH2 8444   2.473   4.306   3.223 -0.0043  0.6686 -0.3454
 2813TIP3    H1 8445   2.446   4.397   3.232  0.7554  1.0415 -1.5421
 2813TIP3    H2 8446   2.399   4.262   3.181 -0.1327  0.8725 -0.3318
 2814TIP3   OH2 8447   4.863   3.511   0.914  0.2784  0.1816 -0.6276
 2814TIP3    H1 8448   4.954   3.515   0.885  0.2047  1.9818 -0.6943
 2814TIP3    H2 8449   4.868   3.514   1.009  0.3240 -1.0060 -0.5812
 2815TIP3   OH2 8450   0.974   3.474   4.354 -0.2140 -0.1380  0.5375
 2815TIP3    H1 8451   0.945   3.414   4.423 -1.4360 -0.5156 -0.2640
 2815TIP3    H2 8452   1.060   3.505   4.382  0.1982 -1.8528  1.2295
 2816TIP3   OH2 8453   0.961   4.707   1.027  0.4620  0.0684 -0.1018
 2816TIP3    H1 8454   0.919   4.638   0.975 -1.1033  0.9771 -0.1027
 2816TIP3    H2 8455   1.055   4.690   1.018  0.1296 -1.7209 -0.5445
 2817TIP3   OH2 8456   2.897   1.470   2.314 -0.4293 -0.0406  0.2281
 2817TIP3    H1 8457   2.956   1.499   2.384  1.5158  1.2506 -1.8278
 2817TIP3    H2 8458   2.937   1.389   2.282 -0.5756  0.0774 -0.2512
 2818TIP3   OH2 8459   6.044   1.784   4.916 -0.6741  0.7288 -0.0383
 2818TIP3    H1 8460   5.962   1.800   4.869 -1.9301 -1.9889  1.0132
 2818TIP3    H2 8461   6.111   1.827   4.863 -2.2893 -0.1702 -3.0374
 2819TIP3   OH2 8462   4.834   4.868   0.806 -0.0578 -0.1480 -0.2941
 2819TIP3    H1 8463   4.864   4.916   0.729  0.5891  1.3625  0.8510
 2819TIP3    H2 8464   4.782   4.796   0.771  0.9601 -0.0266 -2.1671
 2820TIP3   OH2 8465   3.512   2.333   2.015 -0.1421 -0.2704  0.3062
 2820TIP3    H1 8466   3.520   2.343   1.920  2.4906 -0.7983  0.3863
 2820TIP3    H2 8467   3.559   2.251   2.034  0.5564  0.5116  2.1813
 2821TIP3   OH2 8468   1.415   2.636   4.787 -0.2899  0.6473 -0.4949
 2821TIP3    H1 8469   1.332   2.596   4.813 -0.1246 -0.8388 -2.0826
 2821TIP3    H2 8470   1.390   2.720   4.750 -0.9774  0.6559 -0.0407
 2822TIP3   OH2 8471   5.798   2.461   4.551 -0.6420 -0.3440  0.1676
 2822TIP3    H1 8472   5.745   2.503   4.618  1.0333 -0.1114  1.3946
 2822TIP3    H2 8473   5.789   2.367   4.569 -3.1392 -0.5545 -1.6264
 2823TIP3   OH2 8474   0.195   0.139   0.398  0.1377 -0.1555  0.3327
 2823TIP3    H1 8475   0.169   0.127   0.307 -0.6004 -0.7805  0.6113
 2823TIP3    H2 8476   0.239   0.224   0.399  1.4868 -0.8026 -0.8661
 2824TIP3   OH2 8477   1.534   2.782   3.648  0.6553 -0.4769 -0.2039
 2824TIP3    H1 8478   1.618   2.805   3.607  0.0964 -0.6382 -1.4626
 2824TIP3    H2 8479   1.537   2.826   3.733  1.7764 -0.0067 -0.4665
 2825TIP3   OH2 8480   5.913   2.999   3.996  0.3289  0.2222 -0.3263
 2825TIP3    H1 8481   5.854   3.023   3.925 -0.8348  0.6952  0.7536
 2825TIP3    H2 8482   5.939   3.083   4.035  1.9898  0.0413 -0.9667
 2826TIP3   OH2 8483   5.116   5.439   1.452 -0.8760 -0.3542 -0.0849
 2826TIP3    H1 8484   5.073   5.364   1.410 -0.5176  0.0102 -1.1361
 2826TIP3    H2 8485   5.100   5.512   1.391  0.8331 -0.1081 -0.2670
 2827TIP3   OH2 8486   4.802   1.380   1.782  0.3200 -0.1745  0.3152
 2827TIP3    H1 8487   4.760   1.465   1.771 -0.5695 -0.7356 -0.7764
 2827TIP3    H2 8488   4.889   1.400   1.816 -0.3108  1.0935  1.2303
 2828TIP3   OH2 8489   2.658   3.969   1.667  0.2532 -0.3475 -0.0260
 2828TIP3    H1 8490   2.568   3.951   1.695  0.2365 -2.0484 -1.0482
 2828TIP3    H2 8491   2.647   4.014   1.583  0.3631  0.3965  0.3502
 2829TIP3   OH2 8492   1.965   1.567   4.723  0.3783  0.0628  0.3582
 2829TIP3    H1 8493   2.035   1.551   4.786  0.3452 -2.1860 -0.1009
 2829TIP3    H2 8494   1.898   1.613   4.773  1.2555  0.2931  1.3660
 2830TIP3   OH2 8495   3.504   0.430   2.401 -0.0163 -0.4371 -0.3343
 2830TIP3    H1 8496   3.436   0.380   2.446 -0.0463  1.0188  1.3388
 2830TIP3    H2 8497   3.461   0.512   2.377  1.4245  1.1308  2.0497
 2831TIP3   OH2 8498   1.436   4.579   5.188  0.2508  0.4892 -0.0119
 2831TIP3    H1 8499   1.491   4.501   5.194  0.3562  0.6500  1.5309
 2831TIP3    H2 8500   1.379   4.562   5.114  0.7176 -0.7661 -0.1129
 2832TIP3   OH2 8501   6.062   3.825   4.992 -0.1839  0.6430  0.0433
 2832TIP3    H1 8502   6.081   3.886   4.921 -1.7045  0.2603 -0.7301
 2832TIP3    H2 8503   6.086   3.872   5.072 -0.2007  1.7962 -0.6185
 2833TIP3   OH2 8504   0.816   2.590   4.951 -0.1602 -0.0645  0.6904
 2833TIP3    H1 8505   0.756   2.578   5.025 -0.8916  1.1001  0.3336
 2833TIP3    H2 8506   0.890   2.638   4.988 -2.0797  3.7832  0.1563
 2834TIP3   OH2 8507   3.403   4.515   1.560  1.0001  0.0110  0.1087
 2834TIP3    H1 8508   3.486   4.560   1.573  1.9830 -1.4361 -0.7927
 2834TIP3    H2 8509   3.345   4.581   1.522  1.3232  1.3705  1.8310
 2835TIP3   OH2 8510   5.229   3.918   4.199  0.4353 -0.0570 -0.0086
 2835TIP3    H1 8511   5.314   3.912   4.242 -0.6450 -1.1927  2.1190
 2835TIP3    H2 8512   5.232   3.851   4.131  0.4870 -1.6868  1.5370
 2836TIP3   OH2 8513   1.035   4.420   1.338  0.0450 -0.8015 -0.5324
 2836TIP3    H1 8514   1.078   4.505   1.329 -1.1784 -0.2877 -2.0567
 2836TIP3    H2 8515   1.089   4.360   1.285  0.8379 -0.9817  0.4436
 2837TIP3   OH2 8516   5.749   2.612   4.297 -0.2087 -0.0675  0.0678
 2837TIP3    H1 8517   5.809   2.547   4.260  0.0780  0.4162 -0.3333
 2837TIP3    H2 8518   5.697   2.563   4.361 -0.4567 -0.8394 -0.7020
 2838TIP3   OH2 8519   5.867   1.510   1.130  0.1682  0.2055 -0.1149
 2838TIP3    H1 8520   5.893   1.505   1.039 -0.5980  1.9289 -0.4660
 2838TIP3    H2 8521   5.948   1.530   1.177  0.2355  1.3601 -0.6866
 2839TIP3   OH2 8522   2.365   3.695   2.793 -0.1998 -0.2396  0.2278
 2839TIP3    H1 8523   2.390   3.722   2.881  2.0339  0.2202 -0.4814
 2839TIP3    H2 8524   2.385   3.771   2.738  0.2479 -1.1637 -0.9214
 2840TIP3   OH2 8525   0.711   2.614   2.450 -0.2141  0.4616 -0.8818
 2840TIP3    H1 8526   0.616   2.613   2.441 -0.2022  1.6988 -1.4064
 2840TIP3    H2 8527   0.743   2.561   2.376 -0.4888 -0.2751 -0.4835
 2841TIP3   OH2 8528   1.778   3.443   2.560  0.1133 -0.0088 -0.3091
 2841TIP3    H1 8529   1.688   3.415   2.580  0.5492 -1.6498 -0.5054
 2841TIP3    H2 8530   1.786   3.429   2.465  0.5432  0.2371 -0.3088
 2842TIP3   OH2 8531   5.194   5.385   0.757  0.0660  0.3918 -0.5989
 2842TIP3    H1 8532   5.158   5.342   0.834  2.3699  0.5353  0.6660
 2842TIP3    H2 8533   5.175   5.326   0.685 -1.9302  0.1263  0.0829
 2843TIP3   OH2 8534   4.426   3.086   4.181  0.7059 -0.0723 -0.1144
 2843TIP3    H1 8535   4.508   3.130   4.202 -0.0380  1.1555  0.2906
 2843TIP3    H2 8536   4.363   3.157   4.167 -0.4366 -0.9927  0.1856
 2844TIP3   OH2 8537   3.249   5.278   0.792  0.1906  0.0323  0.2576
 2844TIP3    H1 8538   3.279   5.346   0.852  0.7357  0.0531 -0.0348
 2844TIP3    H2 8539   3.169   5.244   0.833  0.9374 -0.4542  1.3759
 2845TIP3   OH2 8540   0.404   5.655   0.861  0.2738  0.3953  0.6045
 2845TIP3    H1 8541   0.398   5.593   0.933  0.2505 -0.8064 -0.3865
 2845TIP3    H2 8542   0.319   5.649   0.817  1.5594 -1.9337 -1.8514
 2846TIP3   OH2 8543   4.246   0.086   0.282  0.4239  0.1853 -0.1966
 2846TIP3    H1 8544   4.206   0.162   0.240  0.7927  0.1110 -0.6951
 2846TIP3    H2 8545   4.208   0.011   0.236 -0.0216  0.0604  0.3680
 2847TIP3   OH2 8546   4.685   4.420   2.368  0.3248 -0.6245 -0.1465
 2847TIP3    H1 8547   4.777   4.427   2.344  0.5203 -0.8673  0.5028
 2847TIP3    H2 8548   4.660   4.508   2.396 -0.5642  0.3101 -3.3534
 2848TIP3   OH2 8549   2.349   0.574   4.052  0.1504  0.2475 -0.5510
 2848TIP3    H1 8550   2.264   0.588   4.094 -0.0756  0.5277 -1.1008
 2848TIP3    H2 8551   2.335   0.593   3.960  0.4219 -1.2708 -0.9339
 2849TIP3   OH2 8552   1.757   5.903   0.540 -0.4550  0.2920  0.5739
 2849TIP3    H1 8553   1.807   5.835   0.495 -0.6085 -0.1991  1.1363
 2849TIP3    H2 8554   1.821   5.973   0.556  0.0575 -0.3228  1.2679
 2850TIP3   OH2 8555   5.550   4.144   1.877 -0.3538  0.3665  0.3520
 2850TIP3    H1 8556   5.484   4.162   1.944 -1.0139  0.2722 -0.2685
 2850TIP3    H2 8557   5.500   4.122   1.798  0.2865  3.1524 -0.9882
 2851TIP3   OH2 8558   3.564   2.327   1.737  0.2331 -0.2635 -0.2616
 2851TIP3    H1 8559   3.631   2.379   1.692 -0.2536  1.5147  0.9475
 2851TIP3    H2 8560   3.509   2.294   1.666 -0.7514  2.7741 -1.0834
 2852TIP3   OH2 8561   1.143   2.841   4.319  0.1576 -0.3965 -0.2317
 2852TIP3    H1 8562   1.106   2.772   4.263 -0.1538 -0.3629 -0.0693
 2852TIP3    H2 8563   1.125   2.812   4.408 -1.7088  0.8078 -0.1670
 2853TIP3   OH2 8564   0.118   4.999   1.179 -0.3753 -0.0534  0.3365
 2853TIP3    H1 8565   0.197   5.010   1.126 -0.3119  1.0271  0.6374
 2853TIP3    H2 8566   0.126   4.911   1.215  0.5322 -0.0820  0.0923
 2854TIP3   OH2 8567   3.736   3.531   3.556  0.4773  0.3190  0.4319
 2854TIP3    H1 8568   3.650   3.569   3.575  0.9930  1.6371  0.2583
 2854TIP3    H2 8569   3.794   3.568   3.622  1.2814  0.9702 -0.6027
 2855TIP3   OH2 8570   4.430   0.802   3.668 -0.1181 -0.0133  0.3802
 2855TIP3    H1 8571   4.510   0.815   3.719 -0.0184 -0.4947  0.3568
 2855TIP3    H2 8572   4.427   0.707   3.652  0.6061  0.2691 -1.7293
 2856TIP3   OH2 8573   1.810   2.107   0.986  0.2641 -0.3416 -0.1878
 2856TIP3    H1 8574   1.742   2.060   0.938  1.0643 -1.8686  0.0980
 2856TIP3    H2 8575   1.891   2.089   0.939  0.3822  2.5606 -1.3129
 2857TIP3   OH2 8576   3.099   3.966   0.484  0.1110  0.1576 -0.3807
 2857TIP3    H1 8577   3.111   4.052   0.445  2.4484  1.0471  1.9928
 2857TIP3    H2 8578   3.093   3.983   0.578 -2.4645 -2.0774 -0.0166
 2858TIP3   OH2 8579   0.725   5.644   3.197  0.0024  0.4662 -0.5681
 2858TIP3    H1 8580   0.732   5.563   3.247 -0.6786  0.9592  0.3782
 2858TIP3    H2 8581   0.675   5.620   3.119  0.9546 -0.2922 -0.9579
 2859TIP3   OH2 8582   5.041   2.412   0.688 -0.3471  0.2943 -0.5327
 2859TIP3    H1 8583   4.954   2.392   0.654  0.4244 -0.4445 -2.1412
 2859TIP3    H2 8584   5.075   2.478   0.629  1.2847 -1.4965 -1.6892
 2860TIP3   OH2 8585   0.231   1.335   1.991  0.2593  0.6701  0.5185
 2860TIP3    H1 8586   0.298   1.382   2.041 -0.0319  0.3446  1.2222
 2860TIP3    H2 8587   0.275   1.257   1.959  0.4081  0.8052  0.3968
 2861TIP3   OH2 8588   5.681   5.371   0.270  0.4498  0.5056 -0.4201
 2861TIP3    H1 8589   5.683   5.340   0.180  1.4717 -0.3755 -0.1169
 2861TIP3    H2 8590   5.759   5.333   0.311  0.9605  2.2806  0.3904
 2862TIP3   OH2 8591   2.108   1.083   0.967  0.1498  0.1732 -0.3598
 2862TIP3    H1 8592   2.016   1.090   0.941  0.3816 -0.0558 -1.2884
 2862TIP3    H2 8593   2.150   1.159   0.927  0.9272 -1.3141 -2.6174
 2863TIP3   OH2 8594   2.715   2.608   4.287  0.8165  0.3367  0.2677
 2863TIP3    H1 8595   2.787   2.612   4.349  1.2733  0.4876 -0.2590
 2863TIP3    H2 8596   2.669   2.691   4.297  2.0527  1.2223 -0.9432
 2864TIP3   OH2 8597   6.197   1.506   5.047  0.2587 -0.3589 -0.0388
 2864TIP3    H1 8598   6.208   1.490   5.140 -0.6881  0.2735  0.1986
 2864TIP3    H2 8599   6.118   1.560   5.041 -0.9460 -2.1656 -1.3608
 2865TIP3   OH2 8600   4.467   2.402   2.169  0.5431  0.2022 -0.2525
 2865TIP3    H1 8601   4.377   2.381   2.193  0.1451  1.1349 -0.8472
 2865TIP3    H2 8602   4.482   2.353   2.088  0.8472 -0.5783  0.2740
 2866TIP3   OH2 8603   3.243   2.563   5.058 -0.3749  0.3328  0.0937
 2866TIP3    H1 8604   3.172   2.597   5.003 -2.8818 -1.3378  2.0102
 2866TIP3    H2 8605   3.231   2.605   5.143  1.7888  0.9377  0.1608
 2867TIP3   OH2 8606   3.255   4.886   4.063  0.3114 -0.8179  0.6230
 2867TIP3    H1 8607   3.346   4.895   4.034 -0.0814  0.4530 -0.3176
 2867TIP3    H2 8608   3.203   4.908   3.985 -0.7872  0.3160  1.6267
 2868TIP3   OH2 8609   1.391   5.299   5.205 -0.7327 -0.0061 -0.2113
 2868TIP3    H1 8610   1.479   5.324   5.177 -0.5718 -0.5534 -0.2157
 2868TIP3    H2 8611   1.332   5.353   5.153 -0.4316 -0.8346 -1.4329
 2869TIP3   OH2 8612   5.299   5.102   2.580  0.1367  0.0227  0.0084
 2869TIP3    H1 8613   5.369   5.073   2.638  0.9643 -1.1768 -1.5304
 2869TIP3    H2 8614   5.231   5.036   2.588  0.0676  0.0864 -0.0452
 2870TIP3   OH2 8615   0.439   3.121   5.171 -0.0686  0.1792  0.3319
 2870TIP3    H1 8616   0.492   3.200   5.182  0.6500 -0.1598 -0.5938
 2870TIP3    H2 8617   0.502   3.053   5.148 -0.6958 -0.6421  0.9616
 2871TIP3   OH2 8618   0.762   3.242   4.975  0.3814  0.2373  0.3709
 2871TIP3    H1 8619   0.761   3.301   4.899  0.0862 -0.1696  0.0525
 2871TIP3    H2 8620   0.698   3.279   5.035 -0.7269 -0.4258 -0.3594
 2872TIP3   OH2 8621   5.615   5.583   1.895 -0.0692 -0.3446 -0.1266
 2872TIP3    H1 8622   5.523   5.592   1.869  0.1909 -1.7480 -1.6788
 2872TIP3    H2 8623   5.658   5.659   1.856 -0.2779 -0.6007 -0.8614
 2873TIP3   OH2 8624   4.101   3.710   0.405 -0.0519 -0.4521  0.4415
 2873TIP3    H1 8625   4.005   3.710   0.411  0.0033 -1.3659  1.6788
 2873TIP3    H2 8626   4.126   3.802   0.418 -0.6846 -0.4636  1.9168
 2874TIP3   OH2 8627   2.240   3.190   0.161 -0.4060  0.3996  0.3147
 2874TIP3    H1 8628   2.206   3.103   0.185 -0.8836  0.1182 -1.2092
 2874TIP3    H2 8629   2.253   3.235   0.244 -0.0164 -1.1789  1.1507
 2875TIP3   OH2 8630   4.402   4.452   2.134 -1.2205  0.2788 -0.7121
 2875TIP3    H1 8631   4.470   4.516   2.117 -0.8932 -0.5485 -2.8799
 2875TIP3    H2 8632   4.326   4.484   2.086 -1.4068 -0.3415 -0.8510
 2876TIP3   OH2 8633   3.742   4.016   1.314  0.2145 -0.4396 -0.1704
 2876TIP3    H1 8634   3.817   3.990   1.367 -0.6443 -0.3889  1.1150
 2876TIP3    H2 8635   3.675   3.951   1.334 -0.8316  0.8052  0.4799
 2877TIP3   OH2 8636   4.092   5.372   2.631  0.2585 -0.1617 -0.0687
 2877TIP3    H1 8637   4.093   5.458   2.589 -0.1543  0.4424  1.1361
 2877TIP3    H2 8638   4.172   5.330   2.600  1.2386  1.2288  0.4854
 2878TIP3   OH2 8639   5.414   5.087   3.059  0.0425  0.0164 -0.1350
 2878TIP3    H1 8640   5.443   5.178   3.069 -0.8455  0.2728  0.2208
 2878TIP3    H2 8641   5.391   5.060   3.148  1.7224 -1.0745  0.0181
 2879TIP3   OH2 8642   6.164   4.070   3.440  0.0212 -0.1940 -0.0164
 2879TIP3    H1 8643   6.136   4.018   3.516  0.7473 -0.8950 -0.2198
 2879TIP3    H2 8644   6.117   4.153   3.450  0.5199 -0.0547  1.5084
 2880TIP3   OH2 8645   1.199   3.181   3.268 -0.4088  0.5202 -0.2108
 2880TIP3    H1 8646   1.237   3.157   3.184  1.3105  0.7600  0.4648
 2880TIP3    H2 8647   1.219   3.274   3.278 -0.4004  0.4406  0.5609
 2881TIP3   OH2 8648   0.357   0.219   4.293  0.1676 -0.2742 -0.1128
 2881TIP3    H1 8649   0.391   0.130   4.282  0.2235 -0.4203  1.1435
 2881TIP3    H2 8650   0.354   0.232   4.388 -2.4766  0.0534 -0.1884
 2882TIP3   OH2 8651   5.298   3.151   0.478 -0.3987  0.6636  0.4024
 2882TIP3    H1 8652   5.218   3.149   0.532 -2.0037 -0.7375 -1.8524
 2882TIP3    H2 8653   5.328   3.060   0.479 -1.8667  0.0108 -2.8572
 2883TIP3   OH2 8654   5.631   2.092   4.394  0.2315 -0.7182 -0.1689
 2883TIP3    H1 8655   5.635   1.996   4.397  0.0456 -0.7034  2.5968
 2883TIP3    H2 8656   5.540   2.113   4.415 -0.4488  0.1097 -3.3962
 2884TIP3   OH2 8657   1.539   5.886   1.161 -0.0224  0.0302 -0.2307
 2884TIP3    H1 8658   1.476   5.896   1.090  0.6817 -0.1317 -0.8880
 2884TIP3    H2 8659   1.515   5.804   1.204 -0.5472  0.2095 -0.1763
 2885TIP3   OH2 8660   6.192   5.109   1.630  0.0557 -0.1232 -0.4698
 2885TIP3    H1 8661   6.132   5.071   1.694  0.9063 -0.6412  0.0367
 2885TIP3    H2 8662   6.138   5.126   1.553 -0.5335 -1.5655 -0.3966
 2886TIP3   OH2 8663   0.357   1.140   2.594 -0.1673  0.1263  0.2121
 2886TIP3    H1 8664   0.437   1.192   2.583 -0.5077  0.9776  1.5466
 2886TIP3    H2 8665   0.292   1.185   2.540 -0.6100  1.4732  1.8062
 2887TIP3   OH2 8666   4.170   0.949   4.743 -0.1147  0.0391 -0.0866
 2887TIP3    H1 8667   4.094   0.999   4.772  0.1873  0.4652 -0.0360
 2887TIP3    H2 8668   4.181   0.881   4.809  0.4505  0.8849  0.7144
 2888TIP3   OH2 8669   3.624   5.731   1.876  0.2004 -0.1227 -0.2929
 2888TIP3    H1 8670   3.612   5.769   1.789  0.8906  0.6092 -0.0868
 2888TIP3    H2 8671   3.719   5.734   1.890 -0.0315  1.8060  1.3542
 2889TIP3   OH2 8672   4.173   3.237   4.627 -0.3919  0.3117  0.0246
 2889TIP3    H1 8673   4.087   3.227   4.587  0.4114  0.7781 -1.9145
 2889TIP3    H2 8674   4.225   3.165   4.592  0.8527  1.7771 -1.3448
 2890TIP3   OH2 8675   3.980   5.693   2.300  0.0807  0.0865 -0.3165
 2890TIP3    H1 8676   3.933   5.615   2.270 -0.2900  1.0151 -2.3361
 2890TIP3    H2 8677   3.917   5.740   2.355 -0.6865  0.3146 -1.3586
 2891TIP3   OH2 8678   0.685   1.920   3.133  0.3078 -0.5429 -0.4949
 2891TIP3    H1 8679   0.636   1.909   3.215  0.8417 -0.6029 -0.1765
 2891TIP3    H2 8680   0.637   1.988   3.086  0.7326  0.4538  0.4653
 2892TIP3   OH2 8681   5.368   4.968   0.682 -0.4700 -0.2395  0.0872
 2892TIP3    H1 8682   5.274   4.989   0.681 -1.1939 -3.0033 -0.0985
 2892TIP3    H2 8683   5.391   4.958   0.589 -0.0549  0.1993  0.1424
 2893TIP3   OH2 8684   2.778   1.228   0.209 -0.3660  0.0942 -0.1844
 2893TIP3    H1 8685   2.848   1.185   0.258  1.6076  0.4719 -2.4598
 2893TIP3    H2 8686   2.705   1.166   0.210  0.3632 -0.7656  1.3992
 2894TIP3   OH2 8687   1.598   0.158   1.780 -0.0395  0.1139  0.2307
 2894TIP3    H1 8688   1.579   0.146   1.687 -1.5742 -3.2849  0.8318
 2894TIP3    H2 8689   1.652   0.082   1.803 -2.5201 -1.0714  2.7149
 2895TIP3   OH2 8690   5.706   0.114   0.631 -0.3188 -0.0952 -0.0516
 2895TIP3    H1 8691   5.695   0.197   0.677  0.2193 -0.1916  0.2644
 2895TIP3    H2 8692   5.715   0.139   0.539  0.1829  0.2319  0.0814
 2896TIP3   OH2 8693   0.882   1.530   5.036 -0.4017 -0.0308  0.3639
 2896TIP3    H1 8694   0.864   1.438   5.014 -0.3316  0.0565 -0.0783
 2896TIP3    H2 8695   0.960   1.551   4.986  0.2696 -0.0640  1.3709
 2897TIP3   OH2 8696   4.343   4.065   1.845 -0.0796 -0.2285  0.2459
 2897TIP3    H1 8697   4.296   4.140   1.808 -0.1231 -0.1956  0.3687
 2897TIP3    H2 8698   4.326   3.993   1.784  1.0334  0.1835 -0.6040
 2898TIP3   OH2 8699   2.845   3.442   1.919  0.3212 -1.0130 -0.1196
 2898TIP3    H1 8700   2.780   3.506   1.950 -0.0648 -1.1247 -0.6890
 2898TIP3    H2 8701   2.891   3.487   1.848 -0.2333 -1.5108 -0.8016
 2899TIP3   OH2 8702   4.272   2.664   2.764  0.4153  0.1436  0.2806
 2899TIP3    H1 8703   4.214   2.599   2.726 -0.3030  1.0607 -0.2248
 2899TIP3    H2 8704   4.357   2.619   2.771 -0.3221 -1.2030  1.0207
 2900TIP3   OH2 8705   0.078   5.309   1.898  0.1519  0.3628 -0.1954
 2900TIP3    H1 8706   0.096   5.221   1.930  4.2049  1.6003  1.5387
 2900TIP3    H2 8707   0.073   5.363   1.977 -0.2586  2.0095 -1.2907
 2901TIP3   OH2 8708   6.255   3.458   3.291  0.5894 -0.2259 -0.3783
 2901TIP3    H1 8709   6.254   3.554   3.296  2.5068 -0.2019  0.6000
 2901TIP3    H2 8710   6.175   3.431   3.337  1.0095  0.9042  1.1097
 2902TIP3   OH2 8711   2.325   0.044   4.385  0.1460  0.0009  0.2081
 2902TIP3    H1 8712   2.243   0.012   4.347  2.0781 -2.5420 -2.2825
 2902TIP3    H2 8713   2.384   0.053   4.310  1.9286  2.7458  1.7746
 2903TIP3   OH2 8714   6.145   0.590   1.271 -0.2564  0.6566 -0.2510
 2903TIP3    H1 8715   6.171   0.498   1.280 -1.6139  0.3447  0.8285
 2903TIP3    H2 8716   6.214   0.639   1.316  0.2322  0.1469 -0.4301
 2904TIP3   OH2 8717   2.222   5.597   3.415 -0.0791 -0.1353 -0.7680
 2904TIP3    H1 8718   2.130   5.576   3.431  0.2255  0.4962  2.4073
 2904TIP3    H2 8719   2.266   5.512   3.419  0.2004 -0.0391  4.6311
 2905TIP3   OH2 8720   5.495   4.907   2.024 -0.2497 -0.4727  0.0972
 2905TIP3    H1 8721   5.432   4.909   1.952  1.4357  0.0184 -1.4357
 2905TIP3    H2 8722   5.547   4.829   2.007 -0.3528 -0.8294  1.3039
 2906TIP3   OH2 8723   2.119   0.044   1.417 -0.0244 -0.2525  0.2777
 2906TIP3    H1 8724   2.104  -0.043   1.378 -2.1441 -0.7665  2.1001
 2906TIP3    H2 8725   2.212   0.061   1.399  0.1650 -2.3404 -1.1713
 2907TIP3   OH2 8726   6.121   4.604   0.340  0.5492  0.3488 -0.2437
 2907TIP3    H1 8727   6.085   4.594   0.253  0.9128 -0.1597 -0.3373
 2907TIP3    H2 8728   6.107   4.520   0.383  0.6580  0.4909  0.0764
 2908TIP3   OH2 8729   3.776   5.785   4.573 -0.0977 -0.2838 -0.2020
 2908TIP3    H1 8730   3.813   5.874   4.567  0.7232 -0.5724  0.4796
 2908TIP3    H2 8731   3.682   5.799   4.570  0.0223  0.6070 -0.2488
 2909TIP3   OH2 8732   1.159   5.649   4.058  0.5730 -0.3793  0.1440
 2909TIP3    H1 8733   1.087   5.663   3.996  0.7020 -0.2536  0.0233
 2909TIP3    H2 8734   1.140   5.564   4.097  0.1424 -0.1694  0.3981
 2910TIP3   OH2 8735   1.288   1.934   1.908  0.7344 -0.4151 -0.4747
 2910TIP3    H1 8736   1.270   1.943   1.815  1.6614 -1.3130 -0.7615
 2910TIP3    H2 8737   1.211   1.890   1.944 -0.1742  1.0291 -0.5620
 2911TIP3   OH2 8738   4.967   2.102   0.995  0.1962  0.0285  0.3859
 2911TIP3    H1 8739   4.988   2.155   0.918 -0.5137 -0.2292  0.0036
 2911TIP3    H2 8740   4.997   2.014   0.971 -1.7492 -0.4882 -0.4229
 2912TIP3   OH2 8741   5.901   1.005   4.600 -0.2979 -0.3509  0.0372
 2912TIP3    H1 8742   5.878   0.916   4.574 -1.4618 -0.2117  0.5332
 2912TIP3    H2 8743   5.966   0.993   4.669  1.4483 -0.7463 -1.5958
 2913TIP3   OH2 8744   1.654   0.466   0.541  0.8653  0.3520  0.0437
 2913TIP3    H1 8745   1.731   0.482   0.595  0.5453 -0.0384  0.6217
 2913TIP3    H2 8746   1.682   0.401   0.476  0.4692 -1.4299  1.5720
 2914TIP3   OH2 8747   2.315   1.944   2.495  0.1528  0.3025  0.2065
 2914TIP3    H1 8748   2.226   1.965   2.524  0.0568 -1.4570  1.3746
 2914TIP3    H2 8749   2.303   1.901   2.411 -0.2622 -1.1751  0.9908
 2915TIP3   OH2 8750   0.661   3.171   1.514 -0.4247  0.1615 -0.0525
 2915TIP3    H1 8751   0.643   3.145   1.424  0.2743  0.8934 -0.4139
 2915TIP3    H2 8752   0.578   3.157   1.560 -0.8547  0.0082 -0.8603
 2916TIP3   OH2 8753   1.009   4.052   4.480  0.3205  0.7593  0.3708
 2916TIP3    H1 8754   0.970   4.082   4.398 -0.0665  1.0501  0.6548
 2916TIP3    H2 8755   1.102   4.041   4.460 -0.0019 -0.6366 -0.5213
 2917TIP3   OH2 8756   0.400   3.082   4.766 -0.2059 -0.3416  0.1410
 2917TIP3    H1 8757   0.489   3.115   4.756 -0.3991  0.0289 -0.4145
 2917TIP3    H2 8758   0.344   3.157   4.749 -0.6868 -1.1732 -2.3555
 2918TIP3   OH2 8759   2.452   2.853   0.750  0.5034  0.1754 -0.0270
 2918TIP3    H1 8760   2.438   2.865   0.656 -1.2832 -2.9128 -0.2817
 2918TIP3    H2 8761   2.404   2.924   0.791 -1.6689 -0.4026 -1.4395
 2919TIP3   OH2 8762   2.933   2.637   0.312 -0.4260 -0.4029 -0.1934
 2919TIP3    H1 8763   2.881   2.560   0.288 -0.9978  0.0466 -0.4123
 2919TIP3    H2 8764   3.015   2.601   0.345 -0.0524 -1.0767 -1.7636
 2920TIP3   OH2 8765   0.981   2.378   3.892  0.4826  0.2584  0.4079
 2920TIP3    H1 8766   0.939   2.427   3.821  1.0382  0.8117  0.4561
 2920TIP3    H2 8767   0.918   2.382   3.964  0.3889  0.6294  0.3057
 2921TIP3   OH2 8768   4.145   4.932   2.049  1.2215 -0.3180  0.0872
 2921TIP3    H1 8769   4.176   4.933   1.958  1.5366  0.7295  0.2045
 2921TIP3    H2 8770   4.223   4.944   2.102  0.9238 -0.0080  0.4631
 2922TIP3   OH2 8771   0.009   4.349   2.380  0.0710 -0.3920 -0.4839
 2922TIP3    H1 8772   0.004   4.266   2.333 -1.1807  0.3774 -1.7825
 2922TIP3    H2 8773   0.068   4.403   2.327 -1.6106  0.5929 -1.4482
 2923TIP3   OH2 8774   2.443   4.139   1.167 -0.0476  0.1844  0.5279
 2923TIP3    H1 8775   2.352   4.152   1.138  0.0621  0.5275  0.3381
 2923TIP3    H2 8776   2.442   4.161   1.260  0.0721  1.2668  0.2805
 2924TIP3   OH2 8777   4.741   1.247   4.262  0.0176 -0.2952  0.7983
 2924TIP3    H1 8778   4.651   1.278   4.254 -1.1380 -3.3677  0.7251
 2924TIP3    H2 8779   4.763   1.261   4.354  0.4200  2.5385  0.3887
 2925TIP3   OH2 8780   0.563   3.722   4.514  0.8080 -0.8591  0.0352
 2925TIP3    H1 8781   0.639   3.732   4.571  0.7071 -1.9003  0.3668
 2925TIP3    H2 8782   0.542   3.629   4.518  0.4523 -0.8565 -1.2608
 2926TIP3   OH2 8783   2.237   2.555   4.334 -0.3046  0.4315 -0.0497
 2926TIP3    H1 8784   2.319   2.521   4.297 -0.9940 -1.5037  0.0959
 2926TIP3    H2 8785   2.210   2.623   4.272  1.4106  1.1781 -0.0623
 2927TIP3   OH2 8786   1.858   2.654   2.280 -0.0937  0.6447  0.9746
 2927TIP3    H1 8787   1.837   2.713   2.352  0.6493  2.1176  0.0410
 2927TIP3    H2 8788   1.824   2.699   2.202 -0.2395 -0.5592  0.3235
 2928TIP3   OH2 8789   3.751   0.501   1.338  0.1933 -0.3058 -0.0075
 2928TIP3    H1 8790   3.834   0.488   1.385 -0.0602  0.7507  0.7670
 2928TIP3    H2 8791   3.728   0.414   1.306  0.5406 -1.0113  1.5553
 2929TIP3   OH2 8792   1.211   2.844   1.933  0.1715 -0.0180 -0.1506
 2929TIP3    H1 8793   1.204   2.913   2.000 -1.4195  2.6557 -2.8614
 2929TIP3    H2 8794   1.304   2.844   1.909  1.1463 -2.1546  2.9429
 2930TIP3   OH2 8795   0.099   4.990   4.662  0.1203 -0.2587 -0.6170
 2930TIP3    H1 8796   0.098   4.971   4.756 -0.5606  0.3652 -0.4925
 2930TIP3    H2 8797   0.190   5.016   4.644  0.0117  0.6785  0.0965
 2931TIP3   OH2 8798   4.493   2.405   4.973  0.1161 -0.1426  0.3830
 2931TIP3    H1 8799   4.468   2.357   4.894 -1.3080  1.2061 -0.0292
 2931TIP3    H2 8800   4.485   2.341   5.043  0.2759 -1.0547 -0.4102
 2932TIP3   OH2 8801   1.763   3.332   1.456  0.2909 -0.4408 -0.3211
 2932TIP3    H1 8802   1.713   3.400   1.502  0.5709 -1.9062  2.3661
 2932TIP3    H2 8803   1.699   3.290   1.399 -0.2240  1.0912 -0.9310
 2933TIP3   OH2 8804   4.547   1.541   3.139  0.2717  0.3968  0.3566
 2933TIP3    H1 8805   4.518   1.632   3.149 -1.2690 -0.0165 -0.1564
 2933TIP3    H2 8806   4.527   1.501   3.224  0.2866  0.3596  0.3420
 2934TIP3   OH2 8807   0.819   3.575   0.456  0.1964 -0.3053  0.7330
 2934TIP3    H1 8808   0.813   3.657   0.407 -0.1582 -1.2040 -0.8196
 2934TIP3    H2 8809   0.912   3.568   0.480  0.0380  1.0349  1.8267
 2935TIP3   OH2 8810   4.468   5.068   4.252  0.3457  0.0361 -0.1924
 2935TIP3    H1 8811   4.443   4.991   4.201  0.8185  0.6307 -1.3820
 2935TIP3    H2 8812   4.396   5.130   4.239  0.1432 -0.0677  0.4443
 2936TIP3   OH2 8813   5.125   5.032   0.793 -0.4521 -0.3969 -0.3578
 2936TIP3    H1 8814   5.056   4.997   0.737 -0.9333 -1.5599  0.9115
 2936TIP3    H2 8815   5.079   5.090   0.854 -0.6908 -2.6380  1.7352
 2937TIP3   OH2 8816   3.483   4.437   0.281  0.5429  0.4322  0.0744
 2937TIP3    H1 8817   3.420   4.374   0.248 -0.8849  1.2304  1.1577
 2937TIP3    H2 8818   3.507   4.489   0.204 -1.1612  0.9549 -0.1584
 2938TIP3   OH2 8819   3.678   4.431   1.825 -0.8046  0.0471 -0.4880
 2938TIP3    H1 8820   3.741   4.392   1.886 -2.0120 -0.4964  0.4432
 2938TIP3    H2 8821   3.648   4.358   1.771 -2.1974 -0.1245  0.4798
 2939TIP3   OH2 8822   5.766   2.738   2.959  0.1445  0.6017  0.4511
 2939TIP3    H1 8823   5.815   2.789   3.023  1.8717 -1.6963  1.0924
 2939TIP3    H2 8824   5.711   2.680   3.011 -2.2526  2.0858 -0.2703
 2940TIP3   OH2 8825   0.389   3.980   1.654  0.3926  0.2963  0.1595
 2940TIP3    H1 8826   0.471   3.931   1.645 -0.1073 -0.2478 -2.2035
 2940TIP3    H2 8827   0.323   3.913   1.671  0.3591  0.7216  1.9478
 2941TIP3   OH2 8828   0.585   1.865   0.929  0.5719 -0.0424  0.0683
 2941TIP3    H1 8829   0.617   1.913   0.853  0.1514 -1.2262 -0.8918
 2941TIP3    H2 8830   0.497   1.835   0.903  0.9272 -1.5400  0.5145
 2942TIP3   OH2 8831   4.886   2.506   2.366 -0.2674 -0.2821 -0.4560
 2942TIP3    H1 8832   4.915   2.471   2.451 -0.2765  0.3993 -0.1665
 2942TIP3    H2 8833   4.832   2.437   2.329 -0.4825 -0.4837  0.2192
 2943TIP3   OH2 8834   3.380   0.092   1.142  0.2915 -0.0012  0.3594
 2943TIP3    H1 8835   3.413   0.063   1.058  0.2145  2.1931 -0.4942
 2943TIP3    H2 8836   3.329   0.017   1.175  0.8719 -1.1416 -1.2050
 2944TIP3   OH2 8837   2.455   2.531   0.334 -0.0742  0.1781  0.4814
 2944TIP3    H1 8838   2.373   2.533   0.384 -0.1038 -1.3383  0.5196
 2944TIP3    H2 8839   2.521   2.505   0.397  0.0687 -0.7212 -0.0308
 2945TIP3   OH2 8840   4.221   3.610   0.952  0.4223 -0.2772 -0.4199
 2945TIP3    H1 8841   4.279   3.535   0.935  0.1315 -0.9770  1.4491
 2945TIP3    H2 8842   4.247   3.642   1.038  1.9359  3.1595 -1.9767
 2946TIP3   OH2 8843   0.028   2.481   1.717 -0.0367  0.5351  0.0863
 2946TIP3    H1 8844  -0.014   2.492   1.632  1.3304  1.7351 -0.4755
 2946TIP3    H2 8845   0.043   2.387   1.725  0.7624  0.5022 -1.4851
 2947TIP3   OH2 8846   2.857   5.917   3.314  0.0945 -0.0626  0.1513
 2947TIP3    H1 8847   2.852   6.005   3.277  1.9541 -0.4210 -1.0941
 2947TIP3    H2 8848   2.765   5.893   3.330 -0.4987  1.8000 -0.1568
 2948TIP3   OH2 8849   3.697   2.176   3.919  0.3884  0.4419  0.3522
 2948TIP3    H1 8850   3.671   2.232   3.992  1.2594 -1.6147  2.3473
 2948TIP3    H2 8851   3.633   2.105   3.919 -0.3526  1.0345 -1.7582
 2949TIP3   OH2 8852   2.587   4.575   3.428  0.1494 -0.1576 -0.7136
 2949TIP3    H1 8853   2.628   4.580   3.342 -0.4545  1.8635 -0.9332
 2949TIP3    H2 8854   2.650   4.616   3.488 -0.6696  1.1763 -0.7292
 2950TIP3   OH2 8855   0.363   5.705   2.300  0.3617 -0.4403  0.3618
 2950TIP3    H1 8856   0.394   5.617   2.279  0.2231 -0.5542  0.6325
 2950TIP3    H2 8857   0.354   5.748   2.215 -0.7594 -1.0793  0.1441
 2951TIP3   OH2 8858   3.801   4.062   2.659  0.0334  0.3004 -0.3138
 2951TIP3    H1 8859   3.804   3.970   2.685  0.9772  0.5438  0.5063
 2951TIP3    H2 8860   3.828   4.110   2.738  0.1098  1.2414 -0.8988
 2952TIP3   OH2 8861   1.094   2.791   1.436 -0.4848 -0.1638  0.5848
 2952TIP3    H1 8862   1.101   2.783   1.531  0.6819  1.3500  0.6558
 2952TIP3    H2 8863   1.184   2.785   1.405 -0.7778  0.1647 -0.3542
 2953TIP3   OH2 8864   0.674   1.959   1.403  0.1312 -0.3179 -0.2876
 2953TIP3    H1 8865   0.709   2.024   1.463 -0.6209  0.6640 -0.8749
 2953TIP3    H2 8866   0.739   1.953   1.333  0.8171 -1.1708  0.4027
 2954TIP3   OH2 8867   2.086   1.652   4.468  0.5717  0.0817  0.4167
 2954TIP3    H1 8868   1.999   1.674   4.433 -0.1151 -2.8502 -0.0296
 2954TIP3    H2 8869   2.069   1.578   4.527  2.7631 -0.4992  0.3759
 2955TIP3   OH2 8870   5.741   0.820   3.635 -0.1764 -0.2231  0.6546
 2955TIP3    H1 8871   5.790   0.891   3.592  2.5041 -2.2480  0.0403
 2955TIP3    H2 8872   5.660   0.814   3.585  0.6887  0.7220 -0.9921
 2956TIP3   OH2 8873   3.413   5.488   1.315  0.0697  0.1835 -0.2550
 2956TIP3    H1 8874   3.340   5.533   1.273  0.0418  1.0955  0.6980
 2956TIP3    H2 8875   3.490   5.519   1.268 -0.0611  0.2001 -0.4586
 2957TIP3   OH2 8876   3.799   0.190   3.316  0.1841 -0.2811  0.6426
 2957TIP3    H1 8877   3.894   0.178   3.323  0.2064 -0.6773 -0.1545
 2957TIP3    H2 8878   3.764   0.101   3.310 -0.0800 -0.1114 -0.6636
 2958TIP3   OH2 8879   4.222   5.536   1.716  0.7969  0.5297 -0.1536
 2958TIP3    H1 8880   4.253   5.624   1.697  0.2686  0.7538  0.0072
 2958TIP3    H2 8881   4.132   5.535   1.685  0.3124  0.5160  1.1763
 2959TIP3   OH2 8882   4.564   3.991   3.026  0.1854 -0.0418  0.6089
 2959TIP3    H1 8883   4.639   4.013   3.082  0.4124 -1.7402  1.0387
 2959TIP3    H2 8884   4.542   3.901   3.052 -0.5801 -0.3611 -1.0820
 2960TIP3   OH2 8885   1.500   4.015   2.677 -0.3062  0.1182  0.1503
 2960TIP3    H1 8886   1.504   4.051   2.589  0.0351  1.5453  0.7297
 2960TIP3    H2 8887   1.582   3.967   2.687  0.1032  0.7805  0.0297
 2961TIP3   OH2 8888   1.992   4.629   5.043 -0.0510  0.2797  0.2304
 2961TIP3    H1 8889   2.009   4.546   4.999  0.0116 -0.0721  0.9031
 2961TIP3    H2 8890   2.000   4.695   4.974 -0.6206 -0.3176 -0.4164
 2962TIP3   OH2 8891   0.391   1.954   3.352  0.6044  0.0013 -0.3381
 2962TIP3    H1 8892   0.347   2.036   3.329  0.4189  0.0930  0.3251
 2962TIP3    H2 8893   0.368   1.940   3.444 -1.1552 -1.9265 -1.0063
 2963TIP3   OH2 8894   0.125   2.451   2.162 -0.1433 -0.0245 -0.2748
 2963TIP3    H1 8895   0.087   2.375   2.206 -2.0610  1.2462  0.3805
 2963TIP3    H2 8896   0.050   2.504   2.136  1.1362  2.7210  1.2307
 2964TIP3   OH2 8897   0.919   3.604   2.293 -0.1813 -0.5329 -0.0415
 2964TIP3    H1 8898   0.888   3.628   2.205 -0.9573 -1.2842  0.0059
 2964TIP3    H2 8899   1.014   3.594   2.283  0.3732  3.2908  0.1514
 2965TIP3   OH2 8900   2.000   3.768   3.166 -0.3575  0.5756  0.4559
 2965TIP3    H1 8901   1.916   3.749   3.123 -0.8048  1.6686  0.8134
 2965TIP3    H2 8902   1.975   3.800   3.253  0.5173 -1.6916  1.6331
 2966TIP3   OH2 8903   4.964   2.185   2.546 -0.1199 -0.1025  0.1268
 2966TIP3    H1 8904   4.959   2.102   2.499  2.0289 -0.7766  0.9644
 2966TIP3    H2 8905   5.037   2.231   2.505 -1.2096  1.3709 -0.2492
 2967TIP3   OH2 8906   2.423   5.155   0.630  0.5515  0.6432 -0.5493
 2967TIP3    H1 8907   2.399   5.211   0.557  1.0275  2.5302  0.6679
 2967TIP3    H2 8908   2.465   5.214   0.693 -0.5109 -0.7366  1.5765
 2968TIP3   OH2 8909   0.272   0.386   0.413 -0.2754  0.0776  0.0957
 2968TIP3    H1 8910   0.197   0.439   0.387 -0.4251  1.0290  2.2526
 2968TIP3    H2 8911   0.347   0.445   0.403  0.4971 -1.2513 -3.2940
 2969TIP3   OH2 8912   5.379   3.469   2.772 -0.2534  0.2299  0.4535
 2969TIP3    H1 8913   5.285   3.463   2.792 -0.8255 -0.2387 -2.0872
 2969TIP3    H2 8914   5.384   3.533   2.701  1.2355 -0.4355 -0.0675
 2970TIP3   OH2 8915   2.060  -0.001   4.032  0.2229  0.0160 -0.5245
 2970TIP3    H1 8916   2.060  -0.039   4.119  0.1042 -1.3466 -1.0948
 2970TIP3    H2 8917   1.990   0.065   4.035 -0.1697 -0.4236  0.2376
 2971TIP3   OH2 8918   4.370   2.932   2.286 -0.1007  0.3562  0.2901
 2971TIP3    H1 8919   4.349   2.857   2.230 -0.5475  1.2517 -0.7776
 2971TIP3    H2 8920   4.464   2.946   2.273 -0.4045  1.2586 -1.1690
 2972TIP3   OH2 8921   1.399   5.134   4.118 -0.7941  0.4280 -0.3283
 2972TIP3    H1 8922   1.462   5.205   4.105 -0.8989  0.7874  1.0163
 2972TIP3    H2 8923   1.434   5.061   4.068  1.2325  0.2908  1.1905
 2973TIP3   OH2 8924   5.919   2.508   1.598 -0.1616 -0.2787 -0.4520
 2973TIP3    H1 8925   5.854   2.473   1.659 -0.8177 -2.0419 -2.0697
 2973TIP3    H2 8926   5.881   2.590   1.567  0.4151  0.9394  1.7958
 2974TIP3   OH2 8927   0.472   1.259   4.865  0.4148  0.5358  0.1333
 2974TIP3    H1 8928   0.507   1.203   4.935  0.6474  1.3551  0.6875
 2974TIP3    H2 8929   0.538   1.327   4.853  1.5497 -0.8766 -2.5618
 2975TIP3   OH2 8930   6.308   4.063   2.945 -0.3584  0.3636 -0.0593
 2975TIP3    H1 8931   6.329   4.155   2.962  0.9920  0.0642 -0.0266
 2975TIP3    H2 8932   6.215   4.056   2.966  0.1580  1.0536  2.8911
 2976TIP3   OH2 8933   0.484   5.452   2.428  0.1382 -0.0198  0.4295
 2976TIP3    H1 8934   0.516   5.384   2.488 -0.7609 -0.2382  0.6687
 2976TIP3    H2 8935   0.451   5.403   2.353  0.4526  0.2129  0.1377
 2977TIP3   OH2 8936   2.143   5.302   1.578  0.3690 -0.1110 -0.0897
 2977TIP3    H1 8937   2.070   5.362   1.594 -0.0240 -0.6409  0.1415
 2977TIP3    H2 8938   2.142   5.287   1.483  0.0492 -0.2737 -0.0609
 2978TIP3   OH2 8939   2.428   1.850   1.828 -0.2537 -0.0907 -0.7285
 2978TIP3    H1 8940   2.380   1.906   1.767 -1.3567 -1.0216 -0.7580
 2978TIP3    H2 8941   2.434   1.766   1.783  0.1209 -0.4032 -0.1045
 2979TIP3   OH2 8942   0.059   5.452   3.827  0.2490 -0.4299 -0.8161
 2979TIP3    H1 8943   0.082   5.514   3.896 -2.9242 -1.2978  1.2287
 2979TIP3    H2 8944   0.099   5.370   3.854  0.3749 -0.3995 -0.9085
 2980TIP3   OH2 8945   5.107   2.673   0.659 -0.0067 -0.7784 -0.1640
 2980TIP3    H1 8946   5.035   2.699   0.716  0.8943 -0.3576  0.8246
 2980TIP3    H2 8947   5.183   2.719   0.695  0.4730  0.0129 -2.1091
 2981TIP3   OH2 8948   2.706   5.583   4.455 -0.0839 -0.3762  0.2773
 2981TIP3    H1 8949   2.686   5.491   4.436 -0.3779 -0.0213 -1.2373
 2981TIP3    H2 8950   2.700   5.627   4.370  1.2893  0.8286  0.7568
 2982TIP3   OH2 8951   2.294   2.228   3.122 -0.6024 -0.0834 -0.1322
 2982TIP3    H1 8952   2.384   2.258   3.114  0.2454 -2.2000  0.6528
 2982TIP3    H2 8953   2.289   2.191   3.210 -1.8031 -1.3209 -0.6795
 2983TIP3   OH2 8954   2.153   3.791   0.454 -0.5879  0.1139  0.6877
 2983TIP3    H1 8955   2.068   3.759   0.424 -0.8572  3.6562 -3.2312
 2983TIP3    H2 8956   2.134   3.877   0.491  1.2930  1.7398 -1.8201
 2984TIP3   OH2 8957   4.434   1.942   1.164  0.2751 -0.3922 -0.0276
 2984TIP3    H1 8958   4.484   1.861   1.155  0.8072  0.0644 -1.5184
 2984TIP3    H2 8959   4.492   2.000   1.214  0.6216 -0.3675 -0.4498
 2985TIP3   OH2 8960   5.555   4.664   0.920  0.0873  0.0456 -0.7822
 2985TIP3    H1 8961   5.590   4.670   1.009 -0.6493  0.2535 -0.4992
 2985TIP3    H2 8962   5.566   4.752   0.884 -1.1494  0.4283 -0.2929
 2986TIP3   OH2 8963   3.571   3.594   2.009 -0.2332  0.4851  0.0483
 2986TIP3    H1 8964   3.554   3.663   1.945  1.3009  0.0408 -0.9170
 2986TIP3    H2 8965   3.610   3.523   1.957  0.1475 -0.2789  1.3292
 2987TIP3   OH2 8966   4.090   1.382   4.260 -0.4438  0.5818 -0.1705
 2987TIP3    H1 8967   4.172   1.405   4.304 -0.6703  1.9276 -0.4262
 2987TIP3    H2 8968   4.119   1.343   4.177 -0.0512  0.4195  0.0389
 2988TIP3   OH2 8969   1.809   0.926   4.580 -0.2697 -0.4811  0.4760
 2988TIP3    H1 8970   1.789   1.010   4.540  0.5065  0.0224  1.1147
 2988TIP3    H2 8971   1.903   0.915   4.569 -0.4980 -1.7431 -0.4806
 2989TIP3   OH2 8972   5.926   0.600   3.811  0.0409  0.1261  0.3262
 2989TIP3    H1 8973   5.842   0.646   3.804 -1.1763 -1.8341  1.1591
 2989TIP3    H2 8974   5.917   0.524   3.752  1.8387  0.6652 -0.7344
 2990TIP3   OH2 8975   2.473   3.861   4.902  0.0279 -0.3986 -0.0464
 2990TIP3    H1 8976   2.387   3.876   4.941  0.6078 -2.1609  2.0762
 2990TIP3    H2 8977   2.517   3.946   4.908 -1.0737  0.1888  0.0280
 2991TIP3   OH2 8978   4.304   3.745   3.181 -0.0443  0.6138 -0.2469
 2991TIP3    H1 8979   4.265   3.787   3.104  0.7998  2.8377  0.4663
 2991TIP3    H2 8980   4.312   3.815   3.245  0.1437 -0.9814  1.5706
 2992TIP3   OH2 8981   4.450   3.253   3.859  0.0164 -0.1305 -0.3575
 2992TIP3    H1 8982   4.384   3.274   3.925 -2.4880 -0.2189 -2.6963
 2992TIP3    H2 8983   4.480   3.339   3.828  2.0758 -0.0478  1.5205
 2993TIP3   OH2 8984   5.001   0.629   1.432 -0.1309 -0.4781 -0.4963
 2993TIP3    H1 8985   5.058   0.704   1.448 -1.5279  0.6499 -0.5672
 2993TIP3    H2 8986   5.047   0.554   1.470  1.8857  0.1707 -1.5427
 2994TIP3   OH2 8987   4.353   5.720   3.566 -0.3543  0.0817  0.1411
 2994TIP3    H1 8988   4.340   5.718   3.472  1.7509  2.7616 -0.3374
 2994TIP3    H2 8989   4.421   5.654   3.582  1.9366  1.9935 -0.9086
 2995TIP3   OH2 8990   0.660   2.723   2.726 -0.3341 -0.5884 -0.2559
 2995TIP3    H1 8991   0.702   2.807   2.709 -1.8541  0.1503 -0.4900
 2995TIP3    H2 8992   0.705   2.662   2.667 -0.1271  0.3422 -1.1025
 2996TIP3   OH2 8993   0.529   4.193   3.515  0.0858 -0.0954 -0.8393
 2996TIP3    H1 8994   0.534   4.169   3.608 -4.4690 -0.2879 -0.3973
 2996TIP3    H2 8995   0.511   4.287   3.516 -0.1700 -0.1360 -1.5021
 2997TIP3   OH2 8996   1.861   2.637   4.209 -0.2608  0.1890 -0.1816
 2997TIP3    H1 8997   1.884   2.590   4.289 -0.3966  1.0741  0.3912
 2997TIP3    H2 8998   1.946   2.655   4.167 -0.1908 -0.3016 -0.2571
 2998TIP3   OH2 8999   4.440   0.756   0.772  0.4183 -0.4031  0.2691
 2998TIP3    H1 9000   4.347   0.732   0.765  0.1754  0.4940  0.3050
 2998TIP3    H2 9001   4.485   0.693   0.716 -0.2687 -0.5356 -0.1501
 2999TIP3   OH2 9002   0.834   0.995   3.761  0.5324 -0.2377  0.5808
 2999TIP3    H1 9003   0.764   0.937   3.790  0.9446 -2.2340 -2.0160
 2999TIP3    H2 9004   0.915   0.947   3.779  0.9849  0.1962 -0.1973
 3000TIP3   OH2 9005   2.796   0.207   3.157 -0.3667 -0.8489 -0.5664
 3000TIP3    H1 9006   2.768   0.116   3.159 -1.5824 -0.4964 -0.4127
 3000TIP3    H2 9007   2.793   0.231   3.065 -3.7808  0.0617 -0.3638
 3001TIP3   OH2 9008   1.635   2.251   0.280 -0.4186  0.1594  0.1565
 3001TIP3    H1 9009   1.547   2.237   0.245 -0.9113  0.5525  1.1876
 3001TIP3    H2 9010   1.670   2.163   0.293 -0.0980 -0.0087 -1.5369
 3002TIP3   OH2 9011   3.672   4.959   3.363 -0.6312  0.0432 -0.2159
 3002TIP3    H1 9012   3.741   5.020   3.391 -0.5476 -0.4044  0.5620
 3002TIP3    H2 9013   3.591   4.999   3.394 -0.7494  0.6332 -1.2400
 3003TIP3   OH2 9014   0.240   1.102   4.913 -0.5902  0.0592 -0.2020
 3003TIP3    H1 9015   0.311   1.163   4.894 -1.3993  1.8848  2.1351
 3003TIP3    H2 9016   0.173   1.156   4.954 -3.4342 -1.5631 -2.3352
 3004TIP3   OH2 9017   4.046   0.283   2.744  1.0924  0.2173 -0.1105
 3004TIP3    H1 9018   4.052   0.254   2.835 -0.1920 -1.9105 -0.6268
 3004TIP3    H2 9019   3.953   0.274   2.722  0.9878  2.8018 -1.0172
 3005TIP3   OH2 9020   3.079   2.320   4.020 -0.0175  0.4071 -0.1134
 3005TIP3    H1 9021   2.984   2.326   4.011 -0.2032  2.2432  2.2455
 3005TIP3    H2 9022   3.096   2.341   4.111  2.7147  0.4868 -0.5652
 3006TIP3   OH2 9023   5.293   3.561   0.453 -0.2016  0.3668 -0.1049
 3006TIP3    H1 9024   5.333   3.597   0.374  0.6166 -0.3405 -0.0361
 3006TIP3    H2 9025   5.200   3.578   0.443 -0.1870 -0.2746 -1.5177
 3007TIP3   OH2 9026   0.931   2.469   3.011  0.1447  0.4223 -0.1665
 3007TIP3    H1 9027   0.969   2.435   2.931  1.0908  1.2595 -0.0834
 3007TIP3    H2 9028   1.002   2.465   3.075 -0.3229  0.6684  0.3785
 3008TIP3   OH2 9029   0.098   5.482   4.936 -0.2666 -0.3485 -0.1134
 3008TIP3    H1 9030   0.070   5.573   4.945 -0.5399 -0.5271  0.8838
 3008TIP3    H2 9031   0.034   5.444   4.876  0.8824  0.5429 -2.0154
 3009TIP3   OH2 9032   1.434   2.895   0.309  0.5530  0.7049 -0.7721
 3009TIP3    H1 9033   1.452   2.855   0.224  4.3228 -0.5202  0.3605
 3009TIP3    H2 9034   1.499   2.965   0.316 -1.4984  2.6291  0.0740
 3010TIP3   OH2 9035   2.877   5.934   2.564  0.1733  0.4467 -0.4910
 3010TIP3    H1 9036   2.940   5.865   2.587 -1.5507 -1.4936 -1.2419
 3010TIP3    H2 9037   2.825   5.946   2.643 -0.9000 -0.7312 -0.9838
 3011TIP3   OH2 9038   4.367   4.410   4.677 -0.1675 -0.4690 -0.2461
 3011TIP3    H1 9039   4.371   4.345   4.606 -0.2704 -0.4774 -0.2445
 3011TIP3    H2 9040   4.292   4.382   4.730  0.9377 -1.4900  0.8553
 3012TIP3   OH2 9041   2.769   3.022   3.921  0.5720 -0.1554  0.2724
 3012TIP3    H1 9042   2.789   3.116   3.924 -0.9515  0.1745  0.8729
 3012TIP3    H2 9043   2.845   2.983   3.879  3.2251  0.7891  3.7427
 3013TIP3   OH2 9044   2.032   2.096   3.913 -0.1105 -0.4661 -0.1849
 3013TIP3    H1 9045   2.005   2.114   4.003  0.5082  0.9517 -0.2566
 3013TIP3    H2 9046   2.013   2.177   3.866  0.8267 -0.7201 -1.0304
 3014TIP3   OH2 9047   5.498   0.753   0.405  0.0666  0.6164  0.3067
 3014TIP3    H1 9048   5.467   0.664   0.386 -0.3302  1.1462 -1.7086
 3014TIP3    H2 9049   5.552   0.743   0.483  1.3322 -1.6754 -0.7571
 3015TIP3   OH2 9050   5.483   4.760   4.606  0.5825  0.3572 -0.1775
 3015TIP3    H1 9051   5.455   4.676   4.570 -0.4834  0.7589 -0.3129
 3015TIP3    H2 9052   5.579   4.757   4.602  0.5483 -0.7038 -0.5021
 3016TIP3   OH2 9053   4.253   3.328   0.270 -0.1159 -0.4008  0.0335
 3016TIP3    H1 9054   4.295   3.371   0.343  1.0924 -1.8115  0.2200
 3016TIP3    H2 9055   4.160   3.349   0.279  0.3346  1.4964  0.5024
 3017TIP3   OH2 9056   3.443   1.323   2.584  0.2350  0.2624  0.8252
 3017TIP3    H1 9057   3.518   1.375   2.613  1.0651 -0.3757 -0.0848
 3017TIP3    H2 9058   3.472   1.232   2.595  0.9256 -0.0692 -2.5255
 3018TIP3   OH2 9059   0.934   1.120   3.069 -0.3509  0.0938 -0.7011
 3018TIP3    H1 9060   0.978   1.182   3.128  3.4041 -2.8792 -0.0078
 3018TIP3    H2 9061   0.863   1.084   3.123 -1.2308  2.0973 -0.4024
 3019TIP3   OH2 9062   2.344   0.961   2.977  0.0670 -0.2251  0.1609
 3019TIP3    H1 9063   2.416   0.922   2.928  1.1492  1.0467  0.7049
 3019TIP3    H2 9064   2.281   0.889   2.987 -0.0664 -0.6335 -2.7441
 3020TIP3   OH2 9065   0.778   1.466   2.121 -0.5247 -0.3683  0.0913
 3020TIP3    H1 9066   0.748   1.429   2.204  1.0282 -1.1215  0.3586
 3020TIP3    H2 9067   0.820   1.548   2.146  0.8939 -1.1019  0.2319
 3021TIP3   OH2 9068   4.624   0.406   0.301  0.3356  0.2317 -0.4290
 3021TIP3    H1 9069   4.692   0.358   0.349  0.2447 -0.6586 -1.1513
 3021TIP3    H2 9070   4.641   0.498   0.320  0.7410 -0.0641  0.7079
 3022TIP3   OH2 9071   5.923   5.524   2.020 -0.3613  0.8449  0.1842
 3022TIP3    H1 9072   5.874   5.542   1.939 -0.3967 -0.9667 -0.2421
 3022TIP3    H2 9073   6.015   5.530   1.994 -0.3713 -0.2500 -0.1322
 3023TIP3   OH2 9074   2.304   2.432   0.076 -0.4004 -0.4944  0.3954
 3023TIP3    H1 9075   2.216   2.400   0.100 -0.9310  0.7558  0.2152
 3023TIP3    H2 9076   2.343   2.457   0.159 -0.3177 -0.8101  0.4512
 3024TIP3   OH2 9077   1.400   3.160   4.195 -0.2965 -0.2449  0.0996
 3024TIP3    H1 9078   1.436   3.119   4.274 -0.3808 -0.1565  0.1837
 3024TIP3    H2 9079   1.446   3.117   4.123  1.7765  1.5095  0.2639
 3025TIP3   OH2 9080   4.706   4.624   0.691  0.1602 -0.9922  0.4387
 3025TIP3    H1 9081   4.656   4.549   0.725 -0.5184 -0.5319  0.4808
 3025TIP3    H2 9082   4.792   4.587   0.669 -0.5512 -2.0507 -0.7067
 3026TIP3   OH2 9083   4.270   2.487   0.874 -0.3928  0.0267  1.0707
 3026TIP3    H1 9084   4.247   2.394   0.878 -1.3935  0.2627  1.0190
 3026TIP3    H2 9085   4.239   2.516   0.789  2.0337 -0.1001  0.0428
 3027TIP3   OH2 9086   2.011   1.007   1.658  0.4634  0.1753  0.1379
 3027TIP3    H1 9087   2.087   0.996   1.714  1.4941 -0.0731 -1.2630
 3027TIP3    H2 9088   2.042   0.985   1.570 -1.3473 -0.4140 -0.4028
 3028TIP3   OH2 9089   1.119   1.867   4.175  0.8591 -0.5025 -0.5326
 3028TIP3    H1 9090   1.137   1.919   4.096  0.1249  0.0253 -0.3659
 3028TIP3    H2 9091   1.024   1.854   4.174  0.4237  1.7187  1.5760
 3029TIP3   OH2 9092   5.129   0.156   4.993  0.1068  0.6571  0.1789
 3029TIP3    H1 9093   5.059   0.092   5.004  0.4683  0.4580  1.4303
 3029TIP3    H2 9094   5.100   0.233   5.040  0.8155  0.4956  0.9037
 3030TIP3   OH2 9095   2.138   2.298   0.958  0.2333  0.1247 -0.4250
 3030TIP3    H1 9096   2.109   2.351   0.884  1.4414 -0.1491 -1.1238
 3030TIP3    H2 9097   2.160   2.361   1.026  0.3710  0.4517 -0.7727
 3031TIP3   OH2 9098   0.432   0.953   3.698 -0.5309  0.2128 -0.1303
 3031TIP3    H1 9099   0.391   0.955   3.785 -2.9428  1.1424 -1.2061
 3031TIP3    H2 9100   0.485   1.033   3.695 -1.4588  0.8446  0.0431
 3032TIP3   OH2 9101   0.847   2.224   2.410  0.0882  0.0621  0.6546
 3032TIP3    H1 9102   0.777   2.208   2.473 -0.5657  0.2243 -0.0187
 3032TIP3    H2 9103   0.878   2.137   2.385 -1.4993 -0.1227 -0.8285
 3033TIP3   OH2 9104   5.174   2.637   2.647 -0.2353 -0.3913  0.0262
 3033TIP3    H1 9105   5.221   2.593   2.576  0.8270  0.0301  0.4431
 3033TIP3    H2 9106   5.243   2.674   2.702 -1.0456 -0.4127  1.0934
 3034TIP3   OH2 9107   4.074   0.823   4.484  0.0923  0.4544  0.5632
 3034TIP3    H1 9108   4.013   0.889   4.451 -2.1973 -0.1784  3.1271
 3034TIP3    H2 9109   4.119   0.865   4.557 -0.2676 -0.3005  1.2386
 3035TIP3   OH2 9110   1.115   2.835   0.103  0.1545 -0.1345  0.1377
 3035TIP3    H1 9111   1.031   2.880   0.096  0.8231  1.3400  0.9961
 3035TIP3    H2 9112   1.136   2.808   0.014 -0.3543  1.1576 -0.3917
 3036TIP3   OH2 9113   1.993   5.569   3.623 -0.0973  0.6290  0.0419
 3036TIP3    H1 9114   1.907   5.542   3.655  0.7467 -2.1587  0.2443
 3036TIP3    H2 9115   2.052   5.552   3.697  0.6271  2.7564  0.0089
 3037TIP3   OH2 9116   4.286   0.206   3.428 -0.0466  0.1653 -0.6095
 3037TIP3    H1 9117   4.323   0.210   3.340 -0.2112 -0.5237 -0.7112
 3037TIP3    H2 9118   4.299   0.295   3.463  0.4276  0.3181 -1.1548
 3038TIP3   OH2 9119   5.169   1.914   2.178 -0.7047 -0.0405 -0.4921
 3038TIP3    H1 9120   5.243   1.966   2.210 -1.6698  1.2263 -0.2485
 3038TIP3    H2 9121   5.191   1.824   2.202  1.2215  0.1597 -1.3218
 3039TIP3   OH2 9122   0.375   0.707   2.633  0.7834 -0.1740 -0.5600
 3039TIP3    H1 9123   0.369   0.735   2.542  0.9326  0.2075 -0.4548
 3039TIP3    H2 9124   0.389   0.788   2.682  1.1765 -0.4262 -0.2450
 3040TIP3   OH2 9125   6.339   1.047   1.643  0.0308 -0.3125 -0.0686
 3040TIP3    H1 9126   6.294   1.073   1.723 -0.8899  1.2467 -1.0354
 3040TIP3    H2 9127   6.352   0.952   1.651 -3.2446 -0.8171  0.3812
 3041TIP3   OH2 9128   2.392   1.313   3.291 -0.1993 -0.1078  0.7489
 3041TIP3    H1 9129   2.325   1.381   3.298 -1.1761 -0.8224 -0.9831
 3041TIP3    H2 9130   2.345   1.236   3.259  1.6512 -0.1959 -2.0965
 3042TIP3   OH2 9131   4.967   0.756   4.754 -0.1208 -0.0103 -0.3451
 3042TIP3    H1 9132   4.935   0.800   4.675  0.3230  1.1855  0.1129
 3042TIP3    H2 9133   4.920   0.798   4.826 -0.9928 -1.5240  0.0196
 3043TIP3   OH2 9134   1.754   1.637   3.901 -0.0824  0.3550  0.4053
 3043TIP3    H1 9135   1.723   1.674   3.818 -0.2848  0.6598  0.6129
 3043TIP3    H2 9136   1.837   1.681   3.917 -0.1339  0.4348  0.4562
 3044TIP3   OH2 9137   3.354   5.476   0.984  0.4704  0.5378  0.1514
 3044TIP3    H1 9138   3.305   5.543   1.031  0.2433  0.9442 -0.6487
 3044TIP3    H2 9139   3.445   5.490   1.011  0.3886  0.9876  0.2010
 3045TIP3   OH2 9140   3.730   2.994   2.989  0.6196 -0.8562  0.0091
 3045TIP3    H1 9141   3.636   2.987   3.003  0.7281 -2.5353  0.0687
 3045TIP3    H2 9142   3.739   3.047   2.910 -0.3389 -0.0812  0.4038
 3046TIP3   OH2 9143   1.314   1.635   0.625  0.0058  0.1207  0.1254
 3046TIP3    H1 9144   1.273   1.602   0.705  2.0449 -0.9067  0.8165
 3046TIP3    H2 9145   1.330   1.557   0.572  0.4786  0.5651 -0.3950
 3047TIP3   OH2 9146   4.510   4.982   0.792  0.1793  0.3554 -0.0399
 3047TIP3    H1 9147   4.588   5.036   0.803  0.4020 -0.3513  2.3705
 3047TIP3    H2 9148   4.536   4.914   0.730  1.3223  0.4024  0.3819
 3048TIP3   OH2 9149   5.366   2.747   4.136 -0.1458  0.1257 -0.7057
 3048TIP3    H1 9150   5.318   2.781   4.060 -0.4360 -1.5294 -1.3183
 3048TIP3    H2 9151   5.444   2.707   4.099  0.6872  0.9676  0.0867
 3049TIP3   OH2 9152   1.800   1.978   1.256 -0.4579  0.2534  0.4292
 3049TIP3    H1 9153   1.834   2.016   1.175 -0.1073 -1.1956 -0.1349
 3049TIP3    H2 9154   1.740   1.909   1.227 -0.6049 -0.0523  1.4045
 3050TIP3   OH2 9155   2.815   1.865   2.628 -0.0870 -0.2979 -0.1945
 3050TIP3    H1 9156   2.729   1.905   2.622 -1.9354 -3.5808  1.3420
 3050TIP3    H2 9157   2.823   1.814   2.547  1.8951  2.3141 -1.7836
 3051TIP3   OH2 9158   1.210   5.410   3.446  0.0888  0.2191  0.3991
 3051TIP3    H1 9159   1.179   5.320   3.435  0.9886 -0.1515  0.8629
 3051TIP3    H2 9160   1.305   5.403   3.453  0.6774  1.5790 -3.7128
 3052TIP3   OH2 9161   1.859   0.564   0.077  0.2379 -0.2682 -0.2018
 3052TIP3    H1 9162   1.772   0.523   0.078 -0.0860  0.4216  1.2105
 3052TIP3    H2 9163   1.904   0.526   0.152  0.5446  0.6653  0.0963
 3053TIP3   OH2 9164   3.600   4.556   0.035 -0.5101  0.3567  0.0949
 3053TIP3    H1 9165   3.619   4.626  -0.027 -0.0192 -0.3437 -0.5670
 3053TIP3    H2 9166   3.686   4.529   0.069 -0.4435 -1.3800 -1.3042
 3054TIP3   OH2 9167   1.210   3.528   2.690 -0.4501  0.0217 -0.3732
 3054TIP3    H1 9168   1.290   3.576   2.711  0.9742 -1.8048 -1.2867
 3054TIP3    H2 9169   1.176   3.571   2.611 -0.3779  0.7949  0.0067
 3055TIP3   OH2 9170   1.732   0.291   3.029 -0.1430 -0.3435 -0.4937
 3055TIP3    H1 9171   1.817   0.249   3.036 -0.4914 -1.8225 -3.4667
 3055TIP3    H2 9172   1.741   0.352   2.956 -1.1159  0.9049  0.3912
 3056TIP3   OH2 9173   1.084   1.380   2.988 -0.3916 -0.1680 -0.4011
 3056TIP3    H1 9174   1.095   1.347   3.077 -0.1196  0.1189 -0.3261
 3056TIP3    H2 9175   1.092   1.475   2.996 -0.1323 -0.1561 -0.7630
 3057TIP3   OH2 9176   5.627   3.869   1.891 -0.0553 -0.3833 -0.1175
 3057TIP3    H1 9177   5.708   3.865   1.942 -0.2822 -1.1048  0.1985
 3057TIP3    H2 9178   5.609   3.963   1.882  1.7636 -0.1016 -1.7140
 3058TIP3   OH2 9179   1.984   1.791   1.386  0.0711  0.0530 -1.2946
 3058TIP3    H1 9180   1.915   1.846   1.349 -0.9081 -0.4607 -0.3090
 3058TIP3    H2 9181   2.009   1.731   1.315  0.1640  0.8355 -1.9370
 3059TIP3   OH2 9182   1.355   3.695   3.484 -0.2017  0.1862  0.1606
 3059TIP3    H1 9183   1.406   3.771   3.512  1.5398 -0.4115 -1.2265
 3059TIP3    H2 9184   1.403   3.620   3.519 -2.1897 -0.3294  1.9784
 3060TIP3   OH2 9185   2.846   3.055   4.354 -0.2018  0.0983 -0.1344
 3060TIP3    H1 9186   2.851   3.084   4.445 -0.8987  0.7634 -0.2937
 3060TIP3    H2 9187   2.881   3.128   4.304 -0.3242 -0.0477 -0.4342
 3061TIP3   OH2 9188   2.105   5.701   0.644 -0.1616 -0.3548 -0.3895
 3061TIP3    H1 9189   2.166   5.647   0.695 -0.9739 -0.0245  0.9611
 3061TIP3    H2 9190   2.029   5.645   0.630 -0.5739  0.0740  0.1051
 3062TIP3   OH2 9191   1.626   4.849   4.519 -0.2296  0.0200  0.1885
 3062TIP3    H1 9192   1.703   4.819   4.566 -0.0420  1.3485  0.7566
 3062TIP3    H2 9193   1.555   4.845   4.583 -0.6181 -0.9909 -0.2714
 3063TIP3   OH2 9194   1.703   0.823   0.089  0.5558  0.8501  0.5153
 3063TIP3    H1 9195   1.703   0.828   0.185 -1.3493 -0.7915  0.6542
 3063TIP3    H2 9196   1.781   0.772   0.068  0.5670  0.5537  1.2380
 3064TIP3   OH2 9197   1.157   3.109   4.365  0.1191  0.3164  0.0002
 3064TIP3    H1 9198   1.171   3.156   4.283 -1.3178  0.3859 -0.2290
 3064TIP3    H2 9199   1.194   3.022   4.350 -1.6466 -0.2466 -1.3594
 3065TIP3   OH2 9200   2.102   5.044   0.866  0.0596 -0.6190  0.0483
 3065TIP3    H1 9201   2.131   5.000   0.946 -1.0449 -0.3489  0.6134
 3065TIP3    H2 9202   2.006   5.041   0.870 -0.0211  0.3740 -0.7204
 3066TIP3   OH2 9203   5.870   3.707   1.367 -0.1554 -0.8967  0.2026
 3066TIP3    H1 9204   5.923   3.787   1.363 -1.1312 -0.2109  0.5508
 3066TIP3    H2 9205   5.918   3.651   1.428 -0.2506  0.0567  1.1930
 3067TIP3   OH2 9206   4.271   3.344   4.064 -0.1891 -0.3137  0.3293
 3067TIP3    H1 9207   4.233   3.364   3.979  0.8431 -0.6732 -0.2236
 3067TIP3    H2 9208   4.208   3.380   4.127 -0.8311  0.1853 -0.5770
 3068TIP3   OH2 9209   1.261   3.999   0.224 -0.1447  0.2277  0.5809
 3068TIP3    H1 9210   1.281   4.012   0.316  0.3221  1.5301  0.3096
 3068TIP3    H2 9211   1.346   3.980   0.184 -0.4475 -1.1333  0.5232
 3069TIP3   OH2 9212   5.043   0.814   0.462 -0.3716  0.3019 -0.1348
 3069TIP3    H1 9213   5.055   0.900   0.422 -2.3378  0.7058  0.0545
 3069TIP3    H2 9214   4.986   0.830   0.537 -1.4256 -1.2668 -0.5592
 3070TIP3   OH2 9215   5.488   0.313   3.990 -0.2334 -0.1551  0.2787
 3070TIP3    H1 9216   5.420   0.294   3.926  0.9150 -0.1945 -0.9879
 3070TIP3    H2 9217   5.479   0.244   4.056 -1.9710  0.3719  0.6446
 3071TIP3   OH2 9218   0.168   1.207   4.072  0.3754 -0.4193  0.0037
 3071TIP3    H1 9219   0.262   1.223   4.062  0.1666 -0.6703 -3.1030
 3071TIP3    H2 9220   0.160   1.172   4.161  3.6830 -3.2167 -0.5577
 3072TIP3   OH2 9221   3.998   1.000   3.891  0.2621 -0.0650  0.8977
 3072TIP3    H1 9222   4.063   1.068   3.909  0.2269 -0.1999  1.5473
 3072TIP3    H2 9223   3.986   0.955   3.975 -0.8030  0.0678  0.8236
 3073TIP3   OH2 9224   0.117   0.777   3.902  0.1120 -0.0652  0.1722
 3073TIP3    H1 9225   0.153   0.834   3.970  0.7763  2.4527 -2.1454
 3073TIP3    H2 9226   0.192   0.727   3.870  0.2148  0.2549 -0.0906
 3074TIP3   OH2 9227   4.845   2.769   0.138 -0.1140 -0.3872 -0.2873
 3074TIP3    H1 9228   4.813   2.706   0.203 -0.4499 -0.1007 -0.1701
 3074TIP3    H2 9229   4.771   2.827   0.123 -0.0976 -0.5555 -1.0595
 3075TIP3   OH2 9230   2.334   1.855   2.244 -0.7063 -0.8401  0.0956
 3075TIP3    H1 9231   2.416   1.889   2.209 -1.5441  1.6188  0.2988
 3075TIP3    H2 9232   2.276   1.848   2.168 -0.8021 -0.9923  0.1813
 3076TIP3   OH2 9233   3.348   2.874   4.974  0.9532 -0.0024  0.1886
 3076TIP3    H1 9234   3.396   2.882   5.056  0.3267  0.5997  0.5059
 3076TIP3    H2 9235   3.323   2.964   4.952  2.2475  0.0404 -1.3519
 3077TIP3   OH2 9236   0.329   3.797   2.268 -0.1195 -0.2649 -0.2958
 3077TIP3    H1 9237   0.295   3.829   2.351  0.3201 -0.4323 -0.0476
 3077TIP3    H2 9238   0.343   3.877   2.216  1.8005  0.0554  0.6338
 3078TIP3   OH2 9239   0.503   3.146   3.527 -0.1384  0.1811 -0.6231
 3078TIP3    H1 9240   0.548   3.170   3.446 -0.4008 -2.3928 -1.6034
 3078TIP3    H2 9241   0.572   3.132   3.591  0.1046  1.4549 -0.5685
 3079TIP3   OH2 9242   1.898   0.846   1.179  0.9748  0.3818  0.5215
 3079TIP3    H1 9243   1.953   0.900   1.123  0.1541 -0.3439 -1.0357
 3079TIP3    H2 9244   1.846   0.792   1.119  0.7883 -1.1787  1.9828
 3080TIP3   OH2 9245   2.620   0.795   0.658  0.0567  0.9508 -0.2318
 3080TIP3    H1 9246   2.675   0.857   0.610 -1.0356  0.6233 -1.9863
 3080TIP3    H2 9247   2.597   0.728   0.594  0.2793 -0.7033  1.3189
 3081TIP3   OH2 9248   4.065   2.614   3.409  0.4525  0.0053 -0.1387
 3081TIP3    H1 9249   4.096   2.680   3.470  0.9985  0.2170 -0.6401
 3081TIP3    H2 9250   4.139   2.555   3.396  1.5740  1.8315 -3.1855
 3082TIP3   OH2 9251   4.425   0.346   0.691 -0.6172  0.2340  0.1488
 3082TIP3    H1 9252   4.432   0.409   0.619  0.6426  0.3004  0.3094
 3082TIP3    H2 9253   4.406   0.263   0.649 -3.1147  0.7849 -0.0242
 3083TIP3   OH2 9254   2.373   3.554   1.455  0.4107  0.0417 -0.4232
 3083TIP3    H1 9255   2.352   3.571   1.547  2.3472  1.0128 -0.0886
 3083TIP3    H2 9256   2.295   3.514   1.418 -2.2067  3.8075  0.4817
 3084TIP3   OH2 9257   4.858   5.241   4.318 -0.5174  0.2708 -0.8094
 3084TIP3    H1 9258   4.933   5.225   4.260  0.8585  3.3407 -0.0722
 3084TIP3    H2 9259   4.849   5.336   4.320 -2.4252  0.1423  1.6813
 3085TIP3   OH2 9260   3.247   2.393   0.237  0.3925 -0.3727  0.3917
 3085TIP3    H1 9261   3.167   2.436   0.208  0.4946 -0.6833 -0.3761
 3085TIP3    H2 9262   3.218   2.330   0.304  0.2356  0.8043  1.4695
 3086TIP3   OH2 9263   0.570   5.146   1.810  0.1314 -0.0768 -0.3052
 3086TIP3    H1 9264   0.578   5.098   1.728 -0.4685  0.7773 -0.8866
 3086TIP3    H2 9265   0.530   5.084   1.871  0.2027 -0.5849 -0.7724
 3087TIP3   OH2 9266   3.000   1.044   0.233 -0.0303 -0.1839 -0.1748
 3087TIP3    H1 9267   2.944   0.966   0.240 -1.2871  0.3404 -3.0419
 3087TIP3    H2 9268   3.076   1.014   0.182 -0.2861  0.3074 -0.8668
 3088TIP3   OH2 9269   1.425   4.937   3.015  0.5025  0.1117 -0.3859
 3088TIP3    H1 9270   1.473   5.018   2.998  0.7648 -0.0742 -0.5447
 3088TIP3    H2 9271   1.491   4.876   3.048  0.2123  0.1120  0.2026
 3089TIP3   OH2 9272   6.229   3.093   1.353  0.0829 -0.3760  0.1156
 3089TIP3    H1 9273   6.221   3.000   1.334  1.0874 -0.6467  0.9073
 3089TIP3    H2 9274   6.324   3.107   1.365 -0.1422  0.5377  0.9898
 3090TIP3   OH2 9275   0.365   1.407   1.672  0.0614 -0.3273 -0.8779
 3090TIP3    H1 9276   0.288   1.357   1.645 -0.1569 -0.5900  0.1800
 3090TIP3    H2 9277   0.337   1.498   1.672 -0.8150 -0.5417  1.1793
 3091TIP3   OH2 9278   3.723   3.697   3.128  0.5549  0.0994 -0.4824
 3091TIP3    H1 9279   3.682   3.757   3.066  0.3268  0.6281  0.1666
 3091TIP3    H2 9280   3.812   3.731   3.139  1.0170 -0.7197 -1.4569
 3092TIP3   OH2 9281   1.717   2.220   4.239 -0.4682  0.2272  0.1651
 3092TIP3    H1 9282   1.698   2.133   4.273  1.0049  0.1549  0.8615
 3092TIP3    H2 9283   1.809   2.217   4.214 -0.1957  1.7846  0.8629
 3093TIP3   OH2 9284   5.317   3.649   3.058  0.0939 -0.2794 -0.2796
 3093TIP3    H1 9285   5.368   3.726   3.034  0.0749 -0.7679 -1.9762
 3093TIP3    H2 9286   5.294   3.608   2.975 -1.5605 -1.0556  0.5094
 3094TIP3   OH2 9287   6.167   5.552   1.109 -0.1877  0.8057  0.1140
 3094TIP3    H1 9288   6.073   5.537   1.109  0.0289 -0.7166 -0.7737
 3094TIP3    H2 9289   6.199   5.512   1.191 -0.3964  2.1462  0.8845
 3095TIP3   OH2 9290   0.770   5.104   2.669 -0.4949  0.0036 -0.2267
 3095TIP3    H1 9291   0.841   5.167   2.668  0.7111 -1.3128 -0.4734
 3095TIP3    H2 9292   0.754   5.086   2.762  1.2942 -1.6042 -0.1801
 3096TIP3   OH2 9293   4.336   3.526   1.205  0.9164 -0.4514  0.7096
 3096TIP3    H1 9294   4.278   3.451   1.195  0.4305 -0.2129  1.6189
 3096TIP3    H2 9295   4.416   3.490   1.243  1.4710 -0.8130 -0.7287
 3097TIP3   OH2 9296   2.183   1.845   3.195 -0.1806  0.6080  0.7369
 3097TIP3    H1 9297   2.094   1.814   3.179  0.6709 -0.7100 -2.1725
 3097TIP3    H2 9298   2.236   1.766   3.193  1.3701  1.6233 -0.6857
 3098TIP3   OH2 9299   1.913   3.940   4.856  0.1921  0.0622 -0.2345
 3098TIP3    H1 9300   1.904   3.954   4.951  0.4918 -1.9553  0.1460
 3098TIP3    H2 9301   1.867   4.014   4.816 -1.0833  0.2629  1.5007
 3099TIP3   OH2 9302   2.058   2.524   0.570  0.1140  0.5749 -0.0934
 3099TIP3    H1 9303   1.998   2.598   0.578 -0.5013 -0.1186  2.3146
 3099TIP3    H2 9304   2.096   2.514   0.656  1.1838 -1.1051 -0.7108
 3100TIP3   OH2 9305   2.776   4.244   2.932 -0.0878 -0.0138  0.2334
 3100TIP3    H1 9306   2.802   4.206   2.848 -0.8797 -0.8650  0.3524
 3100TIP3    H2 9307   2.846   4.306   2.953  0.5672 -0.4394 -0.6173
 3101TIP3   OH2 9308   6.290   1.340   0.983 -0.4886  0.6974 -0.1204
 3101TIP3    H1 9309   6.303   1.357   1.076  2.1117  0.2018 -0.3064
 3101TIP3    H2 9310   6.315   1.422   0.940  2.6193 -0.2997 -0.5062
 3102TIP3   OH2 9311   0.201   1.179   1.012  0.0307  0.4749 -0.0772
 3102TIP3    H1 9312   0.153   1.112   1.060 -0.4418  0.0322 -1.1227
 3102TIP3    H2 9313   0.137   1.247   0.993  0.4191  1.0561  0.6528
 3103TIP3   OH2 9314   0.951   1.915   0.214  0.1894 -0.0179 -0.2867
 3103TIP3    H1 9315   0.969   1.915   0.308 -0.8543 -1.2224 -0.0552
 3103TIP3    H2 9316   1.033   1.945   0.174  0.2855  1.6704  1.0410
 3104TIP3   OH2 9317   4.330   5.379   4.199  0.0472  0.3953  0.4995
 3104TIP3    H1 9318   4.424   5.397   4.190 -0.3289  1.7592 -1.3894
 3104TIP3    H2 9319   4.300   5.441   4.265 -0.1241  2.6786 -1.5797
 3105TIP3   OH2 9320   3.672   5.152   0.696 -0.4272 -0.0327  0.1840
 3105TIP3    H1 9321   3.597   5.193   0.652 -0.3338  1.4518  1.3209
 3105TIP3    H2 9322   3.634   5.091   0.758 -0.6932  0.2699  0.3227
 3106TIP3   OH2 9323   4.807   5.058   4.536 -0.1755  0.1573  0.1370
 3106TIP3    H1 9324   4.866   5.061   4.611 -0.3820  0.2232  0.2985
 3106TIP3    H2 9325   4.837   5.129   4.479 -0.2298  0.3236  0.3156
 3107TIP3   OH2 9326   1.275   3.970   3.748  0.2433  0.6050 -0.2917
 3107TIP3    H1 9327   1.316   3.902   3.801  1.5881 -0.6211 -2.7480
 3107TIP3    H2 9328   1.341   4.038   3.739  0.9614 -0.2832 -2.2697
 3108TIP3   OH2 9329   3.678   4.875   2.385 -0.6690 -0.4690 -0.0842
 3108TIP3    H1 9330   3.653   4.860   2.294  2.4316 -2.1121 -0.8002
 3108TIP3    H2 9331   3.709   4.790   2.416  1.2812  0.6999  1.4458
 3109TIP3   OH2 9332   4.905   3.977   1.609  0.1453  0.6383 -0.2499
 3109TIP3    H1 9333   4.824   3.994   1.562 -0.8781 -1.8675  0.4540
 3109TIP3    H2 9334   4.964   3.941   1.542 -0.1378  0.2533 -0.2944
 3110TIP3   OH2 9335   5.419  -0.006   3.636 -0.8105 -0.1335 -0.0837
 3110TIP3    H1 9336   5.513   0.012   3.643 -0.8285 -0.6651  2.7015
 3110TIP3    H2 9337   5.384   0.067   3.584  0.9462  0.7470 -0.0971
 3111TIP3   OH2 9338   0.579   0.282   4.976 -0.1936  0.2458 -0.4942
 3111TIP3    H1 9339   0.656   0.329   5.008  0.0252  0.2249 -0.9766
 3111TIP3    H2 9340   0.589   0.283   4.881 -1.1348  0.8298 -0.5989
 3112TIP3   OH2 9341   6.296   4.741   3.171 -0.2059  0.0520 -0.1683
 3112TIP3    H1 9342   6.335   4.754   3.084  0.6292  0.3093  0.2428
 3112TIP3    H2 9343   6.224   4.804   3.173 -2.3122 -2.0921 -1.8796
 3113TIP3   OH2 9344   5.732   0.142   0.348 -0.1024 -0.3940  0.1709
 3113TIP3    H1 9345   5.800   0.111   0.288  0.8651  2.0759 -0.1036
 3113TIP3    H2 9346   5.657   0.162   0.291  0.1290  0.0817  0.0300
 3114TIP3   OH2 9347   0.648   2.432   3.036 -0.4028 -0.7879 -0.5399
 3114TIP3    H1 9348   0.659   2.337   3.044  0.6324 -0.7043 -0.8450
 3114TIP3    H2 9349   0.737   2.466   3.030 -0.7822  0.1563 -0.9999
 3115TIP3   OH2 9350   1.299   2.146   4.251 -0.8405  0.1266 -0.0150
 3115TIP3    H1 9351   1.300   2.223   4.195 -2.0907 -0.1506 -0.4762
 3115TIP3    H2 9352   1.228   2.091   4.215  0.4932 -1.5818 -0.1704
 3116TIP3   OH2 9353   3.276   0.376   0.191  0.1811 -0.4860 -0.3742
 3116TIP3    H1 9354   3.366   0.404   0.205  0.1901 -1.0123  0.7749
 3116TIP3    H2 9355   3.280   0.323   0.111  0.7476  0.0752 -0.7310
 3117TIP3   OH2 9356   2.597   3.787   0.417  0.3587 -0.4648 -0.6389
 3117TIP3    H1 9357   2.570   3.860   0.474  0.9783 -1.7242  1.3931
 3117TIP3    H2 9358   2.649   3.828   0.348 -0.1639  1.1182 -0.1359
 3118TIP3   OH2 9359   6.143   4.843   2.918  0.2458 -0.2398 -0.1015
 3118TIP3    H1 9360   6.134   4.919   2.860 -0.2994 -0.7649 -0.7204
 3118TIP3    H2 9361   6.206   4.787   2.874  0.8578 -0.0367  0.4909
 3119TIP3   OH2 9362   6.221   1.086   1.099 -0.0842 -0.3533 -0.1883
 3119TIP3    H1 9363   6.131   1.091   1.132 -0.1837 -2.9035  0.1307
 3119TIP3    H2 9364   6.244   1.177   1.079 -2.2845  0.5208  0.8652
 3120TIP3   OH2 9365   4.712   0.480   0.702  0.6965  0.5004 -0.5891
 3120TIP3    H1 9366   4.635   0.528   0.671 -0.9684 -0.3758  1.8526
 3120TIP3    H2 9367   4.765   0.547   0.746 -0.3356  0.6403  0.5326
 3121TIP3   OH2 9368   1.075   3.410   3.572 -0.7219  0.0186 -0.3654
 3121TIP3    H1 9369   1.046   3.351   3.642  0.1447 -0.3840 -0.3388
 3121TIP3    H2 9370   1.166   3.386   3.556 -1.1287 -0.4638 -2.2124
 3122TIP3   OH2 9371   1.219   5.181   4.679 -0.5359 -0.0794  0.4567
 3122TIP3    H1 9372   1.140   5.178   4.624  1.4280 -0.6128 -2.5666
 3122TIP3    H2 9373   1.291   5.163   4.619  1.7514 -2.2786  3.5173
 3123TIP3   OH2 9374   3.306   3.964   2.590 -0.3340  0.6132  0.3068
 3123TIP3    H1 9375   3.385   3.917   2.619 -0.2844  0.1080 -0.5998
 3123TIP3    H2 9376   3.247   3.894   2.560 -0.7567  1.0598  0.0942
 3124TIP3   OH2 9377   1.109   3.458   0.315  0.3963  0.0356 -0.7494
 3124TIP3    H1 9378   1.094   3.364   0.314  1.6568 -0.2085 -2.6221
 3124TIP3    H2 9379   1.189   3.470   0.367 -0.9456  0.3418  1.3236
 3125TIP3   OH2 9380   2.946   1.937   0.459  0.1230  0.0994  0.0278
 3125TIP3    H1 9381   2.982   1.925   0.371 -1.0070  1.5196 -0.6654
 3125TIP3    H2 9382   2.859   1.897   0.455 -0.0438  0.4181  0.4076
 3126TIP3   OH2 9383   1.595   1.766   2.483 -0.2817 -0.1081  0.4127
 3126TIP3    H1 9384   1.561   1.749   2.395  0.0601 -0.0539  0.2692
 3126TIP3    H2 9385   1.658   1.695   2.499  0.5335  0.5359  0.1379
 3127TIP3   OH2 9386   0.326   1.652   4.954 -0.5331  0.0608  1.0588
 3127TIP3    H1 9387   0.418   1.679   4.954 -0.2502 -0.6412 -2.0291
 3127TIP3    H2 9388   0.327   1.565   4.994  0.6299 -1.1143 -1.3406
 3128TIP3   OH2 9389   3.581   5.808   3.508  0.0951  0.1448 -0.3890
 3128TIP3    H1 9390   3.646   5.861   3.462  0.2126  0.1799 -0.1855
 3128TIP3    H2 9391   3.568   5.854   3.591 -0.4748  0.3446 -0.5877
 3129TIP3   OH2 9392   6.029   4.187   4.038 -0.4487  0.5293 -0.0358
 3129TIP3    H1 9393   6.108   4.160   3.991 -0.1555  0.9822  0.1908
 3129TIP3    H2 9394   6.005   4.111   4.090 -0.2228  0.3548 -0.1830
 3130TIP3   OH2 9395   1.141   0.670   2.476 -0.5144  0.0922 -0.1772
 3130TIP3    H1 9396   1.104   0.582   2.463  0.6068 -0.6347  1.3388
 3130TIP3    H2 9397   1.188   0.665   2.559 -2.7164  2.9166  1.4057
 3131TIP3   OH2 9398   4.292   4.961   2.683  0.1569 -0.6350 -0.4146
 3131TIP3    H1 9399   4.369   5.008   2.650 -0.0644  0.6731  0.8174
 3131TIP3    H2 9400   4.327   4.878   2.717  1.0167 -0.1212 -0.0108
 3132TIP3   OH2 9401   0.690   5.667   3.772 -0.2145  0.6394 -0.3837
 3132TIP3    H1 9402   0.601   5.700   3.763 -0.4345  0.2934  0.4459
 3132TIP3    H2 9403   0.682   5.587   3.824  0.6311  0.9382  0.2564
 3133TIP3   OH2 9404   2.772   2.677   2.759 -0.1199  0.0333 -0.4211
 3133TIP3    H1 9405   2.716   2.659   2.834  1.2681  1.2166  0.9522
 3133TIP3    H2 9406   2.814   2.593   2.740 -0.1776 -0.1884  0.4022
 3134TIP3   OH2 9407   4.425   3.033   2.553  0.1823 -0.5485 -0.0835
 3134TIP3    H1 9408   4.516   3.003   2.555  1.2354  2.3267 -0.3051
 3134TIP3    H2 9409   4.401   3.027   2.460  0.4029 -0.6326 -0.1370
 3135TIP3   OH2 9410   5.041   2.499   4.568 -0.0745  0.1883  0.2044
 3135TIP3    H1 9411   4.988   2.577   4.553 -0.9809 -0.7055 -1.5677
 3135TIP3    H2 9412   4.984   2.440   4.618  0.0650  0.1030  0.2632
 3136TIP3   OH2 9413   2.179   0.822   4.266 -0.2524  0.3411 -0.5200
 3136TIP3    H1 9414   2.085   0.839   4.270 -0.3033 -0.0105 -0.1037
 3136TIP3    H2 9415   2.190   0.737   4.309  0.5152  1.3621  1.4028
 3137TIP3   OH2 9416   2.154   5.313   0.221  0.1347  0.0315  0.4723
 3137TIP3    H1 9417   2.213   5.260   0.167  0.6767  1.6457 -0.5644
 3137TIP3    H2 9418   2.098   5.248   0.264 -0.1384 -1.3505 -1.8020
 3138TIP3   OH2 9419   3.982   5.199   1.661 -0.0653 -0.7344 -0.1579
 3138TIP3    H1 9420   4.008   5.186   1.752  0.3498  0.4849 -0.0920
 3138TIP3    H2 9421   3.894   5.162   1.656 -0.2639 -0.4233  0.8428
 3139TIP3   OH2 9422   6.196   4.600   4.567  0.6720 -0.0415  0.6082
 3139TIP3    H1 9423   6.187   4.669   4.634  2.5852  0.1014  0.7873
 3139TIP3    H2 9424   6.199   4.519   4.617 -1.2672 -0.2732  0.4182
 3140TIP3   OH2 9425   3.082   4.703   2.983 -1.0920  0.0281  0.1175
 3140TIP3    H1 9426   3.015   4.757   3.025  0.2129  1.1573  0.8373
 3140TIP3    H2 9427   3.096   4.745   2.899  0.4476  1.3358  0.9709
 3141TIP3   OH2 9428   5.250   3.833   0.638 -0.0979  0.0925  0.0642
 3141TIP3    H1 9429   5.191   3.838   0.713 -0.1129 -1.2437  0.1659
 3141TIP3    H2 9430   5.270   3.740   0.629 -0.4493  0.1577 -1.8826
 3142TIP3   OH2 9431   0.854   1.722   1.697  0.4876 -0.0384 -0.3624
 3142TIP3    H1 9432   0.828   1.771   1.775  0.4226 -2.1915  1.0583
 3142TIP3    H2 9433   0.944   1.751   1.680 -0.2866  2.2038 -0.9949
 3143TIP3   OH2 9434   0.140   0.858   0.288  0.2945  0.0290 -0.6184
 3143TIP3    H1 9435   0.230   0.831   0.307 -0.4277 -2.5429 -0.5628
 3143TIP3    H2 9436   0.107   0.792   0.227 -1.9201  0.2661  0.2337
 3144TIP3   OH2 9437   2.357   1.915   3.560 -0.1080  0.0092  0.5218
 3144TIP3    H1 9438   2.341   1.960   3.643 -0.2989 -1.0605  1.0786
 3144TIP3    H2 9439   2.400   1.834   3.584 -0.1873 -0.3283 -0.4289
 3145TIP3   OH2 9440   1.961   3.587   0.773 -0.2280 -0.2586  0.2742
 3145TIP3    H1 9441   1.872   3.613   0.749  0.0614  0.3504 -0.1833
 3145TIP3    H2 9442   1.980   3.512   0.716 -1.3614 -2.1017  2.1626
 3146TIP3   OH2 9443   4.467   0.539   3.130  0.6860 -0.3393  0.0911
 3146TIP3    H1 9444   4.455   0.589   3.049  1.6118  0.0052  0.1574
 3146TIP3    H2 9445   4.461   0.448   3.103  1.6100 -0.2403 -0.4825
 3147TIP3   OH2 9446   1.386   1.351   4.223 -0.0341 -0.3439 -0.5499
 3147TIP3    H1 9447   1.448   1.361   4.151 -0.1627 -1.0214 -0.7624
 3147TIP3    H2 9448   1.321   1.290   4.190 -1.2788  0.9781 -0.6330
 3148TIP3   OH2 9449   1.946   2.594   5.040 -0.6113  0.0240 -0.2954
 3148TIP3    H1 9450   1.973   2.604   5.131  1.4329 -1.0314 -0.7325
 3148TIP3    H2 9451   1.939   2.499   5.027 -0.1598  0.1256 -1.4139
 3149TIP3   OH2 9452   3.994   1.224   3.177  0.1365  0.2017 -0.5266
 3149TIP3    H1 9453   4.073   1.239   3.229  0.3159 -0.5128 -0.5903
 3149TIP3    H2 9454   3.924   1.218   3.242  0.1394  0.7767 -0.4660
 3150TIP3   OH2 9455   2.829   0.844   0.217  0.1514 -0.1849  0.0507
 3150TIP3    H1 9456   2.851   0.756   0.248 -0.3134  0.1413  1.3793
 3150TIP3    H2 9457   2.736   0.853   0.235  0.4967  1.1432  1.4781
 3151TIP3   OH2 9458   0.790   3.801   4.647  0.1036 -0.2762  0.1567
 3151TIP3    H1 9459   0.837   3.721   4.670  3.5419  1.4146 -0.3897
 3151TIP3    H2 9460   0.822   3.867   4.708 -1.9439  0.9483  0.0064
 3152TIP3   OH2 9461   1.333   3.338   1.262 -0.6231  1.1255 -0.4178
 3152TIP3    H1 9462   1.253   3.353   1.212  0.3155  1.1065 -1.9851
 3152TIP3    H2 9463   1.398   3.396   1.222  0.2528  0.8578  0.5722
 3153TIP3   OH2 9464   6.189   5.478   0.829 -0.1568 -0.3860  0.1831
 3153TIP3    H1 9465   6.155   5.560   0.794 -0.9291 -0.9398 -0.3988
 3153TIP3    H2 9466   6.198   5.494   0.923 -1.0076  0.1249  0.1894
 3154TIP3   OH2 9467   1.691   2.241   1.251  0.8022  0.2070  0.1422
 3154TIP3    H1 9468   1.718   2.177   1.316 -1.0291 -0.9338 -0.1487
 3154TIP3    H2 9469   1.722   2.206   1.168  0.0709 -0.1654  0.0188
 3155TIP3   OH2 9470   2.604   0.528   5.020  0.1135 -0.1682  0.4263
 3155TIP3    H1 9471   2.618   0.479   5.101 -3.4653 -2.4275 -0.0772
 3155TIP3    H2 9472   2.552   0.603   5.046  0.5205  0.1128  0.4354
 3156TIP3   OH2 9473   5.755   2.927   2.285  0.0003  0.4632 -0.1409
 3156TIP3    H1 9474   5.700   2.900   2.358 -1.3504 -0.1792 -1.3501
 3156TIP3    H2 9475   5.834   2.873   2.292  0.1842  0.8806  1.1920
 3157TIP3   OH2 9476   1.091   4.898   4.674 -0.0941 -0.2267  0.3092
 3157TIP3    H1 9477   1.076   4.814   4.718  0.7509 -0.5555 -0.0039
 3157TIP3    H2 9478   1.171   4.932   4.713 -1.6833  1.6250  2.1491
 3158TIP3   OH2 9479   3.277   5.814   3.374  0.1509 -0.2609 -0.4220
 3158TIP3    H1 9480   3.297   5.752   3.444  0.3691 -0.3687 -0.5786
 3158TIP3    H2 9481   3.259   5.896   3.420 -0.7748 -0.5977 -0.1768
 3159TIP3   OH2 9482   1.634   0.424   2.614  0.5360 -0.1542  0.1947
 3159TIP3    H1 9483   1.647   0.330   2.629  1.4021  0.3069  3.0116
 3159TIP3    H2 9484   1.555   0.446   2.664  1.4806  0.9132  1.2924
 3160TIP3   OH2 9485   3.056   5.967   2.774  0.1585  0.1964 -0.1329
 3160TIP3    H1 9486   3.126   6.008   2.826 -1.5107  2.6556  0.3418
 3160TIP3    H2 9487   3.103   5.921   2.703  2.2635  2.3874 -0.3010
 3161TIP3   OH2 9488   5.082   3.683   0.393  0.5700 -0.1005 -0.2963
 3161TIP3    H1 9489   5.091   3.735   0.472 -1.3079 -0.4777  0.2170
 3161TIP3    H2 9490   5.025   3.736   0.336  1.3928 -0.1084 -1.1513
 3162TIP3   OH2 9491   3.269   4.439   1.797  0.4954  0.4298  0.5299
 3162TIP3    H1 9492   3.326   4.366   1.820 -0.8341 -1.2260 -1.1169
 3162TIP3    H2 9493   3.293   4.462   1.707 -0.6843  0.4233  0.1915
 3163TIP3   OH2 9494   2.902   5.483   2.201  0.3598 -0.0202  0.1786
 3163TIP3    H1 9495   2.873   5.567   2.237  0.5038 -0.5105  1.5089
 3163TIP3    H2 9496   2.911   5.427   2.278 -0.9112 -1.6230 -0.7756
 3164TIP3   OH2 9497   1.445   1.419   2.518  0.4852  0.8749 -0.0503
 3164TIP3    H1 9498   1.522   1.392   2.568  0.3514 -0.0722 -0.3295
 3164TIP3    H2 9499   1.387   1.459   2.583 -0.0062 -0.9900  0.7512
 3165TIP3   OH2 9500   2.447   0.439   0.556  0.0872 -0.4248  0.4340
 3165TIP3    H1 9501   2.414   0.528   0.561 -0.4157 -0.6459  1.5561
 3165TIP3    H2 9502   2.538   0.447   0.527 -0.6484  0.2630 -1.8388
 3166TIP3   OH2 9503   2.547   5.204   4.792  0.0518 -0.1796  0.1397
 3166TIP3    H1 9504   2.540   5.111   4.817 -0.6438  0.0148  0.6982
 3166TIP3    H2 9505   2.516   5.207   4.702 -2.0533 -0.1836  0.8076
 3167TIP3   OH2 9506   4.431   1.282   0.615  0.4701 -0.4990 -0.2777
 3167TIP3    H1 9507   4.420   1.188   0.607 -2.1294 -0.3546  0.7911
 3167TIP3    H2 9508   4.362   1.320   0.561  1.7363  0.8541 -1.0550
 3168TIP3   OH2 9509   5.609   2.455   1.429 -0.0543  0.0069 -0.1612
 3168TIP3    H1 9510   5.528   2.505   1.428 -0.7763 -1.0814  0.6967
 3168TIP3    H2 9511   5.677   2.518   1.409 -1.1272  0.9162 -1.0786
 3169TIP3   OH2 9512   5.207   3.595   2.581 -0.0919  0.1151  0.2823
 3169TIP3    H1 9513   5.148   3.571   2.510 -0.7403  0.0062  0.8456
 3169TIP3    H2 9514   5.152   3.595   2.660  0.1757  2.0010  0.5342
 3170TIP3   OH2 9515   1.495   5.450   1.497 -0.2065  0.2760 -0.6447
 3170TIP3    H1 9516   1.575   5.414   1.459 -0.4723 -0.1328 -0.8145
 3170TIP3    H2 9517   1.435   5.376   1.503 -0.0081  0.2169  1.0212
 3171TIP3   OH2 9518   4.793   0.726   2.066 -0.6449 -0.0645 -0.4814
 3171TIP3    H1 9519   4.789   0.655   2.003 -0.8314  1.1772 -1.9275
 3171TIP3    H2 9520   4.856   0.788   2.029  0.4452  0.0066  1.3293
 3172TIP3   OH2 9521   6.083   5.040   5.000  0.1235 -1.0143 -0.2058
 3172TIP3    H1 9522   6.099   5.068   5.090  0.1000  0.1361 -0.5492
 3172TIP3    H2 9523   5.995   5.071   4.981  0.1253 -1.2643 -0.6258
 3173TIP3   OH2 9524   1.592   3.987   0.848  0.2541 -0.6364 -0.0508
 3173TIP3    H1 9525   1.616   3.917   0.908  0.9179 -0.6846 -0.3598
 3173TIP3    H2 9526   1.675   4.029   0.826 -0.2663  1.2410  1.3370
 3174TIP3   OH2 9527   3.307   1.133   3.376 -0.3030  0.3465  0.1817
 3174TIP3    H1 9528   3.217   1.164   3.369 -0.4562  0.4652  2.1217
 3174TIP3    H2 9529   3.319   1.114   3.469  1.1743 -1.2340 -0.2681
 3175TIP3   OH2 9530   5.703   0.079   2.254 -0.3869 -0.1509  0.0300
 3175TIP3    H1 9531   5.696   0.039   2.341  1.1562 -1.1549 -0.2708
 3175TIP3    H2 9532   5.796   0.098   2.244 -0.7667  1.4444 -0.7809
 3176TIP3   OH2 9533   0.408   1.067   0.796  0.7081  0.2278 -0.4716
 3176TIP3    H1 9534   0.361   1.103   0.720 -0.3500 -1.7474 -0.8262
 3176TIP3    H2 9535   0.474   1.009   0.759  1.8850  1.1585  0.1001
 3177TIP3   OH2 9536   4.453   2.623   1.184  0.1283  0.1817  0.3848
 3177TIP3    H1 9537   4.400   2.662   1.114 -0.6621  1.8313  1.8375
 3177TIP3    H2 9538   4.443   2.529   1.172 -2.8681  0.4130  0.3735
 3178TIP3   OH2 9539   3.479   4.909   1.361 -0.4555  0.0501 -0.5140
 3178TIP3    H1 9540   3.447   4.904   1.451 -0.2457 -1.2208 -0.4980
 3178TIP3    H2 9541   3.551   4.847   1.357  0.4568  1.1053 -1.2066
 3179TIP3   OH2 9542   1.591   4.262   4.287 -0.5295  0.2238 -0.3523
 3179TIP3    H1 9543   1.671   4.272   4.339 -0.8728  0.0605  0.2168
 3179TIP3    H2 9544   1.523   4.304   4.340 -1.2483 -1.5561  0.2228
 3180TIP3   OH2 9545   1.043   0.837   2.288 -0.9360 -0.4022 -0.1141
 3180TIP3    H1 9546   1.082   0.801   2.368 -0.1910  1.1048  0.2350
 3180TIP3    H2 9547   1.067   0.775   2.220  1.1327 -0.1377  0.3043
 3181TIP3   OH2 9548   1.711   0.983   2.035 -0.0862  0.1720  0.2041
 3181TIP3    H1 9549   1.730   0.890   2.042  0.4268  0.3140  0.7368
 3181TIP3    H2 9550   1.615   0.988   2.032 -0.1140 -0.5180 -1.9335
 3182TIP3   OH2 9551   6.361   2.940   1.071  0.2237 -0.0104  0.3161
 3182TIP3    H1 9552   6.297   2.898   1.014 -0.6480  0.2266  1.1101
 3182TIP3    H2 9553   6.352   3.034   1.052  2.0719 -0.0838 -1.3555
 3183TIP3   OH2 9554   2.152   3.889   2.877  0.2720  0.5470 -0.3320
 3183TIP3    H1 9555   2.216   3.948   2.838 -0.0068  0.1090 -1.5234
 3183TIP3    H2 9556   2.082   3.883   2.811  0.2469 -1.0084 -0.2165
 3184TIP3   OH2 9557   5.613   2.567   3.146 -0.3310  0.5638  0.0320
 3184TIP3    H1 9558   5.530   2.531   3.177 -0.0545  0.6485  0.9094
 3184TIP3    H2 9559   5.677   2.499   3.166 -0.0761  0.8031  0.0317
 3185TIP3   OH2 9560   1.920   5.824   0.879  1.0558 -0.2239 -0.0776
 3185TIP3    H1 9561   1.952   5.848   0.792  2.8483  0.6443  0.7551
 3185TIP3    H2 9562   2.000   5.802   0.928  0.0401 -1.1976  1.2075
 3186TIP3   OH2 9563   4.663   4.397   4.212  0.6177  0.0563  0.3697
 3186TIP3    H1 9564   4.620   4.324   4.167 -0.0656 -0.2531  1.4664
 3186TIP3    H2 9565   4.739   4.357   4.255  0.4908  0.0767  0.6140
 3187TIP3   OH2 9566   3.900   2.326   1.897  0.1065  0.2290  0.3824
 3187TIP3    H1 9567   3.964   2.357   1.961 -0.5848 -1.1809  1.8328
 3187TIP3    H2 9568   3.821   2.378   1.915 -0.1056 -0.2064  0.7342
 3188TIP3   OH2 9569   4.084   5.357   0.538 -0.0401 -0.1272  0.2225
 3188TIP3    H1 9570   4.151   5.409   0.493 -0.6336 -0.2877 -0.8738
 3188TIP3    H2 9571   4.096   5.268   0.504 -1.2899 -0.0131 -0.5766
 3189TIP3   OH2 9572   5.482   5.406   4.539  0.2096 -0.1380 -0.0220
 3189TIP3    H1 9573   5.512   5.377   4.625 -0.1645 -0.2993  0.0541
 3189TIP3    H2 9574   5.556   5.388   4.481  0.6560  0.4597  0.3589
 3190TIP3   OH2 9575   0.011   0.143   3.406 -0.1038  0.4128  0.1602
 3190TIP3    H1 9576   0.033   0.163   3.497  0.0413  1.5440 -0.1006
 3190TIP3    H2 9577   0.087   0.173   3.356 -0.4723  0.4485 -0.3831
 3191TIP3   OH2 9578   3.920   2.811   0.976  0.4310  0.3267  0.6320
 3191TIP3    H1 9579   3.986   2.790   0.911  1.3877  0.3323  1.5755
 3191TIP3    H2 9580   3.964   2.799   1.060 -0.8562  0.0175  1.2947
 3192TIP3   OH2 9581   1.267   1.187   2.030 -0.2029 -0.3590 -0.6730
 3192TIP3    H1 9582   1.268   1.190   1.934  1.1219  0.6712 -0.6488
 3192TIP3    H2 9583   1.203   1.254   2.055  1.9181  1.8424 -0.8262
 3193TIP3   OH2 9584   1.311   5.704   3.100 -0.4422 -0.3598 -1.0055
 3193TIP3    H1 9585   1.270   5.717   3.015  0.3687  0.2868 -1.3089
 3193TIP3    H2 9586   1.242   5.665   3.154 -1.0198 -0.5950 -1.8935
 3194TIP3   OH2 9587   1.969   2.470   4.417 -0.3259 -0.0514 -0.0408
 3194TIP3    H1 9588   2.064   2.480   4.407 -0.2403 -0.4330  0.3851
 3194TIP3    H2 9589   1.955   2.376   4.421 -0.6567  0.0197  0.5500
 3195TIP3   OH2 9590   3.502   4.356   4.549 -0.6230 -0.0430  0.1432
 3195TIP3    H1 9591   3.439   4.423   4.520  0.6028  0.7800 -0.7305
 3195TIP3    H2 9592   3.485   4.281   4.492 -2.2793 -0.6723  1.3947
 3196TIP3   OH2 9593   4.419   5.300   1.284 -0.0055 -0.1419 -1.1572
 3196TIP3    H1 9594   4.360   5.334   1.352 -1.0992  0.0571 -2.1786
 3196TIP3    H2 9595   4.477   5.240   1.331  0.2844  1.1535  0.2193
 3197TIP3   OH2 9596   1.853   4.051   0.846 -0.3578  0.4810  0.6029
 3197TIP3    H1 9597   1.844   4.139   0.882 -0.9037  0.9103 -0.5267
 3197TIP3    H2 9598   1.928   4.013   0.891  0.0350  1.6206  0.9195
 3198TIP3   OH2 9599   3.851   4.614   4.638 -0.1204  0.3928 -0.6432
 3198TIP3    H1 9600   3.854   4.614   4.734 -1.1072  1.0834 -0.6056
 3198TIP3    H2 9601   3.768   4.655   4.616  0.3228  0.7077 -1.8122
 3199TIP3   OH2 9602   2.025   4.796   1.373 -0.3160 -0.0976  0.8059
 3199TIP3    H1 9603   1.993   4.815   1.461 -1.1265  0.9566  0.3016
 3199TIP3    H2 9604   1.964   4.841   1.315  0.4109 -0.4855 -0.2890
 3200TIP3   OH2 9605   5.703   1.932   2.516  0.4567 -0.2237 -0.1793
 3200TIP3    H1 9606   5.658   1.992   2.457  0.0501 -0.2101  0.1401
 3200TIP3    H2 9607   5.706   1.978   2.599  1.2340 -0.1509 -0.2430
 3201TIP3   OH2 9608   3.500   5.148   4.397  0.4013 -0.3465  0.6375
 3201TIP3    H1 9609   3.439   5.180   4.464  0.4729 -0.0297  0.5545
 3201TIP3    H2 9610   3.573   5.112   4.447  0.2692 -0.4776  0.7352
 3202TIP3   OH2 9611   5.473   1.332   0.045 -0.4742 -0.1751 -0.0469
 3202TIP3    H1 9612   5.518   1.370  -0.030 -0.8493 -0.7961 -0.5960
 3202TIP3    H2 9613   5.419   1.403   0.079 -2.1027 -0.5152 -1.7889
 3203TIP3   OH2 9614   2.828   5.642   0.764 -0.3582 -0.1991  0.5319
 3203TIP3    H1 9615   2.810   5.736   0.759  0.4568 -0.0947 -0.5785
 3203TIP3    H2 9616   2.897   5.634   0.830 -0.3924 -0.0271  0.5888
 3204TIP3   OH2 9617   0.960   1.730   3.414  0.1114  0.5551  0.5902
 3204TIP3    H1 9618   1.029   1.665   3.400  1.4166  1.8871  0.6371
 3204TIP3    H2 9619   0.949   1.772   3.329  0.0058  0.9582  0.8005
 3205TIP3   OH2 9620   4.549   2.750   0.023  0.4145  0.0359 -0.1350
 3205TIP3    H1 9621   4.571   2.842   0.031  0.5755 -0.0665  0.7019
 3205TIP3    H2 9622   4.458   2.749  -0.008 -0.5410  0.5366  2.3765
 3206TIP3   OH2 9623   1.577   0.909   2.887 -0.5175  0.3136 -0.3888
 3206TIP3    H1 9624   1.543   0.822   2.907 -1.0118  0.7597  0.7711
 3206TIP3    H2 9625   1.507   0.969   2.913  0.1554  1.1053 -0.3604
 3207TIP3   OH2 9626   3.575   2.110   3.232  0.2732 -0.1777  0.2586
 3207TIP3    H1 9627   3.654   2.126   3.182  0.7173  1.6747  1.4628
 3207TIP3    H2 9628   3.505   2.147   3.179  0.2467 -1.3505 -0.5623
 3208TIP3   OH2 9629   2.885   1.969   4.285  0.0196  0.0777 -0.2653
 3208TIP3    H1 9630   2.819   1.928   4.229  0.5721  0.2891 -1.0918
 3208TIP3    H2 9631   2.881   1.920   4.366 -1.0067 -0.0507 -0.3778
 3209TIP3   OH2 9632   0.675   2.557   3.958 -0.0428  0.2535 -0.2665
 3209TIP3    H1 9633   0.632   2.620   3.900 -0.9712  1.3081  1.4563
 3209TIP3    H2 9634   0.760   2.596   3.978 -0.5258  0.8845  0.6192
 3210TIP3   OH2 9635   4.206   5.875   0.811 -0.1134 -0.1160 -0.5216
 3210TIP3    H1 9636   4.168   5.931   0.743 -0.6227 -0.1687 -0.2879
 3210TIP3    H2 9637   4.256   5.809   0.763 -0.8245 -0.4115 -0.8646
 3211TIP3   OH2 9638   3.417   5.217   2.569  0.5057 -0.0180 -0.4449
 3211TIP3    H1 9639   3.456   5.254   2.491 -0.9151  3.0026  0.1573
 3211TIP3    H2 9640   3.354   5.152   2.537 -0.5285  1.6351 -1.8884
 3212TIP3   OH2 9641   4.252   3.925   0.077 -0.3129 -0.1669 -0.3181
 3212TIP3    H1 9642   4.303   3.890   0.004  0.2994  0.5345 -0.2377
 3212TIP3    H2 9643   4.170   3.876   0.075 -0.0820 -0.5330 -1.1341
 3213TIP3   OH2 9644   4.455   0.124   0.548  0.4940 -0.1407 -0.1058
 3213TIP3    H1 9645   4.463   0.126   0.452 -1.0779 -1.6435 -0.3058
 3213TIP3    H2 9646   4.408   0.043   0.567  0.6536  0.1926  1.9510
 3214TIP3   OH2 9647   5.376   1.731   2.527  0.1198 -0.4294  0.2428
 3214TIP3    H1 9648   5.346   1.728   2.436  1.0946  0.3249 -0.1169
 3214TIP3    H2 9649   5.465   1.696   2.524  0.7192  0.9998  0.6438
 3215TIP3   OH2 9650   1.255   5.551   1.639 -0.2023 -0.1979  0.1775
 3215TIP3    H1 9651   1.232   5.621   1.578 -1.5141 -1.2120 -0.5277
 3215TIP3    H2 9652   1.303   5.487   1.586  1.0252  0.1556  0.8251
 3216TIP3   OH2 9653   3.704   2.232   4.496 -0.5685  0.6658 -0.2221
 3216TIP3    H1 9654   3.715   2.166   4.428 -1.1629  0.9725 -0.6266
 3216TIP3    H2 9655   3.684   2.182   4.575 -0.6087  0.3430 -0.4347
 3217TIP3   OH2 9656   0.925   4.699   4.417  0.4739 -0.1148 -0.1282
 3217TIP3    H1 9657   0.848   4.755   4.422  0.7548  0.3906 -1.1218
 3217TIP3    H2 9658   0.892   4.611   4.435 -0.5069 -0.0319 -1.3575
 3218TIP3   OH2 9659   0.450   1.865   4.738 -0.6399  0.3647 -0.0816
 3218TIP3    H1 9660   0.465   1.952   4.775  0.7255  0.3799 -0.6104
 3218TIP3    H2 9661   0.526   1.849   4.683  0.0908 -1.9483  1.4514
 3219TIP3   OH2 9662   3.564   2.600   2.086  0.4754 -0.4270  0.0127
 3219TIP3    H1 9663   3.523   2.657   2.021 -1.5011 -1.6306  0.1315
 3219TIP3    H2 9664   3.580   2.518   2.039 -0.8074 -1.2472  0.9558
 3220TIP3   OH2 9665   1.632   1.947   0.804 -0.5214  0.3242  0.3857
 3220TIP3    H1 9666   1.568   2.018   0.793  0.2873  1.1536  0.9363
 3220TIP3    H2 9667   1.611   1.886   0.733 -1.3349  1.0289 -0.0085
 3221TIP3   OH2 9668   5.142   4.711   1.980 -0.3364 -0.2197  0.2863
 3221TIP3    H1 9669   5.131   4.749   1.893  3.4753 -0.2934 -0.4080
 3221TIP3    H2 9670   5.183   4.626   1.964 -1.6606 -1.2781  2.1193
 3222TIP3   OH2 9671   3.687   3.742   3.398  0.2206 -0.1482 -0.1700
 3222TIP3    H1 9672   3.694   3.729   3.303 -0.9625 -1.0061 -0.1632
 3222TIP3    H2 9673   3.697   3.654   3.434  0.0785  0.0957  0.4688
 3223TIP3   OH2 9674   4.430   0.592   4.543  0.4353 -0.2235 -0.0977
 3223TIP3    H1 9675   4.401   0.645   4.617 -1.3842 -0.5722 -0.5131
 3223TIP3    H2 9676   4.523   0.612   4.534 -0.1431  2.8167 -0.1963
 3224TIP3   OH2 9677   0.805   1.570   2.760 -1.2385  0.2380  0.3223
 3224TIP3    H1 9678   0.822   1.481   2.791  0.8912 -0.0005 -1.2762
 3224TIP3    H2 9679   0.782   1.619   2.839  1.0638 -0.9781  1.8571
 3225TIP3   OH2 9680   5.945   1.787   3.225  0.2041  0.2729  0.1361
 3225TIP3    H1 9681   6.021   1.732   3.207 -0.1401 -0.1148 -0.1383
 3225TIP3    H2 9682   5.887   1.774   3.150 -0.8251 -0.6247  1.0559
 3226TIP3   OH2 9683   5.083   3.492   2.810 -0.0486  0.0551 -0.0669
 3226TIP3    H1 9684   5.005   3.543   2.830 -0.2655 -1.3248  3.3526
 3226TIP3    H2 9685   5.050   3.408   2.778  0.0687 -0.0077 -0.0262
 3227TIP3   OH2 9686   2.396   1.369   2.942  0.1008  0.1336  0.3282
 3227TIP3    H1 9687   2.326   1.404   2.887 -0.6412 -1.2292  0.3531
 3227TIP3    H2 9688   2.438   1.303   2.887  1.1330  0.6700  0.4559
 3228TIP3   OH2 9689   4.355   4.172   2.966  0.1676  0.7354 -0.3686
 3228TIP3    H1 9690   4.384   4.187   2.877  1.3438 -0.6134 -0.2483
 3228TIP3    H2 9691   4.428   4.127   3.008 -1.3101 -0.9514  0.5425
 3229TIP3   OH2 9692   2.366   2.381   2.285 -0.2702 -0.2387  0.6756
 3229TIP3    H1 9693   2.360   2.309   2.222 -0.0459  0.6391 -0.3748
 3229TIP3    H2 9694   2.377   2.337   2.369 -1.0346 -1.4504  0.1807
 3230TIP3   OH2 9695   6.227   3.734   1.739 -0.3895  0.2444 -0.1378
 3230TIP3    H1 9696   6.273   3.780   1.669  0.8818  0.6341  0.9147
 3230TIP3    H2 9697   6.230   3.642   1.713  1.0568  0.2533 -0.0856
 3231TIP3   OH2 9698   1.316   1.606   3.793  0.0857 -0.2646  0.4546
 3231TIP3    H1 9699   1.239   1.601   3.849 -0.1388  1.3441  0.3170
 3231TIP3    H2 9700   1.380   1.657   3.842 -0.7034  2.6548 -1.3098
 3232TIP3   OH2 9701   1.437   1.057   0.986 -0.1534 -0.0489 -0.0113
 3232TIP3    H1 9702   1.507   1.108   1.027 -0.5796  1.4529 -1.0964
 3232TIP3    H2 9703   1.395   1.011   1.059  1.2754 -0.1477  0.7818
 3233TIP3   OH2 9704   1.137   5.666   3.690 -0.3412 -0.1186 -0.2268
 3233TIP3    H1 9705   1.093   5.751   3.689 -0.2273 -0.0612 -0.6439
 3233TIP3    H2 9706   1.068   5.602   3.670 -1.0070 -0.4294  2.6223
 3234TIP3   OH2 9707   2.656   0.198   2.650 -0.6808 -0.0606  0.1293
 3234TIP3    H1 9708   2.598   0.219   2.723 -0.3544  0.0037  0.3733
 3234TIP3    H2 9709   2.737   0.169   2.692 -1.4963 -3.0248 -0.1579
 3235TIP3   OH2 9710   4.060   5.707   4.638 -0.0289 -0.8596  0.4942
 3235TIP3    H1 9711   3.970   5.676   4.624  0.1898 -1.1653 -0.2894
 3235TIP3    H2 9712   4.087   5.741   4.553 -0.1928  1.3885  1.2553
 3236TIP3   OH2 9713   1.725   5.779   1.588  0.1621  0.4948  0.1681
 3236TIP3    H1 9714   1.673   5.727   1.650  1.1944 -1.6747 -0.6778
 3236TIP3    H2 9715   1.745   5.860   1.636 -2.9715  0.9729  0.9107
 3237TIP3   OH2 9716   0.267   2.974   2.485 -0.3919  0.9948  0.4325
 3237TIP3    H1 9717   0.283   2.989   2.392  0.9031 -1.0647  0.2429
 3237TIP3    H2 9718   0.172   2.977   2.495 -0.5790  0.6041 -1.0923
 3238TIP3   OH2 9719   3.357   0.759   2.486 -0.3332  0.4658 -0.2746
 3238TIP3    H1 9720   3.352   0.711   2.403  1.7746  0.3490 -0.3846
 3238TIP3    H2 9721   3.411   0.835   2.466  0.1565  0.4661  0.9789
 3239TIP3   OH2 9722   4.980   1.460   2.570  0.7192  0.5464 -0.3301
 3239TIP3    H1 9723   5.035   1.410   2.510 -1.4857 -1.6003 -0.6994
 3239TIP3    H2 9724   4.895   1.466   2.526 -0.4085  0.5854  1.7409
 3240TIP3   OH2 9725   1.963   3.967   2.445 -0.1773  0.8586 -0.2654
 3240TIP3    H1 9726   1.981   3.916   2.525  0.2656  0.4839 -0.5972
 3240TIP3    H2 9727   1.917   4.045   2.476 -0.4166  0.4983  0.3087
 3241TIP3   OH2 9728   4.494   2.273   0.307 -0.2771  0.3960 -0.2803
 3241TIP3    H1 9729   4.436   2.256   0.233  0.6540  2.3991 -1.5903
 3241TIP3    H2 9730   4.574   2.224   0.286 -0.5502 -0.2527  0.1828
 3242TIP3   OH2 9731   5.602   0.386   1.791 -0.0697  0.1635  0.4049
 3242TIP3    H1 9732   5.682   0.429   1.762 -0.4447  1.8443  1.7054
 3242TIP3    H2 9733   5.631   0.319   1.852  0.3770  0.2660  0.3070
 3243TIP3   OH2 9734   1.395   0.105   4.514 -0.5055  0.1405  0.2908
 3243TIP3    H1 9735   1.422   0.166   4.445 -1.2557  0.8675  0.6297
 3243TIP3    H2 9736   1.358   0.030   4.467 -1.0204  0.6347 -0.0963
 3244TIP3   OH2 9737   6.186   3.407   0.369 -0.3489  0.3734  0.2933
 3244TIP3    H1 9738   6.157   3.483   0.320  1.2841  1.2558  0.5986
 3244TIP3    H2 9739   6.139   3.412   0.452 -0.7333  0.6888  0.0555
 3245TIP3   OH2 9740   3.514   4.874   0.495  0.0092 -0.3186  0.5051
 3245TIP3    H1 9741   3.432   4.882   0.544 -0.2534 -1.0096  0.1834
 3245TIP3    H2 9742   3.579   4.849   0.561 -0.2064 -0.5665  0.6250
 3246TIP3   OH2 9743   3.565   0.246   4.624 -0.8916  0.2237 -0.1674
 3246TIP3    H1 9744   3.525   0.184   4.564 -0.9212 -1.1843  1.2359
 3246TIP3    H2 9745   3.659   0.233   4.614 -0.8729 -2.1443  2.0729
 3247TIP3   OH2 9746   6.291   5.456   4.703  0.5770  0.3270  0.3978
 3247TIP3    H1 9747   6.325   5.397   4.636 -4.2497 -2.3854 -0.1144
 3247TIP3    H2 9748   6.282   5.540   4.658  1.8562 -0.1484 -0.8177
 3248TIP3   OH2 9749   5.009   3.320   1.171  0.2444 -0.1150  0.4969
 3248TIP3    H1 9750   4.952   3.278   1.106  1.6263  0.0262 -0.8656
 3248TIP3    H2 9751   4.982   3.281   1.255 -0.4534 -1.5883 -0.3642
 3249TIP3   OH2 9752   4.320   1.144   4.324 -0.1277 -0.5410 -0.2047
 3249TIP3    H1 9753   4.339   1.231   4.289 -1.6850  0.1035  0.4379
 3249TIP3    H2 9754   4.319   1.156   4.419  0.1144 -1.3720 -0.0852
 3250TIP3   OH2 9755   5.543   4.545   1.630  0.5375  0.4287 -0.0305
 3250TIP3    H1 9756   5.540   4.636   1.600 -1.5904 -0.4075 -2.8536
 3250TIP3    H2 9757   5.620   4.541   1.686  0.4564  4.0449  0.5950
 3251TIP3   OH2 9758   4.394   1.733   3.328  0.0928 -0.3414  0.2310
 3251TIP3    H1 9759   4.337   1.767   3.259  0.3989 -1.8097 -0.7770
 3251TIP3    H2 9760   4.478   1.777   3.313 -0.1503  0.1845  0.3785
 3252TIP3   OH2 9761   1.090   3.860   2.158 -0.4591 -0.1361  0.2063
 3252TIP3    H1 9762   1.030   3.890   2.226  0.6679 -0.9106  1.5992
 3252TIP3    H2 9763   1.110   3.769   2.182 -0.4031 -0.5961 -1.4488
 3253TIP3   OH2 9764   0.041   4.736   3.499 -0.5731 -0.2275 -0.8284
 3253TIP3    H1 9765  -0.046   4.726   3.538 -0.1623  1.2626  0.5974
 3253TIP3    H2 9766   0.078   4.813   3.542  0.4717  0.7466 -3.2765
 3254TIP3   OH2 9767   5.175   5.641   3.075  0.2478 -0.5291 -0.3741
 3254TIP3    H1 9768   5.112   5.604   3.137 -0.0647 -0.8706 -0.8880
 3254TIP3    H2 9769   5.146   5.732   3.063  1.0635 -0.0588  0.9511
 3255TIP3   OH2 9770   1.474   5.593   2.358  0.2183 -0.2182 -0.1422
 3255TIP3    H1 9771   1.431   5.677   2.343 -0.0455 -0.1003  1.1677
 3255TIP3    H2 9772   1.415   5.545   2.416  1.0703 -0.6972  0.3584
 3256TIP3   OH2 9773   3.156   1.830   1.395 -0.2164  0.1521 -0.0244
 3256TIP3    H1 9774   3.154   1.734   1.387  0.0225  0.1874 -0.5103
 3256TIP3    H2 9775   3.246   1.849   1.422 -0.7414  0.1070  1.9087
 3257TIP3   OH2 9776   1.021   5.209   0.394  0.0365  0.2449 -0.6082
 3257TIP3    H1 9777   1.089   5.158   0.351  0.9916  0.5519  0.4992
 3257TIP3    H2 9778   1.058   5.232   0.479 -1.1630  1.0539 -0.2791
 3258TIP3   OH2 9779   1.663   5.684   0.955  0.1370  0.0031  0.3930
 3258TIP3    H1 9780   1.702   5.770   0.969  0.2395  0.8345 -3.7829
 3258TIP3    H2 9781   1.570   5.701   0.940  0.4256 -0.2781 -2.1278
 3259TIP3   OH2 9782   1.952   4.562   2.497 -0.5008  0.0928 -0.1632
 3259TIP3    H1 9783   1.858   4.578   2.495 -0.4525  1.0477  2.0100
 3259TIP3    H2 9784   1.975   4.566   2.590  1.6268 -0.4828 -0.6116
 3260TIP3   OH2 9785   3.363   2.184   4.548  0.0822  0.6926  0.0009
 3260TIP3    H1 9786   3.274   2.183   4.583  0.8164  0.5253  1.9873
 3260TIP3    H2 9787   3.403   2.103   4.581  1.5963  1.7758  0.9907
 3261TIP3   OH2 9788   1.135   4.825   1.848  0.3853 -0.4671 -0.0653
 3261TIP3    H1 9789   1.120   4.765   1.921 -0.0623  0.4260  0.6094
 3261TIP3    H2 9790   1.082   4.791   1.777  0.7155 -1.2729  0.0616
 3262TIP3   OH2 9791   1.655   4.674   1.202  0.6760  0.0132  0.2006
 3262TIP3    H1 9792   1.702   4.758   1.198  0.9393 -0.1300  0.2784
 3262TIP3    H2 9793   1.598   4.683   1.278  0.2429  0.3580 -0.1599
 3263TIP3   OH2 9794   0.155   2.703   1.564  0.7898 -0.5443 -0.1102
 3263TIP3    H1 9795   0.152   2.681   1.657  1.1240  3.2754  0.9653
 3263TIP3    H2 9796   0.077   2.662   1.526 -0.7222 -0.1372  2.3813
 3264TIP3   OH2 9797   2.314   0.576   1.299 -0.1269 -0.1897 -0.0534
 3264TIP3    H1 9798   2.268   0.553   1.219 -0.2023 -1.9724  0.4608
 3264TIP3    H2 9799   2.399   0.608   1.269 -0.7271  0.6775 -0.8907
 3265TIP3   OH2 9800   4.543   0.927   4.476 -0.1459 -0.6289 -0.3796
 3265TIP3    H1 9801   4.614   0.958   4.419 -0.1759  0.3995  0.1129
 3265TIP3    H2 9802   4.470   0.985   4.455 -0.8470 -1.6705 -0.8717
 3266TIP3   OH2 9803   2.492   0.146   3.608 -0.4141 -0.0873  0.2516
 3266TIP3    H1 9804   2.574   0.105   3.581 -0.1432 -0.5310  1.6667
 3266TIP3    H2 9805   2.496   0.148   3.703 -2.3697 -0.8028  0.4066
 3267TIP3   OH2 9806   5.931   2.691   2.695 -0.8171 -0.6178  0.4144
 3267TIP3    H1 9807   6.013   2.723   2.730 -1.6883  2.4926 -0.1400
 3267TIP3    H2 9808   5.866   2.712   2.762 -1.4194 -1.6070  0.1742
 3268TIP3   OH2 9809   2.922   2.896   2.880  0.5582 -0.4595  0.2806
 3268TIP3    H1 9810   2.868   2.889   2.801 -0.0822 -0.7651  0.7311
 3268TIP3    H2 9811   2.933   2.806   2.910  1.9857 -0.4773 -0.2271
 3269TIP3   OH2 9812   4.610   4.630   2.076  0.4800  0.3491  0.6172
 3269TIP3    H1 9813   4.700   4.608   2.100  0.3506  0.1006  0.8801
 3269TIP3    H2 9814   4.599   4.720   2.106  1.0778  0.8767 -0.6534
 3270TIP3   OH2 9815   6.012   3.226   3.767  0.1027  0.3694  0.1068
 3270TIP3    H1 9816   5.972   3.311   3.786 -1.9180 -0.5149  0.0901
 3270TIP3    H2 9817   5.963   3.193   3.692  1.4121 -0.4725 -0.4183
 3271TIP3   OH2 9818   3.355   5.738   2.785 -0.3213 -0.3867 -0.4924
 3271TIP3    H1 9819   3.415   5.807   2.756  0.1241 -0.2428  0.7381
 3271TIP3    H2 9820   3.344   5.682   2.708 -0.3249  0.7903 -1.3682
 3272TIP3   OH2 9821   4.852   5.118   4.875  0.6916  0.6785 -0.3331
 3272TIP3    H1 9822   4.935   5.091   4.913  0.0243 -0.5943  0.2927
 3272TIP3    H2 9823   4.791   5.048   4.898 -0.1409  0.6610 -2.3329
 3273TIP3   OH2 9824   3.661   2.144   0.639 -0.5097 -0.0030 -0.0121
 3273TIP3    H1 9825   3.626   2.125   0.726 -1.0708 -0.6033 -0.3657
 3273TIP3    H2 9826   3.710   2.225   0.651  0.5906 -0.7919  1.1853
 3274TIP3   OH2 9827   0.983   2.716   2.294 -0.0598  0.4727  0.0856
 3274TIP3    H1 9828   1.071   2.692   2.325 -0.3638 -0.0292  0.5827
 3274TIP3    H2 9829   0.969   2.804   2.327  0.1906  0.4912  0.1481
 3275TIP3   OH2 9830   0.825   0.524   2.163  0.4629 -0.3155  0.4971
 3275TIP3    H1 9831   0.775   0.481   2.093  2.7230  0.3702 -1.6644
 3275TIP3    H2 9832   0.773   0.601   2.185 -0.7795 -1.0738  0.3156
 3276TIP3   OH2 9833   1.266   1.145   1.765 -0.3196  0.5485  0.1767
 3276TIP3    H1 9834   1.324   1.070   1.761 -0.6155  0.3193  0.1269
 3276TIP3    H2 9835   1.188   1.118   1.716 -0.0511  1.2251 -0.6415
 3277TIP3   OH2 9836   5.290   4.147   4.513  0.0389  0.2380  0.3122
 3277TIP3    H1 9837   5.326   4.166   4.600 -0.8377  0.2118  0.6986
 3277TIP3    H2 9838   5.312   4.056   4.498 -1.5271 -0.3658  1.4100
 3278TIP3   OH2 9839   1.853   0.600   4.563 -0.2064  0.5414 -0.2652
 3278TIP3    H1 9840   1.806   0.520   4.587 -1.0633  0.9488 -0.5472
 3278TIP3    H2 9841   1.790   0.671   4.581 -0.2773  0.9921 -2.0727
 3279TIP3   OH2 9842   2.818   1.509   2.051 -0.3977  0.1663  0.4253
 3279TIP3    H1 9843   2.845   1.505   2.142 -0.5417 -2.6699  0.4407
 3279TIP3    H2 9844   2.723   1.505   2.053 -0.6356  3.4158  0.1681
 3280TIP3   OH2 9845   2.084   5.557   4.458 -0.2044 -0.3465  0.0398
 3280TIP3    H1 9846   2.154   5.619   4.479  1.0289 -0.7082 -2.6333
 3280TIP3    H2 9847   2.010   5.585   4.512  0.7697  2.5215  0.0303
 3281TIP3   OH2 9848   1.638   0.047   0.179 -0.4047  0.0845  0.0010
 3281TIP3    H1 9849   1.570   0.017   0.239  0.0594 -0.5389  0.2263
 3281TIP3    H2 9850   1.638  -0.018   0.108  0.6405 -0.5159  0.5200
 3282TIP3   OH2 9851   2.083   1.494   0.199  0.2508  0.0306 -0.0362
 3282TIP3    H1 9852   2.176   1.516   0.196  0.4849 -0.8614  0.3826
 3282TIP3    H2 9853   2.076   1.429   0.268 -0.7666  0.4334  0.2640
 3283TIP3   OH2 9854   1.741   5.258   3.557 -0.2336 -0.7945 -0.0325
 3283TIP3    H1 9855   1.742   5.175   3.603  1.9900 -0.1054  1.3465
 3283TIP3    H2 9856   1.821   5.257   3.503 -0.5437  0.1445 -0.5393
 3284TIP3   OH2 9857   0.451   5.030   2.717  0.1799  0.8129 -0.2350
 3284TIP3    H1 9858   0.482   5.112   2.679  1.0338  1.0270  0.8775
 3284TIP3    H2 9859   0.525   4.970   2.709  0.5054  0.9586  1.3507
 3285TIP3   OH2 9860   3.684   4.948   2.802 -0.6872 -0.0095  0.5714
 3285TIP3    H1 9861   3.722   5.027   2.765 -0.8460 -0.1770  0.0419
 3285TIP3    H2 9862   3.758   4.904   2.845 -0.7326  0.7415  1.4334
 3286TIP3   OH2 9863   1.473   3.625   1.840  0.1296 -0.3141  0.9403
 3286TIP3    H1 9864   1.556   3.580   1.827 -0.4752 -1.2542  0.1385
 3286TIP3    H2 9865   1.409   3.554   1.849 -0.3834  0.3538  3.2424
 3287TIP3   OH2 9866   0.621   2.747   4.304  0.0002  0.0711  0.8623
 3287TIP3    H1 9867   0.666   2.811   4.248  0.2935 -0.0740  0.9285
 3287TIP3    H2 9868   0.680   2.735   4.378  0.0431 -0.4271  0.7536
 3288TIP3   OH2 9869   3.477   4.747   1.722 -0.3736  0.1562  0.5062
 3288TIP3    H1 9870   3.447   4.825   1.676 -2.3511  0.2487  1.8207
 3288TIP3    H2 9871   3.534   4.780   1.791 -0.4425  0.3564  0.4680
 3289TIP3   OH2 9872   4.554   3.353   4.788 -0.0173 -0.6578 -0.2523
 3289TIP3    H1 9873   4.631   3.386   4.741  0.5975 -0.2142  1.0090
 3289TIP3    H2 9874   4.588   3.283   4.844 -0.0831  0.9356  1.8945
 3290TIP3   OH2 9875   2.347   1.558   4.476 -0.1891 -0.1837  0.8098
 3290TIP3    H1 9876   2.254   1.571   4.458  0.0187 -0.5286 -0.6572
 3290TIP3    H2 9877   2.390   1.573   4.391  0.9172 -1.6656  1.0706
 3291TIP3   OH2 9878   5.697   4.730   2.006  0.0897 -0.0837  0.2137
 3291TIP3    H1 9879   5.789   4.707   1.990  0.0943  0.1828 -0.1701
 3291TIP3    H2 9880   5.647   4.654   1.977  0.1618 -0.0173 -0.0929
 3292TIP3   OH2 9881   1.903   4.982   3.353  0.4209 -0.0574 -0.0711
 3292TIP3    H1 9882   1.979   4.924   3.350 -1.0501 -2.0610 -1.7471
 3292TIP3    H2 9883   1.835   4.935   3.303 -1.4638  2.2900  0.1116
 3293TIP3   OH2 9884   6.014   0.163   4.050  0.4105  0.2548 -0.1103
 3293TIP3    H1 9885   5.971   0.148   4.135 -1.2617  0.0415 -0.9514
 3293TIP3    H2 9886   5.950   0.213   4.000  0.8184 -0.7482 -1.6956
 3294TIP3   OH2 9887   0.589   5.253   4.035 -0.2038 -0.2380 -0.1406
 3294TIP3    H1 9888   0.623   5.166   4.056 -2.7189 -1.4571 -0.6954
 3294TIP3    H2 9889   0.586   5.255   3.940 -2.9083 -0.8309 -0.1610
 3295TIP3   OH2 9890   5.366   3.018   1.342 -0.3261 -0.4388 -0.3196
 3295TIP3    H1 9891   5.322   3.101   1.325  1.1875  0.6913  0.9601
 3295TIP3    H2 9892   5.328   2.957   1.279 -1.4257  1.2335 -1.3459
 3296TIP3   OH2 9893   0.578   1.723   2.456  0.7426 -0.5151  0.9657
 3296TIP3    H1 9894   0.509   1.682   2.509  1.2598 -0.9930  1.2829
 3296TIP3    H2 9895   0.655   1.668   2.471  1.0620 -0.2892  0.2079
 3297TIP3   OH2 9896   4.060   4.285   2.098 -0.3904  0.3089 -0.0704
 3297TIP3    H1 9897   4.067   4.241   2.013 -0.0848  0.2374 -0.0072
 3297TIP3    H2 9898   4.073   4.215   2.162  0.2328  0.5170  0.0289
 3298TIP3   OH2 9899   5.696   2.958   0.443  0.0358 -0.6946 -0.2933
 3298TIP3    H1 9900   5.775   2.959   0.388  0.9703 -0.2186  1.0221
 3298TIP3    H2 9901   5.707   3.032   0.502 -0.3384 -1.9153  1.3649
 3299TIP3   OH2 9902   2.265   0.859   0.921  0.6518  0.1558 -0.0451
 3299TIP3    H1 9903   2.187   0.914   0.927  1.2165  0.9135  0.7747
 3299TIP3    H2 9904   2.319   0.887   0.995  1.6029 -0.5004 -0.4720
 3300TIP3   OH2 9905   5.617   2.908   4.822  0.1024 -0.0788  0.3301
 3300TIP3    H1 9906   5.559   2.964   4.769 -0.4100 -0.6646  0.2631
 3300TIP3    H2 9907   5.701   2.954   4.822 -0.8655  1.8094  2.0626
 3301TIP3   OH2 9908   3.536   5.102   2.976 -0.1128 -0.1914  0.2950
 3301TIP3    H1 9909   3.606   5.046   2.943  0.6421  0.6994  0.3322
 3301TIP3    H2 9910   3.521   5.166   2.906  0.7397  1.0362  1.1790
 3302TIP3   OH2 9911   2.302   5.488   1.740 -0.1353 -0.1818 -0.1557
 3302TIP3    H1 9912   2.392   5.458   1.724 -0.2421 -1.8865  2.0491
 3302TIP3    H2 9913   2.248   5.432   1.684 -0.0145 -1.3075  0.8208
 3303TIP3   OH2 9914   4.710   1.489   1.416  0.8277  0.0600 -0.1541
 3303TIP3    H1 9915   4.683   1.581   1.411  1.3967  0.2513  0.1566
 3303TIP3    H2 9916   4.759   1.483   1.498 -0.5774 -0.8961  0.6539
 3304TIP3   OH2 9917   3.589   3.836   2.940  0.1096 -0.2102 -0.6013
 3304TIP3    H1 9918   3.535   3.916   2.938  0.0298 -0.2142  0.6279
 3304TIP3    H2 9919   3.528   3.766   2.919  0.0227 -0.0208 -0.9877
 3305TIP3   OH2 9920   5.831   1.579   5.024  0.4446 -0.2752  0.2082
 3305TIP3    H1 9921   5.872   1.524   5.090  0.2904 -0.8296 -0.1482
 3305TIP3    H2 9922   5.836   1.527   4.943 -0.4934 -0.1330  0.0505
 3306TIP3   OH2 9923   5.797   2.090   2.108  0.4129  0.7736  0.0041
 3306TIP3    H1 9924   5.875   2.115   2.058  1.2678  0.3404  1.1008
 3306TIP3    H2 9925   5.783   1.998   2.087 -2.3265  1.7252 -3.4783
 3307TIP3   OH2 9926   0.099   4.502   2.902 -0.3030  0.1069 -0.2883
 3307TIP3    H1 9927   0.076   4.441   2.972 -0.4076  0.5321  0.0492
 3307TIP3    H2 9928   0.070   4.457   2.822 -0.1059 -0.4178 -0.0744
 3308TIP3   OH2 9929   2.578   3.298   4.783 -0.5091  0.6116  0.6699
 3308TIP3    H1 9930   2.545   3.314   4.694 -1.7842 -0.9075  0.8150
 3308TIP3    H2 9931   2.545   3.371   4.835  0.0432  1.3835 -0.0387
 3309TIP3   OH2 9932   0.107   5.411   0.721 -0.1785  0.6995 -0.5727
 3309TIP3    H1 9933   0.034   5.426   0.781  0.6737 -0.7370  0.8871
 3309TIP3    H2 9934   0.075   5.344   0.660  0.0307 -0.2453  0.3295
 3310TIP3   OH2 9935   2.375   2.933   0.501  0.5381 -0.3446  0.4917
 3310TIP3    H1 9936   2.281   2.916   0.503  0.6984 -1.3723  0.0454
 3310TIP3    H2 9937   2.383   3.020   0.462 -0.2220 -0.3269  0.3630
 3311TIP3   OH2 9938   6.320   4.062   4.522 -0.4663 -0.5354 -0.4708
 3311TIP3    H1 9939   6.380   4.078   4.448 -1.3394 -0.2747 -1.1366
 3311TIP3    H2 9940   6.337   3.971   4.546  0.0950 -0.5140 -0.7476
 3312TIP3   OH2 9941   2.027   3.703   3.819 -0.0364 -0.0917 -0.1942
 3312TIP3    H1 9942   2.103   3.653   3.788 -0.5924 -0.2039 -1.4213
 3312TIP3    H2 9943   2.065   3.775   3.870  0.9086  0.0120 -1.0099
 3313TIP3   OH2 9944   2.889   5.142   4.997 -0.0546 -0.6753 -0.0022
 3313TIP3    H1 9945   2.801   5.178   5.003 -0.3144 -1.3416  0.3498
 3313TIP3    H2 9946   2.884   5.060   5.046  0.6503 -0.9292 -0.3451
 3314TIP3   OH2 9947   4.246   4.437   3.089 -0.2863  1.2838 -0.1277
 3314TIP3    H1 9948   4.269   4.494   3.016  1.0645 -0.6691 -1.3381
 3314TIP3    H2 9949   4.288   4.353   3.068 -0.4848  0.4235  2.5422
 3315TIP3   OH2 9950   0.385   3.238   2.332 -0.6995  0.1061  0.3662
 3315TIP3    H1 9951   0.363   3.281   2.250  0.6744 -1.6769 -1.0298
 3315TIP3    H2 9952   0.300   3.220   2.373 -1.4494  0.5770 -0.9171
 3316TIP3   OH2 9953   4.802   2.420   0.469 -0.0307 -0.0361  0.3768
 3316TIP3    H1 9954   4.787   2.456   0.381  1.4791  0.7905  0.4196
 3316TIP3    H2 9955   4.849   2.338   0.453 -0.1843 -0.1305  0.4054
 3317TIP3   OH2 9956   1.811   4.277   4.448  0.3789 -0.0958  0.2093
 3317TIP3    H1 9957   1.904   4.285   4.429  0.0420  2.8197 -0.6564
 3317TIP3    H2 9958   1.807   4.228   4.530  2.5554 -1.3982 -0.3780
 3318TIP3   OH2 9959   0.652   4.839   4.365 -0.9232 -0.1400 -0.2254
 3318TIP3    H1 9960   0.562   4.838   4.332 -1.5083 -0.7876  1.2904
 3318TIP3    H2 9961   0.643   4.843   4.460  0.6833  1.0183 -0.0865
 3319TIP3   OH2 9962   5.748   2.059   0.045  0.5853 -0.1220  0.6278
 3319TIP3    H1 9963   5.688   2.121   0.085  0.5720 -0.2797  0.8490
 3319TIP3    H2 9964   5.766   2.097  -0.042 -0.8243 -0.7009  0.0414
 3320TIP3   OH2 9965   5.690   3.052   3.816 -0.0702 -0.1558 -0.3861
 3320TIP3    H1 9966   5.599   3.033   3.792 -0.6405 -0.1321  1.5933
 3320TIP3    H2 9967   5.740   3.030   3.737 -1.5416 -2.3102 -0.8114
 3321TIP3   OH2 9968   3.701   4.710   3.456 -0.1883  0.1308 -0.5489
 3321TIP3    H1 9969   3.698   4.800   3.422  0.9933  0.4303  0.0691
 3321TIP3    H2 9970   3.618   4.699   3.502 -0.7273  0.5891 -1.3871
 3322TIP3   OH2 9971   2.125   5.617   5.032 -0.0582  0.9501  0.2757
 3322TIP3    H1 9972   2.157   5.707   5.027  0.1130  0.8989  0.4276
 3322TIP3    H2 9973   2.202   5.563   5.013 -0.7458  0.8634 -2.6330
 3323TIP3   OH2 9974   4.544   2.687   1.680 -0.0588  0.5688  0.0377
 3323TIP3    H1 9975   4.506   2.693   1.593  0.8627  2.3459 -0.2974
 3323TIP3    H2 9976   4.496   2.753   1.731  0.4262  0.6082  0.4517
 3324TIP3   OH2 9977   6.148  -0.005   0.345 -0.9699 -0.0020 -0.2187
 3324TIP3    H1 9978   6.103   0.079   0.341 -0.2190  0.4688  0.8348
 3324TIP3    H2 9979   6.163  -0.029   0.253 -2.0534  0.5214 -0.5464
 3325TIP3   OH2 9980   2.892   0.711   3.661  0.1021  0.0661 -0.1458
 3325TIP3    H1 9981   2.837   0.787   3.678  1.7510  1.0351  1.0921
 3325TIP3    H2 9982   2.833   0.636   3.673 -1.1810  1.0823  0.1097
 3326TIP3   OH2 9983   3.579   3.722   5.181  0.6283 -0.3501 -0.8681
 3326TIP3    H1 9984   3.563   3.757   5.093 -0.2065  0.8832 -0.2642
 3326TIP3    H2 9985   3.646   3.779   5.218  0.9031 -0.7993 -0.6771
 3327TIP3   OH2 9986   4.986   0.992   4.565  0.5627  0.7796 -0.6391
 3327TIP3    H1 9987   4.958   0.921   4.507 -0.4608  0.7035 -0.0793
 3327TIP3    H2 9988   4.909   1.009   4.619  1.8480  0.0233  1.5386
 3328TIP3   OH2 9989   3.261   3.189   0.818  0.6860 -0.0840  0.1132
 3328TIP3    H1 9990   3.356   3.196   0.818  0.7392 -0.3323 -2.0360
 3328TIP3    H2 9991   3.244   3.094   0.820  0.5666 -0.1300 -1.5194
 3329TIP3   OH2 9992   6.224   0.911   2.107 -0.5881 -0.0877  0.4909
 3329TIP3    H1 9993   6.218   0.924   2.202  0.9004  1.5461  0.4278
 3329TIP3    H2 9994   6.273   0.830   2.097  0.0348  0.1912  1.1570
 3330TIP3   OH2 9995   5.435   4.093   1.372  0.4807 -0.1969 -0.1759
 3330TIP3    H1 9996   5.497   4.132   1.311 -0.0270 -1.8495 -1.8317
 3330TIP3    H2 9997   5.402   4.166   1.424  3.3033  0.8192  0.3497
 3331TIP3   OH2 9998   3.500   6.005   1.895 -0.3632 -0.3822  0.1897
 3331TIP3    H1 9999   3.467   5.916   1.906 -0.2257 -0.5823 -0.9085
 3331TIP3    H210000   3.558   6.000   1.819  0.9108  0.3141  1.0654
 3332TIP3   OH210001   6.351   2.509   3.088  0.2288  0.3790  0.1862
 3332TIP3    H110002   6.261   2.480   3.074  0.2955 -0.2518  1.0368
 3332TIP3    H210003   6.347   2.604   3.082 -0.6595  0.4055  1.1477
 3333TIP3   OH210004   2.884   3.108   2.300 -0.1073 -0.7544 -0.0746
 3333TIP3    H110005   2.830   3.054   2.242 -0.5050 -0.9293  0.4477
 3333TIP3    H210006   2.830   3.184   2.319  0.5586 -0.0150 -1.0313
 3334TIP3   OH210007   4.753   5.462   2.601 -0.0580 -0.9524 -0.2272
 3334TIP3    H110008   4.744   5.402   2.527  1.5416  0.0442 -1.2899
 3334TIP3    H210009   4.814   5.418   2.660 -1.4552 -1.8199  0.6435
 3335TIP3   OH210010   6.265   1.902   5.099  0.0552  0.4620  0.5236
 3335TIP3    H110011   6.348   1.904   5.053  0.0986 -0.1371  0.5660
 3335TIP3    H210012   6.281   1.848   5.176 -0.1162  1.1470  1.0555
 3336TIP3   OH210013   3.938   0.275   4.835  0.0002 -0.3363 -0.1073
 3336TIP3    H110014   3.901   0.259   4.748 -0.8904 -1.1999  0.4087
 3336TIP3    H210015   4.018   0.325   4.818 -1.5757  1.9509 -1.2370
 3337TIP3   OH210016   3.903   1.157   1.002  0.0136  0.1079 -0.2581
 3337TIP3    H110017   3.849   1.089   1.041  1.2365 -2.2196 -2.3192
 3337TIP3    H210018   3.843   1.230   0.985 -2.1210 -1.7207 -0.9611
 3338TIP3   OH210019   3.361   5.950   0.105  0.2919 -0.1555 -1.2126
 3338TIP3    H110020   3.369   5.930   0.012  3.0348  0.6628 -1.2312
 3338TIP3    H210021   3.388   6.042   0.112 -2.8856  0.8385  0.0590
 3339TIP3   OH210022   0.146   2.917   4.030 -0.2852  0.8143  0.5063
 3339TIP3    H110023   0.208   2.940   3.962 -1.6353  1.5756 -0.5034
 3339TIP3    H210024   0.195   2.859   4.089  1.2540  1.1274 -0.4303
 3340TIP3   OH210025   0.271   4.755   3.332  0.5210  0.5265  0.2585
 3340TIP3    H110026   0.193   4.752   3.388 -1.0091  1.4176 -1.6901
 3340TIP3    H210027   0.295   4.663   3.320 -0.9805  0.1292 -0.0184
 3341TIP3   OH210028   1.440   2.451   0.427  0.0262 -0.0771 -0.2251
 3341TIP3    H110029   1.399   2.367   0.447  1.2130 -0.7030 -0.2682
 3341TIP3    H210030   1.511   2.429   0.367  0.7026  0.8809  0.1881
 3342TIP3   OH210031   6.306   4.994   0.303  0.4846  0.1631 -0.3177
 3342TIP3    H110032   6.305   5.081   0.263 -0.5639 -0.0516 -0.8000
 3342TIP3    H210033   6.230   4.994   0.362  0.2432 -0.5435 -0.6147
 3343TIP3   OH210034   0.674   2.809   0.163 -0.3410  0.0317  0.0455
 3343TIP3    H110035   0.739   2.870   0.198 -0.5512  0.5596 -0.4686
 3343TIP3    H210036   0.621   2.862   0.103 -0.1829 -0.7781 -0.8373
 3344TIP3   OH210037   1.251   3.592   1.421  0.2717 -0.5487  0.0497
 3344TIP3    H110038   1.197   3.515   1.404 -1.2264  0.1299  1.4600
 3344TIP3    H210039   1.198   3.666   1.389 -0.0431  0.2075  2.1731
 3345TIP3   OH210040   0.775   4.343   3.814 -0.1304  0.7257  0.7180
 3345TIP3    H110041   0.795   4.384   3.730 -0.7531  2.3535  1.3304
 3345TIP3    H210042   0.693   4.295   3.798  1.0046 -1.0066 -0.2062
 3346TIP3   OH210043   0.227   4.481   1.767  0.3703  0.6731 -0.2297
 3346TIP3    H110044   0.136   4.457   1.749  0.0129 -0.4369  2.5204
 3346TIP3    H210045   0.274   4.398   1.768  0.7528  0.8778  1.4579
 3347TIP3   OH210046   3.684   6.001   3.267 -0.8763  0.3367 -0.0281
 3347TIP3    H110047   3.656   5.931   3.208 -0.1245  0.7236 -0.8695
 3347TIP3    H210048   3.745   5.958   3.327 -2.4856 -0.3028  1.2120
 3348TIP3   OH210049   1.871   1.489   4.138  0.0345 -0.6007  0.1992
 3348TIP3    H110050   1.790   1.533   4.163 -0.0369 -0.4555 -0.2825
 3348TIP3    H210051   1.909   1.545   4.070 -0.0092 -1.2239 -0.3551
 3349TIP3   OH210052   5.736   1.953   3.661  0.3122 -0.1878 -0.2555
 3349TIP3    H110053   5.767   1.956   3.752  2.1191 -2.0426 -0.7565
 3349TIP3    H210054   5.642   1.932   3.669  0.7669 -1.9679  1.1977
 3350TIP3   OH210055   2.885   0.793   4.192  0.3209  0.3104 -0.2058
 3350TIP3    H110056   2.865   0.745   4.272  1.3195 -0.8826 -0.6520
 3350TIP3    H210057   2.975   0.824   4.205 -1.0480  4.3987  1.1853
 3351TIP3   OH210058   4.351   4.622   3.587 -0.2313  0.1976  0.6604
 3351TIP3    H110059   4.284   4.690   3.597 -0.0806  0.3531  0.6185
 3351TIP3    H210060   4.432   4.671   3.571 -0.5274 -0.0323 -1.8799
 3352TIP3   OH210061   4.351   3.676   3.505  0.4937 -0.2547 -0.2094
 3352TIP3    H110062   4.332   3.751   3.449  1.3344  0.0731 -0.0772
 3352TIP3    H210063   4.346   3.711   3.594  0.4782 -0.4571 -0.1313
 3353TIP3   OH210064   2.140   2.234   3.521  0.5621 -0.1674 -0.7525
 3353TIP3    H110065   2.207   2.190   3.468  0.5031  0.0410 -1.0055
 3353TIP3    H210066   2.090   2.286   3.458 -1.2869 -2.0272 -0.9433
 3354TIP3   OH210067   3.553   1.005   3.180 -0.4034  0.0323 -0.2214
 3354TIP3    H110068   3.506   1.064   3.239  0.6493  0.4002  0.2674
 3354TIP3    H210069   3.613   1.062   3.132  0.2405 -0.5604 -0.1350
 3355TIP3   OH210070   0.907   4.795   0.669 -0.2318  0.3424 -0.0818
 3355TIP3    H110071   0.832   4.841   0.631 -1.3934 -1.1220  0.3378
 3355TIP3    H210072   0.899   4.810   0.763  0.8408  1.3499 -0.1315
 3356TIP3   OH210073   1.186   4.749   2.713  0.1026  0.3576 -0.2867
 3356TIP3    H110074   1.098   4.752   2.677  0.7951 -0.2729 -2.1445
 3356TIP3    H210075   1.183   4.807   2.789 -1.9298  0.2185 -0.2142
 3357TIP3   OH210076   3.480   3.656   3.621 -0.2166  0.3189  0.1255
 3357TIP3    H110077   3.474   3.751   3.608 -0.7707  0.5035  1.5483
 3357TIP3    H210078   3.447   3.619   3.539  1.7769  1.3088 -1.2127
 3358TIP3   OH210079   3.744   5.476   0.403  0.0789 -0.2627 -0.2132
 3358TIP3    H110080   3.819   5.535   0.408  0.6491 -1.0539  1.4094
 3358TIP3    H210081   3.783   5.389   0.395 -0.6838 -0.6260 -0.0308
 3359TIP3   OH210082   2.861   0.642   3.027 -0.3571 -0.4561  0.2697
 3359TIP3    H110083   2.915   0.716   2.998 -1.3333  0.6710  1.1754
 3359TIP3    H210084   2.923   0.571   3.041  0.7311  0.4292  0.0935
 3360TIP3   OH210085   1.281   5.232   2.153  0.1968  0.1429  0.1192
 3360TIP3    H110086   1.243   5.171   2.217  0.2235 -0.0855 -0.0816
 3360TIP3    H210087   1.375   5.214   2.155  0.1784  0.0196 -0.1044
 3361TIP3   OH210088   6.277   0.782   1.593  0.2029  0.2563  0.1628
 3361TIP3    H110089   6.276   0.687   1.599  4.6767  0.0810  3.0725
 3361TIP3    H210090   6.314   0.801   1.507 -0.8573 -0.5398 -0.4923
 3362TIP3   OH210091   5.057   2.289   1.916  0.3896  0.1723  0.9615
 3362TIP3    H110092   5.055   2.316   2.007 -1.0905  0.1142  0.9588
 3362TIP3    H210093   5.013   2.359   1.868  0.8057  0.0216  0.3320
 3363TIP3   OH210094   5.775   5.297   3.254 -0.0658 -0.2912  0.3252
 3363TIP3    H110095   5.770   5.205   3.229 -0.0182 -0.5643  1.2768
 3363TIP3    H210096   5.755   5.298   3.348 -2.7802  0.9736 -0.1723
 3364TIP3   OH210097   4.609   0.197   1.989  0.2327  0.4755  0.1350
 3364TIP3    H110098   4.626   0.256   2.062 -0.5390 -0.2598  0.9207
 3364TIP3    H210099   4.515   0.204   1.974  0.0678 -0.8338  0.4922
 3365TIP3   OH210100   3.895   4.201   0.383 -0.5390  0.0702  0.1911
 3365TIP3    H110101   3.909   4.122   0.331  0.1513  1.7606 -2.3676
 3365TIP3    H210102   3.800   4.202   0.400 -0.7383 -0.7028 -0.7711
 3366TIP3   OH210103   5.037   1.401   3.874  0.1078  0.5884  0.1993
 3366TIP3    H110104   5.022   1.309   3.853 -0.5558  0.8998 -0.7397
 3366TIP3    H210105   4.954   1.431   3.910 -0.3017  1.2969 -1.2783
 3367TIP3   OH210106   1.681   2.003   3.731 -0.3416  0.3991  0.0165
 3367TIP3    H110107   1.689   2.056   3.810 -0.8234 -0.3649  0.5892
 3367TIP3    H210108   1.753   2.033   3.675 -1.4933  2.6893 -0.3088
 3368TIP3   OH210109   0.124   3.712   1.162 -0.1719 -0.4482  0.4422
 3368TIP3    H110110   0.128   3.659   1.241 -0.4346 -2.1618 -0.6476
 3368TIP3    H210111   0.030   3.719   1.143 -0.1899  1.0810  0.9837
 3369TIP3   OH210112   1.349   4.476   1.786  0.1242 -0.0607 -0.5863
 3369TIP3    H110113   1.359   4.569   1.766 -0.9448 -0.2541 -2.1707
 3369TIP3    H210114   1.359   4.471   1.882 -0.0185  1.6977 -0.4507
 3370TIP3   OH210115   6.177   1.056   1.895 -0.5311  0.3933  0.1419
 3370TIP3    H110116   6.202   1.143   1.925  2.4593 -0.3788  0.2168
 3370TIP3    H210117   6.199   0.998   1.969 -0.9713 -0.6129 -0.4845
 3371TIP3   OH210118   1.186   0.046   1.734  0.0850 -0.3161 -0.4881
 3371TIP3    H110119   1.121   0.042   1.664  0.4347 -1.3160 -0.7732
 3371TIP3    H210120   1.142   0.006   1.809 -0.2260  0.5887 -0.1853
 3372TIP3   OH210121   0.562   5.501   1.596 -0.1067  0.0872 -0.3111
 3372TIP3    H110122   0.656   5.489   1.578 -0.2686 -1.2435 -0.3835
 3372TIP3    H210123   0.529   5.550   1.521  0.6837  1.3405  0.1280
 3373TIP3   OH210124   1.211   0.445   5.103 -0.9909  0.9270  0.2162
 3373TIP3    H110125   1.174   0.526   5.138  0.2094  1.6077 -0.0310
 3373TIP3    H210126   1.251   0.402   5.179  1.1095  2.1226 -0.1624
 3374TIP3   OH210127   4.347   1.849   5.089 -0.5157 -0.4575 -0.0498
 3374TIP3    H110128   4.383   1.920   5.142  0.5178  0.2855 -1.6482
 3374TIP3    H210129   4.416   1.830   5.025 -1.8456 -1.0286 -1.3636
 3375TIP3   OH210130   4.502   0.597   0.545  0.1978 -0.0239  0.2457
 3375TIP3    H110131   4.417   0.625   0.512 -0.2014 -1.8774 -0.4233
 3375TIP3    H210132   4.558   0.592   0.467 -0.0131 -1.8566  0.1529
 3376TIP3   OH210133   0.980   5.979   1.349  0.7160 -0.0385 -0.4354
 3376TIP3    H110134   1.031   5.900   1.328  0.0149  0.0230 -2.6712
 3376TIP3    H210135   0.933   5.999   1.268  1.3250  3.0255 -0.1695
 3377TIP3   OH210136   4.458   1.504   0.196 -0.0447 -0.6095 -0.0982
 3377TIP3    H110137   4.501   1.541   0.274 -1.5145 -1.4768  1.1688
 3377TIP3    H210138   4.435   1.581   0.143  2.6599 -0.0769 -0.6827
 3378TIP3   OH210139   5.434   3.893   3.169 -0.0145  0.3990 -0.2597
 3378TIP3    H110140   5.353   3.943   3.164 -0.0269  0.4501  0.4678
 3378TIP3    H210141   5.446   3.874   3.262  0.2784 -0.4788 -0.4612
 3379TIP3   OH210142   4.197   3.254   3.180 -0.4376  0.6107 -0.3619
 3379TIP3    H110143   4.209   3.192   3.252 -2.3622  1.8027  1.0907
 3379TIP3    H210144   4.199   3.200   3.101 -2.3654 -1.4195  0.8493
 3380TIP3   OH210145   5.011   3.018   3.276 -0.1334  0.0142  0.5337
 3380TIP3    H110146   5.061   3.095   3.303  0.3243 -0.3577  0.7598
 3380TIP3    H210147   4.933   3.053   3.233 -0.7180  0.6349  2.0168
 3381TIP3   OH210148   0.118   3.241   2.392 -0.9495  0.1158  0.1280
 3381TIP3    H110149   0.119   3.156   2.348  0.9240  0.0471  0.2543
 3381TIP3    H210150   0.043   3.286   2.354 -0.6153 -0.7230 -1.6236
 3382TIP3   OH210151   6.309   5.405   2.478 -0.5857 -0.2496  1.1865
 3382TIP3    H110152   6.342   5.453   2.553 -1.1242  1.3657  0.4323
 3382TIP3    H210153   6.257   5.469   2.429 -0.0324 -1.1505 -0.7045
 3383TIP3   OH210154   1.392   3.415   4.203 -0.4017 -0.6248 -0.6929
 3383TIP3    H110155   1.403   3.326   4.235  1.3902 -0.4147 -0.5886
 3383TIP3    H210156   1.463   3.427   4.140 -0.7241  0.6463 -0.8496
 3384TIP3   OH210157   0.110   2.702   1.869  0.0081 -0.6475 -0.0991
 3384TIP3    H110158   0.198   2.696   1.906 -0.0660 -0.8314  0.0424
 3384TIP3    H210159   0.101   2.623   1.816 -0.3764 -1.0369  0.5356
 3385TIP3   OH210160   5.797   0.483   4.218 -0.0535 -0.1451  0.3402
 3385TIP3    H110161   5.712   0.522   4.237 -0.2094  0.5071 -1.5131
 3385TIP3    H210162   5.787   0.442   4.132  1.3198 -0.6516  0.3849
 3386TIP3   OH210163   5.604   3.453   5.110 -0.4388 -0.2909  0.0688
 3386TIP3    H110164   5.601   3.546   5.085 -0.7737 -0.7401 -1.7018
 3386TIP3    H210165   5.528   3.415   5.067 -0.8485 -1.2330  1.5646
 3387TIP3   OH210166   1.926   5.129   2.062  0.3472 -0.9563 -0.0910
 3387TIP3    H110167   1.912   5.190   2.134  1.6382  0.4284 -0.9593
 3387TIP3    H210168   1.978   5.059   2.101 -0.7753 -1.3332  0.8067
 3388TIP3   OH210169   4.753   0.992   1.891  0.4700  0.1404 -0.0519
 3388TIP3    H110170   4.716   1.080   1.901 -0.6563 -0.5249  2.3237
 3388TIP3    H210171   4.830   0.992   1.947  0.9552 -0.1626 -0.7043
 3389TIP3   OH210172   3.109   1.372   4.663  0.2081  0.0130 -0.1550
 3389TIP3    H110173   3.131   1.320   4.586 -1.5853 -0.9183 -0.1046
 3389TIP3    H210174   3.182   1.431   4.674  1.9999 -1.9778 -0.6930
 3390TIP3   OH210175   5.819   2.805   3.316  0.4365 -0.6850  0.1890
 3390TIP3    H110176   5.840   2.779   3.406 -1.8389  0.8616  1.2592
 3390TIP3    H210177   5.904   2.823   3.276  1.5359 -1.8369  1.8544
 3391TIP3   OH210178   2.204   0.224   0.193 -0.0873  0.4288  0.2546
 3391TIP3    H110179   2.192   0.226   0.287 -0.5661  1.5696  0.1764
 3391TIP3    H210180   2.295   0.195   0.181 -0.8724 -2.6488  0.9589
 3392TIP3   OH210181   1.508   3.239   2.837 -0.3583  0.4940 -0.6012
 3392TIP3    H110182   1.588   3.188   2.827  1.6095  2.9185  1.4027
 3392TIP3    H210183   1.484   3.265   2.748 -0.9724 -2.9873 -1.6030
 3393TIP3   OH210184   3.579   3.312   4.222 -0.4873  0.1884  0.7179
 3393TIP3    H110185   3.517   3.317   4.150  0.0572 -0.0419  0.2242
 3393TIP3    H210186   3.625   3.395   4.221 -1.0219  0.5026  1.3106
 3394TIP3   OH210187   3.118   0.618   4.297 -0.2556 -0.0953 -0.0554
 3394TIP3    H110188   3.135   0.688   4.233 -0.0968  0.3361  0.4553
 3394TIP3    H210189   3.042   0.571   4.261 -1.8092  1.7187  0.7110
 3395TIP3   OH210190   0.484   1.250   3.530  0.2212  0.4580 -0.0990
 3395TIP3    H110191   0.577   1.227   3.527  0.4758  1.5217 -1.1880
 3395TIP3    H210192   0.481   1.330   3.583 -0.4122 -0.9416  2.0665
 3396TIP3   OH210193   4.876   3.141   0.998 -0.3754 -0.9222 -0.2143
 3396TIP3    H110194   4.791   3.097   0.994 -0.3891 -0.8321 -1.6044
 3396TIP3    H210195   4.893   3.168   0.907 -0.1230  1.4730  0.4829
 3397TIP3   OH210196   1.135   2.531   3.552 -0.1987  0.4896 -0.1064
 3397TIP3    H110197   1.053   2.542   3.503 -0.7717 -0.2467  0.6494
 3397TIP3    H210198   1.152   2.617   3.590 -1.0723  0.4461  0.4065
 3398TIP3   OH210199   1.876   1.103   4.819  0.1164  0.1159  0.4739
 3398TIP3    H110200   1.800   1.160   4.808 -0.5161 -0.8664 -0.3515
 3398TIP3    H210201   1.951   1.161   4.808 -0.4677  1.3169  2.3571
 3399TIP3   OH210202   1.370   2.533   4.522 -0.1364  0.3348 -0.1675
 3399TIP3    H110203   1.323   2.480   4.587  1.1339 -0.4093  0.1794
 3399TIP3    H210204   1.461   2.505   4.530  0.1963  0.9229 -1.6161
 3400TIP3   OH210205   4.878   5.602   1.912 -0.4064  0.2715 -0.7909
 3400TIP3    H110206   4.947   5.628   1.851  1.8318  1.7960  2.1221
 3400TIP3    H210207   4.925   5.557   1.983 -2.2801  1.7406  1.5356
 3401TIP3   OH210208   4.350   3.115   2.035  0.4661  0.4295 -0.1167
 3401TIP3    H110209   4.381   3.033   1.997  1.0410  0.8631 -0.5969
 3401TIP3    H210210   4.255   3.107   2.035  0.4622  0.2932 -1.3604
 3402TIP3   OH210211   5.240   5.350   1.023  0.1928 -0.1124  0.0904
 3402TIP3    H110212   5.312   5.350   0.959 -0.5910  0.0802 -0.8248
 3402TIP3    H210213   5.260   5.423   1.082  0.8422 -0.1746 -0.0451
 3403TIP3   OH210214   2.256   4.459   4.503  0.7439 -0.4879 -0.3809
 3403TIP3    H110215   2.265   4.456   4.408  1.8555  2.0839 -0.4518
 3403TIP3    H210216   2.342   4.431   4.536  0.7306 -0.3199 -0.1971
 3404TIP3   OH210217   2.284   2.149   2.095 -0.3926  0.0463  0.5878
 3404TIP3    H110218   2.365   2.098   2.089 -1.5947 -1.8335 -0.8985
 3404TIP3    H210219   2.302   2.230   2.050  0.6673 -0.3528  0.2734
 3405TIP3   OH210220   6.134   0.239   3.592  0.1430  0.5401  0.0777
 3405TIP3    H110221   6.188   0.232   3.513 -0.2949  0.5382 -0.2274
 3405TIP3    H210222   6.152   0.326   3.627 -1.2142  1.3684 -1.1850
 3406TIP3   OH210223   0.008   3.259   4.881  0.3857  0.6777 -0.0156
 3406TIP3    H110224  -0.054   3.320   4.842  0.8419  0.8034 -0.5484
 3406TIP3    H210225   0.081   3.257   4.820  0.2041 -0.7199 -0.2154
 3407TIP3   OH210226   3.059   0.731   3.369  0.2113  0.5993  0.3876
 3407TIP3    H110227   3.084   0.736   3.461  0.8689 -0.0734  0.2525
 3407TIP3    H210228   3.130   0.774   3.322  0.4168 -0.0455  0.1082
 3408TIP3   OH210229   0.923   5.161   3.782 -0.3244  0.1622  0.2352
 3408TIP3    H110230   1.004   5.112   3.796 -0.1570 -0.4800 -2.3925
 3408TIP3    H210231   0.858   5.117   3.836  0.6884 -0.4709  0.9604
 3409TIP3   OH210232   3.380   3.927   0.842  0.1414 -1.2392 -0.2680
 3409TIP3    H110233   3.430   3.902   0.920  0.9222  0.4081 -0.2051
 3409TIP3    H210234   3.395   3.856   0.780  1.8464 -1.2064  0.0695
 3410TIP3   OH210235   2.069   2.036   0.921 -0.1791  0.0170  0.0330
 3410TIP3    H110236   2.114   1.977   0.982 -1.8245  0.7550  2.0704
 3410TIP3    H210237   2.092   2.124   0.951 -2.3092  0.4073  0.6781
 3411TIP3   OH210238   3.045   3.040   3.482  0.8569 -0.0530 -0.7235
 3411TIP3    H110239   3.127   3.003   3.449  0.5297 -1.0614 -0.4422
 3411TIP3    H210240   2.993   3.057   3.403  1.4036  0.7832 -0.9152
 3412TIP3   OH210241   0.312   0.789   4.692 -0.4348 -0.5047  0.1636
 3412TIP3    H110242   0.236   0.741   4.658 -1.2127  0.2905  0.7297
 3412TIP3    H210243   0.289   0.809   4.783  0.7589 -0.8594  0.5584
 3413TIP3   OH210244   2.782   5.251   3.371  0.6480  0.5150 -0.0467
 3413TIP3    H110245   2.849   5.315   3.395  0.8490 -0.5193  2.4229
 3413TIP3    H210246   2.827   5.188   3.315  1.3467  0.7075  0.2921
 3414TIP3   OH210247   3.785   1.368   4.075  0.0897  0.3950  0.0003
 3414TIP3    H110248   3.829   1.405   4.151 -0.5598 -1.4362  1.3331
 3414TIP3    H210249   3.693   1.388   4.088 -0.1908 -1.0759  0.4163
 3415TIP3   OH210250   0.897   4.333   4.956 -0.8065  0.0688  0.3755
 3415TIP3    H110251   0.907   4.262   4.893 -2.3281  0.7473 -0.6801
 3415TIP3    H210252   0.876   4.289   5.038  0.7576 -0.8019  0.3539
 3416TIP3   OH210253   4.864   0.534   3.762  0.0508  0.2403  0.7289
 3416TIP3    H110254   4.823   0.611   3.800  1.3880  1.3294  0.0995
 3416TIP3    H210255   4.822   0.524   3.676  0.0986  0.4772  0.6775
 3417TIP3   OH210256   0.569   0.958   4.943  0.1574 -0.0382  0.5204
 3417TIP3    H110257   0.576   0.971   4.848  1.6655  1.0657  0.7590
 3417TIP3    H210258   0.479   0.926   4.955 -0.1108 -0.1058 -1.2545
 3418TIP3   OH210259   5.745   4.065   2.712 -0.3944  0.2313 -0.2002
 3418TIP3    H110260   5.684   4.054   2.785 -0.2430  2.0391  0.2435
 3418TIP3    H210261   5.767   4.158   2.713  1.1478 -0.0843 -1.3364
 3419TIP3   OH210262   2.249   1.014   1.250  0.0282  0.9969  0.0160
 3419TIP3    H110263   2.212   1.085   1.198 -1.9191  0.1212  0.1154
 3419TIP3    H210264   2.309   0.969   1.191 -1.7881  0.3072 -1.3922
 3420TIP3   OH210265   4.173   1.921   1.700 -0.3411  0.2206 -0.3185
 3420TIP3    H110266   4.102   1.984   1.714 -0.2358  0.2528  0.0788
 3420TIP3    H210267   4.166   1.861   1.773 -0.5716 -0.3608 -0.8077
 3421TIP3   OH210268   5.798   3.389   0.787 -0.0784 -0.1804  0.4495
 3421TIP3    H110269   5.739   3.342   0.846 -0.5666  0.6055  0.5969
 3421TIP3    H210270   5.745   3.459   0.750  0.7472  0.5181  0.5557
 3422TIP3   OH210271   4.405   5.829   2.628 -0.5994  0.6072  0.3258
 3422TIP3    H110272   4.483   5.884   2.635 -0.8313  1.0398 -0.4042
 3422TIP3    H210273   4.435   5.742   2.653 -0.2847  1.0950  1.7246
 3423TIP3   OH210274   2.276   4.452   4.237 -0.4808  0.0020 -0.3507
 3423TIP3    H110275   2.264   4.415   4.149 -1.3086  3.2412 -1.7495
 3423TIP3    H210276   2.367   4.480   4.238 -0.7092  0.7891 -0.5768
 3424TIP3   OH210277   6.028   2.824   1.116  0.0450  0.3689 -0.6123
 3424TIP3    H110278   6.085   2.876   1.172  1.6649 -0.3456 -1.5174
 3424TIP3    H210279   6.073   2.821   1.032 -1.2770 -0.3521 -1.3387
 3425TIP3   OH210280   3.477   2.901   2.015 -0.8266  0.0197 -0.1995
 3425TIP3    H110281   3.385   2.880   1.994 -0.1074 -2.1727 -1.5007
 3425TIP3    H210282   3.483   2.889   2.109 -1.3862 -2.3839 -0.3860
 3426TIP3   OH210283   0.546   3.692   0.391  0.2482 -0.2002 -0.3246
 3426TIP3    H110284   0.531   3.652   0.306 -1.8134 -0.5289  0.1333
 3426TIP3    H210285   0.610   3.762   0.375  0.2835 -0.6002 -2.0237
 3427TIP3   OH210286   4.069   5.634   0.140  0.0334 -0.5770 -0.4521
 3427TIP3    H110287   4.052   5.622   0.233  0.8364  0.6783 -0.1107
 3427TIP3    H210288   4.161   5.610   0.129  1.2580  3.2020 -0.0236
 3428TIP3   OH210289   4.786   1.605   2.903 -0.1388 -0.1531  0.4071
 3428TIP3    H110290   4.755   1.672   2.964  1.0221 -0.1570  1.0060
 3428TIP3    H210291   4.742   1.627   2.820 -0.2486  0.9831  0.7502
 3429TIP3   OH210292   0.998   1.040   0.248  0.2425 -0.0795  0.0090
 3429TIP3    H110293   1.032   0.953   0.269 -1.3183 -0.2034  2.4292
 3429TIP3    H210294   1.068   1.100   0.271  0.4030 -0.5629  0.8068
 3430TIP3   OH210295   5.016   2.723   1.300 -0.6519 -0.4097  0.4699
 3430TIP3    H110296   4.996   2.793   1.361 -0.5436 -0.1063  0.1606
 3430TIP3    H210297   4.930   2.685   1.277 -0.7430 -0.1221  0.3356
 3431TIP3   OH210298   2.240   3.534   4.894  0.6263  0.4075 -0.0780
 3431TIP3    H110299   2.334   3.525   4.909  0.6778  0.8198 -0.1554
 3431TIP3    H210300   2.212   3.603   4.954  0.3959  0.3835 -0.1555
 3432TIP3   OH210301   2.100   0.443   0.691 -0.1095  0.3068  0.2960
 3432TIP3    H110302   2.183   0.489   0.700  0.2023  0.0418 -0.9348
 3432TIP3    H210303   2.107   0.367   0.748 -0.2404  1.2363  1.5825
 3433TIP3   OH210304   1.372   2.033   1.162  0.4042  0.9692 -0.2963
 3433TIP3    H110305   1.380   2.054   1.255  0.9592  2.1105 -0.5861
 3433TIP3    H210306   1.405   1.944   1.154 -0.1013  0.6770  0.6666
 3434TIP3   OH210307  -0.024   1.707   1.280 -0.0862 -0.2116  0.6619
 3434TIP3    H110308   0.012   1.753   1.356 -1.9555  2.2624  0.2011
 3434TIP3    H210309   0.038   1.725   1.209  0.5366 -0.6537  1.0870
 3435TIP3   OH210310   5.646   4.072   1.556  0.4747  0.9137 -0.2633
 3435TIP3    H110311   5.635   4.031   1.470  1.1879 -0.1177  0.1276
 3435TIP3    H210312   5.557   4.096   1.583  0.0560 -0.2755 -0.5510
 3436TIP3   OH210313   1.628   3.120   1.760 -0.0802  0.3695 -0.3719
 3436TIP3    H110314   1.641   3.102   1.667 -1.9620  0.0435 -0.6072
 3436TIP3    H210315   1.570   3.050   1.790 -0.4164  1.1224  0.7798
 3437TIP3   OH210316   2.037   0.628   3.906 -0.1606 -0.0336 -0.1780
 3437TIP3    H110317   2.070   0.583   3.984  1.6765 -0.5117 -1.1859
 3437TIP3    H210318   2.071   0.717   3.913  1.3281 -0.5044 -1.1811
 3438TIP3   OH210319   1.389   1.886   1.421  0.0392  0.5230  0.2051
 3438TIP3    H110320   1.421   1.828   1.490 -1.1112  0.5353  0.7740
 3438TIP3    H210321   1.397   1.974   1.458 -2.5516  0.4039  1.2145
 3439TIP3   OH210322   5.631   1.542   1.245 -0.1683 -0.2479  0.2161
 3439TIP3    H110323   5.717   1.522   1.207 -0.7661 -1.2115 -0.6894
 3439TIP3    H210324   5.587   1.593   1.176  0.2712  1.7705  1.3473
 3440TIP3   OH210325   0.301   0.256   2.619  0.0013 -0.6111  0.4508
 3440TIP3    H110326   0.322   0.187   2.556  1.7097 -0.5698  0.9460
 3440TIP3    H210327   0.348   0.333   2.587  0.3753 -0.4217  1.4435
 3441TIP3   OH210328   1.039   0.328   0.120 -0.1331  0.7803 -0.7616
 3441TIP3    H110329   0.995   0.244   0.110  0.0768  0.3732  1.2297
 3441TIP3    H210330   1.131   0.306   0.133 -0.0298  1.3280 -0.5214
 3442TIP3   OH210331   0.623   2.536   0.968  0.4797  0.3236  0.1094
 3442TIP3    H110332   0.713   2.557   0.994  0.8322 -0.4492 -0.4228
 3442TIP3    H210333   0.633   2.466   0.903 -0.5606 -0.5326  0.8428
 3443TIP3   OH210334   5.705   2.629   3.716  0.1079 -0.2223  0.2941
 3443TIP3    H110335   5.743   2.557   3.666 -0.2296 -0.3281  0.1894
 3443TIP3    H210336   5.774   2.654   3.777 -0.1591 -1.3742  1.1008
 3444TIP3   OH210337   5.066   3.098   0.638 -0.1923 -0.6823 -0.0621
 3444TIP3    H110338   5.017   3.165   0.686  1.2164  0.4508 -0.1478
 3444TIP3    H210339   5.001   3.058   0.581 -1.3470 -0.2841  0.9167
 3445TIP3   OH210340   3.512   5.238   3.965  0.3134  0.2720 -0.1685
 3445TIP3    H110341   3.580   5.203   4.023  1.7006  0.7556 -1.4182
 3445TIP3    H210342   3.478   5.162   3.919  0.7330  0.1430 -0.2663
 3446TIP3   OH210343   0.760   5.441   1.220 -0.0448 -0.2170 -0.1730
 3446TIP3    H110344   0.753   5.430   1.126  0.4830 -1.8270 -0.0653
 3446TIP3    H210345   0.757   5.535   1.234  0.7256  0.0980 -1.8710
 3447TIP3   OH210346   0.888   3.695   2.907  0.2616 -0.2501 -0.1674
 3447TIP3    H110347   0.839   3.627   2.952  0.1315 -0.1802 -0.2030
 3447TIP3    H210348   0.903   3.660   2.819 -0.3580  0.0262 -0.3914
 3448TIP3   OH210349   1.111   2.703   1.066  0.0130  0.0461 -0.5231
 3448TIP3    H110350   1.180   2.668   1.009 -0.4070 -0.7137 -0.5675
 3448TIP3    H210351   1.109   2.644   1.141  0.5907  1.0662  0.3264
 3449TIP3   OH210352   0.571   2.376   2.036 -0.1200  0.2327 -0.2992
 3449TIP3    H110353   0.506   2.307   2.054 -1.5161  1.2483 -1.2252
 3449TIP3    H210354   0.519   2.451   2.007  1.4120  1.4894  0.0842
 3450TIP3   OH210355   0.689   3.954   2.423 -0.1247  0.2158 -0.0051
 3450TIP3    H110356   0.711   3.974   2.514 -2.8556 -0.6225  0.9418
 3450TIP3    H210357   0.703   3.860   2.414 -2.0066 -0.1244  0.2856
 3451TIP3   OH210358   6.218   4.829   1.062 -0.8852 -0.2846 -0.1485
 3451TIP3    H110359   6.257   4.803   1.146  0.0852  0.1618 -0.4494
 3451TIP3    H210360   6.190   4.747   1.023 -1.4393 -0.4884  0.6592
 3452TIP3   OH210361   6.069   4.315   4.697 -0.6381  0.4026 -0.3383
 3452TIP3    H110362   6.108   4.315   4.609 -0.9716 -2.0044 -0.5540
 3452TIP3    H210363   6.042   4.406   4.711 -1.8402  0.6463 -3.3145
 3453TIP3   OH210364   4.335   5.044   3.236 -0.3775  0.6109  0.4075
 3453TIP3    H110365   4.398   4.996   3.290 -1.2475 -0.8572  0.1888
 3453TIP3    H210366   4.367   5.032   3.146 -0.6999  0.2487  0.3363
 3454TIP3   OH210367   0.679   5.944   1.893 -0.1458  0.1874  0.5752
 3454TIP3    H110368   0.598   5.995   1.890  0.1241  0.5756 -1.9043
 3454TIP3    H210369   0.649   5.853   1.889 -0.4866  0.2783  0.9385
 3455TIP3   OH210370   5.444   1.208   5.026  0.1050  0.1794 -0.4992
 3455TIP3    H110371   5.352   1.187   5.008 -0.6840  3.0026 -0.2312
 3455TIP3    H210372   5.443   1.246   5.113  1.8022 -1.0284  0.0932
 3456TIP3   OH210373   2.664   1.459   0.940  0.1581 -0.2504 -0.1993
 3456TIP3    H110374   2.711   1.474   0.858 -0.0488 -1.5228 -0.5674
 3456TIP3    H210375   2.629   1.545   0.963  1.4082  0.4252 -0.6855
 3457TIP3   OH210376   4.181   3.982   2.568 -0.9116 -0.4623 -0.3487
 3457TIP3    H110377   4.098   3.936   2.564 -0.2699 -1.5794 -1.7522
 3457TIP3    H210378   4.158   4.074   2.553 -2.0382 -0.5191  0.9024
 3458TIP3   OH210379   3.636   3.441   0.943  0.0102 -0.3091 -0.3344
 3458TIP3    H110380   3.727   3.471   0.951 -0.7464  1.6983  1.4032
 3458TIP3    H210381   3.628   3.373   1.010  0.0352  0.0383  0.0244
 3459TIP3   OH210382   6.102   5.744   0.835  0.6394  0.9458 -0.1078
 3459TIP3    H110383   6.110   5.801   0.760 -0.5771  0.6712 -0.4729
 3459TIP3    H210384   6.008   5.728   0.844  0.9161 -0.8643  0.0685
 3460TIP3   OH210385   1.207   0.947   2.731  0.1501 -0.0362  0.3510
 3460TIP3    H110386   1.190   1.040   2.747 -2.0242  0.3115 -2.8866
 3460TIP3    H210387   1.279   0.947   2.668 -0.4807 -0.4403 -0.3889
 3461TIP3   OH210388   5.312   4.417   3.779  0.6369 -0.7677  0.4777
 3461TIP3    H110389   5.309   4.443   3.871  0.2928  1.0543 -0.0218
 3461TIP3    H210390   5.326   4.322   3.782  1.6031 -0.6208  2.3979
 3462TIP3   OH210391   4.150   0.352   4.379  0.0857  0.4198  0.2845
 3462TIP3    H110392   4.183   0.314   4.297  0.0627  1.2601 -0.1211
 3462TIP3    H210393   4.119   0.276   4.429  0.4091 -0.1386 -0.3374
 3463TIP3   OH210394   6.057   1.980   0.727 -0.1697  0.7748 -0.0324
 3463TIP3    H110395   6.107   1.905   0.695  0.4492  1.4760 -0.7428
 3463TIP3    H210396   5.982   1.986   0.668  0.2733  1.2627 -0.5641
 3464TIP3   OH210397   5.143   3.594   3.270  0.8076  0.4736  0.5022
 3464TIP3    H110398   5.198   3.617   3.195  0.3630  0.2765  0.1073
 3464TIP3    H210399   5.198   3.608   3.347  0.6328  2.7018  0.2822
 3465TIP3   OH210400   1.084   3.294   4.758  0.2391 -0.0898 -0.1418
 3465TIP3    H110401   1.163   3.272   4.707  0.3604  0.2089 -0.0840
 3465TIP3    H210402   1.026   3.219   4.745 -0.8699  1.1066 -2.9269
 3466TIP3   OH210403   5.628   2.514   2.478 -0.4086 -0.3874  0.3030
 3466TIP3    H110404   5.673   2.576   2.420  1.1907 -1.7846 -0.0100
 3466TIP3    H210405   5.689   2.441   2.487 -1.9938 -1.6615  1.1489
 3467TIP3   OH210406   5.173   0.914   0.938 -0.2642  0.3170 -0.3842
 3467TIP3    H110407   5.215   0.839   0.895 -0.7268 -1.4720  2.0798
 3467TIP3    H210408   5.242   0.980   0.944  0.6463 -0.5391 -1.1086
 3468TIP3   OH210409   1.907   5.316   2.265 -0.0222  0.4352  0.1015
 3468TIP3    H110410   1.918   5.287   2.355 -0.5168  0.1175  0.0583
 3468TIP3    H210411   1.964   5.393   2.258  1.2916 -0.5041  0.2079
 3469TIP3   OH210412   1.432   3.616   1.211  0.1087 -0.0360 -0.2822
 3469TIP3    H110413   1.429   3.705   1.175  2.4804 -0.1455 -0.9065
 3469TIP3    H210414   1.360   3.613   1.274 -0.0249  2.3175 -0.2507
 3470TIP3   OH210415   0.626   1.369   3.897  0.2809 -0.4298  0.6074
 3470TIP3    H110416   0.606   1.395   3.808  0.7335  0.1530  0.6695
 3470TIP3    H210417   0.711   1.325   3.891 -0.1088 -1.2146  0.6227
 3471TIP3   OH210418   2.804   1.219   4.482  0.1830  0.4378 -0.9310
 3471TIP3    H110419   2.881   1.274   4.474  0.9655 -0.3387  0.5791
 3471TIP3    H210420   2.818   1.170   4.564 -1.1842 -0.8518 -1.4059
 3472TIP3   OH210421   6.065   1.142   3.741 -0.2815 -0.2081 -0.4316
 3472TIP3    H110422   6.100   1.156   3.829 -1.7351  1.8009 -0.1108
 3472TIP3    H210423   6.037   1.050   3.741  1.0712 -0.6512  0.6898
 3473TIP3   OH210424   4.102   4.028   4.853 -0.0813 -0.4133  0.2673
 3473TIP3    H110425   4.014   4.003   4.882  0.2699  1.0153  2.8271
 3473TIP3    H210426   4.156   4.022   4.932  1.8861 -0.0882 -0.9858
 3474TIP3   OH210427   0.042   0.717   1.985 -0.3946  0.0536  0.5564
 3474TIP3    H110428  -0.037   0.678   1.947  0.6464 -0.1811 -1.5139
 3474TIP3    H210429   0.112   0.655   1.966  0.6691  1.2455  0.4106
 3475TIP3   OH210430   0.590   3.557   0.944 -0.6179 -0.1876 -0.0306
 3475TIP3    H110431   0.652   3.623   0.913 -0.6832  0.1269  0.4956
 3475TIP3    H210432   0.547   3.525   0.864  0.3345 -0.5350 -0.4120
 3476TIP3   OH210433   2.663   5.326   0.562  0.4522 -0.1330 -0.3347
 3476TIP3    H110434   2.739   5.267   0.563  2.8802  2.7752  1.1622
 3476TIP3    H210435   2.672   5.374   0.480  0.2106  0.2032 -0.1629
 3477TIP3   OH210436   0.420   0.058   0.916  0.4208 -0.4567  0.4248
 3477TIP3    H110437   0.383   0.090   0.998 -0.5837 -0.0708 -0.1681
 3477TIP3    H210438   0.345   0.049   0.858  1.1506 -0.5336 -0.5215
 3478TIP3   OH210439   2.561   2.969   3.740  0.0892  0.4098 -0.1074
 3478TIP3    H110440   2.546   3.061   3.721  0.7037  0.0580 -2.7152
 3478TIP3    H210441   2.646   2.966   3.785  0.0436  1.0929  0.0304
 3479TIP3   OH210442   4.768   1.242   3.279 -0.1825  0.0443  0.2944
 3479TIP3    H110443   4.824   1.178   3.236  0.9141  1.4267 -0.4057
 3479TIP3    H210444   4.828   1.295   3.332 -1.0599  0.4619  0.8894
 3480TIP3   OH210445   4.616   0.634   5.038  0.0579 -0.4177  0.0044
 3480TIP3    H110446   4.526   0.606   5.020  0.3639 -1.1261 -0.4700
 3480TIP3    H210447   4.606   0.719   5.080 -0.7665  0.5601 -2.0367
 3481TIP3   OH210448   6.199   2.500   2.406  0.0730  0.3037  0.0203
 3481TIP3    H110449   6.141   2.427   2.424  0.7112 -0.4506 -0.8919
 3481TIP3    H210450   6.212   2.499   2.311 -0.5053  2.0780 -0.1233
 3482TIP3   OH210451   4.764   0.678   1.307 -0.1428  0.1594  0.2212
 3482TIP3    H110452   4.856   0.680   1.335  0.0242  1.1371 -0.3706
 3482TIP3    H210453   4.717   0.643   1.382  0.6382  0.2228  0.7487
 3483TIP3   OH210454   6.039   0.903   2.786 -0.0544 -0.3662 -0.0256
 3483TIP3    H110455   6.040   0.981   2.841 -1.4217 -0.4443  0.1384
 3483TIP3    H210456   6.124   0.860   2.803 -0.0920  0.0647  1.3400
 3484TIP3   OH210457   1.065   3.484   1.905 -0.3753 -0.0834 -0.4149
 3484TIP3    H110458   1.156   3.454   1.906  0.1569  1.1558  2.9788
 3484TIP3    H210459   1.063   3.556   1.842  0.8034 -0.6135 -1.0760
 3485TIP3   OH210460   5.793   5.272   2.196  0.7140 -0.1477  0.2811
 3485TIP3    H110461   5.844   5.191   2.189  1.7294  0.2909  1.9632
 3485TIP3    H210462   5.755   5.284   2.110  1.3497 -1.9000 -0.2836
 3486TIP3   OH210463   2.388   1.033   0.767 -0.1314  0.1564 -0.0583
 3486TIP3    H110464   2.441   0.954   0.755  0.8855  0.2327  3.0949
 3486TIP3    H210465   2.316   1.005   0.824 -0.9965  1.0672 -0.6725
 3487TIP3   OH210466   2.647   3.050   4.655  0.3187  0.0936  0.0157
 3487TIP3    H110467   2.582   3.120   4.646  0.0550 -0.0426  0.7634
 3487TIP3    H210468   2.612   2.978   4.603  0.6948  0.5731 -0.9324
 3488TIP3   OH210469   1.617   4.803   2.644 -0.3144  0.0724  0.2957
 3488TIP3    H110470   1.661   4.856   2.709 -1.0356  1.0685 -0.0084
 3488TIP3    H210471   1.596   4.721   2.690  2.9305 -1.0111  0.1018
 3489TIP3   OH210472   5.757   1.283   3.699 -0.7008 -0.1359  0.0528
 3489TIP3    H110473   5.686   1.334   3.736 -0.0515  1.0571 -0.2767
 3489TIP3    H210474   5.813   1.348   3.656 -0.0814 -1.1851 -0.7701
 3490TIP3   OH210475   5.167   0.866   1.456 -0.0569  0.5172 -0.9379
 3490TIP3    H110476   5.136   0.898   1.371 -2.3270 -0.7232 -0.6659
 3490TIP3    H210477   5.262   0.875   1.452 -0.2188  1.9561 -2.9879
 3491TIP3   OH210478   3.282   5.814   1.847  0.1220 -0.4857  0.3528
 3491TIP3    H110479   3.202   5.800   1.897 -0.1807 -0.4786 -0.1285
 3491TIP3    H210480   3.253   5.850   1.764  0.4808 -2.0499 -0.4892
 3492TIP3   OH210481   5.285   5.861   3.651 -0.0204 -0.1113 -0.1305
 3492TIP3    H110482   5.262   5.947   3.686 -0.6308  0.3553 -1.6050
 3492TIP3    H210483   5.248   5.799   3.714  1.0184  0.6692  1.3161
 3493TIP3   OH210484   5.731   3.598   2.308  0.0287 -0.3169 -0.0248
 3493TIP3    H110485   5.650   3.646   2.325  0.4602  0.5030 -0.2560
 3493TIP3    H210486   5.752   3.617   2.217  0.5340 -0.4467  0.0607
 3494TIP3   OH210487   0.157   2.314   4.121  0.3621  0.3500  0.5238
 3494TIP3    H110488   0.181   2.251   4.189 -1.0166  1.3671  2.0071
 3494TIP3    H210489   0.065   2.297   4.104  0.2538  1.2779  0.1642
 3495TIP3   OH210490   4.862   2.372   4.725  1.0239 -0.1872 -0.3334
 3495TIP3    H110491   4.861   2.393   4.819  1.1439 -0.0432 -0.3638
 3495TIP3    H210492   4.781   2.322   4.711  0.1462  1.2163 -0.4781
 3496TIP3   OH210493   6.339   4.668   0.738  0.4105 -0.3416  0.4229
 3496TIP3    H110494   6.296   4.704   0.815  0.4598 -2.0983  1.3154
 3496TIP3    H210495   6.281   4.691   0.665 -2.2993 -2.8280  1.5965
 3497TIP3   OH210496   6.187   2.713   3.793  0.3587 -0.4910 -0.3339
 3497TIP3    H110497   6.187   2.808   3.785  0.5755 -0.4715 -0.1159
 3497TIP3    H210498   6.269   2.693   3.838 -0.5561 -0.6332  1.3753
 3498TIP3   OH210499   2.987   1.984   1.217 -0.1578 -0.0240 -0.1149
 3498TIP3    H110500   2.991   2.078   1.234  0.5187 -0.1354  0.3997
 3498TIP3    H210501   3.067   1.950   1.256  2.2740 -0.1714 -4.6128
 3499TIP3   OH210502   1.042   1.710   2.726  0.0827  0.2697 -0.0194
 3499TIP3    H110503   1.027   1.757   2.808  0.3357 -3.0777  2.1295
 3499TIP3    H210504   0.961   1.660   2.712 -0.2945  1.3978 -2.3617
 3500TIP3   OH210505   0.908   2.290   0.578  0.1436 -0.0240  0.0563
 3500TIP3    H110506   0.898   2.271   0.485  0.8253  0.2871 -0.0877
 3500TIP3    H210507   0.998   2.321   0.587 -0.1193  0.5863  0.7102
 3501TIP3   OH210508   0.402   4.179   2.810 -1.4667  0.0215  0.1836
 3501TIP3    H110509   0.329   4.148   2.756 -1.1403 -0.5684  0.0692
 3501TIP3    H210510   0.452   4.236   2.751 -2.2453  1.0523  0.4896
 3502TIP3   OH210511   3.231   5.554   4.150 -0.0243 -0.0439  0.0671
 3502TIP3    H110512   3.315   5.509   4.155  0.2348  0.3256 -0.8435
 3502TIP3    H210513   3.182   5.506   4.083 -1.0967 -1.1393  1.5594
 3503TIP3   OH210514   4.753   0.338   0.981 -0.0954  0.3179 -0.2696
 3503TIP3    H110515   4.666   0.307   1.006 -1.2910  0.6101 -3.4945
 3503TIP3    H210516   4.736   0.412   0.922  2.2822 -0.0198 -1.5267
 3504TIP3   OH210517   0.799   4.994   4.593  0.0422 -0.0789  0.2417
 3504TIP3    H110518   0.894   5.004   4.586  0.2033 -1.6743 -0.2319
 3504TIP3    H210519   0.787   4.910   4.636 -1.1602 -0.2554 -0.3888
 3505TIP3   OH210520   3.173   1.238   4.888  0.1730 -0.2383  0.0404
 3505TIP3    H110521   3.214   1.161   4.849  1.0478  0.2371  0.0129
 3505TIP3    H210522   3.132   1.283   4.814 -0.8636 -0.9696  0.1354
 3506TIP3   OH210523   1.624   5.075   2.011  0.4613  0.5345 -0.0440
 3506TIP3    H110524   1.711   5.109   2.033  0.2519  1.1428 -0.1354
 3506TIP3    H210525   1.572   5.090   2.090  0.5994 -0.3848  0.2220
 3507TIP3   OH210526   2.064   2.954   3.533 -0.2312  0.0977  0.1366
 3507TIP3    H110527   2.067   2.870   3.488 -0.9995  1.0525 -1.7661
 3507TIP3    H210528   2.110   2.937   3.616  0.3106 -1.9806 -0.5141
 3508TIP3   OH210529   4.614   5.717   3.761  0.6716  0.1652 -0.1805
 3508TIP3    H110530   4.584   5.719   3.851 -1.1783  0.5783 -0.7639
 3508TIP3    H210531   4.573   5.793   3.720 -0.6611 -1.4088 -1.9692
 3509TIP3   OH210532   6.020   3.995   2.625 -0.3041  0.5377 -0.7108
 3509TIP3    H110533   6.004   4.089   2.616 -0.9668  0.5612  0.5112
 3509TIP3    H210534   5.941   3.954   2.591 -1.3893  0.5442  1.6068
 3510TIP3   OH210535   5.641   3.356   2.875 -0.0549 -0.1186 -0.2098
 3510TIP3    H110536   5.555   3.351   2.833  0.7474 -0.4831 -1.9141
 3510TIP3    H210537   5.677   3.440   2.847  0.1466  0.0425  0.5124
 3511TIP3   OH210538   5.610   5.769   0.944 -0.2872 -0.3609 -0.7091
 3511TIP3    H110539   5.552   5.704   0.904  0.4493 -1.3996 -0.1594
 3511TIP3    H210540   5.603   5.753   1.038  0.6972 -0.3647 -0.6206
 3512TIP3   OH210541   1.749   2.169   4.657  0.0087 -0.2052  0.0832
 3512TIP3    H110542   1.658   2.143   4.668  0.0271  0.3167  1.7670
 3512TIP3    H210543   1.799   2.099   4.697  0.2990  0.0495  0.1691
 3513TIP3   OH210544   6.042   5.919   4.378 -0.1230  0.6296  0.0674
 3513TIP3    H110545   6.038   5.855   4.449  1.8624 -0.7582 -0.9802
 3513TIP3    H210546   6.023   5.869   4.299  1.6224  1.2311 -0.7981
 3514TIP3   OH210547   5.200   1.968   5.087  0.4716  0.3527 -0.2527
 3514TIP3    H110548   5.197   2.057   5.122 -0.5834  0.2042  0.0675
 3514TIP3    H210549   5.222   1.979   4.995  1.8317  0.8401  0.1055
 3515TIP3   OH210550   2.405   2.826   4.650  0.2323 -0.2669 -0.1969
 3515TIP3    H110551   2.317   2.791   4.657  0.0574 -0.0936 -1.2774
 3515TIP3    H210552   2.456   2.777   4.714 -0.6151 -0.4641  0.3391
 3516TIP3   OH210553   2.743   2.196   3.318  0.6005  0.5973  0.7199
 3516TIP3    H110554   2.719   2.105   3.299  2.0603  0.3936 -0.3104
 3516TIP3    H210555   2.796   2.191   3.397  2.4962  0.2206 -0.4955
 3517TIP3   OH210556   0.923   4.810   2.646 -0.2760 -0.3128  0.1986
 3517TIP3    H110557   0.864   4.776   2.713 -1.1130  0.0105 -0.3518
 3517TIP3    H210558   0.922   4.744   2.577 -1.8080  0.6795 -0.8169
 3518TIP3   OH210559   5.755   5.617   1.510  0.9623  0.7199 -0.2654
 3518TIP3    H110560   5.687   5.550   1.517  2.3698 -1.1918 -3.0602
 3518TIP3    H210561   5.708   5.700   1.517 -1.5522 -0.5173 -1.2890
 3519TIP3   OH210562   2.171   4.619   2.351  0.0659  0.1426  0.6601
 3519TIP3    H110563   2.193   4.712   2.343 -0.4393  0.2274  0.2033
 3519TIP3    H210564   2.082   4.618   2.386 -0.9213 -0.0895 -1.6141
 3520TIP3   OH210565   5.442   3.050   4.074  0.8324 -0.0888 -0.0681
 3520TIP3    H110566   5.415   2.969   4.030  1.9448 -1.7665  2.1444
 3520TIP3    H210567   5.365   3.077   4.123  0.4541  0.1991 -0.8142
 3521TIP3   OH210568   1.901   1.562   0.406 -0.1776  0.2768  0.2157
 3521TIP3    H110569   1.808   1.582   0.392 -0.3147 -1.3134 -1.6664
 3521TIP3    H210570   1.943   1.586   0.324  0.6519 -1.2313  0.1652
 3522TIP3   OH210571   2.370   4.609   3.941  0.0571 -0.0875  0.2070
 3522TIP3    H110572   2.348   4.552   3.867 -1.3182  0.8124 -0.1226
 3522TIP3    H210573   2.465   4.622   3.934 -0.3139  1.8921 -2.8599
 3523TIP3   OH210574   5.194   4.607   4.814  0.1981 -0.5209 -0.0108
 3523TIP3    H110575   5.132   4.599   4.886  1.0439  0.6409  0.8780
 3523TIP3    H210576   5.147   4.573   4.738 -1.5462  0.3801  0.6246
 3524TIP3   OH210577   1.508   5.875   0.653  0.0032 -0.4590  0.5617
 3524TIP3    H110578   1.502   5.922   0.736 -1.2439  0.7904 -0.1929
 3524TIP3    H210579   1.599   5.887   0.625  0.4560 -0.9612  1.7651
 3525TIP3   OH210580   0.973   3.330   2.903 -0.2708  0.0459  0.5117
 3525TIP3    H110581   0.917   3.253   2.902 -1.4011  0.7435  2.7843
 3525TIP3    H210582   0.986   3.349   2.996  3.2246  0.3535  0.0993
 3526TIP3   OH210583   2.150   0.739   4.966 -0.2128 -0.0336  0.0806
 3526TIP3    H110584   2.060   0.759   4.940  0.5588 -0.3701 -3.2123
 3526TIP3    H210585   2.150   0.644   4.981 -0.6980  0.1859  1.6560
 3527TIP3   OH210586   1.817   5.471   1.606 -0.2590  0.1830  0.1622
 3527TIP3    H110587   1.791   5.562   1.615 -1.4031 -0.1223  0.0501
 3527TIP3    H210588   1.797   5.449   1.515  2.8395  0.6521 -0.7740
 3528TIP3   OH210589   4.155   0.748   0.728  0.2967  0.2604  0.1078
 3528TIP3    H110590   4.110   0.826   0.696  1.2944  1.4177  1.3881
 3528TIP3    H210591   4.093   0.676   0.712 -0.3366  1.1576 -1.8007
 3529TIP3   OH210592   2.078   4.750   3.542  0.1759 -0.0786 -0.4929
 3529TIP3    H110593   2.078   4.718   3.633  1.0657  0.2259 -0.3704
 3529TIP3    H210594   1.986   4.750   3.516 -0.1304  0.1846  0.5437
 3530TIP3   OH210595   1.350   2.224   1.878 -0.3795 -0.0850  0.4746
 3530TIP3    H110596   1.340   2.129   1.872  1.3513 -0.2006 -3.2778
 3530TIP3    H210597   1.440   2.237   1.908 -0.3044  0.3641  0.0526
 3531TIP3   OH210598   0.076   0.553   0.319 -0.1139  0.0674  0.3518
 3531TIP3    H110599   0.023   0.490   0.271  0.4343  0.9997 -1.5735
 3531TIP3    H210600   0.039   0.554   0.407 -0.9896 -1.9141  0.0591
 3532TIP3   OH210601   5.039   4.970   1.337 -0.3249 -0.0523  0.2900
 3532TIP3    H110602   4.990   4.953   1.257 -0.5936 -0.6777  0.5843
 3532TIP3    H210603   5.073   4.885   1.363 -1.4401 -0.1260  1.6206
 3533TIP3   OH210604   0.091   3.796   0.261 -0.1544  0.1708 -0.3750
 3533TIP3    H110605   0.150   3.787   0.336 -0.9848  0.1267  0.2898
 3533TIP3    H210606   0.057   3.708   0.246 -0.4223  0.2851 -0.4431
 3534TIP3   OH210607   4.340   3.490   0.026  0.7933 -0.0582  0.7174
 3534TIP3    H110608   4.375   3.417   0.075  0.0759 -1.4043 -0.6915
 3534TIP3    H210609   4.255   3.509   0.067  0.2187 -1.1484  0.0802
 3535TIP3   OH210610   0.157   4.014   4.308 -0.2102  0.5420 -0.1528
 3535TIP3    H110611   0.224   3.957   4.344 -0.7612  0.2257  0.3959
 3535TIP3    H210612   0.203   4.069   4.245  0.2337 -0.8749 -1.1032
 3536TIP3   OH210613   0.076   2.973   5.023  0.0118  0.2801 -0.0796
 3536TIP3    H110614   0.096   2.896   4.970 -0.4078  0.2789 -0.2421
 3536TIP3    H210615   0.028   3.032   4.964  1.2504  1.1317 -0.2661
 3537TIP3   OH210616   5.208   5.600   4.606 -0.4431 -0.2633 -0.2296
 3537TIP3    H110617   5.250   5.518   4.632  1.2023  1.1178  1.8066
 3537TIP3    H210618   5.134   5.610   4.666 -0.0694  0.1669  0.1722
 3538TIP3   OH210619   5.562   1.528   1.670  0.3905 -0.1451 -0.6533
 3538TIP3    H110620   5.597   1.615   1.650  0.1717  0.0799 -0.0823
 3538TIP3    H210621   5.568   1.521   1.765 -1.5655  0.1051 -0.4812
 3539TIP3   OH210622   2.283   3.892   4.452 -0.5406  0.6911  0.3558
 3539TIP3    H110623   2.190   3.871   4.454 -0.6974 -0.1495 -4.2748
 3539TIP3    H210624   2.327   3.812   4.482 -1.3308 -0.3398 -1.1305
 3540TIP3   OH210625   6.153   4.453   5.148 -0.2332 -0.4442  0.1478
 3540TIP3    H110626   6.141   4.490   5.061 -0.5501 -2.5268 -0.7343
 3540TIP3    H210627   6.069   4.414   5.170 -0.4596  0.8919  1.8453
 3541TIP3   OH210628   4.082   3.115   2.092  0.2281 -0.1887  0.3773
 3541TIP3    H110629   4.032   3.173   2.149  0.2791 -0.6092  0.8574
 3541TIP3    H210630   4.100   3.038   2.146  0.1347 -0.6676 -0.2585
 3542TIP3   OH210631   0.955   1.076   2.031 -0.5018  0.4417 -0.0030
 3542TIP3    H110632   0.985   0.991   1.999 -1.7764  0.1333 -0.4392
 3542TIP3    H210633   1.027   1.136   2.011  0.3771 -0.5137  0.2422
 3543TIP3   OH210634   2.719   5.528   2.718  0.0966  0.2905 -0.5321
 3543TIP3    H110635   2.708   5.613   2.760 -0.2466 -0.2521  0.4963
 3543TIP3    H210636   2.782   5.481   2.773 -0.3415 -0.4254 -0.6247
 3544TIP3   OH210637   5.455   0.337   1.547  0.2533  0.2534 -0.7837
 3544TIP3    H110638   5.476   0.244   1.537  0.9999  0.3740 -0.4334
 3544TIP3    H210639   5.492   0.360   1.632 -0.2415  0.7874 -0.7117
 3545TIP3   OH210640   0.802   1.917   1.157 -0.1253  0.2476  0.1729
 3545TIP3    H110641   0.826   1.844   1.100 -1.4107 -0.0942  0.0388
 3545TIP3    H210642   0.717   1.945   1.125  0.0565  1.3935  0.6494
 3546TIP3   OH210643   0.629   3.834   2.981 -0.0621  0.0378  0.5913
 3546TIP3    H110644   0.703   3.892   2.963  1.8725 -2.8978 -2.3277
 3546TIP3    H210645   0.656   3.784   3.058  1.8228 -1.9101 -1.1957
 3547TIP3   OH210646   6.174   5.870   0.099  0.4952 -0.8078 -0.3925
 3547TIP3    H110647   6.225   5.809   0.046  0.0427 -0.1093 -1.6759
 3547TIP3    H210648   6.083   5.844   0.084  0.3174 -0.0026 -0.7209
 3548TIP3   OH210649   4.776   0.907   2.618 -0.4952  0.4076 -0.3862
 3548TIP3    H110650   4.804   0.832   2.566 -1.9647  0.6824 -1.6548
 3548TIP3    H210651   4.778   0.980   2.557 -0.7293  1.0604  0.3782
 3549TIP3   OH210652   1.652   5.359   2.252  0.1658 -0.2963 -0.1012
 3549TIP3    H110653   1.746   5.344   2.260  0.1143 -0.0247  1.2141
 3549TIP3    H210654   1.612   5.276   2.280 -0.0009 -0.3903 -0.5975
 3550TIP3   OH210655   1.101   3.657   4.123 -0.2460 -0.0174 -0.3030
 3550TIP3    H110656   1.062   3.575   4.153 -1.6779 -0.0269 -2.0886
 3550TIP3    H210657   1.185   3.632   4.085 -0.1193 -0.4643  0.2539
 3551TIP3   OH210658   5.778   5.232   1.326 -0.6893  0.3329 -0.3496
 3551TIP3    H110659   5.725   5.211   1.249 -0.2860 -2.8838  0.1112
 3551TIP3    H210660   5.715   5.266   1.390 -1.9687 -1.7731 -0.4032
 3552TIP3   OH210661   5.613   4.864   2.619  0.2686  0.3763  0.2138
 3552TIP3    H110662   5.554   4.789   2.605  1.3375 -0.9700  2.3703
 3552TIP3    H210663   5.571   4.914   2.689  1.5951 -0.5995  1.7745
 3553TIP3   OH210664   5.416   3.910   3.443 -0.8588 -0.0193  0.4532
 3553TIP3    H110665   5.322   3.916   3.462 -0.6199  0.6276  1.4994
 3553TIP3    H210666   5.448   3.999   3.454  0.1748 -0.5283  1.7545
 3554TIP3   OH210667   0.160   5.100   3.974  0.1819  0.0484 -0.2020
 3554TIP3    H110668   0.147   5.105   3.880 -0.9342 -1.2727 -0.1531
 3554TIP3    H210669   0.118   5.018   4.000 -0.1623  0.7321  1.5463
 3555TIP3   OH210670   4.979   2.229   5.156 -0.4152 -0.2491 -1.0015
 3555TIP3    H110671   5.016   2.284   5.225 -0.3763 -1.9223  0.3910
 3555TIP3    H210672   5.040   2.239   5.082  0.3507  0.4630 -0.3009
 3556TIP3   OH210673   1.795   5.892   2.146 -0.4915  0.5245  0.3366
 3556TIP3    H110674   1.743   5.972   2.146 -0.3688  0.6059  0.2488
 3556TIP3    H210675   1.874   5.915   2.195  0.5989  1.1721 -1.5791
 3557TIP3   OH210676   0.464   1.429   2.536  0.0282 -0.2740  0.5275
 3557TIP3    H110677   0.494   1.418   2.626  2.4683 -0.3889 -0.2389
 3557TIP3    H210678   0.407   1.506   2.539 -0.9715 -1.0147  2.3426
 3558TIP3   OH210679   5.889   2.948   4.872 -0.2649 -0.0302 -0.0056
 3558TIP3    H110680   5.904   2.854   4.857  0.4131  0.1584 -0.5334
 3558TIP3    H210681   5.901   2.958   4.967 -1.2243 -0.6302  0.1894
 3559TIP3   OH210682   0.280   5.649   0.209  0.1238  0.5549 -0.3561
 3559TIP3    H110683   0.344   5.579   0.197  0.5467  0.6526  1.1289
 3559TIP3    H210684   0.197   5.611   0.180  0.3332 -0.6275  0.4990
 3560TIP3   OH210685   1.132   4.245   0.164 -0.5854 -0.3459  0.4009
 3560TIP3    H110686   1.168   4.326   0.200 -0.4635 -0.3373  0.2622
 3560TIP3    H210687   1.193   4.177   0.192 -0.9582 -0.4637  0.9433
 3561TIP3   OH210688   3.291   1.578   4.709 -0.6064  0.0743  0.0474
 3561TIP3    H110689   3.375   1.553   4.671 -1.1458  0.5962 -1.5966
 3561TIP3    H210690   3.312   1.614   4.795  0.5297 -2.7058  1.0529
 3562TIP3   OH210691   4.257   5.768   1.946  0.3181  0.0261  0.3629
 3562TIP3    H110692   4.201   5.695   1.972 -0.1254  0.2491  0.0569
 3562TIP3    H210693   4.333   5.727   1.906 -0.4298 -0.2532 -0.8041
 3563TIP3   OH210694   3.246   2.655   4.666  0.1644 -0.2842 -0.5465
 3563TIP3    H110695   3.251   2.577   4.611  0.4247 -2.6238  2.5424
 3563TIP3    H210696   3.336   2.687   4.672  0.5683 -1.5392  0.4745
 3564TIP3   OH210697   0.074   5.237   1.275  0.1538  0.2362 -0.2672
 3564TIP3    H110698   0.093   5.144   1.281  0.8559  0.2592 -1.7797
 3564TIP3    H210699   0.063   5.254   1.182 -0.8879  1.5008  0.0525
 3565TIP3   OH210700   0.102   2.779   3.161  0.0185  0.3460 -0.5867
 3565TIP3    H110701   0.119   2.843   3.230  2.4174  0.4699 -1.1802
 3565TIP3    H210702   0.133   2.822   3.081  1.4420 -1.4071 -1.0326
 3566TIP3   OH210703   4.551   3.539   3.779 -0.9237  0.2373  0.6698
 3566TIP3    H110704   4.496   3.616   3.767 -0.0280  0.7437 -0.3139
 3566TIP3    H210705   4.613   3.563   3.847  2.3633  2.2051 -2.6824
 3567TIP3   OH210706   2.156   5.957   3.035 -0.1302  0.5254  0.7983
 3567TIP3    H110707   2.184   5.892   3.100 -1.7077 -1.6134 -0.5132
 3567TIP3    H210708   2.237   5.999   3.007  1.1770 -1.7944  0.8102
 3568TIP3   OH210709   5.229   0.353   3.542 -0.6098 -0.2667 -0.5070
 3568TIP3    H110710   5.189   0.391   3.463  0.5878 -0.5999 -1.2866
 3568TIP3    H210711   5.314   0.320   3.513 -0.5308 -1.2154  0.7338
 3569TIP3   OH210712   5.868   2.500   4.044 -0.2569  0.5620  0.0718
 3569TIP3    H110713   5.879   2.410   4.014 -1.5068 -0.2775  1.9697
 3569TIP3    H210714   5.887   2.554   3.967 -0.6263 -1.3554 -1.4134
 3570TIP3   OH210715   5.504   1.645   0.534 -0.2066 -0.0964  0.5781
 3570TIP3    H110716   5.446   1.628   0.460 -0.6271 -1.7608  1.2473
 3570TIP3    H210717   5.584   1.598   0.513 -0.3582 -0.6463  1.2054
 3571TIP3   OH210718   5.578   5.678   0.239  0.2821  0.3533  0.9094
 3571TIP3    H110719   5.587   5.602   0.295  1.1711  1.3274  2.1438
 3571TIP3    H210720   5.603   5.647   0.152 -1.4037 -1.2498  0.9439
 3572TIP3   OH210721   4.829   0.787   3.890  0.7870  0.5166  0.3756
 3572TIP3    H110722   4.861   0.833   3.968  0.7240  1.1292  0.0533
 3572TIP3    H210723   4.763   0.847   3.854 -2.6333 -1.6814  2.3740
 3573TIP3   OH210724   3.013   0.072   2.008  0.0619  0.1978 -0.0017
 3573TIP3    H110725   2.932   0.039   1.969  0.4086  0.0741 -0.6219
 3573TIP3    H210726   2.983   0.124   2.083 -0.7124  1.5038 -1.1568
 3574TIP3   OH210727   3.617   3.013   0.313 -0.0784 -0.3238  0.0700
 3574TIP3    H110728   3.541   2.975   0.357  0.6771 -1.1721  0.6546
 3574TIP3    H210729   3.632   2.956   0.238  1.0382 -1.1938  0.9308
 3575TIP3   OH210730   4.651   1.098   1.065 -0.6664  0.5443  0.3621
 3575TIP3    H110731   4.684   1.086   1.154  0.3806  2.1066  0.2216
 3575TIP3    H210732   4.616   1.012   1.041 -0.5349 -0.0402  2.0905
 3576TIP3   OH210733   4.026   5.390   4.843 -0.0904 -0.1977 -1.0549
 3576TIP3    H110734   4.119   5.395   4.866 -0.3180 -2.0090  0.5027
 3576TIP3    H210735   4.024   5.403   4.749  1.5570  1.5384 -0.9221
 3577TIP3   OH210736   4.260   5.553   0.934  0.2514 -0.5394  0.5862
 3577TIP3    H110737   4.341   5.584   0.894  0.0485  1.0237  1.3005
 3577TIP3    H210738   4.283   5.469   0.973  2.3629  1.0799  3.1765
 3578TIP3   OH210739   2.783   0.601   4.405  0.4643  0.0873  0.2245
 3578TIP3    H110740   2.705   0.648   4.436  0.6874  1.6437 -1.4044
 3578TIP3    H210741   2.751   0.548   4.332  0.8496  0.4474 -0.2111
 3579TIP3   OH210742   5.785   0.316   3.924  0.5786  0.0899 -0.2279
 3579TIP3    H110743   5.737   0.388   3.883 -0.9434 -1.2107 -0.8564
 3579TIP3    H210744   5.725   0.241   3.919  1.4575 -0.8378  1.8519
 3580TIP3   OH210745   1.630   2.015   2.611  0.2039 -0.3439  0.2973
 3580TIP3    H110746   1.615   1.942   2.552  1.3307 -0.6022  0.2966
 3580TIP3    H210747   1.666   1.975   2.690 -0.2470  0.1022  0.7382
 3581TIP3   OH210748   2.360   1.981   4.358 -0.1655  0.5126  0.3670
 3581TIP3    H110749   2.318   2.064   4.334  0.7428  1.3275  1.4927
 3581TIP3    H210750   2.450   1.989   4.328 -0.0896 -0.0948  0.4174
 3582TIP3   OH210751   6.029   2.979   2.780  0.3664  0.9722  0.6492
 3582TIP3    H110752   6.099   2.914   2.786 -0.2051  0.1267 -1.0346
 3582TIP3    H210753   6.001   2.993   2.871  1.3876 -0.1429  1.1617
 3583TIP3   OH210754   3.563   4.698   4.739  0.2242  0.7488  0.2943
 3583TIP3    H110755   3.505   4.717   4.665 -0.0690  2.4293  0.9108
 3583TIP3    H210756   3.508   4.647   4.799 -0.1678  1.1084  0.2447
 3584TIP3   OH210757   3.263   4.566   0.420  0.7884 -0.4249  0.0040
 3584TIP3    H110758   3.292   4.642   0.369  1.7940 -0.3351  0.6851
 3584TIP3    H210759   3.301   4.491   0.373  0.1121 -0.4875 -0.4536
 3585TIP3   OH210760   1.134   3.866   3.536 -0.2805  0.2276  0.2522
 3585TIP3    H110761   1.185   3.901   3.609 -0.0758 -1.0535  0.7447
 3585TIP3    H210762   1.180   3.786   3.510 -1.0258  0.0186 -0.4942
 3586TIP3   OH210763   2.476   4.864   1.603 -0.3066  0.5261 -0.8381
 3586TIP3    H110764   2.405   4.885   1.664 -0.6625 -2.4418 -0.0586
 3586TIP3    H210765   2.540   4.815   1.656 -0.2155 -1.3859 -2.5770
 3587TIP3   OH210766   4.463   5.009   2.307  0.1039 -0.0573 -0.2479
 3587TIP3    H110767   4.456   5.047   2.395  0.6422  1.0948 -0.6727
 3587TIP3    H210768   4.375   4.978   2.287  0.0938 -0.8137  0.8979
 3588TIP3   OH210769   3.010   0.830   2.415 -0.2163 -0.1693 -0.5865
 3588TIP3    H110770   2.929   0.879   2.430 -0.2414 -0.0513 -1.0814
 3588TIP3    H210771   3.078   0.882   2.458 -0.6435 -1.2472  1.5392
 3589TIP3   OH210772   0.775   4.757   4.143  0.0229  0.3697 -0.1548
 3589TIP3    H110773   0.751   4.779   4.234 -1.3406 -1.2198 -0.0726
 3589TIP3    H210774   0.733   4.672   4.128  1.4982 -0.1173 -1.7906
 3590TIP3   OH210775   3.228   4.937   2.176  0.2577 -0.1732 -0.2551
 3590TIP3    H110776   3.180   4.937   2.259  0.6235 -2.2224  0.0141
 3590TIP3    H210777   3.175   4.992   2.118 -0.3707  0.7365  1.1268
 3591TIP3   OH210778   3.683   0.665   0.295  0.4873  0.2652  0.2553
 3591TIP3    H110779   3.618   0.645   0.362  0.4918 -2.1870 -0.3780
 3591TIP3    H210780   3.756   0.705   0.344  0.3878 -1.2259  1.7003
 3592TIP3   OH210781   4.914   5.718   0.149 -0.6382  0.5982  0.5486
 3592TIP3    H110782   4.835   5.675   0.115  1.5916 -2.1272 -1.6344
 3592TIP3    H210783   4.946   5.772   0.076 -0.2854  1.4679  1.3194
 3593TIP3   OH210784   3.906   2.042   2.048  0.0178  0.4142 -0.2188
 3593TIP3    H110785   3.920   2.040   1.953  0.0264  1.4658 -0.2522
 3593TIP3    H210786   3.958   2.117   2.078 -1.1929  1.0300  0.4040
 3594TIP3   OH210787   2.439   5.634   3.603  0.2721  0.4141  0.3191
 3594TIP3    H110788   2.360   5.613   3.553  1.3876 -0.2824 -1.2358
 3594TIP3    H210789   2.485   5.698   3.549  0.8293  0.7249  1.1475
 3595TIP3   OH210790   3.400   5.042   4.719 -0.0839  0.3563  0.3084
 3595TIP3    H110791   3.394   4.951   4.692 -0.2850 -0.1855  2.0104
 3595TIP3    H210792   3.353   5.091   4.652 -0.7192 -0.8907 -0.1893
 3596TIP3   OH210793   5.245   2.006   3.952  0.0301  0.0696  0.1052
 3596TIP3    H110794   5.338   2.028   3.956  0.0965 -0.2231  0.2219
 3596TIP3    H210795   5.200   2.086   3.979  0.2008  0.5658 -1.0211
 3597TIP3   OH210796   5.436   0.841   1.079 -0.6694 -0.3469 -0.2581
 3597TIP3    H110797   5.431   0.915   1.139 -1.3653 -0.3744 -0.2774
 3597TIP3    H210798   5.432   0.881   0.992 -1.0169 -0.3973 -0.2685
 3598TIP3   OH210799   0.259   4.735   1.610  0.0103  0.0021  0.2427
 3598TIP3    H110800   0.179   4.728   1.559  1.2742 -0.2781 -1.8013
 3598TIP3    H210801   0.269   4.650   1.652 -0.7004  0.0169  0.4553
 3599TIP3   OH210802   1.257   3.025   0.608  0.1998  0.5096 -0.1610
 3599TIP3    H110803   1.170   3.023   0.649  0.5064  0.8637  0.5214
 3599TIP3    H210804   1.246   3.084   0.533  0.0289  1.1471  0.3530
 3600TIP3   OH210805   6.096   1.314   4.668  0.3514 -0.1412  0.1244
 3600TIP3    H110806   6.175   1.368   4.659 -0.8640  1.8802  0.9052
 3600TIP3    H210807   6.069   1.295   4.578  0.3145  1.3837 -0.2212
 3601TIP3   OH210808   5.236   5.223   0.531 -0.3191 -0.1639 -0.1678
 3601TIP3    H110809   5.182   5.145   0.535  0.5555 -0.7831 -0.0673
 3601TIP3    H210810   5.290   5.212   0.453  1.7461 -1.0121  1.2919
 3602TIP3   OH210811   0.282   1.141   3.135  0.4162 -0.3070  0.3824
 3602TIP3    H110812   0.311   1.137   3.226 -2.0309  0.9508  1.2911
 3602TIP3    H210813   0.206   1.083   3.131  0.1349  0.1091 -0.6989
 3603TIP3   OH210814   1.586   0.957   3.236  0.0015  0.0896 -0.1031
 3603TIP3    H110815   1.673   0.971   3.274 -0.3783  1.7281  0.2679
 3603TIP3    H210816   1.602   0.947   3.143  0.5824  0.6582 -0.0767
 3604TIP3   OH210817   2.405   1.597   3.112 -0.2238  0.0136 -0.3193
 3604TIP3    H110818   2.404   1.535   3.039 -0.0070  0.7979 -0.9998
 3604TIP3    H210819   2.496   1.624   3.119 -0.5415  1.3174 -0.9559
 3605TIP3   OH210820   2.730   1.412   3.559 -0.1408  0.0475 -0.0969
 3605TIP3    H110821   2.777   1.487   3.595 -1.2902  0.2628  1.0532
 3605TIP3    H210822   2.701   1.363   3.636 -0.1922 -1.0928 -0.8141
 3606TIP3   OH210823   0.213   5.915   0.303  0.1276  0.4097 -0.0145
 3606TIP3    H110824   0.264   5.956   0.233  1.9264  0.2932  1.1612
 3606TIP3    H210825   0.242   5.824   0.303 -1.2244 -0.0399 -0.2921
 3607TIP3   OH210826   4.183   2.914   1.458  0.1757  0.1625  0.0021
 3607TIP3    H110827   4.245   2.986   1.475 -0.5016  0.7920 -0.1578
 3607TIP3    H210828   4.106   2.937   1.510  0.1323 -0.7107  0.3419
 3608TIP3   OH210829   6.206   3.982   1.088  0.0204 -0.2530 -0.2412
 3608TIP3    H110830   6.257   4.063   1.080 -0.3851  0.1410  0.9299
 3608TIP3    H210831   6.129   3.997   1.034 -0.2964  0.3540  0.3633
 3609TIP3   OH210832   2.552   0.953   4.141 -0.1556 -0.5082  0.1523
 3609TIP3    H110833   2.585   1.032   4.183 -1.0242 -0.5218  0.8893
 3609TIP3    H210834   2.625   0.921   4.089  0.1224  0.9200 -0.3709
 3610TIP3   OH210835   6.254   5.208   3.441 -0.0772  0.0894  0.3219
 3610TIP3    H110836   6.176   5.152   3.448 -0.3165  0.3570 -0.1977
 3610TIP3    H210837   6.306   5.167   3.372 -0.9887  1.3758 -1.1778
 3611TIP3   OH210838   3.101   4.489   1.031  0.6298  0.2379  0.3853
 3611TIP3    H110839   3.038   4.529   1.091 -0.9799 -0.8267 -0.5178
 3611TIP3    H210840   3.159   4.561   1.006 -0.6205  1.4157  0.7467
 3612TIP3   OH210841   6.231   0.554   0.950 -0.6103  0.1677 -0.1252
 3612TIP3    H110842   6.171   0.535   1.022  0.3332  0.8214  0.8589
 3612TIP3    H210843   6.253   0.646   0.961 -0.1027  0.1622 -1.0016
 3613TIP3   OH210844   3.394   4.993   1.607 -0.2939  0.2040 -0.1698
 3613TIP3    H110845   3.418   5.073   1.559 -1.2917  1.7059  1.6934
 3613TIP3    H210846   3.327   5.022   1.669 -0.2190 -1.9683  1.0051
 3614TIP3   OH210847   3.194   5.876   1.047  0.0941  0.7379 -0.3861
 3614TIP3    H110848   3.187   5.881   0.952 -0.9176  1.1825 -0.3036
 3614TIP3    H210849   3.216   5.965   1.075  0.5751  0.5690 -0.2086
 3615TIP3   OH210850   3.963   1.106   3.649  0.2402  0.3737  0.4138
 3615TIP3    H110851   3.959   1.054   3.729 -0.5939 -0.7022 -0.3003
 3615TIP3    H210852   3.920   1.189   3.672 -1.1897 -0.4266  0.7329
 3616TIP3   OH210853   0.204   5.959   1.687 -0.0768  0.1005  0.0542
 3616TIP3    H110854   0.264   5.885   1.674 -0.6449 -0.6617  1.5347
 3616TIP3    H210855   0.146   5.931   1.757  0.0030  2.1641  1.0128
 3617TIP3   OH210856   4.014   0.795   4.084  0.2847 -0.3981 -0.0602
 3617TIP3    H110857   4.046   0.864   4.142  0.3641 -0.3960 -0.1065
 3617TIP3    H210858   4.039   0.714   4.128  0.7557 -0.3951 -0.3186
 3618TIP3   OH210859   5.313   2.195   0.948  0.5424  0.6525  0.4627
 3618TIP3    H110860   5.229   2.239   0.935  0.0258 -0.5101 -0.2596
 3618TIP3    H210861   5.370   2.263   0.985 -0.4583  1.6944  0.1491
 3619TIP3   OH210862   2.489   5.401   3.084  0.2639 -0.1462 -0.1908
 3619TIP3    H110863   2.403   5.371   3.114  1.2548 -1.5010  1.4843
 3619TIP3    H210864   2.528   5.442   3.162  1.2339  0.2447 -0.8646
 3620TIP3   OH210865   5.745   5.600   4.246 -0.2440  0.2842 -0.5306
 3620TIP3    H110866   5.820   5.635   4.196 -0.5816 -0.2621 -1.4362
 3620TIP3    H210867   5.782   5.580   4.332 -0.3888  4.5222  0.7330
 3621TIP3   OH210868   5.082   0.691   3.623  0.3732 -0.1741 -0.4080
 3621TIP3    H110869   4.991   0.666   3.643  0.5825 -1.1067 -0.5624
 3621TIP3    H210870   5.102   0.760   3.687  0.4142 -1.7990  1.4357
 3622TIP3   OH210871   3.459   2.238   1.474  0.0169  0.5680  0.1296
 3622TIP3    H110872   3.503   2.231   1.389 -0.3779  0.0660 -0.0415
 3622TIP3    H210873   3.366   2.233   1.452 -0.0847  0.3888  0.5979
 3623TIP3   OH210874   1.752   5.123   0.548  0.0104 -0.3101  0.1325
 3623TIP3    H110875   1.729   5.214   0.529 -0.0092 -0.3134  0.1404
 3623TIP3    H210876   1.765   5.121   0.643  0.8380 -0.1308  0.0329
 3624TIP3   OH210877   3.246   2.845   2.615  0.3007 -0.7755  0.0389
 3624TIP3    H110878   3.173   2.853   2.554 -0.9740  0.6187  1.6576
 3624TIP3    H210879   3.208   2.803   2.692  1.3852 -0.6425  0.6597
 3625TIP3   OH210880   5.591   0.908   3.938 -0.1320  0.4236 -0.3686
 3625TIP3    H110881   5.544   0.989   3.959 -2.4759 -0.8491 -0.3749
 3625TIP3    H210882   5.622   0.921   3.848 -0.6218  1.2515 -0.4257
 3626TIP3   OH210883   1.382   4.280   4.485  0.2861 -0.0836  0.3928
 3626TIP3    H110884   1.416   4.190   4.489  0.8877  0.0377 -1.1021
 3626TIP3    H210885   1.290   4.270   4.462  0.2153 -0.3333  0.7809
 3627TIP3   OH210886   0.907   4.878   5.093 -0.1467 -0.9932 -0.1842
 3627TIP3    H110887   0.918   4.783   5.104  0.6168 -0.7365  1.6276
 3627TIP3    H210888   0.826   4.898   5.140 -1.1010 -0.9139 -1.7973
 3628TIP3   OH210889   3.676   2.480   3.333  0.9374 -0.6757  0.0355
 3628TIP3    H110890   3.650   2.546   3.268  1.2490  0.8724  1.4087
 3628TIP3    H210891   3.719   2.411   3.282  4.1281  1.9466 -1.1988
 3629TIP3   OH210892   3.761   3.612   1.587 -0.4252 -0.0967 -0.5715
 3629TIP3    H110893   3.824   3.565   1.531  0.6130  1.1697 -0.5003
 3629TIP3    H210894   3.711   3.666   1.525 -1.6889 -1.3013 -0.6647
 3630TIP3   OH210895   1.133   3.925   1.103 -0.0057  0.1516  0.1821
 3630TIP3    H110896   1.228   3.927   1.096  0.1428 -0.5254  1.5576
 3630TIP3    H210897   1.102   3.883   1.023  0.8632  0.1632 -0.1605
 3631TIP3   OH210898   1.694   1.848   1.712 -0.0475  0.5552  0.0279
 3631TIP3    H110899   1.745   1.924   1.742 -0.6511  1.5957 -1.4937
 3631TIP3    H210900   1.757   1.796   1.661  0.6047 -0.4910  1.7933
 3632TIP3   OH210901   4.739   0.488   2.453  0.0399 -0.0892  0.4541
 3632TIP3    H110902   4.674   0.544   2.411  0.1189  0.7779  1.4421
 3632TIP3    H210903   4.737   0.514   2.545  1.6876 -0.1071  0.5322
 3633TIP3   OH210904   3.889   4.137   4.162 -0.3501  0.0515  0.4287
 3633TIP3    H110905   3.942   4.166   4.087 -1.3153  0.7191 -0.0105
 3633TIP3    H210906   3.881   4.043   4.151  1.8050 -0.2915  1.2071
 3634TIP3   OH210907   1.550   4.769   3.464 -0.0201  0.2326  0.2897
 3634TIP3    H110908   1.532   4.754   3.557  0.0403 -0.7385  0.1615
 3634TIP3    H210909   1.494   4.705   3.419  0.1883  0.4813 -0.3262
 3635TIP3   OH210910   2.968   4.435   3.024  0.9175 -0.1758 -0.1254
 3635TIP3    H110911   3.004   4.520   3.000 -0.3348  0.5242  0.3772
 3635TIP3    H210912   2.978   4.430   3.119 -1.2548  0.5629  0.2169
 3636TIP3   OH210913   2.336   1.304   4.188 -0.5751  0.1367  0.8593
 3636TIP3    H110914   2.359   1.306   4.281  0.4762 -1.6237  0.6894
 3636TIP3    H210915   2.306   1.214   4.172  0.1127  0.1357 -0.6720
 3637TIP3   OH210916   3.000   3.937   1.369  0.0900 -0.5010  0.2013
 3637TIP3    H110917   3.028   4.028   1.374  1.6678 -0.5745 -3.8164
 3637TIP3    H210918   2.908   3.941   1.344 -0.1344 -0.0554  1.0719
 3638TIP3   OH210919   6.045   2.032   4.145  0.7386  0.5434 -0.0283
 3638TIP3    H110920   6.023   1.942   4.121 -0.5552  0.5254  1.1004
 3638TIP3    H210921   5.961   2.077   4.151  1.3375  1.7224 -0.1460
 3639TIP3   OH210922   4.538   3.063   3.224  0.3956 -0.1639 -0.1989
 3639TIP3    H110923   4.547   3.138   3.166 -0.3078  0.8077  0.9096
 3639TIP3    H210924   4.463   3.014   3.189 -0.1917  0.5570  0.0470
 3640TIP3   OH210925   3.941   2.548   0.785 -0.0537  0.1402  0.3924
 3640TIP3    H110926   3.866   2.496   0.755 -0.3325  1.1372 -0.7346
 3640TIP3    H210927   3.935   2.545   0.881 -0.9829 -0.5750  0.3325
 3641TIP3   OH210928   3.682   2.023   4.272 -0.1712 -0.2267  0.0379
 3641TIP3    H110929   3.736   1.974   4.334  0.2419  3.7742  3.3349
 3641TIP3    H210930   3.744   2.061   4.210 -0.2584 -2.0406 -1.2086
 3642TIP3   OH210931   1.377   1.833   2.682 -0.6673  0.0704 -0.4929
 3642TIP3    H110932   1.322   1.771   2.634 -1.7770  0.2806  0.4855
 3642TIP3    H210933   1.400   1.900   2.617  0.0555 -1.0286 -1.4071
 3643TIP3   OH210934   6.116   1.179   2.251  0.0907 -0.2851 -0.1483
 3643TIP3    H110935   6.159   1.097   2.229  1.2800  0.5204 -0.9734
 3643TIP3    H210936   6.157   1.207   2.333  3.0570  1.6695 -2.1129
 3644TIP3   OH210937   1.111   3.586   3.345 -0.3550 -0.0531 -0.3808
 3644TIP3    H110938   1.064   3.540   3.415 -1.4575  1.0682 -0.3602
 3644TIP3    H210939   1.188   3.622   3.388 -1.1511  0.8328  0.3282
 3645TIP3   OH210940   1.332   1.454   4.881  0.1388 -0.6158 -0.5540
 3645TIP3    H110941   1.399   1.429   4.945 -1.4870 -1.8178  0.7489
 3645TIP3    H210942   1.381   1.466   4.800  1.9891 -1.0572  0.4318
 3646TIP3   OH210943   1.014   1.751   0.743  0.4890  0.2556 -0.1094
 3646TIP3    H110944   1.103   1.732   0.772  0.2869 -1.3137 -0.4223
 3646TIP3    H210945   0.985   1.823   0.798  2.8317  2.5786 -1.7146
 3647TIP3   OH210946   0.148   0.293   4.667  0.3350  0.2952  0.9499
 3647TIP3    H110947   0.125   0.312   4.576 -0.0826  1.5326  1.3088
 3647TIP3    H210948   0.149   0.197   4.671  1.7492  0.1896 -0.7009
 3648TIP3   OH210949   0.707   0.899   0.327 -0.3490  0.4527 -0.0442
 3648TIP3    H110950   0.780   0.952   0.296 -0.7117  0.8346 -0.2520
 3648TIP3    H210951   0.722   0.812   0.289 -1.3097  1.1452 -2.1397
 3649TIP3   OH210952   5.447   1.760   4.345  0.2937  0.7427 -0.0694
 3649TIP3    H110953   5.529   1.808   4.357 -0.1081  2.0012 -1.9629
 3649TIP3    H210954   5.423   1.732   4.434  1.2258  2.9308  0.9490
 3650TIP3   OH210955   0.041   3.695   4.104 -0.0934 -0.1094  0.6997
 3650TIP3    H110956   0.084   3.767   4.059  2.2702 -0.6648  1.9293
 3650TIP3    H210957   0.005   3.640   4.033  1.0300  0.5127 -0.3835
 3651TIP3   OH210958   0.138   2.034   1.960  0.3526 -0.1096 -0.3652
 3651TIP3    H110959   0.234   2.030   1.960  0.3214 -1.3132 -0.2922
 3651TIP3    H210960   0.116   2.069   2.046  0.7171 -1.0529  0.1332
 3652TIP3   OH210961   3.260   5.799   3.844 -0.4341  0.2332 -0.0064
 3652TIP3    H110962   3.348   5.777   3.875  0.0373  3.7099  1.5966
 3652TIP3    H210963   3.275   5.848   3.763 -1.1728 -1.3170 -1.1585
 3653TIP3   OH210964   5.143   2.404   3.800 -0.0112 -0.0977  0.1637
 3653TIP3    H110965   5.227   2.374   3.767 -0.4518 -1.9115  0.5585
 3653TIP3    H210966   5.079   2.369   3.737 -0.4839  1.2100 -0.1064
 3654TIP3   OH210967   2.192   5.122   2.366  0.3804  0.4759 -0.2161
 3654TIP3    H110968   2.151   5.062   2.303 -0.7227  0.9230  0.0734
 3654TIP3    H210969   2.209   5.202   2.316 -1.2725  1.1404  0.2399
 3655TIP3   OH210970   6.131   4.676   3.595  0.3377  0.0399 -0.4816
 3655TIP3    H110971   6.127   4.585   3.624 -0.5343 -0.2664 -1.4896
 3655TIP3    H210972   6.109   4.673   3.502 -1.4918  1.4452 -0.1655
 3656TIP3   OH210973   0.334   1.962   1.550 -0.0832 -0.2406  0.1372
 3656TIP3    H110974   0.410   1.909   1.575  0.7580  0.8297 -0.0502
 3656TIP3    H210975   0.351   1.989   1.460 -0.4020  0.4741  0.2765
 3657TIP3   OH210976   0.669   1.819   4.589  0.3616 -0.5118  0.0014
 3657TIP3    H110977   0.634   1.745   4.539  0.2831  1.0500 -2.4274
 3657TIP3    H210978   0.757   1.792   4.613  0.9029 -0.8831 -2.1974
 3658TIP3   OH210979   2.661   0.078   4.852 -0.2451  0.7963  0.0980
 3658TIP3    H110980   2.596   0.008   4.842 -0.2517  0.7136  0.6752
 3658TIP3    H210981   2.638   0.120   4.935  0.9228  0.2344  0.7384
 3659TIP3   OH210982   1.074   0.411   2.412  0.2497 -0.4341 -0.3876
 3659TIP3    H110983   0.983   0.393   2.386 -0.1050 -0.6399  0.9235
 3659TIP3    H210984   1.125   0.343   2.367 -0.5139 -1.7270  0.6212
 3660TIP3   OH210985   1.304   5.695   0.091  0.2203  0.2567  0.3208
 3660TIP3    H110986   1.286   5.748   0.013  0.9814  1.2402  0.7864
 3660TIP3    H210987   1.390   5.658   0.075 -1.4058 -3.3129 -1.2903
 3661TIP3   OH210988   2.227   2.511   1.092  0.0819 -0.0500 -0.3244
 3661TIP3    H110989   2.189   2.593   1.122  0.6504  0.6345 -1.4215
 3661TIP3    H210990   2.308   2.501   1.143  1.6405  1.6816 -2.2585
 3662TIP3   OH210991   5.182   2.248   4.963  0.0147  0.1488  0.6052
 3662TIP3    H110992   5.166   2.243   4.869 -0.1688  0.7838  0.6015
 3662TIP3    H210993   5.233   2.328   4.976  1.9541 -1.0433  0.8052
 3663TIP3   OH210994   3.300   4.085   3.627 -0.9089  0.3716  0.0006
 3663TIP3    H110995   3.368   4.023   3.602 -0.4215  1.2968 -1.0405
 3663TIP3    H210996   3.338   4.135   3.699  0.4106  2.3074 -1.9240
 3664TIP3   OH210997   3.581   3.759   4.198 -0.4259 -0.4276 -0.1771
 3664TIP3    H110998   3.547   3.672   4.177  0.4377 -0.3048 -2.3391
 3664TIP3    H210999   3.613   3.793   4.115  2.4678  0.5751  1.2072
 3665TIP3   OH211000   5.433   1.966   0.983 -0.9246  0.5269  0.6139
 3665TIP3    H111001   5.413   1.906   0.912  1.7330 -0.6257  0.7043
 3665TIP3    H211002   5.375   2.041   0.970 -3.8570 -1.6778  0.0663
 3666TIP3   OH211003   3.319   0.109   1.948  0.3994  0.0475 -0.7240
 3666TIP3    H111004   3.228   0.133   1.965  0.5116  1.8174 -2.2859
 3666TIP3    H211005   3.314   0.017   1.922 -0.7074 -0.3523  0.7367
 3667TIP3   OH211006   5.427   5.584   0.559  0.2046 -0.0862  0.4422
 3667TIP3    H111007   5.394   5.674   0.556 -0.7320 -0.3647  1.6707
 3667TIP3    H211008   5.364   5.534   0.506  1.6445  0.2131 -1.6487
 3668TIP3   OH211009   5.124   4.408   3.343 -0.8222  0.0896 -0.6503
 3668TIP3    H111010   5.130   4.466   3.418 -3.2241 -1.3023  0.7458
 3668TIP3    H211011   5.053   4.444   3.290  0.2949  0.5803 -1.8909
 3669TIP3   OH211012   2.013   1.817   2.681  0.5274  0.0955 -0.1928
 3669TIP3    H111013   2.084   1.801   2.743 -0.1856 -1.3855  0.2949
 3669TIP3    H211014   1.968   1.895   2.714  0.4003 -0.4500  0.9564
 3670TIP3   OH211015   2.295   2.055   3.800  0.3225  0.4238 -0.6282
 3670TIP3    H111016   2.206   2.077   3.829 -0.0264  1.4129 -2.2871
 3670TIP3    H211017   2.352   2.111   3.853 -0.1944  1.2548 -0.9317
 3671TIP3   OH211018   0.967   5.044   1.717 -0.1630 -0.2047 -0.0043
 3671TIP3    H111019   0.944   4.991   1.793  0.5557  3.1410  2.8546
 3671TIP3    H211020   0.891   5.100   1.703 -0.0688 -0.4144 -1.4496
 3672TIP3   OH211021   2.707   5.202   3.047  0.6076  0.2953  0.1412
 3672TIP3    H111022   2.767   5.268   3.012 -0.5027  1.4801  0.4123
 3672TIP3    H211023   2.621   5.243   3.043 -0.0253 -0.8931  0.9487
 3673TIP3   OH211024   2.187   2.479   4.843 -0.0385  0.3969 -0.2160
 3673TIP3    H111025   2.196   2.514   4.755 -0.6078  0.2701 -0.3296
 3673TIP3    H211026   2.122   2.536   4.885  1.4623  1.5254  0.6949
 3674TIP3   OH211027   0.943   2.879   0.942  0.2581  0.6088  0.2496
 3674TIP3    H111028   0.997   2.811   0.982 -0.9136  0.3698  1.4828
 3674TIP3    H211029   0.980   2.890   0.854  0.8035 -1.2381  0.2006
 3675TIP3   OH211030   1.048   2.408   0.873  0.6305 -0.5792 -0.0600
 3675TIP3    H111031   1.027   2.346   0.943  1.5020  0.6964  1.4072
 3675TIP3    H211032   1.130   2.448   0.901 -1.2419  3.3019  0.6252
 3676TIP3   OH211033   5.902   0.100   2.730  0.5232  0.6040 -0.0573
 3676TIP3    H111034   5.864   0.184   2.756 -1.2873  0.1885 -1.1620
 3676TIP3    H211035   5.932   0.114   2.640  0.8881  0.2792  0.0126
 3677TIP3   OH211036   1.403   0.696   2.908 -0.2741 -0.2140  0.6359
 3677TIP3    H111037   1.441   0.622   2.860  0.6587  0.1830  0.7530
 3677TIP3    H211038   1.324   0.717   2.859  2.3863  2.5109 -3.0710
 3678TIP3   OH211039   2.917   2.767   1.200 -0.0792  0.1033  0.3638
 3678TIP3    H111040   2.861   2.787   1.275 -0.3155 -1.1687  0.5589
 3678TIP3    H211041   2.867   2.799   1.125  0.0421  1.1515  0.7138
 3679TIP3   OH211042   4.513   2.563   0.250 -0.0071 -0.2782 -0.1269
 3679TIP3    H111043   4.558   2.609   0.179  0.6038 -0.2930  0.2467
 3679TIP3    H211044   4.532   2.471   0.236 -0.9622 -0.3984 -0.6859
 3680TIP3   OH211045   1.560   5.325   4.036 -0.6678  0.3662 -0.2617
 3680TIP3    H111046   1.594   5.415   4.039 -2.2218  1.0659 -1.7318
 3680TIP3    H211047   1.638   5.270   4.026  0.2398  1.6300 -0.3713
 3681TIP3   OH211048   3.431   5.848   4.579 -0.1002  0.8923 -0.5630
 3681TIP3    H111049   3.347   5.802   4.579  0.4799 -0.2248  0.2283
 3681TIP3    H211050   3.440   5.883   4.667  1.1751 -0.7877  0.0202
 3682TIP3   OH211051   1.326   0.712   0.452  0.1011  0.4624 -0.2165
 3682TIP3    H111052   1.356   0.647   0.389  1.1977  1.1454 -0.4283
 3682TIP3    H211053   1.378   0.790   0.433 -0.9407  1.3019  0.2565
 3683TIP3   OH211054   5.355   1.208   3.983  0.3507 -0.1081 -0.4652
 3683TIP3    H111055   5.446   1.235   3.995  0.5507 -1.1685  0.5435
 3683TIP3    H211056   5.304   1.271   4.034  0.7245 -0.9045  0.9363
 3684TIP3   OH211057   2.590   0.656   1.929  0.6335  0.2915 -0.0312
 3684TIP3    H111058   2.536   0.652   1.850  1.4967 -0.3983 -0.6180
 3684TIP3    H211059   2.662   0.714   1.906  2.2396 -1.8210 -0.6834
 3685TIP3   OH211060   2.422   4.186   3.594 -0.5949 -0.6436 -0.0937
 3685TIP3    H111061   2.348   4.147   3.641 -1.5357  1.4268  0.2173
 3685TIP3    H211062   2.440   4.124   3.524 -2.0667 -1.6228  0.3372
 3686TIP3   OH211063   2.981   5.953   0.545  0.8428 -0.4744  0.1864
 3686TIP3    H111064   2.929   5.975   0.622  1.2168 -2.6051  1.1115
 3686TIP3    H211065   2.928   5.888   0.498  2.8564 -3.3173  1.5668
 3687TIP3   OH211066   5.933   5.790   4.148 -0.0131  0.5223 -0.4088
 3687TIP3    H111067   5.995   5.732   4.104 -0.5175 -0.2674 -0.0959
 3687TIP3    H211068   5.891   5.838   4.076 -0.8423 -0.7681 -0.8265
 3688TIP3   OH211069   5.061   0.587   3.383  0.5213  0.1153 -0.0903
 3688TIP3    H111070   5.084   0.633   3.463  1.7869 -0.4117 -0.1372
 3688TIP3    H211071   4.965   0.591   3.380  0.3342 -1.1285  2.2272
 3689TIP3   OH211072   0.555   3.647   3.420 -0.1346 -0.2375  0.3723
 3689TIP3    H111073   0.611   3.576   3.452 -0.4106 -1.2192 -1.2159
 3689TIP3    H211074   0.591   3.726   3.462  0.0962 -1.2813  2.2875
 3690TIP3   OH211075   5.583   5.149   1.156 -0.0105 -0.4684 -0.2744
 3690TIP3    H111076   5.496   5.140   1.195  0.1397  1.3294  0.6306
 3690TIP3    H211077   5.572   5.220   1.092  0.5729 -0.9180 -0.8754
 3691TIP3   OH211078   2.522   3.450   1.781  0.9643  0.2248  0.2668
 3691TIP3    H111079   2.528   3.435   1.875 -0.1466  0.6480  0.4215
 3691TIP3    H211080   2.451   3.513   1.771  1.1284  0.2582 -0.8508
 3692TIP3   OH211081   1.485   0.399   2.860 -0.1965 -0.2649 -0.2411
 3692TIP3    H111082   1.414   0.342   2.891 -0.5075  0.0177 -0.4209
 3692TIP3    H211083   1.565   0.348   2.874 -0.3083 -0.0905  1.1693
 3693TIP3   OH211084   2.695   5.328   1.187 -0.3204  0.2798  0.7066
 3693TIP3    H111085   2.696   5.351   1.280  1.5245 -2.1350  1.3938
 3693TIP3    H211086   2.730   5.405   1.143  0.7332  0.7382  2.2656
 3694TIP3   OH211087   3.356   0.661   3.276 -1.0763 -0.1749  0.0997
 3694TIP3    H111088   3.442   0.679   3.314 -1.7562  0.6526  1.3404
 3694TIP3    H211089   3.345   0.728   3.209 -0.7647 -0.2761 -0.0560
 3695TIP3   OH211090   6.111   1.480   4.418  0.7283 -0.2593  0.3208
 3695TIP3    H111091   6.022   1.445   4.419  0.0253  1.4275  0.1282
 3695TIP3    H211092   6.110   1.551   4.482  1.9132 -0.1602  0.2558
 3696TIP3   OH211093   0.448   5.455   3.382 -0.3297 -0.3123  0.4849
 3696TIP3    H111094   0.445   5.367   3.417  1.7334  0.0041  1.6186
 3696TIP3    H211095   0.510   5.450   3.309  1.2879  0.4779  1.7121
 3697TIP3   OH211096   2.900   0.308   2.916 -0.2455 -0.2400 -0.6300
 3697TIP3    H111097   2.975   0.343   2.963 -1.0908  0.0363  0.5692
 3697TIP3    H211098   2.874   0.379   2.857 -1.4614  0.9744  1.2247
 3698TIP3   OH211099   1.039   5.038   2.534  0.3081 -0.4621  0.7710
 3698TIP3    H111100   1.006   4.968   2.590  0.3266  0.5280  2.0842
 3698TIP3    H211101   1.015   5.119   2.581 -0.7277  0.4757 -1.2145
 3699TIP3   OH211102   2.024   4.508   3.345  0.6887 -0.6263 -0.7220
 3699TIP3    H111103   1.983   4.526   3.260  1.2084  0.5868 -0.7470
 3699TIP3    H211104   2.085   4.581   3.357  0.3636 -0.5939  0.8711
 3700TIP3   OH211105   5.845   1.746   4.686 -0.2117  0.3318  0.1229
 3700TIP3    H111106   5.800   1.665   4.709 -0.3487  0.6968  1.1933
 3700TIP3    H211107   5.931   1.718   4.654 -1.1677 -0.3884 -2.0488
 3701TIP3   OH211108   4.028   2.771   3.178 -0.2100 -0.2236 -0.2097
 3701TIP3    H111109   3.940   2.794   3.207 -0.2627 -0.0205 -0.5219
 3701TIP3    H211110   4.068   2.727   3.254 -0.9581 -1.3367 -0.4510
 3702TIP3   OH211111   0.140   1.216   2.421  0.2263 -0.0905 -0.8570
 3702TIP3    H111112   0.133   1.126   2.451  0.9908 -0.0536 -0.5553
 3702TIP3    H211113   0.053   1.253   2.435 -0.0365 -0.7244 -0.8045
 3703TIP3   OH211114   4.357   0.479   3.402  0.1162 -0.8684  0.3022
 3703TIP3    H111115   4.359   0.486   3.307  0.2098  0.4626  0.3875
 3703TIP3    H211116   4.448   0.491   3.429 -0.2516  1.4337  0.6953
 3704TIP3   OH211117   1.493   1.120   2.160  0.1606  0.3321  0.1882
 3704TIP3    H111118   1.429   1.135   2.090 -0.5396  1.1508  0.9781
 3704TIP3    H211119   1.548   1.198   2.160 -0.6583  0.9446  1.3672
 3705TIP3   OH211120   1.658   5.638   3.375 -0.0397 -0.4204  0.4123
 3705TIP3    H111121   1.630   5.727   3.396 -0.9057 -0.7546  0.7113
 3705TIP3    H211122   1.587   5.582   3.406  0.4061 -1.2073  0.0527
 3706TIP3   OH211123   4.748   2.844   1.705 -0.2035  0.3228 -0.0965
 3706TIP3    H111124   4.768   2.831   1.797 -1.3371  1.3388  0.3211
 3706TIP3    H211125   4.668   2.793   1.690 -0.8952  1.3945 -0.1190
 3707TIP3   OH211126   3.268   0.724   2.012 -0.2330 -0.2890  0.0639
 3707TIP3    H111127   3.329   0.775   1.958 -0.6819 -0.8477 -0.9871
 3707TIP3    H211128   3.197   0.786   2.032 -0.6982 -0.4253 -1.0776
 3708TIP3   OH211129   4.084   2.662   1.971  0.4160 -0.6550 -0.1393
 3708TIP3    H111130   4.150   2.612   1.923 -0.6911 -0.9355 -1.4212
 3708TIP3    H211131   4.105   2.753   1.952  0.8243 -0.7195 -0.0078
 3709TIP3   OH211132   4.548   2.541   3.999 -0.0629 -0.0383 -0.5187
 3709TIP3    H111133   4.556   2.637   3.999 -0.0012 -0.0432 -0.8185
 3709TIP3    H211134   4.638   2.510   3.994 -0.1396 -0.1014 -2.2685
 3710TIP3   OH211135   4.019   2.452   4.045  0.3874  0.5031  0.3860
 3710TIP3    H111136   3.933   2.488   4.064  0.7469  2.3236 -1.2096
 3710TIP3    H211137   4.076   2.488   4.113  0.1417  0.3411  0.6787
 3711TIP3   OH211138   5.948   1.605   0.875 -0.6274 -0.0667  0.2200
 3711TIP3    H111139   5.952   1.579   0.783 -0.6988 -2.8075  0.8999
 3711TIP3    H211140   6.029   1.654   0.889 -0.5013  0.1816 -1.2445
 3712TIP3   OH211141   3.319   2.003   2.479 -0.0713 -0.1918  0.2159
 3712TIP3    H111142   3.256   2.013   2.408 -0.2660 -1.2625  0.2085
 3712TIP3    H211143   3.394   2.057   2.453 -0.9954  1.1575  0.2679
 3713TIP3   OH211144   0.615   4.131   1.384  0.3927  0.3636  0.3735
 3713TIP3    H111145   0.559   4.129   1.462  0.6603  1.4364  0.6045
 3713TIP3    H211146   0.696   4.089   1.412  0.5531  0.8976  0.7430
 3714TIP3   OH211147   3.294   0.859   1.741  0.0014  0.1073 -0.3268
 3714TIP3    H111148   3.297   0.912   1.661  2.1259  1.0535  0.3078
 3714TIP3    H211149   3.377   0.811   1.742 -0.6289 -1.0373  0.5927
 3715TIP3   OH211150   4.481   1.924   0.679 -0.4764  0.1941  0.2290
 3715TIP3    H111151   4.548   1.977   0.636  0.8804 -1.9586 -0.4663
 3715TIP3    H211152   4.401   1.945   0.631 -0.4941  3.1681  1.3700
 3716TIP3   OH211153   4.588   5.911   0.421 -0.6264  0.0933 -0.0205
 3716TIP3    H111154   4.553   6.000   0.419  1.3009  0.8824 -0.5073
 3716TIP3    H211155   4.545   5.866   0.348 -0.2900  1.1748 -0.9045
 3717TIP3   OH211156   4.597   3.221   1.447 -0.0530  0.0906 -0.2815
 3717TIP3    H111157   4.665   3.174   1.399 -0.6041 -2.1840  1.0361
 3717TIP3    H211158   4.642   3.258   1.523  0.0785  0.3408 -0.4791
 3718TIP3   OH211159   3.443   1.344   4.856 -0.3765  0.2196  0.3998
 3718TIP3    H111160   3.439   1.260   4.902 -1.2794  0.4907  0.8434
 3718TIP3    H211161   3.352   1.361   4.830  0.0302  0.3274 -1.0376
 3719TIP3   OH211162   2.085   4.356   5.003 -0.0634 -0.2652 -0.1703
 3719TIP3    H111163   2.155   4.304   5.044 -0.2700  0.0016  0.5425
 3719TIP3    H211164   2.120   4.380   4.917  0.3608 -0.8870 -0.1812
 3720TIP3   OH211165   2.900   2.098   2.187  0.1081 -0.6671  0.2603
 3720TIP3    H111166   2.842   2.050   2.247  0.3780 -0.0118  1.0687
 3720TIP3    H211167   2.984   2.100   2.233  0.4444 -0.5440 -0.3550
 3721TIP3   OH211168   4.728   1.741   5.121 -0.1453  0.1061 -0.3753
 3721TIP3    H111169   4.779   1.811   5.079 -0.0984  0.3934  0.1513
 3721TIP3    H211170   4.705   1.777   5.207  0.9710 -0.9966  0.4272
 3722TIP3   OH211171   1.003   0.653   3.373  0.3438  0.1880 -0.0817
 3722TIP3    H111172   1.046   0.669   3.457 -0.7803 -0.3688  0.6175
 3722TIP3    H211173   1.063   0.689   3.308  1.4861  0.1383  0.9207
 3723TIP3   OH211174   2.175   2.903   0.247  0.5250  0.3272 -0.2692
 3723TIP3    H111175   2.101   2.907   0.187 -0.1319 -0.5306  0.4443
 3723TIP3    H211176   2.161   2.821   0.296  1.6036  0.4736  0.3140
 3724TIP3   OH211177   3.482   2.967   3.837  0.3328 -0.2115 -0.3862
 3724TIP3    H111178   3.404   2.943   3.788 -0.7737  1.7208  0.3452
 3724TIP3    H211179   3.453   2.975   3.928  1.0407  1.8136 -0.2962
 3725TIP3   OH211180   1.334   1.112   4.032  0.5177  0.7261  0.5412
 3725TIP3    H111181   1.416   1.063   4.034 -0.7130 -1.4558  0.7749
 3725TIP3    H211182   1.341   1.167   3.953  2.0677  0.3890  0.4073
 3726TIP3   OH211183   5.002   2.013   1.881  0.4418 -0.0911  0.3678
 3726TIP3    H111184   4.998   2.045   1.791  2.0022  0.7355  0.5478
 3726TIP3    H211185   5.018   2.091   1.934  0.2650 -0.6608  1.2929
 3727TIP3   OH211186   0.382   2.409   2.924 -0.8847  0.1415 -0.3515
 3727TIP3    H111187   0.474   2.436   2.927 -0.2962 -1.4945 -1.6688
 3727TIP3    H211188   0.349   2.424   3.013  0.9366 -0.1401  0.4136
 3728TIP3   OH211189   3.339   3.812   1.519  0.3067 -0.4215 -0.4244
 3728TIP3    H111190   3.265   3.777   1.568  0.6668 -1.0615 -0.3396
 3728TIP3    H211191   3.302   3.832   1.432 -0.1737  0.1093 -0.1067
 3729TIP3   OH211192   2.971   3.293   3.564  0.2464  0.2755 -0.3298
 3729TIP3    H111193   2.993   3.207   3.528  0.9670  1.0226 -1.7447
 3729TIP3    H211194   3.051   3.345   3.555  0.1114  0.8658  1.3416
 3730TIP3   OH211195   5.288   1.657   4.156  0.2758  0.4738 -0.0868
 3730TIP3    H111196   5.214   1.717   4.144  0.4115  1.1495  2.0368
 3730TIP3    H211197   5.341   1.697   4.225  1.5269 -1.0333 -0.1148
 3731TIP3   OH211198   2.994   3.080   1.580 -0.3947  0.0100  0.0423
 3731TIP3    H111199   2.947   3.140   1.638  0.2479  0.4859  0.0890
 3731TIP3    H211200   2.931   3.060   1.511 -1.8403 -2.0502  1.8227
 3732TIP3   OH211201   2.413   4.215   2.556 -0.6596 -0.0949 -0.1918
 3732TIP3    H111202   2.356   4.230   2.480 -1.5937  0.6157  0.6278
 3732TIP3    H211203   2.488   4.272   2.540  0.0850 -1.3840 -1.5136
 3733TIP3   OH211204   3.883   2.507   1.082 -0.3158 -0.0104 -1.0053
 3733TIP3    H111205   3.969   2.527   1.118  0.4720  0.6643 -3.0867
 3733TIP3    H211206   3.823   2.566   1.128  0.6958  1.1057 -1.0689
 3734TIP3   OH211207   2.439   3.321   2.452  0.4825  0.0755  0.3951
 3734TIP3    H111208   2.447   3.380   2.527  1.4365 -0.5452  0.8003
 3734TIP3    H211209   2.368   3.359   2.399 -0.6194  0.1898  1.8937
 3735TIP3   OH211210   4.674   0.643   1.067  0.3609 -0.5240  0.6438
 3735TIP3    H111211   4.586   0.609   1.081 -1.4925  4.2786  2.7559
 3735TIP3    H211212   4.710   0.653   1.155  3.8092 -3.5754 -0.1640
 3736TIP3   OH211213   4.363   5.395   1.939  0.0201 -0.7165 -0.3776
 3736TIP3    H111214   4.286   5.418   1.886 -0.1928 -1.2266 -0.2924
 3736TIP3    H211215   4.434   5.446   1.900 -0.7736  1.5562  0.9468
 3737TIP3   OH211216   0.461   4.794   0.535  0.4554  0.3010  0.5669
 3737TIP3    H111217   0.429   4.879   0.565  0.7646  0.8600 -0.5932
 3737TIP3    H211218   0.523   4.766   0.602  0.5843  1.1539  0.8192
 3738TIP3   OH211219   0.889   5.111   4.836 -0.2760  0.0371  0.2615
 3738TIP3    H111220   0.962   5.056   4.865 -1.0233 -1.0496  0.1708
 3738TIP3    H211221   0.898   5.116   4.741  0.1567  0.6179  0.3303
 3739TIP3   OH211222   5.747   3.507   4.782 -0.1784  0.4838  0.5841
 3739TIP3    H111223   5.802   3.434   4.756 -1.1333 -0.1210  0.2148
 3739TIP3    H211224   5.803   3.561   4.837  0.0697 -1.3679  2.2236
 3740TIP3   OH211225   2.829   5.387   3.817  0.1641  0.3961  0.1203
 3740TIP3    H111226   2.779   5.378   3.737  0.2962 -0.5576  0.1352
 3740TIP3    H211227   2.817   5.304   3.863  0.9625  0.5231  0.5825
 3741TIP3   OH211228   2.944   0.172   3.692 -0.3778  0.4803  0.3142
 3741TIP3    H111229   2.910   0.204   3.776 -0.9283  0.8559 -0.0433
 3741TIP3    H211230   2.977   0.250   3.649 -0.8530  0.4217 -0.1642
 3742TIP3   OH211231   1.893   3.382   0.578 -0.3106  0.3802  0.1280
 3742TIP3    H111232   1.802   3.381   0.606 -0.6819  2.8112 -0.7077
 3742TIP3    H211233   1.918   3.290   0.572 -2.4762 -0.3274  1.0669
 3743TIP3   OH211234   6.008   3.381   3.410  0.5036  0.3337 -0.3380
 3743TIP3    H111235   5.918   3.352   3.397  0.8295 -2.4929  2.5816
 3743TIP3    H211236   6.000   3.465   3.455 -0.6730  0.2681 -0.4000
 3744TIP3   OH211237   1.421   1.584   3.554 -0.0360 -0.1902  0.1120
 3744TIP3    H111238   1.397   1.565   3.645  1.0455  0.2977  0.5154
 3744TIP3    H211239   1.495   1.644   3.561 -1.0060  1.2015 -1.1143
 3745TIP3   OH211240   3.483   1.502   3.910 -0.2001  0.2591 -0.0706
 3745TIP3    H111241   3.466   1.452   3.990 -0.4215  0.6477  0.1274
 3745TIP3    H211242   3.497   1.592   3.940 -0.2839  0.4073 -0.4675
 3746TIP3   OH211243   0.777   1.390   4.512  0.1265 -0.8249  0.3303
 3746TIP3    H111244   0.872   1.388   4.519  0.1520 -1.8052 -0.1251
 3746TIP3    H211245   0.758   1.350   4.427 -0.6776 -0.2934  0.2416
 3747TIP3   OH211246   1.643   0.758   0.645  0.2739  0.3829 -0.1648
 3747TIP3    H111247   1.661   0.672   0.683  1.6191  0.6953 -0.0734
 3747TIP3    H211248   1.625   0.815   0.721  1.8308  0.7403 -0.0387
 3748TIP3   OH211249   3.792   1.313   0.469  0.0649  1.1058  0.2116
 3748TIP3    H111250   3.869   1.340   0.419 -1.7694  3.8812 -1.3567
 3748TIP3    H211251   3.763   1.392   0.514 -2.2979  0.3727  0.1160
 3749TIP3   OH211252   0.498   3.017   2.187 -0.3065 -0.6664 -0.0248
 3749TIP3    H111253   0.495   3.086   2.253 -2.5945  1.1027 -1.8253
 3749TIP3    H211254   0.556   2.951   2.225  0.0770  1.1265  2.8382
 3750TIP3   OH211255   2.854   1.686   1.741 -0.1992  0.1873 -0.6959
 3750TIP3    H111256   2.788   1.697   1.809  1.0333  0.3611  0.4960
 3750TIP3    H211257   2.850   1.768   1.691  0.9871  1.4090  1.0914
 3751TIP3   OH211258   6.205   3.677   4.747 -0.1424 -0.0321 -0.4920
 3751TIP3    H111259   6.195   3.754   4.802 -2.1669 -0.7493  0.2343
 3751TIP3    H211260   6.168   3.702   4.663 -1.3186 -0.3509 -0.0872
 3752TIP3   OH211261   2.288   0.963   4.879  0.4710  0.2637 -0.4443
 3752TIP3    H111262   2.284   1.033   4.944 -0.1780 -1.0883  1.0311
 3752TIP3    H211263   2.237   0.891   4.917  2.1629 -1.4916 -1.3167
 3753TIP3   OH211264   3.304   1.891   4.981  0.4394  0.6188  0.0958
 3753TIP3    H111265   3.274   1.801   4.963 -2.0746  1.3043  0.4838
 3753TIP3    H211266   3.378   1.880   5.041  0.4226 -1.1947 -0.1548
 3754TIP3   OH211267   1.976   3.745   1.391  0.0604  0.1253  0.8575
 3754TIP3    H111268   1.960   3.683   1.320  0.6634  1.1594 -0.2340
 3754TIP3    H211269   1.924   3.713   1.464  2.1333 -2.9660  1.1341
 3755TIP3   OH211270   4.834   3.688   4.584 -0.1755  0.3594 -0.2403
 3755TIP3    H111271   4.915   3.737   4.568  0.4693 -0.0130  1.6060
 3755TIP3    H211272   4.785   3.742   4.647 -0.9653  0.1684 -0.6823
 3756TIP3   OH211273   0.637   5.124   4.947 -0.1618 -0.0935  0.2499
 3756TIP3    H111274   0.721   5.116   4.902 -0.6342  1.2112 -0.9400
 3756TIP3    H211275   0.643   5.205   4.996 -0.9836  0.4290 -0.4778
 3757TIP3   OH211276   1.836   2.971   1.396 -1.0868  0.2770  0.1019
 3757TIP3    H111277   1.849   2.929   1.481  0.5008 -1.4155 -0.9028
 3757TIP3    H211278   1.804   2.901   1.339  0.2387  0.7371 -1.2772
 3758TIP3   OH211279   2.359   4.091   2.827 -0.3121  0.0248 -0.4081
 3758TIP3    H111280   2.325   4.143   2.754 -1.5182  0.4211  0.4100
 3758TIP3    H211281   2.450   4.120   2.837 -0.2043  0.1261 -1.5955
 3759TIP3   OH211282   1.819   0.181   0.370 -0.2819  0.5193  0.1744
 3759TIP3    H111283   1.764   0.144   0.302  0.0178  2.0611 -0.9819
 3759TIP3    H211284   1.898   0.127   0.369 -1.0648 -0.6706  0.6832
 3760TIP3   OH211285   5.928   1.488   3.600  0.6244  0.0246  0.1920
 3760TIP3    H111286   5.925   1.562   3.540  0.2241 -0.3025 -0.2036
 3760TIP3    H211287   6.021   1.464   3.604  0.7216  0.3941  0.1295
 3761TIP3   OH211288   1.943   1.534   3.589  0.3045 -0.2342 -0.1688
 3761TIP3    H111289   1.935   1.620   3.548  0.5269 -0.1670 -0.0662
 3761TIP3    H211290   1.887   1.477   3.535  0.6823 -0.1680 -0.6293
 3762TIP3   OH211291   5.621   4.865   0.745 -0.6228  0.5875  0.0553
 3762TIP3    H111292   5.530   4.893   0.742 -0.4640  1.0701 -1.7276
 3762TIP3    H211293   5.671   4.943   0.719  0.2198  0.0574  0.0371
 3763TIP3   OH211294   5.384   2.173   4.584  0.2026  0.0821  0.0323
 3763TIP3    H111295   5.295   2.149   4.609 -0.4242  1.5566 -0.6703
 3763TIP3    H211296   5.375   2.207   4.495  1.0431  2.4532  0.7719
 3764TIP3   OH211297   0.855   3.366   1.638 -0.6694 -0.3717 -0.4572
 3764TIP3    H111298   0.854   3.346   1.731 -3.1429  0.3308 -0.2689
 3764TIP3    H211299   0.769   3.340   1.606 -0.5557  1.0800 -2.1641
 3765TIP3   OH211300   5.048   4.809   1.718 -0.4724 -0.2745 -0.2252
 3765TIP3    H111301   4.987   4.767   1.657 -2.1732  0.5660  0.8247
 3765TIP3    H211302   5.025   4.902   1.713  0.3883 -0.0112  0.5926
 3766TIP3   OH211303   0.601   4.499   1.520 -0.0330 -0.2893 -0.7674
 3766TIP3    H111304   0.662   4.454   1.579  0.3276 -0.2035 -1.0675
 3766TIP3    H211305   0.515   4.464   1.543 -0.2418  1.4329  1.4472
 3767TIP3   OH211306   0.246   5.430   3.596 -0.3934  0.0494  0.5396
 3767TIP3    H111307   0.236   5.405   3.504  1.7438  2.3837 -0.4681
 3767TIP3    H211308   0.162   5.470   3.619 -0.6042  0.4397 -0.7949
 3768TIP3   OH211309   4.731   3.185   4.941 -0.0963 -0.4399  0.2370
 3768TIP3    H111310   4.672   3.208   5.012  0.4499  1.3626  0.1529
 3768TIP3    H211311   4.770   3.102   4.968 -1.9718 -1.2334  0.7017
 3769TIP3   OH211312   5.685   4.038   0.939  0.4593 -0.2606 -0.1793
 3769TIP3    H111313   5.702   4.081   1.023  1.8955  0.1114 -0.6311
 3769TIP3    H211314   5.671   4.111   0.878 -0.7289 -0.5308 -0.2393
 3770TIP3   OH211315   5.676   3.605   3.616 -0.0470 -0.7496 -0.2089
 3770TIP3    H111316   5.695   3.657   3.537 -1.6139 -0.0754 -0.1686
 3770TIP3    H211317   5.629   3.529   3.583 -0.2578 -0.7182  0.0176
 3771TIP3   OH211318   5.341   3.268   1.962 -0.2920  0.4424 -0.0151
 3771TIP3    H111319   5.382   3.207   1.901 -1.4883  0.0442 -0.4568
 3771TIP3    H211320   5.286   3.324   1.906 -2.1965 -0.5704  0.7524
 3772TIP3   OH211321   3.691   4.691   1.316  0.3008 -0.4401 -0.3960
 3772TIP3    H111322   3.710   4.641   1.237  1.5922 -0.9863  0.2290
 3772TIP3    H211323   3.700   4.627   1.387  3.5323  0.9089  0.5893
 3773TIP3   OH211324   0.836   4.739   3.857  0.1800 -0.4356 -0.2916
 3773TIP3    H111325   0.886   4.789   3.921  0.3162  0.9755 -1.4193
 3773TIP3    H211326   0.757   4.711   3.904  1.5863 -1.9980  1.2778
 3774TIP3   OH211327   5.706   5.455   4.788  0.2172 -0.1778  0.0402
 3774TIP3    H111328   5.800   5.473   4.783 -0.2099  2.1561 -1.3591
 3774TIP3    H211329   5.685   5.464   4.881  1.3922 -0.9780  0.4061
 3775TIP3   OH211330   3.141   1.615   3.923  0.3269 -0.6316 -0.0231
 3775TIP3    H111331   3.094   1.698   3.925 -1.6081 -1.6771  1.6032
 3775TIP3    H211332   3.113   1.573   3.842 -1.3323 -1.0932  0.7649
 3776TIP3   OH211333   1.439   0.757   4.901 -0.5035 -0.0692 -0.3914
 3776TIP3    H111334   1.356   0.720   4.870 -1.0918 -0.0702  1.0927
 3776TIP3    H211335   1.414   0.836   4.948  0.4598  0.5074 -0.8079
 3777TIP3   OH211336   2.665   5.311   4.375  0.5334  0.5352 -0.2195
 3777TIP3    H111337   2.707   5.255   4.441  2.3940  1.1415 -0.8083
 3777TIP3    H211338   2.720   5.299   4.297 -0.7835  0.9365 -1.2282
 3778TIP3   OH211339   2.980   4.536   0.370  0.0985  0.2964 -0.0437
 3778TIP3    H111340   2.951   4.622   0.339 -0.1227  0.4751  0.6525
 3778TIP3    H211341   3.067   4.552   0.406  1.6117 -0.4109 -3.0070
 3779TIP3   OH211342   3.864   2.721   0.575 -0.0530 -0.3404 -0.3367
 3779TIP3    H111343   3.833   2.802   0.615 -0.0153  0.0347 -1.0550
 3779TIP3    H211344   3.895   2.668   0.649  0.6088  0.5977  0.0821
 3780TIP3   OH211345   4.680   4.181   0.438 -0.1554  0.2278 -0.0069
 3780TIP3    H111346   4.679   4.155   0.530 -2.6521 -1.1584 -0.3601
 3780TIP3    H211347   4.676   4.277   0.441  2.1622  0.3691  1.2699
 3781TIP3   OH211348   1.834   3.507   3.873 -0.0462  0.2040  0.1432
 3781TIP3    H111349   1.910   3.562   3.852 -0.4642  0.2863 -1.2716
 3781TIP3    H211350   1.859   3.419   3.844 -0.0334 -0.0095  0.8007
 3782TIP3   OH211351   4.170   3.940   4.583  0.5480  0.2071 -0.4755
 3782TIP3    H111352   4.126   4.005   4.528  0.9121  1.5053  0.6871
 3782TIP3    H211353   4.136   3.958   4.671  0.6859 -1.1828 -0.1210
 3783TIP3   OH211354   1.766   0.891   1.490  0.1403 -0.5608  0.2304
 3783TIP3    H111355   1.857   0.875   1.513  0.5084 -0.7272 -1.2823
 3783TIP3    H211356   1.735   0.810   1.450 -0.7912 -0.6328  1.0444
 3784TIP3   OH211357   3.613   1.923   2.339 -0.0111 -0.0721 -0.0193
 3784TIP3    H111358   3.569   1.839   2.321  0.5274  0.0591 -2.3181
 3784TIP3    H211359   3.588   1.945   2.428 -1.0269 -2.1656  0.2663
 3785TIP3   OH211360   5.200   2.983   4.400  0.0815 -0.4351  0.1204
 3785TIP3    H111361   5.130   2.920   4.383 -1.1558  0.7841  0.5683
 3785TIP3    H211362   5.177   3.060   4.348  0.6813  0.2611  0.8537
 3786TIP3   OH211363   3.539   4.813   3.947  0.6233 -0.1451  0.0736
 3786TIP3    H111364   3.519   4.872   3.875 -1.0283 -0.4219  0.2570
 3786TIP3    H211365   3.586   4.740   3.907  1.2446  0.5160 -0.4193
 3787TIP3   OH211366   3.675   3.212   1.128  0.4119 -0.0100 -0.0115
 3787TIP3    H111367   3.760   3.181   1.095  0.5859 -1.3617  1.5308
 3787TIP3    H211368   3.695   3.244   1.216 -0.4428  1.0715 -0.1996
 3788TIP3   OH211369   4.475   4.664   4.586  0.0553  0.1954  0.6530
 3788TIP3    H111370   4.426   4.584   4.602 -1.2681  1.1363  1.6002
 3788TIP3    H211371   4.540   4.668   4.656 -2.0467  1.5076  2.7197
 3789TIP3   OH211372   3.600   4.223   0.886 -0.3990 -0.0898  0.1685
 3789TIP3    H111373   3.639   4.237   0.972 -0.5353 -1.3617  0.4415
 3789TIP3    H211374   3.514   4.187   0.903 -0.0640 -1.2658 -0.4949
 3790TIP3   OH211375   1.156   4.493   0.865  1.1487 -0.1458 -0.1091
 3790TIP3    H111376   1.219   4.437   0.818  0.4098 -1.3227  0.2609
 3790TIP3    H211377   1.151   4.455   0.952  2.4527  1.9804  0.9835
 3791TIP3   OH211378   4.366   2.987   0.433  0.4051 -0.4880 -0.2022
 3791TIP3    H111379   4.440   2.936   0.401 -0.4157 -0.8618 -1.5991
 3791TIP3    H211380   4.313   2.925   0.483 -0.6167 -1.1009 -1.9372
 3792TIP3   OH211381   3.313   2.031   2.019 -0.4394  0.4385  1.1495
 3792TIP3    H111382   3.326   1.949   2.066  0.4432  0.5035  1.0530
 3792TIP3    H211383   3.285   2.006   1.931  0.0054  0.2299  1.0655
 3793TIP3   OH211384   1.441   2.894   1.805  0.0808 -0.0578  0.2297
 3793TIP3    H111385   1.487   2.814   1.778  0.3984 -0.0305  0.6696
 3793TIP3    H211386   1.384   2.915   1.732  2.3909  1.2027 -1.3523
 3794TIP3   OH211387   4.857   3.591   3.307  0.3450  0.0191 -0.2742
 3794TIP3    H111388   4.944   3.555   3.293  0.6047  0.0662  1.0727
 3794TIP3    H211389   4.829   3.555   3.392  0.2912  2.2891  0.7608
 3795TIP3   OH211390   5.629   2.333   2.029  0.5882  0.0243 -0.2663
 3795TIP3    H111391   5.672   2.414   2.003  0.8615 -0.0817 -0.1535
 3795TIP3    H211392   5.701   2.276   2.057  0.4487 -0.4163 -0.7748
 3796TIP3   OH211393   1.017   1.068   1.654 -0.2924 -0.3899 -0.7714
 3796TIP3    H111394   0.956   1.067   1.581 -2.7647 -0.5794  1.1567
 3796TIP3    H211395   0.992   0.992   1.707  1.0462  0.0341  0.5492
 3797TIP3   OH211396   4.913   5.321   0.596  0.0351 -0.1650  0.1325
 3797TIP3    H111397   4.846   5.385   0.622  2.7914  2.2940  1.9009
 3797TIP3    H211398   4.895   5.244   0.650 -0.8299  0.7945  1.2708
 3798TIP3   OH211399   2.079   4.355   1.822  0.0696 -0.0173  0.2610
 3798TIP3    H111400   2.151   4.393   1.772  0.0935  0.8351  0.9036
 3798TIP3    H211401   2.002   4.367   1.767  0.3057 -0.2848 -0.1271
 3799TIP3   OH211402   0.515   1.043   0.143 -0.0240  0.1004 -0.4800
 3799TIP3    H111403   0.558   1.109   0.089  0.3846 -0.1503 -0.4693
 3799TIP3    H211404   0.494   0.972   0.083 -0.5734  0.2880 -0.5145
 3800TIP3   OH211405   5.313   3.704   1.748  0.1564 -0.2864  0.5642
 3800TIP3    H111406   5.304   3.684   1.655 -0.2553  0.1236  0.5110
 3800TIP3    H211407   5.288   3.796   1.755  2.8487  0.5178  0.6616
 3801TIP3   OH211408   6.225   1.533   2.109  0.0252  0.5106  0.2738
 3801TIP3    H111409   6.139   1.574   2.109  0.0573  0.5780 -0.1508
 3801TIP3    H211410   6.281   1.596   2.063  0.7624  1.4479  2.2877
 3802TIP3   OH211411   1.267   0.668   0.947  0.2665 -0.0605 -0.3491
 3802TIP3    H111412   1.300   0.578   0.944  1.8257  0.4930 -0.9740
 3802TIP3    H211413   1.276   0.700   0.857  0.1585  0.8643 -0.0453
 3803TIP3   OH211414   4.730   1.181   2.514 -0.4556 -0.7339  0.6054
 3803TIP3    H111415   4.745   1.272   2.490 -1.3537 -0.3996  1.2393
 3803TIP3    H211416   4.763   1.174   2.604 -1.0920 -0.8216  0.8386
 3804TIP3   OH211417   3.501   2.509   4.859 -0.1144  0.5732  1.1690
 3804TIP3    H111418   3.411   2.485   4.878 -0.3290 -0.7784 -1.1664
 3804TIP3    H211419   3.495   2.577   4.792  0.6021  0.7209  1.2447
 3805TIP3   OH211420   0.733   1.718   0.243  0.0700  0.3401  0.4235
 3805TIP3    H111421   0.752   1.801   0.200  0.2345 -0.6872 -1.6612
 3805TIP3    H211422   0.817   1.672   0.245 -0.2350 -0.2340  0.4499
 3806TIP3   OH211423   2.530   5.167   2.032 -0.1018 -0.5442  0.1202
 3806TIP3    H111424   2.556   5.257   2.051 -0.8303 -0.4395  0.6805
 3806TIP3    H211425   2.526   5.161   1.937  0.6430 -0.1918  0.0627
 3807TIP3   OH211426   5.734   1.741   1.709 -0.3369  0.8922 -0.2053
 3807TIP3    H111427   5.698   1.827   1.688 -0.0805  1.0535  0.0102
 3807TIP3    H211428   5.771   1.752   1.796 -0.9391  0.3680  0.1254
 3808TIP3   OH211429   3.517   1.680   1.947  0.3303 -0.4594 -0.2017
 3808TIP3    H111430   3.432   1.701   1.985  0.6316  0.3426  0.0666
 3808TIP3    H211431   3.540   1.759   1.897  1.8543  0.2261  1.4482
 3809TIP3   OH211432   2.192   3.057   2.534 -0.3396  0.2015 -0.3884
 3809TIP3    H111433   2.245   3.111   2.593  0.8464 -0.0864 -1.1602
 3809TIP3    H211434   2.170   3.116   2.462 -0.4780  0.1122 -0.4200
 3810TIP3   OH211435   5.122   3.532   2.280  0.1177 -0.3693 -0.3173
 3810TIP3    H111436   5.174   3.458   2.310  0.5559 -0.1010 -0.4043
 3810TIP3    H211437   5.184   3.588   2.233 -0.4004 -0.4226 -1.0979
 3811TIP3   OH211438   5.602   2.583   2.214 -0.2143  0.2827  0.0945
 3811TIP3    H111439   5.507   2.598   2.211 -0.0950  0.9610 -0.3835
 3811TIP3    H211440   5.613   2.495   2.176 -0.6381  0.2402  0.0665
 3812TIP3   OH211441   4.259   3.655   0.674 -0.6305  0.5344  0.2934
 3812TIP3    H111442   4.230   3.664   0.765 -2.1661  0.4403 -0.1551
 3812TIP3    H211443   4.242   3.740   0.635 -2.3080 -0.1238 -0.5014
 3813TIP3   OH211444   3.788   5.458   3.860  0.1217  0.2410 -0.4993
 3813TIP3    H111445   3.702   5.454   3.820 -0.8220 -1.3145  1.4594
 3813TIP3    H211446   3.773   5.435   3.952  2.5754  0.2347 -0.0111
 3814TIP3   OH211447   5.579   1.733   2.744 -0.3763  0.2607  0.1704
 3814TIP3    H111448   5.622   1.660   2.700 -0.6744 -0.7326  1.4623
 3814TIP3    H211449   5.638   1.807   2.733  0.3559 -0.3990 -0.3976
 3815TIP3   OH211450   1.941   5.845   1.912 -0.1041 -0.3145  0.5182
 3815TIP3    H111451   1.908   5.902   1.843 -0.7654 -1.0076  0.2388
 3815TIP3    H211452   1.889   5.868   1.989  0.6470  0.4722  0.7945
 3816TIP3   OH211453   6.178   0.083   2.565 -0.6563 -0.2993  0.4349
 3816TIP3    H111454   6.215   0.171   2.557  0.1389 -0.7344 -1.0795
 3816TIP3    H211455   6.100   0.085   2.510 -0.7237 -0.4897  0.5253
 3817TIP3   OH211456   5.650   2.167   0.891  0.6969  0.3718  0.0353
 3817TIP3    H111457   5.564   2.162   0.933  1.4180  1.4037  1.7367
 3817TIP3    H211458   5.699   2.093   0.927  0.0076 -1.3601 -2.3507
 3818TIP3   OH211459   0.336   1.102   1.298 -0.2082 -0.1838 -0.3307
 3818TIP3    H111460   0.316   1.187   1.259  0.8220  1.0899  1.7423
 3818TIP3    H211461   0.425   1.111   1.331 -0.9960 -1.0602  2.3255
 3819TIP3   OH211462   0.738   1.157   1.172 -0.1581 -0.5445 -0.0394
 3819TIP3    H111463   0.695   1.104   1.105 -0.3605 -0.8422  0.3213
 3819TIP3    H211464   0.670   1.217   1.202  0.1148  0.0349 -0.5593
 3820TIP3   OH211465   0.769   2.247   1.046 -0.3316  0.6238  0.9485
 3820TIP3    H111466   0.821   2.236   0.967 -2.7438  1.7797 -0.9147
 3820TIP3    H211467   0.831   2.285   1.110  2.3063 -2.5625  0.5661
 3821TIP3   OH211468   3.067   1.952   0.227  0.2914 -0.1060  0.6282
 3821TIP3    H111469   3.005   1.913   0.166 -1.5305  2.2681  0.8169
 3821TIP3    H211470   3.126   1.881   0.250 -0.5088 -1.7271 -1.8899
 3822TIP3   OH211471   3.165   0.851   4.504  0.0092  0.2740  0.3158
 3822TIP3    H111472   3.136   0.793   4.574  1.5122 -0.6754  0.1956
 3822TIP3    H211473   3.159   0.799   4.424 -1.9354  1.4262 -0.3707
 3823TIP3   OH211474   5.090   2.526   4.042  0.2659 -0.1563 -0.0309
 3823TIP3    H111475   5.123   2.616   4.035  0.8137 -0.3556 -0.0504
 3823TIP3    H211476   5.096   2.492   3.953 -1.3425  0.2589 -0.3344
 3824TIP3   OH211477   5.135   4.366   0.581  0.2323  0.5128  0.9649
 3824TIP3    H111478   5.184   4.401   0.507  1.4689  1.5567  2.2267
 3824TIP3    H211479   5.071   4.435   0.602 -1.0307 -0.3413  0.0764
 3825TIP3   OH211480   5.504   4.544   1.915  0.2241 -1.2332 -0.1175
 3825TIP3    H111481   5.477   4.456   1.888  1.3020 -2.8906  3.5589
 3825TIP3    H211482   5.458   4.559   1.997  3.4318 -0.3494  1.6783
 3826TIP3   OH211483   1.676   1.762   4.609  0.2597  0.4565  0.4892
 3826TIP3    H111484   1.659   1.848   4.569  1.6738 -0.8984 -3.5408
 3826TIP3    H211485   1.590   1.733   4.640 -0.3821  2.9336  1.2589
 3827TIP3   OH211486   0.730   2.953   0.535 -0.7511 -0.3010  0.3110
 3827TIP3    H111487   0.802   2.896   0.563  0.5579 -0.0769 -2.2408
 3827TIP3    H211488   0.673   2.897   0.484  0.0242  0.3700 -1.3846
 3828TIP3   OH211489   5.092   1.804   1.013 -0.2095 -0.7056  0.8067
 3828TIP3    H111490   5.126   1.813   0.924 -0.4032  2.1977  0.9439
 3828TIP3    H211491   5.159   1.753   1.059  1.2668  0.1274 -0.3247
 3829TIP3   OH211492   0.240   2.674   0.740 -0.4760 -0.3105 -0.2702
 3829TIP3    H111493   0.329   2.658   0.709 -0.5496 -1.3081 -0.0064
 3829TIP3    H211494   0.238   2.768   0.761  0.6053 -0.3407  0.0307
 3830TIP3   OH211495   3.755   0.811   4.347 -0.0314  0.4666 -0.8377
 3830TIP3    H111496   3.768   0.843   4.258 -1.5339  0.4695 -1.0797
 3830TIP3    H211497   3.780   0.719   4.344 -3.2364 -0.4593 -2.1389
 3831TIP3   OH211498   4.839   5.003   4.105 -0.1821 -0.2639  0.6472
 3831TIP3    H111499   4.832   5.092   4.073 -2.0346 -0.8807 -0.8478
 3831TIP3    H211500   4.812   5.009   4.197  1.9386  1.0134  1.2455
 3832TIP3   OH211501   5.984   4.986   1.762 -0.1202 -0.2575  0.1694
 3832TIP3    H111502   5.897   4.998   1.799 -0.2237 -0.4130 -0.0238
 3832TIP3    H211503   6.029   4.928   1.824  0.5883  1.5543  1.4353
 3833TIP3   OH211504   1.595   5.620   4.263  0.5543  0.5163  0.0978
 3833TIP3    H111505   1.640   5.587   4.185  0.9022  0.4706  0.3169
 3833TIP3    H211506   1.659   5.676   4.307 -0.4814  2.7199 -1.0243
 3834TIP3   OH211507   2.799   1.475   1.189 -0.4842 -0.1258 -0.1951
 3834TIP3    H111508   2.754   1.555   1.212  0.4004  0.1261  0.7494
 3834TIP3    H211509   2.760   1.448   1.106 -1.5138  0.7064  0.0014
 3835TIP3   OH211510   5.732   4.312   1.040 -0.1776 -0.1631  0.0362
 3835TIP3    H111511   5.740   4.251   1.113  2.1200 -1.0471 -0.8598
 3835TIP3    H211512   5.787   4.387   1.065 -0.2312  0.0030 -0.3346
 3836TIP3   OH211513   4.095   4.713   4.515  0.1511 -0.1944  0.0493
 3836TIP3    H111514   4.009   4.694   4.553 -0.4163  0.5415 -0.8189
 3836TIP3    H211515   4.149   4.738   4.590 -1.2404  2.3019  0.3120
 3837TIP3   OH211516   6.075   3.124   2.373 -0.3093 -0.8023 -0.2283
 3837TIP3    H111517   6.098   3.051   2.315  0.9482  0.2457 -1.0992
 3837TIP3    H211518   6.070   3.200   2.315  0.3687  0.1626  0.9306
 3838TIP3   OH211519   3.043   5.585   3.839  0.5254  0.0926 -0.2307
 3838TIP3    H111520   3.102   5.529   3.890  0.6276  0.1321 -0.3048
 3838TIP3    H211521   2.957   5.544   3.847  0.9804 -1.3614 -2.1497
 3839TIP3   OH211522   1.358   1.284   3.816  0.9654 -0.0522  0.2506
 3839TIP3    H111523   1.291   1.351   3.824 -0.5629 -1.5348  0.3959
 3839TIP3    H211524   1.440   1.333   3.803  0.6134  1.9902  4.3653
 3840TIP3   OH211525   5.844   0.925   1.578 -0.2495  0.0935 -0.1937
 3840TIP3    H111526   5.807   0.943   1.664 -0.6229 -1.6153  0.0439
 3840TIP3    H211527   5.929   0.885   1.597 -0.1804  0.0259 -0.6367
 3841TIP3   OH211528   3.942   4.865   2.883  0.1592  0.1583  0.1828
 3841TIP3    H111529   3.935   4.856   2.978  1.4373  0.2251  0.2949
 3841TIP3    H211530   4.011   4.930   2.870  0.4179 -0.3018 -0.8062
 3842TIP3   OH211531   3.262   3.779   3.143  0.3733  0.0035  0.5048
 3842TIP3    H111532   3.177   3.818   3.120 -0.7761 -1.6741  1.6664
 3842TIP3    H211533   3.305   3.765   3.058 -0.8196  0.2048 -0.1651
 3843TIP3   OH211534   3.641   1.275   0.874 -0.2161 -0.2719 -0.5395
 3843TIP3    H111535   3.613   1.275   0.782  2.1446  0.7051 -1.3121
 3843TIP3    H211536   3.653   1.367   0.896 -0.3226 -0.5242  0.6425
 3844TIP3   OH211537   2.209   0.348   4.348  0.5492 -0.3910 -0.8749
 3844TIP3    H111538   2.144   0.312   4.409  0.9052 -0.9581 -0.8161
 3844TIP3    H211539   2.203   0.291   4.271  0.3005  0.1489 -1.2615
 3845TIP3   OH211540   2.672   1.841   0.539  0.4770 -0.8072  0.1238
 3845TIP3    H111541   2.714   1.783   0.602 -0.9974  0.4239  2.3800
 3845TIP3    H211542   2.586   1.804   0.525  0.5891 -0.7597 -0.7830
 3846TIP3   OH211543   4.986   1.520   1.519  0.4600 -0.2099  0.0276
 3846TIP3    H111544   5.000   1.577   1.443 -0.6617  0.5375  0.3611
 3846TIP3    H211545   5.044   1.556   1.586  2.6203 -1.7870 -0.8686
 3847TIP3   OH211546   5.920  -0.016   0.850  0.1400  0.2126  0.2830
 3847TIP3    H111547   5.903   0.076   0.833 -1.6743  0.0801  1.1447
 3847TIP3    H211548   5.834  -0.053   0.870  0.9782 -1.4209  1.0601
 3848TIP3   OH211549   6.308   0.022   1.305 -0.0458  0.0765 -0.5862
 3848TIP3    H111550   6.232  -0.009   1.353 -0.3560  2.0461  0.2884
 3848TIP3    H211551   6.283   0.013   1.213 -0.6971 -0.7729 -0.3379
 3849TIP3   OH211552   4.096   1.827   3.453  0.1275  0.3178 -0.2663
 3849TIP3    H111553   4.168   1.790   3.505  0.6798  0.3736 -0.9733
 3849TIP3    H211554   4.022   1.830   3.514  0.9981  1.2486  0.7874
 3850TIP3   OH211555   2.679   0.087   4.385 -0.1626 -0.1114 -0.3044
 3850TIP3    H111556   2.641   0.106   4.471  0.1457  0.4412 -0.2828
 3850TIP3    H211557   2.714   0.171   4.356  0.1252 -0.3920 -0.7772
 3851TIP3   OH211558   2.500   4.961   4.937  0.5376  0.1900  0.0864
 3851TIP3    H111559   2.528   4.914   5.015  0.3193 -1.3038 -0.6941
 3851TIP3    H211560   2.569   4.945   4.873  0.6739  1.3307 -0.0602
 3852TIP3   OH211561   0.851   3.096   1.078  0.0206 -0.5080 -0.8198
 3852TIP3    H111562   0.826   3.054   1.160 -1.0684  0.9793 -0.3417
 3852TIP3    H211563   0.893   3.026   1.027  0.6925 -1.4733  0.9559
 3853TIP3   OH211564   1.443   0.486   3.540 -0.7026 -0.1686  0.0217
 3853TIP3    H111565   1.371   0.431   3.571 -0.0773  0.0107  1.8932
 3853TIP3    H211566   1.522   0.443   3.572 -0.1889  1.7629  1.5504
 3854TIP3   OH211567   3.003   0.612   0.528 -0.1975  0.2521 -0.5422
 3854TIP3    H111568   3.018   0.706   0.539 -2.0517  0.3653  1.9632
 3854TIP3    H211569   2.994   0.578   0.617 -0.2706 -2.1960 -1.3863
 3855TIP3   OH211570   3.637   1.398   1.202 -0.0353 -0.0079  0.0370
 3855TIP3    H111571   3.561   1.352   1.237 -0.1103  0.9811  1.2262
 3855TIP3    H211572   3.608   1.431   1.117 -0.3230 -1.1888 -0.3436
 3856TIP3   OH211573   3.448   5.839   0.353  0.0330 -0.6714  0.0956
 3856TIP3    H111574   3.440   5.842   0.258  1.4279 -0.0220 -0.0174
 3856TIP3    H211575   3.386   5.906   0.384  1.5832  1.1523 -0.5286
 3857TIP3   OH211576   5.563   1.156   1.227 -0.4825  0.3815  0.0342
 3857TIP3    H111577   5.621   1.088   1.260 -1.1920  0.3432  1.2517
 3857TIP3    H211578   5.559   1.221   1.297 -2.5895 -0.0304  0.3757
 3858TIP3   OH211579   4.009   3.181   4.867 -0.1148  0.0634  0.5268
 3858TIP3    H111580   4.092   3.202   4.826  0.7567 -1.6578  1.3128
 3858TIP3    H211581   4.029   3.110   4.928 -2.4511 -1.7721 -0.6589
 3859TIP3   OH211582   0.546   1.915   0.500  0.0793 -0.0282  0.3142
 3859TIP3    H111583   0.450   1.909   0.496 -0.1728  1.1600  2.7520
 3859TIP3    H211584   0.572   1.931   0.409 -1.7705 -2.6523 -0.8321
 3860TIP3   OH211585   3.623   2.790   0.938  0.1226 -0.1738  0.4643
 3860TIP3    H111586   3.587   2.840   0.865 -1.0539 -0.3631  0.8953
 3860TIP3    H211587   3.718   2.803   0.931  0.3769 -2.5457 -2.8517
 3861TIP3   OH211588   0.510   3.467   2.455  0.4471  0.1707 -0.5782
 3861TIP3    H111589   0.470   3.465   2.542 -1.7394  3.2227 -1.3407
 3861TIP3    H211590   0.482   3.385   2.414 -0.2148 -0.3867  0.9218
 3862TIP3   OH211591   1.665   5.921  -0.002 -0.2713  0.0925  0.0176
 3862TIP3    H111592   1.745   5.951   0.040  0.4193  0.3606 -1.4371
 3862TIP3    H211593   1.660   5.828   0.020 -0.2449  0.3364  1.1400
 3863TIP3   OH211594   6.059   0.287   0.508  0.0010 -0.4526 -0.1374
 3863TIP3    H111595   6.130   0.319   0.563  1.2068  0.3394 -2.0485
 3863TIP3    H211596   5.980   0.326   0.546  0.9631  1.3461  0.1407
 3864TIP3   OH211597   2.320   2.449   5.075  0.8382 -0.3539 -0.1725
 3864TIP3    H111598   2.265   2.437   4.997  0.5519  0.4402 -0.0991
 3864TIP3    H211599   2.391   2.386   5.063  0.6092 -0.4900 -0.9056
 3865TIP3   OH211600   0.205   4.620   3.939  0.1558  0.5862 -0.2879
 3865TIP3    H111601   0.130   4.566   3.915 -1.7416  3.0689 -0.2668
 3865TIP3    H211602   0.250   4.570   4.007 -0.2771 -1.8673 -1.6981
 3866TIP3   OH211603   4.534   4.827   3.947 -0.5193 -0.4346 -0.9700
 3866TIP3    H111604   4.453   4.849   3.992  0.7365 -0.2373  1.3277
 3866TIP3    H211605   4.554   4.738   3.976  1.5501  0.5500  0.8787
 3867TIP3   OH211606   5.547   2.970   1.036  0.0746 -0.0439 -0.5124
 3867TIP3    H111607   5.567   2.914   0.961 -0.9329  0.9701 -1.5961
 3867TIP3    H211608   5.451   2.966   1.044  0.0394  1.0217 -0.2405
 3868TIP3   OH211609   1.948   5.197   3.750 -0.3884  1.2179  0.1955
 3868TIP3    H111610   1.984   5.276   3.790  1.2054  1.0192 -0.7722
 3868TIP3    H211611   1.959   5.210   3.656 -0.4325  0.0003 -0.0017
 3869TIP3   OH211612   0.164   2.590   4.179 -0.3907 -0.2788  0.2359
 3869TIP3    H111613   0.179   2.496   4.173  0.2537 -0.1852  0.3442
 3869TIP3    H211614   0.248   2.630   4.157 -1.1021  0.3364 -1.5559
 3870TIP3   OH211615   4.839   5.284   2.161 -0.4470 -0.1931 -0.5614
 3870TIP3    H111616   4.862   5.198   2.125 -0.4321 -1.2046  1.6906
 3870TIP3    H211617   4.919   5.336   2.153  0.1583 -1.0421 -0.1620
 3871TIP3   OH211618   4.872   1.194   0.182 -0.3243  0.0074  0.4228
 3871TIP3    H111619   4.913   1.252   0.246 -0.5121 -0.3278  0.8581
 3871TIP3    H211620   4.814   1.138   0.234 -0.3930 -0.3498 -0.0268
 3872TIP3   OH211621   2.088   0.799   2.941  0.5424  0.1004 -0.1826
 3872TIP3    H111622   2.106   0.765   3.028  1.1488 -1.7820 -1.0018
 3872TIP3    H211623   1.993   0.812   2.939  0.6499  1.3600  1.1279
 3873TIP3   OH211624   5.215   5.590   1.142  0.0692 -0.0344  0.2231
 3873TIP3    H111625   5.210   5.646   1.064  1.7217  0.7834  0.6610
 3873TIP3    H211626   5.225   5.651   1.215  1.6924 -0.8540  0.7344
 3874TIP3   OH211627   6.031   5.940   2.524  0.1304 -0.0574 -0.2355
 3874TIP3    H111628   5.985   5.857   2.541 -0.5421 -0.1049 -2.0584
 3874TIP3    H211629   6.123   5.920   2.540 -0.2161 -0.5874  1.2802
 3875TIP3   OH211630   0.965   3.056   3.351  0.1410 -0.0573 -0.8176
 3875TIP3    H111631   1.056   3.084   3.349  0.5798 -1.1954  1.1144
 3875TIP3    H211632   0.915   3.137   3.365  0.9288  0.4061 -0.6775
 3876TIP3   OH211633   2.122   2.743   1.167  0.1245 -0.3678  0.2324
 3876TIP3    H111634   2.132   2.814   1.103 -3.0096  0.4666  0.4550
 3876TIP3    H211635   2.124   2.788   1.252 -1.2187 -0.5776  0.4029
 3877TIP3   OH211636   2.653   2.837   4.945  0.1381 -0.1228 -0.1488
 3877TIP3    H111637   2.692   2.797   4.867  0.7463  0.5731 -0.2071
 3877TIP3    H211638   2.559   2.829   4.931  0.1586  1.8832 -1.9860
 3878TIP3   OH211639   0.165   1.158   0.198  0.3367  0.1312  0.6690
 3878TIP3    H111640   0.238   1.098   0.188  0.5889  0.6140 -0.6282
 3878TIP3    H211641   0.091   1.113   0.158 -0.3141 -0.6969  2.6936
 3879TIP3   OH211642   3.785   1.331   5.007  0.0667  0.3668  0.0112
 3879TIP3    H111643   3.878   1.328   4.984  0.3129  1.6070  0.7367
 3879TIP3    H211644   3.768   1.247   5.049  0.9391  0.2423  0.1388
 3880TIP3   OH211645   0.207   4.052   3.246  0.1695  0.8608  0.0763
 3880TIP3    H111646   0.173   3.988   3.185 -2.4606  2.3867 -0.2016
 3880TIP3    H211647   0.286   4.086   3.203 -0.6406  0.6599 -1.6630
 3881TIP3   OH211648   2.795   3.939   5.036 -0.4970 -0.1679 -0.2727
 3881TIP3    H111649   2.800   3.998   4.961 -0.4126  0.1734 -0.0026
 3881TIP3    H211650   2.871   3.962   5.089 -0.3464 -0.6657 -0.2686
 3882TIP3   OH211651   4.742   1.372   1.160  0.1242  0.4633  0.0441
 3882TIP3    H111652   4.688   1.293   1.170 -1.0635  1.2779  0.3026
 3882TIP3    H211653   4.731   1.419   1.243 -0.1912  1.4978 -0.5658
 3883TIP3   OH211654   6.015   5.666   5.000 -0.1555 -0.3873  0.2036
 3883TIP3    H111655   6.011   5.625   5.086  3.8799  0.7592  1.1557
 3883TIP3    H211656   5.930   5.710   4.991 -1.0853 -1.3014  3.1459
 3884TIP3   OH211657   3.877   3.970   5.003  0.0558 -0.0598 -0.6099
 3884TIP3    H111658   3.965   3.970   5.042 -0.6120  1.3627  1.0518
 3884TIP3    H211659   3.820   3.940   5.074 -0.8454 -0.8243 -1.6229
 3885TIP3   OH211660   6.228   1.582   4.771 -0.5446 -0.0937  0.5139
 3885TIP3    H111661   6.224   1.526   4.849  0.4052  1.1399  1.4845
 3885TIP3    H211662   6.264   1.665   4.803 -0.0052  0.3938 -1.2759
 3886TIP3   OH211663   2.947   1.529   2.992  0.4621 -0.0979  0.1088
 3886TIP3    H111664   2.919   1.605   2.940  1.0217 -0.2084 -0.3568
 3886TIP3    H211665   3.037   1.514   2.966 -0.0023 -1.6613 -0.6614
 3887TIP3   OH211666   3.937   1.700   1.491 -0.2996 -0.0421  0.2114
 3887TIP3    H111667   4.004   1.725   1.427  2.3195 -1.0235  2.3645
 3887TIP3    H211668   3.963   1.613   1.520 -1.9053 -0.0021  1.9702
 3888TIP3   OH211669   1.822   1.676   4.387  0.0580  0.5537  0.4243
 3888TIP3    H111670   1.760   1.679   4.460 -0.8201  0.6673 -0.3175
 3888TIP3    H211671   1.772   1.704   4.311  0.7402 -0.3672 -0.3930
 3889TIP3   OH211672   1.987   1.402   2.708  0.9161 -0.5609 -0.5667
 3889TIP3    H111673   2.083   1.410   2.712  1.0833 -2.1301 -0.8827
 3889TIP3    H211674   1.970   1.361   2.623 -0.2145  1.4805 -1.4103
 3890TIP3   OH211675   4.919   0.875   4.996  0.3333  0.1823  0.4417
 3890TIP3    H111676   4.907   0.891   5.089 -0.9532  2.1931 -0.0209
 3890TIP3    H211677   4.957   0.956   4.962 -0.8585  0.1587 -1.0540
 3891TIP3   OH211678   2.149   4.367   2.475 -0.1388 -0.5717 -0.6000
 3891TIP3    H111679   2.090   4.442   2.470 -0.8819 -1.1702 -0.9474
 3891TIP3    H211680   2.190   4.363   2.388  0.8139  0.1475 -0.2019
 3892TIP3   OH211681   3.710   0.726   4.623  0.2295  0.3226  0.3589
 3892TIP3    H111682   3.680   0.638   4.600 -0.9128  1.0938 -1.3788
 3892TIP3    H211683   3.715   0.772   4.539  1.8782  1.6148  1.1002
 3893TIP3   OH211684   5.842   0.565   2.948 -0.2821  0.1127 -0.7966
 3893TIP3    H111685   5.930   0.602   2.934 -0.7083  0.8753 -1.5433
 3893TIP3    H211686   5.801   0.625   3.009 -0.3456 -0.1515 -0.5802
 3894TIP3   OH211687   3.557   4.477   3.091  0.1296  0.1048 -0.3552
 3894TIP3    H111688   3.533   4.387   3.072 -0.6969  0.3720 -0.5983
 3894TIP3    H211689   3.476   4.518   3.122  0.3534  0.9047 -0.7874
 3895TIP3   OH211690   1.934   1.403   1.320 -0.3271 -0.7488  0.1735
 3895TIP3    H111691   1.882   1.401   1.240 -1.4296  0.5370  0.8189
 3895TIP3    H211692   1.909   1.323   1.367  0.7788 -1.8300 -0.9887
 3896TIP3   OH211693   0.867   3.882   3.769  0.4498  0.2650 -0.5802
 3896TIP3    H111694   0.905   3.940   3.835  0.7420  0.7265 -1.1491
 3896TIP3    H211695   0.933   3.813   3.757 -0.3784 -0.8375  0.9182
 3897TIP3   OH211696   5.640   4.349   0.410  0.0023 -0.3786 -0.7928
 3897TIP3    H111697   5.611   4.313   0.493  0.7544  1.7988  0.5081
 3897TIP3    H211698   5.722   4.304   0.391 -0.7070 -1.6408 -0.9343
 3898TIP3   OH211699   3.349   1.965   0.532  0.1192  0.4844 -0.7379
 3898TIP3    H111700   3.348   2.009   0.447 -1.4732  0.0782 -0.9500
 3898TIP3    H211701   3.350   1.872   0.510  0.2646  0.3822 -0.3051
 3899TIP3   OH211702   1.854   2.625   4.648 -0.5529 -0.1663  0.7003
 3899TIP3    H111703   1.822   2.556   4.706 -3.3438 -0.2776 -0.8011
 3899TIP3    H211704   1.900   2.578   4.579  0.2872 -0.2450  1.2969
 3900TIP3   OH211705   5.622   1.566   3.565 -0.4981 -0.2832 -0.0083
 3900TIP3    H111706   5.716   1.583   3.557  0.1013 -2.7549  0.9689
 3900TIP3    H211707   5.602   1.509   3.490 -1.3733  0.6268 -0.4998
 3901TIP3   OH211708   4.858   3.613   2.908  0.0402  0.0935  0.5202
 3901TIP3    H111709   4.763   3.612   2.921  0.1870 -0.3209  1.6952
 3901TIP3    H211710   4.892   3.670   2.977  0.7720 -1.1853  1.2628
 3902TIP3   OH211711   3.461   1.666   0.932  0.1342  1.0632 -0.1132
 3902TIP3    H111712   3.421   1.753   0.920 -1.1644  0.6932  1.2579
 3902TIP3    H211713   3.393   1.614   0.975  1.4497 -0.1841  0.5343
 3903TIP3   OH211714   1.948   1.789   3.995 -0.0965 -0.5470  0.3571
 3903TIP3    H111715   2.018   1.827   4.047 -1.0530  0.7634  0.7534
 3903TIP3    H211716   1.890   1.863   3.975  0.2318 -0.9868 -2.6290
 3904TIP3   OH211717   5.613   3.943   4.670  0.1006  0.6648 -0.2312
 3904TIP3    H111718   5.518   3.934   4.671  0.1472  0.1058 -0.2167
 3904TIP3    H211719   5.636   3.939   4.577  0.2340 -0.8025 -0.1631
 3905TIP3   OH211720   2.611   1.182   4.760  0.3852  0.2263 -0.4252
 3905TIP3    H111721   2.703   1.155   4.750 -0.1741 -2.6089  1.0901
 3905TIP3    H211722   2.565   1.136   4.690 -0.2258 -0.4650  0.4210
 3906TIP3   OH211723   4.341   1.541   2.529  0.4411 -0.0193  0.0349
 3906TIP3    H111724   4.281   1.584   2.591  1.6549  1.5848  0.1615
 3906TIP3    H211725   4.428   1.565   2.560  1.1599 -1.7307 -0.5629
 3907TIP3   OH211726   4.636   4.063   0.960 -0.9862  0.1452  0.2228
 3907TIP3    H111727   4.547   4.099   0.958 -0.9540  0.2774 -2.7709
 3907TIP3    H211728   4.627   3.981   1.008 -2.1096  1.4820  2.4406
 3908TIP3   OH211729   4.044   1.337   4.914 -0.4975  0.2735  0.6516
 3908TIP3    H111730   4.027   1.257   4.864  0.2941 -1.1080  2.4816
 3908TIP3    H211731   4.111   1.383   4.863  2.7189 -2.6596  1.8151
 3909TIP3   OH211732   2.242   0.311   3.912 -0.1766 -0.2074 -0.5100
 3909TIP3    H111733   2.176   0.290   3.846  0.7449 -0.5669 -1.3329
 3909TIP3    H211734   2.285   0.390   3.879 -0.6707  0.4678  0.3963
 3910TIP3   OH211735   4.465   5.622   3.278 -0.8403  0.4343  0.3712
 3910TIP3    H111736   4.379   5.626   3.235 -1.1239  0.7905  0.9530
 3910TIP3    H211737   4.508   5.704   3.253 -0.3857 -0.0422 -0.4726
 3911TIP3   OH211738   5.481   5.421   2.252 -0.9047 -0.5263  0.8259
 3911TIP3    H111739   5.563   5.376   2.273 -0.4264  0.4963  1.1909
 3911TIP3    H211740   5.507   5.509   2.225 -1.7871 -0.5859 -0.3592
 3912TIP3   OH211741   2.118   2.865   0.678  0.2337  0.2206  0.7220
 3912TIP3    H111742   2.192   2.909   0.722  1.2803 -1.5861  0.8610
 3912TIP3    H211743   2.090   2.797   0.740 -0.1345 -0.5112 -0.2244
 3913TIP3   OH211744   0.269   5.212   0.002 -0.3064 -0.8087  0.2751
 3913TIP3    H111745   0.231   5.265   0.072  0.8893  0.5125 -0.0332
 3913TIP3    H211746   0.359   5.198   0.029  0.1098 -0.4574 -0.8902
 3914TIP3   OH211747   4.164   3.961   3.531 -0.4640  0.2126 -0.0213
 3914TIP3    H111748   4.253   3.961   3.498 -0.0715  0.6796  1.0108
 3914TIP3    H211749   4.158   4.038   3.587 -1.2334 -0.3158  0.6635
 3915TIP3   OH211750   4.884   5.347   5.051  0.5992 -0.0247 -0.5016
 3915TIP3    H111751   4.966   5.331   5.098  0.8591 -0.6140 -1.1365
 3915TIP3    H211752   4.883   5.281   4.982 -0.9250 -0.7290  0.1424
 3916TIP3   OH211753   6.004   2.426   2.627 -0.2499 -0.3858 -0.0511
 3916TIP3    H111754   6.094   2.447   2.651  0.5271 -0.9983 -2.2489
 3916TIP3    H211755   5.959   2.511   2.631  0.8511  0.2568 -0.6356
 3917TIP3   OH211756   5.869   3.711   2.048  0.1398 -0.0691 -0.0580
 3917TIP3    H111757   5.911   3.675   1.970  0.7950 -0.7805  0.6210
 3917TIP3    H211758   5.935   3.706   2.117  0.0202  1.7776  0.2525
 3918TIP3   OH211759   5.284   4.484   1.299  0.3417  0.0027 -0.0073
 3918TIP3    H111760   5.331   4.422   1.244 -0.9440  0.1534 -1.3453
 3918TIP3    H211761   5.306   4.570   1.264 -1.3199  0.0529 -1.0582
 3919TIP3   OH211762   4.932   5.141   3.038 -0.2592 -0.0748 -0.2244
 3919TIP3    H111763   4.956   5.071   2.977 -0.7723 -0.2523 -0.2198
 3919TIP3    H211764   4.943   5.103   3.125 -0.4643 -0.1214 -0.2204
 3920TIP3   OH211765   3.498   1.418   4.178 -0.4958 -0.2261 -0.3422
 3920TIP3    H111766   3.546   1.430   4.261  0.4527  0.8659 -1.0118
 3920TIP3    H211767   3.419   1.470   4.189 -0.0091  0.5463 -0.3839
 3921TIP3   OH211768   1.177   2.961   2.183 -0.2437 -0.1194 -0.1357
 3921TIP3    H111769   1.153   2.953   2.275 -1.4213  1.2656 -0.2839
 3921TIP3    H211770   1.208   3.051   2.174  0.2393 -0.3604 -1.0198
 3922TIP3   OH211771   3.764   3.095   3.390 -0.2866  0.2992 -0.3311
 3922TIP3    H111772   3.803   3.182   3.390 -0.0891  0.2101  0.1833
 3922TIP3    H211773   3.682   3.105   3.341  0.1371  0.5900 -0.9953
 3923TIP3   OH211774   2.057   1.739   2.364  0.0268 -0.2166  0.2797
 3923TIP3    H111775   2.040   1.654   2.322  3.8027 -0.9335 -0.1142
 3923TIP3    H211776   2.036   1.724   2.456 -2.3333 -0.5265 -0.2369
 3924TIP3   OH211777   2.726   0.330   4.278  0.0521  0.7174  0.0879
 3924TIP3    H111778   2.802   0.361   4.229  0.4435  0.2334  0.3699
 3924TIP3    H211779   2.653   0.335   4.216  0.7954 -1.2846 -1.0653
 3925TIP3   OH211780   5.448   0.476   0.366 -0.2860  0.4149  0.4114
 3925TIP3    H111781   5.484   0.439   0.446 -0.4818  0.0292  0.3238
 3925TIP3    H211782   5.387   0.410   0.334 -0.5953  0.7854  0.2186
 3926TIP3   OH211783   5.426   5.349   3.401 -0.1773 -0.2105 -0.1941
 3926TIP3    H111784   5.460   5.353   3.312 -0.1670  1.9656 -0.1505
 3926TIP3    H211785   5.446   5.261   3.431  4.1721  0.3951 -0.6841
 3927TIP3   OH211786   4.416   2.880   2.826 -0.1963  0.0674  0.0100
 3927TIP3    H111787   4.357   2.804   2.829 -0.8893  0.6160  1.8368
 3927TIP3    H211788   4.370   2.944   2.771 -0.3679 -0.2453 -0.2146
 3928TIP3   OH211789   4.313   3.997   2.120  0.0690 -0.2470  0.1692
 3928TIP3    H111790   4.308   4.029   2.030  1.1366 -1.7279 -0.4595
 3928TIP3    H211791   4.235   4.033   2.162 -0.4728  0.4594 -1.3449
 3929TIP3   OH211792   1.468   1.948   2.910  0.0994 -0.1391  0.2703
 3929TIP3    H111793   1.426   1.914   2.831  2.1269 -1.1545 -0.4270
 3929TIP3    H211794   1.447   1.884   2.977 -1.1377  0.4243  0.4521
 3930TIP3   OH211795   5.472   3.674   2.566 -0.0913  0.5256  0.2180
 3930TIP3    H111796   5.379   3.650   2.573  0.5819 -2.4072  0.7742
 3930TIP3    H211797   5.487   3.687   2.473 -0.9091  0.2532  0.0378
 3931TIP3   OH211798   5.281   0.139   0.677 -0.1003  0.4925  0.6097
 3931TIP3    H111799   5.354   0.101   0.726  1.7010  0.7580 -1.6842
 3931TIP3    H211800   5.236   0.064   0.638  0.2495  0.4138  0.3475
 3932TIP3   OH211801   3.166   1.237   3.773 -0.9981 -0.6528 -0.6349
 3932TIP3    H111802   3.201   1.325   3.790  1.1827 -1.1189 -2.2427
 3932TIP3    H211803   3.072   1.251   3.762 -0.9510  1.2023  0.7266
 3933TIP3   OH211804   6.195   2.935   3.063  0.0557  0.3408  0.3155
 3933TIP3    H111805   6.242   2.872   3.008  0.5631  1.9646 -1.2102
 3933TIP3    H211806   6.241   3.018   3.049 -0.9279  1.1790  1.8212
 3934TIP3   OH211807   2.398   2.959   3.448  0.4485 -0.6424  0.3823
 3934TIP3    H111808   2.334   2.892   3.425  1.2679 -0.8995 -1.3256
 3934TIP3    H211809   2.474   2.908   3.478  0.7581 -0.4464 -0.0701
 3935TIP3   OH211810   3.836   2.998   0.462  1.0398 -0.2363  0.1555
 3935TIP3    H111811   3.897   2.949   0.407  2.2063 -0.8777  1.9216
 3935TIP3    H211812   3.752   2.991   0.417  2.0259 -0.3233 -1.7522
 3936TIP3   OH211813   4.441   0.676   1.673 -0.3031 -0.6401  0.7038
 3936TIP3    H111814   4.349   0.662   1.697 -0.1748  0.0943  1.7008
 3936TIP3    H211815   4.456   0.769   1.692  0.1660 -0.3020 -1.1162
 3937TIP3   OH211816   4.240   4.566   1.905 -0.3418  0.0289  0.0094
 3937TIP3    H111817   4.225   4.492   1.847 -1.5767  0.4757 -0.2608
 3937TIP3    H211818   4.261   4.639   1.847 -2.7897  0.7837 -0.0236
 3938TIP3   OH211819   0.583   1.702   4.922 -0.3699  0.0851  0.4146
 3938TIP3    H111820   0.549   1.735   4.839 -0.8789 -1.7569 -0.1397
 3938TIP3    H211821   0.672   1.737   4.927 -0.3804  0.3271 -0.8371
 3939TIP3   OH211822   5.840   0.223   2.017 -0.6951  0.4429 -0.0376
 3939TIP3    H111823   5.907   0.288   2.036 -0.5745 -0.0655  1.3926
 3939TIP3    H211824   5.766   0.249   2.072 -0.8755 -0.2664  0.0555
 3940TIP3   OH211825   1.548   1.789   0.602  0.5054  0.2413  0.0598
 3940TIP3    H111826   1.483   1.843   0.558 -0.5531 -1.5963 -0.7614
 3940TIP3    H211827   1.498   1.717   0.640  2.0519 -1.5419 -1.0633
 3941TIP3   OH211828   2.275   5.851   0.494 -0.1804  0.7169 -0.0631
 3941TIP3    H111829   2.213   5.792   0.536  1.2455 -0.4713  0.4753
 3941TIP3    H211830   2.262   5.838   0.400  0.8949 -1.3850  0.0293
 3942TIP3   OH211831   3.580   5.676   0.098  0.2543  0.1697 -0.4160
 3942TIP3    H111832   3.568   5.689   0.004 -0.9330 -2.3291 -0.7001
 3942TIP3    H211833   3.492   5.667   0.132  0.6801 -2.9172  0.1860
 3943TIP3   OH211834   3.500   5.667   2.537  0.0931  0.2289 -0.0467
 3943TIP3    H111835   3.481   5.608   2.464 -0.5801 -0.9501  1.0441
 3943TIP3    H211836   3.582   5.634   2.574 -0.3010 -0.0624  0.5860
 3944TIP3   OH211837   2.514   5.742   1.130  0.0066  0.3756 -0.7906
 3944TIP3    H111838   2.476   5.753   1.218 -0.9033 -0.5481 -1.0514
 3944TIP3    H211839   2.522   5.831   1.096  0.3981  0.7459  0.2355
 3945TIP3   OH211840   0.839   5.799   3.569  0.2131 -0.5453  0.3730
 3945TIP3    H111841   0.792   5.730   3.521  0.0945  0.6666 -1.3434
 3945TIP3    H211842   0.796   5.802   3.655 -0.4976 -1.8598  0.0899
 3946TIP3   OH211843   2.287   0.571   3.787  0.1513  0.0161  0.2020
 3946TIP3    H111844   2.211   0.551   3.732  0.4521 -2.1560  0.5147
 3946TIP3    H211845   2.325   0.650   3.747 -1.1606  0.0317 -1.0913
 3947TIP3   OH211846   0.845   2.494   3.670 -0.3619  0.3648  0.5045
 3947TIP3    H111847   0.768   2.505   3.615 -0.9096  0.5530  1.2813
 3947TIP3    H211848   0.916   2.473   3.609 -1.0152  0.2300 -0.2269
 3948TIP3   OH211849   1.462   2.103   3.914  0.2824 -0.0194  0.1653
 3948TIP3    H111850   1.386   2.154   3.940  0.0290  0.3658 -1.2145
 3948TIP3    H211851   1.427   2.033   3.858  0.8090 -0.6403  0.5893
 3949TIP3   OH211852   4.150   2.936   4.894  0.0798  0.1125  0.1805
 3949TIP3    H111853   4.159   2.885   4.813 -0.7413  1.0656 -0.5473
 3949TIP3    H211854   4.237   2.971   4.911  0.0421  0.8141 -0.9445
 3950TIP3   OH211855   3.899   3.308   1.672  0.4440 -0.1269 -0.4499
 3950TIP3    H111856   3.859   3.223   1.653  2.5346 -1.1306 -0.6317
 3950TIP3    H211857   3.926   3.341   1.587 -0.9741  1.1032 -0.4648
 3951TIP3   OH211858   4.110   5.449   3.359 -0.4402 -0.3074 -0.0853
 3951TIP3    H111859   4.190   5.404   3.385  0.9677  2.1797  0.2047
 3951TIP3    H211860   4.095   5.421   3.268  0.6704 -0.9183 -0.0972
 3952TIP3   OH211861   5.702   4.137   5.164 -0.2698  0.3441  0.6699
 3952TIP3    H111862   5.685   4.078   5.091  2.1278 -0.3924  0.6064
 3952TIP3    H211863   5.655   4.217   5.142 -1.0506 -0.4717 -0.7786
 3953TIP3   OH211864   4.073   1.967   3.225  0.2023 -0.2017 -0.1751
 3953TIP3    H111865   4.064   1.922   3.309 -0.6947  1.6209  0.7612
 3953TIP3    H211866   3.986   1.963   3.186 -0.2887  1.7982  0.5612
 3954TIP3   OH211867   6.343   5.553   0.131 -0.2650 -0.1714 -0.2570
 3954TIP3    H111868   6.287   5.588   0.062 -0.1539  2.3713  0.8156
 3954TIP3    H211869   6.284   5.530   0.202 -0.1698 -0.2335 -0.1968
 3955TIP3   OH211870   4.687   4.759   1.363 -0.2078  0.0593  0.2682
 3955TIP3    H111871   4.597   4.755   1.330  0.5608 -1.3118 -1.8584
 3955TIP3    H211872   4.738   4.790   1.288  1.2304 -0.1283  1.1424
 3956TIP3   OH211873   3.091   5.689   1.490  0.7160 -0.0167 -0.4601
 3956TIP3    H111874   2.999   5.708   1.477  0.2581 -0.6413  1.5855
 3956TIP3    H211875   3.095   5.594   1.501  1.4193  0.1171  0.6297
 3957TIP3   OH211876   2.562   0.045   3.333 -0.1001  0.9672  0.1306
 3957TIP3    H111877   2.555   0.131   3.373  0.5143  0.8074  0.5980
 3957TIP3    H211878   2.597  -0.011   3.402  0.1390  0.4976 -0.3624
 3958TIP3   OH211879   4.740   1.451   2.416  0.1392 -0.1300  0.3801
 3958TIP3    H111880   4.693   1.502   2.482 -0.2563 -1.6764  1.3471
 3958TIP3    H211881   4.679   1.446   2.342  1.0415  2.6169 -0.6588
 3959TIP3   OH211882   2.260   3.464   2.265 -0.4835 -0.5973  0.2089
 3959TIP3    H111883   2.254   3.518   2.344  1.6108 -0.6303  0.4672
 3959TIP3    H211884   2.272   3.526   2.194  0.0593 -0.6270  0.2646
 3960TIP3   OH211885   0.246   1.156   0.589 -0.1525 -0.1068 -0.0965
 3960TIP3    H111886   0.251   1.235   0.642  0.7606  1.5366 -2.4480
 3960TIP3    H211887   0.166   1.166   0.538  1.2522  0.6733 -2.2877
 3961TIP3   OH211888   3.049   0.642   4.650 -0.1277  0.3450  0.3126
 3961TIP3    H111889   2.978   0.619   4.590  0.2866  2.2300 -0.9601
 3961TIP3    H211890   3.005   0.652   4.735 -1.1980  0.3040 -0.2134
 3962TIP3   OH211891   1.232   1.865   0.511  0.3817  0.4302  0.1061
 3962TIP3    H111892   1.138   1.862   0.495  0.3020 -1.9312  0.6545
 3962TIP3    H211893   1.252   1.781   0.553  2.6804  1.0147  0.3135
 3963TIP3   OH211894   3.130   4.913   3.253 -0.2381  0.2070 -0.8175
 3963TIP3    H111895   3.089   4.986   3.207 -1.3056 -1.5859 -2.9298
 3963TIP3    H211896   3.223   4.935   3.256 -0.5092  1.5619 -1.5605
 3964TIP3   OH211897   2.698   2.476   2.152 -0.0718  1.0101 -0.5393
 3964TIP3    H111898   2.690   2.511   2.241 -0.8968 -1.8580  0.6017
 3964TIP3    H211899   2.783   2.434   2.150 -1.6214 -2.5173  0.3990
 3965TIP3   OH211900   5.804   0.608   2.653  0.2245  0.2711 -0.1477
 3965TIP3    H111901   5.824   0.528   2.604 -2.6539 -0.5791 -0.0746
 3965TIP3    H211902   5.871   0.609   2.723  1.1655 -1.3138 -0.9500
 3966TIP3   OH211903   1.391   5.795   2.582 -0.7298 -0.2730 -0.1518
 3966TIP3    H111904   1.376   5.700   2.578 -1.1446 -0.2925  1.1254
 3966TIP3    H211905   1.473   5.809   2.536 -0.9793 -1.1742 -0.8941
 3967TIP3   OH211906   2.147   1.926   2.026  0.2800  0.1584 -0.3628
 3967TIP3    H111907   2.052   1.935   2.028  0.2334  0.4519  2.9807
 3967TIP3    H211908   2.181   2.012   2.049  1.3630 -0.0370 -1.1202
 3968TIP3   OH211909   0.628   0.866   0.978 -0.2329  0.3976 -0.2255
 3968TIP3    H111910   0.551   0.904   1.020  0.2722  0.4286  0.7041
 3968TIP3    H211911   0.679   0.829   1.050  0.5940  0.3366 -0.8254
 3969TIP3   OH211912   0.533   1.549   0.143 -0.1846 -0.4591  0.0568
 3969TIP3    H111913   0.596   1.620   0.152  0.0644 -0.8358  1.7180
 3969TIP3    H211914   0.584   1.474   0.113 -0.5100  0.0995 -2.0548
 3970TIP3   OH211915   4.434   3.517   3.125 -0.0238  0.1473  0.4843
 3970TIP3    H111916   4.389   3.601   3.133 -0.2103  0.0615  0.3316
 3970TIP3    H211917   4.442   3.485   3.216  0.9211  0.7841  0.6371
 3971TIP3   OH211918   1.759   2.002   0.243 -0.0801 -0.1141  0.3381
 3971TIP3    H111919   1.805   2.025   0.162  1.8073  0.6906  1.5659
 3971TIP3    H211920   1.672   1.975   0.214  0.1095  1.3423 -1.8455
 3972TIP3   OH211921   1.005   3.359   0.885 -0.5871 -0.4059  0.0962
 3972TIP3    H111922   0.933   3.379   0.945 -0.1850 -1.2190  0.8653
 3972TIP3    H211923   1.048   3.284   0.924  1.0076  0.3884 -0.0717
 3973TIP3   OH211924   4.594   3.853   3.623  0.3257  0.2141 -0.0160
 3973TIP3    H111925   4.687   3.837   3.639  0.6857  0.2447 -1.8502
 3973TIP3    H211926   4.591   3.893   3.536 -1.3874  0.4268  0.1046
 3974TIP3   OH211927   1.586   1.716   2.158 -0.0758  0.5416 -0.2681
 3974TIP3    H111928   1.505   1.674   2.128 -0.1798  2.0483 -2.2780
 3974TIP3    H211929   1.655   1.670   2.112 -0.0996  1.6664 -1.4810
 3975TIP3   OH211930   0.711   5.495   3.994  0.5164 -0.4372  0.5515
 3975TIP3    H111931   0.625   5.459   4.014 -0.8056  2.3350  0.2101
 3975TIP3    H211932   0.718   5.573   4.049  2.1256  0.3054 -0.6433
 3976TIP3   OH211933   0.421   0.042   4.939  0.3100  0.7803  0.5092
 3976TIP3    H111934   0.369  -0.001   5.007  0.9218 -1.3488 -0.3172
 3976TIP3    H211935   0.487   0.092   4.987 -0.7686  1.3032  1.4973
 3977TIP3   OH211936   1.622   0.275   2.117 -0.1030 -0.3640 -0.2390
 3977TIP3    H111937   1.685   0.343   2.140  1.0616 -1.2171 -0.7917
 3977TIP3    H211938   1.654   0.239   2.034 -2.2318  0.2610 -1.4141
 3978TIP3   OH211939   5.576   1.282   0.948 -0.2176  0.0590 -0.1988
 3978TIP3    H111940   5.492   1.327   0.958  0.7802  1.9197  0.2393
 3978TIP3    H211941   5.604   1.264   1.038 -0.2505 -0.8163 -0.3510
 3979TIP3   OH211942   0.289   2.967   0.811  0.1563  0.2970 -0.3641
 3979TIP3    H111943   0.305   2.932   0.898 -0.9597  0.5016 -0.0602
 3979TIP3    H211944   0.373   3.006   0.785  0.2358  1.1709  1.0616
 3980TIP3   OH211945   3.769   4.148   3.429 -0.3086 -0.1366 -0.3933
 3980TIP3    H111946   3.777   4.114   3.340 -0.3047  0.4824 -0.6386
 3980TIP3    H211947   3.751   4.242   3.417  0.9777  0.2151  0.2717
 3981TIP3   OH211948   0.627   3.845   1.669 -0.4973 -0.4081  0.0361
 3981TIP3    H111949   0.690   3.780   1.636 -1.9158 -2.7757  1.6637
 3981TIP3    H211950   0.668   3.880   1.747  0.0807  0.3845 -0.6026
 3982TIP3   OH211951   5.683   5.304   4.375  0.2258  0.0702 -0.0049
 3982TIP3    H111952   5.732   5.222   4.375 -1.3225 -0.8823  0.4159
 3982TIP3    H211953   5.742   5.367   4.417  0.6613 -1.3173  1.5832
 3983TIP3   OH211954   0.901   1.908   2.861  0.2858  0.2723  0.0126
 3983TIP3    H111955   0.808   1.891   2.850  0.1983  0.0624  0.9684
 3983TIP3    H211956   0.905   1.991   2.908  0.5073 -0.5325  1.4860
 3984TIP3   OH211957   5.228   4.859   5.006  0.5894 -0.3363  0.7199
 3984TIP3    H111958   5.250   4.797   5.075  1.9916  0.0130  0.6336
 3984TIP3    H211959   5.312   4.877   4.963 -0.1079  0.1427 -0.4886
 3985TIP3   OH211960   6.248   5.449   3.561 -0.0072  0.1479  0.0527
 3985TIP3    H111961   6.245   5.367   3.511  1.4899 -0.0928  0.3238
 3985TIP3    H211962   6.300   5.428   3.638 -1.1359  0.8958  1.0464
 3986TIP3   OH211963   1.879   5.851   1.376  0.1862  0.3385  0.6789
 3986TIP3    H111964   1.882   5.945   1.359  0.4855  0.4122  1.1162
 3986TIP3    H211965   1.818   5.841   1.449  0.1402  0.1912  0.6211
 3987TIP3   OH211966   2.666   2.563   4.032 -0.7005 -0.4406  0.3027
 3987TIP3    H111967   2.703   2.550   4.120 -0.1630  1.2854  0.3704
 3987TIP3    H211968   2.595   2.627   4.045  0.4956  1.1855 -0.7015
 3988TIP3   OH211969   2.425   4.480   5.142  0.1723  0.3649  0.0482
 3988TIP3    H111970   2.455   4.526   5.063  1.9003  0.6729  0.8224
 3988TIP3    H211971   2.503   4.477   5.198 -0.0833 -2.7187  0.4291
 3989TIP3   OH211972   3.199   5.287   0.341 -0.0160  0.1024 -0.9631
 3989TIP3    H111973   3.110   5.310   0.315 -0.7177 -1.0275  0.3257
 3989TIP3    H211974   3.207   5.319   0.431  0.8202  0.0367 -1.0053
 3990TIP3   OH211975   2.856   2.352   1.026 -0.2709  0.0035 -0.8503
 3990TIP3    H111976   2.833   2.261   1.047 -1.1420  0.3161 -0.3817
 3990TIP3    H211977   2.950   2.349   1.008 -0.5656 -1.2779 -2.4848
 3991TIP3   OH211978   1.207   1.527   0.874  0.2377  0.3165  0.0734
 3991TIP3    H111979   1.191   1.582   0.951  1.6631  1.8091 -0.6072
 3991TIP3    H211980   1.253   1.450   0.908 -1.3722 -0.2674  0.9972
 3992TIP3   OH211981   0.513   2.997   1.085 -0.3684  0.4869  0.3435
 3992TIP3    H111982   0.433   2.945   1.091  0.4525 -0.6837  1.5862
 3992TIP3    H211983   0.554   2.969   1.004  0.2484 -1.1298  1.1738
 3993TIP3   OH211984   3.993   5.309   0.219  0.1934  0.4991 -0.0056
 3993TIP3    H111985   4.078   5.286   0.182 -0.9095 -1.8822 -1.2847
 3993TIP3    H211986   3.995   5.275   0.309 -0.1706 -1.7531 -0.7823
 3994TIP3   OH211987   0.950   5.684   2.762  0.0849  0.0758 -0.4317
 3994TIP3    H111988   0.927   5.699   2.854  2.8147 -1.7338  0.7079
 3994TIP3    H211989   0.869   5.656   2.721 -1.1091  0.3727  1.5832
 3995TIP3   OH211990   0.671   5.309   0.968  0.2423 -0.0628 -0.3571
 3995TIP3    H111991   0.681   5.214   0.968  1.8185  0.0907  0.1019
 3995TIP3    H211992   0.759   5.343   0.956  0.1094  1.3796  2.1964
 3996TIP3   OH211993   1.304   1.472   2.279  0.3257 -0.2433  0.4156
 3996TIP3    H111994   1.311   1.385   2.240  0.2942 -0.2792  0.4901
 3996TIP3    H211995   1.339   1.462   2.367  1.1221  0.0178  0.1383
 3997TIP3   OH211996   1.913   3.202   0.862  0.3636  0.9370  0.0041
 3997TIP3    H111997   1.834   3.176   0.814  0.3009 -0.3236  0.7564
 3997TIP3    H211998   1.889   3.193   0.954  1.8505 -1.0449  0.2472
 3998TIP3   OH211999   0.735   3.895   3.270 -0.4315  0.1651 -0.0160
 3998TIP3    H112000   0.721   3.863   3.359  1.6604 -0.4071  0.1564
 3998TIP3    H212001   0.802   3.837   3.233 -0.3614  1.1446 -1.5484
 3999TIP3   OH212002   5.485   2.165   0.609  0.0100 -0.0184 -0.2569
 3999TIP3    H112003   5.442   2.247   0.630 -1.6511 -0.8426 -0.3168
 3999TIP3    H212004   5.540   2.146   0.685  0.0590  0.8921 -0.0539
 4000TIP3   OH212005   4.199   1.919   4.072  0.6479 -0.0526 -0.7793
 4000TIP3    H112006   4.266   1.881   4.128  0.1613 -1.7649 -1.3018
 4000TIP3    H212007   4.248   1.964   4.003  1.2585 -0.4688 -0.6197
 4001TIP3   OH212008   2.350   5.514   1.031  0.1124 -0.2982 -0.0608
 4001TIP3    H112009   2.401   5.592   1.053 -0.7129  0.8065 -1.7826
 4001TIP3    H212010   2.272   5.519   1.086  0.6843 -0.6691  0.8062
 4002TIP3   OH212011   1.794   3.942   3.961  0.0068 -0.1608  0.3119
 4002TIP3    H112012   1.772   4.026   3.920 -1.4519 -0.5027  0.3340
 4002TIP3    H212013   1.781   3.958   4.055  0.1302 -0.2987  0.3523
 4003TIP3   OH212014   3.040   1.449   1.848  0.4844  0.3053  0.5570
 4003TIP3    H112015   2.983   1.484   1.916  2.4667  1.3743  1.7624
 4003TIP3    H212016   2.991   1.376   1.810 -1.4896  0.9529  1.7564
 4004TIP3   OH212017   2.763   1.484   3.835 -0.0382 -0.3635  0.1994
 4004TIP3    H112018   2.807   1.542   3.897  0.9364 -0.6427 -0.2229
 4004TIP3    H212019   2.670   1.503   3.847  0.2425  0.9878  0.3670
 4005TIP3   OH212020   1.586   1.379   0.243 -0.2894  0.0336  0.2791
 4005TIP3    H112021   1.649   1.389   0.171 -0.6307 -1.3310 -0.2272
 4005TIP3    H212022   1.584   1.465   0.285  0.0760  0.8095 -1.2228
 4006TIP3   OH212023   0.377   4.752   2.130  0.2086 -0.0182  0.2021
 4006TIP3    H112024   0.318   4.809   2.180 -0.2082 -1.0762  0.9466
 4006TIP3    H212025   0.319   4.706   2.069 -0.0338 -2.2571  2.0274
 4007TIP3   OH212026   2.776   3.312   3.927  0.3970 -0.2221  0.1648
 4007TIP3    H112027   2.690   3.315   3.970 -0.3921  1.4958 -1.3855
 4007TIP3    H212028   2.756   3.318   3.834  2.1503 -1.7454 -0.3580
 4008TIP3   OH212029   3.927   4.799   2.594  0.6230 -0.5081 -0.2352
 4008TIP3    H112030   3.913   4.784   2.687 -0.2005 -1.0095 -0.4373
 4008TIP3    H212031   3.858   4.750   2.550  0.3300  0.5929 -1.0708
 4009TIP3   OH212032   0.150   4.474   3.602  0.3963 -0.5495 -0.1964
 4009TIP3    H112033   0.169   4.559   3.643  0.9494 -0.5930 -0.3536
 4009TIP3    H212034   0.141   4.494   3.509  2.2148 -0.9035 -0.4732
 4010TIP3   OH212035   1.396   0.351   3.314 -0.3665  0.1716 -0.1272
 4010TIP3    H112036   1.387   0.326   3.221  1.0716 -0.1938 -0.1942
 4010TIP3    H212037   1.306   0.358   3.345 -0.8892 -1.6555 -1.0534
 4011TIP3   OH212038   0.537   4.758   3.675 -0.3594 -0.2196 -0.0559
 4011TIP3    H112039   0.569   4.683   3.726 -0.9799 -0.7738 -0.4576
 4011TIP3    H212040   0.602   4.826   3.688 -0.2581 -0.5221  1.0777
 4012TIP3   OH212041   3.946   2.054   0.757  0.1417 -0.3931  0.0706
 4012TIP3    H112042   3.882   2.055   0.828 -0.1473  0.2929 -0.1804
 4012TIP3    H212043   3.914   1.986   0.697  1.1037 -1.8791  1.2058
 4013TIP3   OH212044   1.580   1.619   3.299  0.2523  0.0386 -0.4542
 4013TIP3    H112045   1.656   1.667   3.333 -0.2998  1.1484 -0.7808
 4013TIP3    H212046   1.563   1.552   3.366  0.5321  0.7974  0.3942
 4014TIP3   OH212047   2.271   2.805   2.615 -0.2872  0.0522 -0.1358
 4014TIP3    H112048   2.184   2.776   2.640 -0.2537  0.4074  0.4192
 4014TIP3    H212049   2.258   2.890   2.574 -0.3773 -0.6763 -1.6919
 4015TIP3   OH212050   0.927   2.514   3.357  0.1040  0.2228 -0.1846
 4015TIP3    H112051   0.879   2.588   3.320  0.4824  0.6638  0.1873
 4015TIP3    H212052   1.007   2.509   3.305 -0.4062 -0.6221 -0.9175
 4016TIP3   OH212053   0.780   5.181   0.584  0.8705 -1.0535  0.6310
 4016TIP3    H112054   0.808   5.240   0.654  0.9377 -0.0465 -0.2175
 4016TIP3    H212055   0.852   5.182   0.521  0.2159 -0.8148 -0.1312
 4017TIP3   OH212056   4.284   3.357   1.726  0.3349 -0.0582 -0.3865
 4017TIP3    H112057   4.343   3.388   1.795 -1.2307 -1.5156  1.7605
 4017TIP3    H212058   4.241   3.436   1.693  0.2217  0.6006  1.2399
 4018TIP3   OH212059   2.021   1.377   0.900  0.0025  0.3025  0.0057
 4018TIP3    H112060   1.941   1.369   0.952  0.5341  1.1696  0.9907
 4018TIP3    H212061   2.039   1.470   0.897  1.2072  0.0894  0.1664
 4019TIP3   OH212062   3.605   0.035   0.187  0.6211 -0.1846  0.6673
 4019TIP3    H112063   3.667   0.002   0.121  0.3826 -1.4159  1.0247
 4019TIP3    H212064   3.520   0.033   0.142  0.4213 -1.2558  1.0672
 4020TIP3   OH212065   3.079   5.218   3.345 -0.3482 -0.2310 -0.0051
 4020TIP3    H112066   3.106   5.254   3.260 -0.9292 -0.7956 -0.4440
 4020TIP3    H212067   3.160   5.210   3.395  0.0069  0.0715 -0.5193
 4021TIP3   OH212068   5.115   2.526   1.462  0.3278 -0.2750 -0.2439
 4021TIP3    H112069   5.034   2.540   1.415 -0.8748  0.9233  2.0050
 4021TIP3    H212070   5.180   2.576   1.413 -0.5269 -0.2403 -1.3835
 4022TIP3   OH212071   4.399   5.834   1.084  0.0738 -0.2025 -0.2607
 4022TIP3    H112072   4.422   5.908   1.140 -0.2717  0.0321 -0.4205
 4022TIP3    H212073   4.407   5.869   0.995 -0.2515 -0.3064 -0.3312
 4023TIP3   OH212074   2.614   4.013   4.561  0.4100  0.3783  0.1200
 4023TIP3    H112075   2.609   4.089   4.503 -1.2228  0.0608 -0.2014
 4023TIP3    H212076   2.526   4.004   4.597  0.2231 -2.0227 -0.7346
 4024TIP3   OH212077   2.854   4.085   4.814  0.6568  0.8786  0.4047
 4024TIP3    H112078   2.903   4.157   4.774  0.2470  0.7648 -0.3229
 4024TIP3    H212079   2.776   4.077   4.759  0.2172  0.5351  1.0818
 4025TIP3   OH212080   5.084   5.935   1.396  0.1243 -0.3825  0.0260
 4025TIP3    H112081   5.075   5.873   1.324  0.2578  0.7716 -1.0281
 4025TIP3    H212082   5.176   5.929   1.421  0.0577 -0.8563  0.1665
 4026TIP3   OH212083   3.951   5.129   3.642  0.3407  0.5367  0.4733
 4026TIP3    H112084   3.933   5.210   3.594  0.4977  0.4511  0.2664
 4026TIP3    H212085   3.945   5.060   3.576 -2.8323 -0.0199  1.1827
 4027TIP3   OH212086   5.409   4.783   1.484 -0.3353  0.0922  0.8689
 4027TIP3    H112087   5.367   4.799   1.400 -0.9200  0.2301  1.1804
 4027TIP3    H212088   5.479   4.848   1.490  0.4768 -0.6777 -0.0203
 4028TIP3   OH212089   1.403   1.763   3.122  0.4697 -0.4995  0.4034
 4028TIP3    H112090   1.454   1.686   3.148 -0.6798 -0.8621  1.7197
 4028TIP3    H212091   1.402   1.819   3.200 -0.6789 -0.2643  0.2396
 4029TIP3   OH212092   4.799   2.467   3.873  0.3396 -0.3345 -0.2098
 4029TIP3    H112093   4.740   2.525   3.825  0.9404 -1.2972 -2.2114
 4029TIP3    H212094   4.812   2.392   3.816  0.9458 -1.6744  1.5851
 4030TIP3   OH212095   0.379   4.260   4.850 -0.4486  1.1518 -0.5491
 4030TIP3    H112096   0.287   4.235   4.851 -0.1429 -0.0718  0.5337
 4030TIP3    H212097   0.410   4.239   4.938  1.4709 -0.9010 -1.6197
 4031TIP3   OH212098   3.759   0.187   1.439 -0.5895 -0.3920 -0.3312
 4031TIP3    H112099   3.784   0.176   1.531 -1.9503  1.4565  0.3049
 4031TIP3    H212100   3.842   0.199   1.393  0.0362 -0.1976  0.8171
 4032TIP3   OH212101   1.313   2.558   3.943 -0.1313  0.3201 -0.2771
 4032TIP3    H112102   1.230   2.587   3.981  0.0289 -0.1707  0.4658
 4032TIP3    H212103   1.349   2.496   4.007  1.1210  1.0048 -0.2673
 4033TIP3   OH212104   4.448   1.066   3.286 -0.0803  0.0657 -0.3207
 4033TIP3    H112105   4.431   1.159   3.303 -2.1734  0.4625 -3.6010
 4033TIP3    H212106   4.533   1.065   3.242  0.9556  0.0850  1.5718
 4034TIP3   OH212107   0.731   5.448   3.375 -0.2454 -0.0819  0.6417
 4034TIP3    H112108   0.664   5.480   3.435 -0.1364 -0.3698  0.9180
 4034TIP3    H212109   0.809   5.436   3.429 -0.3166 -0.9181  0.5637
 4035TIP3   OH212110   5.048   5.300   3.612  0.0752  0.3625 -0.3312
 4035TIP3    H112111   5.072   5.390   3.588  1.6222 -0.1994 -1.0282
 4035TIP3    H212112   5.035   5.256   3.528  2.3399 -0.8040 -0.1468
 4036TIP3   OH212113   1.031   2.318   1.163  0.9445 -0.6095  0.1487
 4036TIP3    H112114   1.041   2.228   1.195 -1.5668 -0.4322  1.7662
 4036TIP3    H212115   1.090   2.369   1.218  2.9667 -1.2878 -1.2883
 4037TIP3   OH212116   3.948   5.673   5.189 -0.3676  0.0876 -0.5981
 4037TIP3    H112117   4.009   5.677   5.116  3.2103 -0.2132  2.0672
 4037TIP3    H212118   3.958   5.757   5.234 -1.5921 -0.1609  0.2046
 4038TIP3   OH212119   1.652   3.102   2.100 -0.0279  0.4513 -0.6206
 4038TIP3    H112120   1.614   3.122   2.015  1.0819 -1.1494 -1.5619
 4038TIP3    H212121   1.746   3.117   2.088  0.1624  0.0728  0.2882
 4039TIP3   OH212122   6.241   3.626   3.633  0.0146 -0.6393 -0.0308
 4039TIP3    H112123   6.151   3.618   3.601  0.2448 -0.3068 -0.8032
 4039TIP3    H212124   6.271   3.710   3.597  1.1384 -1.4534 -1.0913
 4040TIP3   OH212125   6.033   1.661   0.073 -0.0114 -0.3916  0.0634
 4040TIP3    H112126   6.089   1.631   0.002 -1.4616  0.1192 -1.3297
 4040TIP3    H212127   6.040   1.592   0.140  1.7242 -0.6533 -0.3481
 4041TIP3   OH212128   1.559   3.249   3.101  0.4681 -0.0258  0.0454
 4041TIP3    H112129   1.566   3.164   3.147  0.5775 -0.2077 -0.3042
 4041TIP3    H212130   1.542   3.225   3.010  0.0377  0.3415  0.0284
 4042TIP3   OH212131   4.649   2.587   0.922  0.2439 -0.4404  0.0556
 4042TIP3    H112132   4.620   2.592   1.013  0.6539  0.2781  0.1619
 4042TIP3    H212133   4.664   2.494   0.906  1.0190 -0.5031  1.0126
 4043TIP3   OH212134   5.915   0.652   0.768  0.0668 -0.4188  0.3214
 4043TIP3    H112135   5.958   0.736   0.783 -1.2795  0.2096  0.7608
 4043TIP3    H212136   5.867   0.635   0.848 -0.5362 -1.0837 -0.1710
 4044TIP3   OH212137   5.703   1.334   4.907 -0.1802 -0.2071  0.0358
 4044TIP3    H112138   5.718   1.241   4.893  0.8010 -0.1700  0.7336
 4044TIP3    H212139   5.639   1.338   4.978  0.1371 -0.3481  0.3313
 4045TIP3   OH212140   3.802   1.902   4.480  0.3196  0.5277  0.0268
 4045TIP3    H112141   3.772   1.843   4.550 -0.1663  0.5507 -0.1577
 4045TIP3    H212142   3.897   1.892   4.479  0.2877  0.1750  0.3811
 4046TIP3   OH212143   4.749   3.755   0.259  0.0134  0.2010  0.1073
 4046TIP3    H112144   4.730   3.799   0.176 -3.8993  1.1928  1.2895
 4046TIP3    H212145   4.761   3.827   0.321 -0.6669 -0.4245  0.9903
 4047TIP3   OH212146   2.121   2.782   1.650  0.1853 -0.4675 -0.0809
 4047TIP3    H112147   2.176   2.823   1.716 -1.0664 -2.4010  2.2893
 4047TIP3    H212148   2.035   2.822   1.662  0.2727  0.2843 -1.6604
 4048TIP3   OH212149   1.354   4.904   4.315  0.1203 -0.4301 -0.0052
 4048TIP3    H112150   1.333   4.812   4.296 -1.8735  0.0882 -0.5103
 4048TIP3    H212151   1.357   4.946   4.229 -0.0076  0.1863  0.2920
 4049TIP3   OH212152   2.699   2.391   1.759 -0.2897 -0.7422  0.7218
 4049TIP3    H112153   2.786   2.420   1.788 -0.4102 -0.4544  0.8020
 4049TIP3    H212154   2.701   2.296   1.767  0.9217 -1.0128 -1.7002
 4050TIP3   OH212155   5.761   1.978   5.189 -0.4792  0.4496  0.5189
 4050TIP3    H112156   5.774   1.928   5.109  1.0354 -1.0329  1.6082
 4050TIP3    H212157   5.805   2.062   5.173 -0.3634  0.2447 -0.2480
 4051TIP3   OH212158   0.437   5.027   3.947 -0.5082  0.4475 -0.4448
 4051TIP3    H112159   0.347   5.045   3.975 -0.6050  0.0813 -0.5090
 4051TIP3    H212160   0.458   4.942   3.987 -0.0182  0.7590 -0.0339
 4052TIP3   OH212161   3.309   3.014   3.437 -0.1750 -0.5010 -0.2997
 4052TIP3    H112162   3.318   3.105   3.468 -1.4730 -0.9750  1.7142
 4052TIP3    H212163   3.397   2.988   3.412  0.3038  1.1735 -0.4674
 4053TIP3   OH212164   0.388   1.265   4.462 -0.5720 -0.0227  0.1372
 4053TIP3    H112165   0.381   1.286   4.555 -3.0867 -1.1603  0.2813
 4053TIP3    H212166   0.381   1.349   4.417 -0.4239  0.4195  0.9374
 4054TIP3   OH212167   2.490   3.147   2.270 -0.7350 -0.4915  0.2470
 4054TIP3    H112168   2.505   3.062   2.312  2.0411  0.5442  1.5849
 4054TIP3    H212169   2.473   3.207   2.342  1.9345  0.9053 -0.1309
 4055TIP3   OH212170   5.722   4.500   4.963  0.0417 -0.4066  0.0349
 4055TIP3    H112171   5.691   4.439   5.030 -1.4050  1.1122  0.8297
 4055TIP3    H212172   5.721   4.585   5.006 -1.2182  0.6726 -1.9892
 4056TIP3   OH212173   5.028   5.335   4.540 -0.2215  0.2089  0.4245
 4056TIP3    H112174   5.079   5.254   4.544 -0.8590 -0.3371 -1.3918
 4056TIP3    H212175   5.091   5.400   4.508  0.2219  0.3810  1.6185
 4057TIP3   OH212176   4.876   1.450   4.081  0.1150 -0.0982  0.5260
 4057TIP3    H112177   4.838   1.362   4.086  1.0396 -0.5953 -0.7453
 4057TIP3    H212178   4.912   1.466   4.168 -0.2196 -0.9011  0.8175
 4058TIP3   OH212179   3.640   1.226   2.240 -0.1356 -0.5289  0.2053
 4058TIP3    H112180   3.554   1.196   2.271  0.2786 -1.2316  0.7081
 4058TIP3    H212181   3.642   1.201   2.147 -0.0341 -1.5742  0.4684
 4059TIP3   OH212182   3.918   1.929   4.103 -0.1250  0.0953  0.1206
 4059TIP3    H112183   3.918   1.890   4.016 -0.4542  0.5677 -0.0980
 4059TIP3    H212184   3.989   1.884   4.150  1.1040  0.9060 -0.8816
 4060TIP3   OH212185   5.733   0.979   2.114  0.3371 -0.1108  0.1666
 4060TIP3    H112186   5.788   1.045   2.158 -1.0786 -0.0759  1.9936
 4060TIP3    H212187   5.795   0.917   2.076  1.7355  2.1500 -1.5324
 4061TIP3   OH212188   0.911   1.006  -0.004  0.3461  0.6268  0.2429
 4061TIP3    H112189   0.923   1.042   0.084 -0.9460  0.4765  0.5019
 4061TIP3    H212190   0.997   0.970  -0.027  0.6533  0.4752  1.5262
 4062TIP3   OH212191   2.572   1.451   1.987 -0.2673  0.7624 -0.0542
 4062TIP3    H112192   2.602   1.432   1.898  0.9136  0.5559  0.3625
 4062TIP3    H212193   2.552   1.365   2.024  0.0083  0.7725  0.1254
 4063TIP3   OH212194   2.486   5.588   4.125 -0.3607  0.4685 -0.0511
 4063TIP3    H112195   2.532   5.556   4.047 -2.4410  0.2845 -1.2631
 4063TIP3    H212196   2.486   5.514   4.185  1.6171  0.7391  0.3424
 4064TIP3   OH212197   5.119   3.192   4.645 -0.4853  0.6270  0.3507
 4064TIP3    H112198   5.136   3.139   4.568  0.3060 -2.3870  2.4007
 4064TIP3    H212199   5.059   3.138   4.698  0.0336  1.9446  2.3881
 4065TIP3   OH212200   2.877   3.021   0.274  0.0972  0.1050  0.1625
 4065TIP3    H112201   2.845   2.934   0.299 -1.8725  0.9066  0.5931
 4065TIP3    H212202   2.813   3.082   0.311 -0.7152  1.5945 -3.2652
 4066TIP3   OH212203   0.306   0.841   4.959  0.6574 -0.2308  0.6012
 4066TIP3    H112204   0.255   0.807   5.033  0.6278 -0.4939  0.4620
 4066TIP3    H212205   0.275   0.931   4.948 -0.1669 -0.5528  0.1798
 4067TIP3   OH212206   5.457   2.134   2.525 -0.2030 -0.0488  0.5666
 4067TIP3    H112207   5.520   2.128   2.454  1.4205 -0.0213  1.9573
 4067TIP3    H212208   5.495   2.197   2.587 -0.7532 -1.2910  2.2473
 4068TIP3   OH212209   6.101   4.352   3.417  0.2811  0.0096  0.1283
 4068TIP3    H112210   6.149   4.413   3.361 -1.4945  0.9742 -0.4365
 4068TIP3    H212211   6.014   4.346   3.377 -0.9131  0.3380  2.4629
 4069TIP3   OH212212   1.998   2.391   3.358 -0.0135  0.6838 -0.4750
 4069TIP3    H112213   1.996   2.353   3.270  0.2037  1.9942 -1.0704
 4069TIP3    H212214   1.924   2.452   3.360 -0.6757 -0.1031  0.6410
 4070TIP3   OH212215   4.302   5.772   1.589 -0.5459  0.5793  0.5973
 4070TIP3    H112216   4.306   5.764   1.494  0.0422 -1.6962  0.7546
 4070TIP3    H212217   4.233   5.836   1.605 -0.2599  1.4539 -1.3412
 4071TIP3   OH212218   5.550   2.389   3.856  0.0246  0.0363  0.4908
 4071TIP3    H112219   5.614   2.406   3.787 -0.5192  0.4505  0.0818
 4071TIP3    H212220   5.483   2.335   3.814  1.4886 -2.9034  1.6472
 4072TIP3   OH212221   6.210   5.044   4.547  0.4361  0.9147 -0.4413
 4072TIP3    H112222   6.292   5.070   4.589  0.3849 -0.5202  0.6288
 4072TIP3    H212223   6.235   5.021   4.457  1.4264 -0.4777  0.1535
 4073TIP3   OH212224   3.740   4.618   2.464 -0.2593 -0.0202 -0.2471
 4073TIP3    H112225   3.666   4.583   2.414  0.5400 -1.3652 -0.5156
 4073TIP3    H212226   3.796   4.543   2.481  0.6287  0.8254  0.7159
 4074TIP3   OH212227   0.405   2.178   4.492 -0.0043  0.0931 -1.0102
 4074TIP3    H112228   0.367   2.128   4.420  0.3670 -0.2563 -0.9659
 4074TIP3    H212229   0.430   2.261   4.453 -1.8076  0.7886 -0.8188
 4075TIP3   OH212230   4.113   1.817   0.922 -0.3488 -0.2600  0.5349
 4075TIP3    H112231   4.134   1.841   0.831 -2.3174  1.9774  0.5542
 4075TIP3    H212232   4.129   1.898   0.971  0.6745 -1.4377  2.2191
 4076TIP3   OH212233   5.013   0.175   0.898 -0.2539  0.2542  0.4996
 4076TIP3    H112234   5.089   0.198   0.843 -0.6686 -1.1902 -0.7280
 4076TIP3    H212235   4.949   0.243   0.878  0.2453  0.7497  0.5516
 4077TIP3   OH212236   0.909   1.355   0.927  0.4916 -0.6534 -0.3345
 4077TIP3    H112237   0.956   1.358   1.011  2.6225  0.1748 -1.4674
 4077TIP3    H212238   0.930   1.439   0.885  0.8295 -1.6938 -2.3585
 4078TIP3   OH212239   3.513   1.531   2.851 -0.3795 -0.6058  0.2391
 4078TIP3    H112240   3.540   1.555   2.762 -0.7694 -1.5488 -0.1451
 4078TIP3    H212241   3.590   1.489   2.889 -0.4430 -0.8500  0.0966
 4079TIP3   OH212242   3.727   1.234   2.753  0.0244  0.7893  0.1812
 4079TIP3    H112243   3.769   1.315   2.726 -1.8483  1.5362 -0.6193
 4079TIP3    H212244   3.757   1.169   2.690  2.6398  0.4448  1.6303
 4080TIP3   OH212245   2.174   0.332   4.977  0.4750  0.3985  0.4462
 4080TIP3    H112246   2.191   0.367   5.065  0.7021  1.7864 -0.1160
 4080TIP3    H212247   2.245   0.368   4.924 -0.4802  0.7872 -0.5964
 4081TIP3   OH212248   4.419   5.013   0.255 -0.4922  0.4499  0.2553
 4081TIP3    H112249   4.367   5.026   0.334  1.7297 -0.0030  1.8874
 4081TIP3    H212250   4.445   4.921   0.259  1.5323  0.9730  0.2738
 4082TIP3   OH212251   3.405   3.013   4.080 -0.5250  0.4575  0.4048
 4082TIP3    H112252   3.368   3.008   4.169 -0.7767  0.1310  0.2835
 4082TIP3    H212253   3.409   3.107   4.061 -0.8760  0.5129  0.5952
 4083TIP3   OH212254   5.289   2.849   1.121  0.2191 -0.4687 -0.6275
 4083TIP3    H112255   5.217   2.865   1.059  0.4440  1.1708 -0.5153
 4083TIP3    H212256   5.303   2.754   1.118 -1.2607 -0.6903 -1.4161
 4084TIP3   OH212257   4.104   1.186   2.785  0.4207 -0.4780 -1.0040
 4084TIP3    H112258   4.023   1.184   2.735  0.9339 -0.5430 -1.8528
 4084TIP3    H212259   4.173   1.193   2.719  1.1648 -1.3993 -0.3584
 4085TIP3   OH212260   5.496   0.352   0.598 -0.8624  0.5572 -0.2676
 4085TIP3    H112261   5.440   0.289   0.642 -1.7524  0.5852 -1.3414
 4085TIP3    H212262   5.546   0.393   0.669 -0.0569 -1.5052  0.4448
 4086TIP3   OH212263   0.292   2.005   4.315 -0.0899  0.2895  0.0900
 4086TIP3    H112264   0.227   2.011   4.245  0.7022  1.4482 -0.5785
 4086TIP3    H212265   0.271   1.923   4.360 -0.2404 -0.8161 -1.8817
 4087TIP3   OH212266   4.081   0.899   2.613 -0.5284 -0.6039 -0.2389
 4087TIP3    H112267   4.069   0.814   2.654 -2.4010  0.0721  0.7362
 4087TIP3    H212268   4.141   0.946   2.670 -1.2503 -0.5108  0.4574
 4088TIP3   OH212269   3.545   5.327   3.336  0.5151 -0.2415 -0.2368
 4088TIP3    H112270   3.482   5.279   3.389  1.1136  0.2401  0.9413
 4088TIP3    H212271   3.519   5.418   3.344  0.5824 -0.1651 -0.8234
 4089TIP3   OH212272   0.762   0.995   3.289  0.3626  0.3062  1.0449
 4089TIP3    H112273   0.758   0.906   3.326 -1.4412 -0.3620 -0.5496
 4089TIP3    H212274   0.746   1.053   3.364  1.9570 -0.6539  2.1909
 4090TIP3   OH212275   0.893   3.074   2.152  0.1383  0.0541 -0.2678
 4090TIP3    H112276   0.966   3.013   2.160  0.7395  0.7958 -0.0508
 4090TIP3    H212277   0.933   3.161   2.154 -0.8853  0.5424  1.8205
 4091TIP3   OH212278   3.996   5.720   1.262  0.1590 -0.8365  0.5270
 4091TIP3    H112279   3.984   5.742   1.170  2.7378 -0.0070  0.3234
 4091TIP3    H212280   4.090   5.706   1.272 -0.2004 -2.1925  2.7830
 4092TIP3   OH212281   5.741   0.223   4.636 -0.8965 -0.2183  0.1716
 4092TIP3    H112282   5.763   0.255   4.549 -2.6913 -0.9381 -0.5925
 4092TIP3    H212283   5.648   0.202   4.632 -0.9624 -0.5614  2.1819
 4093TIP3   OH212284   2.177   3.068   4.654  0.2857 -0.1195 -0.1185
 4093TIP3    H112285   2.123   2.990   4.637 -1.0702  0.6832  0.3713
 4093TIP3    H212286   2.233   3.075   4.576 -0.0134 -1.2080 -0.4611
 4094TIP3   OH212287   0.007   4.992   3.287  0.7528 -0.0666 -0.0997
 4094TIP3    H112288  -0.001   4.904   3.322  1.3979 -0.3942 -0.7321
 4094TIP3    H212289  -0.002   4.981   3.192 -2.1018  0.9488 -0.0185
 4095TIP3   OH212290   2.160   1.595   4.932  0.7738 -0.2642 -0.1389
 4095TIP3    H112291   2.214   1.674   4.931  1.1236 -0.4761 -2.3854
 4095TIP3    H212292   2.223   1.522   4.929  0.4203 -0.5542 -0.7455
 4096TIP3   OH212293   4.065   2.212   1.460 -0.3872 -0.0786 -0.0377
 4096TIP3    H112294   4.055   2.164   1.542  0.3821 -0.3966 -0.1206
 4096TIP3    H212295   4.134   2.276   1.477 -0.9826  0.6052 -0.1122
 4097TIP3   OH212296   1.765   1.803   3.405  0.3333 -0.0927 -0.6545
 4097TIP3    H112297   1.759   1.877   3.345  0.6324  0.4509 -0.0240
 4097TIP3    H212298   1.841   1.822   3.459  0.3718 -0.8313 -0.4387
 4098TIP3   OH212299   0.235   3.618   1.893  0.3756 -0.0021 -0.3285
 4098TIP3    H112300   0.235   3.532   1.850 -0.5003 -0.8820  1.3297
 4098TIP3    H212301   0.321   3.654   1.874  0.7846 -1.2604 -1.0340
 4099TIP3   OH212302   3.770   4.627   2.779  0.1226  0.3202  0.6274
 4099TIP3    H112303   3.745   4.535   2.789  1.1651 -0.0027  0.3807
 4099TIP3    H212304   3.734   4.653   2.694  2.0900 -0.6836 -0.5951
 4100TIP3   OH212305   1.747   5.663   3.001  0.1453  0.0772 -0.7212
 4100TIP3    H112306   1.657   5.634   3.008  0.0167  0.7307  0.5593
 4100TIP3    H212307   1.757   5.729   3.070  1.0214  1.5156 -2.1408
 4101TIP3   OH212308   6.342   4.201   0.970 -0.1725 -0.3540  0.1980
 4101TIP3    H112309   6.394   4.127   0.938 -0.4424 -0.5709  0.2635
 4101TIP3    H212310   6.275   4.214   0.903 -1.9213 -2.0037  1.5217
 4102TIP3   OH212311   0.571   4.160   4.664 -0.0753 -0.5822 -0.0579
 4102TIP3    H112312   0.491   4.197   4.701 -0.2060  0.7192 -1.5448
 4102TIP3    H212313   0.639   4.224   4.685  0.8351 -2.1474  2.0606
 4103TIP3   OH212314   1.684   4.484   3.354  0.4134 -0.2264 -0.3481
 4103TIP3    H112315   1.605   4.431   3.366  0.3169  0.1914  1.0652
 4103TIP3    H212316   1.754   4.430   3.391  0.8630 -0.7052 -1.8253
 4104TIP3   OH212317   0.296   0.077   1.184 -0.0602 -0.0058 -0.4316
 4104TIP3    H112318   0.234   0.148   1.167  3.1276  2.7586 -1.6861
 4104TIP3    H212319   0.339   0.102   1.266  0.3883 -1.0928 -0.3149
 4105TIP3   OH212320   4.014   5.021   4.807  0.7064 -0.3251  0.2588
 4105TIP3    H112321   3.935   4.971   4.784 -0.9763  1.8754  0.8381
 4105TIP3    H212322   4.001   5.106   4.766  2.1269  0.5527  1.5393
 4106TIP3   OH212323   4.822   1.669   0.928 -0.1034  0.0430 -0.2494
 4106TIP3    H112324   4.883   1.710   0.990 -0.2482 -0.5580  0.3031
 4106TIP3    H212325   4.877   1.613   0.873 -0.1742 -0.7342  0.4442
 4107TIP3   OH212326   1.532   1.019   1.662  0.3467 -0.1277 -0.2856
 4107TIP3    H112327   1.594   0.960   1.621  0.0206 -1.5502  1.1837
 4107TIP3    H212328   1.476   0.963   1.715  0.4865  1.5506  1.7620
 4108TIP3   OH212329   1.704   1.527   1.860 -0.3875  0.4162  0.3211
 4108TIP3    H112330   1.744   1.468   1.795 -2.1620  0.1632 -0.6005
 4108TIP3    H212331   1.761   1.604   1.860  0.9256 -0.5182  0.1639
 4109TIP3   OH212332   3.398   4.203   4.364  0.3883  0.5226 -0.3570
 4109TIP3    H112333   3.460   4.150   4.315  1.0379 -0.6670  1.6578
 4109TIP3    H212334   3.317   4.152   4.364  0.9003 -0.3422  1.2487
 4110TIP3   OH212335   6.094   1.932   2.083  0.5156  0.6216 -0.0608
 4110TIP3    H112336   6.022   1.899   2.030  1.3268 -0.0819 -0.7512
 4110TIP3    H212337   6.172   1.913   2.031  1.4408 -1.0342  1.7990
 4111TIP3   OH212338   6.226   5.632   4.516 -0.0665  0.0810  0.1854
 4111TIP3    H112339   6.248   5.700   4.579  1.3349  0.0671 -0.2611
 4111TIP3    H212340   6.299   5.631   4.454 -0.7359 -0.8628 -0.6333
 4112TIP3   OH212341   1.467   5.730   0.380 -0.1809  0.2929  0.1513
 4112TIP3    H112342   1.434   5.801   0.326 -0.2173  1.4393  1.6155
 4112TIP3    H212343   1.516   5.773   0.449  0.5699 -1.1644  0.5742
 4113TIP3   OH212344   5.261   3.911   2.494  0.0199  0.3073  0.5086
 4113TIP3    H112345   5.276   4.001   2.463  0.8696  0.4868  1.3869
 4113TIP3    H212346   5.346   3.867   2.481 -0.5126 -0.5059 -0.3211
 4114TIP3   OH212347   5.073   2.405   2.165  0.0049  0.1412 -0.1314
 4114TIP3    H112348   5.013   2.448   2.225  1.1243  0.7015  0.6266
 4114TIP3    H212349   5.129   2.351   2.221  1.4487  1.1223 -0.5774
 4115TIP3   OH212350   1.623   5.660   0.076 -0.0657  0.0616  0.5519
 4115TIP3    H112351   1.695   5.638   0.136  1.4739 -0.3104 -1.3285
 4115TIP3    H212352   1.567   5.582   0.077  1.7041 -1.3279 -0.8810
 4116TIP3   OH212353   3.253   2.293   2.089  0.5155 -0.1867 -0.4241
 4116TIP3    H112354   3.328   2.345   2.060  1.6184 -1.8292 -0.6963
 4116TIP3    H212355   3.267   2.207   2.048 -0.5343 -1.0777  0.9935
 4117TIP3   OH212356   1.709   2.608   2.667  0.4482  0.1011 -0.1974
 4117TIP3    H112357   1.751   2.641   2.746 -1.2037  2.5572 -0.2565
 4117TIP3    H212358   1.649   2.541   2.697 -0.1195  0.9726  0.6419
 4118TIP3   OH212359   3.985   3.928   1.442 -0.0094 -0.4797 -0.2604
 4118TIP3    H112360   4.073   3.964   1.449 -0.4545  0.7841 -0.8585
 4118TIP3    H212361   3.956   3.917   1.533 -0.4475  2.2296 -0.0088
 4119TIP3   OH212362   5.599   4.270   0.692  0.2066  0.1334 -0.2225
 4119TIP3    H112363   5.520   4.294   0.741  0.8314 -0.3464  1.0562
 4119TIP3    H212364   5.579   4.184   0.655 -0.0561  0.2425 -0.3402
 4120TIP3   OH212365   1.420   2.175   2.728 -0.3797 -0.0525  0.1813
 4120TIP3    H112366   1.439   2.179   2.822  1.9091 -0.1001 -0.2176
 4120TIP3    H212367   1.494   2.128   2.691 -1.9996 -1.4371 -1.4988
 4121TIP3   OH212368   2.693   2.840   0.350  0.1954 -0.0290 -0.8160
 4121TIP3    H112369   2.611   2.828   0.303  0.0558  0.5291 -0.7285
 4121TIP3    H212370   2.670   2.824   0.442  0.3720 -0.6865 -0.8782
 4122TIP3   OH212371   3.029   0.550   5.025  0.5304 -0.7485 -0.4405
 4122TIP3    H112372   2.970   0.591   5.089 -0.0589 -1.1947 -0.6877
 4122TIP3    H212373   3.106   0.524   5.077  1.0397  0.8886 -0.3290
 4123TIP3   OH212374   2.396   4.429   3.740 -0.0183 -0.2283 -0.2824
 4123TIP3    H112375   2.383   4.493   3.670  1.7048  1.1362  0.5984
 4123TIP3    H212376   2.393   4.344   3.695  0.3061  0.5829 -1.9008
 4124TIP3   OH212377   0.770   2.420   2.227  0.5340 -0.1909 -0.4647
 4124TIP3    H112378   0.701   2.389   2.168  0.1818 -1.0561  0.3675
 4124TIP3    H212379   0.780   2.349   2.290  2.5673 -0.3185 -0.8679
 4125TIP3   OH212380   4.419   1.217   2.234  0.2509  0.0541 -0.2301
 4125TIP3    H112381   4.467   1.144   2.274 -2.4983 -1.9513 -0.2567
 4125TIP3    H212382   4.400   1.187   2.145 -0.8363  0.8428 -0.2829
 4126TIP3   OH212383   2.425   2.425   4.613  0.2164 -0.0089  0.1124
 4126TIP3    H112384   2.332   2.404   4.618  0.4728 -1.5665 -1.1449
 4126TIP3    H212385   2.454   2.426   4.705 -0.8590 -0.2791  0.4665
 4127TIP3   OH212386   5.824   2.025   0.593 -0.3505 -0.0893  0.5015
 4127TIP3    H112387   5.793   1.962   0.528  0.3826  0.4847 -0.4226
 4127TIP3    H212388   5.754   2.029   0.658 -0.3361 -1.9920  0.6930
 4128TIP3   OH212389   5.961   5.215   4.387 -0.0525 -0.0690  0.0171
 4128TIP3    H112390   6.051   5.244   4.372 -0.3604  1.0532  0.3060
 4128TIP3    H212391   5.962   5.182   4.478  0.3775 -1.3484 -0.4244
 4129TIP3   OH212392   4.246   4.023   1.443 -0.5106 -0.2598 -0.2565
 4129TIP3    H112393   4.320   3.974   1.476 -0.7191 -0.9743 -0.8345
 4129TIP3    H212394   4.282   4.108   1.419 -0.5366  0.7495  2.8113
 4130TIP3   OH212395   6.162   3.168   2.633 -0.6107  0.3628  0.4188
 4130TIP3    H112396   6.121   3.106   2.693 -0.8343  0.1627  0.0627
 4130TIP3    H212397   6.136   3.138   2.546  0.4158  0.1297  0.1744
 4131TIP3   OH212398   1.854   0.187   3.830 -0.1548 -0.3124 -0.1249
 4131TIP3    H112399   1.903   0.118   3.875 -0.7880 -0.8778 -0.2985
 4131TIP3    H212400   1.921   0.233   3.779  0.3345 -0.5444  0.2889
 4132TIP3   OH212401   0.818   0.073   2.637 -0.6735  0.0951  0.2402
 4132TIP3    H112402   0.778   0.055   2.551 -0.7768 -1.8687  0.6502
 4132TIP3    H212403   0.850  -0.012   2.666  1.3495  1.1217  1.1878
 4133TIP3   OH212404   0.710   4.155   0.400 -0.1332  0.4161 -0.2017
 4133TIP3    H112405   0.728   4.151   0.494 -0.4456  1.0870 -0.1150
 4133TIP3    H212406   0.797   4.159   0.360 -0.0140  1.8190  0.1400
 4134TIP3   OH212407   2.160   1.802   0.093  0.5090  0.6792  0.1097
 4134TIP3    H112408   2.253   1.822   0.104  0.7011  1.2264 -2.0089
 4134TIP3    H212409   2.131   1.862   0.024 -0.7999 -1.1273 -1.0045
 4135TIP3   OH212410   5.736   0.870   4.210  0.0801 -0.5149 -0.2151
 4135TIP3    H112411   5.688   0.788   4.223 -1.4378  0.5314  1.2248
 4135TIP3    H212412   5.726   0.889   4.116 -2.2372 -0.4496 -0.0116
 4136TIP3   OH212413   1.230   3.470   2.965  0.5440 -0.1001 -0.0839
 4136TIP3    H112414   1.256   3.451   3.056 -0.7094 -0.3117  0.2490
 4136TIP3    H212415   1.299   3.527   2.932  0.6762  0.5408  1.2266
 4137TIP3   OH212416   4.550   3.818   1.091  0.4853  0.1114  0.7201
 4137TIP3    H112417   4.461   3.848   1.076  1.3518  2.2791 -0.5235
 4137TIP3    H212418   4.559   3.740   1.037 -0.4093  0.3451  0.2156
 4138TIP3   OH212419   4.119   2.712   5.087  0.1402  0.4540  0.6195
 4138TIP3    H112420   4.154   2.793   5.050 -1.1067  0.9055  0.3974
 4138TIP3    H212421   4.082   2.665   5.012  0.0470  0.0964  0.8846
 4139TIP3   OH212422   0.297   1.446   5.144 -0.2912  0.3790 -0.4439
 4139TIP3    H112423   0.293   1.466   5.237  0.1916 -0.3244 -0.2618
 4139TIP3    H212424   0.388   1.421   5.128 -0.3198  0.6910 -1.1494
 4140TIP3   OH212425   5.913   0.187   3.077  0.7156 -0.1292  0.1181
 4140TIP3    H112426   5.844   0.165   3.015 -0.1581  0.7155  0.7561
 4140TIP3    H212427   5.884   0.149   3.160  0.8313  0.5365  0.4675
 4141TIP3   OH212428   0.849   1.262   5.029  0.1349  0.4379  0.6459
 4141TIP3    H112429   0.824   1.170   5.041 -0.5229  0.8027  2.2953
 4141TIP3    H212430   0.939   1.257   4.996  0.6201 -0.8139  2.0053
 4142TIP3   OH212431   2.969   3.161   1.919  0.1252 -0.0659 -0.0402
 4142TIP3    H112432   2.913   3.238   1.931  1.1679  0.5544  1.0879
 4142TIP3    H212433   2.924   3.092   1.967 -0.6480 -0.0848 -0.7735
 4143TIP3   OH212434   0.292   1.400   1.332  0.0754 -0.6475 -0.3683
 4143TIP3    H112435   0.265   1.491   1.318 -1.4913 -1.1110 -0.5034
 4143TIP3    H212436   0.259   1.378   1.419 -0.2442 -1.3268 -0.6551
 4144TIP3   OH212437   4.890   1.134   1.638  0.3181  0.2568  0.3544
 4144TIP3    H112438   4.932   1.157   1.555 -1.4106 -1.5367 -1.1118
 4144TIP3    H212439   4.886   1.217   1.686  0.2896  1.6081 -1.8483
 4145TIP3   OH212440   5.853   5.587   4.515  0.0966 -0.2808 -0.4044
 4145TIP3    H112441   5.815   5.560   4.599 -1.5896  0.4202 -0.9090
 4145TIP3    H212442   5.925   5.646   4.540 -1.4904  1.3625  0.5935
 4146TIP3   OH212443   5.472   5.884   1.996 -0.6418 -0.2580 -0.2123
 4146TIP3    H112444   5.376   5.884   1.999 -0.6745  1.7039  0.6635
 4146TIP3    H212445   5.497   5.935   2.073  1.1733 -1.8602  0.3245
 4147TIP3   OH212446   0.899   4.870   1.458 -0.7079 -0.1765 -0.1067
 4147TIP3    H112447   0.910   4.857   1.552 -2.3002  1.1267  0.3080
 4147TIP3    H212448   0.844   4.798   1.430 -0.1412 -0.6293 -0.0719
 4148TIP3   OH212449   1.827   1.199   1.895 -0.2428  0.1448  0.1121
 4148TIP3    H112450   1.847   1.105   1.897  0.9753  0.2635 -2.6448
 4148TIP3    H212451   1.771   1.213   1.972 -0.3134 -2.7751  0.7060
 4149TIP3   OH212452   5.143   5.214   3.339 -0.1224  0.1558  0.2470
 4149TIP3    H112453   5.215   5.155   3.362  0.3211  0.6199  0.0562
 4149TIP3    H212454   5.174   5.261   3.262  0.6824  2.7034  2.0132
 4150TIP3   OH212455   6.305   2.190   0.244  0.0535 -0.4320  0.3171
 4150TIP3    H112456   6.214   2.218   0.229 -0.3607 -2.0347 -0.4292
 4150TIP3    H212457   6.318   2.199   0.338 -1.0618 -0.6321  0.5093
 4151TIP3   OH212458   5.969   4.749   4.163 -0.3394 -0.6697  0.0431
 4151TIP3    H112459   5.961   4.842   4.182 -1.3928 -0.2245 -2.2667
 4151TIP3    H212460   5.975   4.707   4.249 -0.9734  1.4206  1.1645
 4152TIP3   OH212461   3.329   5.128   1.101 -0.1819  0.0103 -0.1290
 4152TIP3    H112462   3.362   5.038   1.106 -1.0195 -0.3859 -1.3640
 4152TIP3    H212463   3.402   5.178   1.065  0.5643  0.0036  1.2969
 4153TIP3   OH212464   2.332   3.459   3.139  0.5633  0.4841 -0.3309
 4153TIP3    H112465   2.327   3.552   3.117  2.2056  0.7771  0.4252
 4153TIP3    H212466   2.362   3.457   3.230 -0.1309 -0.7869 -0.1013
 4154TIP3   OH212467   0.015   0.707   0.086 -0.4209 -0.7274  0.1422
 4154TIP3    H112468  -0.074   0.674   0.095 -0.8492  0.3380 -0.0522
 4154TIP3    H212469   0.065   0.633   0.049 -1.6519 -0.7419 -1.6115
 4155TIP3   OH212470   2.433   2.868   2.040 -0.1625 -0.0336 -0.2367
 4155TIP3    H112471   2.373   2.886   2.111  1.9185  0.0396  1.6182
 4155TIP3    H212472   2.457   2.776   2.051 -0.1219 -0.1329 -1.0878
 4156TIP3   OH212473   5.906   3.598   2.519  0.4904 -0.9807  0.0056
 4156TIP3    H112474   5.943   3.684   2.540 -0.0213 -1.2688  2.3031
 4156TIP3    H212475   5.856   3.613   2.439 -3.1397  1.9944  2.4904
 4157TIP3   OH212476   0.312   3.057   0.466 -0.0343  0.2898  0.3073
 4157TIP3    H112477   0.331   3.124   0.532  1.4980 -0.8397  1.0868
 4157TIP3    H212478   0.346   2.976   0.504 -0.0371 -0.5853 -1.4524
 4158TIP3   OH212479   5.621   5.307   1.983  0.0905 -0.2218  0.5342
 4158TIP3    H112480   5.526   5.296   1.984 -0.2337  2.0545  1.2390
 4158TIP3    H212481   5.634   5.395   1.947  1.8620  0.0181  1.6744
 4159TIP3   OH212482   6.131   1.946   3.057  0.7366 -0.8063  0.3557
 4159TIP3    H112483   6.149   1.854   3.039 -2.4697 -1.6108  0.7561
 4159TIP3    H212484   6.049   1.965   3.011  1.2252  1.8368  0.3830
 4160TIP3   OH212485   4.716   1.906   3.714 -0.1477  0.3190 -0.7823
 4160TIP3    H112486   4.736   1.972   3.648  2.9919 -1.2717 -1.6162
 4160TIP3    H212487   4.675   1.834   3.665 -0.1532  0.1610 -0.5507
 4161TIP3   OH212488   0.720   4.088   3.077  0.2588 -0.1194  0.2746
 4161TIP3    H112489   0.754   4.045   3.155  1.4564  0.0664 -0.1286
 4161TIP3    H212490   0.798   4.113   3.027 -0.4368  1.1629 -0.2264
 4162TIP3   OH212491   1.848   5.622   5.114  0.3949 -0.0521  0.2255
 4162TIP3    H112492   1.853   5.717   5.104 -1.1811  0.0403 -0.0021
 4162TIP3    H212493   1.928   5.589   5.074  1.0688  1.1853  0.4937
 4163TIP3   OH212494   4.970   1.352   3.412 -0.0905  0.6464  0.0916
 4163TIP3    H112495   5.038   1.373   3.477  0.3236 -1.2416  0.3283
 4163TIP3    H212496   4.990   1.408   3.337 -0.1498  2.3527  1.2926
 4164TIP3   OH212497   4.239   3.872   2.926 -0.3224 -0.4446  0.3426
 4164TIP3    H112498   4.177   3.829   2.867  1.1014 -0.7706 -1.0100
 4164TIP3    H212499   4.306   3.907   2.867  0.8734 -0.2755  1.7532
 4165TIP3   OH212500   3.721   5.589   1.295  0.1851 -0.1985  0.4384
 4165TIP3    H112501   3.736   5.565   1.386  1.2991  0.7047  0.5219
 4165TIP3    H212502   3.804   5.627   1.266  0.1988 -1.3931 -1.2684
 4166TIP3   OH212503   4.816   5.645   5.009 -0.0748  0.0924  0.1423
 4166TIP3    H112504   4.807   5.554   5.035 -0.3177 -0.2040 -0.9029
 4166TIP3    H212505   4.842   5.691   5.088 -1.6369 -0.6011  1.1058
 4167TIP3   OH212506   0.660   0.368   0.091  0.3077 -0.0791 -0.1645
 4167TIP3    H112507   0.595   0.298   0.092 -1.8620  1.7256 -1.8903
 4167TIP3    H212508   0.696   0.369   0.180 -1.3231 -1.8101  0.5768
 4168TIP3   OH212509   2.671   5.969   4.767  0.3601 -0.2363 -0.0791
 4168TIP3    H112510   2.619   6.042   4.734 -2.9135 -2.7807 -1.1074
 4168TIP3    H212511   2.671   5.905   4.695  2.7819 -1.4502  0.8746
 4169TIP3   OH212512   3.041   2.519   1.233 -0.7057 -0.4098  0.3517
 4169TIP3    H112513   3.024   2.610   1.209 -0.6192  0.1889  2.3935
 4169TIP3    H212514   3.043   2.519   1.329 -0.8621 -2.5978  0.4069
 4170TIP3   OH212515   3.187  -0.018   3.917 -0.0366  0.2116  0.4283
 4170TIP3    H112516   3.180  -0.002   3.823 -0.0715  0.3566  0.4564
 4170TIP3    H212517   3.259   0.038   3.946 -1.3237  1.6991  0.8480
 4171TIP3   OH212518   4.735   1.567   4.332 -0.0730  0.2007  0.0660
 4171TIP3    H112519   4.743   1.474   4.354  0.6895 -0.2649 -1.9289
 4171TIP3    H212520   4.786   1.612   4.400  2.6047 -1.1683 -0.8767
 4172TIP3   OH212521   2.631   5.231   5.080 -0.0718 -0.0116 -0.4664
 4172TIP3    H112522   2.640   5.323   5.055  1.6655 -0.5701 -2.1093
 4172TIP3    H212523   2.572   5.194   5.014 -0.0775 -0.2644 -0.3199
 4173TIP3   OH212524   3.402   1.693   0.518  0.9174  0.0198  0.2094
 4173TIP3    H112525   3.388   1.605   0.552  1.4124 -0.1540 -0.0256
 4173TIP3    H212526   3.445   1.740   0.590 -0.0500  0.2998  0.6147
 4174TIP3   OH212527   2.655   4.480   0.795  0.2450 -0.1853 -0.2551
 4174TIP3    H112528   2.572   4.528   0.801 -0.0299 -0.5022 -1.1920
 4174TIP3    H212529   2.665   4.463   0.701  1.5777  0.1778 -0.1916
 4175TIP3   OH212530   4.074   4.860   4.288 -0.1899 -0.4701  0.4153
 4175TIP3    H112531   4.086   4.801   4.362  1.1430 -2.7437 -1.4621
 4175TIP3    H212532   4.028   4.807   4.223  1.8026  0.2007 -1.6734
 4176TIP3   OH212533   3.105   2.064   4.602 -0.2165  0.0158  0.2860
 4176TIP3    H112534   3.100   2.082   4.508 -1.0402  0.3811  0.3944
 4176TIP3    H212535   3.137   1.974   4.608  0.1402  0.0959 -0.3378
 4177TIP3   OH212536   0.278   0.301   4.040 -0.4037 -0.3957 -0.4685
 4177TIP3    H112537   0.298   0.304   4.133 -0.4438 -1.1058 -0.4311
 4177TIP3    H212538   0.283   0.392   4.011  0.8528 -0.3011 -0.0323
 4178TIP3   OH212539   1.838   1.239   2.906  0.1206  0.0728 -0.8242
 4178TIP3    H112540   1.825   1.188   2.825 -0.4601  0.8286 -1.2164
 4178TIP3    H212541   1.899   1.308   2.882  1.0800 -0.5429 -0.2334
 4179TIP3   OH212542   4.387   1.451   1.920  0.4790 -0.2935  0.0273
 4179TIP3    H112543   4.377   1.489   1.833  1.8974  0.9622  0.3658
 4179TIP3    H212544   4.298   1.446   1.954 -0.2289 -1.7649 -1.8372
 4180TIP3   OH212545   3.946   1.204   1.824  0.2788 -0.6638  0.1342
 4180TIP3    H112546   4.022   1.148   1.828  1.2781  0.6437  0.2041
 4180TIP3    H212547   3.950   1.256   1.905 -0.6307 -0.5175  0.1001
 4181TIP3   OH212548   6.322   4.466   3.890  0.1827  0.8685 -0.8810
 4181TIP3    H112549   6.248   4.510   3.932 -0.3590  0.1166 -1.0404
 4181TIP3    H212550   6.290   4.443   3.803 -0.0340 -1.1027 -0.3250
 4182TIP3   OH212551   4.106   1.287   2.242 -0.1911 -0.8214 -0.0790
 4182TIP3    H112552   4.185   1.235   2.226  1.2373  1.4574 -0.8591
 4182TIP3    H212553   4.138   1.367   2.283 -1.9111  0.7069 -1.5496
 4183TIP3   OH212554   1.639   5.922   3.425 -0.1541  0.2541 -0.4347
 4183TIP3    H112555   1.691   5.908   3.504  0.2633  0.5145 -0.6635
 4183TIP3    H212556   1.552   5.946   3.458 -0.1293 -0.1510 -0.0554
 4184TIP3   OH212557   5.490   2.543   0.202 -0.9117 -0.3098 -1.0718
 4184TIP3    H112558   5.516   2.472   0.261 -0.8015  0.8445  0.3258
 4184TIP3    H212559   5.518   2.514   0.115  0.8015 -1.1711 -0.2712
 4185TIP3   OH212560   2.090   5.889   0.079  0.3671 -0.1461  0.6416
 4185TIP3    H112561   2.118   5.923  -0.006 -2.4380  1.1817  0.1244
 4185TIP3    H212562   2.059   5.800   0.061  0.4228 -0.1228  0.4306
 4186TIP3   OH212563   3.198   5.696   0.536  0.0569 -0.3585 -0.2648
 4186TIP3    H112564   3.176   5.606   0.511 -1.6693  0.6621 -2.8043
 4186TIP3    H212565   3.275   5.718   0.485  1.8697 -1.0214  2.0183
 4187TIP3   OH212566   2.587   5.947   0.454  0.0349  0.4260 -0.0886
 4187TIP3    H112567   2.529   5.892   0.507 -0.7338  0.8510 -0.4801
 4187TIP3    H212568   2.529   6.010   0.412  0.7844  0.8612 -0.4882
 4188TIP3   OH212569   5.787   5.003   0.379  0.1987 -0.0113 -0.1642
 4188TIP3    H112570   5.826   4.919   0.405  1.0467  0.1231 -0.9239
 4188TIP3    H212571   5.860   5.064   0.382 -0.4712  0.7664  0.6307
 4189TIP3   OH212572   2.545   5.644   2.925 -0.1755  0.3550  0.0099
 4189TIP3    H112573   2.637   5.653   2.950 -0.1743 -1.3546  0.7006
 4189TIP3    H212574   2.505   5.596   2.997 -0.9113 -1.6961 -1.6831
 4190TIP3   OH212575   5.374   3.224   2.619 -0.2137 -0.2897 -0.1597
 4190TIP3    H112576   5.407   3.254   2.535 -0.6198  0.1895 -0.1558
 4190TIP3    H212577   5.336   3.303   2.659 -0.2214 -0.5593  0.3698
 4191TIP3   OH212578   3.213   4.064   4.217  0.7716  0.1508  0.1296
 4191TIP3    H112579   3.203   4.129   4.148  0.4089 -0.4307 -0.3780
 4191TIP3    H212580   3.126   4.024   4.226  0.6352  0.6954  1.4105
 4192TIP3   OH212581   2.261   1.116   2.739 -0.5674  0.4200  0.8320
 4192TIP3    H112582   2.339   1.172   2.730 -0.9382  1.1116  1.7096
 4192TIP3    H212583   2.261   1.090   2.832 -0.3133 -1.2009  0.4133
 4193TIP3   OH212584   3.850   2.602   1.381 -0.2800 -0.0667  0.0597
 4193TIP3    H112585   3.841   2.536   1.450 -1.1938  1.3483  1.3506
 4193TIP3    H212586   3.829   2.685   1.424  0.0540  0.9849 -1.7087
 4194TIP3   OH212587   0.747   2.203   3.722  0.0373 -0.0377  0.3993
 4194TIP3    H112588   0.654   2.211   3.699 -0.0703 -1.0366  0.4432
 4194TIP3    H212589   0.780   2.293   3.719 -1.0950  0.4207  1.0785
 4195TIP3   OH212590   4.471   2.233   1.920  0.2026 -0.0176  0.1824
 4195TIP3    H112591   4.464   2.287   1.841  0.8037 -0.7161 -0.3642
 4195TIP3    H212592   4.547   2.177   1.903  0.5030  0.0100  1.3713
 4196TIP3   OH212593   5.160   5.927   4.509  0.0425  0.6078  0.0373
 4196TIP3    H112594   5.213   5.861   4.555 -1.1935 -1.3698 -1.2297
 4196TIP3    H212595   5.087   5.945   4.568  0.8828  1.6050  0.7990
 4197TIP3   OH212596   1.059   2.025   2.154  0.6349 -0.3789 -0.5739
 4197TIP3    H112597   1.047   1.950   2.096 -0.7608  0.1570 -1.0143
 4197TIP3    H212598   0.973   2.040   2.193  1.2892 -0.0405  0.8037
 4198TIP3   OH212599   2.910   3.774   0.524  0.5241 -0.6665  1.1951
 4198TIP3    H112600   2.886   3.729   0.443 -0.9750  2.0245  0.0017
 4198TIP3    H212601   2.995   3.814   0.506  0.5693 -0.7354  1.2540
 4199TIP3   OH212602   2.066   2.262   1.904  0.3039 -0.1865 -0.1789
 4199TIP3    H112603   2.077   2.334   1.967  1.5690 -0.0572 -0.5283
 4199TIP3    H212604   2.143   2.207   1.916 -0.6669 -1.5479  0.1199
 4200TIP3   OH212605   2.931   1.834   3.452 -0.6968  0.7457  0.3423
 4200TIP3    H112606   2.925   1.779   3.374 -0.0718  0.3040  0.6018
 4200TIP3    H212607   2.897   1.779   3.523 -0.4229  0.8288  0.5385
 4201TIP3   OH212608   2.492   4.433   4.602  0.1049 -0.0490  0.4820
 4201TIP3    H112609   2.550   4.422   4.678  1.1469 -1.4389 -0.4597
 4201TIP3    H212610   2.502   4.525   4.577 -0.2340  0.4277  1.9814
 4202TIP3   OH212611   2.215   4.643   0.751 -0.1086 -0.2644  0.0632
 4202TIP3    H112612   2.176   4.729   0.735  1.0097  0.0816 -0.9426
 4202TIP3    H212613   2.148   4.595   0.800 -1.6326  0.4355 -1.2463
 4203TIP3   OH212614   2.663   0.262   1.619 -0.3872 -0.1247  0.0398
 4203TIP3    H112615   2.705   0.251   1.534 -2.3990  1.6584 -1.2697
 4203TIP3    H212616   2.658   0.356   1.632 -1.3214 -0.3429  1.5301
 4204TIP3   OH212617   1.004   5.237   3.229  0.0685 -0.0454 -0.5983
 4204TIP3    H112618   1.088   5.236   3.274  0.2912  0.1191 -1.0066
 4204TIP3    H212619   0.999   5.324   3.188 -1.4261  0.9471  1.5104
 4205TIP3   OH212620   5.173   3.927   1.848 -0.1373  0.1349 -0.6095
 4205TIP3    H112621   5.125   4.010   1.842 -0.3574  0.1714  1.2120
 4205TIP3    H212622   5.106   3.859   1.846 -0.2465  0.1526  1.0022
 4206TIP3   OH212623   3.538   0.629   4.175 -0.0774 -0.1553  0.0632
 4206TIP3    H112624   3.533   0.725   4.171  1.0553 -0.1415 -1.9742
 4206TIP3    H212625   3.467   0.599   4.118  1.0177 -0.4663 -1.1658
 4207TIP3   OH212626   2.746   4.696   0.527 -0.1047  0.1431  1.0707
 4207TIP3    H112627   2.721   4.739   0.445  1.1538  0.5523  0.8722
 4207TIP3    H212628   2.732   4.603   0.510  1.6722  0.0496 -0.2440
 4208TIP3   OH212629   5.452   3.689   1.154  0.6217 -0.4754 -0.0166
 4208TIP3    H112630   5.449   3.760   1.089  1.4531 -0.7379 -0.3478
 4208TIP3    H212631   5.374   3.703   1.207 -0.0889 -0.2636 -1.0757
 4209TIP3   OH212632   1.892   0.201   4.432  0.1676 -0.6956 -0.0757
 4209TIP3    H112633   1.848   0.116   4.428  0.7779 -1.0716  0.7552
 4209TIP3    H212634   1.948   0.202   4.354 -1.1048 -0.3043 -1.0196
 4210TIP3   OH212635   5.934   0.370   1.485 -0.3806 -0.0096  0.1016
 4210TIP3    H112636   6.022   0.338   1.505 -0.1169 -0.8329 -2.1425
 4210TIP3    H212637   5.903   0.407   1.568  1.6577 -0.6360  1.2151
 4211TIP3   OH212638   4.678   3.256   4.199  0.2203  0.0379  0.6272
 4211TIP3    H112639   4.665   3.325   4.264 -2.3279 -1.2145  1.5806
 4211TIP3    H212640   4.762   3.277   4.158  1.5157  1.4194  3.6642
 4212TIP3   OH212641   2.956   3.781   4.410 -0.4209  0.3202  0.5893
 4212TIP3    H112642   2.972   3.829   4.328 -0.8606  0.2968  0.4879
 4212TIP3    H212643   3.041   3.778   4.453  0.1667 -1.0555 -0.6000
 4213TIP3   OH212644   0.347   2.635   3.413  0.6854  0.1087 -0.1309
 4213TIP3    H112645   0.373   2.723   3.443  0.5701  0.1183 -0.0569
 4213TIP3    H212646   0.406   2.617   3.339  0.6611  0.2782 -0.1938
 4214TIP3   OH212647   5.791   2.957   1.193 -0.4828 -0.0254 -0.0028
 4214TIP3    H112648   5.736   2.956   1.114 -1.4411  1.1942  0.6221
 4214TIP3    H212649   5.866   2.902   1.170 -1.3293 -0.6850 -1.3355
 4215TIP3   OH212650   3.327   5.221   4.182  0.0539 -0.0074 -0.6496
 4215TIP3    H112651   3.391   5.232   4.111 -0.3032 -2.0233 -1.3503
 4215TIP3    H212652   3.377   5.181   4.253 -0.1720 -0.5933 -0.8110
 4216TIP3   OH212653   1.045   0.778   1.062  0.1083 -1.2995 -0.3101
 4216TIP3    H112654   1.109   0.736   1.005  2.7022  2.2128 -0.3327
 4216TIP3    H212655   1.019   0.857   1.015  0.8197  0.7028  2.4110
 4217TIP3   OH212656   2.292   4.710   0.407  0.3291  0.1607 -0.7663
 4217TIP3    H112657   2.246   4.777   0.355  0.2145  2.1159  1.6961
 4217TIP3    H212658   2.367   4.757   0.445  1.5146 -1.7122 -0.6871
 4218TIP3   OH212659   6.249   3.169   3.528 -0.3544 -0.1659  0.6908
 4218TIP3    H112660   6.173   3.219   3.498 -0.1558  1.1451  2.2410
 4218TIP3    H212661   6.306   3.234   3.569  1.1382 -1.2888  0.4879
 4219TIP3   OH212662   3.311   0.537   0.845 -0.3341  0.3468 -0.3824
 4219TIP3    H112663   3.388   0.594   0.843 -0.1911  0.1370 -0.9870
 4219TIP3    H212664   3.280   0.543   0.935  1.3310 -0.8024  0.3174
 4220TIP3   OH212665   4.199   1.048   5.028  0.1803 -0.1222  0.0744
 4220TIP3    H112666   4.115   1.089   5.005 -1.1752 -2.2070  0.9457
 4220TIP3    H212667   4.187   0.956   5.006  2.8603 -0.2360 -1.2447
 4221TIP3   OH212668   3.858   1.435   2.636 -0.4125  0.2673 -0.3130
 4221TIP3    H112669   3.773   1.479   2.622  0.1818  2.0332  1.2016
 4221TIP3    H212670   3.876   1.392   2.553 -2.6849  0.0361 -0.7553
 4222TIP3   OH212671   4.028   5.259   1.403 -0.0642  0.2680  0.8210
 4222TIP3    H112672   3.950   5.311   1.384 -1.1424 -1.6260 -0.1846
 4222TIP3    H212673   4.021   5.238   1.496 -0.1623  0.9901  0.9863
 4223TIP3   OH212674   4.883   4.605   2.559 -0.0103 -0.1576 -0.3691
 4223TIP3    H112675   4.917   4.636   2.643 -0.1576 -1.0918  0.0487
 4223TIP3    H212676   4.814   4.668   2.537 -0.2987 -0.1626  0.4510
 4224TIP3   OH212677   0.019   2.566   0.851 -0.2308 -0.4398  0.1445
 4224TIP3    H112678   0.089   2.605   0.799 -0.2243 -0.5722  0.0554
 4224TIP3    H212679   0.011   2.477   0.819 -0.2000 -0.5337  0.3975
 4225TIP3   OH212680   0.714   3.464   3.561  0.5311 -0.1589 -0.3950
 4225TIP3    H112681   0.632   3.439   3.603  1.0731  0.5544  1.1699
 4225TIP3    H212682   0.773   3.486   3.634  2.0686 -0.5036 -1.4755
 4226TIP3   OH212683   4.312   0.407   4.097  0.0501  0.6073 -0.9071
 4226TIP3    H112684   4.347   0.486   4.138  0.3314 -0.3099  0.7271
 4226TIP3    H212685   4.219   0.426   4.084 -0.1460  0.8240  0.5759
 4227TIP3   OH212686   5.175   3.222   0.073  0.5750  0.4745  0.1625
 4227TIP3    H112687   5.261   3.224   0.114  1.1449  0.4837 -0.9906
 4227TIP3    H212688   5.126   3.293   0.116  1.5353  1.2621 -0.0095
 4228TIP3   OH212689   0.266   2.166   3.274 -0.0364 -0.0344  0.4165
 4228TIP3    H112690   0.208   2.177   3.350 -1.4262  1.2626 -0.7612
 4228TIP3    H212691   0.271   2.253   3.235 -1.0858 -1.0203 -2.1509
 4229TIP3   OH212692   6.272   0.073   2.280  0.1826  0.1650 -0.1599
 4229TIP3    H112693   6.360   0.111   2.275  0.4753 -0.6153 -1.8845
 4229TIP3    H212694   6.272   0.020   2.359  0.5621  1.7538  0.9663
 4230TIP3   OH212695   5.646   4.380   2.837  0.7715 -0.5674 -0.0059
 4230TIP3    H112696   5.695   4.416   2.911 -0.6122 -1.4090  1.3717
 4230TIP3    H212697   5.714   4.355   2.774  1.9380  1.0452  0.5299
 4231TIP3   OH212698   5.482   4.027   0.612  0.4545 -0.3189  0.2721
 4231TIP3    H112699   5.533   3.946   0.605  0.6656 -0.2882  1.2728
 4231TIP3    H212700   5.390   3.998   0.613  0.4967 -0.4740 -0.2208
 4232TIP3   OH212701   0.444   3.043   1.654  0.0921  0.4104  0.0647
 4232TIP3    H112702   0.425   3.040   1.747 -0.2240  0.0044 -0.0089
 4232TIP3    H212703   0.510   2.975   1.640  0.1335  0.4646 -0.0062
 4233TIP3   OH212704   4.535   5.096   4.554 -0.0109  0.1658  0.0502
 4233TIP3    H112705   4.517   5.073   4.463  0.6057  1.0126 -0.3045
 4233TIP3    H212706   4.629   5.082   4.564  0.1801  1.4005  0.1334
 4234TIP3   OH212707   4.052   3.374   2.416 -0.2090 -0.2075 -0.3592
 4234TIP3    H112708   4.027   3.288   2.449 -1.4437 -0.1134 -0.9544
 4234TIP3    H212709   4.011   3.378   2.329 -0.3315  1.0465 -0.2582
 4235TIP3   OH212710   0.054   1.328   4.683  0.3688  0.5230  0.2246
 4235TIP3    H112711   0.027   1.247   4.639 -0.1109  1.4733 -1.3077
 4235TIP3    H212712   0.097   1.299   4.763 -0.4160 -1.2236  0.0545
 4236TIP3   OH212713   0.115   2.989   2.251  0.0687  0.0436 -0.1810
 4236TIP3    H112714   0.154   2.937   2.181 -0.4447  0.8030 -1.0563
 4236TIP3    H212715   0.025   2.957   2.256 -0.5522  1.5065 -1.4274
 4237TIP3   OH212716   1.151   5.770   5.130  0.2524 -0.5800 -0.1576
 4237TIP3    H112717   1.097   5.755   5.208  1.7055 -0.7717  0.8649
 4237TIP3    H212718   1.200   5.689   5.118  0.1232 -0.5159 -1.2292
 4238TIP3   OH212719   1.219   0.394   4.478 -0.5824 -0.1334  0.4744
 4238TIP3    H112720   1.284   0.462   4.494 -3.2581  2.5256  0.9913
 4238TIP3    H212721   1.226   0.336   4.554 -0.0667  1.1693  1.4627
 4239TIP3   OH212722   6.245   0.556   3.356 -0.1028 -0.0308  0.1461
 4239TIP3    H112723   6.325   0.607   3.369 -1.6387  1.9359  2.8960
 4239TIP3    H212724   6.183   0.592   3.419 -2.8423 -2.2316 -1.0736
 4240TIP3   OH212725   3.659   5.137   4.158 -0.3044  0.4512 -0.4507
 4240TIP3    H112726   3.593   5.134   4.227 -0.6248 -0.6474 -0.7878
 4240TIP3    H212727   3.741   5.118   4.202 -0.5624 -0.6651 -0.4029
 4241TIP3   OH212728   4.842   3.949   2.468  0.0280  0.2498 -0.8188
 4241TIP3    H112729   4.768   3.998   2.432 -0.0611 -0.4204 -1.5696
 4241TIP3    H212730   4.804   3.866   2.496  0.0598  0.8004  1.0248
 4242TIP3   OH212731   3.063   4.210   1.887  0.2053  0.3876 -0.4207
 4242TIP3    H112732   2.985   4.201   1.941  0.5871 -1.0075 -0.0659
 4242TIP3    H212733   3.044   4.159   1.808  0.6317  0.3083 -0.4756
 4243TIP3   OH212734   3.562   5.732   3.174  0.2436  0.2141  0.5644
 4243TIP3    H112735   3.516   5.710   3.255  0.3779 -1.3934  0.2339
 4243TIP3    H212736   3.530   5.668   3.111 -1.2632  2.5588 -1.2043
 4244TIP3   OH212737   3.950   1.363   3.833 -0.1646 -0.2038  0.3704
 4244TIP3    H112738   4.031   1.337   3.876  0.0887 -1.5338 -0.8141
 4244TIP3    H212739   3.883   1.353   3.900  0.5591  0.2846  1.1752
 4245TIP3   OH212740   5.132   2.803   2.175 -0.2705 -0.1590 -0.2066
 4245TIP3    H112741   5.152   2.883   2.127  0.9172  0.5398  1.3667
 4245TIP3    H212742   5.091   2.833   2.256 -1.6404 -1.2704 -0.4487
 4246TIP3   OH212743  -0.003   3.835   1.505  0.5695 -0.0981  0.3615
 4246TIP3    H112744  -0.026   3.928   1.502  2.4742  0.3901 -1.6760
 4246TIP3    H212745   0.081   3.832   1.552 -0.7409 -1.2021  2.8715
 4247TIP3   OH212746   4.634   0.387   3.654 -0.2261 -0.0133 -0.0012
 4247TIP3    H112747   4.641   0.334   3.734  1.1764  1.5629  0.9917
 4247TIP3    H212748   4.559   0.445   3.670  0.9156  1.2964  0.8613
 4248TIP3   OH212749   0.623   3.225   4.637  0.3326 -0.3999 -0.0068
 4248TIP3    H112750   0.616   3.316   4.668  0.0625 -0.7062  0.8786
 4248TIP3    H212751   0.712   3.219   4.602 -0.6557  1.0858 -3.1336
 4249TIP3   OH212752   5.844   5.812   2.267 -0.3826 -0.4490  0.4256
 4249TIP3    H112753   5.915   5.747   2.266 -2.9207 -3.4745  1.6341
 4249TIP3    H212754   5.819   5.819   2.359 -2.4372 -0.4704 -0.0778
 4250TIP3   OH212755   2.436   2.576   0.722 -0.1722 -0.0928  0.7297
 4250TIP3    H112756   2.523   2.553   0.689 -1.6425 -1.6465 -2.5703
 4250TIP3    H212757   2.441   2.670   0.738  1.4633  0.3763 -1.8835
 4251TIP3   OH212758   5.233   0.271   0.156 -0.0321  0.5483  0.1020
 4251TIP3    H112759   5.166   0.339   0.153 -0.4887  0.0932 -0.0410
 4251TIP3    H212760   5.215   0.224   0.237 -1.1786 -0.8757 -0.9365
 4252TIP3   OH212761   2.373   0.253   2.372  0.0879  0.3346  0.0869
 4252TIP3    H112762   2.339   0.251   2.283 -0.5901  2.9643  0.2231
 4252TIP3    H212763   2.397   0.344   2.387  1.2931 -0.2558  2.2166
 4253TIP3   OH212764   1.318   4.086   0.474 -0.2119  0.9332  0.1428
 4253TIP3    H112765   1.300   4.054   0.563  0.0560 -1.1274 -0.4831
 4253TIP3    H212766   1.409   4.062   0.458 -1.0205 -1.4078 -1.6561
 4254TIP3   OH212767   1.048   2.746   2.845 -0.0755 -0.4714  0.3573
 4254TIP3    H112768   0.968   2.744   2.897 -1.5945  0.7812 -1.7367
 4254TIP3    H212769   1.029   2.691   2.769  1.5788 -1.2380  0.4514
 4255TIP3   OH212770   5.212   4.728   3.885  0.2315 -0.1841 -0.4049
 4255TIP3    H112771   5.302   4.729   3.854 -0.3612  0.7146 -2.2155
 4255TIP3    H212772   5.160   4.750   3.808 -1.4385  0.7162  0.9174
 4256TIP3   OH212773   3.964   5.851   2.937 -0.2073 -0.1794  0.3347
 4256TIP3    H112774   4.013   5.855   2.855  0.3384 -0.2611  0.6555
 4256TIP3    H212775   3.874   5.834   2.910  0.0741 -0.8501 -0.2158
 4257TIP3   OH212776   2.273   5.574   3.957  0.3241 -0.1449  0.1421
 4257TIP3    H112777   2.340   5.572   4.025  0.8297 -2.1130 -0.3229
 4257TIP3    H212778   2.292   5.652   3.906  2.9161 -1.1296 -0.5450
 4258TIP3   OH212779   4.574   1.773   1.885 -0.0156 -0.0483 -0.6144
 4258TIP3    H112780   4.629   1.846   1.913 -0.4111  0.7534 -1.8141
 4258TIP3    H212781   4.628   1.724   1.823  0.5681 -1.3340  0.8440
 4259TIP3   OH212782   5.174   4.509   5.101  0.4481 -0.1884  0.1249
 4259TIP3    H112783   5.115   4.434   5.088  0.7137 -0.2975 -0.4769
 4259TIP3    H212784   5.205   4.499   5.191 -2.6810  1.4687  1.5363
 4260TIP3   OH212785   6.209   4.480   2.019 -0.2264  0.4048  0.7364
 4260TIP3    H112786   6.239   4.566   1.989 -0.2884  0.7164  1.5426
 4260TIP3    H212787   6.184   4.494   2.110 -0.0477 -0.5196  0.9354
 4261TIP3   OH212788   1.670   5.201   1.610  0.5279  0.1104 -0.4787
 4261TIP3    H112789   1.590   5.243   1.640  0.3766 -1.6653  1.8794
 4261TIP3    H212790   1.741   5.256   1.643  0.3025  0.4137 -0.5016
 4262TIP3   OH212791   5.567   3.712   4.092 -0.0035 -0.1332  0.5937
 4262TIP3    H112792   5.548   3.806   4.089  1.2122  0.0944 -1.0947
 4262TIP3    H212793   5.662   3.706   4.079 -0.2022 -1.6320 -0.3797
 4263TIP3   OH212794   0.424   2.228   0.174 -0.1874  0.0702  0.0016
 4263TIP3    H112795   0.433   2.267   0.087 -0.7000 -0.8976 -0.5081
 4263TIP3    H212796   0.341   2.180   0.170 -1.2893  1.7040  1.7028
 4264TIP3   OH212797   4.919   2.131   4.207 -0.2871  0.4025  0.2534
 4264TIP3    H112798   4.918   2.048   4.255  0.9643 -0.3885 -0.9629
 4264TIP3    H212799   4.849   2.122   4.142 -0.4427  0.4765  0.4129
 4265TIP3   OH212800   1.303   3.063   3.048 -0.3444  0.2697  0.0969
 4265TIP3    H112801   1.379   3.014   3.081  1.2428  2.6195  0.1393
 4265TIP3    H212802   1.333   3.101   2.965 -1.5945  0.9979 -0.0458
 4266TIP3   OH212803   1.153   2.717   1.687 -0.0658 -0.6797 -0.1014
 4266TIP3    H112804   1.167   2.780   1.758  0.3127  0.4536 -1.1368
 4266TIP3    H212805   1.196   2.637   1.716 -0.6536 -0.5228  1.3057
 4267TIP3   OH212806   5.722   1.828   4.374 -0.8296 -0.2340 -0.4349
 4267TIP3    H112807   5.700   1.757   4.313  0.6504 -0.3180 -0.9110
 4267TIP3    H212808   5.786   1.789   4.433 -1.3256  0.2130  0.4114
 4268TIP3   OH212809   6.274   0.561   4.787 -0.5295  0.8593  0.0939
 4268TIP3    H112810   6.259   0.591   4.877 -1.3341  2.3721 -0.5238
 4268TIP3    H212811   6.252   0.468   4.790 -0.8936  0.9629  1.3881
 4269TIP3   OH212812   2.524   1.598   4.246  0.1062  0.2031  0.0878
 4269TIP3    H112813   2.571   1.560   4.172 -0.4393  0.7022 -0.5265
 4269TIP3    H212814   2.553   1.690   4.248 -0.3765  0.3563  0.0905
 4270TIP3   OH212815   5.801   0.371   2.765 -0.0912  0.0181 -0.1239
 4270TIP3    H112816   5.814   0.408   2.852 -0.6591  0.2605 -0.1346
 4270TIP3    H212817   5.710   0.394   2.742 -0.5344 -1.5470 -0.0546
 4271TIP3   OH212818   4.942   3.921   0.606 -0.1622 -0.4514 -0.3629
 4271TIP3    H112819   4.985   3.882   0.681 -0.1635 -0.5868 -0.4333
 4271TIP3    H212820   4.948   4.016   0.621  0.2451 -0.4669 -0.4215
 4272TIP3   OH212821   6.160   2.839   0.185  0.1255 -0.0440 -0.7239
 4272TIP3    H112822   6.220   2.879   0.123 -0.1752  1.1817 -0.2658
 4272TIP3    H212823   6.190   2.749   0.195  2.5222  0.7914  0.2698
 4273TIP3   OH212824   6.030   4.486   2.910 -0.4158  0.6282 -0.5412
 4273TIP3    H112825   6.017   4.581   2.909  0.1772  0.7122 -1.1220
 4273TIP3    H212826   6.058   4.465   2.821  0.8378  0.1189 -0.0478
 4274TIP3   OH212827   3.490   5.594   0.482 -0.3999  0.0821  0.6589
 4274TIP3    H112828   3.580   5.572   0.458 -0.9175 -0.3465 -1.0307
 4274TIP3    H212829   3.478   5.684   0.452 -1.2324 -0.6494 -1.3992
 4275TIP3   OH212830   0.395   2.082   1.800 -0.7505 -0.0596 -0.0452
 4275TIP3    H112831   0.446   2.016   1.848 -1.3598 -0.6212 -0.1577
 4275TIP3    H212832   0.370   2.039   1.719  0.4607  0.9707 -0.9923
 4276TIP3   OH212833   5.780   5.694   3.120 -0.7385  0.1125 -0.3300
 4276TIP3    H112834   5.739   5.622   3.071 -0.0009 -0.9884  0.6133
 4276TIP3    H212835   5.739   5.689   3.207  1.3111 -1.0192  0.6393
 4277TIP3   OH212836   0.758   4.922   3.190 -0.2673  0.1959  0.3791
 4277TIP3    H112837   0.839   4.946   3.144 -2.2377  1.7160 -2.5685
 4277TIP3    H212838   0.765   4.965   3.275  1.7725  0.7321 -0.0058
 4278TIP3   OH212839   0.096   2.075   2.749  0.7445  0.3860 -0.6693
 4278TIP3    H112840   0.094   2.133   2.826  0.1349 -0.9247  0.3518
 4278TIP3    H212841   0.116   1.989   2.786 -2.2806 -0.8330 -1.5709
 4279TIP3   OH212842   5.559   5.754   3.937 -0.1396 -0.4293 -0.2582
 4279TIP3    H112843   5.490   5.716   3.991  0.6336 -0.0967  1.0062
 4279TIP3    H212844   5.600   5.679   3.895  0.7879 -0.9707  1.5093
 4280TIP3   OH212845   2.567   4.094   3.008  0.4398  0.0062 -0.4448
 4280TIP3    H112846   2.644   4.121   2.957  0.7041  1.3424  0.5918
 4280TIP3    H212847   2.562   4.158   3.079 -1.3873 -0.3119 -0.2356
 4281TIP3   OH212848   5.028   0.518   1.086 -0.3162 -0.5263 -0.2207
 4281TIP3    H112849   5.017   0.613   1.088  2.4064 -0.1184  2.7470
 4281TIP3    H212850   4.941   0.484   1.067 -1.2935  2.5106 -1.8399
 4282TIP3   OH212851   3.486   5.539   4.843  0.4277 -0.5838 -0.7657
 4282TIP3    H112852   3.530   5.494   4.771 -0.2750 -0.2163 -1.4417
 4282TIP3    H212853   3.541   5.615   4.862  1.3058 -1.3905 -0.0202
 4283TIP3   OH212854   2.335   3.193   3.558 -0.1533 -0.3669  0.4364
 4283TIP3    H112855   2.273   3.238   3.500  2.6227  1.1632 -1.5354
 4283TIP3    H212856   2.346   3.107   3.520 -2.1489 -1.2946  1.7363
 4284TIP3   OH212857   1.512   2.877   3.065 -0.3719 -0.5309 -0.7431
 4284TIP3    H112858   1.536   2.884   2.973 -0.1866  1.2642 -0.5992
 4284TIP3    H212859   1.595   2.861   3.110  0.1355  1.9560 -0.6160
 4285TIP3   OH212860   3.533   3.585   4.475 -0.7255  0.4641  0.1109
 4285TIP3    H112861   3.488   3.568   4.392 -1.1405 -0.6832  0.5457
 4285TIP3    H212862   3.556   3.498   4.508  0.4443  0.9619  0.6602
 4286TIP3   OH212863   4.918   1.987   4.566  0.2303  0.1163 -0.1771
 4286TIP3    H112864   4.867   1.970   4.487  0.7017 -0.9038 -0.2717
 4286TIP3    H212865   4.853   1.987   4.637 -0.0243 -0.2236 -0.4077
 4287TIP3   OH212866   5.220   4.432   1.994 -0.1753  0.7258 -0.7879
 4287TIP3    H112867   5.132   4.397   2.012  0.3113 -1.6296 -2.4263
 4287TIP3    H212868   5.279   4.371   2.039  0.6505  1.4938 -0.8172
 4288TIP3   OH212869   3.932   1.201   0.212 -0.6201 -0.3739 -0.0439
 4288TIP3    H112870   3.859   1.144   0.189 -1.3446  0.3036  0.5126
 4288TIP3    H212871   3.945   1.188   0.305  0.2611 -0.7975 -0.2140
 4289TIP3   OH212872   3.022   5.547   3.088 -0.9834 -0.2415 -0.8718
 4289TIP3    H112873   3.058   5.610   3.025 -0.5128  1.8639  1.3431
 4289TIP3    H212874   3.014   5.596   3.169 -2.0325 -2.6884  0.6285
 4290TIP3   OH212875   1.166   4.837   2.992  0.3514 -0.1989 -0.7050
 4290TIP3    H112876   1.255   4.868   3.008  0.3081 -0.2323 -0.3973
 4290TIP3    H212877   1.110   4.905   3.029  0.2537 -0.6093 -0.0953
 4291TIP3   OH212878   3.175   5.372   2.176  0.4426  0.0669 -0.1504
 4291TIP3    H112879   3.084   5.392   2.199  1.1302  2.1354  1.0898
 4291TIP3    H212880   3.197   5.437   2.109  0.9179 -0.6602 -0.7085
 4292TIP3   OH212881   6.259   5.200   0.123 -0.6913  0.2993 -0.4382
 4292TIP3    H112882   6.197   5.131   0.100  0.4712 -0.7862 -0.3892
 4292TIP3    H212883   6.241   5.270   0.061 -1.5326 -0.2556 -0.8349
 4293TIP3   OH212884   0.653   1.740   3.387 -0.6445 -0.3160  0.3006
 4293TIP3    H112885   0.681   1.816   3.437  1.0875  0.3891 -1.5612
 4293TIP3    H212886   0.733   1.687   3.377 -1.0895 -0.7824 -1.0545
 4294TIP3   OH212887   2.218   4.867   3.337  0.8846  0.1335 -0.6736
 4294TIP3    H112888   2.189   4.844   3.426 -0.9289  1.8711 -0.7549
 4294TIP3    H212889   2.185   4.795   3.282  0.5610 -0.1230 -0.1585
 4295TIP3   OH212890   1.031   3.353   1.407  0.4523  0.1304  0.9684
 4295TIP3    H112891   1.065   3.278   1.455 -1.4257 -0.8930  0.7542
 4295TIP3    H212892   0.953   3.380   1.454 -0.4503  0.2021 -0.5097
 4296TIP3   OH212893   3.697   0.589   3.851 -0.7658 -0.0805 -0.0283
 4296TIP3    H112894   3.666   0.596   3.760 -0.4189  0.5989 -0.0977
 4296TIP3    H212895   3.637   0.527   3.891 -1.3533  0.1385 -0.5445
 4297TIP3   OH212896   3.896   4.374   5.006 -0.3104 -0.1838  0.2858
 4297TIP3    H112897   3.952   4.427   4.950 -0.4863  0.7020  0.9234
 4297TIP3    H212898   3.849   4.317   4.945  1.9346 -1.6354 -0.1915
 4298TIP3   OH212899   4.196   2.199   4.115  0.2459 -0.4726 -0.3582
 4298TIP3    H112900   4.184   2.104   4.116  3.1870 -1.0111  2.2428
 4298TIP3    H212901   4.289   2.211   4.134  0.0438  2.9761 -0.9056
 4299TIP3   OH212902   4.929   2.032   1.585  0.3056  0.2711 -0.2809
 4299TIP3    H112903   4.993   2.091   1.545  0.4700 -0.7669 -1.6253
 4299TIP3    H212904   4.937   1.950   1.536 -1.4814 -0.1637  0.0647
 4300TIP3   OH212905   3.517   3.919   2.205 -0.5111 -0.2372 -0.3566
 4300TIP3    H112906   3.464   3.908   2.126 -1.7903  3.4268 -0.2056
 4300TIP3    H212907   3.463   3.974   2.262  1.8910  0.3338  1.5062
 4301TIP3   OH212908   3.733   4.572   4.287  0.4450 -0.3478  0.0148
 4301TIP3    H112909   3.659   4.588   4.229 -1.5133  0.4984  2.5255
 4301TIP3    H212910   3.726   4.480   4.311  0.4470 -0.3710 -0.0759
 4302TIP3   OH212911   2.356   0.052   0.552 -0.4405  0.3216  0.0917
 4302TIP3    H112912   2.436   0.075   0.506  0.0072  1.9145  1.5527
 4302TIP3    H212913   2.303   0.007   0.487  1.4844 -0.4807 -1.0127
 4303TIP3   OH212914   0.969   2.042   3.728  0.0289  0.1909  0.3023
 4303TIP3    H112915   0.889   2.094   3.723  0.2751  0.5552  0.1551
 4303TIP3    H212916   1.026   2.077   3.660  1.1109  1.2981  1.7196
 4304TIP3   OH212917   0.254   1.002   2.254 -0.3273 -0.3302  0.3245
 4304TIP3    H112918   0.336   1.048   2.234  0.4066 -0.7842  2.0904
 4304TIP3    H212919   0.194   1.071   2.281 -0.2619 -0.0851 -0.1421
 4305TIP3   OH212920   2.030   1.219   0.686  0.3205  0.0940  0.2832
 4305TIP3    H112921   2.051   1.287   0.750  1.5626 -0.9576  1.0439
 4305TIP3    H212922   2.020   1.266   0.603  1.0804  1.2149  0.8131
 4306TIP3   OH212923   2.437   5.763   1.409 -0.4191 -0.1142 -0.1516
 4306TIP3    H112924   2.438   5.781   1.503 -2.4711  0.8242 -0.2574
 4306TIP3    H212925   2.425   5.849   1.368  3.0096 -0.1143 -1.4872
 4307TIP3   OH212926   3.456   2.969   3.030 -0.8363  0.2852  0.3839
 4307TIP3    H112927   3.362   2.969   3.049 -0.7813 -0.2291  0.6844
 4307TIP3    H212928   3.462   2.939   2.940 -0.9522  0.1763  0.4125
 4308TIP3   OH212929   5.911   0.937   3.106  0.7064 -0.2959  0.6380
 4308TIP3    H112930   5.903   1.009   3.044  0.0373  0.2688  1.3500
 4308TIP3    H212931   5.979   0.880   3.069  0.9957  0.5145 -0.1116
 4309TIP3   OH212932   5.002   5.316   2.507 -0.4459  0.5941 -0.0215
 4309TIP3    H112933   5.088   5.331   2.468 -0.5009 -1.8547 -1.2332
 4309TIP3    H212934   4.957   5.400   2.496  0.4220  0.8042 -3.0558
 4310TIP3   OH212935   2.236   1.642   1.165 -0.5255  0.2019  0.3680
 4310TIP3    H112936   2.143   1.648   1.142 -0.5082  1.1064  0.5026
 4310TIP3    H212937   2.238   1.647   1.260 -0.5003 -2.2748  0.5521
 4311TIP3   OH212938   4.858   5.522   4.367 -0.3749  0.0223 -0.4064
 4311TIP3    H112939   4.894   5.482   4.447 -1.5153 -2.1359 -0.9051
 4311TIP3    H212940   4.876   5.616   4.378 -1.4090 -0.0231  2.8994
 4312TIP3   OH212941   2.278   1.500   3.676  0.0931  0.6253 -0.3233
 4312TIP3    H112942   2.211   1.469   3.737  0.7608  1.0957  0.6887
 4312TIP3    H212943   2.328   1.564   3.727  1.7796 -0.2464 -0.8022
 4313TIP3   OH212944   3.396   2.191   1.193 -0.0832 -0.0352  0.1109
 4313TIP3    H112945   3.383   2.096   1.191 -0.8055  0.0635 -0.4234
 4313TIP3    H212946   3.308   2.227   1.182  0.2962  0.6918 -0.6453
 4314TIP3   OH212947   1.485   1.516   2.874 -0.6061  0.2159  0.2126
 4314TIP3    H112948   1.547   1.587   2.890 -1.5699  1.0878  0.1710
 4314TIP3    H212949   1.525   1.465   2.804 -0.8519  1.9316 -1.2652
 4315TIP3   OH212950   1.570   1.292   3.237  0.2833 -0.0628 -0.4249
 4315TIP3    H112951   1.509   1.353   3.195 -1.4106 -0.4409  1.3415
 4315TIP3    H212952   1.561   1.211   3.186  0.8108  0.4581 -1.3740
 4316TIP3   OH212953   0.106   3.874   3.057 -0.3008  0.0072 -0.8240
 4316TIP3    H112954   0.041   3.928   3.012 -0.9846 -0.8077 -0.8304
 4316TIP3    H212955   0.189   3.898   3.016 -0.6761  0.5819 -1.2729
 4317TIP3   OH212956   5.390   1.243   2.279 -0.2766 -0.2336 -0.1749
 4317TIP3    H112957   5.449   1.288   2.219 -0.5176  1.3726  0.7274
 4317TIP3    H212958   5.446   1.216   2.352 -0.2140 -1.0403 -0.5102
 4318TIP3   OH212959   3.182   0.432   3.642 -0.0855 -0.4219  0.6082
 4318TIP3    H112960   3.194   0.440   3.548 -0.7101 -0.7225  0.4924
 4318TIP3    H212961   3.242   0.496   3.681  0.9720 -1.0485  0.0536
 4319TIP3   OH212962   2.463   4.840   3.236 -0.0416  0.2059 -0.4908
 4319TIP3    H112963   2.441   4.754   3.200 -1.4551  0.7630 -1.0506
 4319TIP3    H212964   2.382   4.869   3.279  0.5945  1.0128  0.2058
 4320TIP3   OH212965   2.054   5.430   4.161  0.2701 -0.2169  0.0450
 4320TIP3    H112966   2.035   5.515   4.122  1.4535  0.2417  0.4393
 4320TIP3    H212967   2.138   5.441   4.204 -1.4329 -0.2866  3.8696
 4321TIP3   OH212968   5.953   4.526   0.144 -0.2236  0.7074 -0.4456
 4321TIP3    H112969   5.883   4.462   0.134  0.1021  0.2605  0.0136
 4321TIP3    H212970   6.022   4.496   0.084  0.0627  0.4252  0.0149
 4322TIP3   OH212971   4.878   3.435   4.974 -0.1398  0.2056 -1.0204
 4322TIP3    H112972   4.845   3.485   4.900 -0.5548  1.8219  0.1927
 4322TIP3    H212973   4.812   3.368   4.989 -1.3067  1.3950 -0.6333
 4323TIP3   OH212974   1.038   3.671   2.530  0.5587  0.3122  0.1909
 4323TIP3    H112975   1.074   3.760   2.527 -0.2475  0.6527  0.2336
 4323TIP3    H212976   0.998   3.659   2.443  0.1695  0.2144  0.3802
 4324TIP3   OH212977   2.961   5.420   5.023 -0.2813  0.0755  1.2237
 4324TIP3    H112978   2.943   5.339   5.070 -0.6660 -1.9782 -2.1069
 4324TIP3    H212979   3.056   5.424   5.016 -0.2810 -0.5364  0.7772
 4325TIP3   OH212980   5.251   1.490   0.090  0.3673  0.1813  0.1913
 4325TIP3    H112981   5.183   1.483   0.157  0.3067  1.3008  0.2569
 4325TIP3    H212982   5.209   1.532   0.016 -0.3148 -3.3710 -1.6620
 4326TIP3   OH212983   3.303   1.382   1.775 -0.0634  0.2843  0.6457
 4326TIP3    H112984   3.217   1.406   1.810 -0.6742 -0.0745 -0.5528
 4326TIP3    H212985   3.306   1.422   1.689  0.9942  0.3128  0.6844
 4327TIP3   OH212986   5.057   3.909   2.309 -0.2493  0.0381  1.3753
 4327TIP3    H112987   4.974   3.919   2.356 -0.0722 -0.4506  1.8028
 4327TIP3    H212988   5.112   3.859   2.369 -0.0982 -0.8128  0.5432
 4328TIP3   OH212989   3.169   4.627   4.698  0.6540  0.3543  0.4922
 4328TIP3    H112990   3.143   4.542   4.663 -0.4902  0.5306  0.8714
 4328TIP3    H212991   3.170   4.614   4.793  1.8897  0.3901  0.5021
 4329TIP3   OH212992   6.113   3.821   4.503  0.1855  0.3737 -0.0497
 4329TIP3    H112993   6.175   3.822   4.430  1.2438  0.7711  0.8283
 4329TIP3    H212994   6.080   3.731   4.504  0.9412  0.0764 -0.3811
 4330TIP3   OH212995   4.666   4.985   0.407 -0.2321 -0.3438  0.9192
 4330TIP3    H112996   4.609   5.054   0.372  0.5952  0.2917  0.8037
 4330TIP3    H212997   4.649   4.909   0.351  1.5742  0.8301 -1.4093
 4331TIP3   OH212998   4.048   5.909   0.059 -0.3324 -0.4809 -0.2956
 4331TIP3    H112999   4.075   5.817   0.067  1.0504 -0.0378  0.5448
 4331TIP3    H213000   3.953   5.906   0.065 -0.2610 -1.7668  0.8473
 4332TIP3   OH213001   5.423   4.206   3.463 -0.3858 -0.6069  0.7657
 4332TIP3    H113002   5.358   4.259   3.508 -2.0735 -1.0421 -1.0686
 4332TIP3    H213003   5.506   4.232   3.503 -1.2912  2.2884  0.9673
 4333TIP3   OH213004   4.064   0.272   0.228  0.2147 -0.0544  0.1294
 4333TIP3    H113005   4.012   0.326   0.287 -0.0937 -0.3062  0.0924
 4333TIP3    H213006   4.038   0.301   0.140  0.4007  0.0659  0.1141
 4334TIP3   OH213007   4.136   3.593   1.682 -0.4190 -0.0005 -0.2154
 4334TIP3    H113008   4.217   3.638   1.662  0.6798 -1.5590  0.5192
 4334TIP3    H213009   4.090   3.650   1.743  0.7850  0.2676  0.4588
 4335TIP3   OH213010   3.852   1.426   4.339 -0.0642  0.0488  0.0046
 4335TIP3    H113011   3.869   1.482   4.415 -0.7464 -0.0075  0.2035
 4335TIP3    H213012   3.936   1.383   4.322  0.6077  1.4451 -0.4266
 4336TIP3   OH213013   1.347   0.913   2.473 -0.0228 -0.4682 -0.0016
 4336TIP3    H113014   1.310   0.850   2.411  0.1753 -0.6826  0.0927
 4336TIP3    H213015   1.341   0.997   2.429 -0.4882 -0.5229 -0.0423
 4337TIP3   OH213016   3.330   3.999   1.726 -0.0994 -0.1876  0.5986
 4337TIP3    H113017   3.334   3.945   1.647  1.4921  0.2735  0.3319
 4337TIP3    H213018   3.243   4.038   1.725 -0.2022 -0.4343 -0.7641
 4338TIP3   OH213019   0.849   4.632   1.319 -0.1076  0.1387  0.1929
 4338TIP3    H113020   0.853   4.660   1.227  1.3361  0.4488  0.3279
 4338TIP3    H213021   0.900   4.552   1.322 -1.5581 -0.8091  0.4314
 4339TIP3   OH213022   0.832   1.405   3.466 -0.6638  0.2079 -0.0984
 4339TIP3    H113023   0.890   1.475   3.495 -1.1796  0.9240 -0.7656
 4339TIP3    H213024   0.832   1.411   3.370 -1.5841  0.0134 -0.1207
 4340TIP3   OH213025   4.246   1.347   0.098  0.0942  0.1130  0.4809
 4340TIP3    H113026   4.185   1.403   0.051  0.6595 -0.4568 -0.9947
 4340TIP3    H213027   4.298   1.407   0.151  0.0203  0.8747 -0.2931
 4341TIP3   OH213028   6.118   0.838   5.006 -0.1664 -0.5152 -0.3199
 4341TIP3    H113029   6.182   0.887   5.056  1.4931 -1.6637 -1.2270
 4341TIP3    H213030   6.146   0.747   5.014 -2.7014 -1.3122  0.6764
 4342TIP3   OH213031   4.300   0.898   3.439  0.7156 -0.9230 -0.9438
 4342TIP3    H113032   4.367   0.936   3.382  0.5672  0.6802 -0.1154
 4342TIP3    H213033   4.348   0.867   3.516  0.7861 -2.1140 -1.4467
 4343TIP3   OH213034   2.217   4.728   2.884 -0.0754  0.4008 -0.2421
 4343TIP3    H113035   2.228   4.794   2.816  0.2996  0.3261 -0.2559
 4343TIP3    H213036   2.301   4.682   2.888 -0.4567 -0.3501 -0.5222
 4344TIP3   OH213037   4.463   5.303   0.721  0.5319  0.0310  0.3178
 4344TIP3    H113038   4.461   5.395   0.748  0.0827 -0.0565  0.6011
 4344TIP3    H213039   4.494   5.305   0.631  1.8289  0.3580  0.7401
 4345TIP3   OH213040   5.453   2.450   4.658 -0.4318  0.1293 -0.6633
 4345TIP3    H113041   5.361   2.469   4.639 -0.4521  0.2701 -0.4296
 4345TIP3    H213042   5.498   2.461   4.574 -0.7414 -0.6805 -0.9389
 4346TIP3   OH213043   3.735   1.644   1.301  0.3399  0.5820 -0.4993
 4346TIP3    H113044   3.798   1.695   1.353  0.7957 -0.5974  0.1429
 4346TIP3    H213045   3.764   1.553   1.311 -0.0692  0.2375 -2.1424
 4347TIP3   OH213046   3.679   1.767   4.995 -0.6221 -0.8171  0.4305
 4347TIP3    H113047   3.638   1.690   4.954 -1.5884  0.3532 -0.8972
 4347TIP3    H213048   3.620   1.791   5.066 -1.1051 -0.4325 -0.0955
 4348TIP3   OH213049   4.127   5.335   2.900  0.1072 -0.1323  0.0556
 4348TIP3    H113050   4.054   5.388   2.931 -1.9161 -1.9749 -1.2808
 4348TIP3    H213051   4.132   5.353   2.806  0.6515 -0.8817 -0.0692
 4349TIP3   OH213052   2.399   0.793   2.117  0.1572 -0.2508 -0.3932
 4349TIP3    H113053   2.409   0.883   2.088  0.3095  0.0147  0.4600
 4349TIP3    H213054   2.460   0.743   2.062 -0.7745 -0.0190 -1.6714
 4350TIP3   OH213055   4.170   2.783   4.631 -0.3860  0.0860  0.0994
 4350TIP3    H113056   4.078   2.767   4.609 -0.5681  1.3052 -0.1029
 4350TIP3    H213057   4.204   2.698   4.658 -1.6732 -0.3039  0.5384
 4351TIP3   OH213058   1.340   1.035   3.004  0.2369 -0.3827 -0.1696
 4351TIP3    H113059   1.284   1.011   3.078  0.4519  0.6273  0.3485
 4351TIP3    H213060   1.285   1.023   2.927 -0.0737 -1.2121  0.1734
 4352TIP3   OH213061   3.482   4.546   5.083  0.2179  0.2032  1.3178
 4352TIP3    H113062   3.461   4.454   5.069  0.4827  0.3188  0.0692
 4352TIP3    H213063   3.574   4.546   5.110  0.1237  0.0817  1.6429
 4353TIP3   OH213064   2.936   5.643   1.197 -0.3384  0.4719  0.5369
 4353TIP3    H113065   2.863   5.603   1.149  1.4015  1.0142 -2.8770
 4353TIP3    H213066   2.895   5.708   1.253 -2.6073 -0.6533  0.2923
 4354TIP3   OH213067   0.808   1.507   3.183 -0.5893  0.4615 -0.3795
 4354TIP3    H113068   0.799   1.574   3.115 -0.4242  0.8407 -0.0360
 4354TIP3    H213069   0.722   1.466   3.189 -0.2709 -0.4638 -1.7122
 4355TIP3   OH213070   5.286   1.990   0.533  0.1783 -0.0615 -0.4445
 4355TIP3    H113071   5.362   2.045   0.553 -0.5762  1.1036 -0.6772
 4355TIP3    H213072   5.309   1.946   0.451 -0.5885  2.7423 -2.3257
 4356TIP3   OH213073   3.231   1.722   2.031  0.1687 -0.1161  0.0065
 4356TIP3    H113074   3.199   1.702   1.943 -1.6589  1.1192  0.3303
 4356TIP3    H213075   3.153   1.751   2.078  1.7169  3.0716  0.8853
 4357TIP3   OH213076   0.921   0.902   1.431  0.1033 -0.6601  0.0683
 4357TIP3    H113077   0.963   0.844   1.494  0.2387  0.3434  0.9193
 4357TIP3    H213078   0.830   0.907   1.460  0.2960  0.2576  0.5337
 4358TIP3   OH213079   2.255   4.753   2.052 -0.1889  0.1235 -0.2071
 4358TIP3    H113080   2.338   4.778   2.093 -0.1540 -0.4590  0.0923
 4358TIP3    H213081   2.278   4.735   1.960  0.0123 -0.0099 -0.1312
 4359TIP3   OH213082   3.553   3.833   2.591 -0.4661 -0.3465 -0.1229
 4359TIP3    H113083   3.579   3.801   2.505 -0.2507  1.2493 -0.6846
 4359TIP3    H213084   3.636   3.849   2.637 -0.5532  0.2014 -0.1578
 4360TIP3   OH213085   3.583   3.756   1.399 -0.6660 -0.1835  0.2815
 4360TIP3    H113086   3.543   3.690   1.342  0.4364 -0.4228 -0.2356
 4360TIP3    H213087   3.509   3.792   1.448 -1.5868 -0.2976 -0.9539
 4361TIP3   OH213088   5.387   1.563   1.416 -0.1982 -0.0913 -0.6011
 4361TIP3    H113089   5.460   1.583   1.475 -0.2985 -0.6079 -0.2920
 4361TIP3    H213090   5.424   1.502   1.352 -0.4607 -0.6903 -0.1912
 4362TIP3   OH213091   6.280   0.639   5.088  0.3045 -0.2265 -0.1097
 4362TIP3    H113092   6.372   0.658   5.107  0.7328 -2.1083 -0.1811
 4362TIP3    H213093   6.268   0.548   5.113 -2.0552  0.4754  1.6407
 4363TIP3   OH213094   4.386   0.065   2.176  0.1084  0.1396 -0.2259
 4363TIP3    H113095   4.299   0.054   2.215  1.3020 -0.8424  2.3670
 4363TIP3    H213096   4.408   0.156   2.191  0.1727 -0.0082  0.6127
 4364TIP3   OH213097   0.066   2.967   4.658 -0.4195 -0.5859 -0.1759
 4364TIP3    H113098   0.021   2.904   4.600 -0.5533  0.1015 -0.8465
 4364TIP3    H213099   0.157   2.963   4.631 -0.3153 -0.9521  0.2202
 4365TIP3   OH213100   5.976   2.354   2.243 -0.1796 -0.0512 -0.3213
 4365TIP3    H113101   6.017   2.269   2.259 -0.2900  0.1589  1.3601
 4365TIP3    H213102   5.946   2.350   2.153  0.9386 -1.3108 -0.6717
 4366TIP3   OH213103   0.090   2.702   4.886  0.2099 -0.7150  0.3933
 4366TIP3    H113104   0.056   2.624   4.843  0.5059 -0.5553 -0.1336
 4366TIP3    H213105   0.180   2.680   4.908  1.6779  0.7827 -3.2991
 4367TIP3   OH213106   3.894   0.777   0.459 -0.2270  0.5005  0.1092
 4367TIP3    H113107   3.944   0.715   0.513  0.0178 -0.4659 -1.1790
 4367TIP3    H213108   3.961   0.830   0.416 -0.3487  0.1156 -0.5641
 4368TIP3   OH213109   5.364   2.247   3.718 -0.3039  0.1010  0.0277
 4368TIP3    H113110   5.295   2.182   3.705 -0.6748  0.5232 -0.1512
 4368TIP3    H213111   5.436   2.217   3.663 -0.5857  0.0035 -0.2892
 4369TIP3   OH213112   5.941   1.529   2.057  0.5203  0.2962 -0.2940
 4369TIP3    H113113   5.925   1.462   1.990 -1.5465 -0.6127  0.9779
 4369TIP3    H213114   5.886   1.603   2.031  1.2707  0.7405 -0.6436
 4370TIP3   OH213115   1.288   2.882   4.989  0.4033 -0.8387 -0.6406
 4370TIP3    H113116   1.259   2.909   4.902  0.2368 -2.8043 -1.2524
 4370TIP3    H213117   1.380   2.910   4.994  0.4509 -0.8256 -1.4916
 4371TIP3   OH213118   3.912   5.535   0.649 -0.0177 -0.1394 -0.8980
 4371TIP3    H113119   3.933   5.611   0.593 -1.3128 -0.5652 -2.0357
 4371TIP3    H213120   3.958   5.462   0.608  1.0335 -0.0334  0.0592
 4372TIP3   OH213121   4.675   2.822   3.652 -0.3795  0.1715  0.0347
 4372TIP3    H113122   4.641   2.887   3.591  0.0230  0.6079  0.2691
 4372TIP3    H213123   4.762   2.801   3.619 -0.5237 -0.2809 -0.0643
 4373TIP3   OH213124   4.246   3.281   1.069  0.0446  0.1475 -0.0256
 4373TIP3    H113125   4.282   3.193   1.080 -0.5672 -0.1417 -0.2814
 4373TIP3    H213126   4.274   3.309   0.982 -1.4774 -0.6458 -0.8239
 4374TIP3   OH213127   1.837   3.076   2.505  0.2457 -0.1211  0.6114
 4374TIP3    H113128   1.896   3.002   2.490 -0.3242 -0.5606  0.5183
 4374TIP3    H213129   1.759   3.037   2.544  1.0231  0.7776  3.2336
 4375TIP3   OH213130   5.331   2.757   2.848 -0.7443 -0.3939 -0.8428
 4375TIP3    H113131   5.405   2.810   2.819 -1.4963  0.0036 -2.0872
 4375TIP3    H213132   5.270   2.820   2.886 -0.8934 -0.5972 -0.7430
 4376TIP3   OH213133   5.238   5.910   0.506 -0.0736  0.0521 -0.3745
 4376TIP3    H113134   5.323   5.907   0.550  0.2839 -1.1061 -1.1316
 4376TIP3    H213135   5.246   5.850   0.433 -1.5486 -0.0541 -0.4707
 4377TIP3   OH213136   3.448   4.812   5.055 -0.1605 -0.0383 -0.1065
 4377TIP3    H113137   3.522   4.848   5.007 -0.0664 -0.2521 -0.1257
 4377TIP3    H213138   3.473   4.721   5.072 -0.3442 -0.0626  0.0378
 4378TIP3   OH213139   2.353   0.268   1.663  0.1771 -0.3739  0.4905
 4378TIP3    H113140   2.368   0.202   1.596  1.7720  0.1058  0.3515
 4378TIP3    H213141   2.438   0.281   1.705  0.2476  2.4227 -0.2609
 4379TIP3   OH213142   4.177   1.197   1.343 -0.1945 -0.7313 -0.3479
 4379TIP3    H113143   4.087   1.196   1.309  0.2853  1.5970 -1.8902
 4379TIP3    H213144   4.232   1.181   1.266  0.7598 -0.3683  0.2395
 4380TIP3   OH213145   1.787   4.596   4.798 -0.1058 -0.2178  0.1843
 4380TIP3    H113146   1.708   4.547   4.819  0.3970  0.0634  3.3340
 4380TIP3    H213147   1.789   4.667   4.863  0.2140  2.8711 -2.9025
 4381TIP3   OH213148   5.576   4.459   3.772  0.0067 -0.1360  0.0769
 4381TIP3    H113149   5.598   4.551   3.783 -1.4403  0.5259 -1.9999
 4381TIP3    H213150   5.484   4.459   3.743  0.3099 -2.1314 -1.0847
 4382TIP3   OH213151   0.829   3.635   2.041 -0.7567  0.2887  0.0730
 4382TIP3    H113152   0.747   3.591   2.019 -0.9373  0.8274 -0.3466
 4382TIP3    H213153   0.896   3.587   1.993 -0.5855 -1.1777  1.6700
 4383TIP3   OH213154   3.224   3.177   1.993  0.0857  0.2867 -0.2393
 4383TIP3    H113155   3.138   3.173   1.951  0.4029 -0.8100 -0.8252
 4383TIP3    H213156   3.235   3.269   2.018 -1.0646  0.5170 -0.5490
 4384TIP3   OH213157   2.956   4.109   1.647 -0.1536  0.2652 -0.2250
 4384TIP3    H113158   2.894   4.042   1.619 -1.3102  0.9986  0.4751
 4384TIP3    H213159   3.014   4.121   1.572 -2.4696  1.4094 -1.9788
 4385TIP3   OH213160   5.003   2.294   3.583  0.4208  0.0084  0.6257
 4385TIP3    H113161   5.070   2.254   3.527  0.2229 -0.0417  0.4232
 4385TIP3    H213162   4.943   2.336   3.522  0.3005  0.1041  0.8100
 4386TIP3   OH213163   4.919   2.270   2.808 -0.0992 -0.7781  0.2522
 4386TIP3    H113164   4.941   2.258   2.715 -2.1907 -0.5389 -0.3225
 4386TIP3    H213165   4.824   2.259   2.812 -0.3196  1.1065  2.0571
 4387TIP3   OH213166   1.536   2.423   2.775  0.2983  0.1404 -0.1523
 4387TIP3    H113167   1.498   2.337   2.759  0.4268  0.1005 -0.2405
 4387TIP3    H213168   1.607   2.407   2.837 -0.7740  0.4104  1.2197
 4388TIP3   OH213169   0.740   5.604   4.503  0.1779  0.1252  0.8831
 4388TIP3    H113170   0.741   5.690   4.545 -0.1663  0.7039 -0.2637
 4388TIP3    H213171   0.773   5.620   4.415 -1.4160 -0.6297  0.1209
 4389TIP3   OH213172   2.338   2.468   3.942  0.1989 -0.2527 -0.5297
 4389TIP3    H113173   2.336   2.454   3.847  0.9861 -0.8368 -0.4716
 4389TIP3    H213174   2.394   2.398   3.976  0.7502  0.5352  0.2584
 4390TIP3   OH213175   3.247   2.995   4.298  0.3836 -0.2549 -0.3119
 4390TIP3    H113176   3.199   2.969   4.377  1.2506 -2.7848 -0.5381
 4390TIP3    H213177   3.189   2.970   4.226  0.4086  0.3023 -0.5313
 4391TIP3   OH213178   1.184   3.912   2.527 -0.9124  0.4038 -0.1871
 4391TIP3    H113179   1.159   3.897   2.618 -0.0348 -0.4883 -0.0757
 4391TIP3    H213180   1.167   4.005   2.513 -0.2910  0.7424  1.1446
 4392TIP3   OH213181   3.619   3.538   2.628 -0.2846  0.4026  0.0480
 4392TIP3    H113182   3.592   3.622   2.665  0.3260  1.0105 -0.8610
 4392TIP3    H213183   3.546   3.513   2.571 -0.6597  0.0893  0.6520
 4393TIP3   OH213184   6.012   5.249   0.267  0.9123 -0.1568  0.2399
 4393TIP3    H113185   6.010   5.343   0.248 -0.1247 -0.3745 -0.8253
 4393TIP3    H213186   6.032   5.208   0.184 -0.0980 -0.9553  0.3765
 4394TIP3   OH213187   5.951   5.615   1.329  0.5155 -0.8705  0.0472
 4394TIP3    H113188   6.021   5.640   1.389  0.4572  1.1935 -0.6895
 4394TIP3    H213189   5.872   5.616   1.383  0.9511 -2.9636  0.8203
 4395TIP3   OH213190   1.473   0.467   4.557  0.4053  0.0174 -0.3356
 4395TIP3    H113191   1.560   0.448   4.521 -0.6298 -2.5094 -1.7709
 4395TIP3    H213192   1.474   0.427   4.644  1.1453  1.3567  0.2940
 4396TIP3   OH213193   3.464   4.348   1.173  0.2734 -0.0313  0.0743
 4396TIP3    H113194   3.407   4.310   1.106  1.5084 -0.6455 -0.6498
 4396TIP3    H213195   3.553   4.328   1.145  0.8368 -1.2059  2.4022
 4397TIP3   OH213196   2.370   0.714   5.131 -0.2099 -0.1452  0.5037
 4397TIP3    H113197   2.313   0.642   5.158 -1.4875  0.1495 -1.2401
 4397TIP3    H213198   2.321   0.758   5.061  1.4965  1.0787  0.0284
 4398TIP3   OH213199   4.365   0.072   1.686 -0.5076 -0.5574 -0.0697
 4398TIP3    H113200   4.311   0.115   1.753 -1.0396  0.1157 -0.9151
 4398TIP3    H213201   4.345   0.118   1.605  0.2516 -1.2571 -0.6772
 4399TIP3   OH213202   2.040   2.556   0.126 -0.0907  0.0862 -0.0177
 4399TIP3    H113203   2.022   2.465   0.150 -0.8884  0.2710  0.1220
 4399TIP3    H213204   1.954   2.599   0.128  0.1225  0.5947 -1.1431
 4400TIP3   OH213205   5.119   4.845   2.240  0.3112  0.3906 -0.4861
 4400TIP3    H113206   5.191   4.900   2.271  2.6988 -3.7538  2.2615
 4400TIP3    H213207   5.150   4.811   2.156  0.4748  0.4601 -0.4551
 4401TIP3   OH213208   4.065   3.207   2.898 -0.2091 -0.1215 -0.1019
 4401TIP3    H113209   3.995   3.269   2.878  0.2919  0.3636 -0.3589
 4401TIP3    H213210   4.047   3.132   2.841 -2.0159 -1.1421  1.6731
 4402TIP3   OH213211   2.342   1.187   1.651 -0.2419  0.0894 -0.1853
 4402TIP3    H113212   2.414   1.176   1.714 -0.9473  2.3390  1.1444
 4402TIP3    H213213   2.383   1.227   1.575  0.0996  0.3684  0.1409
 4403TIP3   OH213214   0.030   1.301   3.090 -0.1077 -0.0404 -0.2155
 4403TIP3    H113215   0.007   1.393   3.098 -0.8637 -0.2512  0.1405
 4403TIP3    H213216   0.126   1.299   3.096  0.0047  0.8320 -1.4982
 4404TIP3   OH213217   4.771   1.083   0.801 -0.2669 -0.2686 -0.1660
 4404TIP3    H113218   4.741   1.150   0.740 -3.7221 -0.9950  0.5258
 4404TIP3    H213219   4.749   1.117   0.888  1.1874 -0.8102  0.4423
 4405TIP3   OH213220   3.270   0.173   2.776 -0.2300  0.1365  0.7222
 4405TIP3    H113221   3.243   0.251   2.825 -1.0735  0.5180 -0.3056
 4405TIP3    H213222   3.212   0.104   2.808 -1.2437  0.5407 -0.1902
 4406TIP3   OH213223   2.312   3.116   4.410  0.5171 -0.3124  0.2704
 4406TIP3    H113224   2.367   3.060   4.356  0.4839 -0.5684  0.5009
 4406TIP3    H213225   2.372   3.157   4.472  0.5295 -0.1512  0.1542
 4407TIP3   OH213226   3.777   4.212   4.814  0.5963 -0.0789 -0.1749
 4407TIP3    H113227   3.794   4.118   4.815  1.0448  0.0039  0.5621
 4407TIP3    H213228   3.791   4.238   4.723  1.4465 -0.5548 -0.1917
 4408TIP3   OH213229   2.607   1.376   2.371  0.1630  0.3562  0.3986
 4408TIP3    H113230   2.655   1.421   2.441  1.0571  0.7503 -0.4519
 4408TIP3    H213231   2.672   1.318   2.332  0.2763  1.6312 -1.4308
 4409TIP3   OH213232   4.379   4.711   4.306  0.3191 -0.0813  0.3168
 4409TIP3    H113233   4.291   4.684   4.282 -1.2667  4.1224  0.6276
 4409TIP3    H213234   4.393   4.672   4.393 -1.5059 -0.2413  0.5671
 4410TIP3   OH213235   5.195   5.250   3.848 -0.1483 -0.3062  0.5442
 4410TIP3    H113236   5.247   5.183   3.803  0.6966  0.3293  0.5633
 4410TIP3    H213237   5.127   5.274   3.785 -0.7317 -1.4769  0.6918
 4411TIP3   OH213238   2.518   1.347   1.499  0.5383  0.1570 -0.3483
 4411TIP3    H113239   2.566   1.425   1.473  0.5732  0.7214  1.2858
 4411TIP3    H213240   2.574   1.305   1.565  0.4610 -1.1910 -1.1015
 4412TIP3   OH213241   4.976   2.836   4.047  0.6355 -0.0697  0.2800
 4412TIP3    H113242   4.949   2.761   4.099 -1.8703  0.9519  0.5829
 4412TIP3    H213243   4.894   2.880   4.022  1.9726  2.5313  0.0771
 4413TIP3   OH213244   5.861   0.093   1.770 -0.3537  1.0263 -0.0626
 4413TIP3    H113245   5.940   0.142   1.747 -0.0056  0.8827  0.7700
 4413TIP3    H213246   5.836   0.127   1.856  0.0995 -0.4494  0.7107
 4414TIP3   OH213247   4.911   5.025   3.324 -0.0324  0.0398  0.0167
 4414TIP3    H113248   4.968   4.953   3.349 -0.2055 -0.3364 -0.6502
 4414TIP3    H213249   4.959   5.104   3.349  0.1339 -0.3007  0.7982
 4415TIP3   OH213250   0.827   0.147   0.898 -0.0369 -0.6286 -0.0743
 4415TIP3    H113251   0.807   0.053   0.890 -1.5677 -0.5395  1.8329
 4415TIP3    H213252   0.789   0.171   0.983  3.1462  1.0074  1.0162
 4416TIP3   OH213253   4.523   3.496   0.695 -0.3378 -0.2477  0.0161
 4416TIP3    H113254   4.448   3.531   0.648  0.7666 -1.0286 -2.4737
 4416TIP3    H213255   4.595   3.497   0.631  1.1898 -1.6570  1.5926
 4417TIP3   OH213256   0.142   2.976   1.921  0.2029  0.4299 -0.2170
 4417TIP3    H113257   0.132   3.003   1.830  1.0527 -0.5399 -0.6129
 4417TIP3    H213258   0.115   2.885   1.923 -0.2773  0.5778  0.6091
 4418TIP3   OH213259   4.153   0.437   1.552  0.0186 -0.4407  0.3492
 4418TIP3    H113260   4.237   0.436   1.508  0.5582  0.8521  1.3159
 4418TIP3    H213261   4.136   0.529   1.571 -1.1662 -0.7718  1.0005
 4419TIP3   OH213262   1.304   0.188   2.393  0.0699 -0.3132 -0.3689
 4419TIP3    H113263   1.235   0.137   2.436  1.2131 -1.4423  0.1938
 4419TIP3    H213264   1.385   0.141   2.413  1.2623  1.9538  0.5743
 4420TIP3   OH213265   1.948   0.551   3.080  0.4827 -0.1390  0.6719
 4420TIP3    H113266   1.903   0.520   3.001  0.7896 -0.4579  0.6205
 4420TIP3    H213267   1.918   0.641   3.090 -1.9764 -1.0129  1.9318
 4421TIP3   OH213268   1.714   0.430   4.203 -0.2062 -0.2880  0.8618
 4421TIP3    H113269   1.749   0.511   4.241 -0.4790  0.1479  0.2058
 4421TIP3    H213270   1.745   0.430   4.112  0.8547 -1.5682  1.1939
 4422TIP3   OH213271   1.529   4.393   1.393  0.1955  0.1088 -0.0714
 4422TIP3    H113272   1.619   4.385   1.425 -0.0090  1.0248  0.7810
 4422TIP3    H213273   1.507   4.485   1.407 -0.4550  0.1809 -1.4382
 4423TIP3   OH213274   3.840   5.807   2.525  0.6531  0.1891 -0.2910
 4423TIP3    H113275   3.859   5.847   2.610 -1.1360  0.6627 -0.0727
 4423TIP3    H213276   3.789   5.728   2.546  2.1468 -0.9689 -0.8418
 4424TIP3   OH213277   4.944   5.648   3.298 -0.1994 -0.5009  0.3368
 4424TIP3    H113278   4.904   5.691   3.222 -0.0806 -0.6484  0.1905
 4424TIP3    H213279   4.879   5.658   3.368 -0.2054 -0.1495  0.2838
 4425TIP3   OH213280   2.480   3.918   2.584 -0.6420  0.3022 -0.3503
 4425TIP3    H113281   2.555   3.934   2.527  0.9837  2.4687  2.1575
 4425TIP3    H213282   2.409   3.969   2.547 -0.9565 -1.6525 -2.6715
 4426TIP3   OH213283   6.179   2.403   4.689 -0.2602  0.3784 -0.1472
 4426TIP3    H113284   6.185   2.315   4.726 -0.4327  1.1417  1.7679
 4426TIP3    H213285   6.151   2.459   4.761 -0.2802  2.0138 -1.3437
 4427TIP3   OH213286   1.140   4.923   3.436  0.1420 -0.5442 -0.6728
 4427TIP3    H113287   1.146   4.831   3.410 -1.7688 -1.5199  1.8559
 4427TIP3    H213288   1.171   4.924   3.526  0.4950  1.3932 -0.7887
 4428TIP3   OH213289   0.659   3.271   1.090 -0.0978 -0.1005 -0.6743
 4428TIP3    H113290   0.742   3.223   1.083 -0.6598 -1.5443  1.4881
 4428TIP3    H213291   0.599   3.224   1.033 -0.1409 -0.8147 -0.0558
 4429TIP3   OH213292   2.451   1.133   0.504  0.2707  0.2048  0.4413
 4429TIP3    H113293   2.458   1.073   0.579  0.6610  0.7676  0.8644
 4429TIP3    H213294   2.426   1.217   0.543 -2.3030 -0.1035 -0.3235
 4430TIP3   OH213295   0.722   2.161   1.985 -0.6214  0.6626 -0.0915
 4430TIP3    H113296   0.700   2.254   1.988 -0.3071  0.7506 -0.4695
 4430TIP3    H213297   0.694   2.127   2.070  1.7679  1.6663  1.2036
 4431TIP3   OH213298   3.769   2.980   3.858 -0.6818 -0.0492 -0.1194
 4431TIP3    H113299   3.684   2.937   3.865  1.1969 -4.5545 -1.4625
 4431TIP3    H213300   3.798   2.963   3.769  2.0418  0.4562  0.5665
 4432TIP3   OH213301   0.306   1.758   3.169 -0.4971  0.4007 -0.1703
 4432TIP3    H113302   0.340   1.827   3.227  0.0467 -1.0953  1.3923
 4432TIP3    H213303   0.378   1.696   3.162 -1.6630 -1.0379  0.1900
 4433TIP3   OH213304   3.428   3.064   1.102 -0.4544  0.3308 -0.0472
 4433TIP3    H113305   3.511   3.111   1.097 -0.1021 -0.3424 -0.7713
 4433TIP3    H213306   3.361   3.132   1.086 -0.1728  1.1741  2.0586
 4434TIP3   OH213307   5.964   5.562   3.567  0.1916  0.5172 -0.1679
 4434TIP3    H113308   6.047   5.522   3.540  0.1210  0.5604 -0.4529
 4434TIP3    H213309   5.989   5.629   3.631  0.3648  0.4563 -0.1716
 4435TIP3   OH213310   2.341   4.369   0.837 -0.6606  0.1022  0.8422
 4435TIP3    H113311   2.307   4.405   0.919 -0.7065  0.1939  0.7833
 4435TIP3    H213312   2.305   4.281   0.833 -0.3972 -0.0186  1.0781
 4436TIP3   OH213313   3.735   2.078   2.945 -0.0697  0.0137  0.5666
 4436TIP3    H113314   3.753   2.169   2.923  1.2969 -0.5770 -0.9683
 4436TIP3    H213315   3.651   2.059   2.903  0.6959 -0.0175 -1.0157
 4437TIP3   OH213316   3.161   2.417   0.986 -0.9788  0.5161  0.2286
 4437TIP3    H113317   3.106   2.458   1.053 -2.4855  1.8388 -1.7246
 4437TIP3    H213318   3.228   2.482   0.967 -0.2693 -0.0466  0.7399
 4438TIP3   OH213319   3.904   1.558   4.616 -0.3851 -0.7315 -0.4030
 4438TIP3    H113320   3.835   1.604   4.663  0.5015 -0.4412  0.6563
 4438TIP3    H213321   3.985   1.600   4.644  0.1348  0.6994 -3.5540
 4439TIP3   OH213322   0.115   0.637   4.573 -0.4071 -0.4136 -0.5724
 4439TIP3    H113323   0.045   0.615   4.635 -1.2739 -1.2888 -1.8172
 4439TIP3    H213324   0.069   0.659   4.492  0.7208 -3.5645 -2.2644
 4440TIP3   OH213325   2.071   0.485   2.305  0.3306  0.6546 -0.1617
 4440TIP3    H113326   2.162   0.488   2.276  0.6386 -1.1694  0.4851
 4440TIP3    H213327   2.051   0.575   2.331  1.6993  1.2400 -1.0114
 4441TIP3   OH213328   5.611   2.957   0.756  0.0970 -0.0267  0.0873
 4441TIP3    H113329   5.559   3.038   0.761 -0.7549 -0.4826 -0.8763
 4441TIP3    H213330   5.687   2.980   0.703  0.3822  0.3962  0.6718
 4442TIP3   OH213331   0.141   4.391   4.658 -0.8866 -0.3361 -0.5395
 4442TIP3    H113332   0.132   4.306   4.701 -2.1160 -1.8449 -3.5155
 4442TIP3    H213333   0.061   4.400   4.606 -0.0296  1.8889 -1.5961
 4443TIP3   OH213334   5.989   5.164   3.605 -0.1799  0.6186 -0.1646
 4443TIP3    H113335   5.944   5.237   3.563 -1.1433  0.5349  0.6936
 4443TIP3    H213336   5.921   5.120   3.656  0.3907 -0.8643 -0.6371
 4444TIP3   OH213337   4.642   3.940   3.932  0.2119 -0.2265  0.4298
 4444TIP3    H113338   4.675   4.011   3.987  2.4971 -1.3961  0.7009
 4444TIP3    H213339   4.585   3.984   3.868  1.7131  1.9034  0.4331
 4445TIP3   OH213340   1.866   5.595   1.199 -0.3067 -0.6218 -0.1118
 4445TIP3    H113341   1.826   5.613   1.114  1.6302  0.2599 -0.8849
 4445TIP3    H213342   1.872   5.680   1.242  0.0051 -0.8606  0.3321
 4446TIP3   OH213343   4.943   1.901   0.588  0.0893 -0.3331  0.4722
 4446TIP3    H113344   4.961   1.962   0.659  0.0241 -0.8501  0.9355
 4446TIP3    H213345   4.891   1.952   0.525 -0.3131 -0.0312  1.0462
 4447TIP3   OH213346   2.791   3.447   0.048 -0.1956  0.5919  0.1476
 4447TIP3    H113347   2.848   3.394  -0.007  0.1754 -0.3032  1.3527
 4447TIP3    H213348   2.711   3.395   0.057 -1.5693  2.1187 -2.0708
 4448TIP3   OH213349   2.458   3.109   3.229 -0.2811  0.2203  0.4253
 4448TIP3    H113350   2.435   3.056   3.306  1.6633 -2.0348 -0.4146
 4448TIP3    H213351   2.480   3.195   3.265 -0.0832 -0.5760  2.3242
 4449TIP3   OH213352   4.695   5.791   4.827  0.3631  0.4813  0.0039
 4449TIP3    H113353   4.749   5.746   4.891  1.3315  1.7775  0.1332
 4449TIP3    H213354   4.689   5.881   4.859  1.6274  1.4133 -2.1069
 4450TIP3   OH213355   6.276   1.014   0.073 -0.1219 -0.1795  0.0194
 4450TIP3    H113356   6.238   1.010  -0.015 -0.7458  0.5342  0.2402
 4450TIP3    H213357   6.284   0.923   0.101 -1.4577 -0.3663 -0.1349
 4451TIP3   OH213358   3.679   5.758   4.945  0.0616 -0.5299 -1.3168
 4451TIP3    H113359   3.744   5.820   4.912  1.3348 -1.5872 -0.8984
 4451TIP3    H213360   3.731   5.684   4.975 -0.9940  0.0527  2.4433
 4452TIP3   OH213361   6.211   3.226  -0.010  0.6170 -0.2359  0.6113
 4452TIP3    H113362   6.238   3.176   0.067 -0.5861 -0.7085  0.7582
 4452TIP3    H213363   6.123   3.193  -0.030  0.7727  0.1322 -0.7566
 4453TIP3   OH213364   6.135   0.060   0.686 -0.0273  0.3072 -0.2495
 4453TIP3    H113365   6.120   0.074   0.592 -2.4675  1.0652  0.1749
 4453TIP3    H213366   6.051   0.026   0.718  0.1302  1.8533  1.9926
 4454TIP3   OH213367   3.746   3.508   0.263  0.8515 -0.6159  0.3315
 4454TIP3    H113368   3.723   3.546   0.178  0.1880 -1.0248  0.3226
 4454TIP3    H213369   3.692   3.429   0.269 -0.2071  0.1739  1.7708
 4455TIP3   OH213370   6.114   0.610   2.907  0.1609  0.1076  0.5957
 4455TIP3    H113371   6.128   0.544   2.839 -1.2760  0.6152 -0.2306
 4455TIP3    H213372   6.197   0.659   2.909  0.1534  0.2526 -0.9990
 4456TIP3   OH213373   4.659   4.899   2.113 -0.3735  0.0270 -0.0207
 4456TIP3    H113374   4.743   4.887   2.157 -0.1683 -0.0225 -0.4273
 4456TIP3    H213375   4.611   4.960   2.170  0.0051  0.2045  0.1110
 4457TIP3   OH213376   4.395   4.594   5.078  0.8937 -0.8613  0.2558
 4457TIP3    H113377   4.385   4.682   5.113  0.2362 -0.1905 -1.5084
 4457TIP3    H213378   4.398   4.537   5.155 -1.0841  0.4483  1.3764
 4458TIP3   OH213379   5.978   1.014   2.555 -0.0533 -0.2586 -0.0449
 4458TIP3    H113380   5.885   1.007   2.535  0.3040 -0.4348 -1.7810
 4458TIP3    H213381   5.989   0.966   2.637 -1.2544 -1.4275 -0.5438
 4459TIP3   OH213382   1.427   2.980   4.673 -0.4958 -0.3296 -0.2856
 4459TIP3    H113383   1.515   2.983   4.712 -0.5584  1.3308 -0.1972
 4459TIP3    H213384   1.376   3.042   4.724 -0.9125  0.9663 -2.1717
 4460TIP3   OH213385   5.135   5.539   3.516  0.0141 -0.1047  0.0443
 4460TIP3    H113386   5.224   5.523   3.485  0.1359 -0.9272  0.7635
 4460TIP3    H213387   5.092   5.587   3.445  0.5174 -1.1810 -1.0145
 4461TIP3   OH213388   4.524   2.834   3.866 -0.3497 -0.5838  0.4031
 4461TIP3    H113389   4.556   2.845   3.777 -1.2514  0.7482  0.2091
 4461TIP3    H213390   4.429   2.839   3.858 -0.5082 -1.9656  1.2615
 4462TIP3   OH213391   4.405   5.176   1.694 -0.0048  0.5533 -0.0475
 4462TIP3    H113392   4.435   5.208   1.779  0.6267  0.4970 -0.2439
 4462TIP3    H213393   4.473   5.205   1.633 -0.1533  0.0768 -0.4423
 4463TIP3   OH213394   1.400   2.864   0.833 -0.7584 -0.1059 -0.1078
 4463TIP3    H113395   1.367   2.934   0.776  0.5123  0.3183 -0.3420
 4463TIP3    H213396   1.364   2.784   0.794  0.9831  0.0626 -2.2408
 4464TIP3   OH213397   2.539   4.227   1.868  0.5105  0.1355 -0.2115
 4464TIP3    H113398   2.612   4.268   1.823  1.3151 -0.3387  0.6324
 4464TIP3    H213399   2.576   4.148   1.908  0.8228  2.3223  4.4385
 4465TIP3   OH213400   4.487   0.302   0.951 -0.2333  0.0342 -0.5777
 4465TIP3    H113401   4.448   0.369   1.007  1.5949 -0.1174  0.9750
 4465TIP3    H213402   4.459   0.326   0.862  0.1304  2.7157 -0.0603
 4466TIP3   OH213403   1.098   4.240   2.059  0.0160  0.4991 -0.4724
 4466TIP3    H113404   1.088   4.335   2.064  1.3135  0.6035  0.8026
 4466TIP3    H213405   1.085   4.210   2.149  3.1665 -0.0849 -0.0832
 4467TIP3   OH213406   0.635   0.182   2.918 -0.0374 -0.2687  0.0401
 4467TIP3    H113407   0.545   0.206   2.940  0.3968  0.5261  1.0069
 4467TIP3    H213408   0.664   0.127   2.990  0.9432  1.2338  0.8435
 4468TIP3   OH213409   0.061   0.579   2.687  0.2414 -0.0537 -0.1332
 4468TIP3    H113410   0.047   0.666   2.724  2.0455 -0.1373  0.8917
 4468TIP3    H213411   0.156   0.565   2.694 -0.0584 -2.3271  0.3146
 4469TIP3   OH213412   1.740   3.662   2.285 -0.2260  0.0448  0.6541
 4469TIP3    H113413   1.832   3.653   2.312  0.6405 -0.8235 -2.1569
 4469TIP3    H213414   1.738   3.744   2.235 -0.4387 -0.9076 -0.9825
 4470TIP3   OH213415   6.133   3.122   4.967 -0.2808 -0.2494 -0.1057
 4470TIP3    H113416   6.218   3.161   4.945  0.1765 -1.5289 -0.7518
 4470TIP3    H213417   6.113   3.154   5.054  0.8762  0.0886  0.0527
 4471TIP3   OH213418   5.532   0.309   2.406 -0.1927  0.5206 -0.0444
 4471TIP3    H113419   5.520   0.238   2.469 -2.2596  0.0152 -0.9231
 4471TIP3    H213420   5.553   0.264   2.324  1.9965  1.1467  0.1065
 4472TIP3   OH213421   4.248   1.274   3.775  0.0645  0.3998  0.1263
 4472TIP3    H113422   4.256   1.237   3.687  0.8012  0.7378  0.0401
 4472TIP3    H213423   4.297   1.356   3.770  2.3404 -0.7849  1.5548
 4473TIP3   OH213424   1.397   3.873   1.162 -0.4430 -0.1695  0.3507
 4473TIP3    H113425   1.418   3.857   1.254 -0.6061  1.6570  0.7478
 4473TIP3    H213426   1.430   3.961   1.144 -2.0587  0.2663 -0.8044
 4474TIP3   OH213427   0.093   4.314   1.206 -0.1997  0.0467 -0.3123
 4474TIP3    H113428   0.060   4.277   1.124 -0.0725 -0.0293 -0.3293
 4474TIP3    H213429   0.187   4.323   1.192 -0.0770 -0.6173  0.0806
 4475TIP3   OH213430   2.446   4.125   0.442  0.0519  0.5556  0.5109
 4475TIP3    H113431   2.541   4.114   0.446  0.1157  1.2861  1.1367
 4475TIP3    H213432   2.433   4.218   0.421 -0.5261  0.6149  1.1033
 4476TIP3   OH213433   3.803   0.717   0.910  0.2231 -0.4381  0.0337
 4476TIP3    H113434   3.855   0.713   0.990  1.0223 -0.0292 -0.4465
 4476TIP3    H213435   3.852   0.664   0.847  0.4653  0.5693 -0.6440
 4477TIP3   OH213436   3.635   2.900   0.049  0.4018 -0.0414 -0.2302
 4477TIP3    H113437   3.640   2.993   0.030  2.1804 -0.0561  0.0009
 4477TIP3    H213438   3.616   2.859  -0.036 -0.4024  0.5094 -0.3272
 4478TIP3   OH213439   1.960   0.747   3.401  0.5563  0.2653 -0.1147
 4478TIP3    H113440   2.037   0.707   3.443  0.5269  0.4459  0.1115
 4478TIP3    H213441   1.895   0.677   3.399  0.3580  0.4135  0.6664
 4479TIP3   OH213442   1.473   0.418   2.334 -0.3637  0.4756  0.2933
 4479TIP3    H113443   1.411   0.367   2.387 -2.1084  0.9043 -1.2270
 4479TIP3    H213444   1.514   0.353   2.277 -0.0191  0.3064  0.7294
 4480TIP3   OH213445   3.429   3.245   2.610  0.0384 -0.2304  0.3614
 4480TIP3    H113446   3.499   3.229   2.546 -1.2832  0.0894 -1.2351
 4480TIP3    H213447   3.378   3.317   2.572 -1.0259 -0.2929  1.5957
 4481TIP3   OH213448   2.451   4.964   1.221  0.7232 -0.8730 -0.2714
 4481TIP3    H113449   2.495   4.893   1.267  1.3000 -0.7812 -0.6735
 4481TIP3    H213450   2.460   4.942   1.128  2.8503  0.8326 -0.5380
 4482TIP3   OH213451   1.258   1.532   2.697 -0.1017  0.3898 -0.1438
 4482TIP3    H113452   1.173   1.572   2.716 -1.1832 -2.7216  2.3222
 4482TIP3    H213453   1.304   1.531   2.780  1.4085 -0.0924 -0.9445
 4483TIP3   OH213454   1.412   1.962   3.305 -0.3548  0.4503  0.1807
 4483TIP3    H113455   1.459   1.998   3.379  1.5837  0.7933 -1.1518
 4483TIP3    H213456   1.344   2.026   3.285 -1.5516 -0.1120  2.2081
 4484TIP3   OH213457   1.360   5.685   3.495 -0.2563 -0.4069 -0.0685
 4484TIP3    H113458   1.428   5.659   3.557 -0.3699  0.7984  0.5891
 4484TIP3    H213459   1.278   5.668   3.541 -0.3721 -0.5318 -0.3179
 4485TIP3   OH213460   3.819   5.617   0.908  0.3969 -0.3966  0.8668
 4485TIP3    H113461   3.876   5.691   0.929 -0.4389  0.3286  0.6262
 4485TIP3    H213462   3.850   5.586   0.823  0.0878  0.3343  0.4872
 4486TIP3   OH213463   3.938   2.741   4.499 -0.3223 -0.0814 -0.0277
 4486TIP3    H113464   3.996   2.713   4.429  1.1032  2.0118  0.2334
 4486TIP3    H213465   3.858   2.768   4.454 -0.8831 -2.2942 -0.4542
 4487TIP3   OH213466   1.731   2.090   4.992 -0.1815 -0.6622 -0.5807
 4487TIP3    H113467   1.757   2.166   5.045  1.3771 -1.6953  0.1973
 4487TIP3    H213468   1.635   2.094   4.990 -0.1587  0.9308  0.0218
 4488TIP3   OH213469   2.165   4.156   0.805  0.0853 -0.5971 -0.4160
 4488TIP3    H113470   2.153   4.109   0.722 -0.5571 -0.2251 -0.5375
 4488TIP3    H213471   2.240   4.112   0.846  1.8126  0.5647 -2.1364
 4489TIP3   OH213472   0.382   2.567   1.083  0.2999  0.0724  0.5716
 4489TIP3    H113473   0.411   2.526   1.164 -1.3952  0.0349  1.1944
 4489TIP3    H213474   0.459   2.564   1.026  1.5388  0.1623  2.1799
 4490TIP3   OH213475   0.761   0.643   3.072 -0.2112 -0.1131 -0.4787
 4490TIP3    H113476   0.853   0.650   3.050 -0.1214 -0.3858 -0.2137
 4490TIP3    H213477   0.749   0.702   3.147 -0.5054  0.7811 -1.2239
 4491TIP3   OH213478   1.190   5.996   4.639 -0.4046 -0.0304  0.0170
 4491TIP3    H113479   1.176   5.980   4.732 -0.5223  2.6271  0.5491
 4491TIP3    H213480   1.131   5.935   4.595 -2.4835  0.5462  1.7995
 4492TIP3   OH213481   4.050   3.664   4.283 -0.1782 -0.3271  0.0554
 4492TIP3    H113482   4.093   3.592   4.329  0.5848  0.2319  0.2277
 4492TIP3    H213483   4.118   3.702   4.228 -0.1031  1.3411  1.2406
 4493TIP3   OH213484   5.784   5.957   2.908  0.1071 -0.5689  0.2932
 4493TIP3    H113485   5.827   5.872   2.920 -0.8280 -1.0625  0.2960
 4493TIP3    H213486   5.708   5.954   2.967  0.4892  0.5892  0.8753
 4494TIP3   OH213487   3.754   5.213   3.155  0.1986  0.2626  0.6453
 4494TIP3    H113488   3.686   5.167   3.106  0.5939  1.5537 -1.2587
 4494TIP3    H213489   3.707   5.260   3.223 -0.6071 -0.1879  0.4113
 4495TIP3   OH213490   4.699   3.457   3.525 -0.3134  0.2794  0.2391
 4495TIP3    H113491   4.616   3.451   3.478 -0.7075 -0.3928  1.0110
 4495TIP3    H213492   4.677   3.501   3.608 -0.6338 -2.9706  2.0311
 4496TIP3   OH213493   3.523   0.958   2.375 -0.5406 -0.1277  0.4221
 4496TIP3    H113494   3.540   0.938   2.283  0.0419  0.5513  0.3770
 4496TIP3    H213495   3.597   0.919   2.422 -0.8057 -0.4194  0.5999
 4497TIP3   OH213496   1.887   0.199   1.388 -0.4330  0.0766 -0.0829
 4497TIP3    H113497   1.931   0.116   1.406 -0.0666 -0.1011 -1.5857
 4497TIP3    H213498   1.957   0.256   1.356 -0.7414  0.8722  0.6340
 4498TIP3   OH213499   6.244   3.372   4.239 -0.1502 -0.0783  0.4211
 4498TIP3    H113500   6.254   3.425   4.317 -0.6065 -0.6453  0.8783
 4498TIP3    H213501   6.314   3.306   4.245  1.2577  1.2163 -0.8040
 4499TIP3   OH213502   0.123   4.959   2.499 -0.2113 -0.3117  0.0450
 4499TIP3    H113503   0.179   4.909   2.440 -0.5856 -1.2714  0.4796
 4499TIP3    H213504   0.109   5.042   2.454  2.0317  0.2063  0.1874
 4500TIP3   OH213505   5.858   4.906   2.482 -0.6022 -0.1492  0.3144
 4500TIP3    H113506   5.777   4.905   2.534 -0.1015  0.6730  1.1233
 4500TIP3    H213507   5.857   4.990   2.438  0.6459  0.6233  1.6864
 4501TIP3   OH213508   4.173   1.565   2.285  0.1973 -0.0416 -0.5105
 4501TIP3    H113509   4.234   1.572   2.358  0.4116  1.3244 -0.7992
 4501TIP3    H213510   4.209   1.622   2.217 -0.7463 -0.1779 -1.1458
 4502TIP3   OH213511   3.101   4.939   4.801 -0.2273  0.2761  0.2299
 4502TIP3    H113512   3.191   4.971   4.791  0.0013 -0.3915  0.1154
 4502TIP3    H213513   3.104   4.880   4.876  0.2994 -2.7729 -2.0270
 4503TIP3   OH213514   2.673   1.468   1.737 -0.1160 -0.4193  0.9244
 4503TIP3    H113515   2.756   1.511   1.718 -0.4666 -0.0764  0.1021
 4503TIP3    H213516   2.689   1.375   1.719 -0.0538 -0.2819  0.2542
 4504TIP3   OH213517   1.628   4.512   3.891  0.5528 -0.4205 -0.6924
 4504TIP3    H113518   1.716   4.519   3.928  0.7331 -1.6047 -0.8599
 4504TIP3    H213519   1.576   4.468   3.959  0.3796 -0.7566 -1.0376
 4505TIP3   OH213520   1.122   0.944   3.147 -0.0754  0.6151 -0.0666
 4505TIP3    H113521   1.097   0.964   3.238 -0.5410  1.9415 -0.4565
 4505TIP3    H213522   1.065   1.001   3.094 -2.4184 -2.6869 -1.4176
 4506TIP3   OH213523   3.235   0.969   4.843 -0.2245  0.2123 -0.2919
 4506TIP3    H113524   3.318   0.988   4.799  1.3704  0.6328  2.6617
 4506TIP3    H213525   3.232   0.873   4.848 -0.3563  0.1641 -1.1259
 4507TIP3   OH213526   5.308   3.752   4.668 -0.9605  0.4391  1.3129
 4507TIP3    H113527   5.217   3.726   4.653 -0.1947 -1.5851 -0.3575
 4507TIP3    H213528   5.350   3.672   4.702  0.5482  0.8195  0.4439
 4508TIP3   OH213529   0.435   0.631   3.719 -0.2852 -0.4819  0.0121
 4508TIP3    H113530   0.482   0.688   3.780  0.1635  1.0613 -1.6839
 4508TIP3    H213531   0.497   0.561   3.698  0.3828  0.1978 -0.3333
 4509TIP3   OH213532   5.172   1.426   3.584  0.2486  0.1888 -0.4094
 4509TIP3    H113533   5.205   1.356   3.641 -1.8203 -0.5886 -0.0993
 4509TIP3    H213534   5.194   1.507   3.631  0.9373 -0.3185  0.1782
 4510TIP3   OH213535   6.136   1.660   3.099 -0.4459  0.1177  0.0167
 4510TIP3    H113536   6.186   1.618   3.030  0.0225 -0.2388  0.5632
 4510TIP3    H213537   6.195   1.660   3.175 -0.3746  1.8486  0.0191
 4511TIP3   OH213538   3.635   1.641   1.589  0.5137  0.2925 -0.2722
 4511TIP3    H113539   3.709   1.661   1.531  2.1468 -0.0932  1.5951
 4511TIP3    H213540   3.674   1.597   1.664 -1.7196 -0.5038  0.4973
 4512TIP3   OH213541   1.476   3.018   4.416 -0.3353 -0.1302 -0.1309
 4512TIP3    H113542   1.486   2.930   4.379 -0.2574  0.5996 -1.9767
 4512TIP3    H213543   1.456   3.004   4.508  1.0321 -2.0428 -0.0844
 4513TIP3   OH213544   1.642   2.250   1.974  0.4392 -0.2344 -0.0164
 4513TIP3    H113545   1.623   2.160   2.002 -0.4142 -0.1783 -0.3586
 4513TIP3    H213546   1.662   2.297   2.054  0.7745 -0.7031  0.1807
 4514TIP3   OH213547   0.584   0.567   1.480  0.3776 -0.0994 -0.0422
 4514TIP3    H113548   0.618   0.513   1.409 -1.3065  0.3531 -1.2441
 4514TIP3    H213549   0.541   0.640   1.436 -0.1117  0.5638  1.4668
 4515TIP3   OH213550   3.470   2.345   0.377  0.4050 -0.2269 -0.0081
 4515TIP3    H113551   3.419   2.357   0.458 -1.5412 -2.3698 -0.8178
 4515TIP3    H213552   3.405   2.338   0.308  2.0292  1.4117 -1.8187
 4516TIP3   OH213553   2.964   0.032   4.473 -0.5763 -0.1513  0.5719
 4516TIP3    H113554   2.918   0.030   4.389  0.9273  1.7617 -0.3738
 4516TIP3    H213555   3.026  -0.041   4.468 -0.6348 -0.1712  0.0880
 4517TIP3   OH213556   2.450   0.840   4.345  0.3093 -0.3110 -0.4506
 4517TIP3    H113557   2.483   0.871   4.261 -0.2965  0.5337 -0.3908
 4517TIP3    H213558   2.358   0.817   4.329 -0.5193  2.0204  0.4318
 4518TIP3   OH213559   1.631   3.538   2.918 -0.4495  0.2185  0.2528
 4518TIP3    H113560   1.559   3.592   2.887 -1.5553 -0.9708  0.6782
 4518TIP3    H213561   1.602   3.448   2.903  0.5124 -0.3084  1.3879
 4519TIP3   OH213562   5.399   0.081   2.029  0.1204 -0.3334 -0.2380
 4519TIP3    H113563   5.478   0.057   1.981  0.2005 -2.0312  0.6904
 4519TIP3    H213564   5.369  -0.000   2.069 -1.1133  0.6287  0.8819
 4520TIP3   OH213565   3.787   5.666   4.281  0.0626  0.2970  0.6982
 4520TIP3    H113566   3.748   5.667   4.369  1.2912  1.2842  1.2672
 4520TIP3    H213567   3.828   5.752   4.272  0.9876 -0.2274 -0.3755
 4521TIP3   OH213568   6.105   2.807   3.281  0.7735 -0.9087  0.3555
 4521TIP3    H113569   6.145   2.837   3.363  0.2934 -0.2084  0.3423
 4521TIP3    H213570   6.153   2.854   3.213  0.7401 -0.9951  0.2730
 4522TIP3   OH213571   5.204   1.414   4.520  0.0249 -0.2683  0.1944
 4522TIP3    H113572   5.129   1.407   4.580 -0.8787  0.0516 -0.8530
 4522TIP3    H213573   5.273   1.363   4.561 -0.4245  0.2884  1.7199
 4523TIP3   OH213574   6.276   4.796   1.343  0.3481 -0.0806  0.1875
 4523TIP3    H113575   6.298   4.835   1.428  1.2598  0.1737 -0.1566
 4523TIP3    H213576   6.297   4.703   1.352 -1.5498 -0.4801  0.9136
 4524TIP3   OH213577   4.762   0.393   1.767  0.1069  0.3206 -0.5725
 4524TIP3    H113578   4.772   0.445   1.847 -1.5357  1.1205 -0.8253
 4524TIP3    H213579   4.699   0.325   1.791  1.2604 -0.7846 -0.6104
 4525TIP3   OH213580   3.988   3.806   3.082  0.3960  0.4446  0.0735
 4525TIP3    H113581   4.036   3.725   3.065  0.2407 -0.3189  2.8008
 4525TIP3    H213582   4.046   3.876   3.052  1.6791 -0.5734  0.1161
 4526TIP3   OH213583   5.020   4.105   2.593  0.4814  0.4281  0.3059
 4526TIP3    H113584   5.044   4.166   2.524  0.2821  0.7873  0.5557
 4526TIP3    H213585   4.958   4.045   2.552  0.9526  0.1662 -0.0390
 4527TIP3   OH213586   2.492   3.286   4.527 -0.0795  0.2037 -0.2928
 4527TIP3    H113587   2.433   3.360   4.509 -0.3399  0.0098 -0.2312
 4527TIP3    H213588   2.560   3.293   4.459 -0.6711 -0.1050 -0.9229
 4528TIP3   OH213589   3.420   2.273   2.352 -0.3285 -0.0339 -0.1858
 4528TIP3    H113590   3.513   2.295   2.342 -0.6083  2.2525  1.4362
 4528TIP3    H213591   3.390   2.254   2.263  1.5371 -0.2552 -0.8136
 4529TIP3   OH213592   3.396   1.137   0.745 -0.7677  0.0627 -0.3312
 4529TIP3    H113593   3.460   1.087   0.796 -1.4753 -1.3512 -0.7724
 4529TIP3    H213594   3.441   1.158   0.664 -0.3848  0.3530 -0.0460
 4530TIP3   OH213595   5.753   2.158   3.223  0.8695  0.1766 -0.0779
 4530TIP3    H113596   5.693   2.084   3.230 -0.3395  1.1110 -0.2479
 4530TIP3    H213597   5.729   2.200   3.140  0.8932  1.2947  0.4646
 4531TIP3   OH213598   0.622   1.478   3.604  0.0512 -0.2808  0.2078
 4531TIP3    H113599   0.583   1.541   3.543  0.6141  0.9668  1.0924
 4531TIP3    H213600   0.713   1.470   3.575 -0.4100 -2.0235 -0.9233
 4532TIP3   OH213601   2.028   0.138   0.000  0.4392 -0.3564 -0.1832
 4532TIP3    H113602   2.066   0.172   0.081 -0.0378  0.6421 -0.3623
 4532TIP3    H213603   1.984   0.057   0.026  0.0203  0.1180  0.6346
 4533TIP3   OH213604   5.416   0.562   1.050 -0.1674  0.8551  0.1286
 4533TIP3    H113605   5.408   0.653   1.081 -2.0369  1.6690 -2.3260
 4533TIP3    H213606   5.356   0.513   1.105 -0.1547  1.3722  0.6191
 4534TIP3   OH213607   0.945   0.143   0.343 -0.0901 -0.3054 -0.5527
 4534TIP3    H113608   1.024   0.190   0.319 -0.0265 -0.9819 -1.7491
 4534TIP3    H213609   0.974   0.075   0.403  0.1372 -0.1898 -0.5325
 4535TIP3   OH213610   4.906   4.508   3.259 -0.3243 -0.0298 -0.3714
 4535TIP3    H113611   4.852   4.444   3.213  1.2948 -0.4785 -1.7357
 4535TIP3    H213612   4.857   4.526   3.339 -2.1462 -0.9158 -1.2102
 4536TIP3   OH213613   1.163   1.438   0.076 -0.4037  0.1000 -0.3080
 4536TIP3    H113614   1.089   1.378   0.081 -0.3651  0.1159  0.7951
 4536TIP3    H213615   1.239   1.383   0.098 -0.4304  0.6175  1.2542
 4537TIP3   OH213616   3.645   4.904   1.872 -0.6435  0.2759 -0.2191
 4537TIP3    H113617   3.675   4.851   1.945 -0.8575  0.0937 -0.2622
 4537TIP3    H213618   3.638   4.993   1.907 -2.2453 -0.0759  0.4147
 4538TIP3   OH213619   0.788   4.557   0.547 -0.3243  0.1600 -0.0652
 4538TIP3    H113620   0.856   4.565   0.613  1.7487 -1.5320 -1.8478
 4538TIP3    H213621   0.744   4.475   0.567  0.8933 -0.8198 -1.1787
 4539TIP3   OH213622   6.010   2.209   3.154 -0.3658  0.1801  0.1678
 4539TIP3    H113623   5.917   2.188   3.163 -0.3298 -0.3855 -0.6971
 4539TIP3    H213624   6.056   2.127   3.174 -0.0321  0.5456  0.9314
 4540TIP3   OH213625   3.933   4.449   4.131  0.2397  0.3146 -0.9122
 4540TIP3    H113626   3.864   4.503   4.170  1.5834  2.2844 -1.1169
 4540TIP3    H213627   3.889   4.402   4.060 -1.0903  0.7902 -0.4404
 4541TIP3   OH213628   6.122   2.251   3.646 -0.4403  0.3646  0.4844
 4541TIP3    H113629   6.160   2.338   3.655 -0.7634  0.6043 -0.3868
 4541TIP3    H213630   6.106   2.241   3.552  0.7627 -1.1323  0.3945
 4542TIP3   OH213631   6.274   3.447   1.248  0.0251  0.0888 -0.0839
 4542TIP3    H113632   6.224   3.528   1.261 -1.3690 -0.8683  0.8159
 4542TIP3    H213633   6.288   3.443   1.154  0.1359  1.3694 -0.1484
 4543TIP3   OH213634   4.033   5.794   3.194 -0.5547 -0.3772 -0.1682
 4543TIP3    H113635   3.958   5.785   3.253 -0.3865  1.5434  0.4045
 4543TIP3    H213636   3.995   5.811   3.108 -0.7801 -1.3316 -0.2631
 4544TIP3   OH213637   5.654   3.885   1.305  0.0083 -0.1533  0.4373
 4544TIP3    H113638   5.710   3.816   1.341 -0.6335 -0.7211  0.3679
 4544TIP3    H213639   5.585   3.838   1.259  0.9251  0.5441 -1.7488
 4545TIP3   OH213640   0.739   5.715   1.283  0.1985  0.2750  0.4400
 4545TIP3    H113641   0.715   5.789   1.228 -0.8025  0.0873  0.6152
 4545TIP3    H213642   0.799   5.752   1.348  0.2963  0.7750  0.0689
 4546TIP3   OH213643   0.552   0.093   3.488  0.6257  0.2022  0.0834
 4546TIP3    H113644   0.466   0.136   3.495 -0.0258 -1.3461  3.5160
 4546TIP3    H213645   0.615   0.164   3.498  0.0618  1.7086 -4.3903
 4547TIP3   OH213646   5.555   3.329   1.262  0.1080 -0.0372  0.1771
 4547TIP3    H113647   5.628   3.309   1.320 -0.7139  1.0955  1.6609
 4547TIP3    H213648   5.488   3.265   1.285 -0.8920  1.5363  1.8221
 4548TIP3   OH213649   2.748   4.683   0.975  0.0873 -0.1652  0.0198
 4548TIP3    H113650   2.779   4.641   0.894 -0.5789 -2.1968  0.7414
 4548TIP3    H213651   2.654   4.693   0.962 -0.0712 -0.7629  0.6161
 4549TIP3   OH213652   0.142   4.880   2.167 -0.1704  0.8547  0.0160
 4549TIP3    H113653   0.081   4.809   2.144  0.0061  0.1650  1.5569
 4549TIP3    H213654   0.117   4.952   2.110 -1.6573  0.1878 -0.2232
 4550TIP3   OH213655   3.728   3.459   5.111  0.2689 -0.1681  0.2866
 4550TIP3    H113656   3.675   3.402   5.167 -0.9433  0.5743 -0.0645
 4550TIP3    H213657   3.687   3.545   5.119  0.7534  0.1874 -0.8826
 4551TIP3   OH213658   2.385   2.257   4.839  0.5199 -0.2754 -0.2372
 4551TIP3    H113659   2.387   2.163   4.821 -1.1857 -0.1493 -1.3343
 4551TIP3    H213660   2.474   2.278   4.867  0.9992 -2.1628 -0.2177
 4552TIP3   OH213661   0.354   5.597   4.869  0.0048 -0.6832 -0.3226
 4552TIP3    H113662   0.414   5.525   4.849  0.1749 -0.0029 -2.5774
 4552TIP3    H213663   0.273   5.553   4.897  1.2344 -1.6171  1.9958
 4553TIP3   OH213664   1.834   2.096   1.801 -0.8037  0.8918 -0.7670
 4553TIP3    H113665   1.826   2.048   1.883 -1.0241  0.2273 -1.1709
 4553TIP3    H213666   1.914   2.147   1.810 -0.5262  0.3860 -0.3645
 4554TIP3   OH213667   4.305   3.341   2.872  0.2669 -0.1883 -0.5360
 4554TIP3    H113668   4.315   3.436   2.875 -1.1913  0.0267 -1.4814
 4554TIP3    H213669   4.230   3.322   2.929  1.0720 -0.8876  0.3329
 4555TIP3   OH213670   2.970   3.720   1.853 -0.7659 -0.1443 -0.3087
 4555TIP3    H113671   2.999   3.798   1.807 -0.2177 -1.6652 -2.7135
 4555TIP3    H213672   3.047   3.664   1.856 -0.6845 -0.0585  2.8345
 4556TIP3   OH213673   5.342   2.658   0.812 -0.2293 -0.2569  0.0708
 4556TIP3    H113674   5.310   2.640   0.900  0.0775  0.8419  0.4179
 4556TIP3    H213675   5.323   2.750   0.798  0.8189 -0.1240 -0.5505
 4557TIP3   OH213676   2.727   5.476   0.287  0.0568  0.0048  0.2094
 4557TIP3    H113677   2.795   5.511   0.345 -0.3682  1.5428 -0.1629
 4557TIP3    H213678   2.652   5.535   0.301 -0.1768  0.1883 -1.6189
 4558TIP3   OH213679   0.397   2.999   3.949 -0.3351 -0.5661 -0.0826
 4558TIP3    H113680   0.379   2.965   3.861  1.0200  0.7383 -0.9191
 4558TIP3    H213681   0.487   2.972   3.968 -0.6949 -1.0333  1.0150
 4559TIP3   OH213682   6.078   1.688   4.577 -0.3693 -0.0828  0.6283
 4559TIP3    H113683   6.130   1.747   4.523 -0.3854 -0.7238 -0.1060
 4559TIP3    H213684   6.138   1.657   4.644 -0.0785 -0.0608  0.3761
 4560TIP3   OH213685   4.383   2.014   2.798 -0.1411  0.4241  0.3949
 4560TIP3    H113686   4.414   2.085   2.855 -0.5420  1.5208 -0.7099
 4560TIP3    H213687   4.336   1.955   2.857  0.4367  0.9189  1.3883
 4561TIP3   OH213688   1.928   4.579   2.126  0.6133 -0.6067 -0.0406
 4561TIP3    H113689   1.920   4.636   2.203  1.2034 -0.3735 -0.1455
 4561TIP3    H213690   2.021   4.555   2.124  0.2936 -1.9466  0.2698
 4562TIP3   OH213691   0.120   4.203   3.657 -0.1983 -0.2894  0.1248
 4562TIP3    H113692   0.135   4.294   3.631  1.4914 -0.0203  1.8151
 4562TIP3    H213693   0.187   4.154   3.609 -0.1795 -0.4377  0.3043
 4563TIP3   OH213694   0.140   5.326   0.189 -0.2994 -0.0580  0.1386
 4563TIP3    H113695   0.108   5.416   0.194 -1.0924 -0.1409 -2.2765
 4563TIP3    H213696   0.061   5.274   0.173  0.5667 -0.6687 -2.6078
 4564TIP3   OH213697   2.721   3.053   2.999  0.1158  0.3020 -0.0070
 4564TIP3    H113698   2.720   3.039   3.094  0.9878  2.0076  0.2793
 4564TIP3    H213699   2.799   3.007   2.968  0.9687  1.4226  0.4155
 4565TIP3   OH213700   3.133   4.165   3.964 -0.1777  0.0225 -0.1276
 4565TIP3    H113701   3.067   4.189   4.029  0.6668 -0.4419  0.9344
 4565TIP3    H213702   3.082   4.132   3.890 -1.1543 -1.4191  1.1053
 4566TIP3   OH213703   3.570   5.913   2.723 -0.3244 -0.2823  0.2450
 4566TIP3    H113704   3.658   5.935   2.754  0.0269  0.7368 -1.3927
 4566TIP3    H213705   3.572   5.929   2.629 -1.8445 -1.6956 -0.0746
 4567TIP3   OH213706   1.138   2.503   3.183  0.3721  0.2134  0.0343
 4567TIP3    H113707   1.158   2.595   3.166 -0.0150  0.6808  1.8595
 4567TIP3    H213708   1.221   2.458   3.170  0.5739  0.8244 -0.8608
 4568TIP3   OH213709   4.695   2.865   0.957  0.1177 -0.4174 -0.3004
 4568TIP3    H113710   4.666   2.774   0.963 -0.5703 -0.1452  0.6941
 4568TIP3    H213711   4.645   2.911   1.024 -1.3632  1.1671 -2.3654
 4569TIP3   OH213712   4.699   3.213   2.752  0.0389 -0.1974  0.1779
 4569TIP3    H113713   4.688   3.138   2.694  2.1047  1.6040 -2.8180
 4569TIP3    H213714   4.628   3.272   2.730 -1.2367 -0.9103  2.1141
 4570TIP3   OH213715   6.068   3.683   2.277  0.9611 -0.0363  0.7371
 4570TIP3    H113716   6.118   3.721   2.350  0.0711  0.2776  1.2009
 4570TIP3    H213717   6.101   3.593   2.270  1.9375  0.3048  0.6962
 4571TIP3   OH213718   5.171   4.050   0.983 -0.3350 -0.9390  0.0858
 4571TIP3    H113719   5.102   4.099   1.028 -1.8592 -1.2376 -1.7888
 4571TIP3    H213720   5.218   4.116   0.932 -1.0492 -1.0937 -0.8015
 4572TIP3   OH213721   1.850   1.200   3.561 -0.2948 -0.1272 -0.0321
 4572TIP3    H113722   1.822   1.114   3.530  1.5198 -1.4448  1.7858
 4572TIP3    H213723   1.864   1.251   3.481  1.1792 -2.3808 -1.3049
 4573TIP3   OH213724   0.389   4.705   4.292 -0.0440 -0.2119  0.0587
 4573TIP3    H113725   0.445   4.645   4.342 -0.3396 -1.5886 -1.2058
 4573TIP3    H213726   0.300   4.671   4.304 -0.2093 -0.0691 -0.7332
 4574TIP3   OH213727   6.276   3.407   2.305  0.0248  0.2628  0.3629
 4574TIP3    H113728   6.329   3.486   2.304  0.6762 -0.1614 -0.4973
 4574TIP3    H213729   6.295   3.365   2.220  1.3610 -1.8904  1.6279
 4575TIP3   OH213730   6.192   0.707   2.502 -0.7457  0.4211 -0.4638
 4575TIP3    H113731   6.255   0.637   2.486 -0.6391  0.7146 -1.3770
 4575TIP3    H213732   6.196   0.721   2.597  0.2753  0.1805 -0.4587
 4576TIP3   OH213733   3.541   4.044   5.092 -0.3250 -0.3158 -0.2386
 4576TIP3    H113734   3.583   3.979   5.036 -0.6571  0.1818 -1.0851
 4576TIP3    H213735   3.465   4.075   5.042 -0.8676 -0.1432  0.6518
 4577TIP3   OH213736   3.670   2.053   1.533 -0.8889 -0.0354  0.0375
 4577TIP3    H113737   3.619   2.133   1.519  0.1874  0.5924 -0.4003
 4577TIP3    H213738   3.735   2.053   1.463  1.3512  0.5309  1.9970
 4578TIP3   OH213739   3.452   3.152   1.834  0.1338 -0.4980 -0.0367
 4578TIP3    H113740   3.417   3.083   1.889 -0.3345  0.7891  1.3544
 4578TIP3    H213741   3.378   3.212   1.822  1.0200  0.7136  0.3916
 4579TIP3   OH213742   2.978   3.396   1.053  0.0018  0.1009 -0.1278
 4579TIP3    H113743   2.944   3.312   1.021  3.5042 -1.0940 -1.2584
 4579TIP3    H213744   2.920   3.462   1.015 -2.0470 -1.7046 -0.3514
 4580TIP3   OH213745   0.229   3.331   4.682  0.7921 -0.5267  0.1763
 4580TIP3    H113746   0.177   3.400   4.723 -1.7718 -3.1613  1.7319
 4580TIP3    H213747   0.196   3.327   4.592  0.9321  0.2104  0.0835
 4581TIP3   OH213748   2.760   0.461   3.689  0.8918  0.3625 -0.2913
 4581TIP3    H113749   2.788   0.418   3.609 -0.0531 -0.8324 -0.0073
 4581TIP3    H213750   2.789   0.402   3.759  1.3631  1.1990  0.2421
 4582TIP3   OH213751   6.158   5.071   2.376  0.4476 -0.2123  0.5595
 4582TIP3    H113752   6.131   4.990   2.332 -0.6629  0.4707 -0.0941
 4582TIP3    H213753   6.253   5.064   2.385  0.7902 -0.3258 -2.2069
 4583TIP3   OH213754   1.572   2.929   2.344 -0.0544  0.0986 -0.1541
 4583TIP3    H113755   1.611   2.998   2.290 -0.1977 -0.3139 -0.7967
 4583TIP3    H213756   1.544   2.863   2.281 -1.3672  0.1678  0.3266
 4584TIP3   OH213757   6.214   3.728   3.285 -0.0130 -0.2014  0.0379
 4584TIP3    H113758   6.273   3.798   3.254 -0.8837 -0.8061 -3.4382
 4584TIP3    H213759   6.127   3.767   3.281 -0.3955 -1.0926 -0.8661
 4585TIP3   OH213760   3.596   1.642   3.446 -0.4198 -0.0383  0.0841
 4585TIP3    H113761   3.605   1.575   3.514 -0.5938 -0.5715 -0.4078
 4585TIP3    H213762   3.528   1.701   3.479 -3.0393 -2.2143 -1.1030
 4586TIP3   OH213763   3.679   5.254   1.712  0.3847  0.3726 -0.4691
 4586TIP3    H113764   3.596   5.272   1.755  0.7719  0.4573  0.2611
 4586TIP3    H213765   3.678   5.159   1.696  0.5369  0.2204  0.3855
 4587TIP3   OH213766   4.825   2.816   1.955 -0.0830  0.2287  0.1711
 4587TIP3    H113767   4.918   2.817   1.930 -0.5189 -1.6885 -1.9039
 4587TIP3    H213768   4.826   2.812   2.051  1.9796  0.1538  0.1991
 4588TIP3   OH213769   6.031   4.120   0.152 -0.0556 -0.1334  0.0109
 4588TIP3    H113770   5.956   4.103   0.094 -0.6437  0.7400  0.4899
 4588TIP3    H213771   6.074   4.035   0.160  0.0717 -0.2703 -1.7287
 4589TIP3   OH213772   2.853   2.642   3.158 -0.2830  0.0724 -0.2145
 4589TIP3    H113773   2.941   2.661   3.124 -0.6292 -0.1416 -1.2934
 4589TIP3    H213774   2.851   2.547   3.167 -0.6097  0.0104 -0.8409
 4590TIP3   OH213775   4.756   2.252   2.322 -0.4477  0.1945 -0.5647
 4590TIP3    H113776   4.794   2.166   2.302  0.9156  0.5123  0.5090
 4590TIP3    H213777   4.692   2.234   2.390 -2.2620 -0.3287 -2.3083
 4591TIP3   OH213778   3.288   3.590   1.792  0.1899 -0.1208 -0.8412
 4591TIP3    H113779   3.368   3.544   1.767  0.0039 -0.3687 -0.9862
 4591TIP3    H213780   3.217   3.529   1.769 -0.0413  0.1119 -0.7496
 4592TIP3   OH213781   3.522   2.062   0.911 -0.5757  0.1373  0.2330
 4592TIP3    H113782   3.562   1.997   0.969  1.8151 -0.4323 -1.9001
 4592TIP3    H213783   3.530   2.145   0.959 -0.4820 -0.5886  1.5123
 4593TIP3   OH213784   6.111   2.303   1.642  0.5246  0.1996 -0.3848
 4593TIP3    H113785   6.192   2.260   1.668  0.6083  0.4853 -0.1569
 4593TIP3    H213786   6.041   2.249   1.679  0.6377  0.4638  0.2294
 4594TIP3   OH213787   2.617   5.435   2.080  0.4841  0.1986 -0.2392
 4594TIP3    H113788   2.701   5.448   2.036  0.5536  1.3280  0.2131
 4594TIP3    H213789   2.553   5.476   2.022  0.0975 -1.3896 -1.0067
 4595TIP3   OH213790   2.886   2.847   5.093 -0.3528 -0.3367 -0.4966
 4595TIP3    H113791   2.939   2.775   5.058 -1.0071 -0.3943 -1.4126
 4595TIP3    H213792   2.812   2.853   5.034 -0.6739  0.6432 -0.0233
 4596TIP3   OH213793   5.297   2.539   2.422 -0.4045  0.5374  0.5006
 4596TIP3    H113794   5.289   2.550   2.328  0.0003  1.4486  0.5591
 4596TIP3    H213795   5.370   2.479   2.434  0.3651  1.4068  0.2535
 4597TIP3   OH213796   3.139   3.512   0.279 -0.2140 -0.2679 -1.0233
 4597TIP3    H113797   3.052   3.527   0.317 -0.5280 -0.6938 -1.5433
 4597TIP3    H213798   3.146   3.578   0.210  0.6839  1.0275  0.2501
 4598TIP3   OH213799   4.904   4.619   4.947 -0.7915 -0.3381 -0.1010
 4598TIP3    H113800   4.898   4.523   4.952 -0.4575 -0.5451 -2.4390
 4598TIP3    H213801   4.841   4.650   5.011 -0.6604 -2.1155  0.9646
 4599TIP3   OH213802   1.752   2.355   2.201  0.0934 -0.5813 -0.1290
 4599TIP3    H113803   1.821   2.399   2.152 -0.5624  0.9469  0.2684
 4599TIP3    H213804   1.767   2.380   2.292 -0.6178 -0.7195  0.0323
 4600TIP3   OH213805   3.906   4.757   1.968 -0.1206  0.1689  0.0192
 4600TIP3    H113806   3.950   4.801   2.041  2.4153  1.6266 -2.1908
 4600TIP3    H213807   3.935   4.667   1.974  0.7232  0.4540  0.3664
 4601TIP3   OH213808   2.317   3.408   4.361  0.1448  0.4098  0.6323
 4601TIP3    H113809   2.226   3.424   4.335  0.4311  1.8382  0.4085
 4601TIP3    H213810   2.362   3.392   4.278  0.4286  1.5897  0.5404
 4602TIP3   OH213811   4.725   4.337   3.183 -0.0740 -0.6732  0.5989
 4602TIP3    H113812   4.658   4.278   3.218 -1.4485  0.5897  0.1891
 4602TIP3    H213813   4.739   4.308   3.093 -2.1076  0.6939 -0.2172
 4603TIP3   OH213814   0.091   1.327   4.989  0.0712  0.1447 -0.0861
 4603TIP3    H113815   0.134   1.344   5.072 -1.5358 -2.8069  1.5184
 4603TIP3    H213816   0.017   1.388   4.987  0.3824  0.5460  0.4292
 4604TIP3   OH213817   5.052  -0.001   2.310  0.0988 -0.7161 -0.3442
 4604TIP3    H113818   5.010  -0.002   2.396  1.2200  3.2678  0.4352
 4604TIP3    H213819   4.988   0.041   2.253  0.7173 -0.0262 -0.5460
 4605TIP3   OH213820   5.424   3.897   0.996  0.1799  0.1099 -0.0028
 4605TIP3    H113821   5.359   3.966   1.006  0.7415  0.6081  0.2860
 4605TIP3    H213822   5.494   3.937   0.945  0.7293 -0.0936  0.5787
 4606TIP3   OH213823   0.460   5.488   1.067  0.2496 -0.2636 -0.5577
 4606TIP3    H113824   0.512   5.424   1.019  0.5251 -0.6696  0.2653
 4606TIP3    H213825   0.444   5.447   1.152 -0.9713  0.0733 -0.6059
 4607TIP3   OH213826   0.190   3.501   0.831  0.2368  0.3966  0.0199
 4607TIP3    H113827   0.190   3.494   0.736 -0.1951  0.6009  0.0018
 4607TIP3    H213828   0.218   3.415   0.862 -2.4058 -0.6538 -0.2405
 4608TIP3   OH213829   4.973   1.763   4.265  0.2179 -0.0069 -0.7131
 4608TIP3    H113830   4.983   1.669   4.276 -1.2145  0.0050  1.2106
 4608TIP3    H213831   4.990   1.778   4.172 -0.5314 -2.3138 -1.2928
 4609TIP3   OH213832   3.290   1.086   4.526 -0.0918  0.0123  0.1632
 4609TIP3    H113833   3.365   1.052   4.575 -1.4232  0.9479  3.0979
 4609TIP3    H213834   3.234   1.010   4.511 -0.2367 -0.1110  1.2592
 4610TIP3   OH213835   1.726   5.387   1.359 -0.4364 -0.1030  0.3323
 4610TIP3    H113836   1.768   5.444   1.295  0.1386 -0.1642  0.6460
 4610TIP3    H213837   1.713   5.305   1.312 -0.4247 -0.0076  0.1591
 4611TIP3   OH213838   3.426   3.762   4.684 -0.5810  0.4547 -0.3435
 4611TIP3    H113839   3.492   3.822   4.720 -1.5589  0.5657  1.3854
 4611TIP3    H213840   3.477   3.688   4.652  0.5506  1.5694 -1.2507
 4612TIP3   OH213841  -0.031   0.342   2.558 -0.1485  0.1623 -0.3373
 4612TIP3    H113842   0.025   0.381   2.626  2.0461 -3.0583 -0.0175
 4612TIP3    H213843   0.010   0.367   2.476 -0.3374  0.7152 -0.2616
 4613TIP3   OH213844   1.658   4.252   3.185 -0.5131  0.5333 -0.0958
 4613TIP3    H113845   1.669   4.166   3.145 -1.3993  0.3256  0.0897
 4613TIP3    H213846   1.600   4.300   3.125 -1.8744  0.2084  0.8970
 4614TIP3   OH213847   1.197   2.027   2.433 -0.4481 -0.5469  0.4268
 4614TIP3    H113848   1.132   2.005   2.366 -0.6088  0.8324  0.1078
 4614TIP3    H213849   1.279   1.991   2.399 -0.6646 -0.4947 -0.1643
 4615TIP3   OH213850   3.141   1.302   1.352  0.1105  0.1061  0.1008
 4615TIP3    H113851   3.134   1.240   1.424  0.2415 -1.8684 -1.4714
 4615TIP3    H213852   3.233   1.299   1.326  0.4069  2.0040  0.8232
 4616TIP3   OH213853   1.239   4.110   2.746  0.2421  0.6082 -0.0371
 4616TIP3    H113854   1.227   4.122   2.840 -2.1400 -2.9834  0.2954
 4616TIP3    H213855   1.324   4.065   2.739  1.7766  3.2712 -0.0019
 4617TIP3   OH213856   3.378   2.558   2.310 -0.3781  0.0034 -0.4157
 4617TIP3    H113857   3.380   2.464   2.328 -1.3501 -0.5742 -2.9130
 4617TIP3    H213858   3.450   2.573   2.248 -1.0761  0.6046 -1.1206
 4618TIP3   OH213859   1.075   1.774   2.000 -0.7124  0.0084 -0.0379
 4618TIP3    H113860   1.062   1.701   1.939  1.8078 -0.7992  0.2451
 4618TIP3    H213861   1.100   1.731   2.082 -1.8308  1.1502  0.9416
 4619TIP3   OH213862   2.102   1.791   3.765  0.6560  0.2020  0.4694
 4619TIP3    H113863   2.079   1.710   3.810  2.1156 -0.2134  0.4988
 4619TIP3    H213864   2.077   1.861   3.826 -2.0213 -0.0852 -0.1466
 4620TIP3   OH213865   0.291   2.849   1.059 -0.6787 -0.3021  0.0676
 4620TIP3    H113866   0.289   2.754   1.052  0.2340 -0.4887  1.8539
 4620TIP3    H213867   0.198   2.875   1.063 -0.9232 -1.2094  0.5083
 4621TIP3   OH213868   0.634   2.053   0.260 -0.7811 -0.4876  0.5190
 4621TIP3    H113869   0.572   2.072   0.189 -0.1415  0.0941  0.1058
 4621TIP3    H213870   0.695   1.990   0.222  0.5558  1.0648 -0.0236
 4622TIP3   OH213871   2.641   3.274   4.300 -0.0369  0.2399  0.0611
 4622TIP3    H113872   2.717   3.224   4.271  0.0512  1.1559 -1.4302
 4622TIP3    H213873   2.604   3.311   4.219 -0.7273  1.6644  0.9697
 4623TIP3   OH213874   5.204   0.016   3.951  0.0302 -0.3774  0.2297
 4623TIP3    H113875   5.229   0.037   4.041 -0.0392 -0.3264  0.2374
 4623TIP3    H213876   5.248   0.082   3.898  0.6729 -0.8543  0.1615
 4624TIP3   OH213877   0.051   4.108   1.456  0.3636  0.3229 -0.1811
 4624TIP3    H113878   0.042   4.196   1.419 -0.5317  0.4945  0.4234
 4624TIP3    H213879   0.121   4.068   1.405  1.5088  1.7364  0.1860
 4625TIP3   OH213880   5.336   3.636   3.450  0.4157  0.9510  0.3994
 4625TIP3    H113881   5.392   3.711   3.468  3.4374 -1.0768  0.2814
 4625TIP3    H213882   5.391   3.578   3.397 -1.0412 -2.1173  1.9826
 4626TIP3   OH213883   6.041   2.415   4.241  0.3730 -0.1380 -0.3462
 4626TIP3    H113884   6.068   2.493   4.289  0.0862  1.0190 -1.9918
 4626TIP3    H213885   5.996   2.448   4.163 -0.7427 -1.9579 -0.5516
 4627TIP3   OH213886   0.468   5.378   3.765 -0.0437 -0.5092  0.2479
 4627TIP3    H113887   0.527   5.307   3.740  0.4498 -0.3014  0.7999
 4627TIP3    H213888   0.390   5.365   3.712 -0.1457 -1.7399  0.6812
 4628TIP3   OH213889   2.414   2.593   2.656 -0.3444 -0.3184 -0.1419
 4628TIP3    H113890   2.496   2.583   2.607  0.1438  0.4686  0.4735
 4628TIP3    H213891   2.385   2.682   2.635 -0.0582  0.0773  1.0598
 4629TIP3   OH213892   6.220   5.956   1.139  0.2973  0.3499  0.2278
 4629TIP3    H113893   6.234   5.870   1.180 -0.7387  0.0383 -0.0475
 4629TIP3    H213894   6.285   6.013   1.180  0.7862 -0.4931  0.6479
 4630TIP3   OH213895   1.292   3.569   3.837  0.4855  0.0615  0.1516
 4630TIP3    H113896   1.236   3.501   3.875 -1.3389  0.8588 -0.9424
 4630TIP3    H213897   1.325   3.531   3.756  1.7321 -0.4653  0.8721
 4631TIP3   OH213898   6.141   3.219   1.868  0.3928 -0.2468  0.0007
 4631TIP3    H113899   6.152   3.124   1.859 -0.8249 -0.6020  1.6819
 4631TIP3    H213900   6.174   3.238   1.956  1.0195  0.9848 -0.4791
 4632TIP3   OH213901   6.118   0.181   4.335 -0.0561  0.1407  0.0797
 4632TIP3    H113902   6.202   0.192   4.291 -0.1840 -0.0881 -0.2279
 4632TIP3    H213903   6.088   0.270   4.352  0.4812  0.2217  0.6436
 4633TIP3   OH213904   4.026   1.009   0.774  0.0204 -0.4633 -0.8264
 4633TIP3    H113905   3.995   1.050   0.855 -0.0274 -0.6811 -0.7354
 4633TIP3    H213906   4.032   1.082   0.712  1.6007 -0.0021 -0.1964
 4634TIP3   OH213907   3.750   5.576   2.644 -0.4233  0.1914  0.2499
 4634TIP3    H113908   3.789   5.508   2.588 -0.2146 -0.1313  0.7814
 4634TIP3    H213909   3.758   5.541   2.733 -0.7451  0.7068  0.4829
 4635TIP3   OH213910   2.593   2.671   2.977  0.5374  0.1653  0.2547
 4635TIP3    H113911   2.662   2.641   3.037  1.2764  1.4739  0.1046
 4635TIP3    H213912   2.534   2.721   3.033  0.2305 -0.1461  0.2086
 4636TIP3   OH213913   5.031   5.888   3.013 -0.2733 -0.2900  0.2178
 4636TIP3    H113914   4.948   5.856   2.979 -0.3448 -0.6600  0.7362
 4636TIP3    H213915   5.010   5.925   3.098 -0.5245  2.7917 -1.0530
 4637TIP3   OH213916   1.455   5.351   2.817 -0.1122  0.3914 -0.1149
 4637TIP3    H113917   1.366   5.369   2.788 -1.1486 -1.9583  1.3047
 4637TIP3    H213918   1.473   5.417   2.885 -0.5467  1.1918 -0.7681
 4638TIP3   OH213919   2.915   2.533   1.862  0.4855  0.1709  0.1763
 4638TIP3    H113920   2.987   2.588   1.833 -0.7704  1.5116 -0.4956
 4638TIP3    H213921   2.947   2.492   1.943  2.1884  0.2663 -0.4187
 4639TIP3   OH213922   3.851   1.063   2.586  0.7124  0.0021 -0.1676
 4639TIP3    H113923   3.885   1.127   2.523  1.9906 -0.5145 -0.0148
 4639TIP3    H213924   3.905   0.985   2.573 -0.6362 -0.9694 -0.1457
 4640TIP3   OH213925   1.628   2.710   4.948 -0.2846  0.0082  0.0925
 4640TIP3    H113926   1.571   2.661   4.887 -0.3427 -0.0197  0.1689
 4640TIP3    H213927   1.648   2.647   5.017  0.2934 -0.1537 -0.2201
 4641TIP3   OH213928   0.087   3.429   2.613  0.3366 -0.0445  0.0045
 4641TIP3    H113929  -0.003   3.440   2.642 -0.4206 -1.3404 -1.7110
 4641TIP3    H213930   0.082   3.428   2.518  2.1040 -0.5925 -0.1187
 4642TIP3   OH213931   4.088   1.013   4.248 -0.0444 -0.0360 -0.8172
 4642TIP3    H113932   4.028   1.038   4.318 -0.4413 -2.3513 -0.2463
 4642TIP3    H213933   4.174   1.043   4.277 -0.3008 -0.4245  0.3781
 4643TIP3   OH213934   3.562   3.119   3.205 -0.2079 -0.2555 -0.0943
 4643TIP3    H113935   3.531   3.046   3.151  2.2099 -0.4525 -1.3406
 4643TIP3    H213936   3.600   3.181   3.143  2.2036 -0.2505  1.2529
 4644TIP3   OH213937   6.291   5.410   3.117 -0.9216 -0.2325  0.0335
 4644TIP3    H113938   6.285   5.504   3.103  0.6823  0.3953  2.8058
 4644TIP3    H213939   6.219   5.390   3.176 -1.3200 -0.8056 -0.6258
 4645TIP3   OH213940   1.774   2.422   2.940  0.3600  0.1347  0.2161
 4645TIP3    H113941   1.854   2.377   2.914 -0.0832 -0.5129 -0.0630
 4645TIP3    H213942   1.733   2.364   3.004 -0.6421 -0.2867 -0.7749
 4646TIP3   OH213943   4.649   5.938   2.790  0.4406  0.1045 -0.0341
 4646TIP3    H113944   4.607   5.959   2.873  0.4977  1.0478 -0.2278
 4646TIP3    H213945   4.715   5.872   2.812  0.2314  0.1049  0.6144
 4647TIP3   OH213946   3.782   2.167   5.086 -0.3348 -0.0314 -0.0130
 4647TIP3    H113947   3.752   2.095   5.031  0.3802  0.2083 -0.7378
 4647TIP3    H213948   3.720   2.169   5.159 -0.0209 -1.7732  0.3530
 4648TIP3   OH213949   4.869   1.551   0.022 -0.2341  0.1010 -0.4264
 4648TIP3    H113950   4.928   1.545   0.098 -1.1819 -0.5100  0.2761
 4648TIP3    H213951   4.813   1.627   0.041 -1.2151 -0.7197  0.0396
 4649TIP3   OH213952   3.065   3.445   1.720 -0.7518  0.2846 -0.0368
 4649TIP3    H113953   2.989   3.388   1.720 -2.7331  2.7328 -0.9671
 4649TIP3    H213954   3.090   3.452   1.628  1.1794 -1.0808  0.3133
 4650TIP3   OH213955   5.416   5.292   0.334 -0.0404 -0.1702  0.3709
 4650TIP3    H113956   5.339   5.348   0.324  1.6592  2.3841  0.5940
 4650TIP3    H213957   5.491   5.351   0.324  1.9213 -1.9671  2.8632
 4651TIP3   OH213958   0.619   0.307   2.622  0.3058  0.0943  0.2874
 4651TIP3    H113959   0.554   0.284   2.555  0.0146  0.0526  0.5836
 4651TIP3    H213960   0.581   0.382   2.668  1.0158  0.8492 -0.3273
 4652TIP3   OH213961   1.622   1.702   4.151 -0.1706  0.1040 -0.0105
 4652TIP3    H113962   1.619   1.732   4.060  0.8662  1.1859  0.2900
 4652TIP3    H213963   1.549   1.747   4.193 -0.8678 -0.6649 -0.3608
 4653TIP3   OH213964   4.243   4.630   2.902  0.4551  0.8639  0.1630
 4653TIP3    H113965   4.311   4.690   2.871  0.6806  1.6178  2.0126
 4653TIP3    H213966   4.188   4.683   2.960  0.6593 -0.6842  1.8607
 4654TIP3   OH213967   3.142   1.573   0.771 -0.2011 -0.1085  0.3567
 4654TIP3    H113968   3.230   1.584   0.735 -0.3327 -0.8628 -0.1984
 4654TIP3    H213969   3.099   1.658   0.755  0.5688  0.4310  1.0714
 4655TIP3   OH213970   1.569   0.239   4.322 -0.2465  0.1147 -0.2150
 4655TIP3    H113971   1.618   0.293   4.260 -0.2880 -0.4336 -0.7326
 4655TIP3    H213972   1.539   0.164   4.270  1.6265 -1.5181  0.9470
 4656TIP3   OH213973   4.769   3.457   4.679  0.2719 -0.1738  0.2824
 4656TIP3    H113974   4.804   3.544   4.659  2.1167 -0.2660  2.6223
 4656TIP3    H213975   4.784   3.406   4.599  1.5274  1.0126 -0.2732
 4657TIP3   OH213976   1.173   0.121   5.149 -0.2924  0.6681 -0.3477
 4657TIP3    H113977   1.117   0.137   5.073 -0.5007 -1.3425 -0.6613
 4657TIP3    H213978   1.111   0.104   5.220 -0.1562 -1.6017 -0.7019
 4658TIP3   OH213979   0.177   4.646   1.986  0.9167  0.0926  0.3039
 4658TIP3    H113980   0.187   4.615   1.896  1.6729  0.4041  0.2723
 4658TIP3    H213981   0.091   4.687   1.988 -0.5069 -2.6944  0.5594
 4659TIP3   OH213982   4.231   2.775   0.566  0.0394 -0.4040  0.2571
 4659TIP3    H113983   4.302   2.712   0.554  0.3360  0.0230 -0.2751
 4659TIP3    H213984   4.163   2.747   0.505  0.3016 -0.0275 -0.2140
 4660TIP3   OH213985   1.064   4.524   2.052  0.3848  0.4327  0.7158
 4660TIP3    H113986   1.048   4.577   2.130 -1.0591  3.6298 -1.5498
 4660TIP3    H213987   0.980   4.522   2.007  0.9376 -2.1323 -0.3771
 4661TIP3   OH213988   3.096   0.870   0.862  0.4811 -0.5049  0.3896
 4661TIP3    H113989   3.013   0.892   0.904  1.1163  1.0689  0.8929
 4661TIP3    H213990   3.071   0.831   0.778 -0.7521  0.0469  0.4838
 4662TIP3   OH213991   5.048   3.338   3.404 -0.3158  0.1126 -0.4121
 4662TIP3    H113992   5.091   3.379   3.479 -1.0549  0.4939 -0.1808
 4662TIP3    H213993   5.110   3.347   3.332  0.3188 -0.0798  0.1051
 4663TIP3   OH213994   3.315   0.560   4.502  0.2640  0.4542  0.2025
 4663TIP3    H113995   3.258   0.514   4.565  1.7273 -0.4426  0.9412
 4663TIP3    H213996   3.267   0.556   4.419  0.4447 -2.8709  0.1071
 4664TIP3   OH213997   3.147   0.845   3.658  0.4803 -0.5898  0.5118
 4664TIP3    H113998   3.206   0.773   3.682  0.3860 -0.6465  0.5719
 4664TIP3    H213999   3.066   0.802   3.633  1.3537 -0.7160 -2.4141
 4665TIP3   OH214000   5.923   4.056   1.576 -0.3170 -0.1300  0.4390
 4665TIP3    H114001   5.832   4.080   1.559 -0.0469 -0.5795 -1.9690
 4665TIP3    H214002   5.956   4.126   1.633 -1.3388  1.7257 -1.1484
 4666TIP3   OH214003   5.082   2.109   3.144  0.1092 -0.0512 -0.1204
 4666TIP3    H114004   5.071   2.190   3.195  1.7458 -1.2699  2.3882
 4666TIP3    H214005   4.998   2.095   3.103 -0.5880  2.3049  0.3094
 4667TIP3   OH214006   1.607   2.393   4.522  0.6860 -0.1785  0.2467
 4667TIP3    H114007   1.634   2.363   4.436 -0.4051  0.9841 -0.5445
 4667TIP3    H214008   1.669   2.353   4.583  1.3886 -1.1241 -1.0591
 4668TIP3   OH214009   0.238   3.432   4.280  0.2789  0.0698 -0.0544
 4668TIP3    H114010   0.330   3.439   4.252  0.3952  0.9442  0.5146
 4668TIP3    H214011   0.209   3.348   4.244  1.2025 -0.0667 -0.5258
 4669TIP3   OH214012   3.669   0.527   0.554  0.0574  0.4627  0.2085
 4669TIP3    H114013   3.596   0.578   0.587  0.7836 -0.0486  2.8783
 4669TIP3    H214014   3.629   0.448   0.518 -0.7343  0.2651  1.4752
 4670TIP3   OH214015   0.533   3.456   1.597  0.2025  0.1229  0.4340
 4670TIP3    H114016   0.547   3.410   1.514 -1.5045  0.8351 -0.2869
 4670TIP3    H214017   0.597   3.527   1.596  0.9162 -0.5108  0.2340
 4671TIP3   OH214018   2.797   3.817   4.640  0.4708 -0.0559 -0.2605
 4671TIP3    H114019   2.850   3.799   4.562  1.6528 -2.3653  0.9747
 4671TIP3    H214020   2.734   3.883   4.611  0.2551 -1.4602 -3.4230
 4672TIP3   OH214021   4.644   0.993   2.328 -0.6837  0.3810  0.3900
 4672TIP3    H114022   4.652   1.072   2.381  0.3520  0.2532  0.4438
 4672TIP3    H214023   4.725   0.990   2.276 -0.2345 -1.1565  1.1093
 4673TIP3   OH214024   0.271   0.555   0.114  0.8105  0.0803  0.1748
 4673TIP3    H114025   0.330   0.629   0.127  0.5475  0.2317  0.5412
 4673TIP3    H214026   0.210   0.560   0.188  1.3825 -1.0796  0.7603
 4674TIP3   OH214027   4.255   2.437   3.279 -0.0499 -0.3666  0.2033
 4674TIP3    H114028   4.292   2.352   3.306  0.7546 -0.4097 -0.9649
 4674TIP3    H214029   4.277   2.444   3.186 -1.8642  0.2288 -0.2216
 4675TIP3   OH214030   3.159   3.557   4.073 -0.3923 -0.5025  0.3880
 4675TIP3    H114031   3.246   3.573   4.038 -0.8480  1.6462  0.1135
 4675TIP3    H214032   3.118   3.498   4.009 -0.4423  1.5625 -1.6042
 4676TIP3   OH214033   2.388   3.353   0.729 -0.3294  0.0322 -0.6902
 4676TIP3    H114034   2.310   3.329   0.779 -0.0788  0.5619 -0.0306
 4676TIP3    H214035   2.374   3.445   0.705  0.2903  0.2595 -0.1885
 4677TIP3   OH214036   2.751   0.870   1.810  0.7661 -0.2786 -0.3849
 4677TIP3    H114037   2.707   0.943   1.765  0.8617  0.0580  0.0575
 4677TIP3    H214038   2.842   0.878   1.782  1.1450  0.8985  1.0768
 4678TIP3   OH214039   3.422   3.207   2.283  0.0913  0.2811 -0.5364
 4678TIP3    H114040   3.505   3.185   2.325 -0.0051  0.9346  0.0186
 4678TIP3    H214041   3.389   3.282   2.333 -1.5773 -0.8998  0.1914
 4679TIP3   OH214042   5.089   4.568   4.071 -0.2133 -0.1868 -0.0215
 4679TIP3    H114043   5.016   4.629   4.083  0.5512  0.6027  0.7230
 4679TIP3    H214044   5.154   4.617   4.020 -0.3573 -1.0293 -1.0510
 4680TIP3   OH214045   1.283   4.888   1.288 -0.1709 -0.5965  0.7305
 4680TIP3    H114046   1.225   4.964   1.286 -1.5075 -1.5974 -0.3570
 4680TIP3    H214047   1.350   4.911   1.353  0.8515  2.4747 -1.1754
 4681TIP3   OH214048   2.639   5.461   4.741 -0.2655  0.8866 -0.2221
 4681TIP3    H114049   2.563   5.517   4.724 -0.4049  1.0421  0.8542
 4681TIP3    H214050   2.602   5.379   4.773 -0.0069  0.6668 -0.4837
 4682TIP3   OH214051   1.973   1.909   0.648  0.6873  0.1610  0.2839
 4682TIP3    H114052   1.995   1.951   0.731  0.3007 -1.2431  1.1322
 4682TIP3    H214053   1.906   1.966   0.609  0.4802  0.5576  1.1911
 4683TIP3   OH214054   2.178   0.685   1.956  0.0136 -0.0456 -0.1171
 4683TIP3    H114055   2.090   0.693   1.994  0.0235 -2.2350  0.4997
 4683TIP3    H214056   2.231   0.747   2.004  0.0232 -2.6104  3.6250
 4684TIP3   OH214057   3.682   5.373   4.674  0.2180  0.2037 -0.2066
 4684TIP3    H114058   3.666   5.363   4.768 -0.0949  1.1922 -0.1457
 4684TIP3    H214059   3.778   5.373   4.666  0.2425 -1.1111 -0.0395
 4685TIP3   OH214060   1.753   1.123   2.294  0.0731 -0.3022 -0.2784
 4685TIP3    H114061   1.712   1.054   2.347 -0.8725  0.1361 -0.4097
 4685TIP3    H214062   1.748   1.090   2.205  0.6314 -0.5478 -0.2175
 4686TIP3   OH214063   2.042   1.019   2.589 -0.2367  0.2386  0.8031
 4686TIP3    H114064   2.113   1.029   2.653 -0.8309  0.6750  1.4116
 4686TIP3    H214065   2.084   1.029   2.504  0.9808 -2.4888  0.9807
 4687TIP3   OH214066   6.252   2.322   1.041  0.0741 -0.1107 -0.2970
 4687TIP3    H114067   6.205   2.301   0.960 -0.3343  1.3937 -0.4744
 4687TIP3    H214068   6.330   2.266   1.037 -0.7866 -1.3322 -0.8625
 4688TIP3   OH214069   3.367   0.393   0.582 -0.5504 -0.3391 -0.1718
 4688TIP3    H114070   3.317   0.418   0.659 -1.1270  0.7550 -0.8665
 4688TIP3    H214071   3.422   0.321   0.611  2.6557  2.8371  2.5518
 4689TIP3   OH214072   4.877   1.985   2.956 -0.4406 -0.0539 -0.2966
 4689TIP3    H114073   4.910   1.960   2.869  0.2760 -2.1688  0.5193
 4689TIP3    H214074   4.860   2.079   2.948  0.2924 -0.0283 -2.5055
 4690TIP3   OH214075   1.714   1.812   1.041  0.0619  0.3804 -0.8884
 4690TIP3    H114076   1.686   1.841   0.954 -1.0106  0.1635 -0.6379
 4690TIP3    H214077   1.634   1.777   1.081  0.9955 -1.6148 -0.6504
 4691TIP3   OH214078   6.374   4.716   0.300 -0.2746 -0.0798  0.0457
 4691TIP3    H114079   6.345   4.802   0.332 -0.7417 -0.4520  0.6277
 4691TIP3    H214080   6.297   4.660   0.306 -0.1072 -0.4129 -0.8236
 4692TIP3   OH214081   0.665   3.721   3.814  0.1326 -0.2165  0.0011
 4692TIP3    H114082   0.741   3.779   3.817  1.0567 -1.1195 -2.5932
 4692TIP3    H214083   0.596   3.774   3.775  0.1107 -0.0404  0.2794
 4693TIP3   OH214084   5.239   1.121   4.653  0.1184 -0.3982 -0.6335
 4693TIP3    H114085   5.221   1.129   4.746 -0.9170  0.5507 -0.8984
 4693TIP3    H214086   5.177   1.056   4.621 -0.4613  0.2803 -0.9040
 4694TIP3   OH214087   3.784   2.979   2.316  0.3389  0.4178  0.3897
 4694TIP3    H114088   3.747   2.899   2.278  0.7758  0.6315 -0.5224
 4694TIP3    H214089   3.875   2.956   2.336  1.1661  1.2858 -1.9778
 4695TIP3   OH214090   4.882   1.136   3.656  0.2039 -0.2786 -0.3549
 4695TIP3    H114091   4.928   1.125   3.573 -0.4032  0.6508 -0.8285
 4695TIP3    H214092   4.814   1.069   3.655 -0.1993  0.1366 -0.8917
 4696TIP3   OH214093   4.873   5.030   0.601 -0.3726  0.1372 -0.0716
 4696TIP3    H114094   4.796   5.016   0.546 -0.4616  1.3855 -0.2821
 4696TIP3    H214095   4.938   5.069   0.542  2.1820 -4.9000 -1.1709
 4697TIP3   OH214096   2.047   2.628   3.867  0.1565  0.0758  0.3559
 4697TIP3    H114097   1.962   2.585   3.859 -0.0421 -0.0492  2.4942
 4697TIP3    H214098   2.106   2.575   3.813 -0.5605 -1.5698  1.1183
 4698TIP3   OH214099   4.626   0.436   3.368 -0.0635  0.4076 -0.4867
 4698TIP3    H114100   4.695   0.385   3.412 -0.1941 -0.9576 -1.8005
 4698TIP3    H214101   4.614   0.393   3.284 -2.7991  0.3842 -0.1720
 4699TIP3   OH214102   1.847   4.841   2.249 -0.6001  0.2009 -0.1501
 4699TIP3    H114103   1.798   4.890   2.316 -1.2175 -0.7517  0.1225
 4699TIP3    H214104   1.779   4.809   2.189 -0.4396 -1.7328  0.6101
 4700TIP3   OH214105   4.348   1.923   2.520  0.4902 -0.0339  0.1653
 4700TIP3    H114106   4.362   1.933   2.614 -0.9377 -0.0615  0.3983
 4700TIP3    H214107   4.363   2.010   2.484  0.8078  0.0284  0.4411
 4701TIP3   OH214108   5.863   3.104   3.568 -0.0268 -0.1781 -0.1224
 4701TIP3    H114109   5.792   3.106   3.503  2.0753  0.8811 -2.5269
 4701TIP3    H214110   5.882   3.011   3.579 -1.2256 -0.4331 -0.0267
 4702TIP3   OH214111   5.656   2.139   2.337 -0.2417 -0.3801 -0.5395
 4702TIP3    H114112   5.718   2.135   2.264 -0.6865 -0.4654 -0.9201
 4702TIP3    H214113   5.697   2.197   2.401  1.3496 -2.2910  0.2982
 4703TIP3   OH214114   2.310   2.430   3.678  0.5604 -0.4356  0.0119
 4703TIP3    H114115   2.375   2.406   3.611  0.6999 -0.3102  0.1004
 4703TIP3    H214116   2.257   2.352   3.690 -0.1092 -0.1506 -0.9789
 4704TIP3   OH214117   5.081   3.565   1.115 -0.3587 -0.4492 -1.0867
 4704TIP3    H114118   5.166   3.564   1.071  0.3226 -1.7086  0.1971
 4704TIP3    H214119   5.063   3.473   1.135 -1.0440  0.0052  0.4871
 4705TIP3   OH214120   4.070   5.992   1.045  0.5058  0.6284 -0.3523
 4705TIP3    H114121   4.117   6.005   0.962 -0.4704  1.3156 -0.8059
 4705TIP3    H214122   4.018   5.913   1.030  0.7375  0.4455 -0.2005
 4706TIP3   OH214123   3.147   3.599   2.101 -0.0574  0.6933  0.1608
 4706TIP3    H114124   3.217   3.547   2.062  0.5108  1.1638  0.5359
 4706TIP3    H214125   3.085   3.535   2.135  0.4635  0.2662  0.3129
 4707TIP3   OH214126   5.506   5.478   1.173 -1.0254  0.1646 -0.2129
 4707TIP3    H114127   5.539   5.440   1.092  0.9954 -0.2165  0.7402
 4707TIP3    H214128   5.501   5.572   1.155 -0.3286  0.1136 -0.6829
 4708TIP3   OH214129   3.521   2.428   4.499  0.4725  0.1879  0.1099
 4708TIP3    H114130   3.468   2.348   4.497  0.3574  0.2717 -0.2875
 4708TIP3    H214131   3.610   2.398   4.516  1.4246 -0.6110 -4.6565
 4709TIP3   OH214132   3.640   3.827   4.936  0.5611 -0.4629 -0.4059
 4709TIP3    H114133   3.624   3.761   4.869  2.2072  0.1198 -1.4370
 4709TIP3    H214134   3.704   3.886   4.897  2.1774 -0.5210  1.9344
 4710TIP3   OH214135   4.182   0.719   1.796  0.1753 -0.0688 -0.5766
 4710TIP3    H114136   4.186   0.814   1.804 -0.7499  0.0027 -0.8776
 4710TIP3    H214137   4.104   0.702   1.744  1.7548 -0.8876 -2.8357
 4711TIP3   OH214138   3.593   0.554   0.993 -0.0236 -0.4850  0.3103
 4711TIP3    H114139   3.614   0.603   0.914 -3.1824  0.5172 -0.0574
 4711TIP3    H214140   3.614   0.614   1.065 -1.7485  0.6054 -0.0438
 4712TIP3   OH214141   2.164   1.401   3.451 -0.6340 -0.0294  0.7314
 4712TIP3    H114142   2.247   1.427   3.491  0.2129 -1.0423 -0.3049
 4712TIP3    H214143   2.097   1.438   3.508  0.5237  1.2541  1.3049
 4713TIP3   OH214144   5.848   3.889   0.194  0.0803 -0.1637 -0.0045
 4713TIP3    H114145   5.898   3.813   0.167  0.4395  0.9688 -2.8679
 4713TIP3    H214146   5.887   3.916   0.277  0.6520 -2.3943  0.4990
 4714TIP3   OH214147   2.937   3.115   3.249 -0.1062  0.5566 -0.4108
 4714TIP3    H114148   2.849   3.096   3.218 -0.1051  0.1101 -0.1582
 4714TIP3    H214149   2.975   3.172   3.182 -0.1385 -0.3046 -1.1909
 4715TIP3   OH214150   3.433   1.765   3.003 -0.0906 -0.4735  0.3353
 4715TIP3    H114151   3.485   1.775   3.083  0.6019 -1.2187 -0.0068
 4715TIP3    H214152   3.486   1.707   2.947 -1.2672 -1.2121 -0.0433
 4716TIP3   OH214153   4.118   5.588   4.244 -0.3293  0.0456  0.3558
 4716TIP3    H114154   4.155   5.638   4.317  0.4940  0.4472 -0.3098
 4716TIP3    H214155   4.156   5.628   4.166 -0.1726 -1.1888 -0.2380
 4717TIP3   OH214156   5.592   5.939   3.146 -0.4637 -0.0498 -0.3196
 4717TIP3    H114157   5.604   5.949   3.240 -2.2321  2.4737 -0.2790
 4717TIP3    H214158   5.525   5.871   3.137  1.5441 -2.2139  0.0420
 4718TIP3   OH214159   4.422   1.813   4.211  0.0585 -0.3617 -0.0630
 4718TIP3    H114160   4.465   1.816   4.296 -0.4674 -0.2604  0.2059
 4718TIP3    H214161   4.480   1.761   4.155  0.7517  0.1631  0.1608
 4719TIP3   OH214162   0.321   3.463   0.125 -0.4544  0.3728 -0.0979
 4719TIP3    H114163   0.289   3.427   0.208 -0.9514 -0.2783 -0.5660
 4719TIP3    H214164   0.255   3.529   0.101 -0.2139  0.6941  0.1104
 4720TIP3   OH214165   1.148   5.006   5.085 -0.1432  0.1010 -0.4492
 4720TIP3    H114166   1.172   5.057   5.162 -0.3381  1.9522 -1.5689
 4720TIP3    H214167   1.062   4.971   5.106 -0.0125  0.2319  0.3371
 4721TIP3   OH214168   3.574   0.481   1.549 -0.1320  0.1999 -0.0161
 4721TIP3    H114169   3.647   0.463   1.609  0.5679 -0.6630 -1.0964
 4721TIP3    H214170   3.615   0.524   1.474 -0.8705  0.4569 -0.2745
 4722TIP3   OH214171   5.582   3.593   1.388  0.0610  0.0193  0.1514
 4722TIP3    H114172   5.619   3.531   1.325  1.3811  2.1364 -1.3050
 4722TIP3    H214173   5.516   3.642   1.338  0.0455  0.7268  0.8451
 4723TIP3   OH214174   6.274   3.283   3.857  0.0109 -0.2677 -0.3027
 4723TIP3    H114175   6.189   3.254   3.825 -1.2216 -0.6696  2.9819
 4723TIP3    H214176   6.288   3.233   3.938  2.7865  0.7286 -0.0409
 4724TIP3   OH214177   0.167   2.212   0.998  0.0062 -0.3862  0.4371
 4724TIP3    H114178   0.242   2.222   0.939 -0.2181 -0.6979  0.0985
 4724TIP3    H214179   0.192   2.262   1.076  1.1392 -1.5680  0.8758
 4725TIP3   OH214180   3.347   0.599   2.251 -0.3147 -0.0048  0.3433
 4725TIP3    H114181   3.347   0.642   2.165 -0.7304  0.9030  0.7836
 4725TIP3    H214182   3.257   0.570   2.263 -0.1911 -0.3867  0.3499
 4726TIP3   OH214183   5.163   2.724   5.122  0.2728 -0.2450  0.7594
 4726TIP3    H114184   5.077   2.683   5.120 -0.0764  0.4980 -0.5856
 4726TIP3    H214185   5.218   2.669   5.065  0.4999 -0.3118  1.0395
 4727TIP3   OH214186   5.059   4.442   2.839  0.4467  0.2096 -0.7113
 4727TIP3    H114187   5.031   4.350   2.842 -0.1235  0.3777  1.6536
 4727TIP3    H214188   5.129   4.447   2.904 -0.7172  1.7675  0.4958
 4728TIP3   OH214189   2.597   4.161   0.768  0.0411  0.2595 -0.4014
 4728TIP3    H114190   2.507   4.192   0.778  0.3638  1.3060 -0.5697
 4728TIP3    H214191   2.592   4.067   0.783 -0.9693  0.4011  0.2675
 4729TIP3   OH214192   4.095   0.800   3.292  0.2972 -0.6479  0.2244
 4729TIP3    H114193   4.113   0.706   3.298  0.6116 -0.5500  0.8474
 4729TIP3    H214194   4.167   0.842   3.340  0.1644 -0.0893 -0.0597
 4730TIP3   OH214195   5.011   4.487   1.181 -0.0503 -0.1049 -0.6798
 4730TIP3    H114196   5.033   4.540   1.104  0.3439 -1.6889 -1.7092
 4730TIP3    H214197   5.090   4.486   1.233 -0.2963  0.9212 -0.2603
 4731TIP3   OH214198   3.460   3.795   1.142 -0.3556 -0.1957 -0.4082
 4731TIP3    H114199   3.446   3.700   1.143 -0.8087 -0.1337 -0.4346
 4731TIP3    H214200   3.375   3.831   1.116 -0.3224  0.2407  0.0807
 4732TIP3   OH214201   1.964   3.552   1.048 -0.1431  0.6729 -0.0239
 4732TIP3    H114202   1.970   3.560   0.953  1.5145  0.1897  0.0136
 4732TIP3    H214203   1.998   3.635   1.082  1.3627  0.0220  0.1450
 4733TIP3   OH214204   4.717   5.924   4.189 -0.8623 -0.0988 -0.9031
 4733TIP3    H114205   4.773   5.847   4.179  2.4747  1.9839  0.1650
 4733TIP3    H214206   4.699   5.952   4.099  1.0736 -0.0541 -1.3198
 4734TIP3   OH214207   1.145   0.386   3.377  0.4155  0.2887  0.5294
 4734TIP3    H114208   1.118   0.471   3.413 -1.2606 -0.0137  0.0590
 4734TIP3    H214209   1.083   0.369   3.307  1.1147 -1.0518  0.2094
 4735TIP3   OH214210   5.945   5.387   1.164 -0.2680 -0.0688 -0.5486
 4735TIP3    H114211   5.941   5.430   1.250 -0.3816 -0.1286 -0.5238
 4735TIP3    H214212   5.922   5.296   1.182  3.0338 -0.9482 -0.0596
 4736TIP3   OH214213   2.066   5.881   4.636  0.0780 -0.0535  0.5720
 4736TIP3    H114214   2.010   5.816   4.679 -1.0085 -0.5007 -1.4176
 4736TIP3    H214215   2.154   5.843   4.639 -0.3052 -0.9532  0.7054
 4737TIP3   OH214216   2.497   4.676   4.482 -0.6436  0.1743  0.4012
 4737TIP3    H114217   2.465   4.658   4.393  0.8104  1.1220 -0.3725
 4737TIP3    H214218   2.545   4.759   4.472  0.2557 -0.1481  1.9044
 4738TIP3   OH214219   1.362   3.165   2.223  0.0072  0.2709  0.2106
 4738TIP3    H114220   1.426   3.234   2.239 -0.3748  0.6938 -0.0430
 4738TIP3    H214221   1.370   3.147   2.129 -1.7746  1.9065 -0.3090
 4739TIP3   OH214222   5.597   1.890   4.724  0.1328  0.2151 -0.0768
 4739TIP3    H114223   5.671   1.845   4.682 -0.2320 -0.6924  0.2241
 4739TIP3    H214224   5.563   1.826   4.787 -0.3904  0.9347  0.3820
 4740TIP3   OH214225   3.141  -0.022   1.656  0.1267  0.1288 -0.1833
 4740TIP3    H114226   3.119   0.063   1.695 -2.6092 -0.9767  0.9043
 4740TIP3    H214227   3.126  -0.010   1.562 -0.8473  0.7128  0.0321
 4741TIP3   OH214228   2.045   5.175   0.445  0.3516  0.3215 -0.0856
 4741TIP3    H114229   2.052   5.199   0.537  0.8769  0.4607 -0.1568
 4741TIP3    H214230   1.953   5.153   0.432  0.3547 -0.1169  0.5786
 4742TIP3   OH214231   5.404   2.291   3.224 -0.0517  0.6812  0.0069
 4742TIP3    H114232   5.355   2.367   3.193  0.0660  0.2045 -1.4178
 4742TIP3    H214233   5.403   2.230   3.150 -1.2787 -1.2764  1.5331
 4743TIP3   OH214234   4.717   0.930   3.494  0.6073 -0.0761  0.3027
 4743TIP3    H114235   4.648   0.889   3.441 -1.1223  1.9377  0.8285
 4743TIP3    H214236   4.784   0.956   3.431 -0.7130  0.9329 -0.7470
 4744TIP3   OH214237   4.123   3.630   0.131 -0.3209  0.5232 -0.7988
 4744TIP3    H114238   4.043   3.669   0.094 -1.6556 -1.2068  0.0901
 4744TIP3    H214239   4.123   3.658   0.223 -1.3342 -1.4668 -0.1276
 4745TIP3   OH214240   2.881   1.486   0.748 -0.4234  0.3785  0.2709
 4745TIP3    H114241   2.858   1.577   0.763  0.3263  1.4781 -3.8550
 4745TIP3    H214242   2.976   1.483   0.758 -0.5152 -0.1555  1.0752
 4746TIP3   OH214243   3.766   3.597   0.659 -0.4332 -0.0763 -0.3444
 4746TIP3    H114244   3.835   3.531   0.653  0.1379  0.4444  0.3264
 4746TIP3    H214245   3.745   3.602   0.752 -0.8531  0.2903 -0.4549
 4747TIP3   OH214246   6.274   5.690   3.103  0.0290  0.2144 -0.2540
 4747TIP3    H114247   6.336   5.761   3.122  1.1725 -0.9064  0.3643
 4747TIP3    H214248   6.197   5.710   3.157  0.3745  0.9243 -0.0072
 4748TIP3   OH214249  -0.006   0.262   0.601  0.1551 -0.5888  0.0097
 4748TIP3    H114250  -0.034   0.196   0.664 -0.8956 -1.4549 -1.3127
 4748TIP3    H214251   0.056   0.217   0.544 -0.8259 -0.5598 -1.1122
 4749TIP3   OH214252   0.538   3.085   0.793  0.4715 -0.2775 -0.5865
 4749TIP3    H114253   0.579   2.999   0.788  0.2328 -0.3631 -1.2016
 4749TIP3    H214254   0.599   3.144   0.749  0.4489 -0.2067 -0.5245
 4750TIP3   OH214255   3.220   2.457   3.725  0.7336  0.8115 -0.1213
 4750TIP3    H114256   3.247   2.401   3.652 -0.6584  1.0837 -0.8642
 4750TIP3    H214257   3.280   2.433   3.796 -0.2867 -2.2637 -0.1288
 4751TIP3   OH214258   4.521   0.522   2.057 -0.0595 -0.3205  0.0725
 4751TIP3    H114259   4.594   0.539   2.116 -0.2509 -0.1142  0.2527
 4751TIP3    H214260   4.478   0.608   2.047  0.1389 -0.2929 -0.5854
 4752TIP3   OH214261   3.138   2.571   0.447  0.2160  0.0476 -0.6931
 4752TIP3    H114262   3.136   2.506   0.517 -0.0761  0.7695 -0.0215
 4752TIP3    H214263   3.222   2.556   0.403  1.0653  0.5062  0.7138
 4753TIP3   OH214264   0.908   2.955   0.238  0.4070  0.4252 -0.3782
 4753TIP3    H114265   0.973   2.915   0.296  1.0884  1.6949 -0.2358
 4753TIP3    H214266   0.911   3.048   0.259  0.1745  0.8158 -1.9731
 4754TIP3   OH214267   0.582   1.580   4.479 -0.6146 -0.3364  0.0033
 4754TIP3    H114268   0.520   1.558   4.549  0.6381  0.8311  1.5421
 4754TIP3    H214269   0.646   1.509   4.481  0.0186  0.2422  0.8016
 4755TIP3   OH214270   6.055   0.258   0.235 -0.3100 -0.2018 -0.6505
 4755TIP3    H114271   6.032   0.278   0.325 -1.9109 -1.4809 -0.7370
 4755TIP3    H214272   6.143   0.293   0.224 -0.5169  0.9429  1.0651
 4756TIP3   OH214273   3.280   1.589   4.171  0.1154 -0.1726 -0.0193
 4756TIP3    H114274   3.248   1.604   4.083  0.3335 -2.5451 -0.5712
 4756TIP3    H214275   3.207   1.612   4.228 -1.0856 -1.3368 -1.0206
 4757TIP3   OH214276   5.033   4.147   3.352  0.4200  0.0237 -0.3699
 4757TIP3    H114277   4.979   4.153   3.430 -0.8914  1.9690 -1.3672
 4757TIP3    H214278   5.086   4.226   3.353  2.5659 -1.3241  0.0127
 4758TIP3   OH214279   2.892   1.233   3.779  0.3604 -0.6302  0.1413
 4758TIP3    H114280   2.833   1.207   3.850 -0.3171 -2.0674 -0.9003
 4758TIP3    H214281   2.872   1.325   3.763  1.8902  0.3220  3.0789
 4759TIP3   OH214282   0.343   2.319   0.417  0.9360  0.2802 -0.0609
 4759TIP3    H114283   0.428   2.291   0.453 -0.3266 -5.8960 -0.7049
 4759TIP3    H214284   0.347   2.292   0.325 -0.9985  2.0805 -0.7374
 4760TIP3   OH214285   3.557   4.188   3.091 -0.1771 -0.4115 -0.1923
 4760TIP3    H114286   3.534   4.105   3.049 -0.8817  0.9341 -2.6940
 4760TIP3    H214287   3.650   4.180   3.112  0.2965 -1.1310 -2.3138
 4761TIP3   OH214288   2.655   1.858   5.057  0.5865 -0.1972  0.1544
 4761TIP3    H114289   2.619   1.872   4.970  1.0035  0.1491  0.0325
 4761TIP3    H214290   2.605   1.784   5.093  1.6745 -1.6093 -1.1221
 4762TIP3   OH214291   2.620   4.781   1.393  0.2231  0.9091  0.0852
 4762TIP3    H114292   2.711   4.801   1.412  0.1185  0.1400  1.4985
 4762TIP3    H214293   2.571   4.815   1.468 -0.5585  0.5471 -0.2461
 4763TIP3   OH214294   6.304   2.763   4.522 -0.2890  0.1781  0.1655
 4763TIP3    H114295   6.338   2.674   4.527 -0.3921  0.1636  0.6046
 4763TIP3    H214296   6.238   2.760   4.453 -0.0095  0.0089 -0.0963
 4764TIP3   OH214297   1.431   4.918   1.523  0.7074 -0.0678 -0.0471
 4764TIP3    H114298   1.343   4.943   1.553  0.3427 -1.3481  0.0023
 4764TIP3    H214299   1.484   4.915   1.602  0.3267 -1.1025  0.1858
 4765TIP3   OH214300   0.151   3.552   0.549 -0.2264  0.1454  0.4681
 4765TIP3    H114301   0.176   3.644   0.545 -1.5769  0.5052 -0.6495
 4765TIP3    H214302   0.078   3.544   0.488 -0.4343 -1.5828  0.8713
 4766TIP3   OH214303   2.018   5.977   1.091  0.1765  0.7709  0.5332
 4766TIP3    H114304   1.929   5.992   1.121  0.1428  0.9137  0.3579
 4766TIP3    H214305   2.011   5.959   0.998 -0.0612 -2.7130  1.0846
 4767TIP3   OH214306   0.140   2.477   0.521  0.0283 -0.1554 -0.1893
 4767TIP3    H114307   0.142   2.474   0.617 -1.7187 -1.3873 -0.1532
 4767TIP3    H214308   0.222   2.436   0.494  1.5299  2.0355  0.7179
 4768TIP3   OH214309   1.536   0.011   2.465  0.3658 -0.0996  0.3039
 4768TIP3    H114310   1.629   0.000   2.444  0.2161 -0.1457 -0.3808
 4768TIP3    H214311   1.531  -0.000   2.560  1.2950  1.5674  0.5863
 4769TIP3   OH214312   1.377   1.008   5.006 -0.9837 -0.9306  0.0591
 4769TIP3    H114313   1.323   1.060   5.066 -1.6322 -2.0442  0.4754
 4769TIP3    H214314   1.423   1.073   4.953 -0.4613  0.0953  1.6933
 4770TIP3   OH214315   0.416   0.996   0.475 -0.1033 -0.2169 -0.2913
 4770TIP3    H114316   0.402   0.909   0.511 -0.8675 -0.0716 -0.2084
 4770TIP3    H214317   0.339   1.046   0.503 -0.1989  0.1897 -1.2258
 4771TIP3   OH214318   1.822   2.113   0.506  0.2319  0.6033 -0.0213
 4771TIP3    H114319   1.835   2.060   0.427  1.2008  0.5062  0.1924
 4771TIP3    H214320   1.817   2.203   0.473  1.2744  0.6294 -0.1536
 4772TIP3   OH214321   4.582   5.129   2.968 -0.2822 -0.1198  0.0205
 4772TIP3    H114322   4.574   5.078   3.049 -2.2005 -1.2750 -0.8104
 4772TIP3    H214323   4.533   5.209   2.985 -1.1476 -0.6015 -0.1488
 4773TIP3   OH214324   2.107   0.139   2.391  0.5223 -0.3967 -0.0040
 4773TIP3    H114325   2.022   0.177   2.415 -0.1099 -1.9902  0.4017
 4773TIP3    H214326   2.168   0.177   2.454  0.2805  1.3349 -0.7555
 4774TIP3   OH214327   1.190   3.579   2.240 -0.1088 -0.6925 -0.6639
 4774TIP3    H114328   1.267   3.606   2.191  0.7660 -0.6590  0.6747
 4774TIP3    H214329   1.222   3.513   2.301 -1.2267 -1.0042 -0.3852
 4775TIP3   OH214330   3.090   4.258   0.438  0.1449  0.6172 -0.1626
 4775TIP3    H114331   3.049   4.344   0.429  0.8718  0.8981 -0.9069
 4775TIP3    H214332   3.129   4.259   0.526 -0.2797  0.8588  0.0220
 4776TIP3   OH214333   3.905   1.643   3.910  0.6840  0.0688 -0.1771
 4776TIP3    H114334   3.813   1.656   3.933  0.7385 -1.1910  0.8775
 4776TIP3    H214335   3.905   1.562   3.859  1.3983 -0.9979  1.4437
 4777TIP3   OH214336   4.788   1.665   3.380  0.4115  0.1022  0.5204
 4777TIP3    H114337   4.771   1.724   3.306 -1.0016 -0.2161  0.5575
 4777TIP3    H214338   4.883   1.656   3.382  0.5012  0.2375 -1.1750
 4778TIP3   OH214339   2.918   4.750   0.726  0.3596  0.0484  0.4653
 4778TIP3    H114340   2.939   4.658   0.745 -0.8058 -0.1328  1.0011
 4778TIP3    H214341   2.866   4.746   0.646 -0.7277  0.0813  1.1336
 4779TIP3   OH214342   0.648   4.643   0.209  0.3731  0.0934  0.1168
 4779TIP3    H114343   0.617   4.575   0.149 -0.2092 -0.1499  0.6875
 4779TIP3    H214344   0.574   4.703   0.218  0.3390 -0.0415  0.8338
 4780TIP3   OH214345   3.805   0.163   2.127  0.3480 -0.6919 -0.1231
 4780TIP3    H114346   3.713   0.142   2.141 -0.1322 -0.3797 -2.4525
 4780TIP3    H214347   3.804   0.243   2.075  2.0170  0.7543  1.8578
 4781TIP3   OH214348   4.130   0.786   4.968 -0.6286  0.1804 -0.3916
 4781TIP3    H114349   4.194   0.715   4.975 -2.1079 -1.1173  0.3134
 4781TIP3    H214350   4.052   0.745   4.932 -2.1250  1.0114  1.7377
 4782TIP3   OH214351   0.702   3.540   3.074  0.2194 -0.0453  0.0394
 4782TIP3    H114352   0.756   3.472   3.115 -0.6692 -0.6556  0.2251
 4782TIP3    H214353   0.620   3.496   3.053 -0.6193  1.1259  0.7267
 4783TIP3   OH214354   1.842   3.659   4.399 -0.4849 -0.1831 -0.3248
 4783TIP3    H114355   1.813   3.666   4.308  0.4879 -0.9582 -0.7188
 4783TIP3    H214356   1.800   3.580   4.431 -0.6759 -0.0154 -0.1650
 4784TIP3   OH214357   1.221   1.874   4.935 -0.3945  0.3150  0.1946
 4784TIP3    H114358   1.245   1.964   4.916 -0.9690  0.5768  0.6695
 4784TIP3    H214359   1.276   1.849   5.008 -0.6565  0.4853  0.4522
 4785TIP3   OH214360   2.379   1.770   4.985 -0.3508 -0.2496 -0.1510
 4785TIP3    H114361   2.416   1.784   4.898 -0.7487 -0.8606 -0.4239
 4785TIP3    H214362   2.365   1.858   5.020 -0.2324 -0.0026 -0.7196
 4786TIP3   OH214363   3.715   1.994   3.670  0.2171  0.2390  0.0264
 4786TIP3    H114364   3.659   2.012   3.745 -2.3656 -1.7410 -1.2529
 4786TIP3    H214365   3.705   2.070   3.614 -2.9599 -0.8139 -1.0581
 4787TIP3   OH214366   0.176   5.405   3.320 -0.6465  0.4836  0.0253
 4787TIP3    H114367   0.215   5.492   3.325  1.3617 -0.3530 -0.1610
 4787TIP3    H214368   0.097   5.417   3.267 -0.2230  2.1093 -0.3027
 4788TIP3   OH214369   5.567   2.737   3.460  0.1089  0.5261 -0.5649
 4788TIP3    H114370   5.649   2.688   3.457  0.0810  0.5014 -1.0480
 4788TIP3    H214371   5.536   2.727   3.550  0.7695  0.7574 -0.3021
 4789TIP3   OH214372   1.259   5.160   3.312  1.1223 -0.2383  0.1269
 4789TIP3    H114373   1.226   5.074   3.341  0.8323 -0.1004  0.2051
 4789TIP3    H214374   1.353   5.146   3.301  1.1075 -0.5182  0.3267
 4790TIP3   OH214375   4.593   1.725   1.147 -0.5791 -0.5258  0.0500
 4790TIP3    H114376   4.524   1.658   1.144 -0.2398 -0.9500  1.1662
 4790TIP3    H214377   4.651   1.702   1.075  0.1705 -2.1771  1.1207
 4791TIP3   OH214378   6.165   2.337   1.332  0.2448 -0.0289 -0.2492
 4791TIP3    H114379   6.253   2.350   1.368  0.2370 -0.8398  0.0943
 4791TIP3    H214380   6.181   2.301   1.244  0.2573  1.2214 -0.7762
 4792TIP3   OH214381   1.806   4.189   2.037 -0.0308  0.0160  0.1884
 4792TIP3    H114382   1.850   4.160   1.957 -0.6047 -1.0090  0.2202
 4792TIP3    H214383   1.845   4.135   2.106 -1.2322 -0.8344  0.2346
 4793TIP3   OH214384   0.456   4.304   3.067 -0.2275 -0.3420 -0.4592
 4793TIP3    H114385   0.488   4.238   3.128  0.1434 -0.7231 -1.0603
 4793TIP3    H214386   0.458   4.262   2.981  1.1029  0.7994 -1.0264
 4794TIP3   OH214387   2.097   2.400   4.106 -0.3402  0.5999 -0.4849
 4794TIP3    H114388   2.017   2.422   4.058 -0.3323  0.7339 -0.4370
 4794TIP3    H214389   2.166   2.450   4.062 -0.2412  0.2974 -0.6782
 4795TIP3   OH214390   6.240   0.777   0.767 -0.5094  0.2065  0.4836
 4795TIP3    H114391   6.276   0.860   0.735 -0.8726  0.5996  1.0708
 4795TIP3    H214392   6.167   0.803   0.823 -1.9581 -0.5852 -0.9658
 4796TIP3   OH214393   3.837   4.933   0.406 -0.1966  0.4645  0.3513
 4796TIP3    H114394   3.880   4.930   0.320 -0.5905 -0.1434  0.1684
 4796TIP3    H214395   3.763   4.993   0.393 -0.8267 -0.3695 -0.0131
 4797TIP3   OH214396   0.426   2.125   2.506  0.5481  0.0557 -0.3699
 4797TIP3    H114397   0.505   2.071   2.519  0.2611 -0.5440 -1.0178
 4797TIP3    H214398   0.446   2.208   2.549  1.6137 -0.0255 -0.6688
 4798TIP3   OH214399   0.868   5.961   1.087  1.0109  0.0281 -0.3393
 4798TIP3    H114400   0.897   5.875   1.057  0.2963 -1.1288  2.0312
 4798TIP3    H214401   0.796   5.984   1.028  1.2682 -0.9480 -1.0621
 4799TIP3   OH214402   1.585   0.707   3.378  0.0206 -0.2692 -0.0221
 4799TIP3    H114403   1.603   0.715   3.471 -4.3910  1.6846  0.8960
 4799TIP3    H214404   1.592   0.797   3.345 -1.7759 -0.3780 -0.7827
 4800TIP3   OH214405   5.861   0.890   0.296  0.4393 -0.3680  0.3342
 4800TIP3    H114406   5.853   0.908   0.202  0.4755 -1.1114  0.1820
 4800TIP3    H214407   5.870   0.795   0.301 -0.8346 -0.4652  1.1724
 4801TIP3   OH214408   3.557   4.970   0.881 -0.0522  0.4178  0.0053
 4801TIP3    H114409   3.599   5.045   0.923  1.4256 -0.9746  1.1438
 4801TIP3    H214410   3.504   4.931   0.950 -1.2093  0.6741 -0.7163
 4802TIP3   OH214411   3.721   0.081   3.939  0.2380 -0.1267  0.3246
 4802TIP3    H114412   3.760   0.152   3.991  0.2498  1.8978 -2.2550
 4802TIP3    H214413   3.631   0.075   3.972  0.7459 -0.2065  1.7945
 4803TIP3   OH214414   0.366   3.814   0.095  0.0131  0.2264  0.3693
 4803TIP3    H114415   0.343   3.816   0.187 -0.6325 -3.2545  0.3927
 4803TIP3    H214416   0.458   3.841   0.092  0.0989  0.1620  2.0263
 4804TIP3   OH214417   3.322   4.171   1.979 -0.2796 -0.4216 -0.1136
 4804TIP3    H114418   3.320   4.076   1.991 -0.2082 -0.5520 -1.0232
 4804TIP3    H214419   3.239   4.191   1.935 -0.0340 -0.1501 -0.4589
 4805TIP3   OH214420   3.767   0.127   0.856 -0.6484  0.3197 -0.0818
 4805TIP3    H114421   3.821   0.089   0.926 -0.9243  0.5411  0.2568
 4805TIP3    H214422   3.700   0.178   0.903 -1.3848 -0.2672 -0.4833
 4806TIP3   OH214423   5.289   1.431   0.924 -0.0896  0.3589  0.2370
 4806TIP3    H114424   5.268   1.498   0.990 -1.8347 -1.0262  1.1527
 4806TIP3    H214425   5.242   1.353   0.952  0.9670 -0.9640 -1.4348
 4807TIP3   OH214426   6.191   1.100   2.902  0.2001  0.0833  0.4820
 4807TIP3    H114427   6.246   1.025   2.879 -1.2874 -1.2580  1.1310
 4807TIP3    H214428   6.228   1.133   2.984  0.9099  0.1514  0.1495
 4808TIP3   OH214429   1.949   1.453   5.073  0.0849  0.1637  0.0269
 4808TIP3    H114430   1.997   1.379   5.109 -0.6825  0.9115  2.7910
 4808TIP3    H214431   2.017   1.513   5.042  0.7914 -0.4950  0.2622
 4809TIP3   OH214432   1.561   1.770   0.146  0.4628  0.2157  0.3025
 4809TIP3    H114433   1.591   1.719   0.071  0.2721  0.7031 -0.1196
 4809TIP3    H214434   1.483   1.725   0.177  0.5374  0.0164  0.1985
 4810TIP3   OH214435   5.856   4.987   2.141 -0.5769 -0.1655 -0.3516
 4810TIP3    H114436   5.923   4.921   2.161 -0.0687  0.4818  0.1104
 4810TIP3    H214437   5.774   4.938   2.145 -0.1317 -1.0209 -1.1462
 4811TIP3   OH214438   3.265   4.612   0.695  0.0967 -0.0921  0.7984
 4811TIP3    H114439   3.174   4.581   0.700 -0.4361  1.1213 -0.4323
 4811TIP3    H214440   3.288   4.603   0.602  1.8371 -1.8955  1.3437
 4812TIP3   OH214441   4.388   2.639   3.394  0.2875 -0.0293 -0.4194
 4812TIP3    H114442   4.330   2.573   3.354  1.1820  0.3305 -2.3965
 4812TIP3    H214443   4.456   2.654   3.329  1.1414  1.5190  0.7705
 4813TIP3   OH214444   3.945   2.260   3.282 -0.5465 -0.3720 -0.5867
 4813TIP3    H114445   3.999   2.339   3.292 -0.3591 -0.6254  0.6024
 4813TIP3    H214446   3.992   2.193   3.333 -2.4869 -0.3435  1.3787
 4814TIP3   OH214447   4.740   1.805   3.112  0.4232 -0.1825 -1.0082
 4814TIP3    H114448   4.682   1.854   3.171 -1.1239 -1.7274 -1.1798
 4814TIP3    H214449   4.779   1.872   3.056 -2.2582  0.8271 -1.8130
 4815TIP3   OH214450   0.585   1.364   5.155  0.1930 -0.0308 -0.2104
 4815TIP3    H114451   0.672   1.361   5.114  0.0910  0.8913 -0.5087
 4815TIP3    H214452   0.580   1.451   5.194 -0.7076  0.0224 -0.4276
 4816TIP3   OH214453   4.655   5.906   0.076 -0.4193 -0.0449  0.1339
 4816TIP3    H114454   4.677   5.982   0.131  0.1899 -0.0218 -0.1431
 4816TIP3    H214455   4.704   5.920  -0.005 -2.0171  0.4072 -0.8183
 4817TIP3   OH214456   2.041   0.608   1.712  0.2438 -0.5018  0.1031
 4817TIP3    H114457   2.110   0.615   1.646  0.2766  0.4962  0.2376
 4817TIP3    H214458   2.086   0.626   1.795 -0.5101  2.1120  0.0123
 4818TIP3   OH214459   5.360   0.461   1.946 -0.3888 -0.3313  0.0495
 4818TIP3    H114460   5.394   0.427   1.863 -0.1495  1.3463 -0.5732
 4818TIP3    H214461   5.265   0.459   1.934 -0.3463  1.3719 -0.9388
 4819TIP3   OH214462   0.512   3.472   1.867 -0.1857 -0.4053 -0.5785
 4819TIP3    H114463   0.571   3.407   1.905 -0.7723 -1.1945 -0.9812
 4819TIP3    H214464   0.543   3.483   1.777 -0.9161 -1.1901 -0.9477
 4820TIP3   OH214465   5.737   2.873   4.433  0.3118 -0.6039 -0.1661
 4820TIP3    H114466   5.690   2.956   4.426 -2.1204 -1.8167  0.7137
 4820TIP3    H214467   5.802   2.888   4.502 -0.2243  0.5114  0.1190
 4821TIP3   OH214468   0.353   3.947   2.931 -0.3008 -0.2194  0.1396
 4821TIP3    H114469   0.439   3.905   2.923 -0.2574  0.0078 -0.6476
 4821TIP3    H214470   0.369   4.039   2.908 -0.8931 -0.3298 -0.7447
 4822TIP3   OH214471   0.516   2.187   1.147  0.3415 -0.0628 -0.7393
 4822TIP3    H114472   0.514   2.256   1.213  0.3868 -1.0333  0.3208
 4822TIP3    H214473   0.607   2.186   1.115  0.4253  0.1510 -0.5080
 4823TIP3   OH214474   2.575   3.094   1.062  0.1877 -0.0583 -0.1227
 4823TIP3    H114475   2.642   3.031   1.037 -0.3772 -0.5724 -0.3524
 4823TIP3    H214476   2.604   3.128   1.146  0.7812 -0.2127 -0.2622
 4824TIP3   OH214477   0.038   1.943   0.911  0.0047  0.6339  0.2333
 4824TIP3    H114478   0.075   2.014   0.964  1.2155 -0.2365  0.6014
 4824TIP3    H214479   0.070   1.863   0.953  1.0577 -0.0927 -1.8044
 4825TIP3   OH214480   3.425   4.998   3.769 -0.1038 -0.5071  0.3345
 4825TIP3    H114481   3.332   5.000   3.794 -0.1707 -2.2675  0.3661
 4825TIP3    H214482   3.425   4.956   3.683  0.7054 -0.9695  0.5554
 4826TIP3   OH214483   6.061   0.870   1.705 -0.3118  0.0668  0.0658
 4826TIP3    H114484   6.104   0.934   1.762 -0.1676 -2.4227  2.9868
 4826TIP3    H214485   6.133   0.830   1.655  0.3545 -1.2882  2.0005
 4827TIP3   OH214486   3.228   2.757   0.215  0.1923  0.3037  0.5938
 4827TIP3    H114487   3.235   2.852   0.223 -0.6963  0.4760 -0.3380
 4827TIP3    H214488   3.139   2.737   0.245  0.2345 -0.1835  0.4074
 4828TIP3   OH214489   3.924   1.380   2.059  0.8103  0.2322 -0.3622
 4828TIP3    H114490   3.994   1.348   2.116 -0.2788  0.5245  1.2395
 4828TIP3    H214491   3.885   1.453   2.109 -2.2434 -1.5076  0.0500
 4829TIP3   OH214492   5.038   2.902   4.630 -0.1162  0.1853 -0.2957
 4829TIP3    H114493   4.975   2.862   4.570  0.8153 -0.9394 -0.5469
 4829TIP3    H214494   5.121   2.901   4.582  0.2425  1.0472  0.2828
 4830TIP3   OH214495   1.504   5.099   0.403  0.2190  0.4334  0.4099
 4830TIP3    H114496   1.547   5.159   0.340 -1.4023 -1.5793 -2.8919
 4830TIP3    H214497   1.577   5.056   0.447  1.5530  0.7299 -1.3550
 4831TIP3   OH214498   6.051   0.832   0.938  0.1760 -0.0135  0.6361
 4831TIP3    H114499   6.023   0.921   0.918 -0.6626 -0.7498 -1.9916
 4831TIP3    H214500   6.025   0.818   1.029 -0.1283  2.2441  0.9392
 4832TIP3   OH214501   1.183   1.354   0.623 -0.1825 -0.1060  0.6834
 4832TIP3    H114502   1.174   1.390   0.712 -1.2386  0.7450  0.2617
 4832TIP3    H214503   1.115   1.287   0.618 -1.3068  1.0285 -0.0075
 4833TIP3   OH214504   2.948   2.092   2.701 -0.3279  0.2804 -0.5474
 4833TIP3    H114505   2.907   2.019   2.655  0.9329 -2.2444  2.0224
 4833TIP3    H214506   3.035   2.060   2.724 -0.0472  2.2434  1.4505
 4834TIP3   OH214507   3.851   2.876   4.942  0.0687 -0.1240 -0.7822
 4834TIP3    H114508   3.923   2.930   4.908  0.2617 -0.6915 -1.2995
 4834TIP3    H214509   3.875   2.786   4.918  1.1567 -0.8453  2.4499
 4835TIP3   OH214510   5.222   4.855   4.660  0.5686 -0.5865 -0.2749
 4835TIP3    H114511   5.225   4.782   4.598 -0.2133 -1.2307  0.4235
 4835TIP3    H214512   5.277   4.826   4.733 -0.0763 -0.6583  0.1873
 4836TIP3   OH214513   1.676   0.425   3.386  0.2547  0.2168  0.5028
 4836TIP3    H114514   1.673   0.339   3.428  0.0408 -0.3432 -0.6092
 4836TIP3    H214515   1.768   0.439   3.367  0.5437  1.0876  2.3150
 4837TIP3   OH214516   0.363   5.101   5.008  0.4632  0.2295  0.3784
 4837TIP3    H114517   0.450   5.119   4.972  0.3896  2.2265  1.0426
 4837TIP3    H214518   0.337   5.019   4.968  1.6774  0.7744 -1.6860
 4838TIP3   OH214519   2.756   3.782   2.565  0.2249 -0.4513 -0.0896
 4838TIP3    H114520   2.810   3.723   2.513 -0.4994 -0.7234 -0.5568
 4838TIP3    H214521   2.725   3.729   2.638  1.6643  0.0704  0.9477
 4839TIP3   OH214522   2.163   4.798   1.017 -0.3071  0.4215 -0.2438
 4839TIP3    H114523   2.177   4.783   1.111 -0.4840 -0.9770 -0.4092
 4839TIP3    H214524   2.251   4.813   0.982  0.3326 -2.8804 -0.4137
 4840TIP3   OH214525   5.463   5.041   2.769  0.2375  0.6656 -0.1947
 4840TIP3    H114526   5.533   5.104   2.755  1.4309 -0.4835  0.4434
 4840TIP3    H214527   5.431   5.060   2.857  0.7288  0.2625  0.0734
 4841TIP3   OH214528   5.125   3.431   5.086 -0.2451  0.3505  0.2523
 4841TIP3    H114529   5.126   3.412   5.180  1.2811  0.7275  0.3323
 4841TIP3    H214530   5.034   3.415   5.059 -1.0440  1.5678  2.0522
 4842TIP3   OH214531   1.830   0.450   4.866  0.2875 -0.2267 -0.1839
 4842TIP3    H114532   1.900   0.402   4.911  0.6158  0.2870 -0.1435
 4842TIP3    H214533   1.839   0.425   4.774 -1.2460 -2.3669  0.1666
 4843TIP3   OH214534   6.308   2.774   1.297 -0.2674  0.0046  0.4712
 4843TIP3    H114535   6.392   2.815   1.319 -0.1564  0.1397 -0.1807
 4843TIP3    H214536   6.328   2.713   1.226 -0.8116  0.4638 -0.0935
 4844TIP3   OH214537   2.282   0.906   4.608 -0.0263  0.5075 -0.6348
 4844TIP3    H114538   2.229   0.828   4.623 -1.8024  1.4335 -1.7626
 4844TIP3    H214539   2.299   0.941   4.695 -1.3696  0.2470 -0.2566
 4845TIP3   OH214540   2.077   5.863   4.227  0.1093 -0.4980 -0.0589
 4845TIP3    H114541   2.163   5.819   4.229  0.9482  0.9999 -1.3708
 4845TIP3    H214542   2.090   5.939   4.171 -2.5267 -1.1378 -1.7365
 4846TIP3   OH214543   3.652   3.397   3.133 -0.0275  0.0218 -0.1132
 4846TIP3    H114544   3.691   3.465   3.078 -0.0479 -0.7640 -1.1312
 4846TIP3    H214545   3.683   3.416   3.221 -0.1879  1.4559 -0.3516
 4847TIP3   OH214546   1.490   1.789   5.061 -0.6203  0.1762 -0.1448
 4847TIP3    H114547   1.556   1.799   4.993 -2.2817 -1.5989 -2.1536
 4847TIP3    H214548   1.472   1.879   5.091  2.2639  0.7364  0.1523
 4848TIP3   OH214549   2.823   4.590   0.085  0.3038 -0.0955 -0.7534
 4848TIP3    H114550   2.855   4.546   0.164 -0.9206  0.6869  0.2028
 4848TIP3    H214551   2.895   4.582   0.023  0.7907 -1.9036 -0.0272
 4849TIP3   OH214552   4.739   4.486   1.259  0.2045 -0.0844 -0.1681
 4849TIP3    H114553   4.825   4.520   1.236  0.4559 -0.1151  0.6924
 4849TIP3    H214554   4.683   4.509   1.185  0.0743  3.1958  0.7969
 4850TIP3   OH214555   5.678   3.701   1.686  0.1569 -0.0151 -0.4768
 4850TIP3    H114556   5.660   3.753   1.765 -0.5318 -1.4372  0.3378
 4850TIP3    H214557   5.762   3.734   1.655 -0.4783  1.9061 -0.2781
 4851TIP3   OH214558   6.038   1.028   0.495 -0.1713  0.3280 -0.5892
 4851TIP3    H114559   5.988   1.036   0.576 -1.3671 -0.1067 -1.2541
 4851TIP3    H214560   5.973   1.038   0.426  0.5809 -0.7284 -1.4911
 4852TIP3   OH214561   1.354   3.097   3.888  0.1155 -1.0522 -0.5572
 4852TIP3    H114562   1.371   3.003   3.897  2.9775 -0.6409 -0.8213
 4852TIP3    H214563   1.405   3.123   3.812 -0.5421  0.7654 -0.4163
 4853TIP3   OH214564   0.249   0.550   1.976 -0.0389 -0.6175 -0.4080
 4853TIP3    H114565   0.281   0.491   1.907  0.9838 -0.2648 -0.2544
 4853TIP3    H214566   0.301   0.527   2.053  0.8609  0.9116 -0.5214
 4854TIP3   OH214567   6.238   4.170   3.856 -0.0891  0.1684  0.1907
 4854TIP3    H114568   6.236   4.233   3.784 -0.7601  0.7759  0.7299
 4854TIP3    H214569   6.269   4.089   3.815 -0.5414  0.4750 -0.8028
 4855TIP3   OH214570   2.590   2.367   0.104  0.0999 -0.2777 -0.2969
 4855TIP3    H114571   2.611   2.335   0.016  0.2009  0.6860 -0.6385
 4855TIP3    H214572   2.497   2.390   0.100 -0.0840 -0.9315  0.0769
 4856TIP3   OH214573   6.023   1.363   1.679  0.2802  0.0455 -0.0790
 4856TIP3    H114574   5.985   1.444   1.645  0.5079 -0.2939 -1.1621
 4856TIP3    H214575   6.001   1.296   1.614  1.6881 -0.3896 -0.1457
 4857TIP3   OH214576   4.634   0.930   3.130  1.0280  0.0986 -0.0868
 4857TIP3    H114577   4.681   0.886   3.201 -0.2927 -1.2537 -0.0043
 4857TIP3    H214578   4.704   0.962   3.072  2.0846 -1.2695  0.3706
 4858TIP3   OH214579   0.058   1.580   3.204  0.3315 -0.4802 -0.5486
 4858TIP3    H114580   0.092   1.569   3.293  2.7349 -0.3654 -1.3611
 4858TIP3    H214581   0.104   1.658   3.171 -1.2742  0.0801 -1.5707
 4859TIP3   OH214582   2.669   3.039   2.059  0.1485 -0.8374  0.5076
 4859TIP3    H114583   2.604   3.097   2.098  1.8668 -0.1475  2.5293
 4859TIP3    H214584   2.623   2.955   2.050 -1.3984 -0.0407  0.6208
 4860TIP3   OH214585   3.599   4.240   2.626  0.0083  0.2573  0.2781
 4860TIP3    H114586   3.613   4.284   2.710  1.0807  1.0930 -0.3193
 4860TIP3    H214587   3.672   4.179   2.618 -0.0722  0.2063 -0.0708
 4861TIP3   OH214588   2.588   1.159   0.931 -0.0225  0.4140 -0.1910
 4861TIP3    H114589   2.512   1.138   0.877 -0.2111  0.6111 -0.0063
 4861TIP3    H214590   2.584   1.254   0.942  0.4301  0.4651 -0.4452
 4862TIP3   OH214591   0.727   4.743   2.863  0.0646 -0.1543  0.1632
 4862TIP3    H114592   0.660   4.775   2.922  1.1355 -1.0055  1.9213
 4862TIP3    H214593   0.694   4.658   2.834 -0.3456  0.1525 -0.2866
 4863TIP3   OH214594   2.609   2.435   4.867 -0.6199  0.3427  0.1684
 4863TIP3    H114595   2.655   2.518   4.879  0.8200 -0.2275 -1.1057
 4863TIP3    H214596   2.615   2.391   4.952  0.1244  0.7996  0.3586
 4864TIP3   OH214597   1.735   3.416   1.105 -0.8227  0.9240  0.4295
 4864TIP3    H114598   1.816   3.466   1.094 -0.3063  0.1782  0.8091
 4864TIP3    H214599   1.680   3.445   1.032 -0.4687  1.9107  0.5266
 4865TIP3   OH214600   0.976   3.069   3.698  0.1700  0.7354 -0.2327
 4865TIP3    H114601   0.981   3.145   3.757  2.0395 -0.1741  0.8739
 4865TIP3    H214602   1.047   3.082   3.636 -0.6026  0.7298 -1.1418
 4866TIP3   OH214603   3.948   3.334   0.755 -0.3182  0.2151  0.1369
 4866TIP3    H114604   3.995   3.400   0.705 -2.0756  0.3429 -1.4352
 4866TIP3    H214605   3.982   3.343   0.844  0.9094  1.8575 -0.4562
 4867TIP3   OH214606   4.281   2.862   4.226 -0.0316  0.7811  0.8930
 4867TIP3    H114607   4.214   2.857   4.157 -0.2168 -0.1119  1.1239
 4867TIP3    H214608   4.336   2.936   4.200 -1.3317  1.7941  0.9039
 4868TIP3   OH214609   2.690   4.420   4.799  0.2591  0.0851  0.0085
 4868TIP3    H114610   2.767   4.402   4.744 -0.9569  0.3340 -1.8858
 4868TIP3    H214611   2.707   4.373   4.881  2.9264  1.0676  0.1140
 4869TIP3   OH214612   1.078   4.359   4.381 -0.4628 -0.2507  0.1265
 4869TIP3    H114613   1.054   4.303   4.307  0.4934  0.2043 -0.5610
 4869TIP3    H214614   0.995   4.393   4.413 -0.8329  2.5240 -3.1408
 4870TIP3   OH214615   0.135   4.466   3.261  0.4098 -0.4068  0.5884
 4870TIP3    H114616   0.079   4.398   3.299  0.3563 -1.9534 -2.0238
 4870TIP3    H214617   0.074   4.533   3.230  0.4724  1.1187  3.3683
 4871TIP3   OH214618   6.045   5.633   0.485 -0.0765 -1.0109  0.0885
 4871TIP3    H114619   6.119   5.582   0.451 -0.1407 -1.1399  0.1401
 4871TIP3    H214620   6.084   5.713   0.519 -0.0211 -0.8463 -0.3622
 4872TIP3   OH214621   5.467   4.027   4.070 -0.3340  0.0480 -0.3623
 4872TIP3    H114622   5.409   4.085   4.021  0.0773  1.4802  0.8084
 4872TIP3    H214623   5.507   4.082   4.137  0.4231 -1.4850  0.5086
 4873TIP3   OH214624   4.849   4.139   3.797 -0.1614 -0.1094 -0.6829
 4873TIP3    H114625   4.884   4.135   3.886  1.4783  1.9001 -1.1573
 4873TIP3    H214626   4.922   4.170   3.743 -1.6631  0.6942 -2.3930
 4874TIP3   OH214627   5.915   5.687   1.777 -0.3992 -0.0124  0.0567
 4874TIP3    H114628   5.988   5.700   1.717  0.5264  1.0690  1.3502
 4874TIP3    H214629   5.842   5.660   1.721  0.9408 -1.0131 -1.2804
 4875TIP3   OH214630   3.752   0.976   0.126  0.1451 -0.4675  0.2988
 4875TIP3    H114631   3.714   0.889   0.138  0.2508 -0.5390  0.1096
 4875TIP3    H214632   3.678   1.031   0.099  0.0466 -0.4622  0.5762
 4876TIP3   OH214633   5.828   3.447   1.537 -0.2221 -0.1436 -0.0329
 4876TIP3    H114634   5.831   3.380   1.605  1.9748  1.4886  1.6269
 4876TIP3    H214635   5.882   3.412   1.466 -1.3911 -1.2526 -0.4282
 4877TIP3   OH214636   4.621   5.842   3.309 -0.0143 -0.6497  0.1023
 4877TIP3    H114637   4.641   5.809   3.396  0.0688  1.7723  1.0802
 4877TIP3    H214638   4.703   5.881   3.279  0.1425 -1.9971 -1.3844
 4878TIP3   OH214639   1.984   4.014   1.311  0.6146 -0.1802  0.1562
 4878TIP3    H114640   2.072   4.042   1.287  0.5280 -0.0494 -0.0116
 4878TIP3    H214641   1.992   3.919   1.326  0.2289 -0.7807 -2.6888
 4879TIP3   OH214642   4.566   1.712   3.541 -0.4879 -0.0279 -0.0901
 4879TIP3    H114643   4.493   1.700   3.480 -0.6520 -0.9513  0.2610
 4879TIP3    H214644   4.643   1.687   3.491 -0.5563 -0.2028 -0.1114
 4880TIP3   OH214645   5.185   2.902   3.643 -0.5338 -0.4313 -0.0202
 4880TIP3    H114646   5.201   2.956   3.566  0.8655  0.8147  1.1025
 4880TIP3    H214647   5.161   2.816   3.608  0.8058 -0.0998 -1.8385
 4881TIP3   OH214648   4.301   5.449   1.476  0.3409  0.1890  0.1039
 4881TIP3    H114649   4.279   5.433   1.568 -0.0014 -0.4880 -0.0894
 4881TIP3    H214650   4.217   5.462   1.433  0.2836 -2.0279 -0.5676
 4882TIP3   OH214651   1.298   0.972   0.773  0.0893  0.2061  0.1338
 4882TIP3    H114652   1.217   0.979   0.823  0.5416 -3.2666  1.6208
 4882TIP3    H214653   1.365   1.005   0.832  0.0337  0.9999 -0.2395
 4883TIP3   OH214654   1.440   4.404   3.043  0.3644 -0.1854 -0.0322
 4883TIP3    H114655   1.384   4.465   2.995  0.8534 -0.4408 -0.9560
 4883TIP3    H214656   1.450   4.329   2.984  1.9296 -0.0017 -0.0435
 4884TIP3   OH214657   2.046   3.981   0.033 -0.0036 -0.3981  0.0271
 4884TIP3    H114658   2.004   3.956   0.115  0.7594  1.2283  0.9579
 4884TIP3    H214659   2.128   4.022   0.059 -0.7237  2.1617 -1.3689
 4885TIP3   OH214660   0.944   1.810   3.148 -0.1887  0.3099 -0.5063
 4885TIP3    H114661   0.855   1.837   3.172 -0.4001 -1.8763  1.5346
 4885TIP3    H214662   0.948   1.823   3.054 -2.5435  0.8429 -0.6022
 4886TIP3   OH214663   5.940   5.380   2.658 -0.2328 -0.7445  0.2785
 4886TIP3    H114664   6.031   5.369   2.686 -0.4866 -1.8994  0.7115
 4886TIP3    H214665   5.930   5.317   2.587  0.0214  1.2122 -1.6063
 4887TIP3   OH214666   1.495   2.140   2.233  0.0536 -0.7144  0.1804
 4887TIP3    H114667   1.526   2.230   2.228 -1.7360  0.0672  2.1144
 4887TIP3    H214668   1.536   2.097   2.157 -0.5735  2.1621 -1.9477
 4888TIP3   OH214669   3.854   2.973   1.960 -0.0531  0.5873  0.0289
 4888TIP3    H114670   3.947   2.998   1.953 -0.3894  1.4346 -2.5327
 4888TIP3    H214671   3.808   3.055   1.975 -0.3887  0.0844  1.9903
 4889TIP3   OH214672   2.738   1.413   0.514 -0.4703  0.2080  0.4159
 4889TIP3    H114673   2.771   1.325   0.497 -0.2884  0.5081 -0.8885
 4889TIP3    H214674   2.765   1.432   0.603  1.4489 -0.1943 -0.0426
 4890TIP3   OH214675   0.319   3.732   1.382 -0.6692  0.1189 -0.3497
 4890TIP3    H114676   0.359   3.707   1.299  0.7778  0.6587  0.1619
 4890TIP3    H214677   0.295   3.824   1.371  2.5784  1.2255  0.8869
 4891TIP3   OH214678   3.808   4.007   2.197 -0.1661  0.4644  0.1799
 4891TIP3    H114679   3.713   3.998   2.194 -0.1625  0.6585 -0.7603
 4891TIP3    H214680   3.823   4.075   2.262 -0.7039  0.8841 -0.1288
 4892TIP3   OH214681   5.649   4.618   0.445 -0.1515  0.3346  0.2511
 4892TIP3    H114682   5.556   4.632   0.462 -0.6978 -0.3486 -1.8424
 4892TIP3    H214683   5.666   4.529   0.477  0.0846  0.8528  1.6290
 4893TIP3   OH214684   5.646   5.785   1.199  0.3144 -0.1216  0.6974
 4893TIP3    H114685   5.671   5.867   1.242  1.1078  0.1111 -0.1621
 4893TIP3    H214686   5.729   5.738   1.189  0.7690  1.1039 -3.1634
 4894TIP3   OH214687   2.526   0.083   0.944 -0.2323 -0.2957 -0.0853
 4894TIP3    H114688   2.509   0.156   0.886 -0.5087 -1.2494 -1.2383
 4894TIP3    H214689   2.439   0.046   0.962  0.0459 -1.6494 -1.3000
 4895TIP3   OH214690   0.601   0.291   4.726 -0.2968  0.4448 -0.7811
 4895TIP3    H114691   0.608   0.357   4.657  0.8616  0.6485 -0.4882
 4895TIP3    H214692   0.535   0.230   4.694 -1.3049  1.6611 -1.1210
 4896TIP3   OH214693   4.054   0.775   2.087 -0.3694 -0.8106  0.0559
 4896TIP3    H114694   3.961   0.754   2.087 -0.0118 -2.5471  0.5771
 4896TIP3    H214695   4.070   0.815   2.173 -0.8914  0.9547 -0.6204
 4897TIP3   OH214696   4.783   5.791   3.034  0.0116 -0.7048 -0.3426
 4897TIP3    H114697   4.779   5.716   2.974  1.8992 -0.7869 -0.4201
 4897TIP3    H214698   4.696   5.830   3.030 -1.0032 -2.8440 -0.3566
 4898TIP3   OH214699   0.995   0.535   4.037 -0.0086  0.3199 -0.3361
 4898TIP3    H114700   1.000   0.476   4.112 -0.2676 -0.9284 -1.2755
 4898TIP3    H214701   1.083   0.570   4.029  0.3616 -0.5582 -0.2485
 4899TIP3   OH214702   5.841   3.753   4.046  0.3528 -0.6223 -0.1624
 4899TIP3    H114703   5.879   3.832   4.084  1.0500 -1.0575  0.0598
 4899TIP3    H214704   5.913   3.690   4.044  0.0166 -0.9902 -1.1155
 4900TIP3   OH214705   5.882   4.767   0.902  0.5496  0.0134  0.1989
 4900TIP3    H114706   5.833   4.726   0.830  1.0473 -0.2413 -0.0048
 4900TIP3    H214707   5.816   4.813   0.953  0.2629  0.7108 -0.7709
 4901TIP3   OH214708   2.452   0.557   2.487  0.0518  0.1723  0.2690
 4901TIP3    H114709   2.411   0.640   2.512  0.6177  0.5427 -0.0072
 4901TIP3    H214710   2.546   0.573   2.497  0.1699 -1.7967  4.5835
 4902TIP3   OH214711   5.774   4.785   4.559  0.4049 -0.5427  0.3042
 4902TIP3    H114712   5.813   4.726   4.495 -0.7788  0.5431 -1.4859
 4902TIP3    H214713   5.836   4.858   4.564 -0.2399  0.0890 -0.7783
 4903TIP3   OH214714   4.210   5.249   3.994 -0.3292 -0.1588 -0.0009
 4903TIP3    H114715   4.242   5.301   4.068 -0.1179 -1.1554  0.6252
 4903TIP3    H214716   4.115   5.246   4.006 -0.3831  0.4041 -0.2597
 4904TIP3   OH214717   2.590   5.126   1.752  0.2051 -0.0731  0.1008
 4904TIP3    H114718   2.515   5.107   1.696  1.0307  1.5616 -1.6802
 4904TIP3    H214719   2.656   5.061   1.726 -0.4034 -1.2954  1.4339
 4905TIP3   OH214720   2.732   1.764   1.968  0.6342  0.3743  0.3778
 4905TIP3    H114721   2.744   1.672   1.987 -0.0585  0.4179  1.0736
 4905TIP3    H214722   2.663   1.792   2.027 -1.2193  0.6498 -1.7582
 4906TIP3   OH214723   1.457   3.694   2.605  0.4274 -0.0616 -0.1841
 4906TIP3    H114724   1.514   3.644   2.547  0.6914  1.4784 -1.3218
 4906TIP3    H214725   1.479   3.786   2.587 -1.7409  0.5565  0.0213
 4907TIP3   OH214726   4.343   2.092   0.475 -0.1019 -0.0745 -0.1977
 4907TIP3    H114727   4.255   2.128   0.461 -0.1477  0.5167  1.3667
 4907TIP3    H214728   4.399   2.143   0.416 -0.1287  2.8835  2.1127
 4908TIP3   OH214729   0.853   4.033   1.445 -0.3341  0.4798  0.0799
 4908TIP3    H114730   0.935   4.077   1.421 -0.1991 -0.9187 -2.4392
 4908TIP3    H214731   0.879   3.964   1.505  0.6183 -0.7953 -1.7158
 4909TIP3   OH214732   6.027   5.720   3.231 -0.1522  0.2261 -1.0347
 4909TIP3    H114733   5.936   5.734   3.204 -0.2721  1.0365 -0.2522
 4909TIP3    H214734   6.035   5.625   3.239 -1.2195  0.1887 -0.1598
 4910TIP3   OH214735   1.985   3.939   4.235  0.4129  0.0967 -0.3960
 4910TIP3    H114736   1.969   3.845   4.228 -0.8347  0.2816 -0.3624
 4910TIP3    H214737   1.924   3.968   4.302  1.4819  0.7852  0.3002
 4911TIP3   OH214738   0.770   1.620   1.021  0.3324 -0.6117 -0.2314
 4911TIP3    H114739   0.738   1.689   0.963  0.1907 -0.5864 -0.1238
 4911TIP3    H214740   0.723   1.541   0.993 -1.0234 -0.2690  0.9417
 4912TIP3   OH214741   5.706   3.580   2.709  0.1940  0.2714  0.6640
 4912TIP3    H114742   5.779   3.581   2.646  0.0761 -0.9476  0.5001
 4912TIP3    H214743   5.628   3.577   2.654  0.0381  0.7811  0.8547
 4913TIP3   OH214744   2.559   1.930   2.589 -0.4098  0.1104 -0.1145
 4913TIP3    H114745   2.544   1.883   2.671 -2.4039  1.1526  0.1944
 4913TIP3    H214746   2.471   1.944   2.553  0.3603  0.5610 -1.9302
 4914TIP3   OH214747   2.218   1.246   0.357  0.0581  0.4417  0.4447
 4914TIP3    H114748   2.250   1.320   0.409  3.2070 -1.0026  0.8362
 4914TIP3    H214749   2.228   1.274   0.266  1.7902  0.3650  0.5789
 4915TIP3   OH214750   2.608   4.634   4.925 -0.2011 -0.5756 -0.3963
 4915TIP3    H114751   2.637   4.550   4.890 -0.5835 -0.8887  0.0367
 4915TIP3    H214752   2.595   4.689   4.847  1.4978 -0.4270 -0.6176
 4916TIP3   OH214753   5.267   1.079   2.910  0.0740 -0.3308  0.3847
 4916TIP3    H114754   5.209   1.116   2.843  0.1533 -0.8884  0.0019
 4916TIP3    H214755   5.297   1.155   2.960 -0.0220  0.0874 -0.1851
 4917TIP3   OH214756   2.096   5.966   0.690  0.2006 -0.0913 -0.2262
 4917TIP3    H114757   2.155   5.978   0.765 -1.6004 -1.4441  1.5101
 4917TIP3    H214758   2.120   5.880   0.655  0.3603  0.0975 -0.5877
 4918TIP3   OH214759   5.747   1.102   3.513 -0.3150  1.1601  0.1770
 4918TIP3    H114760   5.817   1.125   3.452  0.4789  0.2862  0.7461
 4918TIP3    H214761   5.755   1.166   3.584  0.8252  0.1933  0.9382
 4919TIP3   OH214762   3.563   1.418   1.880  0.2635 -0.7139 -0.8361
 4919TIP3    H114763   3.474   1.404   1.847 -0.6324  1.0520  0.6411
 4919TIP3    H214764   3.557   1.498   1.933  2.6826 -0.6962 -0.4670
 4920TIP3   OH214765   0.282   1.707   1.289 -0.6961 -0.0794 -0.0603
 4920TIP3    H114766   0.331   1.784   1.260 -0.0967 -0.3944  0.1131
 4920TIP3    H214767   0.227   1.740   1.360  0.2704 -0.0011  0.6770
 4921TIP3   OH214768   2.526   5.403   1.642 -0.2650 -0.6846 -0.1005
 4921TIP3    H114769   2.552   5.315   1.670 -0.7882 -0.7961  0.0443
 4921TIP3    H214770   2.608   5.453   1.641 -0.1707 -0.7744  1.2387
 4922TIP3   OH214771   3.115   2.160   3.296 -0.4447 -0.1370 -0.7483
 4922TIP3    H114772   3.045   2.142   3.359 -1.4728  2.7014 -0.9094
 4922TIP3    H214773   3.110   2.088   3.233 -1.9960 -0.9749  0.2633
 4923TIP3   OH214774   2.715   2.025   3.887  0.4494  0.7571 -0.0957
 4923TIP3    H114775   2.809   2.018   3.874  0.4469  0.8851 -0.1818
 4923TIP3    H214776   2.677   2.020   3.799  0.2454 -1.1853  0.0468
 4924TIP3   OH214777   0.275   0.873   1.997 -0.5645 -0.4338  0.3042
 4924TIP3    H114778   0.202   0.819   1.966 -1.8654  1.1093  0.5904
 4924TIP3    H214779   0.247   0.906   2.082  0.7048 -0.2206  0.6703
 4925TIP3   OH214780   0.384   5.035   0.648 -0.0118 -0.3966  0.7133
 4925TIP3    H114781   0.288   5.035   0.653 -0.0224  1.6732  1.5439
 4925TIP3    H214782   0.410   5.119   0.685  2.0990 -0.4988 -0.3682
 4926TIP3   OH214783   6.211   5.444   0.363  0.4460  0.0072  0.5771
 4926TIP3    H114784   6.270   5.422   0.435  0.6622  1.8535  1.0092
 4926TIP3    H214785   6.175   5.360   0.335  1.0275 -0.8364  2.2495
 4927TIP3   OH214786   3.886   0.068   1.143 -0.0743  0.0257 -0.3058
 4927TIP3    H114787   3.868   0.160   1.164  0.5944  0.5710 -1.9120
 4927TIP3    H214788   3.807   0.021   1.170 -1.3764  1.4187 -1.4494
 4928TIP3   OH214789   5.883   3.252   4.874  0.4371  0.4430 -0.3462
 4928TIP3    H114790   5.840   3.254   4.959 -0.0775  0.7386 -0.6070
 4928TIP3    H214791   5.935   3.172   4.876 -2.7964 -1.9021 -1.2550
 4929TIP3   OH214792   1.106   4.681   0.535 -0.1780 -0.1612 -0.1468
 4929TIP3    H114793   1.045   4.734   0.586 -0.8575  0.6150 -1.6850
 4929TIP3    H214794   1.117   4.601   0.585 -1.4872  0.2075  0.7731
 4930TIP3   OH214795   0.529   2.408   4.897  0.1888 -0.5315  0.2774
 4930TIP3    H114796   0.582   2.436   4.823 -0.6955 -1.8613 -0.9188
 4930TIP3    H214797   0.459   2.473   4.903  1.0805  0.4103  0.9412
 4931TIP3   OH214798   1.673   2.729   2.017  0.1014  0.0471 -0.1106
 4931TIP3    H114799   1.590   2.749   2.062 -0.7885  0.6588 -1.9117
 4931TIP3    H214800   1.654   2.650   1.966  0.6189  0.2178 -0.5738
 4932TIP3   OH214801   1.422   0.099   1.292 -0.7311  0.0729  0.2363
 4932TIP3    H114802   1.354   0.149   1.248  0.1335  1.5086  0.4828
 4932TIP3    H214803   1.503   0.126   1.250 -0.2064 -0.8571  0.6222
 4933TIP3   OH214804   1.537   3.272   4.542  0.0628  0.0658  0.3307
 4933TIP3    H114805   1.622   3.307   4.516  0.3569 -0.0018  1.1736
 4933TIP3    H214806   1.530   3.188   4.498  0.3604  0.1427  0.1357
 4934TIP3   OH214807   4.681   2.125   0.136 -0.1244 -0.0895 -0.0029
 4934TIP3    H114808   4.763   2.097   0.178  1.0134  0.8841 -1.4643
 4934TIP3    H214809   4.702   2.126   0.043 -1.6981  0.5753 -0.3724
 4935TIP3   OH214810   5.945   2.846   3.590 -0.0947 -0.0160 -0.2042
 4935TIP3    H114811   6.034   2.852   3.553  0.7837  0.1148  1.8196
 4935TIP3    H214812   5.942   2.759   3.630 -0.4066  0.4675  0.8618
 4936TIP3   OH214813   3.612   4.055   4.256 -0.7700 -0.1484  0.0006
 4936TIP3    H114814   3.669   3.979   4.264  1.0103  1.2717  1.8580
 4936TIP3    H214815   3.608   4.073   4.162  0.6831 -1.1310 -0.2755
 4937TIP3   OH214816   3.341   4.027   0.372 -0.1844 -0.2273 -0.0611
 4937TIP3    H114817   3.315   3.968   0.443  2.7591 -1.6785 -0.0143
 4937TIP3    H214818   3.391   3.971   0.312  0.0201  1.6008 -1.7042
 4938TIP3   OH214819   0.715   1.647   1.283  0.9622  0.2016 -0.0799
 4938TIP3    H114820   0.720   1.642   1.187 -0.2359 -0.1189 -0.1354
 4938TIP3    H214821   0.640   1.704   1.300 -0.1377 -1.4112  0.6698
 4939TIP3   OH214822   0.371   4.336   1.528  0.1477  0.6583 -0.0430
 4939TIP3    H114823   0.276   4.321   1.529  0.4382 -1.4267  0.3568
 4939TIP3    H214824   0.402   4.284   1.454  1.2848 -1.1384  1.6162
 4940TIP3   OH214825   2.318   4.227   5.111  0.0682  0.0143  0.0029
 4940TIP3    H114826   2.298   4.204   5.202 -3.4970  1.0080 -0.3728
 4940TIP3    H214827   2.368   4.308   5.117  0.6080 -0.3735  1.0625
 4941TIP3   OH214828   5.373   1.627   4.559 -0.4418  0.3837 -0.2188
 4941TIP3    H114829   5.312   1.559   4.529 -0.1235  0.8228 -2.0053
 4941TIP3    H214830   5.419   1.587   4.633 -0.3804 -1.3074 -1.1135
 4942TIP3   OH214831   3.613   2.334   1.041  0.1364 -0.4637 -0.1551
 4942TIP3    H114832   3.702   2.331   1.077  0.5065 -0.2799 -1.0154
 4942TIP3    H214833   3.556   2.309   1.114  0.8457  0.0032  0.5748
 4943TIP3   OH214834   3.005   0.394   0.189  0.3792  0.6826 -0.0698
 4943TIP3    H114835   3.099   0.403   0.201  0.3892 -0.0500  0.4904
 4943TIP3    H214836   2.981   0.321   0.246 -0.4434  0.5366 -0.5956
 4944TIP3   OH214837   1.320   5.922   0.918  0.2115 -0.1836 -0.1480
 4944TIP3    H114838   1.312   5.832   0.886  1.6084 -0.2312 -0.4494
 4944TIP3    H214839   1.261   5.973   0.863 -0.9797 -0.9905  0.3618
 4945TIP3   OH214840   4.302   3.449   3.702 -0.0885  0.4180 -0.3125
 4945TIP3    H114841   4.299   3.543   3.721 -0.7205  0.5115 -0.8182
 4945TIP3    H214842   4.375   3.439   3.641  0.6302  0.4192  0.5226
 4946TIP3   OH214843   3.506   4.269   0.619 -0.0642 -0.0126 -0.0189
 4946TIP3    H114844   3.575   4.284   0.554 -0.2706  0.9533 -0.0396
 4946TIP3    H214845   3.554   4.250   0.700  0.1900 -1.5912 -0.5052
 4947TIP3   OH214846   5.944   3.459   1.909  0.6729  0.6286  0.3301
 4947TIP3    H114847   5.892   3.424   1.981 -0.3072  0.8694 -0.2414
 4947TIP3    H214848   5.915   3.409   1.833 -0.8503  2.6976 -0.5342
 4948TIP3   OH214849   5.194   5.081   4.526  0.2041  0.3350 -0.0742
 4948TIP3    H114850   5.172   4.993   4.558 -1.1048  0.5627 -0.2868
 4948TIP3    H214851   5.288   5.077   4.508  0.1861 -0.9883  0.0023
 4949TIP3   OH214852   5.098   3.777   1.336  0.2187 -0.1006 -0.2867
 4949TIP3    H114853   5.059   3.727   1.265  0.2795 -0.1084 -0.3154
 4949TIP3    H214854   5.055   3.863   1.332 -0.4531 -0.4098  0.2695
 4950TIP3   OH214855   0.896   5.679   4.239  0.4066  0.1835 -0.1783
 4950TIP3    H114856   0.920   5.592   4.207 -2.3189 -0.5788 -0.4061
 4950TIP3    H214857   0.899   5.735   4.162  0.7286 -0.0397 -0.3313
 4951TIP3   OH214858   0.744   0.179   1.157  0.2223 -0.0327  0.0635
 4951TIP3    H114859   0.673   0.234   1.189  1.1794  0.3553  1.6578
 4951TIP3    H214860   0.793   0.155   1.236  1.0122 -1.4995 -0.8235
 4952TIP3   OH214861   5.412   1.232   3.184  0.7025 -0.3099 -0.1706
 4952TIP3    H114862   5.353   1.297   3.144  0.7867 -1.4406 -2.3010
 4952TIP3    H214863   5.356   1.183   3.244 -0.1490 -0.2994 -0.9252
 4953TIP3   OH214864   3.989   2.410   4.588 -0.2475 -0.0964 -0.0877
 4953TIP3    H114865   4.056   2.444   4.529 -1.9384  0.2913 -1.8743
 4953TIP3    H214866   3.917   2.473   4.582 -1.5699 -1.5047  0.2401
 4954TIP3   OH214867   0.567   1.130   1.570  0.5027 -0.0094 -0.2431
 4954TIP3    H114868   0.592   1.184   1.645  1.2454 -0.9042  0.1665
 4954TIP3    H214869   0.597   1.180   1.493  1.3713  0.0763  0.1384
 4955TIP3   OH214870   3.835   4.295   0.734  0.4330 -0.0518 -0.1688
 4955TIP3    H114871   3.803   4.307   0.644  0.1315 -1.3533 -0.2559
 4955TIP3    H214872   3.757   4.298   0.788  0.6795  1.3579  0.1388
 4956TIP3   OH214873   5.496   1.864   2.073  0.5038  0.9669  0.1895
 4956TIP3    H114874   5.576   1.854   2.021  0.9355  0.8654  0.8591
 4956TIP3    H214875   5.425   1.850   2.011  1.0061  1.1639 -0.4376
 4957TIP3   OH214876   0.552   1.758   1.542 -0.0802  0.5212 -0.6548
 4957TIP3    H114877   0.622   1.816   1.510 -1.4911  1.3335 -2.5190
 4957TIP3    H214878   0.587   1.670   1.534  0.6109  0.8918 -1.9724
 4958TIP3   OH214879   0.238   1.840   2.905 -0.2926 -0.5637 -0.0656
 4958TIP3    H114880   0.227   1.825   2.999 -2.8165 -0.7814 -0.3144
 4958TIP3    H214881   0.231   1.753   2.866 -0.4310 -0.3542 -0.5162
 4959TIP3   OH214882   1.562   5.680   3.685  0.2156 -0.2432 -0.3291
 4959TIP3    H114883   1.641   5.728   3.659  0.9033 -1.3686 -0.4247
 4959TIP3    H214884   1.594   5.592   3.707 -1.1213 -0.9954 -1.2216
 4960TIP3   OH214885   5.783   3.687   3.169  0.3463 -0.1016  0.4173
 4960TIP3    H114886   5.757   3.697   3.078 -1.2187  0.2620  0.8791
 4960TIP3    H214887   5.811   3.595   3.176  3.2553  0.5403 -1.0396
 4961TIP3   OH214888   4.639   0.038   2.440 -0.5479  0.1521 -0.0519
 4961TIP3    H114889   4.555   0.074   2.468 -0.1497  0.5298  0.6729
 4961TIP3    H214890   4.704   0.087   2.489  0.0467 -1.1046  0.4572
 4962TIP3   OH214891   2.724   2.115   1.049 -0.2303  0.0300 -0.3336
 4962TIP3    H114892   2.646   2.094   0.998  0.7663 -0.4849 -1.7111
 4962TIP3    H214893   2.730   2.046   1.115 -1.8816  1.0433  0.9652
 4963TIP3   OH214894   4.291   3.247   3.492  0.2913  0.8432  0.3489
 4963TIP3    H114895   4.263   3.159   3.467  2.8314  0.2005 -0.6073
 4963TIP3    H214896   4.277   3.250   3.587 -2.8432  0.6761 -0.0161
 4964TIP3   OH214897   4.764   3.600   1.199 -0.5283 -0.0639 -0.3679
 4964TIP3    H114898   4.784   3.693   1.187  0.9697 -0.4788 -1.3702
 4964TIP3    H214899   4.669   3.598   1.214 -0.4858  1.6671  0.3705
 4965TIP3   OH214900   0.206   3.383   3.021 -0.0795  0.2744  0.1784
 4965TIP3    H114901   0.268   3.441   2.978 -0.0681  1.4913  1.7236
 4965TIP3    H214902   0.251   3.356   3.101 -0.7752 -0.4321  0.3379
 4966TIP3   OH214903   5.510   4.545   4.248  0.1015 -0.1958 -0.1786
 4966TIP3    H114904   5.458   4.517   4.173 -0.4450 -1.3285  0.5953
 4966TIP3    H214905   5.594   4.572   4.210 -0.5581  0.3679 -1.3037
 4967TIP3   OH214906   5.714   5.226   2.746 -0.7269  0.4472 -0.1243
 4967TIP3    H114907   5.777   5.289   2.712 -0.2638  0.2353  0.3320
 4967TIP3    H214908   5.658   5.206   2.671  0.6759 -0.5212 -0.9641
 4968TIP3   OH214909   1.399   3.713   2.916 -0.3747 -0.3215 -0.5481
 4968TIP3    H114910   1.410   3.773   2.990  1.3158  1.8071 -2.3502
 4968TIP3    H214911   1.337   3.758   2.859 -0.9877 -1.5157 -0.8515
 4969TIP3   OH214912   4.834   4.293   0.904 -0.2285  0.3033 -0.3643
 4969TIP3    H114913   4.742   4.310   0.928 -1.0653 -1.6287 -1.8814
 4969TIP3    H214914   4.870   4.249   0.982 -0.6966  0.7563  0.1204
 4970TIP3   OH214915   3.569   2.967   4.622  0.5307 -0.1367 -0.2208
 4970TIP3    H114916   3.643   3.012   4.663  1.0227 -0.9613 -0.1945
 4970TIP3    H214917   3.538   3.029   4.556 -0.0739  1.0737  1.1444
 4971TIP3   OH214918   1.611   4.512   4.448  0.2169  0.3486  0.0756
 4971TIP3    H114919   1.698   4.484   4.475 -0.3403 -1.9960 -0.3591
 4971TIP3    H214920   1.557   4.505   4.527 -0.6224 -3.1080 -0.6501
 4972TIP3   OH214921   1.893   4.334   5.203  0.0898  0.5604 -0.0190
 4972TIP3    H114922   1.953   4.354   5.131 -1.5607  2.5931 -0.9557
 4972TIP3    H214923   1.860   4.247   5.184 -0.2093  1.0081 -1.7008
 4973TIP3   OH214924   1.807   5.103   5.042 -0.6748 -0.1700 -0.7316
 4973TIP3    H114925   1.891   5.146   5.027 -0.8114 -0.0965 -1.2945
 4973TIP3    H214926   1.826   5.038   5.110 -0.4333  0.6583  0.0127
 4974TIP3   OH214927   4.529   1.715   2.787 -0.7227  0.0420  0.1246
 4974TIP3    H114928   4.495   1.694   2.874  0.3228  1.9417  1.0755
 4974TIP3    H214929   4.501   1.805   2.772  0.3360  0.2309 -0.8484
 4975TIP3   OH214930   5.598   2.528   2.813 -0.4724  0.1263  0.1553
 4975TIP3    H114931   5.670   2.581   2.848 -1.1693  0.4669  1.0807
 4975TIP3    H214932   5.520   2.582   2.824 -1.0919 -0.8106  0.4600
 4976TIP3   OH214933   4.225   4.830   1.152  0.3546 -0.3126  0.0588
 4976TIP3    H114934   4.170   4.787   1.087 -0.2004  0.7360 -0.1810
 4976TIP3    H214935   4.266   4.903   1.105  1.7920 -0.9283  0.2912
 4977TIP3   OH214936   1.530   0.301   1.056  0.1212  0.0670  0.0302
 4977TIP3    H114937   1.527   0.205   1.051  1.3129  0.0372 -0.4160
 4977TIP3    H214938   1.450   0.330   1.013 -1.2095 -0.7460  1.7995
 4978TIP3   OH214939   0.465   0.516   3.363  0.8164  0.2817  0.1062
 4978TIP3    H114940   0.488   0.542   3.452 -0.8696  1.0543  0.3586
 4978TIP3    H214941   0.370   0.503   3.365  0.9492 -1.2615 -1.2102
 4979TIP3   OH214942   4.369   2.051   3.917  0.2895  0.0011 -0.2758
 4979TIP3    H114943   4.366   2.071   3.824 -0.8819  2.8527  0.2838
 4979TIP3    H214944   4.438   2.109   3.951 -0.0814 -0.1720  0.7973
 4980TIP3   OH214945   1.926   3.030   4.987 -0.4741  0.0170  0.0370
 4980TIP3    H114946   1.954   3.009   5.076  0.6242  3.4689  0.6640
 4980TIP3    H214947   1.996   2.996   4.931 -0.3651 -0.7493  0.6245
 4981TIP3   OH214948   5.682   0.009   3.716 -0.2286 -0.1232 -0.0712
 4981TIP3    H114949   5.720   0.095   3.698  1.0434 -0.3655  1.2918
 4981TIP3    H214950   5.677   0.005   3.811  1.1865 -2.1444 -0.0285
 4982TIP3   OH214951   2.388   0.249   0.752  0.0024 -0.0020  0.3259
 4982TIP3    H114952   2.373   0.175   0.694  3.1650  0.1224 -0.8401
 4982TIP3    H214953   2.429   0.316   0.697  1.5528  0.7802  2.2722
 4983TIP3   OH214954   3.462   0.947   4.701 -0.4885 -0.1973  0.3300
 4983TIP3    H114955   3.511   0.887   4.757  0.1420  0.2002  0.2231
 4983TIP3    H214956   3.494   0.928   4.612 -0.9568 -0.3314  0.1870
 4984TIP3   OH214957   5.802   0.376   0.148  0.2330  0.3423 -0.0679
 4984TIP3    H114958   5.764   0.357   0.063 -0.5368  1.5049 -0.0118
 4984TIP3    H214959   5.872   0.311   0.159  1.2770  1.0299 -2.1756
 4985TIP3   OH214960   5.106   1.606   4.927  0.5831 -0.1847  0.1166
 4985TIP3    H114961   5.115   1.653   4.844 -1.4381 -1.1263 -0.7167
 4985TIP3    H214962   5.166   1.650   4.987  0.0905  2.3122 -1.1020
 4986TIP3   OH214963   5.725   2.752   0.032  0.0089  0.1731  0.3545
 4986TIP3    H114964   5.630   2.753   0.038 -0.1114  0.0528 -1.1777
 4986TIP3    H214965   5.750   2.844   0.032  0.1694  0.2479  3.6293
 4987TIP3   OH214966   5.148   1.030   3.564  0.2093  0.1082  0.4188
 4987TIP3    H114967   5.168   1.118   3.595  0.8808  0.2822 -0.4719
 4987TIP3    H214968   5.113   0.985   3.641 -2.2199  1.7688  0.4054
 4988TIP3   OH214969   4.756   1.953   4.763  0.0878 -0.0864  0.3302
 4988TIP3    H114970   4.780   1.978   4.853 -0.5130  1.1083  0.1751
 4988TIP3    H214971   4.680   1.896   4.773 -1.3927  1.8114  0.5323
 4989TIP3   OH214972   3.830   0.555   3.307 -0.7970 -0.2101 -0.2995
 4989TIP3    H114973   3.876   0.594   3.381 -3.8926 -0.9367  2.2612
 4989TIP3    H214974   3.898   0.510   3.257  1.4873  0.2678  2.1594
 4990TIP3   OH214975   0.704   4.034   4.434  0.1424  0.1224  0.2352
 4990TIP3    H114976   0.748   3.957   4.470  0.0401  0.3849  0.9233
 4990TIP3    H214977   0.652   4.068   4.506 -0.3058  0.4775 -0.2469
 4991TIP3   OH214978   3.178   0.985   2.609  0.1140 -0.0658  0.5954
 4991TIP3    H114979   3.205   1.059   2.663  1.0198 -0.7779  1.1667
 4991TIP3    H214980   3.239   0.915   2.633 -0.0852 -0.6957 -0.6587
 4992TIP3   OH214981   2.381   5.792   3.827  0.0726  0.3051 -0.1144
 4992TIP3    H114982   2.344   5.862   3.773  1.1303  0.2040 -1.0085
 4992TIP3    H214983   2.421   5.732   3.765  1.1424  0.0742  0.7635
 4993TIP3   OH214984   4.386   3.742   3.756 -0.1110  0.1693 -0.0975
 4993TIP3    H114985   4.331   3.814   3.787  0.8842  1.1691 -0.5575
 4993TIP3    H214986   4.467   3.785   3.727  1.0014 -1.2594  0.7608
 4994TIP3   OH214987   5.566   2.567   4.061 -0.2054  0.7170 -0.6009
 4994TIP3    H114988   5.554   2.509   3.986 -0.9101  0.0745 -0.0068
 4994TIP3    H214989   5.655   2.549   4.092 -0.7375 -0.7676  0.1548
 4995TIP3   OH214990   0.673   3.977   4.912 -0.2261  0.2619 -0.3449
 4995TIP3    H114991   0.621   4.050   4.876 -1.1103  0.3970  1.1426
 4995TIP3    H214992   0.691   4.003   5.002 -0.1747 -1.1663  0.0667
 4996TIP3   OH214993   2.377   0.315   3.426 -0.0244 -0.5685  0.2921
 4996TIP3    H114994   2.411   0.268   3.502  1.4035  0.6784  0.4865
 4996TIP3    H214995   2.455   0.354   3.385 -0.8608 -0.4716 -1.2993
 4997TIP3   OH214996   6.257   3.941   0.480 -0.7092  0.2988 -0.1027
 4997TIP3    H114997   6.350   3.925   0.468 -0.4770  0.2478  1.4512
 4997TIP3    H214998   6.227   3.974   0.396  0.9446  1.3389 -0.3388
 4998TIP3   OH214999   2.182   0.370   0.457 -0.1324 -0.1816  0.0308
 4998TIP3    H115000   2.272   0.362   0.490  0.0345 -0.9530 -0.5798
 4998TIP3    H215001   2.133   0.408   0.530  0.6115 -0.1049  0.5033
 4999TIP3   OH215002   5.701   4.140   1.257  0.4028  0.5928  0.1647
 4999TIP3    H115003   5.797   4.145   1.253  0.4163 -0.1250 -0.6125
 4999TIP3    H215004   5.682   4.047   1.268 -0.1927  0.8117  1.0091
 5000TIP3   OH215005   2.621   2.508   1.046 -0.1595 -0.1466  0.3665
 5000TIP3    H115006   2.703   2.459   1.056 -0.6071 -1.3506 -1.4060
 5000TIP3    H215007   2.553   2.441   1.041 -0.8484  0.6292 -1.6497
 5001TIP3   OH215008   3.397   0.271   3.331  0.2996  0.2808 -0.5626
 5001TIP3    H115009   3.474   0.311   3.292  0.7308  1.3057  1.2466
 5001TIP3    H215010   3.432   0.201   3.387 -0.0124  0.9836  0.5475
 5002TIP3   OH215011   2.751   0.283   3.926  0.0136 -0.1736 -0.7362
 5002TIP3    H115012   2.714   0.195   3.925  0.3537 -0.4281  2.3082
 5002TIP3    H215013   2.691   0.335   3.979  0.4881  1.1284 -1.4099
 5003TIP3   OH215014   0.365   0.690   1.729  0.3396  0.6451 -0.1237
 5003TIP3    H115015   0.331   0.654   1.811  0.8580 -1.9441 -0.9415
 5003TIP3    H215016   0.457   0.664   1.728  0.8602  2.3576 -0.6730
 5004TIP3   OH215017   0.686   2.929   3.953  0.1368 -0.1417 -0.0620
 5004TIP3    H115018   0.719   2.989   4.020  0.3961 -0.2462 -0.0954
 5004TIP3    H215019   0.745   2.854   3.956  0.6203  0.1856 -0.9325
 5005TIP3   OH215020   1.158   4.332   4.774  0.1694 -0.1373  0.3697
 5005TIP3    H115021   1.078   4.302   4.730  1.7017 -0.4869 -2.3914
 5005TIP3    H215022   1.217   4.257   4.772  0.8253  0.3025  1.8110
 5006TIP3   OH215023   3.216   2.539   3.217  0.0801  0.0854  0.1954
 5006TIP3    H115024   3.160   2.471   3.255 -1.2538  2.0392  2.0229
 5006TIP3    H215025   3.277   2.561   3.288  0.4975  0.7650 -0.3647
 5007TIP3   OH215026   2.691   3.982   1.956 -0.3381  0.0412 -0.2950
 5007TIP3    H115027   2.769   4.008   2.004 -1.3876  2.0944  0.4278
 5007TIP3    H215028   2.724   3.942   1.876  1.4457  0.3849  0.2373
 5008TIP3   OH215029   5.003   5.685   1.696  0.0256 -0.5958  0.3031
 5008TIP3    H115030   4.957   5.634   1.629 -0.1198 -0.7478  0.5185
 5008TIP3    H215031   4.949   5.762   1.709 -1.1199 -1.6012  1.8306
 5009TIP3   OH215032   4.820   0.269   3.501 -0.2112 -0.1531  0.1054
 5009TIP3    H115033   4.873   0.197   3.535  0.1282 -0.3087 -0.7110
 5009TIP3    H215034   4.751   0.282   3.566 -0.4898 -1.4536  0.0880
 5010TIP3   OH215035   1.068   2.830   3.773 -0.3973  0.2682 -0.7575
 5010TIP3    H115036   1.128   2.827   3.698  1.6538  0.5527  0.8000
 5010TIP3    H215037   1.044   2.922   3.781  0.6726  0.5167 -0.1442
 5011TIP3   OH215038   0.751   1.132   4.737 -0.1702 -0.3911  0.3231
 5011TIP3    H115039   0.750   1.211   4.792  0.2740 -1.6185  2.1772
 5011TIP3    H215040   0.659   1.116   4.718 -0.2260  0.9759 -0.7246
 5012TIP3   OH215041   3.134   5.864   0.773  0.4400 -0.3541  0.4992
 5012TIP3    H115042   3.087   5.832   0.696 -1.1395  0.0995  1.2083
 5012TIP3    H215043   3.226   5.852   0.753  0.0178 -1.6142 -0.8503
 5013TIP3   OH215044   1.937   4.287   2.692 -0.7056  0.2374 -0.2547
 5013TIP3    H115045   1.882   4.245   2.626 -0.6483 -1.1002  0.4922
 5013TIP3    H215046   2.023   4.292   2.653 -0.5721 -0.9471 -0.1557
 5014TIP3   OH215047   2.653   2.112   0.226  0.0053  0.5497 -0.0195
 5014TIP3    H115048   2.672   2.065   0.145 -1.6592 -0.4740  0.1422
 5014TIP3    H215049   2.617   2.195   0.197 -1.4570 -0.1771 -0.3785
 5015TIP3   OH215050   2.306   5.128   5.007  0.0883 -0.0587  0.6595
 5015TIP3    H115051   2.375   5.074   4.969  1.7318  2.3379  0.0217
 5015TIP3    H215052   2.260   5.069   5.067  2.0997 -1.9874  0.4301
 5016TIP3   OH215053   1.038   1.560   4.406  0.3202  0.2160 -0.0377
 5016TIP3    H115054   1.097   1.564   4.332 -0.1025  1.8560 -0.3376
 5016TIP3    H215055   0.965   1.618   4.382 -0.4210 -0.1784  1.1402
 5017TIP3   OH215056   4.509   1.294   0.004 -0.0777  0.0786 -0.1404
 5017TIP3    H115057   4.419   1.313   0.030 -0.2032 -1.3936  0.6120
 5017TIP3    H215058   4.563   1.350   0.059 -0.5268  1.5843 -1.1711
 5018TIP3   OH215059   5.599   1.344   1.441  0.3091  0.0880 -0.3165
 5018TIP3    H115060   5.658   1.340   1.517 -0.6650  0.4970  0.4837
 5018TIP3    H215061   5.632   1.417   1.389  0.6170  0.1956  0.0224
 5019TIP3   OH215062   0.297   3.994   3.532 -0.2046 -0.0475 -0.3407
 5019TIP3    H115063   0.286   3.972   3.440  1.0724 -0.3265 -0.4441
 5019TIP3    H215064   0.297   3.910   3.578  0.2937  0.0136 -0.2234
 5020TIP3   OH215065   4.100   4.465   0.982 -0.2487  0.2795  0.6021
 5020TIP3    H115066   4.146   4.498   0.904 -0.2497  0.7329  0.7929
 5020TIP3    H215067   4.041   4.536   1.007 -1.8932 -0.7014 -0.2976
 5021TIP3   OH215068   5.124   5.794   2.665  0.6119  0.0472  0.1032
 5021TIP3    H115069   5.205   5.747   2.684 -0.0459 -0.3117  2.3077
 5021TIP3    H215070   5.086   5.747   2.591 -0.1669 -3.2653  2.3848
 5022TIP3   OH215071   2.285   2.937   1.812  0.0321  0.1930 -0.6532
 5022TIP3    H115072   2.245   3.010   1.858 -2.9634 -0.8519 -1.3905
 5022TIP3    H215073   2.347   2.899   1.875 -1.6557  0.6658  1.3789
 5023TIP3   OH215074   5.740   4.921   1.061 -0.3963 -0.2060  0.0733
 5023TIP3    H115075   5.693   4.998   1.094  0.2784  0.2363  0.0117
 5023TIP3    H215076   5.740   4.860   1.135 -0.2384  0.1666  0.3833
 5024TIP3   OH215077   6.204   0.807   4.046  0.3198 -0.0165 -0.0627
 5024TIP3    H115078   6.293   0.820   4.013 -0.1057  0.5513 -1.0416
 5024TIP3    H215079   6.170   0.896   4.057 -1.0664 -0.1898 -2.4006
 5025TIP3   OH215080   4.350   0.769   2.538  0.2610 -0.2661 -0.2682
 5025TIP3    H115081   4.313   0.846   2.581 -1.4990 -0.8221 -0.7039
 5025TIP3    H215082   4.361   0.795   2.447  0.8501 -0.1439 -0.1655
 5026TIP3   OH215083   4.939   4.838   4.776 -0.8563 -0.2593  0.0925
 5026TIP3    H115084   4.947   4.752   4.817 -2.6187 -1.4990 -1.9305
 5026TIP3    H215085   5.023   4.852   4.734 -0.6409 -1.1373  0.1988
 5027TIP3   OH215086   5.073   1.503   4.307 -0.2734  0.0845 -0.2494
 5027TIP3    H115087   5.123   1.466   4.234 -2.2938 -3.6418  0.0389
 5027TIP3    H215088   5.126   1.485   4.384  0.6233  1.6102 -0.4748
 5028TIP3   OH215089   6.083   2.616   3.067 -0.2993 -0.2089  0.7278
 5028TIP3    H115090   5.993   2.584   3.057 -0.3156 -0.0809  0.4497
 5028TIP3    H215091   6.083   2.664   3.149 -1.4613  3.0486 -0.9843
 5029TIP3   OH215092   0.726  -0.012   1.745  0.5612 -0.1280 -0.0733
 5029TIP3    H115093   0.795   0.051   1.724  0.7885 -0.6884 -1.1114
 5029TIP3    H215094   0.686   0.021   1.825 -0.8604  2.6246 -1.7596
 5030TIP3   OH215095   0.745   2.975   2.669  0.1865  0.1533 -0.5269
 5030TIP3    H115096   0.666   2.988   2.617 -0.6461  1.0627  0.9086
 5030TIP3    H215097   0.739   3.040   2.739  0.8998 -1.4640  1.1294
 5031TIP3   OH215098   3.388   3.679   2.891  0.1393  0.5483 -0.7125
 5031TIP3    H115099   3.320   3.673   2.824 -0.7647  2.5523 -0.0536
 5031TIP3    H215100   3.383   3.594   2.937 -1.8234  0.5536 -0.7935
 5032TIP3   OH215101   5.996   5.368   3.894 -0.1455 -0.2680 -0.0237
 5032TIP3    H115102   6.070   5.367   3.834  0.7971  0.1259  1.0824
 5032TIP3    H215103   6.005   5.287   3.944 -1.1405 -0.7777 -0.6530
 5033TIP3   OH215104   4.308   0.257   1.943 -0.3438  0.3963  0.0403
 5033TIP3    H115105   4.317   0.308   2.023 -1.9726 -1.5994  1.5778
 5033TIP3    H215106   4.218   0.270   1.916 -0.1732  0.0039 -0.7505
 5034TIP3   OH215107   4.087   0.518   3.147  0.0403  0.3389  0.4178
 5034TIP3    H115108   4.113   0.436   3.105 -0.4257  0.4931 -0.1915
 5034TIP3    H215109   4.135   0.585   3.098 -0.3950  0.5097  0.2216
 5035TIP3   OH215110   2.872   4.252   0.747 -0.1735  0.5345 -0.5647
 5035TIP3    H115111   2.911   4.178   0.793  2.4176  0.6757 -2.3237
 5035TIP3    H215112   2.780   4.228   0.736  0.2063 -1.5783  0.4549
 5036TIP3   OH215113   4.723   4.113   3.524 -0.4768  0.3006  0.5012
 5036TIP3    H115114   4.745   4.206   3.533 -0.0330  0.2191  0.2812
 5036TIP3    H215115   4.767   4.071   3.598  1.0395 -0.0121 -0.5317
 5037TIP3   OH215116   5.456   2.358   4.984 -0.6611 -0.1753  0.4020
 5037TIP3    H115117   5.463   2.306   5.064  1.5723  0.5871  0.7586
 5037TIP3    H215118   5.468   2.294   4.913  0.7499 -0.3803  0.7974
 5038TIP3   OH215119   0.532   3.382   3.295 -0.3138 -0.7926  0.3658
 5038TIP3    H115120   0.554   3.475   3.296  0.2000 -0.8568 -1.8130
 5038TIP3    H215121   0.437   3.380   3.305 -0.5168  0.0751 -1.1494
 5039TIP3   OH215122   2.957   1.725   0.117 -0.6801  0.4668  0.9527
 5039TIP3    H115123   2.911   1.657   0.168 -0.1642  0.2502  1.1373
 5039TIP3    H215124   2.994   1.677   0.043  0.8871  0.2645  1.8260
 5040TIP3   OH215125   1.440   3.920   3.086  0.3365 -0.3460 -0.5756
 5040TIP3    H115126   1.366   3.957   3.134  2.9241  1.8123  2.0753
 5040TIP3    H215127   1.467   3.989   3.026  1.4404 -0.2484  0.0062
 5041TIP3   OH215128   1.735   2.240   3.155 -0.1703 -0.2850 -0.0853
 5041TIP3    H115129   1.734   2.244   3.251  2.1373  0.1022 -0.0163
 5041TIP3    H215130   1.827   2.227   3.132 -0.6753 -0.4837 -2.2646
 5042TIP3   OH215131   1.004   3.016   1.703  0.2724  0.0123 -0.2623
 5042TIP3    H115132   0.983   3.027   1.611 -0.0197  0.6677 -0.1234
 5042TIP3    H215133   0.954   2.938   1.730 -0.1463  0.1953 -0.5009
 5043TIP3   OH215134   0.743   0.350   0.362 -0.1386  0.4010  0.6074
 5043TIP3    H115135   0.689   0.310   0.431 -0.1552 -0.2960  0.2063
 5043TIP3    H215136   0.826   0.303   0.367 -0.1737  0.2782  0.0959
 5044TIP3   OH215137   6.052   3.341   1.399  0.2340 -0.0532 -0.0769
 5044TIP3    H115138   6.127   3.378   1.352  0.9632 -2.4127 -0.9304
 5044TIP3    H215139   6.090   3.268   1.449 -1.2629 -0.3484  0.6694
 5045TIP3   OH215140   5.897   4.577   2.521 -0.6814  0.0116 -0.7689
 5045TIP3    H115141   5.812   4.597   2.480 -1.1886  1.6719  0.9350
 5045TIP3    H215142   5.937   4.662   2.536 -0.6828 -0.4079  2.3827
 5046TIP3   OH215143   2.507   0.345   4.122 -0.2750  0.2754  0.2015
 5046TIP3    H115144   2.468   0.429   4.096 -0.0852  0.3686  0.2108
 5046TIP3    H215145   2.434   0.283   4.123 -0.3777  0.3934 -0.0144
 5047TIP3   OH215146   6.132   5.713   1.592 -0.1153 -0.0077  0.8362
 5047TIP3    H115147   6.215   5.673   1.616 -0.0840  0.2079  1.0930
 5047TIP3    H215148   6.141   5.805   1.616 -0.3832  0.0414  0.7593
 5048TIP3   OH215149   1.623   3.275   3.494  0.7592  0.3016 -0.1637
 5048TIP3    H115150   1.710   3.241   3.516 -0.6307 -2.0856  2.3842
 5048TIP3    H215151   1.601   3.234   3.411  1.7111  0.2402 -0.3927
 5049TIP3   OH215152   1.359   4.973   2.594 -0.7790 -0.4800 -0.3034
 5049TIP3    H115153   1.444   4.935   2.613 -0.2192 -0.1613 -1.9783
 5049TIP3    H215154   1.296   4.914   2.637  0.2300 -1.2088  0.2175
 5050TIP3   OH215155   3.330   2.293   2.622  0.4341  0.4588 -0.1262
 5050TIP3    H115156   3.249   2.340   2.605  0.9395  1.4271  0.0814
 5050TIP3    H215157   3.389   2.320   2.551  0.7828  0.2821  0.0919
 5051TIP3   OH215158   1.309   5.191   0.040 -0.1348  0.1613 -0.3077
 5051TIP3    H115159   1.377   5.141  -0.006  0.7590  0.3022  0.8106
 5051TIP3    H215160   1.280   5.132   0.110 -1.5291 -0.0768 -1.0469
 5052TIP3   OH215161   4.212   5.158   0.705 -0.2727  0.0605  0.5588
 5052TIP3    H115162   4.288   5.192   0.752 -0.4702  0.2847  0.7234
 5052TIP3    H215163   4.151   5.232   0.702  0.1769  0.4156 -1.0560
 5053TIP3   OH215164   5.613   0.291   5.095 -0.5331  0.0434 -0.0359
 5053TIP3    H115165   5.636   0.383   5.085  1.4926 -0.3160  0.9506
 5053TIP3    H215166   5.606   0.258   5.005 -0.7104  1.0042 -0.3847
 5054TIP3   OH215167   0.652   1.978   2.498 -0.5218  0.0657  1.1408
 5054TIP3    H115168   0.602   1.902   2.470 -0.0546  0.3667 -0.6000
 5054TIP3    H215169   0.727   1.941   2.546  0.4015 -0.6847 -0.7905
 5055TIP3   OH215170   2.513   2.762   4.431 -0.6250 -0.0663  0.1685
 5055TIP3    H115171   2.532   2.672   4.457 -0.0332  0.1745  0.6039
 5055TIP3    H215172   2.463   2.799   4.503 -1.2491 -0.1719 -0.2043
 5056TIP3   OH215173   0.390   4.481   2.816  0.1421  0.6913 -0.1475
 5056TIP3    H115174   0.325   4.449   2.879  0.7282 -0.5602 -0.1527
 5056TIP3    H215175   0.353   4.563   2.783 -1.6671 -0.2061 -0.4864
 5057TIP3   OH215176   3.962   3.343   0.306  0.1537 -0.1895  0.3124
 5057TIP3    H115177   3.893   3.408   0.294  0.7784  0.2186 -1.3555
 5057TIP3    H215178   3.941   3.274   0.242  0.2073 -1.0146  1.1684
 5058TIP3   OH215179   1.718   0.617   1.709  0.3037 -0.2733 -0.4186
 5058TIP3    H115180   1.623   0.613   1.712  0.3514 -1.6731  0.1302
 5058TIP3    H215181   1.744   0.649   1.795  0.3010  2.1643 -1.2506
 5059TIP3   OH215182   6.147   2.578   0.449 -0.0002 -0.0764 -0.0240
 5059TIP3    H115183   6.223   2.585   0.392  0.5476  1.6817  0.8583
 5059TIP3    H215184   6.074   2.610   0.396 -0.0866 -1.3251 -0.7123
 5060TIP3   OH215185   2.299   4.640   1.810 -0.0039 -0.1411  0.3406
 5060TIP3    H115186   2.390   4.668   1.796  0.5211 -1.3697  1.1706
 5060TIP3    H215187   2.297   4.549   1.781 -0.7681 -0.3635  1.0525
 5061TIP3   OH215188   4.394   5.317   3.029  0.1633 -0.1803  0.2237
 5061TIP3    H115189   4.308   5.316   2.989 -1.2460 -3.1157  2.8436
 5061TIP3    H215190   4.379   5.349   3.118  1.0502 -3.3620  1.6779
 5062TIP3   OH215191   0.025   1.977   3.360 -0.3211 -0.4087 -0.8153
 5062TIP3    H115192   0.040   2.052   3.418 -0.6402  0.1247 -1.4099
 5062TIP3    H215193   0.091   1.913   3.386  1.1526  0.7607 -1.4651
 5063TIP3   OH215194   1.773   2.860   3.527  0.0654 -0.1432  0.6441
 5063TIP3    H115195   1.859   2.883   3.562  0.6341  0.3718 -1.0145
 5063TIP3    H215196   1.780   2.876   3.433 -2.0175  0.4568  0.5389
 5064TIP3   OH215197   1.860   4.107   2.990 -0.2497  0.1283 -0.0052
 5064TIP3    H115198   1.852   4.201   2.970 -0.2708  0.2910  0.7600
 5064TIP3    H215199   1.936   4.102   3.048 -0.5753 -0.2694  0.3870
 5065TIP3   OH215200   3.053   2.636   4.350  0.2308  0.0878  0.2445
 5065TIP3    H115201   3.047   2.544   4.322  0.6503  0.2950 -0.5611
 5065TIP3    H215202   3.147   2.652   4.359  0.1481  0.3646  0.6617
 5066TIP3   OH215203   1.669   1.452   2.362  0.1078  0.0292  0.6483
 5066TIP3    H115204   1.658   1.425   2.271  1.6094 -0.8199  0.6868
 5066TIP3    H215205   1.580   1.458   2.396 -0.4201 -1.7804 -0.2689
 5067TIP3   OH215206   2.125   5.008   3.820 -0.0833  0.3213  0.2715
 5067TIP3    H115207   2.183   5.008   3.744 -0.5632 -0.5497 -0.1224
 5067TIP3    H215208   2.078   5.091   3.815  0.1702  0.4400 -0.1671
 5068TIP3   OH215209   4.049   3.722   1.284  0.2543  0.5271  0.2956
 5068TIP3    H115210   4.027   3.784   1.353  0.9029  1.2806 -0.1569
 5068TIP3    H215211   4.024   3.766   1.203 -0.3244 -0.2705  0.0238
 5069TIP3   OH215212   0.514   4.560   3.880  0.1338 -0.7807  0.1731
 5069TIP3    H115213   0.534   4.497   3.949  1.6222 -1.6017 -0.9616
 5069TIP3    H215214   0.491   4.507   3.804  1.5933 -0.0038 -0.8629
 5070TIP3   OH215215   3.701   1.258   1.688 -0.1716 -0.5633  0.0340
 5070TIP3    H115216   3.666   1.306   1.763 -0.7780 -1.4136  0.3131
 5070TIP3    H215217   3.791   1.237   1.713 -0.7864 -2.0868  1.1800
 5071TIP3   OH215218   0.950   0.615   4.581 -0.4663  0.5185 -0.6778
 5071TIP3    H115219   0.953   0.520   4.586 -0.5933  0.4487 -1.7371
 5071TIP3    H215220   0.955   0.644   4.672 -0.9697 -0.5150 -0.3092
 5072TIP3   OH215221   2.885   4.366   1.256  0.5557 -0.4416 -0.1078
 5072TIP3    H115222   2.879   4.461   1.267  1.1073 -0.2905 -1.0206
 5072TIP3    H215223   2.860   4.351   1.164 -0.3839 -1.2693  0.2672
 5073TIP3   OH215224   0.790   0.484   3.864 -0.0672  0.1342 -0.3803
 5073TIP3    H115225   0.764   0.395   3.885 -0.7093  0.8774  2.4409
 5073TIP3    H215226   0.877   0.494   3.901 -0.0162  0.6825 -0.6304
 5074TIP3   OH215227   3.542   0.522   2.072 -0.5557  0.4632  0.0501
 5074TIP3    H115228   3.500   0.509   2.157 -0.7467 -0.7515 -0.2178
 5074TIP3    H215229   3.480   0.487   2.009 -0.1232  0.7492 -0.5421
 5075TIP3   OH215230   3.511   2.761   4.777 -0.7617  0.6192  0.1023
 5075TIP3    H115231   3.530   2.836   4.720  1.0293  0.2777  0.1972
 5075TIP3    H215232   3.461   2.798   4.849  1.7042  2.1735  1.1473
 5076TIP3   OH215233   0.485   5.342   2.862  0.2602 -0.5814 -0.6003
 5076TIP3    H115234   0.440   5.419   2.828  2.0813  0.5513 -0.5599
 5076TIP3    H215235   0.430   5.312   2.934 -0.9686  0.0881 -1.2307
 5077TIP3   OH215236   0.864   5.382   4.924  0.2518 -0.1143 -0.0293
 5077TIP3    H115237   0.865   5.296   4.883 -0.5970 -0.4704  0.6676
 5077TIP3    H215238   0.775   5.390   4.960  0.4749  0.8473  0.3293
 5078TIP3   OH215239   6.215   3.780   2.507 -0.2120  0.1913 -0.3636
 5078TIP3    H115240   6.151   3.822   2.564  0.3128 -1.3396  1.4547
 5078TIP3    H215241   6.281   3.745   2.567  0.1873 -1.8054 -1.8611
 5079TIP3   OH215242   6.139   2.599   4.852 -0.3376 -0.5512 -0.3521
 5079TIP3    H115243   6.144   2.694   4.849  0.9907 -0.4121  2.4396
 5079TIP3    H215244   6.061   2.580   4.905  0.1948 -0.9402  0.3123
 5080TIP3   OH215245   2.622   4.602   1.700  0.1693 -0.2780  0.4682
 5080TIP3    H115246   2.612   4.651   1.781  0.5083 -0.8976  0.8975
 5080TIP3    H215247   2.701   4.549   1.713 -0.0774 -0.7915 -0.0470
 5081TIP3   OH215248   4.071   2.508   3.045  0.6541 -0.2315 -0.3929
 5081TIP3    H115249   4.078   2.594   3.086  0.8135  0.3671 -1.6010
 5081TIP3    H215250   4.023   2.524   2.964 -1.1407 -1.6501  0.3173
 5082TIP3   OH215251   4.021   3.349   3.894  0.2747 -0.3808 -0.0282
 5082TIP3    H115252   4.023   3.403   3.815  1.5189 -0.7874 -0.3006
 5082TIP3    H215253   3.975   3.402   3.959  0.8441  0.7003 -0.4906
 5083TIP3   OH215254   3.203   4.653   3.731  0.1956 -0.3842  0.2929
 5083TIP3    H115255   3.117   4.617   3.751 -0.3754  2.2108  3.3436
 5083TIP3    H215256   3.187   4.747   3.719  2.5476  0.1350  0.7450
 5084TIP3   OH215257   3.438   5.923   2.447  0.1763 -0.1021 -0.3410
 5084TIP3    H115258   3.447   5.830   2.469 -0.4861 -1.1590 -3.8248
 5084TIP3    H215259   3.344   5.940   2.453  0.4756  0.9899  2.2021
 5085TIP3   OH215260   0.736   2.421   2.646 -0.2783  0.3003 -0.3461
 5085TIP3    H115261   0.749   2.485   2.576  0.4041 -1.4307 -1.8644
 5085TIP3    H215262   0.641   2.421   2.661 -0.4104  0.8470 -1.1184
 5086TIP3   OH215263   0.282   3.023   3.639 -0.4494 -0.0878  0.6222
 5086TIP3    H115264   0.282   3.086   3.711 -1.2784  0.3455  0.2520
 5086TIP3    H215265   0.366   3.038   3.595 -0.4139  0.4109  0.8449
 5087TIP3   OH215266   5.783   5.065   3.783  0.2512  0.4564 -0.0772
 5087TIP3    H115267   5.769   5.160   3.785  1.6731  0.6856  2.1818
 5087TIP3    H215268   5.737   5.033   3.861 -1.0269 -0.9050 -1.3183
 5088TIP3   OH215269   1.182   3.425   4.979 -0.0789  0.3363  0.5205
 5088TIP3    H115270   1.142   3.362   4.920 -1.9604  1.5152  0.4655
 5088TIP3    H215271   1.196   3.503   4.925 -0.2050  0.8416  1.2014
 5089TIP3   OH215272   4.749   4.847   2.651  0.1561 -0.3871  0.0524
 5089TIP3    H115273   4.772   4.938   2.633  1.6565 -0.7413 -0.0038
 5089TIP3    H215274   4.721   4.846   2.742 -3.0555  0.6415 -0.7901
 5090TIP3   OH215275   2.216   0.211   4.139  0.2781 -0.2458 -0.1548
 5090TIP3    H115276   2.229   0.258   4.057  0.5960 -1.3277 -0.7420
 5090TIP3    H215277   2.189   0.123   4.113 -1.1147 -0.1778  0.9324
 5091TIP3   OH215278   4.858   1.964   5.035  0.3140  0.0611  0.5390
 5091TIP3    H115279   4.950   1.936   5.043  0.3684  0.3309  0.8648
 5091TIP3    H215280   4.856   2.051   5.074  0.0845  0.4029 -0.2218
 5092TIP3   OH215281   3.128   3.490   4.582 -0.7024 -1.0204 -0.6825
 5092TIP3    H115282   3.169   3.463   4.500  1.0047  0.4026 -0.3554
 5092TIP3    H215283   3.175   3.570   4.608 -1.8104 -0.9081  1.2158
 5093TIP3   OH215284   5.614   4.500   2.481  0.6635  0.6160  0.1323
 5093TIP3    H115285   5.615   4.434   2.551  2.2185  0.3697 -0.0902
 5093TIP3    H215286   5.539   4.556   2.503  0.7748  0.2182  1.6948
 5094TIP3   OH215287   0.463   0.170   1.359  0.5859 -0.3212 -0.3244
 5094TIP3    H115288   0.523   0.152   1.432  0.2795 -1.4429 -0.3392
 5094TIP3    H215289   0.490   0.256   1.327  1.6532 -0.4432  0.2040
 5095TIP3   OH215290   1.515   3.166   0.574  0.5545 -0.7389  0.3775
 5095TIP3    H115291   1.459   3.091   0.595  0.6822 -1.1466 -0.6607
 5095TIP3    H215292   1.564   3.138   0.496  0.1899  0.6293 -0.3748
 5096TIP3   OH215293   3.138   0.450   1.106 -0.1843  0.6783 -0.4288
 5096TIP3    H115294   3.209   0.510   1.132 -0.1962  0.3842  0.2885
 5096TIP3    H215295   3.065   0.508   1.085  0.3286  1.0008 -1.4084
 5097TIP3   OH215296   5.047   3.201   2.777  0.1196 -0.0815 -0.3860
 5097TIP3    H115297   4.980   3.137   2.802 -0.2544 -0.2255 -1.7151
 5097TIP3    H215298   5.082   3.168   2.695  1.3213  0.3920 -0.0773
 5098TIP3   OH215299   2.133   1.842   4.180 -0.5355  0.0161  0.1208
 5098TIP3    H115300   2.115   1.748   4.178  0.1545 -0.1413  0.7078
 5098TIP3    H215301   2.215   1.850   4.230  0.8188  0.7120 -2.0685
 5099TIP3   OH215302   3.407   3.461   3.031 -0.0823 -0.3907  0.0474
 5099TIP3    H115303   3.397   3.389   2.969  0.3543  1.1015 -1.8523
 5099TIP3    H215304   3.491   3.444   3.075  0.3018 -0.7452 -0.8140
 5100TIP3   OH215305   2.609   0.626   4.149 -0.5653 -0.0348 -0.8223
 5100TIP3    H115306   2.514   0.611   4.142 -0.6027 -0.4219  0.2308
 5100TIP3    H215307   2.631   0.680   4.073 -1.6733  0.2503 -0.9587
 5101TIP3   OH215308   0.518   1.869   0.030 -0.4411 -0.2927 -0.2509
 5101TIP3    H115309   0.508   1.776   0.013 -0.6115 -0.3085 -0.0792
 5101TIP3    H215310   0.611   1.886   0.020 -0.1508 -0.8098  1.2803
 5102TIP3   OH215311   1.096   4.325   3.686 -0.7059 -0.0879  0.2019
 5102TIP3    H115312   1.026   4.289   3.632  0.4834 -0.9560 -0.8179
 5102TIP3    H215313   1.106   4.415   3.656 -0.2359 -0.4827 -0.8895
 5103TIP3   OH215314   2.084   5.438   3.843  0.0879  0.4815  0.2494
 5103TIP3    H115315   2.162   5.467   3.892  0.3863  1.2706 -0.6617
 5103TIP3    H215316   2.022   5.411   3.911  0.3838  1.8188  1.0983
 5104TIP3   OH215317   5.113   0.268   3.141  0.2774  0.1246 -0.3696
 5104TIP3    H115318   5.202   0.281   3.174  0.7114  0.3862 -1.5868
 5104TIP3    H215319   5.111   0.317   3.059 -1.1862  0.6216 -0.0533
 5105TIP3   OH215320   3.400   5.029   3.211  0.1819  0.2606 -0.0874
 5105TIP3    H115321   3.388   5.105   3.268 -0.3227  0.8120 -0.9127
 5105TIP3    H215322   3.416   5.066   3.125  0.6587 -0.5719 -0.3706
 5106TIP3   OH215323   1.346   1.939   3.703 -0.7479 -0.3776  0.1817
 5106TIP3    H115324   1.403   1.890   3.644 -0.6341  1.2585 -1.1401
 5106TIP3    H215325   1.291   1.992   3.645 -1.8316  0.0268  1.5143
 5107TIP3   OH215326   2.443   5.947   3.121  0.3262  0.6528 -0.4808
 5107TIP3    H115327   2.413   5.858   3.104  1.1543  0.6363 -2.0827
 5107TIP3    H215328   2.478   5.944   3.210 -0.7423 -0.3008 -0.0680
 5108TIP3   OH215329   2.066   2.352   1.376 -0.1270  0.3698 -0.8777
 5108TIP3    H115330   2.052   2.383   1.465  1.8421  0.3123 -0.4917
 5108TIP3    H215331   2.159   2.370   1.359 -0.0473 -1.1518 -2.2907
 5109TIP3   OH215332   1.274   4.416   2.394  0.0453  0.4676  0.2165
 5109TIP3    H115333   1.305   4.423   2.304  1.4036 -0.7049  0.5554
 5109TIP3    H215334   1.263   4.506   2.423  1.8730  0.9281 -0.3797
 5110TIP3   OH215335   4.971   3.988   3.997 -0.3019  0.3755 -0.4279
 5110TIP3    H115336   4.988   3.894   3.996  1.3526  0.6498  0.1214
 5110TIP3    H215337   4.895   3.997   4.056  0.6074 -0.4658  0.9344
 5111TIP3   OH215338   1.073   3.178   1.901  0.5270  0.2658  0.1166
 5111TIP3    H115339   1.025   3.255   1.870  0.7848  0.1343 -0.6482
 5111TIP3    H215340   1.065   3.115   1.829 -1.4216 -1.2213  1.5342
 5112TIP3   OH215341   5.358   0.194   4.877  0.5067 -0.8685 -0.2433
 5112TIP3    H115342   5.397   0.110   4.853  1.2245 -1.0765  1.5034
 5112TIP3    H215343   5.267   0.174   4.896  0.9576 -1.5627  1.4271
 5113TIP3   OH215344   6.265   0.742   3.714  0.3866 -0.5036  0.3776
 5113TIP3    H115345   6.324   0.769   3.784  0.8051  0.9899 -0.5248
 5113TIP3    H215346   6.321   0.734   3.637  0.0096 -2.5584  0.2470
 5114TIP3   OH215347   2.633   2.083   1.531  0.2143 -0.3496 -0.4819
 5114TIP3    H115348   2.632   2.170   1.491 -1.3314 -1.0326 -2.0492
 5114TIP3    H215349   2.631   2.099   1.625 -1.2025  1.3004 -0.7613
 5115TIP3   OH215350   2.312   1.149   3.819 -0.8337 -0.2922  0.2088
 5115TIP3    H115351   2.318   1.120   3.910  0.6430  2.1537  0.9898
 5115TIP3    H215352   2.228   1.192   3.813 -1.3101 -1.2044  0.1453
 5116TIP3   OH215353   4.742   3.014   4.312  0.2569  0.3909 -0.0278
 5116TIP3    H115354   4.726   3.104   4.285 -2.2833  0.4417  1.3884
 5116TIP3    H215355   4.696   3.005   4.395 -0.3072 -2.4536 -0.5418
 5117TIP3   OH215356   1.409   0.967   0.273  0.3730 -0.3664 -0.4082
 5117TIP3    H115357   1.450   0.956   0.359  0.2924 -1.3796 -0.4874
 5117TIP3    H215358   1.472   1.018   0.222  0.9650 -0.8241 -0.1360
 5118TIP3   OH215359   1.989   3.361   0.178  0.0366  0.4306 -0.6988
 5118TIP3    H115360   2.023   3.324   0.096 -0.4231 -0.6772 -0.4137
 5118TIP3    H215361   1.906   3.402   0.153  1.5707  3.3323 -1.4363
 5119TIP3   OH215362   4.230   1.807   3.112 -0.2883 -0.1908  0.1502
 5119TIP3    H115363   4.189   1.790   3.028 -1.4766 -1.6192  0.9649
 5119TIP3    H215364   4.173   1.870   3.155 -0.3352 -0.3651  0.3463
 5120TIP3   OH215365   5.046   2.807   2.468  0.7115  0.6331 -0.1527
 5120TIP3    H115366   5.100   2.744   2.516  2.1092  1.9253  0.0513
 5120TIP3    H215367   4.956   2.781   2.488  1.2431 -0.9333  0.3817
 5121TIP3   OH215368   5.554   1.395   4.296  0.3334 -0.2863 -0.6320
 5121TIP3    H115369   5.569   1.360   4.384 -0.7690 -1.8245 -1.0203
 5121TIP3    H215370   5.491   1.466   4.309 -0.2383 -0.8563 -0.2379
 5122TIP3   OH215371   2.143   2.192   4.651 -0.0469  0.1836  0.0975
 5122TIP3    H115372   2.182   2.104   4.655  1.6706  0.8790 -0.4854
 5122TIP3    H215373   2.167   2.233   4.734 -1.1038  0.0245  0.4972
 5123TIP3   OH215374   3.079   5.337   1.299  0.3717  0.2520  0.1624
 5123TIP3    H115375   3.151   5.273   1.303 -0.1508 -0.2946  1.3841
 5123TIP3    H215376   3.080   5.368   1.209  2.5706  0.7648  0.2888
 5124TIP3   OH215377   1.090   0.602   2.106  0.3892 -0.0481 -0.0530
 5124TIP3    H115378   0.997   0.586   2.120  0.3290  1.7935  2.2539
 5124TIP3    H215379   1.126   0.517   2.081 -1.1147 -2.0423  3.7060
 5125TIP3   OH215380   5.314   3.744   0.070  0.0032 -0.1327 -0.1862
 5125TIP3    H115381   5.320   3.648   0.070 -0.1248 -0.1659  1.7674
 5125TIP3    H215382   5.393   3.773   0.114 -0.4815  0.6267  0.1935
 5126TIP3   OH215383   3.857   1.315   2.392  0.1717 -0.4399  0.3919
 5126TIP3    H115384   3.917   1.335   2.320 -1.2539  0.5791 -0.5697
 5126TIP3    H215385   3.800   1.246   2.358 -0.1736 -0.3332  0.7422
 5127TIP3   OH215386   3.107   1.536   1.192 -0.1168  0.0646  0.5685
 5127TIP3    H115387   3.127   1.471   1.260  0.0122 -1.2242 -0.6480
 5127TIP3    H215388   3.022   1.507   1.157  1.2272 -1.2208 -1.9222
 5128TIP3   OH215389   0.382   5.668   1.435  0.1119 -0.3501  0.0174
 5128TIP3    H115390   0.384   5.700   1.345 -0.0556  1.5545  0.6419
 5128TIP3    H215391   0.312   5.602   1.437 -0.1673 -0.0950 -1.1402
 5129TIP3   OH215392   5.662   3.325   0.298 -0.3535 -0.2046  0.0008
 5129TIP3    H115393   5.729   3.353   0.236  1.8520 -0.0947  2.2539
 5129TIP3    H215394   5.709   3.269   0.360 -2.7244 -1.4422  0.8046
 5130TIP3   OH215395   5.486   4.991   0.196 -0.0002  0.2065  0.5693
 5130TIP3    H115396   5.393   4.990   0.216  0.1505 -2.1752  1.4173
 5130TIP3    H215397   5.529   4.992   0.282  0.8445  3.0408  0.2147
 5131TIP3   OH215398   6.263   4.327   4.506  0.6665  0.4169 -0.3755
 5131TIP3    H115399   6.287   4.343   4.415 -0.5835 -1.3783 -1.0867
 5131TIP3    H215400   6.291   4.236   4.522  1.1535  0.7979  1.1573
 5132TIP3   OH215401   4.967   0.447   4.452  0.2550 -0.4018  0.5469
 5132TIP3    H115402   4.876   0.450   4.422  0.7610  1.9683 -1.0308
 5132TIP3    H215403   4.961   0.425   4.545 -1.8698 -1.0064  0.3244
 5133TIP3   OH215404   1.200   1.224   2.780 -0.0221 -0.1373  0.1423
 5133TIP3    H115405   1.207   1.287   2.852  0.4180 -0.2507  0.1993
 5133TIP3    H215406   1.125   1.255   2.729  0.7758  0.9995 -0.3870
 5134TIP3   OH215407   4.664   5.560   0.319  0.1695  0.5477  0.1634
 5134TIP3    H115408   4.625   5.529   0.237  1.3975 -0.0775 -0.1978
 5134TIP3    H215409   4.736   5.616   0.291  0.5205  0.4260  0.8229
 5135TIP3   OH215410   1.708   4.347   0.314  0.2841 -0.5966  0.5829
 5135TIP3    H115411   1.745   4.403   0.382  1.4263 -0.1503 -0.3627
 5135TIP3    H215412   1.633   4.305   0.355 -0.8380  1.8823  1.2430
 5136TIP3   OH215413   3.542   1.918   1.815  0.5246 -0.0892 -0.0272
 5136TIP3    H115414   3.540   2.009   1.843 -0.7346  0.2711 -1.1683
 5136TIP3    H215415   3.610   1.915   1.748  2.3989 -0.5996  1.8119
 5137TIP3   OH215416   0.163   3.186   2.733 -0.1585  0.2649 -0.2919
 5137TIP3    H115417   0.229   3.173   2.664 -0.0287  0.9802 -0.3113
 5137TIP3    H215418   0.117   3.266   2.706  1.0054  1.5393  1.3179
 5138TIP3   OH215419   2.109   1.943   5.176 -0.0461  0.1795  0.0977
 5138TIP3    H115420   2.196   1.976   5.151 -0.3311  0.7756 -0.1224
 5138TIP3    H215421   2.048   2.011   5.147 -0.4678  0.5110  1.6216
 5139TIP3   OH215422   0.936   1.726   4.666 -0.4271  0.5045 -0.4530
 5139TIP3    H115423   0.981   1.675   4.733 -0.0248 -1.5845 -2.2087
 5139TIP3    H215424   1.004   1.748   4.603 -1.1303  0.8025 -1.1255
 5140TIP3   OH215425   6.133   1.316   0.472  0.0302  0.1198  0.1607
 5140TIP3    H115426   6.062   1.254   0.459 -0.1823  0.4608 -0.3235
 5140TIP3    H215427   6.152   1.311   0.566 -2.1640  1.6823  0.7641
 5141TIP3   OH215428   1.609   0.694   4.694  0.7706  0.0979 -0.0359
 5141TIP3    H115429   1.537   0.716   4.753  0.8933  0.0403  0.1372
 5141TIP3    H215430   1.569   0.637   4.628  0.8401 -0.6791  0.5745
 5142TIP3   OH215431   1.336   4.303   0.705 -0.0984 -0.2294  0.9649
 5142TIP3    H115432   1.367   4.246   0.775 -0.5319  0.0446  1.3822
 5142TIP3    H215433   1.413   4.319   0.651 -0.3209 -2.7124 -0.2391
 5143TIP3   OH215434   3.794   0.547   1.727  0.0716  0.0794  0.5150
 5143TIP3    H115435   3.768   0.592   1.807  0.8696  1.1476  0.2010
 5143TIP3    H215436   3.866   0.600   1.692 -0.9250  0.2669 -1.4612
 5144TIP3   OH215437   0.925   4.671   1.713  0.3891  0.0896  0.2388
 5144TIP3    H115438   0.833   4.696   1.708  0.5626  0.7097  0.1321
 5144TIP3    H215439   0.929   4.586   1.668 -0.4006 -0.7185  1.6457
 5145TIP3   OH215440   4.540   4.810   0.576 -0.3246  0.4311  0.0764
 5145TIP3    H115441   4.590   4.855   0.508 -1.5221  1.0469 -0.4211
 5145TIP3    H215442   4.607   4.767   0.630  0.7953  1.9229 -0.0579
 5146TIP3   OH215443   2.025   4.758   1.800 -0.5231 -0.1709 -0.1097
 5146TIP3    H115444   2.021   4.704   1.879 -1.6050 -1.2102 -0.8273
 5146TIP3    H215445   2.118   4.771   1.784 -0.2402 -1.5090  0.3252
 5147TIP3   OH215446   5.243   5.412   4.392 -0.3513  0.5400 -0.0177
 5147TIP3    H115447   5.331   5.435   4.422 -1.0123  2.3021  0.6550
 5147TIP3    H215448   5.196   5.495   4.389 -2.3374 -0.5039  0.7581
 5148TIP3   OH215449   3.816   2.397   1.622  0.4454  0.1569 -0.2822
 5148TIP3    H115450   3.833   2.323   1.563  0.0723  0.3250 -0.6070
 5148TIP3    H215451   3.845   2.366   1.708 -1.1587 -0.9553 -0.1045
 5149TIP3   OH215452   0.323   3.378   2.090 -0.3616 -0.3286  0.1807
 5149TIP3    H115453   0.352   3.349   2.004  0.1312  1.8291 -0.4407
 5149TIP3    H215454   0.260   3.448   2.071 -2.2479 -1.5417  1.5781
 5150TIP3   OH215455   3.353   2.250   3.389  0.4059 -0.5630 -0.3815
 5150TIP3    H115456   3.290   2.229   3.320 -0.0997 -0.2286 -0.0233
 5150TIP3    H215457   3.309   2.225   3.471  1.9480 -3.4216 -0.2766
 5151TIP3   OH215458   3.951   0.001   0.218 -0.5103  0.4162 -0.4999
 5151TIP3    H115459   3.996  -0.057   0.280 -2.4119 -1.2248 -0.5394
 5151TIP3    H215460   3.989   0.087   0.233  0.6198 -0.3568  1.3951
 5152TIP3   OH215461   1.832   0.461   2.824  0.0784 -0.0096 -0.3005
 5152TIP3    H115462   1.911   0.448   2.772  0.5589  0.4868  0.2927
 5152TIP3    H215463   1.763   0.479   2.760  0.9791  2.2621 -0.7352
 5153TIP3   OH215464   1.630   1.653   0.374  0.8592  0.2428 -0.0239
 5153TIP3    H115465   1.621   1.715   0.301  0.9314 -0.2899 -0.4922
 5153TIP3    H215466   1.637   1.709   0.452  0.5056  0.8141 -0.3922
 5154TIP3   OH215467   4.671   1.662   2.562  0.2228 -0.1126  0.1359
 5154TIP3    H115468   4.624   1.712   2.629  1.2322 -0.5234  1.1960
 5154TIP3    H215469   4.712   1.729   2.507 -1.6975  0.2533 -0.9233
 5155TIP3   OH215470   0.943   5.076   4.233  0.6059 -0.1291  0.2151
 5155TIP3    H115471   0.992   5.138   4.178  2.7775 -1.9642 -0.0656
 5155TIP3    H215472   1.008   5.044   4.296 -0.7083 -1.4098  0.9849
 5156TIP3   OH215473   3.931   2.544   2.783 -0.0150 -0.5987 -0.2111
 5156TIP3    H115474   3.848   2.574   2.747 -0.5073 -0.5196  0.9590
 5156TIP3    H215475   3.972   2.494   2.712  0.2915  1.7889 -1.8251
 5157TIP3   OH215476   0.284   2.023   3.588 -0.0949 -0.1664  0.3743
 5157TIP3    H115477   0.231   2.093   3.550  0.1148 -0.3551 -0.2867
 5157TIP3    H215478   0.250   2.012   3.676 -1.2066 -0.3368 -0.0648
 5158TIP3   OH215479   4.518   5.880   5.129 -0.2760 -0.1111 -0.5422
 5158TIP3    H115480   4.459   5.807   5.145  0.6323 -0.9088 -0.7711
 5158TIP3    H215481   4.574   5.882   5.207 -2.0462  2.1168  0.8048
 5159TIP3   OH215482   0.942   3.876   1.665  0.1053  0.7004 -0.3401
 5159TIP3    H115483   1.008   3.807   1.657  0.1511  0.6991  0.0145
 5159TIP3    H215484   0.961   3.917   1.749 -0.0662  0.9950 -0.4439
 5160TIP3   OH215485   5.253   0.730   3.243 -0.7689 -0.5226 -0.2813
 5160TIP3    H115486   5.187   0.669   3.275 -0.8680  0.3152  1.1878
 5160TIP3    H215487   5.336   0.687   3.259 -0.4935  1.2600  4.8267
 5161TIP3   OH215488   2.482   1.857   1.414 -0.1990 -0.2973 -0.7092
 5161TIP3    H115489   2.454   1.826   1.499  0.7615  1.1212  0.1662
 5161TIP3    H215490   2.471   1.952   1.417  1.8062  0.0225 -1.3497
 5162TIP3   OH215491   4.684   2.812   2.818  0.4181 -0.2875  0.1349
 5162TIP3    H115492   4.593   2.842   2.827 -0.1907 -2.1195  0.4695
 5162TIP3    H215493   4.736   2.888   2.845 -1.0641 -0.0543  2.7419
 5163TIP3   OH215494   5.485   4.342   1.190  0.2713 -0.1561 -0.0930
 5163TIP3    H115495   5.523   4.362   1.104  0.3507  0.7559  0.1414
 5163TIP3    H215496   5.558   4.352   1.251 -0.4052  2.1795  0.4346
 5164TIP3   OH215497   6.291   3.087   4.046  0.4963  0.4768  0.6047
 5164TIP3    H115498   6.363   3.025   4.057  0.3550  0.3783  0.9985
 5164TIP3    H215499   6.239   3.078   4.126 -0.9175 -0.6959 -0.3898
 5165TIP3   OH215500   1.015   0.363   0.608  0.0442  0.6330  0.3090
 5165TIP3    H115501   1.003   0.457   0.622  1.2430  1.0289 -1.0798
 5165TIP3    H215502   0.949   0.340   0.543 -1.0495  0.2351  1.5320
 5166TIP3   OH215503   1.427   3.849   0.070  0.0387 -0.5129  0.1543
 5166TIP3    H115504   1.466   3.878  -0.012 -1.3046  0.3695 -0.2017
 5166TIP3    H215505   1.380   3.769   0.047  2.0061 -1.9053  0.7016
 5167TIP3   OH215506   3.816   1.571   1.814 -0.3930 -0.9090  0.1472
 5167TIP3    H115507   3.773   1.496   1.855 -3.4509  0.7211  0.2493
 5167TIP3    H215508   3.832   1.632   1.887  0.6642 -0.8179 -0.1455
 5168TIP3   OH215509   0.554   2.310   3.944 -0.3707  0.7359 -0.1287
 5168TIP3    H115510   0.608   2.388   3.948  1.7303 -0.5558 -1.3751
 5168TIP3    H215511   0.592   2.251   4.009 -0.7371  0.0493 -0.5169
 5169TIP3   OH215512   6.181   3.138   0.278  0.3708 -0.1474 -0.0427
 5169TIP3    H115513   6.205   3.228   0.297 -0.0527  0.1831 -1.0258
 5169TIP3    H215514   6.119   3.114   0.347  1.0619  0.0456  0.6638
 5170TIP3   OH215515   4.640   4.800   4.325 -0.0997  0.0577 -0.0784
 5170TIP3    H115516   4.622   4.894   4.325  0.1988  0.3163 -4.4153
 5170TIP3    H215517   4.556   4.760   4.307  0.3043 -0.1980 -1.4918
 5171TIP3   OH215518   6.223   4.636   4.279 -0.4788 -0.2605  0.4294
 5171TIP3    H115519   6.182   4.624   4.193 -0.5673  0.2746  0.3933
 5171TIP3    H215520   6.203   4.555   4.326 -0.5091 -0.5207 -0.0209
 5172TIP3   OH215521   4.450   5.278   2.244  0.5736 -0.3309  0.2466
 5172TIP3    H115522   4.461   5.183   2.243 -0.9128 -0.5372 -1.4503
 5172TIP3    H215523   4.356   5.292   2.240  0.7523  1.2316  0.6027
 5173TIP3   OH215524   4.471   3.917   4.512  0.3210 -0.3364  0.0910
 5173TIP3    H115525   4.465   3.880   4.424 -0.7129  1.0662 -0.4665
 5173TIP3    H215526   4.380   3.922   4.542  0.5496  0.4474  0.6892
 5174TIP3   OH215527   3.710   2.831   4.370 -0.1927  0.0548 -0.3029
 5174TIP3    H115528   3.659   2.863   4.444  0.8513  1.5145 -0.1664
 5174TIP3    H215529   3.646   2.813   4.302 -0.9601  1.1284  0.1100
 5175TIP3   OH215530   1.863   0.177   3.518 -0.5890 -0.3258 -0.3532
 5175TIP3    H115531   1.950   0.145   3.543 -0.1472  0.9233 -0.2090
 5175TIP3    H215532   1.856   0.158   3.425 -1.2436 -2.7790  0.1094
 5176TIP3   OH215533   5.698   0.966   1.802  0.1527  0.0130  0.0292
 5176TIP3    H115534   5.773   0.934   1.853  0.8031  0.8312 -0.3858
 5176TIP3    H215535   5.647   1.017   1.864  1.2030  1.4219 -0.2086
 5177TIP3   OH215536   1.940   3.264   3.807  0.2863  0.1648 -0.3948
 5177TIP3    H115537   2.035   3.268   3.815  0.5615 -1.6035 -2.0610
 5177TIP3    H215538   1.913   3.200   3.874  0.1481  1.1152  0.4971
 5178TIP3   OH215539   4.235   1.093   2.007 -0.2036 -0.1092 -0.0376
 5178TIP3    H115540   4.266   1.072   1.919 -1.3166 -0.5326 -0.3436
 5178TIP3    H215541   4.208   1.009   2.043 -0.3930  0.1601  0.4522
 5179TIP3   OH215542   5.631   3.165   1.531 -0.4250 -0.3698 -0.1307
 5179TIP3    H115543   5.604   3.083   1.572  0.1735 -0.9101 -0.7993
 5179TIP3    H215544   5.719   3.148   1.498  0.7573  1.3096  1.8872
 5180TIP3   OH215545   2.783   5.127   4.550  0.3963  0.8085 -0.3196
 5180TIP3    H115546   2.861   5.073   4.557 -0.1870 -0.0174 -0.1276
 5180TIP3    H215547   2.806   5.208   4.595  1.2723  0.7327 -0.6036
 5181TIP3   OH215548   4.102   1.587   3.286  0.1108 -0.0452 -0.3690
 5181TIP3    H115549   4.119   1.677   3.312  0.4379 -0.3953  0.6918
 5181TIP3    H215550   4.126   1.535   3.363  0.1117 -1.0521 -1.0304
 5182TIP3   OH215551   3.752   4.565   5.157  0.2282  0.8292  0.0021
 5182TIP3    H115552   3.810   4.489   5.152  0.3271  0.9828 -1.4071
 5182TIP3    H215553   3.800   4.636   5.114 -0.2954  1.4185  0.3681
 5183TIP3   OH215554   4.110   5.181   3.161 -0.1432 -0.0561  0.0952
 5183TIP3    H115555   4.103   5.179   3.066  0.1398  1.6985  0.0047
 5183TIP3    H215556   4.157   5.100   3.183  1.2916  0.2992 -1.4161
 5184TIP3   OH215557   5.406   4.279   2.135  0.5879  0.1468 -0.2528
 5184TIP3    H115558   5.472   4.307   2.199  0.9283 -0.8001 -0.1708
 5184TIP3    H215559   5.394   4.185   2.152  1.9383 -0.5540 -2.6391
 5185TIP3   OH215560   3.374   5.192   2.211  0.0335 -0.2428  0.4556
 5185TIP3    H115561   3.292   5.240   2.202  0.0611 -0.3664 -0.5808
 5185TIP3    H215562   3.349   5.104   2.239 -0.1816 -0.2463  0.2526
 5186TIP3   OH215563   4.790   0.216   2.637  0.1377  0.3463  0.0028
 5186TIP3    H115564   4.868   0.209   2.693 -0.8136  2.4089  1.7134
 5186TIP3    H215565   4.721   0.174   2.687 -0.6731  1.9792  0.3010
 5187TIP3   OH215566   4.298   2.101   4.497 -0.3424  0.1428 -0.0510
 5187TIP3    H115567   4.206   2.079   4.482 -0.5509 -0.2744  1.6631
 5187TIP3    H215568   4.302   2.130   4.588  1.1350  0.6970 -0.2593
 5188TIP3   OH215569   2.346   5.298   0.420 -0.1203  0.4082 -0.0925
 5188TIP3    H115570   2.268   5.332   0.376  0.6806  0.2976 -1.6929
 5188TIP3    H215571   2.416   5.357   0.393  1.0492 -1.6314 -1.8349
 5189TIP3   OH215572   1.211   1.486   0.392  0.2441 -0.3636  0.5064
 5189TIP3    H115573   1.184   1.454   0.478 -1.3105 -1.6995 -0.4237
 5189TIP3    H215574   1.215   1.407   0.338  0.0381  0.5969 -0.9562
 5190TIP3   OH215575   1.206   5.968   2.502 -0.3814  0.3682 -0.3380
 5190TIP3    H115576   1.284   6.018   2.527  0.1071 -0.3734 -0.3438
 5190TIP3    H215577   1.239   5.881   2.480 -1.0615  0.3649 -1.4616
 5191TIP3   OH215578   5.994   2.938   1.531  0.0862  0.3599 -0.4229
 5191TIP3    H115579   6.083   2.958   1.557 -0.2382 -0.0655  1.1530
 5191TIP3    H215580   5.957   3.021   1.502  0.4427  0.9238  0.6918
 5192TIP3   OH215581   5.777   3.939   4.922  0.1241 -0.1359  0.5838
 5192TIP3    H115582   5.756   3.966   4.833  0.2901 -2.2368 -0.1466
 5192TIP3    H215583   5.715   3.868   4.941 -0.2952  0.6549  2.3792
 5193TIP3   OH215584   0.198   0.691   3.351  0.1486  0.6063  0.2524
 5193TIP3    H115585   0.178   0.748   3.276  1.0619  1.8194  0.8882
 5193TIP3    H215586   0.199   0.751   3.426  3.8240  0.3103  0.6217
 5194TIP3   OH215587   0.478   1.210   1.056  0.2565  0.0297 -0.5102
 5194TIP3    H115588   0.541   1.211   0.985  0.3835  2.3869 -0.4475
 5194TIP3    H215589   0.400   1.169   1.019  0.9369 -0.4968 -1.3963
 5195TIP3   OH215590   6.162   0.232   1.566 -0.4020 -0.3730  0.3939
 5195TIP3    H115591   6.144   0.147   1.526  2.0718  0.4297 -2.8732
 5195TIP3    H215592   6.192   0.211   1.655  0.8829 -3.0089 -0.5688
 5196TIP3   OH215593   1.398   4.289   0.320  0.3907 -0.9260 -0.0515
 5196TIP3    H115594   1.406   4.383   0.338 -1.6740 -0.4521 -1.2518
 5196TIP3    H215595   1.376   4.250   0.405  0.3088 -0.1969  0.2715
 5197TIP3   OH215596   2.968   4.194   0.212 -0.0248  0.2571  0.0473
 5197TIP3    H115597   2.995   4.266   0.155 -0.8806  1.1452  0.7344
 5197TIP3    H215598   2.980   4.227   0.300  0.2684 -0.7213  0.3914
 5198TIP3   OH215599   2.837   5.634   1.885  0.3411  0.2546 -0.0249
 5198TIP3    H115600   2.779   5.666   1.954  1.0110 -0.0554  0.7009
 5198TIP3    H215601   2.921   5.678   1.902  0.2420  0.9785 -1.2745
 5199TIP3   OH215602   1.625   3.839   3.284 -0.0763  0.0564 -0.3296
 5199TIP3    H115603   1.610   3.830   3.378 -0.1469 -0.2690 -0.3700
 5199TIP3    H215604   1.539   3.857   3.247 -0.3853 -1.6589 -0.5432
 5200TIP3   OH215605   6.185   5.381   1.766 -0.4572  0.3134  0.1196
 5200TIP3    H115606   6.219   5.293   1.783 -0.4312  0.2735 -0.1450
 5200TIP3    H215607   6.111   5.368   1.708 -0.7850  0.4232  0.5094
 5201TIP3   OH215608   5.446   1.255   4.528 -0.9297 -0.5367 -0.3703
 5201TIP3    H115609   5.512   1.189   4.505 -0.2145 -0.7216  1.9259
 5201TIP3    H215610   5.389   1.209   4.590 -0.2099  1.0109  1.5608
 5202TIP3   OH215611   3.738   4.625   3.876  0.0580  0.1203 -0.3403
 5202TIP3    H115612   3.766   4.539   3.908  1.5203  0.9999  0.8354
 5202TIP3    H215613   3.787   4.637   3.795 -0.0868 -0.0911 -0.4636
 5203TIP3   OH215614   4.729   4.023   4.211  0.6579  0.5955  0.5039
 5203TIP3    H115615   4.712   3.962   4.284  0.5884  1.9303  1.6433
 5203TIP3    H215616   4.645   4.067   4.198  0.4069 -0.2476 -1.0354
 5204TIP3   OH215617   5.279   1.628   1.126 -0.2531 -0.1018  0.6835
 5204TIP3    H115618   5.366   1.658   1.100  0.1733 -2.0340 -0.2335
 5204TIP3    H215619   5.291   1.590   1.213  0.2634 -2.1525 -0.2447
 5205TIP3   OH215620   4.022   2.143   4.472 -0.1721 -0.1992  0.1638
 5205TIP3    H115621   4.003   2.072   4.534 -1.2276 -0.8269 -0.8257
 5205TIP3    H215622   4.008   2.223   4.522 -1.8692 -0.6868  0.5382
 5206TIP3   OH215623   4.995   1.421   5.143 -0.1997  0.3127 -0.1320
 5206TIP3    H115624   4.906   1.386   5.148  0.1514 -0.5874 -0.0884
 5206TIP3    H215625   4.995   1.473   5.062 -0.4450 -0.6293 -0.7636
 5207TIP3   OH215626   3.909   0.570   0.709 -0.3536  0.6197 -0.1093
 5207TIP3    H115627   3.827   0.572   0.660 -1.5946  0.6793  1.8843
 5207TIP3    H215628   3.925   0.477   0.725  0.0873  0.5959 -0.6535
 5208TIP3   OH215629   5.131   4.855   3.421  0.0712  0.5417 -0.1387
 5208TIP3    H115630   5.079   4.840   3.500 -1.7822 -1.3813 -1.6163
 5208TIP3    H215631   5.215   4.814   3.440 -0.5761 -0.4873  0.6106
 5209TIP3   OH215632   1.367   4.007   1.756  0.1477  0.0363  0.1861
 5209TIP3    H115633   1.352   4.005   1.851 -0.7364  2.0994  0.1428
 5209TIP3    H215634   1.401   4.095   1.739 -0.9324  0.1633 -1.5643
 5210TIP3   OH215635   4.429   2.465   3.027  0.4488  0.0919  0.5911
 5210TIP3    H115636   4.434   2.475   2.932 -1.3825 -0.0424  0.4398
 5210TIP3    H215637   4.456   2.550   3.062 -0.8313  0.8424 -0.1528
 5211TIP3   OH215638   3.771   4.882   4.749 -0.1922 -0.4750  0.1991
 5211TIP3    H115639   3.779   4.891   4.654  0.8435 -1.7478  0.1234
 5211TIP3    H215640   3.696   4.824   4.761  0.1040 -0.8852  0.1062
 5212TIP3   OH215641   4.615   2.964   0.734 -0.3654  0.5977  0.4225
 5212TIP3    H115642   4.594   2.878   0.697  2.1424  0.8992 -2.0364
 5212TIP3    H215643   4.660   2.945   0.816  1.4221 -0.5932 -0.7566
 5213TIP3   OH215644   1.378   3.745   2.097  0.6599 -0.5027 -0.2817
 5213TIP3    H115645   1.394   3.837   2.072  1.8691 -1.2471 -2.6016
 5213TIP3    H215646   1.409   3.695   2.022  1.0275 -2.8998  1.3764
 5214TIP3   OH215647   2.577   5.810   4.550  0.0912 -0.6074  0.1084
 5214TIP3    H115648   2.577   5.870   4.476  1.4803 -1.6965 -0.8370
 5214TIP3    H215649   2.599   5.725   4.512 -0.1046 -1.3805  1.6400
 5215TIP3   OH215650   2.772   3.968   1.251  0.5277 -0.1399  0.1178
 5215TIP3    H115651   2.687   3.977   1.294  1.1847  1.9956  1.1273
 5215TIP3    H215652   2.774   3.877   1.221 -2.1871 -0.1980 -0.1859
 5216TIP3   OH215653   1.900   5.415   2.897  0.5583  0.4103 -0.3845
 5216TIP3    H115654   1.854   5.380   2.822  0.8931  1.3327 -1.0390
 5216TIP3    H215655   1.850   5.492   2.923  1.5273  1.2372 -0.9039
 5217TIP3   OH215656   0.766   4.738   4.716 -0.4892 -0.1355  0.3025
 5217TIP3    H115657   0.737   4.731   4.807 -0.4473 -0.3091  0.3044
 5217TIP3    H215658   0.843   4.681   4.712 -1.0537 -0.9053 -0.0714
 5218TIP3   OH215659   0.904   0.318   2.801 -0.1991 -0.1423 -0.5733
 5218TIP3    H115660   0.986   0.311   2.851 -0.7735 -0.7733  0.3268
 5218TIP3    H215661   0.911   0.401   2.755  0.4516  0.3892  0.4311
 5219TIP3   OH215662   0.123   4.722   4.384 -0.6274  0.2873 -0.4802
 5219TIP3    H115663   0.111   4.743   4.476  1.3956 -1.1766  0.1704
 5219TIP3    H215664   0.036   4.694   4.354 -1.3902  1.1684  0.8389
 5220TIP3   OH215665   4.841   2.920   5.071  0.1570  0.3313 -0.4604
 5220TIP3    H115666   4.907   2.928   5.139 -0.2359 -1.6445  0.2103
 5220TIP3    H215667   4.882   2.867   5.003 -1.4013 -3.0998  1.0452
 5221TIP3   OH215668   0.039   0.048   0.131  0.2361 -0.3798  0.1712
 5221TIP3    H115669  -0.042   0.003   0.108  1.2146 -2.2502  0.1735
 5221TIP3    H215670   0.079   0.070   0.047  1.1323 -2.1839  0.0822
 5222TIP3   OH215671   2.691   5.814   3.874 -0.0895 -0.0266 -0.5407
 5222TIP3    H115672   2.783   5.834   3.855 -0.5732  0.7706 -2.2794
 5222TIP3    H215673   2.643   5.856   3.803 -1.7184 -1.4392 -0.3320
 5223TIP3   OH215674   0.802   3.177   2.460  0.0149  0.2218  0.1485
 5223TIP3    H115675   0.714   3.143   2.474  0.3152 -0.0624  1.4180
 5223TIP3    H215676   0.796   3.227   2.378 -0.3308 -3.2660 -2.1478
 5224TIP3   OH215677   4.565   2.308   0.563 -0.5917  0.3709 -0.3323
 5224TIP3    H115678   4.527   2.302   0.476 -1.7595  1.1852  0.0890
 5224TIP3    H215679   4.639   2.367   0.553 -1.4528  1.4530 -0.5798
 5225TIP3   OH215680   2.623   3.868   0.131  0.1721  0.0971 -0.2035
 5225TIP3    H115681   2.530   3.861   0.150 -0.4758  1.0992 -2.6016
 5225TIP3    H215682   2.640   3.801   0.065  1.5811 -1.1760  1.3591
 5226TIP3   OH215683   0.073   1.960   4.163 -0.0143 -0.7329  0.4323
 5226TIP3    H115684   0.027   2.012   4.097 -0.4872 -0.1327  1.2123
 5226TIP3    H215685   0.100   1.881   4.117  0.1440 -0.0844 -0.6149
 5227TIP3   OH215686   3.350   1.569   1.561 -0.4573  0.2650 -0.0782
 5227TIP3    H115687   3.445   1.563   1.572 -0.5535  0.2800  0.8872
 5227TIP3    H215688   3.338   1.599   1.471  0.4317 -0.5273 -0.4861
 5228TIP3   OH215689   6.273   5.714   4.945  0.8224 -0.3782  0.5956
 5228TIP3    H115690   6.177   5.705   4.941  0.9441 -1.2492 -1.0493
 5228TIP3    H215691   6.293   5.706   5.039 -0.9322  2.8704  1.4470
 5229TIP3   OH215692   4.579   4.349   1.436  0.1794 -0.1026 -0.3585
 5229TIP3    H115693   4.660   4.384   1.399  1.2770 -1.3603  0.7561
 5229TIP3    H215694   4.546   4.419   1.492  0.7410  0.2515 -0.4638
 5230TIP3   OH215695   3.575   4.872   4.233 -0.8524  1.1163 -0.8290
 5230TIP3    H115696   3.656   4.914   4.205  1.8086 -3.0796 -0.2801
 5230TIP3    H215697   3.552   4.813   4.161 -1.9554  0.3685  0.0923
 5231TIP3   OH215698   6.203   1.035   1.409  0.5858  0.3256  0.3299
 5231TIP3    H115699   6.254   0.985   1.346 -0.6359 -1.0131  0.3526
 5231TIP3    H215700   6.233   1.005   1.495 -1.2308 -1.6407  0.3576
 5232TIP3   OH215701   1.148   2.957   4.766  0.4280  0.4842 -0.0629
 5232TIP3    H115702   1.138   2.901   4.689  0.9654 -0.9689  0.8830
 5232TIP3    H215703   1.063   3.000   4.775  0.4631  0.9346 -1.6466
 5233TIP3   OH215704   3.035   0.428   2.551  0.0739 -0.0574 -0.2526
 5233TIP3    H115705   2.942   0.442   2.533  0.1220  0.3740 -0.1673
 5233TIP3    H215706   3.047   0.461   2.640  0.3067 -0.1168 -0.2633
 5234TIP3   OH215707   0.397   1.663   3.864  0.0374 -0.1437 -0.4865
 5234TIP3    H115708   0.449   1.730   3.820 -0.3052 -0.6707 -1.7459
 5234TIP3    H215709   0.459   1.617   3.920  0.7277 -0.0961 -1.1869
 5235TIP3   OH215710   1.536   2.618   2.418 -0.1196 -0.0961 -0.2087
 5235TIP3    H115711   1.629   2.611   2.439  0.0375  0.4917 -0.6715
 5235TIP3    H215712   1.491   2.610   2.502  0.3837  0.1495  0.0866
 5236TIP3   OH215713   2.777   1.788   4.600 -0.1211  0.3734 -0.2470
 5236TIP3    H115714   2.868   1.812   4.619  0.8865 -0.1009 -3.7177
 5236TIP3    H215715   2.784   1.704   4.554 -2.5377 -0.6726  1.1143
 5237TIP3   OH215716   3.008   5.694   3.322 -0.5694  0.0272  0.0811
 5237TIP3    H115717   3.099   5.714   3.340 -0.1369  1.4545 -2.9844
 5237TIP3    H215718   2.962   5.778   3.332 -0.7816  0.2299 -2.0872
 5238TIP3   OH215719   5.202   5.833   3.399  1.3606  0.1147 -0.3334
 5238TIP3    H115720   5.220   5.844   3.493  0.1503 -2.2613  0.2499
 5238TIP3    H215721   5.234   5.745   3.379 -2.0880 -1.0980 -1.1002
 5239TIP3   OH215722   5.831   3.436   3.779  0.1587 -0.3353 -0.2455
 5239TIP3    H115723   5.793   3.498   3.716  2.0119 -0.0757 -1.1828
 5239TIP3    H215724   5.895   3.488   3.828 -0.1986 -0.8950  0.8469
 5240TIP3   OH215725   3.407   2.553   1.811 -0.9719 -0.5366 -0.8584
 5240TIP3    H115726   3.321   2.571   1.774 -1.7122 -1.2810  0.4369
 5240TIP3    H215727   3.443   2.484   1.757 -0.5972  0.6889 -2.2317
 5241TIP3   OH215728   4.731   5.549   0.576 -0.6443  0.0647 -0.5217
 5241TIP3    H115729   4.723   5.632   0.622 -1.0469 -0.2892  0.0516
 5241TIP3    H215730   4.736   5.573   0.483  0.1357  0.7774 -0.3027
 5242TIP3   OH215731   5.841   1.374   4.415  0.2288 -0.0435  0.2035
 5242TIP3    H115732   5.846   1.279   4.405 -0.1582  0.1192 -1.8972
 5242TIP3    H215733   5.773   1.401   4.354  1.4785  1.7528 -0.4713
 5243TIP3   OH215734   4.833   5.713   2.768  0.1495 -0.1527  0.3261
 5243TIP3    H115735   4.779   5.644   2.730  0.7757 -1.8619  2.3495
 5243TIP3    H215736   4.891   5.740   2.697 -1.6703 -0.0005 -1.1805
 5244TIP3   OH215737   2.131   3.792   1.084 -0.2423  0.1721 -0.0518
 5244TIP3    H115738   2.141   3.810   0.991  1.1102 -0.1210  0.0247
 5244TIP3    H215739   2.220   3.785   1.118 -0.6916  1.2732  1.4684
 5245TIP3   OH215740   6.267   4.541   1.560 -0.2978 -0.3367  0.6031
 5245TIP3    H115741   6.229   4.488   1.630 -2.5404  0.3101 -0.0455
 5245TIP3    H215742   6.253   4.631   1.588 -0.9179 -0.0753 -0.4993
 5246TIP3   OH215743   3.872   3.551   0.954  0.2525 -0.5939  0.0957
 5246TIP3    H115744   3.921   3.480   0.994 -1.7820 -1.6682  0.8523
 5246TIP3    H215745   3.938   3.616   0.930  1.8254 -1.0474  2.8441
 5247TIP3   OH215746   0.790   0.252   3.526  0.0806  0.3327  0.5824
 5247TIP3    H115747   0.843   0.277   3.451 -0.3810  1.0747  0.4856
 5247TIP3    H215748   0.852   0.215   3.588  0.3556 -1.0237 -0.4641
 5248TIP3   OH215749   5.196   0.046   3.417  0.1031 -0.4371 -0.8371
 5248TIP3    H115750   5.192   0.142   3.407 -0.3474 -0.4425 -0.7141
 5248TIP3    H215751   5.114   0.015   3.378 -0.2239 -0.6931  0.0401
 5249TIP3   OH215752   3.410   0.987   0.228 -0.3545 -0.4888  0.1808
 5249TIP3    H115753   3.467   0.919   0.193 -0.8061 -1.3628  1.0987
 5249TIP3    H215754   3.469   1.060   0.248  0.2523 -0.9077 -0.0608
 5250TIP3   OH215755   0.670   3.647   1.460  0.0770  0.4952 -0.7584
 5250TIP3    H115756   0.705   3.684   1.378  0.2168  0.4778 -0.7062
 5250TIP3    H215757   0.575   3.656   1.451  0.1113  0.9476 -0.7107
 5251TIP3   OH215758   4.015   5.539   1.502  0.1329 -0.5533  0.2358
 5251TIP3    H115759   3.922   5.529   1.522  0.1401  0.5946  0.9319
 5251TIP3    H215760   4.017   5.599   1.427  0.3203 -0.4926  0.2899
 5252TIP3   OH215761   2.787   3.705   1.185  0.0130  0.0376  0.0344
 5252TIP3    H115762   2.722   3.694   1.253 -1.1136  0.0783 -0.9955
 5252TIP3    H215763   2.855   3.641   1.205 -1.1736 -1.2154  0.1886
 5253TIP3   OH215764   1.804   2.381   0.060 -0.0397  0.1358 -0.4508
 5253TIP3    H115765   1.788   2.473   0.040  1.0267  0.6272  0.7951
 5253TIP3    H215766   1.740   2.359   0.128  0.8790  0.5034  0.5565
 5254TIP3   OH215767   5.056   2.891   1.848 -0.0617  0.2940 -0.3359
 5254TIP3    H115768   5.100   2.954   1.904  0.1787 -0.3141  0.1811
 5254TIP3    H215769   4.985   2.940   1.807  0.8958  1.1966 -0.9291
 5255TIP3   OH215770   2.716   0.854   2.299  0.8977  0.4486  0.5352
 5255TIP3    H115771   2.700   0.772   2.251  0.8055  0.7147  0.1061
 5255TIP3    H215772   2.763   0.827   2.378  3.1061  0.2304 -0.7944
 5256TIP3   OH215773   1.207   2.554   2.381  0.0007  0.2378 -0.3935
 5256TIP3    H115774   1.233   2.501   2.306  0.6629 -0.6822  0.4622
 5256TIP3    H215775   1.146   2.499   2.430 -0.7641  0.9988 -0.4733
 5257TIP3   OH215776   5.287   0.025   2.456 -0.0448  0.0596 -0.5748
 5257TIP3    H115777   5.215   0.010   2.396  1.5303  1.0726 -2.8326
 5257TIP3    H215778   5.262   0.102   2.506 -0.1418  0.9793 -2.0059
 5258TIP3   OH215779   1.614   0.733   3.930 -0.1627 -0.0881  0.8735
 5258TIP3    H115780   1.561   0.663   3.892  2.1140 -0.9606 -0.9438
 5258TIP3    H215781   1.690   0.687   3.968  0.1400  1.2257  1.9483
 5259TIP3   OH215782   2.777   2.898   0.989  0.2044  0.0918  0.3114
 5259TIP3    H115783   2.825   2.975   0.957  0.1158 -0.0159 -0.0953
 5259TIP3    H215784   2.814   2.825   0.938 -0.9200  0.1107 -0.5737
 5260TIP3   OH215785   0.566   1.318   1.352 -0.3673  0.3739  0.2070
 5260TIP3    H115786   0.478   1.345   1.326 -0.9925  0.0079  1.8553
 5260TIP3    H215787   0.608   1.398   1.383 -0.3495  0.4237  0.0566
 5261TIP3   OH215788   1.032   2.376   2.516 -0.8167  0.1188 -0.1457
 5261TIP3    H115789   1.081   2.314   2.570 -1.7244  0.2496  0.8683
 5261TIP3    H215790   0.966   2.322   2.472  0.4916 -0.1292 -1.8634
 5262TIP3   OH215791   4.134   2.387   0.485 -0.1411  0.5290 -0.2429
 5262TIP3    H115792   4.103   2.298   0.469 -0.8345  0.7525 -0.1752
 5262TIP3    H215793   4.058   2.432   0.521  0.0647  1.2845 -0.7452
 5263TIP3   OH215794   2.913   0.741   2.731  0.0624  0.4740 -0.2026
 5263TIP3    H115795   2.966   0.781   2.800 -0.2361  1.9504 -0.7905
 5263TIP3    H215796   2.902   0.811   2.666 -1.6309 -0.1387 -0.6318
 5264TIP3   OH215797   2.556   0.014   2.342 -0.1541 -0.1161  0.0445
 5264TIP3    H115798   2.486  -0.045   2.312 -0.9560  0.5688  0.5304
 5264TIP3    H215799   2.522   0.102   2.329  0.3830  0.2273  0.8274
 5265TIP3   OH215800   1.695   0.038   1.252 -0.2683 -0.1452 -0.2886
 5265TIP3    H115801   1.743  -0.042   1.232 -1.8920 -0.7521 -2.0744
 5265TIP3    H215802   1.763   0.103   1.271  1.0893 -1.8525  1.0083
 5266TIP3   OH215803   2.260   1.672   1.987 -0.3664 -0.0930  0.0114
 5266TIP3    H115804   2.331   1.696   1.928 -0.0748  0.1963  0.4753
 5266TIP3    H215805   2.200   1.746   1.984 -0.8986 -0.5358 -0.7434
 5267TIP3   OH215806   1.291   4.116   3.482  0.0969  0.0016  0.3341
 5267TIP3    H115807   1.325   4.114   3.571  0.4394 -0.6853  0.1976
 5267TIP3    H215808   1.197   4.102   3.492 -0.0460  1.0899  0.6578
 5268TIP3   OH215809   5.947   0.169   2.467 -0.0525 -0.1412  0.2948
 5268TIP3    H115810   5.961   0.121   2.386  1.5419 -1.2510  1.1550
 5268TIP3    H215811   5.901   0.249   2.441 -1.0577 -1.2414 -1.4393
 5269TIP3   OH215812   4.091   5.709   4.922  0.1498  0.1700 -0.1827
 5269TIP3    H115813   4.099   5.711   4.827  0.4782  1.7001 -0.1487
 5269TIP3    H215814   4.178   5.683   4.953 -0.3139 -1.7141 -0.2918
 5270TIP3   OH215815   4.105   0.562   0.192 -0.3546  0.2044 -0.2186
 5270TIP3    H115816   4.158   0.487   0.166 -1.1094 -0.1895 -0.6854
 5270TIP3    H215817   4.159   0.638   0.171  0.1192 -0.1896 -0.4541
 5271TIP3   OH215818   2.432   5.564   0.331 -0.0134  0.1889  0.1072
 5271TIP3    H115819   2.389   5.639   0.290  2.4414  0.6609 -1.7733
 5271TIP3    H215820   2.475   5.600   0.409  0.3367  0.5345 -0.2447
 5272TIP3   OH215821   0.009   5.588   1.725  0.1811 -0.8718 -0.2781
 5272TIP3    H115822   0.082   5.568   1.667 -0.6694 -1.5296 -1.1605
 5272TIP3    H215823  -0.034   5.504   1.740 -0.8427 -0.3943 -0.4080
 5273TIP3   OH215824   2.025   5.570   2.244  0.1875 -0.0678 -0.1413
 5273TIP3    H115825   2.113   5.593   2.272  0.4272 -1.2493  0.1293
 5273TIP3    H215826   2.026   5.581   2.149 -0.1982  2.5265  0.0655
 5274TIP3   OH215827   3.187   3.614   2.676  0.2117 -0.0813 -0.3550
 5274TIP3    H115828   3.165   3.686   2.616 -1.8317 -0.3871 -0.0598
 5274TIP3    H215829   3.212   3.542   2.619 -1.7276 -0.3735 -0.9314
 5275TIP3   OH215830   1.646   1.083   0.195  0.2242  0.3128  0.1092
 5275TIP3    H115831   1.689   1.017   0.141  0.6149 -0.2534  1.0857
 5275TIP3    H215832   1.683   1.166   0.166 -0.8398  0.2227 -1.6809
 5276TIP3   OH215833   0.106   5.776   2.448  0.4001  0.7528 -0.2432
 5276TIP3    H115834   0.115   5.844   2.381  0.0327 -0.3663 -1.4728
 5276TIP3    H215835   0.186   5.724   2.442  1.0997  1.5884  1.3263
 5277TIP3   OH215836   0.639   1.192   0.391 -0.3520  0.0982 -0.1667
 5277TIP3    H115837   0.637   1.232   0.478 -0.0818 -1.6185  0.6878
 5277TIP3    H215838   0.722   1.220   0.353 -0.5708  1.0397  0.0432
 5278TIP3   OH215839   2.630   3.599   2.041  0.1028  0.4949 -0.1621
 5278TIP3    H115840   2.608   3.590   2.134 -0.8229 -2.3708 -0.5709
 5278TIP3    H215841   2.583   3.677   2.012 -0.9839  0.4429  1.3850
 5279TIP3   OH215842   4.476   5.472   3.623  0.0170  0.1057  0.2518
 5279TIP3    H115843   4.418   5.434   3.556  0.4302 -0.5216  0.2424
 5279TIP3    H215844   4.541   5.404   3.639  1.6741  1.3600 -0.8405
 5280TIP3   OH215845   1.291   1.920   0.231  0.1405  0.0651  0.2775
 5280TIP3    H115846   1.312   1.838   0.187  1.0586 -0.1181  1.0318
 5280TIP3    H215847   1.267   1.894   0.320 -0.0234  0.5773  0.3898
 5281TIP3   OH215848   4.878   4.354   4.961 -0.1476 -0.1477  0.0562
 5281TIP3    H115849   4.809   4.352   4.895  1.0182  0.7233 -1.2343
 5281TIP3    H215850   4.938   4.284   4.937  0.9575  0.9893 -0.6027
 5282TIP3   OH215851   0.705   0.755   3.866  0.2353  0.7763 -0.4047
 5282TIP3    H115852   0.748   0.674   3.838 -1.2748  0.4245 -1.8846
 5282TIP3    H215853   0.733   0.767   3.957 -0.7653 -2.3004  0.4280
 5283TIP3   OH215854   0.135   0.136   2.831  0.7133 -0.5762  0.0034
 5283TIP3    H115855   0.168   0.195   2.763  0.6280  0.7422  1.0582
 5283TIP3    H215856   0.201   0.139   2.900 -0.1232 -0.3483  0.8140
 5284TIP3   OH215857   0.240   5.549   2.915  0.0224  0.1279 -0.2335
 5284TIP3    H115858   0.196   5.513   2.992 -0.1492  2.4756  0.8640
 5284TIP3    H215859   0.169   5.572   2.855  0.0986 -0.7744 -0.6850
 5285TIP3   OH215860   0.514   5.944   1.392  0.2243  0.4479 -0.2703
 5285TIP3    H115861   0.563   5.908   1.465  0.9193 -0.2002 -1.0266
 5285TIP3    H215862   0.458   5.873   1.362 -0.8255  1.0252  0.2627
 5286TIP3   OH215863   1.354   4.832   2.204 -0.5465  0.5306  0.5058
 5286TIP3    H115864   1.406   4.800   2.279  0.9567  0.0377 -0.6845
 5286TIP3    H215865   1.338   4.924   2.223 -0.4481  0.3371  1.5779
 5287TIP3   OH215866   5.498   0.244   3.561  0.2461  0.8739 -0.2441
 5287TIP3    H115867   5.549   0.324   3.576  3.2582 -1.0726  0.8622
 5287TIP3    H215868   5.526   0.213   3.475  0.0689  0.3630 -0.1216
 5288TIP3   OH215869   2.933   2.131   3.521  0.0271 -0.6694 -0.7759
 5288TIP3    H115870   2.933   2.152   3.614  1.8481  0.6799 -1.0319
 5288TIP3    H215871   2.918   2.037   3.517 -0.4464 -0.6813  0.8395
 5289TIP3   OH215872   1.202   3.151   0.344  0.1134 -0.2783 -0.3994
 5289TIP3    H115873   1.111   3.129   0.324 -0.3206  1.3090 -0.2870
 5289TIP3    H215874   1.243   3.167   0.259 -0.0202  0.1545 -0.3813
 5290TIP3   OH215875   3.067   2.174   0.841  0.0423  0.0906 -0.3772
 5290TIP3    H115876   3.138   2.109   0.844 -0.0935 -0.0819 -0.7287
 5290TIP3    H215877   3.102   2.250   0.887  0.7401  0.2725 -1.1761
 5291TIP3   OH215878   5.434   5.991   3.883 -0.0164  0.3529  0.0132
 5291TIP3    H115879   5.470   6.002   3.795  0.3641  0.3754  0.1674
 5291TIP3    H215880   5.479   5.913   3.916 -1.2329 -0.5340 -0.3512
 5292TIP3   OH215881   1.086   0.232   3.948 -0.0305 -0.0679 -0.4094
 5292TIP3    H115882   1.120   0.143   3.953  1.4313  0.4170 -1.1244
 5292TIP3    H215883   1.110   0.272   4.032  0.6992  0.0932 -0.6826
 5293TIP3   OH215884   2.323   5.575   0.772  0.3415 -0.3809 -0.4923
 5293TIP3    H115885   2.325   5.560   0.866  1.4087  1.4168 -0.1780
 5293TIP3    H215886   2.411   5.548   0.742  0.3510 -0.0023 -0.8054
 5294TIP3   OH215887   5.656   1.173   0.236 -0.1487 -0.2533 -0.1584
 5294TIP3    H115888   5.680   1.084   0.211 -1.7326 -0.7320 -0.0683
 5294TIP3    H215889   5.625   1.213   0.155 -0.0267  0.0249 -0.0705
 5295TIP3   OH215890   5.594   3.647   0.835  0.4088  0.0662 -0.2701
 5295TIP3    H115891   5.535   3.702   0.886  0.3914 -1.3600  1.3518
 5295TIP3    H215892   5.681   3.670   0.867  0.6745  1.1715 -1.6711
 5296TIP3   OH215893   1.792   4.379   2.248  0.5876 -0.0113 -0.2545
 5296TIP3    H115894   1.846   4.456   2.231 -0.3123  0.6707 -0.0991
 5296TIP3    H215895   1.810   4.320   2.174  1.6781  0.1135 -0.1005
 5297TIP3   OH215896   3.349   0.319   1.488 -0.3773  0.4326  0.2368
 5297TIP3    H115897   3.415   0.353   1.549  0.7829 -0.0487 -0.7128
 5297TIP3    H215898   3.383   0.234   1.460 -1.9706 -0.3639  0.5897
 5298TIP3   OH215899   1.767   0.150   0.683 -0.2777  0.2311  0.5060
 5298TIP3    H115900   1.811   0.137   0.767 -0.7641 -0.3353  0.6812
 5298TIP3    H215901   1.836   0.181   0.625  1.0190 -2.9607  0.1116
 5299TIP3   OH215902   5.952   1.928   2.385 -0.1255  0.4078  0.0533
 5299TIP3    H115903   5.968   1.843   2.344  1.4847  1.0122 -0.6843
 5299TIP3    H215904   5.869   1.918   2.430 -0.9687 -0.9346 -1.6763
 5300TIP3   OH215905   5.050   3.201   4.298 -0.2570 -0.0613 -0.1329
 5300TIP3    H115906   5.033   3.147   4.220 -2.3413 -0.3788  0.4653
 5300TIP3    H215907   5.126   3.254   4.275  0.0825 -1.2068 -1.8254
 5301TIP3   OH215908   1.561   4.148   2.920  0.1630  0.2503 -0.4383
 5301TIP3    H115909   1.647   4.115   2.947  0.8396  1.5267 -0.9610
 5301TIP3    H215910   1.555   4.125   2.827 -0.6772 -1.0653 -0.0810
 5302TIP3   OH215911   2.817   5.454   4.193 -0.0990  0.0094 -0.0618
 5302TIP3    H115912   2.884   5.428   4.256  0.3204 -0.8834 -0.8651
 5302TIP3    H215913   2.804   5.547   4.210  0.8326  0.0382  0.5818
 5303TIP3   OH215914   0.612   1.275   3.157 -0.0233 -0.7330 -0.1833
 5303TIP3    H115915   0.549   1.259   3.086 -0.3933  2.3328 -0.6633
 5303TIP3    H215916   0.587   1.213   3.225 -1.5381 -1.7513 -1.5732
 5304TIP3   OH215917   1.236   5.379   3.824  0.0050 -0.0599 -0.1118
 5304TIP3    H115918   1.145   5.367   3.853 -0.4822  1.5507 -0.8689
 5304TIP3    H215919   1.250   5.473   3.829  1.9882 -0.3557  0.9529
 5305TIP3   OH215920   3.605   3.973   4.658 -0.4234 -0.6542  0.6422
 5305TIP3    H115921   3.694   3.991   4.629 -0.0814 -1.2282  1.3076
 5305TIP3    H215922   3.551   4.040   4.614  0.4355  0.2387  0.9154
 5306TIP3   OH215923   4.698   5.560   0.046  0.0425  0.1255 -0.2869
 5306TIP3    H115924   4.694   5.467   0.025 -1.3187 -0.0567  0.6386
 5306TIP3    H215925   4.640   5.601  -0.019  1.0757  0.4288 -1.0523
 5307TIP3   OH215926   1.901   5.138   1.782 -0.2249  0.1520  0.0382
 5307TIP3    H115927   1.918   5.126   1.875  1.3933 -2.2167 -0.4612
 5307TIP3    H215928   1.930   5.227   1.763 -0.1806  0.5180  1.7002
 5308TIP3   OH215929   4.382   4.757   1.633 -0.0901  0.2143  0.3185
 5308TIP3    H115930   4.359   4.791   1.547 -0.8121  0.5684  0.6426
 5308TIP3    H215931   4.474   4.781   1.645  0.5187 -1.2897 -1.0348
 5309TIP3   OH215932   6.231   2.346   0.531  0.4582  0.3845  1.0559
 5309TIP3    H115933   6.181   2.422   0.501  0.9505  0.4483  0.3728
 5309TIP3    H215934   6.320   2.380   0.546  0.5383  0.0699  1.2982
 5310TIP3   OH215935   2.236   1.462   2.227  0.3815 -0.2682  0.3707
 5310TIP3    H115936   2.156   1.431   2.185  0.2341 -0.3472  0.7067
 5310TIP3    H215937   2.260   1.540   2.177  1.2937 -1.4438 -1.0818
 5311TIP3   OH215938   3.626   2.082   2.090 -0.1854 -0.0506  0.0317
 5311TIP3    H115939   3.720   2.066   2.079 -0.0908 -0.0405  0.7563
 5311TIP3    H215940   3.599   2.020   2.158 -0.7135 -0.0770 -0.1973
 5312TIP3   OH215941   3.321   4.976   0.705  0.0849  0.2132  0.5578
 5312TIP3    H115942   3.397   4.951   0.758 -0.3647  0.0213  1.1189
 5312TIP3    H215943   3.357   5.037   0.640  0.6148  0.6016  1.2020
 5313TIP3   OH215944   0.794   2.078   3.987 -0.3042 -0.0976 -0.1430
 5313TIP3    H115945   0.778   2.100   3.896 -0.1713 -1.5268 -0.5463
 5313TIP3    H215946   0.814   1.984   3.986 -0.4134 -0.1743  1.3676
 5314TIP3   OH215947   1.462   3.352   5.083  0.0389 -0.3434 -0.0217
 5314TIP3    H115948   1.376   3.394   5.080  0.3634  0.2756 -1.4295
 5314TIP3    H215949   1.495   3.359   4.993  1.6850 -0.3181  0.5576
 5315TIP3   OH215950   0.699   2.783   4.752 -0.1737  0.3908  0.3325
 5315TIP3    H115951   0.636   2.832   4.804 -0.5770  1.5166 -1.1543
 5315TIP3    H215952   0.744   2.727   4.816 -1.9844  0.2523  1.5725
 5316TIP3   OH215953   5.701   0.571   0.948 -0.5796 -0.3667  0.3280
 5316TIP3    H115954   5.750   0.526   1.017  1.8166  2.7147  0.8599
 5316TIP3    H215955   5.621   0.602   0.992 -1.4160 -2.4386  0.3790
 5317TIP3   OH215956   5.427   5.916   2.799 -0.0481  0.1380 -0.7756
 5317TIP3    H115957   5.406   5.829   2.833  2.6921 -0.5535 -0.6104
 5317TIP3    H215958   5.399   5.977   2.868 -3.0045 -0.3924 -1.3354
 5318TIP3   OH215959   4.958   2.042   0.042  0.0661  0.2506 -0.2727
 5318TIP3    H115960   5.002   2.108  -0.010  0.6938  1.0700  1.2451
 5318TIP3    H215961   4.972   2.069   0.133 -0.4550 -1.4615  0.3590
 5319TIP3   OH215962   3.755   3.283   0.574  0.3567  0.3976  0.1115
 5319TIP3    H115963   3.803   3.271   0.492  0.8019  1.6732  0.1756
 5319TIP3    H215964   3.820   3.314   0.636 -0.1089  0.0388  0.7962
 5320TIP3   OH215965   4.580   1.492   3.919  0.4155 -0.0156  0.4119
 5320TIP3    H115966   4.669   1.479   3.886  0.8226 -1.5306  1.9343
 5320TIP3    H215967   4.527   1.505   3.841  1.7485 -0.6313 -0.6467
 5321TIP3   OH215968   3.024   1.254   2.197  0.0890  0.5955  0.2760
 5321TIP3    H115969   3.092   1.188   2.209 -1.7675 -1.2954  1.0098
 5321TIP3    H215970   2.960   1.213   2.138 -2.0281  0.9235  2.1844
 5322TIP3   OH215971   1.087   0.718   1.548 -0.1726  0.0668 -0.0505
 5322TIP3    H115972   1.157   0.664   1.584 -0.8590 -0.8853 -0.0833
 5322TIP3    H215973   1.129   0.772   1.482  0.5629 -0.3415  0.0771
 5323TIP3   OH215974   0.523   0.668   2.202 -0.3721  0.0032 -0.1664
 5323TIP3    H115975   0.592   0.715   2.249  0.4371 -1.3888  0.0920
 5323TIP3    H215976   0.518   0.712   2.117  3.3774 -1.9776 -1.6152
 5324TIP3   OH215977   0.079   3.701   5.042  0.1759 -0.0087  0.7421
 5324TIP3    H115978   0.119   3.778   5.001  0.0263 -0.0103  0.5916
 5324TIP3    H215979   0.147   3.634   5.038  0.4542  0.2381  1.2525
 5325TIP3   OH215980   5.700   1.781   0.844 -0.1389  0.5832  0.4438
 5325TIP3    H115981   5.772   1.719   0.860 -0.7270 -0.2795 -0.1275
 5325TIP3    H215982   5.631   1.727   0.803 -1.0331  1.4260  0.7989
 5326TIP3   OH215983   5.280   0.750   0.749  0.8340 -0.7487  0.3158
 5326TIP3    H115984   5.368   0.776   0.723  0.5742 -1.1562 -1.0483
 5326TIP3    H215985   5.249   0.693   0.678 -0.4442 -0.7930  0.8686
 5327TIP3   OH215986   5.683   5.860   1.837 -0.1647  0.2578  0.4061
 5327TIP3    H115987   5.638   5.871   1.754 -0.8222 -0.6147  0.6338
 5327TIP3    H215988   5.613   5.854   1.902  0.3113 -0.0071  0.9046
 5328TIP3   OH215989   4.725   4.858   2.936 -0.1256  0.2498  0.4725
 5328TIP3    H115990   4.798   4.811   2.975 -0.3598  0.2073  0.8647
 5328TIP3    H215991   4.725   4.943   2.981  1.0548  1.1109 -1.0829
 5329TIP3   OH215992   1.497   4.271   1.728  0.4941  0.7568 -0.2270
 5329TIP3    H115993   1.422   4.330   1.726 -0.6913 -0.6767  0.4585
 5329TIP3    H215994   1.544   4.294   1.809  0.0662  0.7912  0.0112
 5330TIP3   OH215995   1.535   3.546   2.393 -0.3134 -0.0595  0.4347
 5330TIP3    H115996   1.601   3.610   2.365 -0.8303  0.2722 -0.0502
 5330TIP3    H215997   1.510   3.500   2.313  0.6406 -1.4476  0.9114
 5331TIP3   OH215998   0.927   2.778   3.246  0.1817  0.2560  0.1214
 5331TIP3    H115999   0.971   2.857   3.278  2.7848 -0.7178 -0.7680
 5331TIP3    H216000   0.907   2.798   3.154  0.0174  0.1991  0.1450
 5332TIP3   OH216001   4.194   1.140   3.524  0.1566 -0.4143 -0.0191
 5332TIP3    H116002   4.230   1.072   3.467  1.1743 -0.1572  0.2857
 5332TIP3    H216003   4.108   1.108   3.549  1.5785 -2.9009  2.2167
 5333TIP3   OH216004   6.247   1.669   3.450  0.7629 -0.1823  0.0363
 5333TIP3    H116005   6.328   1.702   3.410  2.2075 -1.9832  1.2941
 5333TIP3    H216006   6.268   1.579   3.476 -1.8267 -0.8842 -0.0155
 5334TIP3   OH216007   5.615   1.213   4.077 -0.6104 -0.1202  0.3569
 5334TIP3    H116008   5.705   1.238   4.057 -1.0141 -0.6066 -2.6549
 5334TIP3    H216009   5.595   1.258   4.158  1.5304  2.0885 -0.2090
 5335TIP3   OH216010   3.753   0.817   3.964 -0.1783 -0.7023 -0.4228
 5335TIP3    H116011   3.842   0.806   3.998 -1.0696 -3.2728  1.4102
 5335TIP3    H216012   3.738   0.740   3.909 -0.3106  1.2331 -3.3231
 5336TIP3   OH216013   1.798   1.667   5.160 -0.3310  0.2311  0.1981
 5336TIP3    H116014   1.861   1.603   5.128  0.9134  1.0801  0.8783
 5336TIP3    H216015   1.759   1.705   5.081  0.3264  0.0010 -0.2384
 5337TIP3   OH216016   1.321   2.131   4.976  0.1426  0.6560 -0.6901
 5337TIP3    H116017   1.383   2.154   5.045 -0.0112 -1.1786  0.1258
 5337TIP3    H216018   1.236   2.163   5.008 -0.0856 -0.9761  0.4729
 5338TIP3   OH216019   6.139   4.680   3.960 -0.5130 -0.3569  0.3186
 5338TIP3    H116020   6.096   4.715   4.038  1.4017  1.5137  0.6301
 5338TIP3    H216021   6.069   4.675   3.895 -1.6922  0.2550  1.4939
 5339TIP3   OH216022   2.880   4.075   2.124 -0.4287 -0.4469 -0.0177
 5339TIP3    H116023   2.849   4.146   2.180 -0.8444 -0.7800  0.1745
 5339TIP3    H216024   2.939   4.024   2.180 -1.8972 -1.5686  0.5467
 5340TIP3   OH216025   3.968   3.808   2.341 -0.4387 -0.0761  0.1286
 5340TIP3    H116026   3.873   3.824   2.343 -0.3278  0.6481 -0.0247
 5340TIP3    H216027   3.983   3.761   2.259 -0.7970 -1.1493  0.6563
 5341TIP3   OH216028   4.411   3.012   4.856  0.3465  0.5242  0.5858
 5341TIP3    H116029   4.473   2.974   4.795  1.1484 -0.0413  1.7047
 5341TIP3    H216030   4.416   3.106   4.841  2.1588  0.5729  1.2378
 5342TIP3   OH216031   1.347   0.266   1.772  0.2167 -0.0092 -0.3464
 5342TIP3    H116032   1.438   0.244   1.792  0.0093  0.5969  1.4877
 5342TIP3    H216033   1.303   0.182   1.762  1.0362 -0.3070 -1.6873
 5343TIP3   OH216034   1.669   2.990   4.958 -0.1014  0.4472  0.3805
 5343TIP3    H116035   1.764   3.003   4.958 -0.0671  0.4008 -1.2885
 5343TIP3    H216036   1.658   2.895   4.956 -0.1754  0.4516  0.6713
 5344TIP3   OH216037   5.811   3.024   1.833 -0.1185  0.1738  0.3669
 5344TIP3    H116038   5.880   2.961   1.816 -0.2043  0.5452 -1.5498
 5344TIP3    H216039   5.830   3.057   1.921  1.5514 -0.4598  0.2752
 5345TIP3   OH216040   5.344   4.421   2.962  0.8184  0.1955  0.3986
 5345TIP3    H116041   5.435   4.433   2.933  0.6419 -0.3113 -0.4019
 5345TIP3    H216042   5.343   4.335   3.003  1.1437  1.0468  2.3045
 5346TIP3   OH216043   0.832   3.471   1.100  0.3700 -0.2927  0.3879
 5346TIP3    H116044   0.786   3.395   1.135  1.1193 -0.3909  1.1957
 5346TIP3    H216045   0.766   3.517   1.047  0.0407 -1.7613 -0.5513
 5347TIP3   OH216046   5.321   5.806   0.266 -0.2042 -0.0133  0.4354
 5347TIP3    H116047   5.333   5.891   0.225 -1.7257 -0.5646 -1.2696
 5347TIP3    H216048   5.406   5.762   0.256 -0.5982 -0.3113 -2.7194
 5348TIP3   OH216049   3.684   1.497   4.827 -0.1870  0.3850 -0.2982
 5348TIP3    H116050   3.723   1.446   4.898 -0.8258  1.3665  0.7950
 5348TIP3    H216051   3.599   1.455   4.811 -0.1662  0.3372 -0.2800
 5349TIP3   OH216052   0.688   5.931   0.479  0.6131 -0.2498 -0.1220
 5349TIP3    H116053   0.655   5.841   0.474 -1.5937  0.4174  1.0288
 5349TIP3    H216054   0.616   5.985   0.446  1.5037  1.1701  0.1527
 5350TIP3   OH216055   2.686   4.986   3.226 -0.2926  0.2682  0.5764
 5350TIP3    H116056   2.665   5.054   3.162  0.6422 -0.3394 -0.4201
 5350TIP3    H216057   2.602   4.943   3.244 -0.7626  1.2071  0.6539
 5351TIP3   OH216058   1.378   2.608   1.527 -0.0855 -0.2525  0.2062
 5351TIP3    H116059   1.380   2.517   1.558 -0.4825 -0.3036  0.0843
 5351TIP3    H216060   1.454   2.649   1.568 -0.5429 -0.3427  1.1645
 5352TIP3   OH216061   1.469   1.766   1.166  0.2876  0.3091  0.1091
 5352TIP3    H116062   1.430   1.683   1.138  0.2852  0.8167 -1.5180
 5352TIP3    H216063   1.446   1.773   1.259 -0.3307 -1.1545  0.0992
 5353TIP3   OH216064   2.005   2.449   2.113  0.1309 -0.3761 -0.2406
 5353TIP3    H116065   2.039   2.441   2.202  0.1283  0.1841 -0.1832
 5353TIP3    H216066   1.998   2.544   2.098  0.3795 -0.4587 -0.9291
 5354TIP3   OH216067   5.513   3.144   4.740 -0.3835 -0.4942 -0.1129
 5354TIP3    H116068   5.421   3.166   4.722  0.6137  3.2995 -1.4494
 5354TIP3    H216069   5.529   3.177   4.829 -0.0578 -0.1506 -0.2966
 5355TIP3   OH216070   4.870   2.729   2.209 -0.1537 -0.1315  0.3385
 5355TIP3    H116071   4.964   2.716   2.197 -0.2283 -0.4230  0.0589
 5355TIP3    H216072   4.847   2.671   2.282 -0.2416 -0.6012 -0.0517
 5356TIP3   OH216073   1.999   4.032   2.174  0.1508 -0.4211 -0.5517
 5356TIP3    H116074   2.090   4.011   2.156  0.0406 -1.9413  0.4756
 5356TIP3    H216075   1.988   4.013   2.267 -0.6520  1.9771 -0.0783
 5357TIP3   OH216076   4.981   0.614   2.244  0.6828 -0.0254 -0.1769
 5357TIP3    H116077   5.051   0.679   2.247 -0.1501  0.8945  2.6610
 5357TIP3    H216078   4.915   0.653   2.187  1.3867  0.2627 -0.8206
 5358TIP3   OH216079   3.321   3.076   1.355 -0.1964 -0.2736 -0.0874
 5358TIP3    H116080   3.394   3.086   1.293  0.6587 -0.8863  0.7973
 5358TIP3    H216081   3.247   3.051   1.300 -0.3696  2.5115 -1.3184
 5359TIP3   OH216082   0.717   4.344   2.477 -0.2247 -0.0729 -0.6650
 5359TIP3    H116083   0.622   4.349   2.466 -0.1535 -0.8238 -1.8799
 5359TIP3    H216084   0.739   4.254   2.454  0.9439  0.4843 -1.8915
 5360TIP3   OH216085   1.965   5.660   4.030 -0.8102  0.1858  0.6215
 5360TIP3    H116086   2.028   5.669   3.959  1.0838 -1.4598  1.9745
 5360TIP3    H216087   1.924   5.747   4.037 -1.4034  0.3036 -2.6507
 5361TIP3   OH216088   3.942   3.137   4.043 -0.0973 -0.1323 -0.3991
 5361TIP3    H116089   4.007   3.196   4.005 -1.3535  0.8215 -1.1403
 5361TIP3    H216090   3.905   3.090   3.968  0.2415 -1.2241  0.0903
 5362TIP3   OH216091   3.358   2.634   4.319 -0.5689 -0.2425  0.3005
 5362TIP3    H116092   3.431   2.574   4.308 -0.5302 -0.2700  0.7011
 5362TIP3    H216093   3.360   2.689   4.240  3.0259  3.1618  2.3686
 5363TIP3   OH216094   3.105   4.217   2.864 -0.1684  0.0404  0.2774
 5363TIP3    H116095   3.109   4.141   2.923 -0.3614 -0.7386 -0.6880
 5363TIP3    H216096   3.156   4.284   2.909  0.8770 -0.9816  0.6974
 5364TIP3   OH216097   3.681   2.770   1.543 -0.6269 -0.2429  0.0277
 5364TIP3    H116098   3.607   2.745   1.488 -1.8198  1.7629  0.6395
 5364TIP3    H216099   3.658   2.740   1.630  0.2205 -1.3628 -0.1062
 5365TIP3   OH216100   5.167   4.164   2.307 -0.1455 -1.0580  0.1759
 5365TIP3    H116101   5.118   4.081   2.308  1.1743 -1.8820 -0.8984
 5365TIP3    H216102   5.135   4.209   2.229  0.1166 -1.1606  0.0105
 5366TIP3   OH216103   1.023   2.766   5.023 -0.2772 -0.1747 -0.0887
 5366TIP3    H116104   1.016   2.791   5.115  0.8777  0.4421 -0.1470
 5366TIP3    H216105   1.076   2.835   4.984 -1.0670 -0.2267 -1.3050
 5367TIP3   OH216106   0.678   3.705   4.919  0.1910  0.2128  0.4995
 5367TIP3    H116107   0.599   3.659   4.948  1.2582 -1.1982  1.2850
 5367TIP3    H216108   0.663   3.796   4.944 -0.6270 -0.2789  1.8968
 5368TIP3   OH216109   2.658   2.177   2.067  0.0208  0.9643  0.4935
 5368TIP3    H116110   2.741   2.149   2.106 -0.5996 -0.8960  0.6101
 5368TIP3    H216111   2.655   2.271   2.081  1.5843  0.9065  1.4966
 5369TIP3   OH216112   5.759   1.703   3.025  0.2907 -0.5123  0.2114
 5369TIP3    H116113   5.702   1.664   3.092 -0.5942 -0.0115 -0.2384
 5369TIP3    H216114   5.794   1.628   2.977  0.1054 -0.8309  0.5632
 5370TIP3   OH216115   6.137   3.081   4.531  0.2687 -0.4900  0.1879
 5370TIP3    H116116   6.072   3.105   4.597 -0.1927  0.0537 -0.4474
 5370TIP3    H216117   6.162   2.991   4.552  0.1888 -0.2933  1.1441
 5371TIP3   OH216118   6.288   3.450   0.954 -0.8702  0.5147  0.2928
 5371TIP3    H116119   6.368   3.439   0.903 -0.5351  1.0118  0.7037
 5371TIP3    H216120   6.274   3.545   0.956 -0.9606  0.4910  0.9992
 5372TIP3   OH216121   5.476   3.559   4.775 -0.0376 -1.1091 -0.4339
 5372TIP3    H116122   5.565   3.530   4.793 -0.3113 -0.6502  1.9324
 5372TIP3    H216123   5.420   3.492   4.815 -0.7009  0.1170  0.7698
 5373TIP3   OH216124   4.246   5.592   3.105  0.2213  0.3607 -0.0440
 5373TIP3    H116125   4.161   5.624   3.133  0.0469 -0.1991  0.0609
 5373TIP3    H216126   4.282   5.664   3.052 -0.1666  0.7306  0.1934
 5374TIP3   OH216127   0.131   0.333   4.411  0.6430  0.0595  0.1435
 5374TIP3    H116128   0.135   0.249   4.366 -1.2828 -0.5968  1.0741
 5374TIP3    H216129   0.200   0.386   4.370  0.6270 -1.3182 -1.7907
 5375TIP3   OH216130   2.400   4.902   0.942  0.7497  0.9543 -0.0141
 5375TIP3    H116131   2.436   4.820   0.907  2.0029  1.3195  0.3743
 5375TIP3    H216132   2.382   4.955   0.864  1.2899  0.8555 -0.2122
 5376TIP3   OH216133   4.951   1.605   0.656 -0.5208 -0.2720  0.5439
 5376TIP3    H116134   4.990   1.685   0.621 -0.1298 -0.0632  1.4386
 5376TIP3    H216135   5.018   1.537   0.642 -1.0523 -0.5723 -0.6839
 5377TIP3   OH216136   3.935   5.428   3.095  0.2416 -0.2204 -0.0087
 5377TIP3    H116137   3.891   5.343   3.100  0.0334 -0.0980  0.2337
 5377TIP3    H216138   3.900   5.478   3.168  0.4522  0.0353 -0.0808
 5378TIP3   OH216139   5.895   2.281   1.410 -0.2379 -0.0513  0.4856
 5378TIP3    H116140   5.904   2.229   1.330  1.0936 -0.7569  1.0469
 5378TIP3    H216141   5.869   2.217   1.476 -1.2461  0.5123  0.6452
 5379TIP3   OH216142   2.717   0.065   0.186 -0.2319  0.4481 -0.8841
 5379TIP3    H116143   2.798   0.101   0.151 -0.2058 -1.6754 -3.3388
 5379TIP3    H216144   2.744  -0.014   0.233 -0.8387 -0.0493 -1.3596
 5380TIP3   OH216145   0.700   4.010   0.649  0.1705  0.7593 -0.4300
 5380TIP3    H116146   0.740   4.063   0.719  0.0371  1.7125 -1.0570
 5380TIP3    H216147   0.606   4.024   0.659 -0.0581 -1.4176  0.9908
 5381TIP3   OH216148   6.107   4.245   2.142 -0.3575 -0.2221 -1.0127
 5381TIP3    H116149   6.110   4.295   2.061 -1.2125  0.4279 -0.6535
 5381TIP3    H216150   6.199   4.224   2.161  0.0347  1.2709 -1.1298
 5382TIP3   OH216151   5.275   4.605   3.165  0.1851 -0.2707  0.2620
 5382TIP3    H116152   5.237   4.547   3.231  1.2749 -1.4151 -0.0854
 5382TIP3    H216153   5.286   4.551   3.088  0.0568  0.7387 -0.4878
 5383TIP3   OH216154   1.907   4.814   0.981 -0.2598 -0.0653 -0.7248
 5383TIP3    H116155   2.002   4.798   0.975 -0.2838  0.1200 -1.7534
 5383TIP3    H216156   1.869   4.757   0.915 -1.0039 -1.1142  0.5713
 5384TIP3   OH216157   0.871   2.549   0.398  0.1658  0.3150  0.0772
 5384TIP3    H116158   0.790   2.515   0.437  1.1188 -0.7008  1.2478
 5384TIP3    H216159   0.859   2.536   0.303 -0.7401 -0.4886  0.2823
 5385TIP3   OH216160   3.574   1.116   0.529 -0.2340  0.1067  0.5906
 5385TIP3    H116161   3.646   1.155   0.479  0.2860  0.3513  1.5193
 5385TIP3    H216162   3.612   1.038   0.569 -0.5827  0.0410  0.7954
 5386TIP3   OH216163   0.441   0.169   2.416 -0.3605 -0.4693 -0.1317
 5386TIP3    H116164   0.499   0.106   2.459  0.5427  0.9047  0.7272
 5386TIP3    H216165   0.479   0.182   2.329 -0.4133 -0.9088 -0.2224
 5387TIP3   OH216166   3.813   2.028   1.029  0.0510 -0.2625  0.4029
 5387TIP3    H116167   3.850   2.060   1.111 -2.2347 -1.5118  2.0248
 5387TIP3    H216168   3.773   1.944   1.051 -2.9222  0.5358 -1.3296
 5388TIP3   OH216169   0.482   5.394   2.079 -0.0477 -0.6935 -0.6536
 5388TIP3    H116170   0.468   5.417   1.987 -0.3883 -1.2118 -0.7359
 5388TIP3    H216171   0.547   5.457   2.109 -0.9123  0.3487 -0.8818
 5389TIP3   OH216172   0.616   0.913   0.710 -0.1192  0.2160  0.0840
 5389TIP3    H116173   0.640   0.910   0.803  0.0081 -1.9671  0.0375
 5389TIP3    H216174   0.699   0.903   0.663 -0.0214  2.4933 -0.3606
 5390TIP3   OH216175   0.368   1.101   1.896 -0.7724 -0.4363 -0.2771
 5390TIP3    H116176   0.361   1.085   1.802 -2.3949 -0.0291 -0.2523
 5390TIP3    H216177   0.328   1.024   1.937  0.9149 -1.1366  0.1453
 5391TIP3   OH216178   3.013   2.275   0.605 -0.5143  0.3032  0.0082
 5391TIP3    H116179   3.023   2.230   0.690  0.2105  0.5974  0.0861
 5391TIP3    H216180   2.927   2.247   0.574 -0.4565 -0.4387  0.4729
 5392TIP3   OH216181   0.220   2.922   2.948 -0.2193  0.7683  0.1873
 5392TIP3    H116182   0.277   2.994   2.920 -0.2916  0.1449 -1.7007
 5392TIP3    H216183   0.160   2.909   2.874 -2.5097  1.0421  1.8898
 5393TIP3   OH216184   3.658   2.747   3.642 -0.5984  0.4477  0.5673
 5393TIP3    H116185   3.718   2.822   3.645 -0.6664  0.5387 -0.3031
 5393TIP3    H216186   3.712   2.674   3.612 -1.3011  0.9522 -2.2353
 5394TIP3   OH216187   1.071   1.965   0.933 -0.8305 -0.1396  0.0208
 5394TIP3    H116188   1.005   2.019   0.890 -1.3731  0.2587  1.2956
 5394TIP3    H216189   1.101   2.019   1.007  0.2112 -0.7137  0.0356
 5395TIP3   OH216190   1.630   5.327   3.227  0.2843 -0.5241 -0.0762
 5395TIP3    H116191   1.566   5.325   3.298 -0.3895  0.1815 -0.6487
 5395TIP3    H216192   1.714   5.313   3.271  0.1829  2.2228  1.2371
 5396TIP3   OH216193   0.602   5.388   5.018  0.5636 -0.2132 -0.3170
 5396TIP3    H116194   0.554   5.412   4.939  0.3413 -0.5152 -0.2762
 5396TIP3    H216195   0.549   5.424   5.090  0.2140 -0.8510 -0.2543
 5397TIP3   OH216196   1.793   0.457   2.220 -0.6854  0.6284 -0.5679
 5397TIP3    H116197   1.881   0.450   2.258 -0.8994 -0.2488 -0.2013
 5397TIP3    H216198   1.743   0.507   2.284 -0.2578  1.8612 -1.1607
 5398TIP3   OH216199   1.779   2.353   2.523  0.2141 -0.0621  0.4760
 5398TIP3    H116200   1.767   2.434   2.573 -0.1459  0.1529  0.0542
 5398TIP3    H216201   1.872   2.332   2.532  0.5511  1.0099 -0.3288
 5399TIP3   OH216202   5.808   1.605   0.330 -0.5001 -0.6717  0.4258
 5399TIP3    H116203   5.862   1.569   0.260 -1.2111  0.1491 -0.5987
 5399TIP3    H216204   5.777   1.529   0.379 -1.2596 -1.4073 -1.1291
 5400TIP3   OH216205   6.341   5.694   3.455 -0.0791 -0.0825  1.0967
 5400TIP3    H116206   6.351   5.735   3.540 -0.3052  0.3410  0.9244
 5400TIP3    H216207   6.306   5.607   3.473  0.7702 -0.3543  1.4915
 5401TIP3   OH216208   2.589   5.803   2.662 -1.0327  0.5188 -0.3051
 5401TIP3    H116209   2.513   5.861   2.668 -3.1916 -2.2071  0.6283
 5401TIP3    H216210   2.575   5.738   2.731  1.8384 -0.5151 -0.5696
 5402TIP3   OH216211   0.215   3.840   0.546 -0.1526  0.0762 -0.1595
 5402TIP3    H116212   0.253   3.920   0.509 -0.2241  0.3479  0.3517
 5402TIP3    H216213   0.280   3.810   0.609  0.0385 -0.4730 -0.6038
 5403TIP3   OH216214   5.995   1.380   2.528  0.7798  0.2513  0.5372
 5403TIP3    H116215   6.015   1.472   2.549  2.4324 -0.1663  0.9902
 5403TIP3    H216216   6.005   1.374   2.433  0.4857  0.5900  0.4862
 5404TIP3   OH216217   3.408   5.909   0.710  0.6164 -0.4523 -0.6585
 5404TIP3    H116218   3.460   5.830   0.723  1.9993  0.5254  0.0570
 5404TIP3    H216219   3.472   5.977   0.691 -0.4646  0.6697 -0.4517
 5405TIP3   OH216220   4.961   3.724   4.024  0.1480  0.1092  0.4530
 5405TIP3    H116221   4.868   3.707   4.012 -0.1530  1.5208  0.6349
 5405TIP3    H216222   5.004   3.675   3.954 -0.5655 -1.8874  1.3256
 5406TIP3   OH216223   0.947   1.801   0.491 -0.1031 -0.5559  0.0355
 5406TIP3    H116224   0.972   1.784   0.581 -0.8295 -0.3253  0.2922
 5406TIP3    H216225   0.857   1.769   0.485  0.0048 -0.7529 -0.6642
 5407TIP3   OH216226   4.395   0.508   3.715 -0.0459  0.4100  0.2754
 5407TIP3    H116227   4.376   0.564   3.791  1.3582  0.5407  0.5507
 5407TIP3    H216228   4.317   0.452   3.707  0.1741 -0.3125  2.4567
 5408TIP3   OH216229   3.717   1.009   1.146  0.1598 -0.5125  0.0626
 5408TIP3    H116230   3.676   1.044   1.225 -2.7293 -0.8044 -1.1990
 5408TIP3    H216231   3.696   0.916   1.147 -0.7024 -0.3692 -1.4436
 5409TIP3   OH216232   4.435   0.183   2.529  0.5930 -0.0136  0.4893
 5409TIP3    H116233   4.442   0.241   2.605  1.6198  0.6738 -0.1167
 5409TIP3    H216234   4.449   0.240   2.453  2.3638 -1.1493 -0.0926
 5410TIP3   OH216235   5.177   4.009   3.140  0.1563  0.0595  0.0290
 5410TIP3    H116236   5.123   4.010   3.219  1.7763  0.2329  1.1913
 5410TIP3    H216237   5.231   4.088   3.147  1.9885 -1.1132  0.0016
 5411TIP3   OH216238   6.229   0.463   4.404  0.4557  0.2017  0.3071
 5411TIP3    H116239   6.282   0.389   4.433  0.2949 -0.2248 -0.4362
 5411TIP3    H216240   6.289   0.516   4.351  0.5704  0.6105  0.8367
 5412TIP3   OH216241   4.781   4.353   2.628  0.7514  0.0227  0.4323
 5412TIP3    H116242   4.824   4.439   2.620 -1.1371  1.2631  2.5042
 5412TIP3    H216243   4.718   4.350   2.556  0.0625  0.8918  0.9800
 5413TIP3   OH216244   1.035   2.323   1.588 -0.8167  0.3685  0.4285
 5413TIP3    H116245   1.034   2.348   1.681  0.3365 -0.3754  0.6574
 5413TIP3    H216246   0.949   2.285   1.573 -0.2940 -1.4672  1.7666
 5414TIP3   OH216247   1.121   4.989   3.859  0.0748 -0.0390 -0.3110
 5414TIP3    H116248   1.172   4.971   3.780  1.3818 -3.2969  1.0679
 5414TIP3    H216249   1.124   4.907   3.909 -0.5289  1.8673  3.2293
 5415TIP3   OH216250   4.988   5.709   0.431  0.7265 -0.0377 -0.5098
 5415TIP3    H116251   4.995   5.763   0.353 -0.3005  0.4019 -0.3128
 5415TIP3    H216252   4.982   5.619   0.398  0.0796  0.1637 -0.9576
 5416TIP3   OH216253   1.118   1.463   4.645 -0.0988  0.3540  0.0083
 5416TIP3    H116254   1.103   1.506   4.561 -0.1588  1.7824  0.7019
 5416TIP3    H216255   1.089   1.373   4.633 -2.4221  1.1590 -0.7944
 5417TIP3   OH216256   2.849   0.436   1.942 -0.0924 -0.4868  0.9325
 5417TIP3    H116257   2.887   0.442   1.855 -0.5752  0.5697  0.7791
 5417TIP3    H216258   2.918   0.395   1.995 -0.3247 -2.5176 -0.2227
 5418TIP3   OH216259   5.867   1.250   2.171  0.3615 -0.0669 -0.2342
 5418TIP3    H116260   5.946   1.258   2.223  0.7221  0.9137 -0.8968
 5418TIP3    H216261   5.895   1.208   2.090 -0.1284 -1.2614  0.1934
 5419TIP3   OH216262   2.787   2.722   1.576 -0.0925 -0.0299  0.4830
 5419TIP3    H116263   2.699   2.685   1.565  0.1378 -0.3008 -0.6209
 5419TIP3    H216264   2.794   2.789   1.508 -0.3081  1.7435  2.1306
 5420TIP3   OH216265   5.284   3.351   3.610 -0.5038  0.5004  0.5005
 5420TIP3    H116266   5.276   3.438   3.570  1.0597  0.1193 -0.7296
 5420TIP3    H216267   5.352   3.362   3.677  0.7678 -0.0507 -0.6431
 5421TIP3   OH216268   0.388   1.471   4.643 -0.0004 -0.4830 -0.4849
 5421TIP3    H116269   0.390   1.427   4.728  0.8169 -3.1540 -1.7785
 5421TIP3    H216270   0.302   1.512   4.640 -1.0563 -2.4100  0.6832
 5422TIP3   OH216271   3.168   3.774   2.462 -0.2663 -0.2167  0.0962
 5422TIP3    H116272   3.112   3.810   2.394 -0.3527  0.8631  0.7208
 5422TIP3    H216273   3.222   3.709   2.417 -1.8023 -1.0830 -0.5659
 5423TIP3   OH216274   5.791   5.340   3.524 -0.0681  0.2488  0.0648
 5423TIP3    H116275   5.835   5.425   3.518  1.6569 -0.4206  1.8508
 5423TIP3    H216276   5.756   5.338   3.613  1.5527 -1.5751  0.7368
 5424TIP3   OH216277   0.086   5.300   4.516 -0.2717  0.5621 -0.0766
 5424TIP3    H116278   0.159   5.239   4.517 -0.8149 -0.1283 -0.8312
 5424TIP3    H216279   0.114   5.371   4.457 -0.6754 -0.3458 -1.4229
 5425TIP3   OH216280   0.761   1.884   1.912  0.3116 -0.6073 -0.2090
 5425TIP3    H116281   0.856   1.889   1.907  0.2602 -0.3413 -1.2188
 5425TIP3    H216282   0.732   1.973   1.929  0.2374 -0.6367 -0.1792
 5426TIP3   OH216283   5.330   3.491   1.032 -0.4799 -0.3326 -0.4112
 5426TIP3    H116284   5.356   3.497   0.939 -0.8804  0.6000 -0.4694
 5426TIP3    H216285   5.391   3.549   1.077 -1.2706  0.4334 -0.3045
 5427TIP3   OH216286   1.926   2.916   0.101  0.0934  0.6384 -0.2652
 5427TIP3    H116287   1.924   2.974   0.025 -1.2527 -0.8727 -1.4443
 5427TIP3    H216288   1.904   2.972   0.175  3.1079  2.5156 -0.6506
 5428TIP3   OH216289   5.992   2.163   0.188  0.5084  0.0484  0.0558
 5428TIP3    H116290   6.001   2.086   0.132  0.7367 -1.4803  2.1318
 5428TIP3    H216291   6.030   2.138   0.272 -0.8703  1.8821  1.3072
 5429TIP3   OH216292   2.499   5.909   2.210  0.2680  0.1096 -0.4500
 5429TIP3    H116293   2.534   5.946   2.291  0.0121  0.2167 -0.3886
 5429TIP3    H216294   2.414   5.952   2.199  0.2563  0.0162 -0.7180
 5430TIP3   OH216295   0.569   3.576   0.139 -0.1343 -0.3196  0.4868
 5430TIP3    H116296   0.598   3.594   0.050  0.1396  0.2990  0.6946
 5430TIP3    H216297   0.477   3.551   0.129 -0.3443  0.5401  0.0956
 5431TIP3   OH216298   6.028   3.529   4.145 -0.3879 -0.0505 -0.5993
 5431TIP3    H116299   5.951   3.489   4.185 -0.0463 -0.0271  0.1097
 5431TIP3    H216300   6.099   3.468   4.164  0.1808  0.9747  0.6954
 5432TIP3   OH216301   4.681   3.491   1.765 -0.1883 -0.1075 -0.5961
 5432TIP3    H116302   4.647   3.543   1.839  1.4724  1.3678 -0.8175
 5432TIP3    H216303   4.682   3.551   1.692 -0.9381 -1.3135 -1.6492
 5433TIP3   OH216304   2.875   5.232   2.382  0.2802 -0.0161  0.1461
 5433TIP3    H116305   2.785   5.226   2.349  0.8379 -1.5376 -1.2219
 5433TIP3    H216306   2.880   5.166   2.450  0.1501  0.6513  0.8184
 5434TIP3   OH216307   4.264   5.699   1.292 -0.4445  0.0641  0.2556
 5434TIP3    H116308   4.329   5.631   1.310 -0.5671 -0.5433 -1.4115
 5434TIP3    H216309   4.301   5.749   1.219 -1.4889  0.2145 -0.1895
 5435TIP3   OH216310   5.191   1.730   1.573  0.1243 -0.2793 -0.0784
 5435TIP3    H116311   5.193   1.816   1.530  0.0873 -0.8509 -1.2338
 5435TIP3    H216312   5.236   1.671   1.513 -0.0164 -1.1239  0.6203
 5436TIP3   OH216313   0.976   0.388   4.746  0.1475 -0.4667 -0.6824
 5436TIP3    H116314   0.898   0.422   4.789  1.0348  0.3383  0.3445
 5436TIP3    H216315   0.971   0.293   4.759 -0.4574 -0.3841 -0.2742
 5437TIP3   OH216316   1.330   5.524   2.567 -0.3056  0.1832  0.1616
 5437TIP3    H116317   1.333   5.429   2.554 -0.2050  0.2299 -0.1776
 5437TIP3    H216318   1.276   5.535   2.645  1.2290 -0.2350  1.3177
 5438TIP3   OH216319   3.617   0.828   3.422  0.7597 -0.0136 -0.6280
 5438TIP3    H116320   3.707   0.797   3.435  1.4049  1.1182 -2.1168
 5438TIP3    H216321   3.623   0.889   3.349 -1.2248  0.1597 -0.6963
 5439TIP3   OH216322   2.713   2.408   4.535  0.1012  0.0097  0.3407
 5439TIP3    H116323   2.634   2.367   4.569 -0.5210  0.6321 -0.2968
 5439TIP3    H216324   2.716   2.494   4.578 -0.9202  0.9720 -1.4016
 5440TIP3   OH216325   3.596   4.279   2.045  0.8604  0.1862  0.4079
 5440TIP3    H116326   3.628   4.201   2.001 -0.9016 -0.0826 -0.4909
 5440TIP3    H216327   3.508   4.292   2.010  1.2388  2.7990  0.2602
 5441TIP3   OH216328   5.147   3.901   2.772  0.1380 -0.4347 -0.3111
 5441TIP3    H116329   5.185   3.908   2.685  2.9161 -2.7348  0.5721
 5441TIP3    H216330   5.073   3.841   2.761 -0.9661  1.0485 -1.3900
 5442TIP3   OH216331   1.005   0.381   1.179 -0.2530 -0.5328  0.5907
 5442TIP3    H116332   0.978   0.464   1.217 -0.0751  0.3635 -1.1829
 5442TIP3    H216333   0.928   0.324   1.187 -1.0957  0.4890 -0.1401
 5443TIP3   OH216334   1.072   0.048   2.491  0.1432  0.6065  0.0905
 5443TIP3    H116335   1.088  -0.041   2.522  0.9732  0.9999  0.8237
 5443TIP3    H216336   1.005   0.083   2.550  0.9968  1.0116  0.8419
 5444TIP3   OH216337   2.795   2.290   4.292 -0.6517 -0.2933  0.1390
 5444TIP3    H116338   2.791   2.198   4.319  0.4398 -0.4796 -0.2775
 5444TIP3    H216339   2.746   2.337   4.360 -3.2200 -1.3921 -0.8525
 5445TIP3   OH216340   1.304   5.667   1.871 -0.0775 -0.2785 -0.0400
 5445TIP3    H116341   1.218   5.708   1.880 -0.4881 -1.3251  1.1573
 5445TIP3    H216342   1.288   5.590   1.815  0.2173 -0.1305 -0.3355
 5446TIP3   OH216343   5.239   0.489   1.264  0.3765 -0.2251  0.1383
 5446TIP3    H116344   5.152   0.493   1.223  1.0689  1.7213 -1.3067
 5446TIP3    H216345   5.229   0.427   1.336 -2.1808 -0.1488 -0.0642
 5447TIP3   OH216346   5.691   1.052   2.726 -0.1083 -0.3239  0.6864
 5447TIP3    H116347   5.620   1.004   2.767  0.7758 -0.1861  2.4601
 5447TIP3    H216348   5.676   1.143   2.748 -0.6304  0.0159 -0.9180
 5448TIP3   OH216349   0.383   5.308   0.688 -0.3093  0.2269  0.0877
 5448TIP3    H116350   0.414   5.318   0.598  0.4393  0.0869  0.3253
 5448TIP3    H216351   0.297   5.349   0.688  0.9083  2.9833  0.0363
 5449TIP3   OH216352   2.688   4.584   2.381 -0.1448 -0.1594 -0.5507
 5449TIP3    H116353   2.688   4.675   2.349 -0.8387  0.3914  0.9169
 5449TIP3    H216354   2.717   4.591   2.471 -2.2289 -1.1083  0.2522
 5450TIP3   OH216355   0.275   0.477   3.165 -0.1151  0.2695 -0.5499
 5450TIP3    H116356   0.276   0.545   3.233  0.9111  0.4930 -0.7798
 5450TIP3    H216357   0.270   0.526   3.083  0.7857  0.0810 -0.7239
 5451TIP3   OH216358   1.243   2.173   3.265 -0.2941  0.3886 -0.4114
 5451TIP3    H116359   1.293   2.240   3.218 -1.6093  0.8311 -1.2346
 5451TIP3    H216360   1.156   2.176   3.226 -1.0428 -0.2207  1.1118
 5452TIP3   OH216361   3.676   2.376   4.109  0.4202 -0.5767 -0.1968
 5452TIP3    H116362   3.735   2.450   4.094  1.3009 -1.4441 -1.1457
 5452TIP3    H216363   3.722   2.321   4.172 -1.0641  0.5568  2.0174
 5453TIP3   OH216364   5.539   2.588   1.900 -0.2995  0.1549  0.3140
 5453TIP3    H116365   5.465   2.578   1.960 -1.1297  1.6313 -0.3980
 5453TIP3    H216366   5.600   2.645   1.947  0.2690 -0.8310  0.7877
 5454TIP3   OH216367   2.422   4.138   4.704  0.6085  0.1538 -0.1063
 5454TIP3    H116368   2.414   4.229   4.677 -0.3579 -0.3393 -1.5847
 5454TIP3    H216369   2.446   4.143   4.797 -0.7459  1.9225  0.2137
 5455TIP3   OH216370   2.271   0.838   0.552 -0.0799  0.4102 -0.0071
 5455TIP3    H116371   2.256   0.835   0.457  0.3038 -0.3894 -0.0514
 5455TIP3    H216372   2.252   0.929   0.577 -1.7334  0.2630 -0.5974
 5456TIP3   OH216373   2.589   3.322   1.550  0.3633 -0.3502  0.0643
 5456TIP3    H116374   2.559   3.379   1.621 -4.3262 -1.2487 -0.8757
 5456TIP3    H216375   2.537   3.242   1.559  2.8983 -2.4177 -1.7895
 5457TIP3   OH216376   4.091   1.360   1.056  0.3432 -0.6749  0.2209
 5457TIP3    H116377   4.164   1.389   1.001  0.4109  1.0406  1.1414
 5457TIP3    H216378   4.052   1.288   1.008  0.8133  0.3206 -1.7556
 5458TIP3   OH216379   4.659   3.508   2.201 -0.2432 -0.8081 -0.2179
 5458TIP3    H116380   4.571   3.474   2.185 -0.3574 -1.0281  0.7918
 5458TIP3    H216381   4.689   3.461   2.279 -0.2405  1.0646  0.9993
 5459TIP3   OH216382   2.544   5.805  -0.004  0.0152 -0.3728 -0.1880
 5459TIP3    H116383   2.610   5.759   0.048  0.3454 -2.3326 -2.1812
 5459TIP3    H216384   2.461   5.783   0.039  0.4453 -0.0114  0.8496
 5460TIP3   OH216385   6.091   4.442   4.133 -0.4563  0.8228  0.3131
 5460TIP3    H116386   6.096   4.346   4.133  0.0941  0.8392  0.9722
 5460TIP3    H216387   6.001   4.461   4.109 -0.9982  0.0937  1.6334
 5461TIP3   OH216388   3.981   0.728   1.609 -0.0417  0.1605  0.8975
 5461TIP3    H116389   3.911   0.792   1.600 -0.7092 -0.7200 -0.4371
 5461TIP3    H216390   4.030   0.735   1.527  1.5416  0.8498  1.8499
 5462TIP3   OH216391   4.424   0.551   1.130  0.3114 -0.0062 -0.5294
 5462TIP3    H116392   4.363   0.625   1.128 -1.0060 -1.0895 -1.4818
 5462TIP3    H216393   4.411   0.512   1.217  2.2038  1.7627  0.6706
 5463TIP3   OH216394   0.508   0.872   3.411  0.4793 -0.1484 -0.4121
 5463TIP3    H116395   0.445   0.886   3.482  1.5536 -0.4522  0.6586
 5463TIP3    H216396   0.577   0.819   3.452  2.6349  2.2124 -0.7898
 5464TIP3   OH216397   0.817   0.722   1.950  0.5225  0.1103 -0.1230
 5464TIP3    H116398   0.824   0.628   1.934  1.6389 -0.1205  1.4913
 5464TIP3    H216399   0.723   0.737   1.961  0.4434 -1.7855  4.2543
 5465TIP3   OH216400   3.568   2.076   0.374  0.2447  0.0917  0.6455
 5465TIP3    H116401   3.571   2.063   0.469 -1.1754 -0.2232  0.6622
 5465TIP3    H216402   3.551   2.169   0.362  1.8541  0.4149  0.6545
 5466TIP3   OH216403   0.039   5.211   0.528 -0.0609  0.2781 -0.0793
 5466TIP3    H116404   0.007   5.124   0.554 -2.1109  0.2545 -2.3442
 5466TIP3    H216405   0.118   5.193   0.477  0.1153 -0.1670  0.3428
 5467TIP3   OH216406   2.512   3.827   2.981 -0.5506 -0.5176 -0.6463
 5467TIP3    H116407   2.549   3.916   2.976  0.1086 -0.7818 -0.6753
 5467TIP3    H216408   2.457   3.828   3.059 -0.7047 -0.0216 -0.7607
 5468TIP3   OH216409   2.046   2.678   2.733  0.1355  0.4053  0.3060
 5468TIP3    H116410   2.060   2.584   2.746 -3.5701 -0.2222  0.8378
 5468TIP3    H216411   1.973   2.700   2.792  1.2220  3.7852  0.6260
 5469TIP3   OH216412   2.265   3.961   2.075  0.2005 -0.1989 -0.0683
 5469TIP3    H116413   2.361   3.967   2.079  0.1118  4.1798  0.9637
 5469TIP3    H216414   2.241   4.019   2.004 -1.7483 -1.2116 -0.2900
 5470TIP3   OH216415   4.560   4.505   2.766 -0.2552 -0.2473 -0.5263
 5470TIP3    H116416   4.569   4.518   2.860  0.4609  3.2758 -0.9493
 5470TIP3    H216417   4.642   4.463   2.739 -1.3006 -3.2632  0.5660
 5471TIP3   OH216418   2.535   2.348   2.981  0.5672 -0.1198 -0.4297
 5471TIP3    H116419   2.571   2.414   2.922 -1.1076  0.6123 -0.6773
 5471TIP3    H216420   2.577   2.366   3.065  0.9779  0.5340 -0.7660
 5472TIP3   OH216421   3.195   2.989   2.870  0.1146 -0.5809  0.6890
 5472TIP3    H116422   3.105   2.972   2.843 -0.2094  1.2785  0.4988
 5472TIP3    H216423   3.189   3.004   2.965  0.3437 -1.0909  0.7915
 5473TIP3   OH216424   6.257   1.791   2.427 -0.3146 -0.1485 -0.2120
 5473TIP3    H116425   6.231   1.877   2.462 -0.3207  0.5338 -1.7905
 5473TIP3    H216426   6.250   1.801   2.332 -0.4052 -1.9448 -0.4320
 5474TIP3   OH216427   3.189   3.451   0.747 -0.1979  0.0338  0.3211
 5474TIP3    H116428   3.186   3.357   0.764 -0.7566 -0.2930 -1.4302
 5474TIP3    H216429   3.098   3.474   0.726  0.1542  0.7024 -0.5258
 5475TIP3   OH216430   5.033   1.016   0.710 -0.1916 -0.1852  0.4008
 5475TIP3    H116431   4.940   1.025   0.728 -0.3732  0.2224 -0.6952
 5475TIP3    H216432   5.065   0.956   0.778 -1.0498  0.4180  1.3590
 5476TIP3   OH216433   1.577   0.477   5.192  0.0770  0.2484  0.2418
 5476TIP3    H116434   1.578   0.397   5.140  1.2864  0.8109 -0.6444
 5476TIP3    H216435   1.603   0.546   5.131  0.6891  1.0689  1.3828
 5477TIP3   OH216436   4.464   3.855   4.214  0.5148  0.1295  0.0338
 5477TIP3    H116437   4.455   3.763   4.189 -0.3156  0.8206 -2.5174
 5477TIP3    H216438   4.557   3.874   4.201  0.3567  0.0895 -1.2995
 5478TIP3   OH216439   5.864   5.697   2.550  0.1114 -0.4774  0.1359
 5478TIP3    H116440   5.872   5.624   2.489 -0.0466 -0.6698  0.3440
 5478TIP3    H216441   5.770   5.713   2.556  0.1421 -0.2974  0.1357
 5479TIP3   OH216442   1.982   4.048   4.548  0.2495  0.2495  0.5017
 5479TIP3    H116443   1.956   4.106   4.620 -1.2137 -1.0829  1.1131
 5479TIP3    H216444   2.051   4.096   4.502 -1.2862  2.7363  0.5964
 5480TIP3   OH216445   1.075   5.844   1.903  0.1663  0.0983  0.1145
 5480TIP3    H116446   1.043   5.853   1.814  0.8460 -0.1929 -0.1602
 5480TIP3    H216447   1.015   5.897   1.955 -0.1935  0.3209 -0.5187
 5481TIP3   OH216448   4.734   2.546   2.893  0.3703  0.2626  0.1628
 5481TIP3    H116449   4.656   2.505   2.855 -0.1704  0.0122  1.5094
 5481TIP3    H216450   4.730   2.637   2.863  0.3644 -0.0894 -0.9740
 5482TIP3   OH216451   4.329   3.338   0.820  0.4203  0.7238  0.6097
 5482TIP3    H116452   4.406   3.378   0.780  1.5713 -1.3234  0.6517
 5482TIP3    H216453   4.280   3.302   0.747 -0.2393  1.5691  0.6279
 5483TIP3   OH216454   5.592   1.842   0.162  0.3643  0.0510 -0.2888
 5483TIP3    H116455   5.632   1.920   0.123  2.4467  0.6702  2.7037
 5483TIP3    H216456   5.631   1.769   0.114  0.2102  0.7792 -1.5666
 5484TIP3   OH216457   0.162   4.994   0.787 -0.0751 -0.2913  0.0882
 5484TIP3    H116458   0.118   5.072   0.819 -0.3401 -1.0105  1.5274
 5484TIP3    H216459   0.102   4.923   0.806  1.8448 -1.3904  2.6827
 5485TIP3   OH216460   1.502   2.331   4.922  0.2582  0.0059  0.4539
 5485TIP3    H116461   1.554   2.373   4.853 -1.4762 -0.1629 -1.0242
 5485TIP3    H216462   1.464   2.403   4.971  0.3310  0.1458  0.3060
 5486TIP3   OH216463   3.609   3.290   0.323  0.5007  0.3534 -0.0812
 5486TIP3    H116464   3.649   3.203   0.320  0.8055  0.4239  1.3016
 5486TIP3    H216465   3.548   3.285   0.397  0.1790  1.1800 -0.2863
 5487TIP3   OH216466   5.707   3.792   4.385  0.5110  0.5131 -0.2594
 5487TIP3    H116467   5.656   3.712   4.375  0.3063  0.6742 -0.5475
 5487TIP3    H216468   5.731   3.816   4.295 -0.8467  1.6764 -0.3513
 5488TIP3   OH216469   0.918   0.147   1.686  0.0228  0.2615  0.2064
 5488TIP3    H116470   0.917   0.184   1.774 -2.6422  1.3026 -0.1622
 5488TIP3    H216471   0.948   0.219   1.631  3.8567 -1.0062  0.3415
 5489TIP3   OH216472   5.004   5.382   0.073  0.0565 -0.4982 -0.1341
 5489TIP3    H116473   4.924   5.341   0.041 -0.7520  0.0753  1.0797
 5489TIP3    H216474   4.980   5.474   0.087  0.9527 -0.3022  0.1732
 5490TIP3   OH216475   1.125   4.306   1.739  0.4340 -0.1971 -0.1047
 5490TIP3    H116476   1.138   4.252   1.817  1.7422  0.6408  0.2990
 5490TIP3    H216477   1.185   4.380   1.751  0.4271  0.1170 -1.7582
 5491TIP3   OH216478   2.219   0.604   4.422 -0.2595 -0.3842 -0.0502
 5491TIP3    H116479   2.196   0.649   4.503  0.6964  1.0431 -0.5169
 5491TIP3    H216480   2.226   0.512   4.446  0.7512  0.0968  1.6854
 5492TIP3   OH216481   0.963   4.255   0.803  0.2926  0.0225  0.2337
 5492TIP3    H116482   0.932   4.168   0.825 -1.5016  0.7583  0.7977
 5492TIP3    H216483   0.966   4.302   0.886  0.2659  0.7759 -0.1729
 5493TIP3   OH216484   5.028   4.460   3.671  0.0354 -0.5488 -0.4074
 5493TIP3    H116485   5.076   4.467   3.753  0.0625  0.3238 -0.4889
 5493TIP3    H216486   5.018   4.550   3.641  0.5554 -0.8738 -1.6627
 5494TIP3   OH216487   3.388   5.606   1.696  0.1272  0.5920 -0.6488
 5494TIP3    H116488   3.315   5.652   1.655 -0.1996  1.5544  0.9211
 5494TIP3    H216489   3.420   5.666   1.764  1.7063 -0.2392 -0.5978
 5495TIP3   OH216490   5.344   0.735   2.045 -0.1872 -0.1087 -0.3075
 5495TIP3    H116491   5.327   0.641   2.048 -0.3668 -0.0914 -0.7157
 5495TIP3    H216492   5.432   0.743   2.010  0.0917 -0.1461  0.3732
 5496TIP3   OH216493   4.269   2.998   4.479  0.0117  0.2266  0.1085
 5496TIP3    H116494   4.240   2.917   4.522  0.0276  0.0313 -0.2376
 5496TIP3    H216495   4.254   2.981   4.386 -1.2190  1.1241  0.1269
 5497TIP3   OH216496   4.423   4.080   0.356 -0.2863  0.3087 -0.4880
 5497TIP3    H116497   4.373   4.158   0.332 -0.2988  0.0428 -1.3482
 5497TIP3    H216498   4.511   4.114   0.376 -0.3317  0.5617 -0.7066
 5498TIP3   OH216499   1.506   0.781   2.079 -0.6385  0.6887 -0.0965
 5498TIP3    H116500   1.551   0.698   2.061 -1.2621  0.6833 -1.7315
 5498TIP3    H216501   1.464   0.767   2.164  0.2890 -0.2214  0.2350
 5499TIP3   OH216502   4.301   3.713   2.193 -0.4106  0.0697 -0.9089
 5499TIP3    H116503   4.347   3.693   2.112 -1.6291  1.4316 -1.9935
 5499TIP3    H216504   4.295   3.809   2.194 -1.0932  0.0355  0.4097
 5500TIP3   OH216505   2.303   2.004   2.924  0.0368  0.0404  0.3630
 5500TIP3    H116506   2.376   2.057   2.955 -0.5410  2.0642 -1.4467
 5500TIP3    H216507   2.226   2.038   2.971 -0.0998 -0.4071  0.4728
 5501TIP3   OH216508   6.167   3.881   0.205 -0.3481  0.0560  0.2742
 5501TIP3    H116509   6.251   3.849   0.238 -0.2051 -0.1966 -0.3280
 5501TIP3    H216510   6.130   3.807   0.157 -1.0984  0.0317  0.8483
 5502TIP3   OH216511   4.816   3.126   1.721 -0.4704 -0.5370 -0.7174
 5502TIP3    H116512   4.732   3.167   1.743 -0.8967 -2.2323  1.1137
 5502TIP3    H216513   4.792   3.040   1.687  0.4809 -1.3355  0.5139
 5503TIP3   OH216514   3.728   4.952   5.030  0.5573  0.1175 -0.3972
 5503TIP3    H116515   3.808   4.983   5.072  0.8334  1.9111 -2.0323
 5503TIP3    H216516   3.750   4.950   4.936 -1.6596  2.1014 -1.0686
 5504TIP3   OH216517   1.352   5.998   3.999 -0.0707  0.7998 -1.1432
 5504TIP3    H116518   1.307   5.968   4.078  3.0807  0.1299  0.5670
 5504TIP3    H216519   1.357   5.921   3.944  0.5776  0.3682 -0.5014
 5505TIP3   OH216520   5.642   4.163   3.096 -0.7133 -0.4000 -0.4861
 5505TIP3    H116521   5.705   4.233   3.081 -1.5986  0.3865 -0.5992
 5505TIP3    H216522   5.679   4.113   3.169  0.2133 -0.1802 -0.7845
 5506TIP3   OH216523   3.584   5.207   0.994 -0.1512 -0.4423  0.4479
 5506TIP3    H116524   3.571   5.297   0.966 -0.9277 -0.9050 -0.7652
 5506TIP3    H216525   3.674   5.204   1.028  1.2495 -0.0140 -2.8886
 5507TIP3   OH216526   2.211   1.536   1.439  0.1419  0.2867 -0.0343
 5507TIP3    H116527   2.279   1.468   1.438  0.5002  0.6038 -2.1774
 5507TIP3    H216528   2.130   1.490   1.420  0.5149  0.4789 -2.4580
 5508TIP3   OH216529   2.142   2.641   3.541  0.0397 -0.1374  0.0324
 5508TIP3    H116530   2.189   2.598   3.613 -0.6740  0.6364  0.9890
 5508TIP3    H216531   2.105   2.569   3.491  0.7824 -0.7049  0.2781
 5509TIP3   OH216532   3.297   1.303   2.084  0.4079 -0.5955  0.2249
 5509TIP3    H116533   3.251   1.292   2.167 -0.7786 -2.5566 -0.6281
 5509TIP3    H216534   3.280   1.394   2.059  0.7997  0.0346  2.1027
 5510TIP3   OH216535   5.155   1.009   4.066  0.2409  0.2429  0.3383
 5510TIP3    H116536   5.165   0.985   4.158 -0.1001  0.4142  0.4206
 5510TIP3    H216537   5.241   1.044   4.041  0.7854 -1.1367  0.1887
 5511TIP3   OH216538   4.486   0.908   1.797  0.4870 -0.0031  0.6509
 5511TIP3    H116539   4.451   0.994   1.774  0.0154  0.2263  2.1298
 5511TIP3    H216540   4.580   0.924   1.813  0.7913 -0.1424 -0.8891
 5512TIP3   OH216541   4.561   2.651   4.770  0.1751 -0.3899  0.4333
 5512TIP3    H116542   4.472   2.640   4.737  0.1486  0.3428  0.2566
 5512TIP3    H216543   4.549   2.668   4.864  0.1418 -0.5182  0.4524
 5513TIP3   OH216544   2.222   3.722   4.663 -0.0014 -0.2871 -0.2729
 5513TIP3    H116545   2.254   3.798   4.711  0.5840 -1.3691  1.1531
 5513TIP3    H216546   2.137   3.703   4.703 -0.1155 -0.4125 -0.5742
 5514TIP3   OH216547   4.341   2.426   3.633  0.6077  0.0264  0.3406
 5514TIP3    H116548   4.409   2.438   3.567  2.1521  0.0126  1.8567
 5514TIP3    H216549   4.317   2.515   3.659  0.5639  0.0205  0.3210
 5515TIP3   OH216550   4.820   3.420   2.004  0.6578  0.3078 -0.1707
 5515TIP3    H116551   4.767   3.472   2.064 -0.8401 -0.6515 -0.5868
 5515TIP3    H216552   4.763   3.406   1.928  1.9469  0.1908 -1.1512
 5516TIP3   OH216553   4.775   1.473   3.694 -0.6594  0.2153 -0.3823
 5516TIP3    H116554   4.788   1.560   3.657  0.6190  0.0303 -0.3921
 5516TIP3    H216555   4.859   1.429   3.683 -0.7062 -0.3619  1.3713
 5517TIP3   OH216556   0.423   1.941   1.273 -0.3598  0.6256 -0.3230
 5517TIP3    H116557   0.505   1.946   1.322 -0.2387  0.9895 -0.5547
 5517TIP3    H216558   0.422   2.021   1.221 -0.9406  0.6939 -0.2076
 5518TIP3   OH216559   5.975   2.114   1.768 -0.4622 -0.1936  0.0834
 5518TIP3    H116560   5.906   2.080   1.711 -0.2830 -0.5578  0.0827
 5518TIP3    H216561   6.055   2.069   1.740 -0.3555 -0.3090  0.5575
 5519TIP3   OH216562   5.566   3.766   4.964 -0.8764  0.0090  0.4355
 5519TIP3    H116563   5.545   3.705   4.894 -1.4736  0.6336  0.0564
 5519TIP3    H216564   5.482   3.804   4.990 -0.5688  0.3617  0.9468
 5520TIP3   OH216565   3.805   2.623   4.095  0.2415 -0.2344  0.0428
 5520TIP3    H116566   3.726   2.673   4.114 -0.7085 -2.2344  1.8846
 5520TIP3    H216567   3.875   2.671   4.139 -0.5059 -0.0848  1.1201
 5521TIP3   OH216568   5.117   1.213   1.033 -0.0578  0.0267  0.1342
 5521TIP3    H116569   5.119   1.164   1.116  1.1023 -0.8454 -0.3664
 5521TIP3    H216570   5.042   1.177   0.986  0.4703 -0.9303 -0.0079
 5522TIP3   OH216571   2.088   4.254   4.399  0.2934  0.0116 -0.5617
 5522TIP3    H116572   2.161   4.312   4.420 -0.2262  0.1724  0.8414
 5522TIP3    H216573   2.117   4.208   4.320  1.8818  0.1319 -0.0811
 5523TIP3   OH216574   0.074   5.794   1.889  0.8670 -0.2035  0.1446
 5523TIP3    H116575   0.004   5.775   1.952  0.2111 -0.2318 -0.5765
 5523TIP3    H216576   0.064   5.728   1.820  0.4261  0.8956 -0.8889
 5524TIP3   OH216577   3.965   0.533   3.870 -0.9928  0.4102 -0.0613
 5524TIP3    H116578   3.984   0.483   3.949  0.0480  0.6687 -0.1280
 5524TIP3    H216579   3.870   0.530   3.861 -0.9331 -1.9053 -0.3189
 5525TIP3   OH216580   2.306   3.019   5.086 -0.0220 -0.1905 -0.3286
 5525TIP3    H116581   2.266   3.045   5.003 -0.5970 -1.6061 -0.5219
 5525TIP3    H216582   2.389   3.067   5.088 -0.6605  1.0122 -1.0094
 5526TIP3   OH216583   3.942   4.351   4.573 -0.1316  0.0143 -0.0720
 5526TIP3    H116584   3.873   4.347   4.506 -0.2984  0.3557  0.0785
 5526TIP3    H216585   3.939   4.441   4.605  2.7648  1.1286 -2.5607
 5527TIP3   OH216586   1.003   5.815   3.363  0.7033 -0.4413 -0.4994
 5527TIP3    H116587   0.950   5.798   3.440 -0.5702 -2.1531 -1.6787
 5527TIP3    H216588   0.992   5.909   3.346 -0.4873 -0.4168  0.3229
 5528TIP3   OH216589   0.683   3.118   2.976 -0.1338  0.3746 -0.1474
 5528TIP3    H116590   0.619   3.047   2.970 -0.4677  0.5437  1.0615
 5528TIP3    H216591   0.652   3.185   2.916  0.1577 -0.4638 -1.2703
 5529TIP3   OH216592   4.345   2.864   3.100 -0.3376  0.0522 -0.2852
 5529TIP3    H116593   4.351   2.773   3.071 -4.3644 -0.4848  0.0401
 5529TIP3    H216594   4.363   2.916   3.021  1.5747 -0.9692 -0.5724
 5530TIP3   OH216595   0.715   5.144   4.388 -0.0801  0.0404 -0.2678
 5530TIP3    H116596   0.719   5.083   4.462 -0.5917  0.4905  0.1423
 5530TIP3    H216597   0.796   5.128   4.340 -0.3276 -1.1547 -0.3350
 5531TIP3   OH216598   5.845   0.492   1.231  0.3760 -0.2110 -0.5083
 5531TIP3    H116599   5.896   0.572   1.243  1.0157 -0.2601 -2.5594
 5531TIP3    H216600   5.893   0.425   1.279  0.2987  0.4271  0.5056
 5532TIP3   OH216601   0.011   1.463   2.330 -0.1921  0.0169 -0.0466
 5532TIP3    H116602  -0.051   1.501   2.268  1.2765  0.3668 -1.3663
 5532TIP3    H216603   0.091   1.451   2.279  0.7252 -0.7582  1.5087
 5533TIP3   OH216604   4.564   0.169   4.749  0.0241  0.2609  0.2862
 5533TIP3    H116605   4.502   0.169   4.676 -0.5089 -2.2155  0.6475
 5533TIP3    H216606   4.586   0.261   4.762 -0.4803  0.8554 -2.4546
 5534TIP3   OH216607   3.478   5.351   5.179  0.1576 -0.7219 -0.1323
 5534TIP3    H116608   3.497   5.267   5.222  0.1700 -1.0355 -0.7403
 5534TIP3    H216609   3.471   5.329   5.087  1.4987  0.1555 -0.4745
 5535TIP3   OH216610   4.339   0.277   3.178 -0.1113  0.0833 -0.5226
 5535TIP3    H116611   4.300   0.282   3.091  1.0790  1.6660 -1.0058
 5535TIP3    H216612   4.426   0.242   3.164 -0.1642 -0.3447  0.1419
 5536TIP3   OH216613   0.057   2.483   4.555  0.1719  0.4373  0.6897
 5536TIP3    H116614   0.049   2.419   4.484 -1.1292  2.5134 -1.1624
 5536TIP3    H216615  -0.011   2.460   4.617  1.0185 -1.1238  1.0953
 5537TIP3   OH216616   5.910   0.854   1.950 -0.3236  0.0910 -0.3998
 5537TIP3    H116617   5.977   0.868   1.883 -0.4956  2.5382 -0.1660
 5537TIP3    H216618   5.950   0.794   2.013  1.6209  1.3874 -0.3166
 5538TIP3   OH216619   5.386   5.622   0.876 -0.2257 -0.7957  0.5263
 5538TIP3    H116620   5.318   5.689   0.870  0.6868  0.1117 -0.0055
 5538TIP3    H216621   5.373   5.568   0.798  0.1851 -0.1158 -0.0152
 5539TIP3   OH216622   4.479   4.177   4.886  0.2392 -0.2774  0.2747
 5539TIP3    H116623   4.420   4.227   4.943  1.5599  1.1346  0.4541
 5539TIP3    H216624   4.451   4.086   4.897 -2.2619  0.3618 -0.0718
 5540TIP3   OH216625   2.323   4.391   1.669 -0.1007  0.0167 -0.2615
 5540TIP3    H116626   2.360   4.449   1.602  0.5574 -0.4856 -0.3361
 5540TIP3    H216627   2.389   4.323   1.681 -0.4983 -0.2501  0.4418
 5541TIP3   OH216628   4.676   0.206   3.904  0.2213  0.1907 -0.2926
 5541TIP3    H116629   4.641   0.137   3.848 -1.6268  0.8135  0.0445
 5541TIP3    H216630   4.771   0.195   3.898  0.0022 -2.4294 -0.1840
 5542TIP3   OH216631   4.249   2.424   1.444  0.2829 -0.5845 -0.6231
 5542TIP3    H116632   4.224   2.446   1.354  2.3540 -0.8916 -1.3255
 5542TIP3    H216633   4.229   2.503   1.494 -1.4011 -0.5903 -1.2089
 5543TIP3   OH216634   2.130   0.249   3.331 -0.3303  0.0473  0.5947
 5543TIP3    H116635   2.217   0.271   3.364 -0.1237 -1.2707  1.0073
 5543TIP3    H216636   2.117   0.158   3.358 -0.3469 -0.9784 -2.5003
 5544TIP3   OH216637   3.434   4.583   0.912  0.4797 -0.4616  0.0653
 5544TIP3    H116638   3.434   4.488   0.926 -1.5479 -0.4667  0.3539
 5544TIP3    H216639   3.368   4.597   0.843  1.3905  0.6659 -0.6127
 5545TIP3   OH216640   1.029   2.053   1.241  0.5557  0.0294  0.0653
 5545TIP3    H116641   0.946   2.009   1.224  0.1213  0.6802  0.4415
 5545TIP3    H216642   1.084   1.987   1.283  0.4807 -0.6093 -0.8091
 5546TIP3   OH216643   5.451   0.597   1.415  0.0288 -0.4323 -0.1131
 5546TIP3    H116644   5.376   0.583   1.357 -1.4982  1.3595  1.2840
 5546TIP3    H216645   5.460   0.515   1.462 -2.3103 -0.1845  0.9578
 5547TIP3   OH216646   3.855   4.651   0.343  0.3140  0.4094  0.2589
 5547TIP3    H116647   3.906   4.722   0.304  1.4029  0.0288  0.9348
 5547TIP3    H216648   3.846   4.675   0.435 -0.9465  0.5765  0.1075
 5548TIP3   OH216649   6.010   3.936   1.297  0.3001  0.5402  0.0536
 5548TIP3    H116650   6.066   4.002   1.255 -0.2100  1.2600  0.4885
 5548TIP3    H216651   5.991   3.973   1.383 -1.4736  0.6765 -0.3686
 5549TIP3   OH216652   4.153   2.851   0.807  0.0253  0.2035  0.2236
 5549TIP3    H116653   4.199   2.826   0.726  0.3708  2.1114 -0.2081
 5549TIP3    H216654   4.109   2.933   0.785 -0.6152  0.2849  1.7257
 5550TIP3   OH216655   4.059   0.148   0.500 -0.4623  0.5634 -0.3979
 5550TIP3    H116656   4.111   0.155   0.420 -0.9512 -2.1070 -1.0153
 5550TIP3    H216657   4.117   0.105   0.562 -0.3932  1.8216  0.4478
 5551TIP3   OH216658   3.810   0.252   5.071  0.0293  0.1587 -0.2859
 5551TIP3    H116659   3.883   0.232   5.012  0.1832 -0.9490  0.2535
 5551TIP3    H216660   3.734   0.260   5.014  0.0055 -1.7895 -0.5847
 5552TIP3   OH216661   3.677   1.808   4.037  0.4364 -0.2812 -0.0425
 5552TIP3    H116662   3.589   1.846   4.041  0.6419  0.5961 -2.2668
 5552TIP3    H216663   3.722   1.844   4.113 -0.8384 -0.0329  0.6341
 5553TIP3   OH216664   2.242   2.788   3.315 -0.1694 -0.6311 -0.2671
 5553TIP3    H116665   2.185   2.744   3.251  1.0374 -0.9461 -1.1632
 5553TIP3    H216666   2.230   2.739   3.396 -1.9984 -0.0150 -0.1208
 5554TIP3   OH216667   6.126   4.624   0.897 -0.0911 -0.1247  0.4388
 5554TIP3    H116668   6.061   4.694   0.889  0.3504  0.1968 -0.3177
 5554TIP3    H216669   6.120   4.576   0.815  0.8472  0.0963  0.2324
 5555TIP3   OH216670   1.915   2.828   1.931  0.3276 -0.3887 -0.4912
 5555TIP3    H116671   1.926   2.923   1.941  1.5628 -0.0963 -3.5195
 5555TIP3    H216672   1.828   2.810   1.967  0.1812  1.8505  0.4190
 5556TIP3   OH216673   4.645   0.050   1.432  0.0825 -0.4834  0.5207
 5556TIP3    H116674   4.739   0.033   1.441 -0.0321 -1.1057  0.5993
 5556TIP3    H216675   4.607   0.015   1.513 -0.3554 -1.3186 -0.0366
 5557TIP3   OH216676   6.049   1.644   2.556 -0.1478  0.1558 -0.3026
 5557TIP3    H116677   6.107   1.696   2.500  0.7738 -0.5909 -0.0688
 5557TIP3    H216678   6.050   1.690   2.640  0.5828 -0.1703 -0.1265
 5558TIP3   OH216679   3.109   1.471   5.072 -0.3531 -0.2485  0.1744
 5558TIP3    H116680   3.067   1.414   5.008 -0.9580  0.1955  0.1755
 5558TIP3    H216681   3.051   1.470   5.147 -0.1743  0.0744  0.3190
 5559TIP3   OH216682   6.082   2.008   3.336  0.5973  0.4252 -0.4316
 5559TIP3    H116683   6.175   1.990   3.319  0.4634  0.3092 -1.0682
 5559TIP3    H216684   6.035   1.946   3.280  0.1348  0.6631 -0.3117
 5560TIP3   OH216685   5.119   5.694   3.792 -0.2025  0.2696  0.0053
 5560TIP3    H116686   5.081   5.630   3.732  1.8332 -0.1527 -0.9390
 5560TIP3    H216687   5.053   5.763   3.799 -1.5462 -0.8982 -0.6676
 5561TIP3   OH216688   3.337   4.618   2.801 -0.1762  0.3197 -0.2327
 5561TIP3    H116689   3.349   4.641   2.894  0.2609 -0.6679 -0.0375
 5561TIP3    H216690   3.380   4.689   2.754 -1.3944  1.4490  0.2741
 5562TIP3   OH216691   0.284   3.462   1.664 -0.2272  0.0126 -0.2895
 5562TIP3    H116692   0.211   3.418   1.620 -0.9633  0.8237  0.0820
 5562TIP3    H216693   0.358   3.450   1.606 -0.8982  0.0347 -1.1747
 5563TIP3   OH216694   2.904   4.428   2.101  0.1276  0.4105  0.0091
 5563TIP3    H116695   2.910   4.361   2.169  1.5122 -0.2053 -0.6748
 5563TIP3    H216696   2.951   4.503   2.136  2.3627 -0.4830 -0.8521
 5564TIP3   OH216697   4.150   3.633   4.599 -0.1698 -0.6790 -0.0076
 5564TIP3    H116698   4.192   3.715   4.574 -2.2411  0.6922  0.7865
 5564TIP3    H216699   4.217   3.586   4.649  1.7590 -0.4828 -2.2022
 5565TIP3   OH216700   6.051   5.058   1.123  0.1144 -0.2113  0.3018
 5565TIP3    H116701   5.980   5.062   1.059 -0.8978 -1.7826  1.2469
 5565TIP3    H216702   6.110   4.990   1.090  0.9279  0.7195 -0.2082
 5566TIP3   OH216703   1.696   4.264   0.889 -0.4051  0.1406 -0.0499
 5566TIP3    H116704   1.629   4.231   0.949  0.5522  2.0898  2.2792
 5566TIP3    H216705   1.689   4.359   0.894  1.5868  0.3864 -0.8066
 5567TIP3   OH216706   0.226   1.604   2.159 -0.0587 -0.0103 -0.8083
 5567TIP3    H116707   0.300   1.545   2.167  0.2584  0.3756 -0.8355
 5567TIP3    H216708   0.198   1.595   2.068  0.8679  0.8887 -1.2133
 5568TIP3   OH216709   2.720   2.118   4.849  0.5592 -0.4321  0.0038
 5568TIP3    H116710   2.803   2.163   4.863 -0.2879  1.5982 -1.0819
 5568TIP3    H216711   2.670   2.135   4.929  0.4584  0.0652 -0.1635
 5569TIP3   OH216712   3.935   2.777   1.671 -0.4130  0.0279 -0.4539
 5569TIP3    H116713   3.951   2.855   1.724  0.3604  0.4887 -1.3355
 5569TIP3    H216714   3.854   2.797   1.624 -0.0126  0.4722 -0.9684
 5570TIP3   OH216715   3.783   3.785   2.730  0.0664 -0.3289 -0.0606
 5570TIP3    H116716   3.839   3.709   2.714 -0.2679 -0.4705 -0.5920
 5570TIP3    H216717   3.736   3.764   2.811  0.4370 -0.4096  0.1368
 5571TIP3   OH216718   6.120   3.417   4.774 -0.5726  0.4213 -0.1405
 5571TIP3    H116719   6.036   3.408   4.818 -0.9918  2.5298 -0.4030
 5571TIP3    H216720   6.142   3.510   4.782  2.5121 -0.2718  1.2915
 5572TIP3   OH216721   1.881   0.645   4.314 -0.0021 -0.0960  0.1922
 5572TIP3    H116722   1.882   0.652   4.409  1.9098 -0.2025  0.2283
 5572TIP3    H216723   1.847   0.729   4.284  0.8888  0.5609  0.9549
 5573TIP3   OH216724   1.541   4.705   3.120 -0.6509  0.3117 -0.0450
 5573TIP3    H116725   1.511   4.642   3.054  0.4757 -0.9458  0.5912
 5573TIP3    H216726   1.536   4.658   3.202  2.0229  0.3542  0.2256
 5574TIP3   OH216727   4.252   2.150   3.368  0.2220 -0.1734  0.3528
 5574TIP3    H116728   4.205   2.082   3.319 -0.6489  0.4076  0.3623
 5574TIP3    H216729   4.189   2.182   3.432  0.1206  1.6477 -0.5977
 5575TIP3   OH216730   1.811   3.837   2.076  0.0690 -0.2406  0.2158
 5575TIP3    H116731   1.785   3.877   1.993  0.1999  0.4949  0.5184
 5575TIP3    H216732   1.861   3.905   2.121  0.4658 -0.8215  0.6646
 5576TIP3   OH216733   2.847   0.282   0.738 -0.8021 -0.3145 -0.5542
 5576TIP3    H116734   2.844   0.248   0.827  2.5013 -0.0256 -0.1848
 5576TIP3    H216735   2.888   0.368   0.747 -0.3149 -0.3080 -2.3588
 5577TIP3   OH216736   5.199   1.698   3.103  0.5789 -0.0935 -0.2468
 5577TIP3    H116737   5.219   1.732   3.016  2.8416  0.4647  0.4249
 5577TIP3    H216738   5.201   1.775   3.160 -1.5509 -0.3512  0.2364
 5578TIP3   OH216739   0.663   5.881   0.880 -0.6772  0.0679  0.1678
 5578TIP3    H116740   0.614   5.963   0.886 -2.3408 -0.7979 -0.7486
 5578TIP3    H216741   0.605   5.823   0.830  1.6841 -0.7411 -1.8233
 5579TIP3   OH216742   3.871   5.052   4.334  0.8167 -0.2047 -0.2287
 5579TIP3    H116743   3.897   4.961   4.321  1.6398 -0.4674  2.5230
 5579TIP3    H216744   3.950   5.103   4.315  0.6792 -0.1623 -0.6899
 5580TIP3   OH216745   1.803   2.748   1.245  0.3757  0.5081 -0.8142
 5580TIP3    H116746   1.887   2.728   1.203 -0.7190 -1.1415 -2.3505
 5580TIP3    H216747   1.783   2.671   1.298 -0.5677  0.4939 -1.1689
 5581TIP3   OH216748   5.840   2.730   1.476 -0.3576 -0.3773 -0.3644
 5581TIP3    H116749   5.897   2.806   1.482  1.5339 -1.7736  0.1409
 5581TIP3    H216750   5.756   2.765   1.447 -0.0018  2.1046  1.3125
 5582TIP3   OH216751   4.064   0.603   2.399 -0.1918  0.1695 -0.3553
 5582TIP3    H116752   4.110   0.687   2.405  1.4078 -0.6930  0.2577
 5582TIP3    H216753   4.005   0.602   2.474  0.3770  0.4200  0.1028
 5583TIP3   OH216754   1.898   5.627   3.250 -0.6133 -0.3504 -0.4692
 5583TIP3    H116755   1.919   5.536   3.227 -1.8683 -0.6836 -0.4152
 5583TIP3    H216756   1.824   5.619   3.312 -0.1301  0.6767  0.2706
 5584TIP3   OH216757   3.980   2.077   4.744  0.4175 -0.2600 -0.0063
 5584TIP3    H116758   3.892   2.108   4.725 -0.5508 -0.6451  3.2469
 5584TIP3    H216759   3.968   2.009   4.810  3.1458 -0.5520  0.3088
 5585TIP3   OH216760   3.259   1.961   1.730 -0.1406  0.6384 -0.0471
 5585TIP3    H116761   3.346   1.948   1.692 -1.0832 -0.6715 -1.9402
 5585TIP3    H216762   3.227   1.872   1.747 -0.3054  1.1455  2.7292
 5586TIP3   OH216763   3.067   5.216   1.040 -0.3170  0.0275 -0.3395
 5586TIP3    H116764   3.024   5.142   1.082  0.1562 -1.1150 -1.7689
 5586TIP3    H216765   3.159   5.208   1.065 -0.3763  0.5345  0.0489
 5587TIP3   OH216766   2.836   4.900   2.553 -0.8838 -0.2692  0.0895
 5587TIP3    H116767   2.819   4.870   2.643 -1.0289  0.3649  0.2775
 5587TIP3    H216768   2.772   4.969   2.538 -0.3537  0.1610 -0.2292
 5588TIP3   OH216769   5.253   5.909   2.187  0.5323 -0.3355  0.3212
 5588TIP3    H116770   5.205   5.978   2.141  0.5749 -0.7242 -0.3164
 5588TIP3    H216771   5.311   5.956   2.247  1.9277  0.2868 -1.4128
 5589TIP3   OH216772   3.789   2.345   2.945 -0.0874  0.5665  0.0686
 5589TIP3    H116773   3.829   2.425   2.912  0.9388  0.1459  0.2550
 5589TIP3    H216774   3.705   2.374   2.982 -0.8005  1.1823 -1.9372
 5590TIP3   OH216775   1.400   0.997   3.429 -0.5241 -0.2136 -0.4212
 5590TIP3    H116776   1.379   1.088   3.405  1.3443  0.3025 -0.2547
 5590TIP3    H216777   1.481   0.978   3.382  1.5746 -0.2235  2.8635
 5591TIP3   OH216778   2.417   5.301   1.181 -0.7887  0.1507  0.6026
 5591TIP3    H116779   2.511   5.289   1.163 -0.4948  0.8282  1.5909
 5591TIP3    H216780   2.390   5.368   1.118 -0.5042  0.2963  0.6333
 5592TIP3   OH216781   2.088   5.679   1.687 -0.1437  0.1659  0.2204
 5592TIP3    H116782   2.158   5.633   1.733 -1.4099 -2.3149 -0.1907
 5592TIP3    H216783   2.065   5.751   1.746  0.3682 -1.0686  2.0362
 5593TIP3   OH216784   5.577   2.807   2.498 -0.5757  0.4798  0.5897
 5593TIP3    H116785   5.611   2.809   2.588 -2.2676  1.3336  1.2659
 5593TIP3    H216786   5.545   2.718   2.487  1.9230 -0.4240 -0.1529
 5594TIP3   OH216787   2.562   5.505   5.065  0.2239  0.1267  0.1224
 5594TIP3    H116788   2.531   5.588   5.100 -1.8461  0.2943 -1.8871
 5594TIP3    H216789   2.618   5.529   4.991 -1.7269 -0.1557 -1.5510
 5595TIP3   OH216790   5.593   0.281   1.210 -0.6889 -0.8886 -0.4505
 5595TIP3    H116791   5.660   0.228   1.254  0.3423 -0.7570 -1.7601
 5595TIP3    H216792   5.629   0.370   1.209 -0.7273 -0.8658 -1.4107
 5596TIP3   OH216793   0.458   1.553   3.010 -0.0172 -0.7187  0.5141
 5596TIP3    H116794   0.470   1.483   2.946  1.0142  0.8166 -1.0787
 5596TIP3    H216795   0.365   1.575   3.003 -0.3739 -1.9366  1.0942
 5597TIP3   OH216796   4.793   2.268   1.204 -0.1937  0.3103  0.4287
 5597TIP3    H116797   4.862   2.228   1.152  0.3343  2.2009 -0.4266
 5597TIP3    H216798   4.721   2.282   1.142 -0.2153  1.0152  0.6031
 5598TIP3   OH216799   5.362   5.755   1.332 -0.3042 -0.5740 -0.2250
 5598TIP3    H116800   5.379   5.692   1.403 -1.3021 -2.7576 -1.8121
 5598TIP3    H216801   5.446   5.763   1.287 -0.0213 -0.2822  0.3417
 5599TIP3   OH216802   2.157   5.689   2.633  0.0342  0.1333  0.2366
 5599TIP3    H116803   2.071   5.651   2.617 -0.9759  2.6443 -0.8981
 5599TIP3    H216804   2.217   5.635   2.582 -1.2011 -0.3474 -0.7683
 5600TIP3   OH216805   2.087   3.929   3.961  0.6965  0.9658 -0.0489
 5600TIP3    H116806   1.992   3.919   3.955  0.8650 -0.8938 -0.0610
 5600TIP3    H216807   2.104   3.941   4.054  0.6319 -1.4887  0.3403
 5601TIP3   OH216808   6.149   2.263   0.779 -0.2665 -0.2663 -0.0341
 5601TIP3    H116809   6.163   2.297   0.691  1.0907 -0.3757  0.1050
 5601TIP3    H216810   6.127   2.171   0.766 -1.0764 -0.0393 -0.2946
 5602TIP3   OH216811   0.051   2.617   3.921  0.0979 -0.1280 -0.2036
 5602TIP3    H116812   0.095   2.559   3.984  0.8310  0.2156 -0.3795
 5602TIP3    H216813   0.115   2.628   3.851 -0.2580  0.4230 -0.4494
 5603TIP3   OH216814   4.661   2.256   4.268  0.9391  0.1043 -0.6111
 5603TIP3    H116815   4.739   2.201   4.273 -0.0751 -1.3068  0.5671
 5603TIP3    H216816   4.588   2.195   4.279 -0.4852  1.0565 -3.5812
 5604TIP3   OH216817   2.648   0.829   3.096  0.3809 -0.2270 -0.2095
 5604TIP3    H116818   2.739   0.835   3.067  0.4292 -0.6890 -0.1553
 5604TIP3    H216819   2.603   0.782   3.025  0.2570 -0.3154 -0.0724
 5605TIP3   OH216820   2.900   0.707   1.992  0.4121  0.0017 -0.0899
 5605TIP3    H116821   2.892   0.782   1.933 -2.3906  0.3422  0.5740
 5605TIP3    H216822   2.846   0.639   1.952 -1.7314  0.3129  2.0969
 5606TIP3   OH216823   4.755   4.684   3.595 -0.2279 -0.1443 -1.0239
 5606TIP3    H116824   4.734   4.664   3.687  0.3826  0.9363 -0.6361
 5606TIP3    H216825   4.674   4.722   3.561 -0.0155  0.7945 -0.5136
 5607TIP3   OH216826   4.679   3.705   1.522  0.4785  0.1326 -0.1842
 5607TIP3    H116827   4.732   3.749   1.588  2.1981  0.3088 -1.6173
 5607TIP3    H216828   4.661   3.771   1.456  1.3517 -0.7467 -1.3536
 5608TIP3   OH216829   2.058   4.676   0.116  0.1846 -0.0362 -0.0055
 5608TIP3    H116830   1.981   4.712   0.160  1.2979 -0.6622  2.6412
 5608TIP3    H216831   2.059   4.584   0.142  0.9251 -0.4458 -1.3962
 5609TIP3   OH216832   3.077   1.491   3.408  0.4365 -0.3172  0.0976
 5609TIP3    H116833   2.998   1.523   3.363 -1.8412 -0.2744  3.6963
 5609TIP3    H216834   3.150   1.528   3.359 -1.7457  0.2562 -3.0106
 5610TIP3   OH216835   0.643   3.871   0.097  0.0696  0.2322  0.3386
 5610TIP3    H116836   0.644   3.785   0.140 -1.1681  0.0046 -0.0274
 5610TIP3    H216837   0.718   3.918   0.134  0.5438 -0.8701  0.8222
 5611TIP3   OH216838   5.886   5.946   2.029 -0.4594  0.0870  0.0028
 5611TIP3    H116839   5.863   5.903   2.111  0.9044  0.3097  0.5230
 5611TIP3    H216840   5.817   5.920   1.968 -0.6461 -1.3655  0.7904
 5612TIP3   OH216841   1.994   1.009  -0.013  0.1093 -0.0529  0.2288
 5612TIP3    H116842   2.030   0.922  -0.033  0.5261  0.0712  0.4203
 5612TIP3    H216843   1.966   1.002   0.079 -2.3264 -0.8000 -0.4866
 5613TIP3   OH216844   5.167   3.740   3.744 -0.3495  0.3503 -0.3793
 5613TIP3    H116845   5.129   3.669   3.693  2.0005 -1.1366 -0.2151
 5613TIP3    H216846   5.184   3.810   3.681  0.0863 -0.4248 -1.1248
 5614TIP3   OH216847   5.366   2.751   1.727 -0.6070  0.4378  0.2025
 5614TIP3    H116848   5.436   2.711   1.777 -1.0836 -1.0107 -0.2316
 5614TIP3    H216849   5.286   2.712   1.762 -0.9993  0.0001 -1.1035
 5615TIP3   OH216850   0.932   2.087   1.817 -0.0958 -0.1297  0.1994
 5615TIP3    H116851   0.876   2.109   1.891 -0.5320  0.7480 -0.3752
 5615TIP3    H216852   1.019   2.116   1.844 -0.1985 -0.0945  0.4914
 5616TIP3   OH216853   4.483   4.525   3.347 -0.2092  0.2237 -0.6859
 5616TIP3    H116854   4.413   4.498   3.407  1.2455 -1.3941  0.3746
 5616TIP3    H216855   4.481   4.460   3.277  0.2766  0.1043 -0.5961
 5617TIP3   OH216856   5.504   3.993   3.811 -0.0032  0.0582  0.4814
 5617TIP3    H116857   5.502   3.954   3.898 -0.0616 -0.7181  0.1426
 5617TIP3    H216858   5.539   4.081   3.824 -0.8551  0.2744  1.4043
 5618TIP3   OH216859   1.468   0.241   0.429 -0.1333  0.2538 -0.0543
 5618TIP3    H116860   1.482   0.148   0.450 -0.8887  0.2382  0.4442
 5618TIP3    H216861   1.448   0.281   0.514 -2.7480  0.2971 -0.6205
 5619TIP3   OH216862   0.701   1.995   3.507 -0.0114 -0.3313 -0.3032
 5619TIP3    H116863   0.715   2.054   3.433 -1.3529  1.5152  0.8163
 5619TIP3    H216864   0.690   2.053   3.582  0.4662 -2.1144  1.2166
 5620TIP3   OH216865   4.718   1.650   0.503 -0.1154 -0.3616 -0.0236
 5620TIP3    H116866   4.761   1.566   0.486 -2.1424 -1.7783  1.4070
 5620TIP3    H216867   4.764   1.685   0.579 -0.0802 -0.7972  0.1587
 5621TIP3   OH216868   0.793   2.128   1.591  0.1993  0.3640  0.1303
 5621TIP3    H116869   0.847   2.112   1.668 -2.2286 -0.1446  1.8148
 5621TIP3    H216870   0.730   2.194   1.619  1.2280  2.7068 -2.4672
 5622TIP3   OH216871   2.253   3.793   5.030 -0.1998  0.8111 -0.3040
 5622TIP3    H116872   2.188   3.776   5.098 -0.3875 -0.5169 -0.7788
 5622TIP3    H216873   2.208   3.851   4.968 -1.1759 -0.5144 -0.9069
 5623TIP3   OH216874   2.435   2.290   4.184 -0.0462 -0.1916 -0.1735
 5623TIP3    H116875   2.473   2.256   4.265  1.1158  2.1340  0.3413
 5623TIP3    H216876   2.341   2.293   4.201  0.2884  1.8134  1.8068
 5624TIP3   OH216877   4.829   5.700   4.614 -0.2287  0.1374  0.2238
 5624TIP3    H116878   4.842   5.765   4.545 -0.2309 -0.0583  0.0343
 5624TIP3    H216879   4.780   5.746   4.682  0.7157  0.6389  0.5714
 5625TIP3   OH216880   4.644   0.011   4.358 -0.0501  0.0177 -0.4730
 5625TIP3    H116881   4.565   0.025   4.307 -0.0041  1.5278 -0.1608
 5625TIP3    H216882   4.710   0.066   4.317  0.1115  0.8774  0.8764
 5626TIP3   OH216883   6.297   4.185   0.580  0.4609 -0.6429 -0.1038
 5626TIP3    H116884   6.304   4.091   0.567  0.3349 -1.0265  2.1885
 5626TIP3    H216885   6.374   4.221   0.535  1.2901 -1.9747  0.2070
 5627TIP3   OH216886   0.236   3.059   0.162  0.1671  0.3734  0.0539
 5627TIP3    H116887   0.249   3.050   0.256  1.0175 -1.1272 -0.1810
 5627TIP3    H216888   0.146   3.032   0.146 -1.0094  3.4388  0.7409
 5628TIP3   OH216889   5.712   4.239   4.812 -0.1390  0.2668  0.8237
 5628TIP3    H116890   5.748   4.322   4.841  1.0181  0.5872 -1.3182
 5628TIP3    H216891   5.779   4.175   4.834 -0.7300 -0.0274  1.8429
 5629TIP3   OH216892   2.265   4.128   1.868 -0.5723  0.6577  0.3373
 5629TIP3    H116893   2.358   4.153   1.871 -0.2319 -0.5659  0.7301
 5629TIP3    H216894   2.218   4.210   1.854  0.5634  1.3145  0.2619
 5630TIP3   OH216895   5.325   1.896   0.272  0.3609 -1.0733  0.0416
 5630TIP3    H116896   5.309   1.974   0.218  1.2117 -0.6493  0.3884
 5630TIP3    H216897   5.403   1.856   0.235 -0.4826 -2.1966 -0.5911
 5631TIP3   OH216898   2.221   5.830   1.985 -1.0015 -0.3162  0.3197
 5631TIP3    H116899   2.130   5.828   1.956 -0.8354  1.6755 -0.5174
 5631TIP3    H216900   2.231   5.914   2.028 -0.0256 -1.3363  2.1866
 5632TIP3   OH216901   3.873   4.388   2.592 -0.4752  0.1718  0.4429
 5632TIP3    H116902   3.896   4.362   2.681  1.4957  0.8409  0.1832
 5632TIP3    H216903   3.948   4.439   2.562 -0.3589 -1.3428 -2.1704
 5633TIP3   OH216904   0.125   5.697   4.401 -0.5236 -0.6467  0.5585
 5633TIP3    H116905   0.156   5.648   4.325 -0.8255 -0.3726  0.2597
 5633TIP3    H216906   0.203   5.708   4.456 -0.0198  0.2848 -0.3160
 5634TIP3   OH216907   2.507   4.617   4.225 -0.1227 -0.2899 -0.3601
 5634TIP3    H116908   2.456   4.662   4.157  1.4853  0.9670 -0.7851
 5634TIP3    H216909   2.598   4.627   4.198  0.4712 -1.1226  1.1951
 5635TIP3   OH216910   0.585   5.146   3.751 -0.2820  0.9804  0.3143
 5635TIP3    H116911   0.664   5.098   3.727  0.5609  2.3033  0.3495
 5635TIP3    H216912   0.540   5.089   3.813 -0.3377 -0.6197 -1.1177
 5636TIP3   OH216913   3.221   4.287   3.420 -0.5586 -0.1114 -0.3833
 5636TIP3    H116914   3.234   4.224   3.491 -1.0939  0.3204  0.1153
 5636TIP3    H216915   3.130   4.315   3.430 -0.1094  1.3223 -0.1045
 5637TIP3   OH216916   6.287   1.296   4.286  0.0159  0.1202  0.2838
 5637TIP3    H116917   6.258   1.353   4.357  0.5357  0.5240  0.1737
 5637TIP3    H216918   6.357   1.243   4.325  0.3126  0.3535  0.0679
 5638TIP3   OH216919   5.995   5.399   1.538  0.0864  0.1501  0.0310
 5638TIP3    H116920   5.935   5.464   1.575 -0.1635  0.1461 -0.3680
 5638TIP3    H216921   5.937   5.329   1.506  0.2138  0.7321 -1.5391
 5639TIP3   OH216922   4.525   5.948   3.058  0.1084 -0.5285  0.4208
 5639TIP3    H116923   4.446   5.902   3.032  0.5425 -1.2911  0.4291
 5639TIP3    H216924   4.546   5.912   3.145  0.0074  0.2651  0.7838
 5640TIP3   OH216925   4.323   0.320   2.816 -0.4287  0.0852  0.9916
 5640TIP3    H116926   4.342   0.412   2.797  0.0645 -0.3103 -0.5453
 5640TIP3    H216927   4.231   0.309   2.790  0.3010 -0.5069 -1.6226
 5641TIP3   OH216928   4.291   3.929   1.165 -0.1332 -0.2683 -0.4752
 5641TIP3    H116929   4.290   3.935   1.260 -0.0373  0.5680 -0.5200
 5641TIP3    H216930   4.199   3.920   1.140 -0.1915 -0.1234 -0.3167
 5642TIP3   OH216931   2.712   2.424   1.431  0.2998  0.0176  0.7178
 5642TIP3    H116932   2.670   2.378   1.358  0.4933 -1.0353  1.2610
 5642TIP3    H216933   2.658   2.503   1.444 -0.1343 -0.1315 -0.1096
 5643TIP3   OH216934   1.870   2.378   0.413  0.4318  0.6904  0.1178
 5643TIP3    H116935   1.818   2.444   0.367 -1.7147 -0.2042  1.1235
 5643TIP3    H216936   1.911   2.424   0.485 -2.1473  0.7707  1.6374
 5644TIP3   OH216937   2.996   2.479   3.541 -0.0571  0.2648  0.0295
 5644TIP3    H116938   3.070   2.536   3.563  0.4572 -0.3091 -0.2068
 5644TIP3    H216939   3.014   2.396   3.585 -0.6343  0.1608  0.0888
 5645TIP3   OH216940   1.019   5.317   0.667  0.6100 -0.1405 -0.4731
 5645TIP3    H116941   1.103   5.338   0.707  0.5677 -1.8601  0.6217
 5645TIP3    H216942   1.016   5.370   0.587  1.9791  1.2054  0.3125
 5646TIP3   OH216943   1.748   0.810   0.371 -0.3524  0.0071 -0.6473
 5646TIP3    H116944   1.688   0.751   0.418  0.3505  0.9634  1.6274
 5646TIP3    H216945   1.831   0.801   0.419  0.0852  1.9390 -0.9646
 5647TIP3   OH216946   4.718   2.440   1.667  0.3723 -0.3383 -0.2046
 5647TIP3    H116947   4.684   2.529   1.677 -0.8983 -0.8775  0.3689
 5647TIP3    H216948   4.746   2.436   1.575  0.8472  0.7788 -0.1277
 5648TIP3   OH216949   1.706   4.993   3.546  0.3461 -0.3471  0.1787
 5648TIP3    H116950   1.618   5.015   3.513  0.0331 -0.5872  0.8339
 5648TIP3    H216951   1.761   4.994   3.468 -0.8946 -3.8524 -0.9177
 5649TIP3   OH216952   4.970   0.785   1.085  0.1386  0.2535 -0.2160
 5649TIP3    H116953   4.903   0.837   1.129 -0.8806 -0.3706 -0.9625
 5649TIP3    H216954   5.023   0.848   1.037 -0.7230  0.6685 -0.6443
 5650TIP3   OH216955   5.350   4.033   0.263  0.5392  0.2625 -0.6727
 5650TIP3    H116956   5.357   4.120   0.222 -0.1278  0.4840 -0.3242
 5650TIP3    H216957   5.294   4.047   0.339 -0.2453 -0.6381 -1.0804
 5651TIP3   OH216958   5.054   1.018   2.565  0.0878  0.1747 -0.2910
 5651TIP3    H116959   4.992   0.950   2.589 -0.5218  0.5728 -0.7361
 5651TIP3    H216960   5.089   0.991   2.480  0.2052  0.1659 -0.2398
 5652TIP3   OH216961   2.182   0.042   0.755 -0.5920  0.1180 -0.0116
 5652TIP3    H116962   2.245   0.050   0.683 -0.1674  2.2502  0.5340
 5652TIP3    H216963   2.137   0.126   0.757 -1.3518 -0.2913  1.5448
 5653TIP3   OH216964   4.260   0.921   3.847 -0.0969 -0.1115  0.4210
 5653TIP3    H116965   4.176   0.940   3.804  0.4872  2.0657  0.1092
 5653TIP3    H216966   4.311   0.876   3.781 -0.9091 -1.2527  0.5355
 5654TIP3   OH216967   3.119   2.107   4.315 -0.2656  0.5293  0.0807
 5654TIP3    H116968   3.196   2.063   4.279 -0.9500 -0.1506 -0.6254
 5654TIP3    H216969   3.046   2.070   4.265 -0.9869  1.6083  0.3083
 5655TIP3   OH216970   2.710   4.565   3.187  0.1082  0.1022  0.1251
 5655TIP3    H116971   2.622   4.578   3.151  1.1082  0.3078 -2.4987
 5655TIP3    H216972   2.763   4.633   3.146  1.4178  0.3744  2.1181
 5656TIP3   OH216973   5.927   2.692   3.861  0.2164 -0.1400  0.2695
 5656TIP3    H116974   6.020   2.689   3.842 -0.0873  3.2053 -3.0534
 5656TIP3    H216975   5.914   2.777   3.903 -1.4977  0.3529 -1.1350
 5657TIP3   OH216976   5.075   1.448   1.934  0.1492  0.5429  0.9157
 5657TIP3    H116977   5.147   1.506   1.908 -1.4796  1.8981 -0.7868
 5657TIP3    H216978   5.023   1.501   1.994  0.1217 -0.1612  1.5258
 5658TIP3   OH216979   4.176   4.586   4.151  0.3560 -0.3911 -0.5372
 5658TIP3    H116980   4.204   4.592   4.060 -1.7452  0.9100 -1.1503
 5658TIP3    H216981   4.094   4.538   4.148  1.4162 -2.4964  1.0095
 5659TIP3   OH216982   4.678   4.332   4.737 -0.0390 -0.0045 -0.5058
 5659TIP3    H116983   4.670   4.298   4.648  1.4142  0.9398 -1.0374
 5659TIP3    H216984   4.603   4.295   4.784 -0.5986 -0.8553 -2.0023
 5660TIP3   OH216985   2.619   3.451   5.057  0.0050 -0.0443 -0.3654
 5660TIP3    H116986   2.683   3.448   5.128  0.1374 -1.1560 -0.5118
 5660TIP3    H216987   2.534   3.451   5.101  0.0801 -1.1462 -0.1979
 5661TIP3   OH216988   2.855   2.773   4.485 -0.5122  0.1640 -0.3212
 5661TIP3    H116989   2.853   2.858   4.440  0.2142  0.0362 -0.6117
 5661TIP3    H216990   2.934   2.730   4.451  0.1430  0.1295  1.1854
 5662TIP3   OH216991   2.380   1.346   0.699 -0.0758 -0.0917  0.1153
 5662TIP3    H116992   2.445   1.416   0.688  1.0587 -0.8708  1.4737
 5662TIP3    H216993   2.346   1.358   0.787  1.9267 -2.6009  1.3589
 5663TIP3   OH216994   3.093   2.623   3.896  0.5345  0.0807  0.0380
 5663TIP3    H116995   3.089   2.555   3.964  3.0600  0.6188  0.8494
 5663TIP3    H216996   3.151   2.586   3.829 -1.1826 -0.0567 -1.4327
 5664TIP3   OH216997   6.199   3.217   1.098  0.4322 -0.0525 -0.2381
 5664TIP3    H116998   6.106   3.243   1.099  0.2299 -0.7537  0.3785
 5664TIP3    H216999   6.216   3.188   1.188  1.0038 -0.7769 -0.5736
 5665TIP3   OH217000   5.881   0.663   2.321 -0.0391  0.2208 -0.2690
 5665TIP3    H117001   5.836   0.683   2.239  0.4460  0.6839 -0.4361
 5665TIP3    H217002   5.857   0.734   2.380  0.0340  0.1754 -0.1831
 5666TIP3   OH217003   0.653   5.026   1.179 -0.2355 -0.4545 -0.3024
 5666TIP3    H117004   0.559   5.038   1.193 -0.5854  0.1354 -2.7070
 5666TIP3    H217005   0.660   4.942   1.133  0.5742 -1.1912  1.1226
 5667TIP3   OH217006   3.059   2.548   0.742 -0.1883  0.2493 -0.0788
 5667TIP3    H117007   3.127   2.522   0.804 -0.2399 -0.2268 -0.2179
 5667TIP3    H217008   3.038   2.467   0.694 -1.3583  0.2346  0.4457
 5668TIP3   OH217009   2.584   5.491   2.482  0.1018 -0.4560 -0.1929
 5668TIP3    H117010   2.640   5.559   2.445 -0.0419 -0.3618 -0.2392
 5668TIP3    H217011   2.615   5.480   2.572  0.2182 -0.4316 -0.2296
 5669TIP3   OH217012   4.623   4.559   3.020 -0.0777  0.1185 -0.4035
 5669TIP3    H117013   4.677   4.528   3.092 -2.6059 -2.4760  0.5409
 5669TIP3    H217014   4.670   4.635   2.986  4.3011 -2.0946  0.0484
 5670TIP3   OH217015   1.349   3.138   1.952 -0.2274 -0.3208  0.0342
 5670TIP3    H117016   1.374   3.068   1.892  0.7042 -0.5207  0.6292
 5670TIP3    H217017   1.260   3.162   1.926  0.8643  1.1160 -2.8948
 5671TIP3   OH217018   6.093   4.820   2.213 -0.0027 -0.0627  0.1911
 5671TIP3    H117019   6.106   4.728   2.235 -0.6370 -0.1754  0.1313
 5671TIP3    H217020   6.129   4.829   2.125 -0.5086 -0.4076 -0.0556
 5672TIP3   OH217021   1.150   1.369   1.479  0.0682 -0.5551 -0.3797
 5672TIP3    H117022   1.069   1.418   1.467 -0.1576 -1.3548 -2.7073
 5672TIP3    H217023   1.198   1.418   1.546 -1.7531  0.6798  0.0993
 5673TIP3   OH217024   6.074   5.609   3.985 -0.2859 -0.0993 -0.4650
 5673TIP3    H117025   6.168   5.596   3.979 -0.0015  1.3772  0.3525
 5673TIP3    H217026   6.036   5.529   3.949  1.2780 -1.6813  1.2024
 5674TIP3   OH217027   4.103   0.250   1.749  0.0300 -0.4458  0.0456
 5674TIP3    H117028   4.121   0.296   1.667 -2.1346 -0.0435 -0.2709
 5674TIP3    H217029   4.087   0.320   1.812 -0.2355 -0.7613  0.3324
 5675TIP3   OH217030   0.132   5.907   3.080  0.1229  0.5681 -0.1526
 5675TIP3    H117031   0.189   5.983   3.093  1.5359 -0.3994 -0.4904
 5675TIP3    H217032   0.157   5.873   2.994 -0.9902  0.1235 -0.3197
 5676TIP3   OH217033   4.260   4.453   0.130  0.4270 -0.7258 -0.3835
 5676TIP3    H117034   4.177   4.469   0.085  0.7839 -0.9332 -1.1535
 5676TIP3    H217035   4.249   4.367   0.171  0.0943 -0.5347 -0.0721
 5677TIP3   OH217036   1.419   3.827   1.451  0.1011  0.3584 -0.4830
 5677TIP3    H117037   1.410   3.905   1.507 -1.3266  0.3530 -0.6532
 5677TIP3    H217038   1.364   3.761   1.494  1.1180 -0.4980 -0.4635
 5678TIP3   OH217039   0.424   0.430   2.204 -0.3687  0.5884  0.0817
 5678TIP3    H117040   0.468   0.380   2.135  0.4891  0.1185  0.9554
 5678TIP3    H217041   0.472   0.513   2.207 -1.5929  1.3968 -1.1499
 5679TIP3   OH217042   2.808   0.605   3.308  0.2496  0.1711 -0.1328
 5679TIP3    H117043   2.899   0.622   3.332 -0.1822  0.1445  1.6550
 5679TIP3    H217044   2.793   0.659   3.230  1.7462  0.2822 -0.3612
 5680TIP3   OH217045   3.902   2.591   4.911  0.1094 -0.1292 -0.2003
 5680TIP3    H117046   3.852   2.550   4.982  1.6501  0.2238  1.1693
 5680TIP3    H217047   3.846   2.584   4.834 -1.0149 -1.8728  0.7203
 5681TIP3   OH217048   4.215   5.618   2.510  0.0651  0.4115 -0.0061
 5681TIP3    H117049   4.148   5.638   2.445  0.4457  0.8834 -0.2649
 5681TIP3    H217050   4.265   5.700   2.519  0.4927  0.1218  0.3079
 5682TIP3   OH217051   4.993   4.911   3.874  0.2838  0.2865 -0.1051
 5682TIP3    H117052   4.937   4.941   3.946  1.2914  0.2807  0.7123
 5682TIP3    H217053   5.081   4.907   3.913  0.6586 -0.8345 -1.0245
 5683TIP3   OH217054   1.289   5.251   2.488  0.4417  0.1034 -0.6117
 5683TIP3    H117055   1.198   5.234   2.463  0.4844  0.0843 -0.7573
 5683TIP3    H217056   1.314   5.175   2.541 -0.2736  1.0534  1.1840
 5684TIP3   OH217057   0.932   4.605   5.040  0.4212  0.2785 -0.6675
 5684TIP3    H117058   0.983   4.636   4.966  2.4093 -1.6822 -0.2126
 5684TIP3    H217059   0.891   4.524   5.009  0.3146  0.0660  0.0104
 5685TIP3   OH217060   6.004   1.688   2.251 -0.6446  0.0973  0.0949
 5685TIP3    H117061   5.999   1.758   2.186 -1.0373 -0.9236 -1.0008
 5685TIP3    H217062   5.993   1.608   2.201 -0.4405 -0.7495  1.3634
 5686TIP3   OH217063   2.870   2.141   3.085  0.4386  0.0710  0.3846
 5686TIP3    H117064   2.926   2.071   3.119  2.5743  1.6613  0.3528
 5686TIP3    H217065   2.836   2.185   3.163 -0.0108 -0.2934  0.4015
 5687TIP3   OH217066   2.622   0.153   0.423  0.8450 -0.1382 -0.0882
 5687TIP3    H117067   2.667   0.232   0.451 -0.7189  1.3115 -1.4532
 5687TIP3    H217068   2.646   0.143   0.331  1.8460 -1.8922  0.3092
 5688TIP3   OH217069   3.984   3.511   1.466  0.5482 -0.1982  0.1648
 5688TIP3    H117070   4.017   3.539   1.551 -0.5804  0.8826  0.2822
 5688TIP3    H217071   4.022   3.573   1.404 -0.1966  0.2634  0.1490
 5689TIP3   OH217072   6.020   1.966   0.407  0.4793  0.0833 -0.6388
 5689TIP3    H117073   5.935   1.984   0.446  0.4817  0.8416 -0.9776
 5689TIP3    H217074   6.037   1.874   0.429 -0.3237 -0.0140 -0.3897
 5690TIP3   OH217075   1.253   5.232   1.896  0.0645  0.1703 -0.1443
 5690TIP3    H117076   1.195   5.290   1.847  1.3635  1.0033 -0.7552
 5690TIP3    H217077   1.232   5.248   1.988 -0.8721  0.2169 -0.3582
 5691TIP3   OH217078   1.084   0.892   3.871 -0.4761  0.2170 -0.2275
 5691TIP3    H117079   1.091   0.920   3.962  1.3668 -0.8167  0.0003
 5691TIP3    H217080   1.144   0.949   3.823  0.1009 -0.5436 -0.4350
 5692TIP3   OH217081   6.190   2.303   5.189  0.2142  0.0977  0.2208
 5692TIP3    H117082   6.278   2.309   5.227 -0.4473 -0.8708  2.0260
 5692TIP3    H217083   6.200   2.239   5.117  1.1507  0.7026 -0.2118
 5693TIP3   OH217084   6.106   0.713   4.606  0.5907  0.8978  0.1069
 5693TIP3    H117085   6.162   0.654   4.656  1.4969  2.4996  1.0712
 5693TIP3    H217086   6.059   0.656   4.546 -0.9149 -1.2192  3.0505
 5694TIP3   OH217087   1.806   2.479   1.319 -1.3869 -0.4885  0.3452
 5694TIP3    H117088   1.750   2.404   1.301 -0.6660 -1.2988  1.2773
 5694TIP3    H217089   1.893   2.440   1.331 -1.2958  0.2491  2.5292
 5695TIP3   OH217090   6.159   2.298   2.946 -0.3027 -0.1854  0.5950
 5695TIP3    H117091   6.112   2.275   3.026 -0.4620 -2.7493 -0.1467
 5695TIP3    H217092   6.246   2.261   2.958  0.1129  0.6041  0.1146
 5696TIP3   OH217093   5.032   1.924   2.745  0.1614 -0.1674  0.4784
 5696TIP3    H117094   5.025   1.828   2.743  0.0285 -0.1550  0.2708
 5696TIP3    H217095   5.117   1.943   2.707  0.9796 -0.2793  2.1406
 5697TIP3   OH217096   5.691   0.039   3.975 -0.1143 -0.0086 -0.3529
 5697TIP3    H117097   5.731   0.065   4.058 -0.0890  0.3646 -0.4770
 5697TIP3    H217098   5.629  -0.030   3.999 -0.4110  0.3867  0.0375
 5698TIP3   OH217099   0.074   4.558   1.340 -0.4311  0.0772  0.1342
 5698TIP3    H117100   0.062   4.476   1.291  0.2607  0.2875 -0.4121
 5698TIP3    H217101   0.039   4.540   1.427 -0.4197 -0.7563 -0.0254
 5699TIP3   OH217102   4.727   3.340   0.060 -0.1274  0.1050 -0.4389
 5699TIP3    H117103   4.651   3.323   0.116 -1.4488 -0.4605 -2.3175
 5699TIP3    H217104   4.758   3.253   0.034  1.6109  0.2915  0.7733
 5700TIP3   OH217105   4.161   5.345   4.590  0.7830  0.4261  0.0926
 5700TIP3    H117106   4.152   5.253   4.563 -0.7710  1.2080 -2.3862
 5700TIP3    H217107   4.255   5.362   4.587  0.9445 -0.5686 -1.3966
 5701TIP3   OH217108   1.447   5.090   4.535  0.0585  0.0876 -0.1262
 5701TIP3    H117109   1.521   5.120   4.483  0.7169  0.3571  0.9457
 5701TIP3    H217110   1.420   5.008   4.493 -0.2294  0.8992 -1.6281
 5702TIP3   OH217111   4.504   2.667   2.071  0.1292  0.5522  0.5325
 5702TIP3    H117112   4.486   2.593   2.130  0.0816  0.9873  1.0651
 5702TIP3    H217113   4.596   2.657   2.048  0.5906  1.2530  1.9311
 5703TIP3   OH217114   1.913   4.747   2.949 -0.3509  0.2475 -0.1811
 5703TIP3    H117115   1.889   4.678   2.887  2.0022 -0.6133 -0.2233
 5703TIP3    H217116   1.909   4.705   3.035 -0.2739  0.4661 -0.0687
 5704TIP3   OH217117   2.899   5.356   0.892  0.4538  0.7001 -0.1843
 5704TIP3    H117118   2.944   5.311   0.963 -1.0167  1.7711  1.5402
 5704TIP3    H217119   2.926   5.447   0.900 -1.5918  1.3098  0.6847
 5705TIP3   OH217120   0.705   4.960   0.724 -0.2058  0.2105 -0.0056
 5705TIP3    H117121   0.784   5.009   0.749  0.3107  0.0791 -1.2902
 5705TIP3    H217122   0.665   5.013   0.656 -0.4973 -0.3777 -0.2966
 5706TIP3   OH217123   2.467   2.976   2.896  0.3052  0.1026 -0.2236
 5706TIP3    H117124   2.529   2.917   2.854  1.0476  1.1774 -0.6755
 5706TIP3    H217125   2.520   3.029   2.955 -0.5290 -0.4741  1.0926
 5707TIP3   OH217126   4.601   3.297   3.059 -0.5620  0.0423 -0.2823
 5707TIP3    H117127   4.556   3.377   3.087 -1.4319 -0.3095 -0.6573
 5707TIP3    H217128   4.587   3.294   2.964 -0.2048 -0.3579 -0.3239
 5708TIP3   OH217129  -0.018   1.199   3.378 -0.2735 -0.3644  0.3801
 5708TIP3    H117130  -0.028   1.224   3.286 -0.4294  0.1530  0.5350
 5708TIP3    H217131   0.073   1.169   3.384 -0.4910 -1.1576 -0.1146
 5709TIP3   OH217132   5.083   5.925   5.111 -0.0689  0.3064  0.1150
 5709TIP3    H117133   5.010   5.884   5.158 -0.4450 -2.3620 -2.5193
 5709TIP3    H217134   5.146   5.855   5.098  2.2706  2.1356  0.7896
 5710TIP3   OH217135   2.088   0.085   4.905 -0.4580 -0.4446  0.1722
 5710TIP3    H117136   2.115   0.171   4.937 -2.1269  0.4412 -0.6547
 5710TIP3    H217137   2.129   0.078   4.819 -2.2170  0.6301 -0.8145
 5711TIP3   OH217138   3.048   5.802   1.948 -0.2757  0.1805 -0.0669
 5711TIP3    H117139   2.997   5.880   1.926  0.8967  0.8749 -0.4391
 5711TIP3    H217140   3.094   5.825   2.029  1.0983  0.4021 -0.8728
 5712TIP3   OH217141   1.820   5.185   1.152 -0.0905  0.3744  0.2132
 5712TIP3    H117142   1.751   5.211   1.091 -0.8305  0.1489  0.9443
 5712TIP3    H217143   1.901   5.220   1.113 -0.5739  0.4033 -0.7843
 5713TIP3   OH217144   4.849   1.809   0.154 -0.0352 -0.4182 -0.3300
 5713TIP3    H117145   4.891   1.884   0.111  0.0982 -1.6014 -2.3747
 5713TIP3    H217146   4.874   1.818   0.246  0.9432  1.4045 -0.7218
 5714TIP3   OH217147   0.225   3.975   1.279 -0.3483 -0.0378 -0.2480
 5714TIP3    H117148   0.183   3.905   1.230  1.2594 -0.7670 -0.6509
 5714TIP3    H217149   0.291   4.011   1.220  0.1305  0.5471  0.6052
 5715TIP3   OH217150   1.204   0.801   1.304 -0.1468 -0.1306 -0.3251
 5715TIP3    H117151   1.276   0.851   1.267  0.0754  0.6213  1.0728
 5715TIP3    H217152   1.133   0.810   1.240  0.4545  0.5203 -0.9129
 5716TIP3   OH217153   3.529   1.553   4.562  0.4180 -0.2620  0.1010
 5716TIP3    H117154   3.492   1.593   4.483  0.6216 -1.1405 -0.4586
 5716TIP3    H217155   3.564   1.469   4.532  1.2256 -0.2528  0.9760
 5717TIP3   OH217156   2.103   4.865   0.647  0.2679 -0.0643  0.3283
 5717TIP3    H117157   2.197   4.860   0.629  0.2414  1.6849 -0.5506
 5717TIP3    H217158   2.096   4.925   0.722 -0.0612 -1.9241  1.8660
 5718TIP3   OH217159   2.949   4.204   4.167  0.1401 -0.5822  0.3007
 5718TIP3    H117160   2.949   4.208   4.262  1.0207  1.8057  0.2665
 5718TIP3    H217161   2.858   4.219   4.141  0.2310  0.8662  0.7590
 5719TIP3   OH217162   5.657   0.334   0.813  0.0982  0.4083 -0.0459
 5719TIP3    H117163   5.566   0.307   0.831 -0.2957 -0.0586 -2.4307
 5719TIP3    H217164   5.667   0.416   0.861 -1.0745 -0.2636  1.4595
 5720TIP3   OH217165   1.905   1.728   0.180  0.2978  0.0808 -0.0988
 5720TIP3    H117166   1.985   1.698   0.136 -1.0397  1.7643 -4.0539
 5720TIP3    H217167   1.936   1.791   0.245  2.2417  1.8764 -2.5582
 5721TIP3   OH217168   2.422   2.714   3.623  0.0439  0.4623  0.8366
 5721TIP3    H117169   2.486   2.766   3.672 -2.4402  1.9674  2.7012
 5721TIP3    H217170   2.421   2.629   3.668  1.0213  0.2530  0.4932
 5722TIP3   OH217171   1.890   2.613   3.191 -0.3148  0.0903  0.5156
 5722TIP3    H117172   1.972   2.608   3.142 -0.8549 -0.7957 -0.3333
 5722TIP3    H217173   1.864   2.705   3.183 -0.2663  0.0204 -0.6728
 5723TIP3   OH217174   1.692   2.191   1.546 -1.0979 -0.5103 -0.1416
 5723TIP3    H117175   1.707   2.279   1.580 -1.1194 -0.5216 -0.1023
 5723TIP3    H217176   1.702   2.134   1.623  0.2560 -0.6717 -0.4131
 5724TIP3   OH217177   5.080   0.324   0.627 -0.4745  0.9302 -0.0082
 5724TIP3    H117178   5.152   0.262   0.614 -0.4301  1.1305 -0.7514
 5724TIP3    H217179   5.097   0.363   0.713 -0.1599  0.3711  0.1883
 5725TIP3   OH217180   1.412   2.837   3.958 -0.1600 -0.7265 -0.4524
 5725TIP3    H117181   1.394   2.748   3.926  1.7524 -0.7570 -1.6070
 5725TIP3    H217182   1.495   2.829   4.005  0.1614  0.4893 -0.7776
 5726TIP3   OH217183   2.223   3.643   2.516 -0.2491 -0.1529  0.3185
 5726TIP3    H117184   2.273   3.653   2.596  0.2270 -0.6866  0.0970
 5726TIP3    H217185   2.212   3.732   2.483  0.9737 -0.0468  0.1281
 5727TIP3   OH217186   5.516   2.752   4.563  0.2104 -0.1828  0.1386
 5727TIP3    H117187   5.484   2.695   4.492  0.7895  0.1918 -0.4273
 5727TIP3    H217188   5.595   2.792   4.528  0.8074 -0.4081  1.2063
 5728TIP3   OH217189   2.163   4.369   2.116  0.0312  0.1959  0.3799
 5728TIP3    H117190   2.111   4.341   2.041  1.4606 -0.8831 -0.2733
 5728TIP3    H217191   2.228   4.429   2.080 -0.5959  1.3825  1.1503
 5729TIP3   OH217192   4.104   3.052   3.782  0.1750 -0.1585  0.4566
 5729TIP3    H117193   4.193   3.053   3.747  0.4518  0.9537  1.1256
 5729TIP3    H217194   4.089   3.142   3.810 -1.1663 -0.3357  0.3600
 5730TIP3   OH217195   1.836   5.461   4.576  0.4928 -0.3691  0.5749
 5730TIP3    H117196   1.754   5.482   4.622  0.5773 -1.8043  1.4138
 5730TIP3    H217197   1.809   5.403   4.505  0.8250 -1.2587  1.1599
 5731TIP3   OH217198   3.667   2.742   2.564 -0.1430  0.3754  0.0383
 5731TIP3    H117199   3.675   2.652   2.597  0.1019  1.1152  2.1161
 5731TIP3    H217200   3.706   2.738   2.476 -0.8424 -1.7032 -0.2376
 5732TIP3   OH217201   1.078   0.834   1.956  0.2842  0.5835 -0.1006
 5732TIP3    H117202   1.114   0.764   2.011  0.1291 -0.5381 -1.3570
 5732TIP3    H217203   0.991   0.802   1.933  0.5845  0.7132 -1.4900
 5733TIP3   OH217204   5.352   2.760   0.226  0.3796 -0.2425 -0.1712
 5733TIP3    H117205   5.280   2.742   0.287  1.4998  1.3306  1.7282
 5733TIP3    H217206   5.393   2.675   0.212  0.2241 -0.6415  1.4915
 5734TIP3   OH217207   1.750   1.426   4.634  0.3781 -0.0987 -0.2588
 5734TIP3    H117208   1.839   1.440   4.667  0.3488 -0.0724 -0.1899
 5734TIP3    H217209   1.705   1.382   4.706 -0.0836  1.2119  0.2788
 5735TIP3   OH217210   4.286   1.833   0.230 -0.6894 -0.1263  0.2068
 5735TIP3    H117211   4.374   1.840   0.266 -0.4286  1.9729 -0.6657
 5735TIP3    H217212   4.234   1.895   0.281 -1.3926 -0.5083 -0.0248
 5736TIP3   OH217213   4.498   5.259   0.180 -0.7290 -0.3032  0.2649
 5736TIP3    H117214   4.455   5.177   0.204 -0.9652 -0.5305 -0.8665
 5736TIP3    H217215   4.560   5.234   0.111 -0.3773  0.3820  0.3215
 5737TIP3   OH217216   0.538   3.418   1.304 -0.5484 -0.1346 -0.3149
 5737TIP3    H117217   0.566   3.505   1.275 -3.0448  0.9923  0.3640
 5737TIP3    H217218   0.597   3.357   1.260  1.9999  1.9223  0.0465
 5738TIP3   OH217219   4.484   0.247   1.327  0.6717 -0.8890  0.3673
 5738TIP3    H117220   4.430   0.185   1.277 -1.2700 -0.3990  1.7265
 5738TIP3    H217221   4.543   0.192   1.379 -0.6863 -1.6339  1.1808
 5739TIP3   OH217222   2.939   4.380   4.677 -0.3223  0.4778  0.2794
 5739TIP3    H117223   3.013   4.392   4.617 -1.0903  1.5842 -0.4690
 5739TIP3    H217224   2.980   4.370   4.763  0.8888 -2.4238 -0.4964
 5740TIP3   OH217225   0.327   5.192   4.192 -0.0301  0.2529 -0.8914
 5740TIP3    H117226   0.408   5.213   4.145 -0.5680  0.1504 -1.8925
 5740TIP3    H217227   0.261   5.183   4.123 -1.3798  2.4270  0.0152
 5741TIP3   OH217228   0.401   2.015   5.093  0.5253  0.4504 -0.3364
 5741TIP3    H117229   0.452   2.062   5.027  0.9245  1.2585  0.5163
 5741TIP3    H217230   0.458   1.944   5.121  0.6265  0.5174 -0.3715
 5742TIP3   OH217231   4.618   3.083   1.121  0.1338 -0.1328 -0.0699
 5742TIP3    H117232   4.607   3.162   1.069  2.0095 -0.5115 -1.1356
 5742TIP3    H217233   4.549   3.088   1.188  0.6827  2.7718  0.3895
 5743TIP3   OH217234   1.816   4.870   3.770 -0.1788 -0.0684  0.1866
 5743TIP3    H117235   1.905   4.889   3.802  0.4275 -0.5737 -1.1478
 5743TIP3    H217236   1.801   4.936   3.702 -0.0600 -1.1528 -0.9163
 5744TIP3   OH217237   5.527   5.023   0.461  0.2264  0.0282  0.4457
 5744TIP3    H117238   5.516   5.117   0.450  0.7870  0.4094  2.6316
 5744TIP3    H217239   5.622   5.009   0.454  0.2641 -0.1752  1.2053
 5745TIP3   OH217240   1.774   2.417   4.817  0.4751  0.0744  0.2660
 5745TIP3    H117241   1.799   2.346   4.758  1.5844 -0.5173  1.4095
 5745TIP3    H217242   1.794   2.384   4.904 -0.0062  1.3934  0.9016
 5746TIP3   OH217243   1.619   0.277   5.003 -0.1401 -0.4709  0.1488
 5746TIP3    H117244   1.654   0.336   4.936  0.9060 -0.2284  0.8733
 5746TIP3    H217245   1.606   0.194   4.958  1.1889 -0.5050 -0.2148
 5747TIP3   OH217246   1.517   4.274   4.028 -0.1436  0.6022 -0.0333
 5747TIP3    H117247   1.562   4.274   4.113  0.8277  0.7181 -0.5362
 5747TIP3    H217248   1.432   4.235   4.046  0.9137 -1.5750  0.5328
 5748TIP3   OH217249   3.015   0.623   1.618 -0.1204 -0.1017 -0.4854
 5748TIP3    H117250   3.109   0.606   1.621 -0.3002 -0.9634  0.4286
 5748TIP3    H217251   2.985   0.575   1.541  0.1460 -0.0158 -0.6465
 5749TIP3   OH217252   5.470   3.110   4.456  0.9430 -0.1766 -0.1696
 5749TIP3    H117253   5.397   3.058   4.422 -0.7853  2.1831 -0.3074
 5749TIP3    H217254   5.467   3.095   4.551 -0.5522  0.8102 -0.0262
 5750TIP3   OH217255   4.335   2.184   3.014  0.3486  0.4787  0.0779
 5750TIP3    H117256   4.378   2.258   3.055  0.1355  0.2620  0.7004
 5750TIP3    H217257   4.243   2.194   3.036  0.3115  0.0589  0.1221
 5751TIP3   OH217258   3.676   0.917   2.793  0.1492  0.1948 -0.6401
 5751TIP3    H117259   3.609   0.979   2.820  0.7821  0.8023 -0.4096
 5751TIP3    H217260   3.758   0.955   2.826  0.4988 -1.0217 -0.0347
 5752TIP3   OH217261   0.700   3.065   3.701  0.1182 -0.0456 -0.1213
 5752TIP3    H117262   0.685   3.024   3.786 -2.1636 -1.4246 -1.1051
 5752TIP3    H217263   0.794   3.056   3.687  0.4210 -0.5309  1.8695
 5753TIP3   OH217264   5.936   4.633   4.399  0.4936 -0.0796 -0.1740
 5753TIP3    H117265   6.004   4.616   4.464  1.1758  0.9086 -0.6017
 5753TIP3    H217266   5.913   4.547   4.364  3.1531 -0.2843 -1.6505
 5754TIP3   OH217267   5.571   1.089   4.352  0.0111 -0.1320  0.2064
 5754TIP3    H117268   5.492   1.095   4.297  1.4649  1.6967 -1.8658
 5754TIP3    H217269   5.640   1.065   4.290  1.4592  0.4081  1.5736
 5755TIP3   OH217270   5.889   1.930   2.910 -0.2455  0.1517 -0.1999
 5755TIP3    H117271   5.813   1.978   2.878 -0.5157 -0.1592 -0.0330
 5755TIP3    H217272   5.852   1.859   2.963  0.0543 -1.2576 -1.7841
 5756TIP3   OH217273   2.679   4.880   4.735 -0.2062  0.0724  0.1749
 5756TIP3    H117274   2.629   4.870   4.654 -0.2337 -2.9506  0.4443
 5756TIP3    H217275   2.762   4.919   4.708 -0.5058 -0.2060 -1.2109
 5757TIP3   OH217276   1.175   5.300   4.415  0.4300  0.0115  0.1647
 5757TIP3    H117277   1.211   5.235   4.356 -0.7410  0.8839 -1.6145
 5757TIP3    H217278   1.247   5.361   4.431  1.1974 -1.0502  0.9318
 5758TIP3   OH217279   1.059   1.318   2.122 -0.3201  0.3012 -0.3924
 5758TIP3    H117280   0.963   1.320   2.114 -0.5412  3.0124  1.5785
 5758TIP3    H217281   1.074   1.285   2.211  0.4451  2.0174  0.1452
 5759TIP3   OH217282   2.154   0.358   3.040 -0.1949 -0.5095  0.5633
 5759TIP3    H117283   2.203   0.430   3.080  0.8665 -0.9237  0.0458
 5759TIP3    H217284   2.076   0.400   3.005  0.0859  0.2832  0.8455
 5760TIP3   OH217285   0.201   3.229   4.093 -0.7655  0.5034 -0.4728
 5760TIP3    H117286   0.255   3.158   4.128 -1.1804 -0.0331 -0.8920
 5760TIP3    H217287   0.123   3.185   4.058 -1.0403  1.1686 -0.7203
 5761TIP3   OH217288   4.242   5.198   5.069 -0.2419  0.0739  0.1057
 5761TIP3    H117289   4.243   5.267   5.003  1.4613  1.4815  1.5268
 5761TIP3    H217290   4.330   5.198   5.105 -1.0658 -0.7934  2.2480
 5762TIP3   OH217291   1.609   5.113   1.365 -0.0126  0.5921  0.4391
 5762TIP3    H117292   1.660   5.169   1.423 -1.2504  2.1782  0.0635
 5762TIP3    H217293   1.638   5.024   1.386  1.1829  1.2764  1.8705
 5763TIP3   OH217294   6.117   5.973   5.042 -0.4940  0.1114 -0.3458
 5763TIP3    H117295   6.168   6.028   4.983  0.4379  1.4047  1.5650
 5763TIP3    H217296   6.168   5.893   5.051 -0.2941  0.1968 -0.7199
 5764TIP3   OH217297   2.928   5.483   0.505 -0.0716 -0.2491  0.0994
 5764TIP3    H117298   2.933   5.395   0.540 -0.0581 -0.2114  0.1922
 5764TIP3    H217299   2.903   5.538   0.579 -3.0783 -0.5739 -0.5602
 5765TIP3   OH217300   4.028   2.123   0.488 -0.3376  0.1548  0.4968
 5765TIP3    H117301   4.004   2.099   0.578 -0.0730  0.5389  0.6731
 5765TIP3    H217302   3.945   2.135   0.443 -0.4858 -1.2325  0.3628
 5766TIP3   OH217303   5.280   1.105   4.341  0.1113  0.2855 -0.3203
 5766TIP3    H117304   5.197   1.140   4.309 -0.7335  2.1062  3.3263
 5766TIP3    H217305   5.293   1.148   4.425  3.2020 -2.3251  0.7332
 5767TIP3   OH217306   6.036   5.103   4.069 -0.0517  0.1802 -0.7043
 5767TIP3    H117307   6.105   5.129   4.130  1.0712 -0.0882 -1.8177
 5767TIP3    H217308   6.072   5.121   3.982 -1.2581 -0.2819 -1.3315
 5768TIP3   OH217309   4.086   5.194   1.018 -0.3164 -0.4156 -0.2040
 5768TIP3    H117310   4.020   5.205   1.086 -0.0162  0.6799 -0.0759
 5768TIP3    H217311   4.040   5.216   0.936 -1.0264 -2.9270 -0.5556
 5769TIP3   OH217312   4.235   4.431   1.215 -0.0597 -0.3565 -0.0519
 5769TIP3    H117313   4.172   4.438   1.143  1.2526 -3.1497 -1.6351
 5769TIP3    H217314   4.311   4.480   1.185  0.6106 -1.7904 -0.8071
 5770TIP3   OH217315   4.224   3.955   3.881 -0.0289 -0.4686 -0.4223
 5770TIP3    H117316   4.203   4.011   3.956  1.9801 -1.9772  1.4160
 5770TIP3    H217317   4.143   3.910   3.861 -0.3166 -1.1312  1.8984
 5771TIP3   OH217318   0.811   1.331   2.905 -0.3119 -0.3235 -0.1835
 5771TIP3    H117319   0.906   1.335   2.897 -0.4056  0.0322 -1.2576
 5771TIP3    H217320   0.795   1.301   2.994  0.7816  1.3659  0.6231
 5772TIP3   OH217321   0.727   3.352   2.226  0.5335  0.3102  0.1796
 5772TIP3    H117322   0.822   3.367   2.221  0.4449  1.9063  1.9865
 5772TIP3    H217323   0.688   3.432   2.192 -0.1713 -0.0134  0.2063
 5773TIP3   OH217324   2.436   3.452   2.676 -0.1471  0.3920  0.0080
 5773TIP3    H117325   2.385   3.412   2.747  1.4321 -0.0069  0.9877
 5773TIP3    H217326   2.450   3.542   2.706 -1.2287  0.8423 -0.8060
 5774TIP3   OH217327   2.969   0.191   0.391 -0.2967  0.4792 -0.2233
 5774TIP3    H117328   2.911   0.117   0.409 -1.8340  1.7581  0.2876
 5774TIP3    H217329   3.052   0.167   0.430 -0.8850 -0.8137  0.2723
 5775TIP3   OH217330   2.132   2.743   4.143  0.4098  0.3077 -0.1025
 5775TIP3    H117331   2.071   2.816   4.153 -0.2056 -0.2483  0.3656
 5775TIP3    H217332   2.139   2.730   4.049 -1.1813 -0.3956 -0.1658
 5776TIP3   OH217333   1.631   0.270   3.618  0.0691  0.5895 -0.5900
 5776TIP3    H117334   1.605   0.288   3.708 -0.0609  2.2873 -0.9290
 5776TIP3    H217335   1.713   0.221   3.626 -1.0508 -1.2374  0.4320
 5777TIP3   OH217336   3.912   5.913   4.905 -0.5439  0.0142  0.2525
 5777TIP3    H117337   3.960   5.979   4.856 -0.6062  0.8266  1.2416
 5777TIP3    H217338   3.970   5.838   4.908  1.1997  1.3231  2.3212
 5778TIP3   OH217339   2.022   5.287   4.921  0.2595  0.2062 -0.3242
 5778TIP3    H117340   2.078   5.347   4.970  0.4056 -0.6559  0.5752
 5778TIP3    H217341   1.947   5.341   4.895 -0.5258  0.3653  2.0567
 5779TIP3   OH217342   4.703   3.387   2.443 -0.5297 -0.1395 -0.0121
 5779TIP3    H117343   4.625   3.349   2.484  0.0961 -0.0946  1.2639
 5779TIP3    H217344   4.716   3.470   2.489 -0.7846  0.7283 -1.4807
 5780TIP3   OH217345   5.844   5.679   0.842 -0.8175 -0.1643  0.2804
 5780TIP3    H117346   5.790   5.629   0.781 -0.9945  1.0728 -0.6268
 5780TIP3    H217347   5.780   5.718   0.903 -0.8737  0.5514 -0.2291
 5781TIP3   OH217348   3.229   1.114   5.129  0.0597  0.3384  0.0549
 5781TIP3    H117349   3.165   1.048   5.154 -1.4418  1.3986 -0.8397
 5781TIP3    H217350   3.189   1.160   5.056  3.1994 -1.0167 -2.7863
 5782TIP3   OH217351   2.030   1.350   2.040 -0.1948  0.1214 -0.4099
 5782TIP3    H117352   1.966   1.289   2.004 -0.3412  0.5581 -0.9057
 5782TIP3    H217353   2.074   1.386   1.963  1.9784 -1.5607 -0.0642
 5783TIP3   OH217354   4.779   1.208   3.905 -0.2793  0.5063  0.1788
 5783TIP3    H117355   4.685   1.196   3.892  0.3035 -4.0457 -1.4353
 5783TIP3    H217356   4.818   1.186   3.821  2.3523 -0.0557  1.4669
 5784TIP3   OH217357   1.239   2.739   3.086 -0.8955  0.3891 -0.3525
 5784TIP3    H117358   1.216   2.774   3.000  1.2113  0.0449 -1.1237
 5784TIP3    H217359   1.329   2.768   3.100 -0.8176 -0.5239  1.2182
 5785TIP3   OH217360   1.463   0.555   1.754  0.0286  0.0565 -0.4690
 5785TIP3    H117361   1.428   0.501   1.824 -0.1807 -0.4396 -0.9486
 5785TIP3    H217362   1.452   0.502   1.675  0.5960  0.4542 -0.8239
 5786TIP3   OH217363   1.265   2.805   3.589  0.5629  0.1188 -0.6072
 5786TIP3    H117364   1.359   2.796   3.603  0.8397  1.8538 -1.1832
 5786TIP3    H217365   1.257   2.843   3.502 -0.7542 -1.3659 -1.1731
 5787TIP3   OH217366   5.591   5.844   1.571  0.0982 -0.0556  0.1648
 5787TIP3    H117367   5.504   5.884   1.574 -0.4480 -1.2204  2.8439
 5787TIP3    H217368   5.649   5.913   1.540 -1.4252  1.5243  0.7120
 5788TIP3   OH217369   0.027   5.723   3.971  0.2129  0.5461  0.5575
 5788TIP3    H117370   0.111   5.767   3.957  0.0309  0.8320  0.3638
 5788TIP3    H217371  -0.030   5.791   4.007  0.1330  0.2930  0.9179
 5789TIP3   OH217372   5.714   5.328   3.797 -0.3212  1.0365 -0.2209
 5789TIP3    H117373   5.664   5.407   3.814 -0.4797  0.7746  0.5516
 5789TIP3    H217374   5.768   5.316   3.875 -0.9380 -0.0897  0.0643
 5790TIP3   OH217375   6.091   2.532   1.845  0.1769 -0.2978  0.1876
 5790TIP3    H117376   6.114   2.471   1.775  0.9670  1.2400 -0.9629
 5790TIP3    H217377   6.056   2.608   1.799 -1.0646  0.0217  1.5966
 5791TIP3   OH217378   0.298   3.653   3.591  0.0075 -0.4880 -0.6652
 5791TIP3    H117379   0.355   3.580   3.617 -0.5555 -0.5461  0.4629
 5791TIP3    H217380   0.253   3.622   3.512 -1.3099 -1.9662  0.5992
 5792TIP3   OH217381   2.774   5.553   1.626 -0.1143  0.2531 -0.2472
 5792TIP3    H117382   2.782   5.606   1.706 -0.4147  1.4666 -0.9839
 5792TIP3    H217383   2.862   5.519   1.611 -0.4840 -1.6835  1.6886
 5793TIP3   OH217384   4.219   2.227   2.165 -0.1393  0.1264  0.0500
 5793TIP3    H117385   4.204   2.196   2.076 -0.7332  0.5655 -0.0097
 5793TIP3    H217386   4.132   2.247   2.199  0.0293 -0.6269  0.9553
 5794TIP3   OH217387   4.001   4.579   4.880  0.2200 -0.0534 -0.3264
 5794TIP3    H117388   3.984   4.624   4.963 -0.3019  0.0419 -0.4834
 5794TIP3    H217389   4.083   4.618   4.848  0.9465 -0.7725  0.6109
 5795TIP3   OH217390   0.768   3.995   2.665  0.6013  0.2498 -0.3952
 5795TIP3    H117391   0.730   4.039   2.741 -1.7821 -1.9814 -0.1795
 5795TIP3    H217392   0.855   3.967   2.694  0.1078  0.2844  1.1758
 5796TIP3   OH217393   4.550   5.568   1.172 -0.6616  0.3633  0.6865
 5796TIP3    H117394   4.585   5.622   1.101 -0.1868 -0.2031  0.4860
 5796TIP3    H217395   4.566   5.478   1.144 -1.0223  0.1256  1.2344
 5797TIP3   OH217396   1.906   2.811   2.514 -0.1519 -0.2106  0.0887
 5797TIP3    H117397   1.829   2.820   2.570  0.4118  0.9913  0.7021
 5797TIP3    H217398   1.963   2.750   2.561  0.1325  0.4591  0.6167
 5798TIP3   OH217399   3.984   5.097   5.175 -0.5614  0.4994  0.0133
 5798TIP3    H117400   4.060   5.126   5.125 -0.4124  0.4770  0.2264
 5798TIP3    H217401   3.956   5.174   5.225  0.0948  0.1732  0.9085
 5799TIP3   OH217402   0.485   3.724   1.178  0.3506 -1.1537 -1.1384
 5799TIP3    H117403   0.580   3.737   1.171  0.1738  1.1383 -0.0123
 5799TIP3    H217404   0.456   3.719   1.087  1.3173  0.3361 -1.5741
 5800TIP3   OH217405   5.528   5.720   4.804  0.1144  0.1618 -0.0467
 5800TIP3    H117406   5.492   5.635   4.779  0.0112 -0.5445  2.2483
 5800TIP3    H217407   5.466   5.783   4.769 -0.5380 -0.7653 -0.6249
 5801TIP3   OH217408   0.088   4.023   0.095 -0.1556  0.2029 -0.8198
 5801TIP3    H117409   0.088   3.930   0.118  3.3659  0.0540 -0.8465
 5801TIP3    H217410   0.056   4.025   0.005 -1.1567 -0.8422 -0.5166
 5802TIP3   OH217411   0.864   1.258   3.865  0.4974  0.0955  0.0898
 5802TIP3    H117412   0.853   1.169   3.829 -1.6939 -0.0883  1.0401
 5802TIP3    H217413   0.907   1.244   3.949 -0.4501 -0.1890  0.5519
 5803TIP3   OH217414   2.626   3.276   0.850 -0.1619  0.0518 -0.3171
 5803TIP3    H117415   2.540   3.286   0.809  0.3081  0.9657 -1.1243
 5803TIP3    H217416   2.610   3.221   0.927 -1.4550  0.1904 -0.4671
 5804TIP3   OH217417   3.757   4.401   2.241  1.0055  0.0978 -0.0553
 5804TIP3    H117418   3.718   4.340   2.179 -0.0232  1.0843 -0.4201
 5804TIP3    H217419   3.682   4.440   2.286  1.6990 -0.0313  1.2643
 5805TIP3   OH217420   3.547   0.778   0.076 -0.3403 -0.1982 -0.1774
 5805TIP3    H117421   3.554   0.782  -0.019 -1.3807  2.3114 -0.2335
 5805TIP3    H217422   3.609   0.711   0.102  2.2829  1.1504 -2.4207
 5806TIP3   OH217423   1.043   4.616   3.683  0.0313  0.2772 -0.0962
 5806TIP3    H117424   0.953   4.642   3.702 -0.6875 -1.0364 -1.4037
 5806TIP3    H217425   1.049   4.620   3.587  1.3826  0.3817 -0.0253
 5807TIP3   OH217426   4.267   2.386   4.453 -0.3440  0.2511 -0.5047
 5807TIP3    H117427   4.252   2.293   4.441 -1.4149 -0.2350  3.4779
 5807TIP3    H217428   4.359   2.393   4.479 -0.6476  0.0804  0.6626
 5808TIP3   OH217429   2.565   1.755   0.959  0.0634 -0.1973 -0.1210
 5808TIP3    H117430   2.470   1.767   0.971 -0.1537  0.3609 -1.9759
 5808TIP3    H217431   2.605   1.823   1.013 -0.6269 -0.0839  0.2578
 5809TIP3   OH217432   3.214   1.670   3.158  0.4641  0.4824  0.1780
 5809TIP3    H117433   3.251   1.600   3.212  1.7139  0.0677 -1.1447
 5809TIP3    H217434   3.269   1.671   3.079 -1.5642  0.7422 -1.3123
 5810TIP3   OH217435   4.834   1.400   0.449  0.3149  0.5412  0.2088
 5810TIP3    H117436   4.769   1.361   0.507  1.3223  0.4149  1.3002
 5810TIP3    H217437   4.918   1.378   0.489  1.0085  1.2927 -0.7766
 5811TIP3   OH217438   3.819   1.902   3.144 -0.2138 -0.5779 -0.1332
 5811TIP3    H117439   3.785   1.956   3.072 -1.1832 -0.9240  0.0499
 5811TIP3    H217440   3.744   1.849   3.172  0.2014 -0.5906  1.0070
 5812TIP3   OH217441   2.289   0.593   3.386 -0.6100  0.1956  0.2873
 5812TIP3    H117442   2.263   0.503   3.408  1.3839 -0.5911 -0.3411
 5812TIP3    H217443   2.301   0.636   3.471 -1.8156 -0.0433  0.5931
 5813TIP3   OH217444   0.887   5.966   0.030  0.2248 -0.0083 -0.2172
 5813TIP3    H117445   0.911   5.877   0.003  1.9002  0.0604  0.9533
 5813TIP3    H217446   0.944   5.986   0.104 -1.5871  1.2615  0.9348
 5814TIP3   OH217447   2.418   2.324   1.665  1.1706  0.3499  0.5208
 5814TIP3    H117448   2.348   2.382   1.634  0.6564 -0.5942 -0.1459
 5814TIP3    H217449   2.498   2.375   1.654  0.6658  1.1909  0.6270
 5815TIP3   OH217450   2.338   1.390   4.694  0.1341 -0.0841  0.1363
 5815TIP3    H117451   2.427   1.412   4.723 -0.4106  2.4206  0.1334
 5815TIP3    H217452   2.311   1.465   4.641 -1.1295 -1.8689 -1.9381
 5816TIP3   OH217453   1.097   4.384   3.034  0.1901  0.5017 -0.1842
 5816TIP3    H117454   1.063   4.466   2.998  1.1898  0.7654 -0.5487
 5816TIP3    H217455   1.136   4.409   3.118 -1.9324 -0.0739  1.0556
 5817TIP3   OH217456   0.690   1.048   1.910  0.1823  0.0852 -0.0696
 5817TIP3    H117457   0.784   1.056   1.926 -0.0851 -0.7248  2.0759
 5817TIP3    H217458   0.663   1.138   1.889  1.0465  0.7649  1.5693
 5818TIP3   OH217459   0.171   4.271   3.906 -0.3890  0.2938  0.1491
 5818TIP3    H117460   0.129   4.209   3.847 -0.0230 -1.3252  1.5322
 5818TIP3    H217461   0.104   4.338   3.922 -0.1651  1.3713 -2.8273
 5819TIP3   OH217462   4.391   0.766   2.020  0.3743  0.6055 -0.0358
 5819TIP3    H117463   4.311   0.733   1.979  0.1499  0.4423  0.5242
 5819TIP3    H217464   4.434   0.816   1.951  1.3757 -1.8580 -1.3211
 5820TIP3   OH217465   4.416   2.380   1.675  0.1896  0.8597  0.3814
 5820TIP3    H117466   4.355   2.386   1.602  1.0768 -2.9941 -0.9222
 5820TIP3    H217467   4.496   2.421   1.644  0.3456 -0.1532 -0.6026
 5821TIP3   OH217468   5.481   4.240   0.129 -0.0627 -0.6129  0.3701
 5821TIP3    H117469   5.446   4.192   0.054  1.1092 -0.6680 -0.1540
 5821TIP3    H217470   5.429   4.321   0.131 -0.2030 -0.6713 -0.4115
 5822TIP3   OH217471   5.075   5.330   1.695 -0.1978 -0.1259  0.0096
 5822TIP3    H117472   5.053   5.382   1.773 -0.7942  0.3453 -0.4631
 5822TIP3    H217473   5.107   5.394   1.632  2.7778 -0.7711  0.6803
 5823TIP3   OH217474   3.457   1.648   1.312  0.1714  0.0042 -0.7136
 5823TIP3    H117475   3.431   1.598   1.235  1.6871 -0.8284 -0.7211
 5823TIP3    H217476   3.549   1.625   1.326 -0.4891 -1.1999  2.3750
 5824TIP3   OH217477   6.044   2.058   3.804  0.2222 -0.2974  0.5742
 5824TIP3    H117478   6.048   1.975   3.757  0.0467 -0.6030  1.0824
 5824TIP3    H217479   6.053   2.125   3.736  1.5170 -0.7342  0.2883
 5825TIP3   OH217480   1.853   1.680   2.076 -0.5318 -0.0280 -0.0016
 5825TIP3    H117481   1.904   1.676   1.995  0.1735  0.3266  0.4125
 5825TIP3    H217482   1.898   1.620   2.135 -2.1097 -1.7254 -0.4208
 5826TIP3   OH217483   3.672   0.736   1.216 -0.6271 -0.5289  0.0167
 5826TIP3    H117484   3.626   0.771   1.292  0.5810  0.1474  0.4571
 5826TIP3    H217485   3.719   0.660   1.248  0.9615  0.5302  0.2899
 5827TIP3   OH217486   4.109   2.489   2.584 -0.0424 -0.1007 -0.2659
 5827TIP3    H117487   4.194   2.446   2.574  0.6753  0.6768  1.9135
 5827TIP3    H217488   4.110   2.559   2.518  0.9123 -0.2544 -0.4361
 5828TIP3   OH217489   2.281   5.954   3.621  0.0682 -0.2843 -0.4757
 5828TIP3    H117490   2.237   5.893   3.563 -0.6186  0.6517 -0.9585
 5828TIP3    H217491   2.277   6.038   3.576  2.3609 -0.1461 -0.5445
 5829TIP3   OH217492   5.728   2.067   1.629  0.3761 -0.0016 -0.0858
 5829TIP3    H117493   5.641   2.039   1.658  0.5247 -1.7947 -1.1675
 5829TIP3    H217494   5.730   2.044   1.536  1.4897  1.4115 -0.4488
 5830TIP3   OH217495   3.839   3.707   0.425  0.5844  0.2754  0.0460
 5830TIP3    H117496   3.792   3.683   0.505  0.2752  0.7063 -0.0033
 5830TIP3    H217497   3.832   3.630   0.369 -0.6476  0.5529 -0.2256
 5831TIP3   OH217498   5.396   4.664   2.623  0.1078  0.5311 -0.2576
 5831TIP3    H117499   5.314   4.693   2.585  0.8401  2.1943 -0.6448
 5831TIP3    H217500   5.376   4.650   2.715 -0.7567  0.2397 -0.4780
 5832TIP3   OH217501   2.126   1.756   1.626 -0.1131 -0.2976 -0.4406
 5832TIP3    H117502   2.107   1.807   1.548  2.2877  1.3445 -0.0447
 5832TIP3    H217503   2.193   1.694   1.599  0.3608 -0.0637  0.1719
 5833TIP3   OH217504   5.506   1.653   2.271 -0.3665 -0.5662 -0.8220
 5833TIP3    H117505   5.593   1.620   2.295  0.2531  1.3724 -0.1857
 5833TIP3    H217506   5.524   1.736   2.226 -1.8915 -0.3350 -1.0566
 5834TIP3   OH217507   0.565   0.770   1.277  0.1458 -0.3941  0.2260
 5834TIP3    H117508   0.584   0.819   1.357 -1.6212 -2.7436  2.2483
 5834TIP3    H217509   0.645   0.720   1.261 -0.0232 -1.1278  1.5226
 5835TIP3   OH217510   1.283   4.453   4.982 -0.0755 -0.5761  0.0348
 5835TIP3    H117511   1.239   4.538   4.984  0.4543 -0.2986 -0.1589
 5835TIP3    H217512   1.248   4.410   4.904  0.0994 -0.3032 -0.1934
 5836TIP3   OH217513   0.719   0.840   2.321  0.4022 -0.0661  0.0835
 5836TIP3    H117514   0.813   0.844   2.334  0.7306 -0.7479 -1.8037
 5836TIP3    H217515   0.683   0.894   2.392  2.2560  1.1863  0.1510
 5837TIP3   OH217516   0.674   2.029   0.709  0.6424 -0.2076  0.3717
 5837TIP3    H117517   0.658   1.968   0.637 -1.2023 -0.4163  0.9302
 5837TIP3    H217518   0.646   2.114   0.675  1.8056  0.1035  0.1251
 5838TIP3   OH217519   2.531   1.951   2.073 -1.0272 -0.1213 -0.7840
 5838TIP3    H117520   2.495   1.912   1.993  0.1924  0.5499 -1.6900
 5838TIP3    H217521   2.577   2.029   2.043  1.0327 -0.8319  0.3219
 5839TIP3   OH217522   3.676   5.106   3.638  0.0326  0.0353 -0.2297
 5839TIP3    H117523   3.767   5.114   3.607 -0.0007 -1.7636 -0.8914
 5839TIP3    H217524   3.681   5.045   3.711 -0.2544  2.3815  1.8732
 5840TIP3   OH217525   2.367   0.496   1.031  0.5531 -0.2359  0.2833
 5840TIP3    H117526   2.386   0.406   1.058  0.2853 -0.6666 -0.8928
 5840TIP3    H217527   2.444   0.523   0.980  1.0890  0.5914  1.4729
 5841TIP3   OH217528   3.635   5.501   1.045 -0.3242  0.1128 -0.2155
 5841TIP3    H117529   3.698   5.544   0.987 -0.2367 -1.4458 -1.3421
 5841TIP3    H217530   3.671   5.513   1.133 -0.0272  1.8050 -0.5432
 5842TIP3   OH217531   5.908   4.533   1.095  0.3337 -0.1864 -0.3802
 5842TIP3    H117532   5.965   4.547   1.019 -0.1329  1.4646 -0.4627
 5842TIP3    H217533   5.946   4.588   1.164 -0.5135  0.0636 -0.1049
 5843TIP3   OH217534   5.644   3.496   0.557 -0.2950  0.2687  0.3271
 5843TIP3    H117535   5.621   3.416   0.509 -1.8809  0.3222  0.9397
 5843TIP3    H217536   5.731   3.519   0.524 -0.2438 -1.1214 -0.6225
 5844TIP3   OH217537   4.065   0.417   3.465  1.0776 -0.4395  0.4801
 5844TIP3    H117538   4.119   0.431   3.387  0.0547  3.4077  0.2792
 5844TIP3    H217539   4.120   0.444   3.538  0.7796 -0.3357  0.6708
 5845TIP3   OH217540   3.785   5.477   2.887 -0.7271 -0.1277  0.1143
 5845TIP3    H117541   3.858   5.460   2.947  0.2264  0.2260 -0.9221
 5845TIP3    H217542   3.740   5.392   2.879  0.8690 -0.9165 -0.9166
 5846TIP3   OH217543   2.386   3.915   1.684 -0.3764  0.3021 -0.3594
 5846TIP3    H117544   2.320   3.964   1.734 -0.6643  0.8944 -1.2881
 5846TIP3    H217545   2.346   3.903   1.598 -0.1939 -1.3549 -0.2371
 5847TIP3   OH217546   5.355   0.327   3.263  0.1319 -0.0632  0.1611
 5847TIP3    H117547   5.426   0.263   3.252  0.2465  0.0976 -0.0291
 5847TIP3    H217548   5.393   0.410   3.237  0.3933  0.3296  1.7091
 5848TIP3   OH217549   5.651   5.497   5.045 -0.0254 -0.0823  0.3587
 5848TIP3    H117550   5.557   5.489   5.063  0.1973 -1.8154  1.0254
 5848TIP3    H217551   5.693   5.464   5.125  1.1544  0.4909 -0.0005
 5849TIP3   OH217552   6.050   3.890   2.903 -0.0679  0.0420 -0.0388
 5849TIP3    H117553   5.957   3.884   2.925 -0.2238 -2.1850 -1.0649
 5849TIP3    H217554   6.054   3.957   2.835 -1.3057 -1.3601 -1.5846
 5850TIP3   OH217555   1.903   3.557   2.774 -0.0215 -0.7643  0.5536
 5850TIP3    H117556   1.871   3.531   2.687 -1.5592 -0.6056  1.0341
 5850TIP3    H217557   1.832   3.533   2.833  0.0459  1.1460  1.4870
 5851TIP3   OH217558   3.829   0.234   4.154  0.1899  0.6271 -0.3395
 5851TIP3    H117559   3.835   0.187   4.237 -0.7788  0.2729 -0.4533
 5851TIP3    H217560   3.744   0.279   4.158  0.0268  0.4287 -1.2244
 5852TIP3   OH217561   1.386   2.419   3.061  0.1844 -0.4105  0.4456
 5852TIP3    H117562   1.453   2.484   3.084 -0.7913  1.1152 -0.8409
 5852TIP3    H217563   1.435   2.345   3.024  1.1879  0.4713 -0.0234
 5853TIP3   OH217564   2.992   2.786   1.742  0.3516  0.1984  0.0135
 5853TIP3    H117565   2.997   2.872   1.702 -2.3238  0.3184 -0.2313
 5853TIP3    H217566   2.902   2.757   1.727  1.1913 -2.7285 -0.0693
 5854TIP3   OH217567   1.754   4.419   2.884  0.1274 -0.3733  0.2261
 5854TIP3    H117568   1.676   4.464   2.853  0.1713 -1.4640 -1.6040
 5854TIP3    H217569   1.815   4.422   2.811  1.0293 -1.3056  0.9048
 5855TIP3   OH217570   4.711   4.351   3.903 -0.7784  0.2398  0.5107
 5855TIP3    H117571   4.759   4.294   3.843 -1.3567  1.3211 -1.0538
 5855TIP3    H217572   4.619   4.328   3.891 -0.8943  0.4144  1.0397
 5856TIP3   OH217573   2.001   2.322   3.738 -0.1157 -0.3204 -0.0596
 5856TIP3    H117574   1.912   2.291   3.722 -0.4436  0.9337 -0.8167
 5856TIP3    H217575   2.045   2.313   3.654  0.2243 -0.1461  0.0975
 5857TIP3   OH217576   5.847   0.166   1.299 -0.3059  0.6386 -0.0046
 5857TIP3    H117577   5.885   0.206   1.376  1.1383 -0.8242  0.0990
 5857TIP3    H217578   5.896   0.202   1.226  1.6550 -1.4881  0.1508
 5858TIP3   OH217579   3.052   1.917   3.144  0.0314  0.5114  0.6322
 5858TIP3    H117580   3.104   1.930   3.065 -1.4394  1.1541 -0.2722
 5858TIP3    H217581   3.060   1.823   3.163 -2.2111 -0.3962 -2.2541
 5859TIP3   OH217582   5.590   4.927   4.286 -0.2627  0.5319 -0.2965
 5859TIP3    H117583   5.580   4.875   4.206  1.5057  0.8014 -0.7396
 5859TIP3    H217584   5.683   4.949   4.289 -0.3834  0.9595  1.5887
 5860TIP3   OH217585   0.067   3.402   3.530 -0.0660 -0.2462 -0.1431
 5860TIP3    H117586   0.024   3.473   3.578 -0.3729 -2.5722  3.3719
 5860TIP3    H217587   0.013   3.390   3.452 -0.7901  2.3762 -0.1620
 5861TIP3   OH217588   1.722   3.677   5.092  0.0427 -0.4713 -0.3207
 5861TIP3    H117589   1.755   3.597   5.051 -0.8656 -1.5582  0.9714
 5861TIP3    H217590   1.782   3.694   5.164  0.2991  0.0951 -0.6606
 5862TIP3   OH217591   4.118   2.879   3.996  0.5460  0.1383  0.4429
 5862TIP3    H117592   4.033   2.859   4.033 -0.0144  1.3697 -0.1119
 5862TIP3    H217593   4.100   2.946   3.929  1.9633  0.6005  0.4828
 5863TIP3   OH217594   0.123   1.691   1.031  0.3968 -0.0903 -0.7043
 5863TIP3    H117595   0.113   1.631   0.957  1.6838 -1.2300  0.0151
 5863TIP3    H217596   0.200   1.659   1.078  0.0934  1.1136  0.6731
 5864TIP3   OH217597   2.955   3.665   0.046  0.4994  0.0070  0.0782
 5864TIP3    H117598   2.893   3.594   0.061  1.6924 -0.7902  1.4908
 5864TIP3    H217599   2.923   3.737   0.100  0.2896 -0.0736  0.0606
 5865TIP3   OH217600   1.984   4.633   3.783  0.1933  0.1259  0.1211
 5865TIP3    H117601   1.908   4.677   3.746 -0.5146 -0.3774  0.9587
 5865TIP3    H217602   2.004   4.680   3.863  1.3177  0.7968 -0.5210
 5866TIP3   OH217603   5.310   5.315   1.944  0.2683  0.2292  0.5157
 5866TIP3    H117604   5.247   5.267   1.999 -0.3223  1.0656  0.5961
 5866TIP3    H217605   5.330   5.394   1.995  0.1501  0.7391 -0.2184
 5867TIP3   OH217606   5.774   3.155   0.606  0.0658 -0.7347 -0.2381
 5867TIP3    H117607   5.849   3.165   0.664  0.6492 -0.1544 -1.0745
 5867TIP3    H217608   5.711   3.220   0.637  0.7487  0.2301 -0.8126
 5868TIP3   OH217609   4.777   0.961   1.314  0.4544  0.2704  0.3444
 5868TIP3    H117610   4.752   0.870   1.329 -0.9713  0.2209 -1.8633
 5868TIP3    H217611   4.720   1.012   1.372  0.9083 -0.1787  1.2118
 5869TIP3   OH217612   3.008   2.845   2.419  0.1743  0.5267  0.3152
 5869TIP3    H117613   2.966   2.871   2.337  1.5257  0.4783 -0.4164
 5869TIP3    H217614   2.953   2.775   2.453 -1.1458  1.4461  0.1508
 5870TIP3   OH217615   0.124   1.575   1.888 -0.6866  0.0390  0.4823
 5870TIP3    H117616   0.168   1.490   1.893 -1.2691 -0.2417  0.8327
 5870TIP3    H217617   0.179   1.626   1.829  2.1997  0.9447  3.6200
 5871TIP3   OH217618   6.133   3.475   1.683  0.3292  0.3472 -0.1923
 5871TIP3    H117619   6.134   3.447   1.775  1.2178  1.0759  0.0441
 5871TIP3    H217620   6.041   3.489   1.663  0.1479  0.5269  0.7145
 5872TIP3   OH217621   2.511   3.975   2.178 -0.1495 -0.6293 -0.0476
 5872TIP3    H117622   2.566   4.012   2.247 -0.2378  1.2189 -0.8840
 5872TIP3    H217623   2.561   3.988   2.098 -1.0673 -0.4748 -0.6100
 5873TIP3   OH217624   4.339   5.301   3.413 -0.5148  0.2369 -0.9085
 5873TIP3    H117625   4.418   5.294   3.360 -0.6443  1.1113 -1.2303
 5873TIP3    H217626   4.284   5.227   3.384  0.1510 -0.3445 -0.7142
 5874TIP3   OH217627   4.671   0.373   4.951  0.0185  0.2261  0.3771
 5874TIP3    H117628   4.634   0.459   4.970 -0.4341  0.4739 -1.4340
 5874TIP3    H217629   4.628   0.314   5.013 -0.9006  1.0429  0.5408
 5875TIP3   OH217630   0.121   3.340   1.851  0.2549  0.3615  0.0119
 5875TIP3    H117631   0.195   3.353   1.793  0.6784  0.0712  0.4850
 5875TIP3    H217632   0.046   3.327   1.793  0.6214  0.3823 -0.4629
 5876TIP3   OH217633   1.017   4.170   2.590 -0.3521  0.2655  0.5117
 5876TIP3    H117634   1.086   4.166   2.656  0.9747 -0.6561 -0.8877
 5876TIP3    H217635   0.952   4.230   2.628  0.7425  0.4168  2.2735
 5877TIP3   OH217636   5.416   5.722   3.127 -0.5172 -0.5637  0.3532
 5877TIP3    H117637   5.424   5.695   3.219 -0.2109 -1.1361  0.1649
 5877TIP3    H217638   5.329   5.691   3.101 -1.3703  1.1864  0.9495
 5878TIP3   OH217639   5.988   0.092   2.224 -0.1063 -0.3835  0.6768
 5878TIP3    H117640   6.082   0.089   2.238 -0.4091 -0.4345  3.1395
 5878TIP3    H217641   5.978   0.103   2.129  2.3470 -0.3206  0.3651
 5879TIP3   OH217642   0.794   4.060   1.153 -0.6417 -0.1307  0.9171
 5879TIP3    H117643   0.721   4.093   1.204 -0.5378 -0.9282  1.5981
 5879TIP3    H217644   0.871   4.104   1.189 -0.7513  0.5561  0.3338
 5880TIP3   OH217645   1.174   2.082   3.529 -0.3542 -0.0392  0.2499
 5880TIP3    H117646   1.187   2.159   3.586 -0.1127 -1.3130  1.9936
 5880TIP3    H217647   1.164   2.119   3.442  0.9065  1.9303  0.8552
 5881TIP3   OH217648   0.066   5.032   1.962  0.7124 -0.8713 -0.0279
 5881TIP3    H117649  -0.002   4.969   1.941  0.8784 -1.3352  0.7853
 5881TIP3    H217650   0.137   5.012   1.900  0.2430 -0.5901 -0.6650
 5882TIP3   OH217651   3.066   4.121   2.610  0.5451  0.0555 -0.4106
 5882TIP3    H117652   3.145   4.066   2.612 -0.6284 -1.7272 -0.4667
 5882TIP3    H217653   3.069   4.170   2.692  1.4937 -0.2941 -0.2178
 5883TIP3   OH217654   4.707   2.995   2.548 -0.2332 -0.4651 -0.5337
 5883TIP3    H117655   4.711   2.989   2.453  2.2830 -1.2661 -0.4318
 5883TIP3    H217656   4.750   2.915   2.579 -0.5145  0.0456  1.2781
 5884TIP3   OH217657   5.102   4.164   4.870  0.1670  0.2164 -0.2953
 5884TIP3    H117658   5.119   4.193   4.960 -1.0755  1.5844 -0.4759
 5884TIP3    H217659   5.178   4.109   4.849  0.2107 -0.6314  1.7780
 5885TIP3   OH217660   1.311   4.228   1.354 -0.1293 -0.1951  0.1788
 5885TIP3    H117661   1.286   4.183   1.435 -0.3143 -1.4870 -0.5598
 5885TIP3    H217662   1.373   4.295   1.382 -1.3156  0.3942  1.5655
 5886TIP3   OH217663   4.298   4.907   4.053  0.2340  0.1010 -0.2760
 5886TIP3    H117664   4.256   4.887   4.137  0.3154 -0.0607 -0.2736
 5886TIP3    H217665   4.226   4.941   3.998  0.0702 -0.3002 -0.3153
 5887TIP3   OH217666   0.904   2.794   1.253 -0.0350 -0.0540  0.3537
 5887TIP3    H117667   0.965   2.792   1.179 -1.4904 -2.3908 -0.8919
 5887TIP3    H217668   0.957   2.773   1.329  0.5803 -3.8043 -0.9218
 5888TIP3   OH217669   3.755   3.444   2.884  0.5441 -0.1725  0.1570
 5888TIP3    H117670   3.743   3.496   2.805  0.0304 -0.7168 -0.1366
 5888TIP3    H217671   3.722   3.357   2.860 -0.3604 -0.1350  1.2125
 5889TIP3   OH217672   5.908   5.524   2.330  0.6349  0.2928  0.0449
 5889TIP3    H117673   5.989   5.474   2.331  0.7536  0.4849  0.3009
 5889TIP3    H217674   5.861   5.492   2.253 -0.0628 -1.4204  1.1297
 5890TIP3   OH217675   1.323   4.119   4.772  0.2330 -0.4937 -0.3556
 5890TIP3    H117676   1.416   4.118   4.750  0.0726 -2.8194 -1.2075
 5890TIP3    H217677   1.282   4.069   4.702 -1.7159  0.6497 -0.0977
 5891TIP3   OH217678   1.048   1.165   2.363 -0.6225 -0.2810 -0.0549
 5891TIP3    H117679   1.140   1.190   2.372 -0.6300 -0.2824  0.0339
 5891TIP3    H217680   1.046   1.071   2.384 -0.5401 -0.4399 -0.7507
 5892TIP3   OH217681   5.873   2.677   4.939 -0.0663  0.1361 -0.3427
 5892TIP3    H117682   5.853   2.665   5.032 -0.0703  0.2060 -0.3342
 5892TIP3    H217683   5.795   2.645   4.893 -0.2826  0.5864 -0.3025
 5893TIP3   OH217684   0.609   5.527   0.727  0.2301  0.1419  0.0155
 5893TIP3    H117685   0.542   5.580   0.771  0.0152  0.9257 -1.1921
 5893TIP3    H217686   0.576   5.438   0.732  0.2776  0.1838  1.5186
 5894TIP3   OH217687   2.566   0.870   5.196 -0.2842  0.0804 -0.0479
 5894TIP3    H117688   2.490   0.826   5.159 -0.0259  0.0795 -0.5817
 5894TIP3    H217689   2.571   0.953   5.148 -0.3463  0.3814  0.4554
 5895TIP3   OH217690   1.586   3.253   0.102 -0.0601 -0.0980  0.6574
 5895TIP3    H117691   1.507   3.280   0.055  0.7704  1.8129  0.2426
 5895TIP3    H217692   1.622   3.182   0.050 -1.2231 -0.6331  0.5620
 5896TIP3   OH217693   2.738   3.653   3.509 -1.0984 -0.3680 -0.1935
 5896TIP3    H117694   2.704   3.739   3.532 -0.4322 -0.5814  1.7568
 5896TIP3    H217695   2.762   3.661   3.416 -0.6272  1.6877  0.0497
 5897TIP3   OH217696   1.885   1.919   4.645 -0.1258  0.0009 -0.0334
 5897TIP3    H117697   1.847   1.835   4.616 -0.7205 -0.4532  1.9155
 5897TIP3    H217698   1.975   1.916   4.614 -0.3648 -1.0056 -0.6976
 5898TIP3   OH217699   0.209   5.713   3.268 -0.3896  0.6819 -0.8792
 5898TIP3    H117700   0.141   5.719   3.335 -1.3911 -0.1136 -1.8050
 5898TIP3    H217701   0.181   5.773   3.199  0.1638  0.8042 -1.0024
 5899TIP3   OH217702   5.908   0.267   4.867  0.7742  0.0849  0.2467
 5899TIP3    H117703   5.871   0.231   4.786  0.3667 -2.0349  1.3071
 5899TIP3    H217704   6.002   0.276   4.847  0.4324  1.2979 -1.0012
 5900TIP3   OH217705   0.482   4.432   4.337  0.1915  0.0059 -0.6963
 5900TIP3    H117706   0.489   4.448   4.431  0.9838  0.6967 -0.8613
 5900TIP3    H217707   0.494   4.338   4.327  2.7792  0.2113 -0.3060
 5901TIP3   OH217708   2.425   3.192   1.991  0.5853 -0.4864  0.1491
 5901TIP3    H117709   2.417   3.200   2.086  0.9586  1.2423  0.0774
 5901TIP3    H217710   2.346   3.233   1.957  0.2767 -1.4338 -0.2981
 5902TIP3   OH217711   3.233   3.667  -0.003  0.4969  0.1017  0.1599
 5902TIP3    H117712   3.141   3.693   0.002 -0.1387 -1.9177  0.0852
 5902TIP3    H217713   3.281   3.740   0.036 -1.1773  0.9679  0.7086
 5903TIP3   OH217714   5.320   5.615   1.875  0.1671  0.1149  0.0999
 5903TIP3    H117715   5.240   5.576   1.911  0.0953 -1.3229 -1.4836
 5903TIP3    H217716   5.297   5.707   1.861 -1.3894 -0.3640 -0.7564
 5904TIP3   OH217717   3.454   0.815   3.012 -0.1790 -0.3528 -0.2749
 5904TIP3    H117718   3.475   0.877   3.082 -0.6483 -0.5591  0.0577
 5904TIP3    H217719   3.535   0.805   2.963  0.1583 -0.2093  0.2482
 5905TIP3   OH217720   2.843   3.497   1.406 -0.2996  0.4698  0.4577
 5905TIP3    H117721   2.754   3.487   1.374  0.3565  0.6230 -1.5599
 5905TIP3    H217722   2.834   3.540   1.491 -2.1257  0.6600  0.1936
 5906TIP3   OH217723   4.874   4.503   0.225  0.2332 -0.5434  0.0455
 5906TIP3    H117724   4.857   4.530   0.134  0.9532 -0.3009 -0.0241
 5906TIP3    H217725   4.788   4.481   0.260 -0.0679 -0.5190 -0.6613
 5907TIP3   OH217726   5.031   0.077   1.877  0.0996 -0.1400  0.1652
 5907TIP3    H117727   5.037   0.113   1.788 -1.5886  0.1004  0.1251
 5907TIP3    H217728   4.938   0.084   1.900  0.4268 -0.6554  1.7685
 5908TIP3   OH217729   5.295   5.040   2.308  0.4861  0.5280  0.2013
 5908TIP3    H117730   5.308   5.036   2.403  1.6738  1.7143  0.1181
 5908TIP3    H217731   5.383   5.049   2.272  0.0918 -0.3698 -1.0635
 5909TIP3   OH217732   2.843   3.300   1.659 -0.4705  0.1685 -0.0760
 5909TIP3    H117733   2.775   3.283   1.723 -0.6282  0.1641 -0.2441
 5909TIP3    H217734   2.796   3.335   1.583 -0.5189 -1.6387 -0.9235
 5910TIP3   OH217735   6.261   1.395   3.530  0.2085  0.2785 -0.1749
 5910TIP3    H117736   6.293   1.322   3.477 -1.7676 -0.1692 -0.8345
 5910TIP3    H217737   6.324   1.401   3.602  2.3180  0.1489 -1.9056
 5911TIP3   OH217738   0.921   3.834   0.641  0.2842  0.2308  0.4853
 5911TIP3    H117739   0.969   3.850   0.559  0.0643 -1.3633  0.0078
 5911TIP3    H217740   0.834   3.870   0.625  0.7990  1.6833  0.7653
 5912TIP3   OH217741   5.690   2.668   0.405 -0.3260  0.2691  0.1540
 5912TIP3    H117742   5.699   2.763   0.413  0.8532  0.0657  1.5004
 5912TIP3    H217743   5.629   2.657   0.332 -0.7639  2.0617  0.1855
 5913TIP3   OH217744   3.584   1.183   3.633  0.2952 -0.2074  0.0121
 5913TIP3    H117745   3.528   1.113   3.666 -2.4390  0.9087 -1.9271
 5913TIP3    H217746   3.588   1.168   3.538  2.3411  0.4857 -0.0697
 5914TIP3   OH217747   4.489   0.829   4.757  0.7522  0.0873  0.4311
 5914TIP3    H117748   4.519   0.873   4.677  0.1449  0.6760  0.5158
 5914TIP3    H217749   4.523   0.883   4.828 -0.6441  0.9145  0.5301
 5915TIP3   OH217750   5.903   3.054   2.078  0.0384 -0.3177 -0.1960
 5915TIP3    H117751   5.983   3.001   2.078 -0.9108 -1.8482 -0.5443
 5915TIP3    H217752   5.841   3.003   2.131 -1.0869  0.1499 -1.0130
 5916TIP3   OH217753   3.050   3.961   3.611 -0.1536  0.3395 -0.2281
 5916TIP3    H117754   3.137   3.998   3.621 -0.1074 -0.0337  0.8363
 5916TIP3    H217755   2.999   3.997   3.684 -0.6849 -0.0380 -0.3993
 5917TIP3   OH217756   5.863   2.624   0.622 -0.2255  0.7661  0.3233
 5917TIP3    H117757   5.818   2.633   0.538  0.5409  0.0619 -0.1786
 5917TIP3    H217758   5.907   2.707   0.635  1.7329  0.0492 -1.2404
 5918TIP3   OH217759   5.031   5.014   5.094  0.3178  0.2009  0.0707
 5918TIP3    H117760   5.099   4.961   5.053 -1.1927 -1.8307  0.0110
 5918TIP3    H217761   4.972   4.950   5.135 -1.2092  1.8785  0.6357
 5919TIP3   OH217762   5.964   0.456   2.069  0.2651 -0.0762  0.5354
 5919TIP3    H117763   6.036   0.488   2.122 -0.4557  0.0885  1.4331
 5919TIP3    H217764   5.888   0.507   2.097 -1.0415 -2.7569  2.3210
 5920TIP3   OH217765   0.827   0.308   2.298  0.8001  0.4926 -0.2835
 5920TIP3    H117766   0.795   0.394   2.270  1.4526  0.4147 -1.3623
 5920TIP3    H217767   0.860   0.268   2.217  0.9609 -0.5725  0.2906
 5921TIP3   OH217768   4.756   4.208   2.164  0.7133  0.5652 -0.2691
 5921TIP3    H117769   4.675   4.191   2.116  0.8681  0.0203 -0.3423
 5921TIP3    H217770   4.727   4.234   2.251  0.4533  0.3591 -0.2923
 5922TIP3   OH217771   1.024   5.807   4.492 -0.2711 -0.3175  0.2121
 5922TIP3    H117772   0.990   5.764   4.413 -1.0074  0.3195  0.1593
 5922TIP3    H217773   1.042   5.736   4.553 -0.4263 -0.7706 -0.2672
 5923TIP3   OH217774   4.072   4.186   1.833 -0.1150  0.4722 -0.5650
 5923TIP3    H117775   4.140   4.224   1.776 -0.3372  0.3914 -0.8891
 5923TIP3    H217776   3.993   4.188   1.780  0.1995 -2.0689 -1.2822
 5924TIP3   OH217777   0.684   3.666   2.406  0.5277 -0.6758 -0.1046
 5924TIP3    H117778   0.618   3.597   2.402  0.6452 -0.7262 -3.1007
 5924TIP3    H217779   0.767   3.622   2.392  0.9314 -0.2426  0.8132
 5925TIP3   OH217780   4.063   2.509   3.750 -0.2624 -0.2054 -0.7676
 5925TIP3    H117781   3.990   2.558   3.712 -1.4015 -0.6642  0.7187
 5925TIP3    H217782   4.107   2.572   3.808  1.3159  0.4223 -2.5549
 5926TIP3   OH217783   4.270   4.344   5.030 -0.0714 -0.2905 -0.1963
 5926TIP3    H117784   4.207   4.324   4.961 -1.1929  1.2717  0.3311
 5926TIP3    H217785   4.297   4.434   5.014 -0.4077  0.1324  1.4090
 5927TIP3   OH217786   1.331   5.988   3.441 -0.4964  0.7821  0.3439
 5927TIP3    H117787   1.316   6.016   3.531 -3.0513 -0.2245  0.2977
 5927TIP3    H217788   1.329   5.892   3.445 -1.9448  0.7167 -0.9302
 5928TIP3   OH217789   2.858   3.856   0.935 -0.0019  0.3873 -0.2777
 5928TIP3    H117790   2.838   3.819   1.021 -0.8141 -1.1623 -1.0856
 5928TIP3    H217791   2.953   3.848   0.927  0.0320  0.1438  0.2996
 5929TIP3   OH217792   6.322   2.232   1.786  0.7069  0.0316 -0.3649
 5929TIP3    H117793   6.371   2.155   1.758  2.1767 -0.2214  2.5333
 5929TIP3    H217794   6.296   2.212   1.876  0.9742  2.8190  0.4117
 5930TIP3   OH217795   0.778   4.821   0.408 -0.0291  0.5210 -0.2929
 5930TIP3    H117796   0.869   4.829   0.435  0.1540 -1.0654 -0.3754
 5930TIP3    H217797   0.769   4.731   0.379 -1.6332  0.6518 -0.2873
 5931TIP3   OH217798   2.097   1.673   0.562 -0.0281  0.3721  0.2119
 5931TIP3    H117799   2.032   1.626   0.510  0.5350 -0.8386  0.5729
 5931TIP3    H217800   2.054   1.756   0.585 -0.7393  0.3939 -1.1170
 5932TIP3   OH217801   1.674   1.957   3.212 -0.1354 -0.2039 -0.0993
 5932TIP3    H117802   1.584   1.948   3.243 -0.3096 -0.5316 -0.6820
 5932TIP3    H217803   1.673   1.920   3.124  0.3501  0.6771 -0.4921
 5933TIP3   OH217804   5.465   1.982   1.677 -0.6777  0.2458  0.8662
 5933TIP3    H117805   5.464   2.065   1.725  0.3263  0.1627  1.0448
 5933TIP3    H217806   5.391   1.933   1.712 -1.2848  1.0565  0.7610
 5934TIP3   OH217807   0.206   0.237   3.236 -0.2921  0.2234 -0.0693
 5934TIP3    H117808   0.242   0.324   3.222  1.1245 -0.6049 -1.9743
 5934TIP3    H217809   0.201   0.198   3.149  1.3275 -2.4412  0.9032
 5935TIP3   OH217810   3.922   1.674   1.061 -0.5410 -0.1313  0.4215
 5935TIP3    H117811   3.979   1.743   1.027 -1.1859  0.4995  0.5932
 5935TIP3    H217812   3.966   1.643   1.140  1.5667 -2.3927 -1.4388
 5936TIP3   OH217813   1.647   3.089   0.344 -0.0046 -0.6255 -0.7082
 5936TIP3    H117814   1.616   3.147   0.275  1.0031  1.1412  0.2502
 5936TIP3    H217815   1.742   3.089   0.334  0.2809  0.6191  1.3160
 5937TIP3   OH217816   3.013   5.754   4.095  0.1942 -0.0768  0.2261
 5937TIP3    H117817   3.088   5.709   4.134 -1.7668 -3.6487  0.2559
 5937TIP3    H217818   2.963   5.786   4.169 -1.1487 -2.8077  0.6298
 5938TIP3   OH217819   0.803   0.362   4.505 -0.8035 -0.1282  0.2684
 5938TIP3    H117820   0.749   0.435   4.536 -1.6968 -0.3585 -0.6689
 5938TIP3    H217821   0.864   0.345   4.577 -1.4931  0.6302  1.0632
 5939TIP3   OH217822   6.336   4.942   5.128  0.0405  0.8401 -0.8100
 5939TIP3    H117823   6.390   4.958   5.205 -0.2097 -0.0579 -0.4320
 5939TIP3    H217824   6.287   5.023   5.115 -1.2169  0.4340  1.0346
 5940TIP3   OH217825   4.572   2.686   0.666 -0.5041 -0.2838 -0.2246
 5940TIP3    H117826   4.604   2.640   0.744  2.9596 -0.9366 -1.8169
 5940TIP3    H217827   4.490   2.642   0.643 -0.2549 -1.7964  1.5723
 5941TIP3   OH217828   4.898   0.924   3.276 -0.7202  0.0090  0.8426
 5941TIP3    H117829   4.907   0.833   3.247  0.3310 -0.1726  1.6687
 5941TIP3    H217830   4.981   0.965   3.253 -1.3660  0.9147  0.0329
 5942TIP3   OH217831   4.013   2.941   0.238  0.0022  0.5898 -0.5662
 5942TIP3    H117832   3.955   3.012   0.210 -1.0601 -0.8016 -2.0363
 5942TIP3    H217833   4.096   2.960   0.194 -0.7719  0.0755 -2.3648
 5943TIP3   OH217834   1.870   4.673   4.062  0.6136 -0.7332  0.0855
 5943TIP3    H117835   1.918   4.619   4.124 -0.4025 -0.7151  0.9101
 5943TIP3    H217836   1.781   4.678   4.097 -1.2929 -4.2323 -3.4665
 5944TIP3   OH217837   0.184   0.446   0.715  0.6474  0.0139  0.5135
 5944TIP3    H117838   0.240   0.519   0.687 -0.4296  1.6754  2.3981
 5944TIP3    H217839   0.109   0.450   0.656  0.7414  0.2085  0.4046
 5945TIP3   OH217840   4.608   3.821   0.598  0.8587 -0.4447  0.2463
 5945TIP3    H117841   4.646   3.907   0.611 -0.5214  0.0786  1.0896
 5945TIP3    H217842   4.522   3.838   0.559  0.3434 -1.3824  0.9105
 5946TIP3   OH217843   1.212   3.215   2.772  0.0532 -0.1139  0.2461
 5946TIP3    H117844   1.298   3.175   2.764  0.4610  0.4982  1.3855
 5946TIP3    H217845   1.151   3.143   2.754  0.7677 -0.4117 -1.1892
 5947TIP3   OH217846   5.657   5.519   2.707 -0.3459 -0.5233 -0.3574
 5947TIP3    H117847   5.629   5.446   2.652 -0.5531 -1.0554  0.4285
 5947TIP3    H217848   5.752   5.524   2.694 -0.0801 -1.9398  0.7085
 5948TIP3   OH217849   3.862   2.220   4.240 -0.0130 -0.2700 -0.4317
 5948TIP3    H117850   3.890   2.179   4.322 -0.0502  1.3036  0.4094
 5948TIP3    H217851   3.941   2.223   4.186  0.4381  0.2302  0.2369
 5949TIP3   OH217852   0.544   0.932   4.677  0.1769  0.3110 -0.3030
 5949TIP3    H117853   0.606   0.880   4.626 -0.4759 -1.5748  0.7239
 5949TIP3    H217854   0.461   0.884   4.671  0.1312 -0.2136  2.7182
 5950TIP3   OH217855   1.146   1.626   3.090  0.0041  0.3642 -0.0080
 5950TIP3    H117856   1.084   1.693   3.116  0.3386  0.6644  0.0241
 5950TIP3    H217857   1.229   1.672   3.081 -0.1478  0.3277 -1.9288
 5951TIP3   OH217858   4.921   5.962   3.273 -0.3145  0.0259  0.3506
 5951TIP3    H117859   4.883   5.956   3.360  2.0066  1.0230  1.5020
 5951TIP3    H217860   5.012   5.933   3.284  0.0904  0.3656 -1.6906
 5952TIP3   OH217861   0.150   3.677   4.349 -0.3374  0.9724 -0.0763
 5952TIP3    H117862   0.204   3.601   4.328 -0.6704  0.5854  0.4534
 5952TIP3    H217863   0.108   3.700   4.266 -0.3586  0.4757 -0.2091
 5953TIP3   OH217864   1.519   0.328   0.179 -0.1033  0.0304 -0.1220
 5953TIP3    H117865   1.524   0.239   0.145 -1.7441 -0.1669  0.0935
 5953TIP3    H217866   1.514   0.318   0.274 -2.1455  0.2275 -0.1753
 5954TIP3   OH217867   0.330   0.482   4.594  0.0843 -0.2187 -0.3074
 5954TIP3    H117868   0.278   0.408   4.626 -0.9135 -0.0864 -1.5497
 5954TIP3    H217869   0.267   0.553   4.583  0.6315  0.1248 -1.2968
 5955TIP3   OH217870   3.854   5.086   2.402 -0.0217  0.0554 -0.1171
 5955TIP3    H117871   3.925   5.055   2.459  0.4957  0.8409 -0.3184
 5955TIP3    H217872   3.789   5.016   2.405  0.6991 -0.6223  0.1820
 5956TIP3   OH217873   1.148   5.807   1.214 -0.1797 -0.4125  0.1596
 5956TIP3    H117874   1.153   5.735   1.152 -0.4360 -0.8519  0.6350
 5956TIP3    H217875   1.217   5.787   1.278  1.1264  0.8419 -0.7968
 5957TIP3   OH217876   3.537   2.629   5.147 -0.1593 -0.2488 -0.4789
 5957TIP3    H117877   3.604   2.583   5.098 -0.6273  0.2646 -1.6259
 5957TIP3    H217878   3.456   2.613   5.098 -0.6970  0.0047  0.3075
 5958TIP3   OH217879   5.558   0.542   3.852  0.7938  0.4093  0.4487
 5958TIP3    H117880   5.499   0.617   3.862 -1.7540 -1.0000 -2.4082
 5958TIP3    H217881   5.526   0.478   3.916 -0.8072 -0.2845 -0.9706
 5959TIP3   OH217882   5.136   5.330   5.145  0.5860  0.0251 -0.1464
 5959TIP3    H117883   5.145   5.374   5.061 -2.0415 -1.3448 -1.2812
 5959TIP3    H217884   5.197   5.256   5.141 -0.8772 -1.2029 -1.8091
 5960TIP3   OH217885   0.621   1.361   2.307 -0.0954 -0.0078  0.2570
 5960TIP3    H117886   0.628   1.268   2.288 -0.9584  0.1538 -0.9771
 5960TIP3    H217887   0.544   1.369   2.364  0.1935 -0.0767  0.6630
 5961TIP3   OH217888   1.364   0.681   2.267 -0.1986  0.1997  0.2857
 5961TIP3    H117889   1.269   0.677   2.273 -0.0920 -0.4743  2.1774
 5961TIP3    H217890   1.392   0.589   2.272  0.6033  0.4900  1.5185
 5962TIP3   OH217891   2.186   0.796   0.279 -0.0126  0.7465  0.3403
 5962TIP3    H117892   2.108   0.851   0.285 -0.1658  0.5819 -0.1307
 5962TIP3    H217893   2.214   0.804   0.188 -0.4386 -0.5091  0.0779
 5963TIP3   OH217894   0.945   2.129   5.128  0.5485 -0.3801 -0.0209
 5963TIP3    H117895   1.012   2.069   5.160  0.9483  0.2355  0.3146
 5963TIP3    H217896   0.870   2.113   5.185  0.1557 -1.5603 -0.8360
 5964TIP3   OH217897   5.204   5.325   3.109  0.6136  0.0468 -0.6956
 5964TIP3    H117898   5.279   5.381   3.090  1.1217 -0.1043  0.7520
 5964TIP3    H217899   5.178   5.289   3.024  1.8782  0.4558 -1.2727
 5965TIP3   OH217900   3.086   0.577   2.323 -0.1180  0.4454 -0.2421
 5965TIP3    H117901   3.057   0.658   2.365  1.3174  0.3794  0.9494
 5965TIP3    H217902   3.066   0.508   2.385  1.2624  0.2506  0.0346
 5966TIP3   OH217903   3.822   4.448   3.426  0.1380  0.1421  0.4310
 5966TIP3    H117904   3.885   4.456   3.355 -0.3912  0.8430  0.0232
 5966TIP3    H217905   3.783   4.535   3.434 -1.1389 -0.3844  0.3229
 5967TIP3   OH217906   0.781   4.910   1.900  0.3892  0.4149  0.9972
 5967TIP3    H117907   0.701   4.943   1.941  0.6484  1.6688  0.5421
 5967TIP3    H217908   0.752   4.872   1.817 -0.0427 -1.4933  1.9571
 5968TIP3   OH217909   2.955   0.106   4.776 -0.4348 -0.0523 -0.2055
 5968TIP3    H117910   2.866   0.094   4.810 -1.0582  1.2044 -1.3108
 5968TIP3    H217911   3.007   0.125   4.853 -0.5340 -3.3778  0.8526
 5969TIP3   OH217912   5.943   2.538   3.493  0.2175 -0.3047  0.2497
 5969TIP3    H117913   6.035   2.554   3.515 -0.3587  0.3883  2.3637
 5969TIP3    H217914   5.911   2.480   3.562 -0.9724 -0.4727 -0.4155
 5970TIP3   OH217915   5.721   5.122   0.124 -0.1909 -0.0363  0.1040
 5970TIP3    H117916   5.626   5.113   0.113  0.1642 -2.5187 -1.8338
 5970TIP3    H217917   5.741   5.068   0.200 -0.3109  0.7103  0.6853
 5971TIP3   OH217918   2.362   2.710   4.912  0.4830 -0.0708  0.0135
 5971TIP3    H117919   2.334   2.619   4.922  0.8089 -0.0431  1.3979
 5971TIP3    H217920   2.285   2.762   4.935  0.9759 -0.0053  1.6084
 5972TIP3   OH217921   3.482   4.368   3.434  0.1166  0.6495 -0.3909
 5972TIP3    H117922   3.397   4.327   3.424  0.7584 -0.4789 -1.4568
 5972TIP3    H217923   3.486   4.434   3.364  0.8019 -0.5634 -1.5435
 5973TIP3   OH217924   2.596   0.438   2.083 -0.3542 -0.7268 -0.2794
 5973TIP3    H117925   2.571   0.519   2.037  2.2331  0.7362  0.6310
 5973TIP3    H217926   2.651   0.391   2.021  0.2187 -0.5008  0.0434
 5974TIP3   OH217927   5.394   4.808   3.414  0.2938  0.1316  0.2387
 5974TIP3    H117928   5.431   4.730   3.371  2.0467  0.6283  0.7619
 5974TIP3    H217929   5.415   4.795   3.507  0.9274  1.3751  0.2846
 5975TIP3   OH217930   0.817   4.452   4.491  0.8669 -0.3368  0.0417
 5975TIP3    H117931   0.800   4.374   4.439 -0.7620  0.1621 -0.2250
 5975TIP3    H217932   0.761   4.442   4.568  2.5716 -0.6303  1.2827
 5976TIP3   OH217933   0.699   3.485   3.940 -0.2073 -0.3968 -0.7211
 5976TIP3    H117934   0.620   3.436   3.918 -0.1485 -0.4913 -0.7221
 5976TIP3    H217935   0.688   3.570   3.897 -1.6815  0.7290  1.6201
 5977TIP3   OH217936   2.055   0.917   3.989  0.4896 -0.0097  0.6253
 5977TIP3    H117937   2.124   0.983   4.001  0.6019 -0.1914  0.9800
 5977TIP3    H217938   1.976   0.959   4.022  0.4826  0.0914  0.4839
 5978TIP3   OH217939   1.341   0.245   3.053 -0.0680 -0.4186  0.3275
 5978TIP3    H117940   1.335   0.150   3.058 -1.7662 -0.4225 -0.7200
 5978TIP3    H217941   1.250   0.274   3.046  0.5043  1.0742 -2.1479
 5979TIP3   OH217942   3.351   1.604   4.969 -0.2440  0.2707 -0.0620
 5979TIP3    H117943   3.294   1.533   4.999 -0.8416  0.7249 -0.0903
 5979TIP3    H217944   3.439   1.576   4.992 -0.4902 -0.3857  0.1116
 5980TIP3   OH217945   3.428   1.879   1.483  0.3876  0.2706  0.2416
 5980TIP3    H117946   3.478   1.801   1.507 -0.0890  0.2546  1.2675
 5980TIP3    H217947   3.482   1.952   1.513  0.5636  0.3137 -0.1804
 5981TIP3   OH217948   5.424   0.715   4.077  0.0902 -0.3262 -0.0519
 5981TIP3    H117949   5.481   0.784   4.041 -0.5404  1.2857  1.8603
 5981TIP3    H217950   5.470   0.686   4.155 -0.6986 -0.5416  0.3339
 5982TIP3   OH217951   1.636   0.896   2.448  0.1820 -0.4282  0.3633
 5982TIP3    H117952   1.649   0.804   2.422  0.3049 -0.5179  0.7307
 5982TIP3    H217953   1.544   0.901   2.473  0.3129 -0.5977  0.8996
 5983TIP3   OH217954   1.653   3.066   4.088  0.2840 -0.0906  0.2158
 5983TIP3    H117955   1.621   3.156   4.081  0.9198  0.0303 -1.6913
 5983TIP3    H217956   1.693   3.062   4.175 -1.1459  0.9794  0.9651
 5984TIP3   OH217957   0.877   0.856   4.781  0.4861 -0.2625 -1.4614
 5984TIP3    H117958   0.874   0.884   4.873 -0.3148 -0.5291 -1.3999
 5984TIP3    H217959   0.824   0.920   4.735 -1.1083 -1.4410 -1.3658
 5985TIP3   OH217960   6.231   5.654   2.402 -0.0525  0.0902 -0.5080
 5985TIP3    H117961   6.238   5.683   2.311  2.9862 -1.2017 -0.8360
 5985TIP3    H217962   6.294   5.709   2.449 -0.8699  0.0832  0.6249
 5986TIP3   OH217963   2.843   0.599   0.315 -0.1370  0.2107 -0.0632
 5986TIP3    H117964   2.906   0.632   0.379  0.7569 -0.2827 -0.6778
 5986TIP3    H217965   2.881   0.517   0.284 -1.0790 -0.0865 -0.4585
 5987TIP3   OH217966   3.269   0.302   2.529 -0.0255 -0.0933  0.5442
 5987TIP3    H117967   3.180   0.327   2.552  0.4778  0.4116  2.0147
 5987TIP3    H217968   3.295   0.239   2.596  0.6785 -0.3502  0.0457
 5988TIP3   OH217969   4.962   4.494   2.325  0.3340 -0.1843  0.0931
 5988TIP3    H117970   4.976   4.514   2.418  1.1747 -0.9947  0.1516
 5988TIP3    H217971   5.024   4.424   2.306 -0.5747 -0.7722 -0.8099
 5989TIP3   OH217972   4.321   5.394   4.886  0.0522 -0.3647  0.0908
 5989TIP3    H117973   4.323   5.369   4.794 -0.6887  1.1063 -0.3462
 5989TIP3    H217974   4.410   5.423   4.906  0.2656 -0.8911 -0.0917
 5990TIP3   OH217975   5.182   4.744   0.530 -0.5110  0.0058 -0.2219
 5990TIP3    H117976   5.245   4.676   0.556  0.3502  0.7674 -0.2890
 5990TIP3    H217977   5.201   4.760   0.438 -0.5685  0.4926 -0.1503
 5991TIP3   OH217978   4.986   4.165   0.703  0.3968 -0.2512  0.1096
 5991TIP3    H117979   5.038   4.220   0.645  0.4377 -0.5080 -0.0960
 5991TIP3    H217980   4.939   4.227   0.759  0.1575  0.0017 -0.3662
 5992TIP3   OH217981   2.799   0.482   2.737 -0.4840 -0.5015  0.1564
 5992TIP3    H117982   2.833   0.571   2.723 -1.4205 -0.0580  0.5420
 5992TIP3    H217983   2.743   0.466   2.661 -0.6064 -0.6124  0.2696
 5993TIP3   OH217984   0.736   1.099   2.239 -0.5824 -0.1446 -0.1022
 5993TIP3    H117985   0.799   1.099   2.166 -0.2015 -0.8606  0.2219
 5993TIP3    H217986   0.708   1.008   2.247 -2.3280  0.2846 -0.7933
 5994TIP3   OH217987   2.717   4.327   0.997 -0.0927  0.1455  0.0895
 5994TIP3    H117988   2.702   4.388   0.924 -0.3426 -0.4906 -0.3948
 5994TIP3    H217989   2.647   4.263   0.989 -1.8086  1.5601  2.5026
 5995TIP3   OH217990   0.072   5.501   2.149 -0.0408  0.9195 -0.0131
 5995TIP3    H117991   0.123   5.472   2.225 -2.1518  1.2366  1.6196
 5995TIP3    H217992   0.058   5.594   2.164 -1.0845  0.8364 -0.4252
 5996TIP3   OH217993   3.689   3.757   2.370  0.3846 -0.3659  0.3355
 5996TIP3    H117994   3.691   3.664   2.350  1.4376 -0.1211 -0.8456
 5996TIP3    H217995   3.622   3.793   2.311  1.9339  0.0189 -1.2624
 5997TIP3   OH217996   4.276   5.988   4.945  0.0265  0.3385  0.8141
 5997TIP3    H117997   4.277   5.943   4.860 -3.8813 -1.3970  1.4835
 5997TIP3    H217998   4.354   5.957   4.990  0.6933 -0.9147 -1.0864
 5998TIP3   OH217999   5.437   5.352   1.694 -0.4732  0.2170 -0.4185
 5998TIP3    H118000   5.394   5.372   1.777 -0.4677  1.4623 -0.6991
 5998TIP3    H218001   5.405   5.265   1.671  0.7661 -0.9022  1.6841
 5999TIP3   OH218002   3.597   4.111   3.999 -0.0459  0.1412 -0.5316
 5999TIP3    H118003   3.514   4.105   3.951 -0.0618 -1.7626 -0.3335
 5999TIP3    H218004   3.651   4.042   3.962 -0.1371 -1.5896  2.2803
 6000TIP3   OH218005   5.373   1.988   1.248  0.2932 -0.6074  0.4542
 6000TIP3    H118006   5.379   1.984   1.152  1.8312  0.6843  0.4638
 6000TIP3    H218007   5.378   2.082   1.268  0.0431 -0.8694  1.8142
 6001TIP3   OH218008   3.721   4.243   1.139 -0.3144 -0.4348  0.4576
 6001TIP3    H118009   3.732   4.176   1.207 -0.6613 -0.9193  0.0477
 6001TIP3    H218010   3.789   4.308   1.158 -1.1438  0.0459  1.9631
 6002TIP3   OH218011   4.742   1.248   5.038  0.2484  0.5749 -0.0103
 6002TIP3    H118012   4.732   1.343   5.028  0.2978  0.5047 -0.7623
 6002TIP3    H218013   4.686   1.227   5.113  1.0421  1.3396  0.8325
 6003TIP3   OH218014   2.526   2.042   3.267  0.1104  0.2140 -0.1559
 6003TIP3    H118015   2.431   2.053   3.274 -0.0243  0.0197 -1.4834
 6003TIP3    H218016   2.544   2.041   3.173  1.8154  3.6647 -0.0341
 6004TIP3   OH218017   2.317   4.757   0.063  0.2194 -0.6349 -0.4647
 6004TIP3    H118018   2.359   4.674   0.045  0.1211 -0.5927 -0.8853
 6004TIP3    H218019   2.224   4.736   0.073  0.3026 -0.6960  0.2489
 6005TIP3   OH218020   6.096   3.419   2.553  0.3618 -0.0212  0.1703
 6005TIP3    H118021   6.127   3.375   2.474  1.5565  0.6300  0.2441
 6005TIP3    H218022   6.030   3.481   2.522  0.0234 -0.5420 -0.1631
 6006TIP3   OH218023   5.902   4.757   0.455  0.1498 -0.1631  0.1674
 6006TIP3    H118024   5.817   4.720   0.481  0.0500 -1.3321 -1.6724
 6006TIP3    H218025   5.954   4.681   0.430  0.0467  0.8157 -3.4979
 6007TIP3   OH218026   0.821   2.508   1.198  1.1015  0.1583  0.2586
 6007TIP3    H118027   0.903   2.458   1.194  0.7649 -0.3659 -1.8906
 6007TIP3    H218028   0.848   2.599   1.207  1.8874 -0.0881  0.4525
 6008TIP3   OH218029   1.379   5.614   0.924  0.1337  0.2562  0.0519
 6008TIP3    H118030   1.409   5.534   0.966 -0.4330 -1.8833 -3.2288
 6008TIP3    H218031   1.284   5.611   0.930 -0.1820 -1.5369 -3.3707
 6009TIP3   OH218032   2.806   2.024   5.206  0.2975 -0.0866 -0.3935
 6009TIP3    H118033   2.784   1.945   5.158  0.6693 -0.3911 -0.0689
 6009TIP3    H218034   2.740   2.088   5.178  0.3357 -0.3395 -1.0815
 6010TIP3   OH218035   0.740   1.152   3.527  0.8652 -0.5514 -0.1025
 6010TIP3    H118036   0.758   1.115   3.613 -0.6331 -1.2446 -0.0644
 6010TIP3    H218037   0.794   1.231   3.524  1.8180 -1.1132  1.0034
 6011TIP3   OH218038   2.503   2.072   0.443 -0.2901  0.1031  0.0734
 6011TIP3    H118039   2.544   1.999   0.488 -0.4482 -0.7023 -1.0517
 6011TIP3    H218040   2.550   2.079   0.360  0.1173  1.6732  0.4110
 6012TIP3   OH218041   0.932   5.248   2.091 -0.1821 -0.0786 -0.8385
 6012TIP3    H118042   0.893   5.248   2.178  0.6531  0.4927 -0.4487
 6012TIP3    H218043   1.020   5.213   2.104  0.7154  1.9533 -1.0662
 6013TIP3   OH218044   0.033   0.089   3.901 -0.0944  0.6933 -0.4379
 6013TIP3    H118045  -0.000   0.153   3.963  1.8146  0.5999  0.7465
 6013TIP3    H218046  -0.011   0.007   3.925 -1.5873  1.2541 -1.1546
 6014TIP3   OH218047   5.000   4.137   2.862  0.6368  0.1762 -0.1963
 6014TIP3    H118048   5.040   4.059   2.900 -0.4749 -0.0681  0.5390
 6014TIP3    H218049   5.017   4.131   2.768  3.5503  0.8377  0.2019
 6015TIP3   OH218050   5.554   5.332   0.930  0.0363  0.3240  0.5081
 6015TIP3    H118051   5.527   5.299   0.844 -1.2884  1.1119  0.6032
 6015TIP3    H218052   5.647   5.352   0.919 -0.3084  1.2462 -1.0202
 6016TIP3   OH218053   5.116   2.187   4.704  0.6605  0.5622 -0.3326
 6016TIP3    H118054   5.045   2.123   4.690  0.7343 -0.3799  2.8475
 6016TIP3    H218055   5.118   2.238   4.623 -2.4738 -0.5164 -1.2517
 6017TIP3   OH218056   1.110   3.879   0.043  1.0502 -0.5904 -0.0665
 6017TIP3    H118057   1.088   3.789   0.067 -0.3234 -0.1740  0.3131
 6017TIP3    H218058   1.163   3.911   0.117 -0.8410 -0.2107  1.2009
 6018TIP3   OH218059   2.427   5.897   4.079 -0.4305 -0.6500 -0.0216
 6018TIP3    H118060   2.418   5.882   3.985 -3.2714 -0.4091  0.1336
 6018TIP3    H218061   2.463   5.815   4.113  0.5191 -0.7888 -1.2552
 6019TIP3   OH218062   1.274   4.068   4.136  0.6972  0.3250  1.2592
 6019TIP3    H118063   1.274   4.132   4.064  2.2425 -0.2832  0.6663
 6019TIP3    H218064   1.182   4.054   4.155  0.2623  1.0443 -0.1318
 6020TIP3   OH218065   1.595   4.741   0.368 -0.3122 -0.2524 -0.2325
 6020TIP3    H118066   1.598   4.736   0.273  0.0784  0.9485 -0.2955
 6020TIP3    H218067   1.679   4.779   0.393 -0.9817  0.8086  0.4795
 6021TIP3   OH218068   3.421   3.550   3.343  0.3327  0.2750  0.0696
 6021TIP3    H118069   3.483   3.544   3.269  1.5037 -0.4807  1.0738
 6021TIP3    H218070   3.341   3.584   3.304  0.4874 -1.3246 -1.8343
 6022TIP3   OH218071   3.753   0.132   0.383 -0.2492  0.3853  0.0952
 6022TIP3    H118072   3.804   0.059   0.418 -0.1108  0.9074  1.0109
 6022TIP3    H218073   3.702   0.093   0.312  1.2262 -0.2002 -0.6961
 6023TIP3   OH218074   4.628   0.906   0.266  0.1571  0.3749  0.4305
 6023TIP3    H118075   4.699   0.961   0.299  0.0299  0.6591  0.2326
 6023TIP3    H218076   4.553   0.931   0.319 -0.2725  1.4740 -0.6326
 6024TIP3   OH218077   2.808   2.726   2.200  0.2855  0.3153  0.1988
 6024TIP3    H118078   2.755   2.679   2.136 -0.2532  1.6649 -0.3777
 6024TIP3    H218079   2.858   2.789   2.148  1.3141  0.1092  0.9056
 6025TIP3   OH218080   0.991   1.030   1.201 -0.0040 -0.0256 -0.1877
 6025TIP3    H118081   1.017   0.987   1.282 -0.5125 -1.6263 -0.8355
 6025TIP3    H218082   0.903   1.064   1.219 -0.3081 -0.7849 -0.1947
 6026TIP3   OH218083   3.454   1.173   4.032 -0.5324 -0.3063  0.4992
 6026TIP3    H118084   3.535   1.177   3.981 -0.2368  1.3530  1.0303
 6026TIP3    H218085   3.461   1.246   4.094 -2.4963 -0.0592  0.4891
 6027TIP3   OH218086   0.458   4.357   2.568  0.0088 -0.1262  0.0340
 6027TIP3    H118087   0.431   4.421   2.502  1.6430 -0.5066 -1.0769
 6027TIP3    H218088   0.415   4.386   2.649 -0.8947  1.1891 -0.8743
 6028TIP3   OH218089   4.337   1.151   4.599 -0.7310  0.0333  0.4427
 6028TIP3    H118090   4.342   1.224   4.660 -1.9798  0.2337  0.3432
 6028TIP3    H218091   4.271   1.093   4.637  1.0772 -1.6894  1.1579
 6029TIP3   OH218092   0.770   4.934   3.649  0.2490  0.2721  0.4127
 6029TIP3    H118093   0.814   4.858   3.688  1.1112  0.1447 -0.7647
 6029TIP3    H218094   0.836   4.974   3.593 -0.8495  0.6499 -0.6422
 6030TIP3   OH218095   2.940   3.437   5.053  0.1516 -0.3643  0.2881
 6030TIP3    H118096   2.883   3.410   5.124  1.7711 -0.8199  1.4591
 6030TIP3    H218097   3.011   3.485   5.096  0.3035  0.8193 -1.1925
 6031TIP3   OH218098   0.714   3.452   4.818 -0.1822 -0.5631  0.4431
 6031TIP3    H118099   0.703   3.544   4.843  0.4605 -0.4148  0.2054
 6031TIP3    H218100   0.778   3.455   4.747  2.5937 -1.4643  2.7349
 6032TIP3   OH218101   4.081   0.128   3.268  0.3692 -0.2544  0.1041
 6032TIP3    H118102   4.057   0.212   3.230  0.3672 -0.0222  0.6221
 6032TIP3    H218103   4.170   0.141   3.301  0.9793 -0.9076 -1.1826
 6033TIP3   OH218104   0.288   5.174   0.406 -0.1608 -0.2171 -0.0764
 6033TIP3    H118105   0.290   5.095   0.352  0.0446  0.6515 -1.3658
 6033TIP3    H218106   0.343   5.237   0.359  1.3438  0.0857  1.9204
 6034TIP3   OH218107   2.139   5.219   2.855  0.0011  0.1598  0.0838
 6034TIP3    H118108   2.158   5.257   2.769  1.7723  0.5400  0.6076
 6034TIP3    H218109   2.078   5.281   2.895 -0.2142  0.3967 -0.5944
 6035TIP3   OH218110   5.732   3.400   3.289 -0.2131  0.0089  0.5530
 6035TIP3    H118111   5.742   3.350   3.208  0.7745  0.6649  0.2534
 6035TIP3    H218112   5.654   3.454   3.275 -0.1746 -0.0438  0.1293
 6036TIP3   OH218113   3.096   1.826   4.171 -0.2481 -0.2298  0.1143
 6036TIP3    H118114   3.019   1.840   4.226 -0.1214  0.2705  0.1715
 6036TIP3    H218115   3.065   1.844   4.082  0.0068  0.8488  0.2258
 6037TIP3   OH218116   1.373   5.486   2.109  0.5708 -0.2212 -0.6545
 6037TIP3    H118117   1.290   5.533   2.116  0.9598  0.2294  1.9865
 6037TIP3    H218118   1.350   5.394   2.121  0.4448 -0.0880  0.1577
 6038TIP3   OH218119   2.102   1.114   4.364  0.2344 -0.6394  1.1414
 6038TIP3    H118120   2.159   1.191   4.373 -1.2192  0.8147 -1.0814
 6038TIP3    H218121   2.158   1.040   4.389  2.2913  0.9494  1.5054
 6039TIP3   OH218122   2.905   1.315   3.148 -0.3706 -0.0669  0.6622
 6039TIP3    H118123   2.928   1.378   3.079  0.2090  0.1279  1.0211
 6039TIP3    H218124   2.810   1.322   3.157 -0.5958 -0.8277 -0.8210
 6040TIP3   OH218125   0.148   5.272   1.602  0.6946 -0.3143 -0.7091
 6040TIP3    H118126   0.065   5.248   1.561  0.7686 -0.3442 -0.8416
 6040TIP3    H218127   0.136   5.252   1.695 -0.0718  1.3579 -0.4264
 6041TIP3   OH218128   5.566   1.411   3.347 -0.0722  0.2667 -0.3591
 6041TIP3    H118129   5.661   1.401   3.339  0.0693 -0.3116  1.6346
 6041TIP3    H218130   5.530   1.331   3.311  0.2805 -0.1484  0.1981
 6042TIP3   OH218131   3.188   4.606   1.406  0.8247  0.0508  0.4021
 6042TIP3    H118132   3.263   4.588   1.350  0.7830  1.8551 -0.2809
 6042TIP3    H218133   3.154   4.690   1.376 -0.8687 -0.2335  1.3583
 6043TIP3   OH218134   5.798   3.261   5.131 -0.1734  0.1860  0.0854
 6043TIP3    H118135   5.772   3.204   5.204  1.3869 -1.3173 -0.4868
 6043TIP3    H218136   5.726   3.325   5.125 -0.4079  0.3166  2.8450
 6044TIP3   OH218137   6.186   3.353   2.878 -0.2329 -0.9499 -0.0996
 6044TIP3    H118138   6.210   3.286   2.943  3.0562  0.5576  0.4341
 6044TIP3    H218139   6.211   3.436   2.918 -0.7498  0.3024 -2.2004
 6045TIP3   OH218140   4.060   2.242   3.028 -0.1304 -0.4610  0.0116
 6045TIP3    H118141   4.052   2.337   3.032  1.5567 -0.2072 -1.4146
 6045TIP3    H218142   4.024   2.211   3.111  0.7316  1.5265  1.1906
 6046TIP3   OH218143   4.654   4.883   4.867 -0.2795 -0.6599 -0.4234
 6046TIP3    H118144   4.609   4.800   4.854  0.0041 -0.6849 -1.2903
 6046TIP3    H218145   4.736   4.874   4.818 -0.4929  0.3247 -0.9867
 6047TIP3   OH218146   3.194   2.629   2.099  0.1178  0.5952  0.0868
 6047TIP3    H118147   3.235   2.595   2.178 -2.0690 -0.2688  0.9323
 6047TIP3    H218148   3.246   2.594   2.027 -1.4654 -4.0937  0.8932
 6048TIP3   OH218149   2.571   2.848   2.356  0.3923  0.0575  0.4581
 6048TIP3    H118150   2.511   2.775   2.340 -0.2474  0.4019  1.2241
 6048TIP3    H218151   2.642   2.835   2.293 -1.5209  0.8343 -2.0364
 6049TIP3   OH218152   3.038   0.053   4.145 -0.4344  0.2535 -0.0792
 6049TIP3    H118153   3.084  -0.000   4.080 -1.0636 -0.3316 -0.0494
 6049TIP3    H218154   3.051   0.143   4.116  0.0221  0.0446 -0.5301
 6050TIP3   OH218155   4.857   4.632   1.571  0.0939 -0.0600 -0.0201
 6050TIP3    H118156   4.814   4.649   1.487 -0.6375 -0.1878  0.3145
 6050TIP3    H218157   4.786   4.639   1.636  0.7183  0.3891  0.6222
 6051TIP3   OH218158   6.033   0.248   1.061  0.3284  0.2906 -0.4363
 6051TIP3    H118159   6.076   0.164   1.048  0.5238  0.6536 -2.5512
 6051TIP3    H218160   5.994   0.268   0.976  0.4196  2.3901 -0.0427
 6052TIP3   OH218161   5.212   0.741   4.583  0.2138 -0.4638 -0.1363
 6052TIP3    H118162   5.260   0.671   4.626  2.4010  2.1473  2.0596
 6052TIP3    H218163   5.144   0.766   4.645  0.6947  0.5696  0.0039
 6053TIP3   OH218164   0.630   3.254   2.757 -0.6870  0.0071 -0.0271
 6053TIP3    H118165   0.538   3.273   2.771 -0.3663  0.1937  2.1645
 6053TIP3    H218166   0.667   3.336   2.723 -0.5292  1.5160  3.3869
 6054TIP3   OH218167   3.815   5.346   3.499 -0.9313  0.1386  0.0094
 6054TIP3    H118168   3.738   5.346   3.442  0.5201  0.5421 -2.0566
 6054TIP3    H218169   3.823   5.437   3.528 -2.2977 -0.2684  1.8547
 6055TIP3   OH218170   1.669   2.982   3.808  0.0749  0.4565  0.1142
 6055TIP3    H118171   1.655   3.010   3.898  0.7643  1.6983 -0.1382
 6055TIP3    H218172   1.753   2.936   3.810 -1.1989 -2.0498  0.5890
 6056TIP3   OH218173   1.118   2.512   0.510  0.1544 -0.4944 -0.1890
 6056TIP3    H118174   1.028   2.500   0.481  0.1787  1.0692 -0.9723
 6056TIP3    H218175   1.169   2.518   0.429  0.7499  0.1936  0.2274
 6057TIP3   OH218176   5.843   4.215   2.165  0.2062 -0.7139  0.4301
 6057TIP3    H118177   5.927   4.255   2.141  1.3972 -2.2911  1.7713
 6057TIP3    H218178   5.792   4.286   2.204  0.6696  0.3923 -0.9101
 6058TIP3   OH218179   4.227   5.448   3.815 -0.0070  0.0782 -0.1112
 6058TIP3    H118180   4.306   5.466   3.765  0.5638  0.8441  1.0249
 6058TIP3    H218181   4.248   5.369   3.866 -0.4084 -0.4141 -0.7021
 6059TIP3   OH218182   1.745   3.902   4.485  0.2417  0.1341 -0.0313
 6059TIP3    H118183   1.822   3.954   4.506  1.9139 -1.4722 -1.7634
 6059TIP3    H218184   1.775   3.811   4.494 -1.4258 -0.5306 -0.8433
 6060TIP3   OH218185   2.069   4.341   1.508  0.0863 -0.3400 -0.4577
 6060TIP3    H118186   2.159   4.332   1.540 -0.0394 -0.6427 -0.1880
 6060TIP3    H218187   2.076   4.329   1.413  0.1978 -1.3652 -0.3284
 6061TIP3   OH218188   1.725   4.792   1.503 -0.2312 -0.6284  0.8116
 6061TIP3    H118189   1.798   4.852   1.490 -0.3904 -0.1579  1.9666
 6061TIP3    H218190   1.684   4.821   1.584 -1.8843 -0.6952  0.0486
 6062TIP3   OH218191   5.400   3.023   3.031 -0.6416 -0.4369  0.1962
 6062TIP3    H118192   5.422   3.050   2.942  1.9044  1.9971  1.4003
 6062TIP3    H218193   5.466   2.957   3.054  0.1482  0.5705  0.9494
 6063TIP3   OH218194   0.511   5.183   0.145  0.4402  0.0143 -0.1992
 6063TIP3    H118195   0.590   5.183   0.092 -0.0907 -0.7438 -1.0287
 6063TIP3    H218196   0.530   5.123   0.217  0.7097  0.0348 -0.2553
 6064TIP3   OH218197   0.536   2.809   0.403 -0.1486  0.0057 -0.0386
 6064TIP3    H118198   0.565   2.798   0.312  0.0846  1.5211 -0.1748
 6064TIP3    H218199   0.442   2.792   0.401  0.0979 -1.4356 -0.2687
 6065TIP3   OH218200   6.109   1.520   1.243 -0.5917 -0.9417 -0.5647
 6065TIP3    H118201   6.154   1.442   1.275 -0.7082 -1.0235 -0.6017
 6065TIP3    H218202   6.175   1.589   1.249 -0.7314 -0.8662  0.2341
 6066TIP3   OH218203   2.647   5.941   5.154 -0.1891 -0.1616  0.2703
 6066TIP3    H118204   2.718   5.947   5.089 -0.6157  0.0930 -0.1810
 6066TIP3    H218205   2.612   6.030   5.158 -2.6805 -0.9108 -2.0202
 6067TIP3   OH218206   5.230   3.657   2.064 -0.0768 -0.3007 -0.2714
 6067TIP3    H118207   5.197   3.609   1.988  0.0242  1.2394 -1.3228
 6067TIP3    H218208   5.325   3.642   2.061 -0.0004  0.2292 -0.8172
 6068TIP3   OH218209   1.959   3.817   2.682 -0.1188  0.6048  0.1059
 6068TIP3    H118210   1.866   3.834   2.694 -0.0880  0.0778  1.1320
 6068TIP3    H218211   1.969   3.723   2.697  0.4424  0.4827 -0.9336
 6069TIP3   OH218212   4.195   2.041   1.076  0.1014  0.7262  0.4264
 6069TIP3    H118213   4.182   2.105   1.146 -0.5302 -1.0626  2.0404
 6069TIP3    H218214   4.277   1.997   1.099 -0.7770 -0.7582  0.8062
 6070TIP3   OH218215   6.313   0.986   0.565  0.4888 -0.0322  0.1185
 6070TIP3    H118216   6.221   0.983   0.537  0.0196  0.8393  1.4722
 6070TIP3    H218217   6.355   1.044   0.502 -0.2645  0.9132  0.4707
 6071TIP3   OH218218   0.995   2.476   4.577 -0.1548 -0.0507 -0.2693
 6071TIP3    H118219   0.965   2.557   4.535 -0.2607 -0.0744 -0.2415
 6071TIP3    H218220   0.943   2.471   4.658  1.2402  0.8705  0.7266
 6072TIP3   OH218221   3.041   1.218   3.359 -0.9272 -0.7175  0.0906
 6072TIP3    H118222   3.066   1.305   3.389  0.1203 -0.9113 -0.1683
 6072TIP3    H218223   2.996   1.233   3.276 -1.6512 -0.3564  0.5413
 6073TIP3   OH218224   5.861   2.370   1.108 -0.1988  0.4617 -0.2928
 6073TIP3    H118225   5.879   2.445   1.163 -0.9593  1.2046 -1.0183
 6073TIP3    H218226   5.801   2.316   1.159  0.3190  0.3636  0.2137
 6074TIP3   OH218227   5.707   5.036   1.842 -0.0487 -0.1269 -0.1615
 6074TIP3    H118228   5.683   5.129   1.841  3.4888  0.9583  0.4033
 6074TIP3    H218229   5.683   5.005   1.929  1.3527  1.1479  0.7293
 6075TIP3   OH218230   2.940   3.393   2.172 -0.4146  0.0575  0.4247
 6075TIP3    H118231   2.919   3.425   2.084 -0.0913 -0.9294 -0.0224
 6075TIP3    H218232   2.855   3.388   2.216 -0.8306 -1.2959 -0.4827
 6076TIP3   OH218233   1.901   3.662   0.444 -0.1237 -0.2474  0.7561
 6076TIP3    H118234   1.851   3.699   0.517 -0.1375 -0.0085  0.6248
 6076TIP3    H218235   1.895   3.567   0.458 -1.3689 -0.2650  0.2579
 6077TIP3   OH218236   3.321   3.322   0.542 -0.7698 -0.7829  0.4778
 6077TIP3    H118237   3.292   3.394   0.598 -2.4221 -0.9390 -0.1055
 6077TIP3    H218238   3.368   3.263   0.600 -1.4844 -0.4011  1.4655
 6078TIP3   OH218239   4.486   1.559   4.564 -0.5582 -0.2165 -0.3621
 6078TIP3    H118240   4.457   1.611   4.639  0.6992 -0.0294  0.0184
 6078TIP3    H218241   4.517   1.477   4.603 -2.0027 -1.0810 -0.9040
 6079TIP3   OH218242   5.837   5.358   0.909 -0.0623 -0.0144 -0.3918
 6079TIP3    H118243   5.872   5.395   0.990 -0.7985  0.9689 -0.5170
 6079TIP3    H218244   5.907   5.370   0.845 -0.4160  1.5165 -0.5244
 6080TIP3   OH218245   3.854   5.426   4.136 -0.3184  0.4281  0.3433
 6080TIP3    H118246   3.881   5.387   4.219  1.5553  1.9870  0.5562
 6080TIP3    H218247   3.851   5.520   4.154 -0.8283  0.7156 -1.1125
 6081TIP3   OH218248   0.746   4.155   5.119 -0.3648  0.1633 -0.0574
 6081TIP3    H118249   0.825   4.107   5.142 -0.6164 -0.4361 -0.4308
 6081TIP3    H218250   0.715   4.191   5.202  0.8551  1.2666 -0.0572
 6082TIP3   OH218251   0.895   0.936   0.649  0.3685 -0.0292 -0.0803
 6082TIP3    H118252   0.892   1.010   0.589  0.4456 -0.3128 -0.4373
 6082TIP3    H218253   0.938   0.971   0.727  0.0683  0.4007 -0.1011
 6083TIP3   OH218254   2.141   3.363   0.848 -0.0512 -0.1095 -0.2387
 6083TIP3    H118255   2.116   3.453   0.870  0.1660  0.0867 -0.7823
 6083TIP3    H218256   2.073   3.309   0.888 -0.1301  0.2885  0.1749
 6084TIP3   OH218257   5.209   2.809   3.185 -0.0271 -1.2369 -0.1722
 6084TIP3    H118258   5.296   2.848   3.176 -0.5076 -0.1919 -0.4971
 6084TIP3    H218259   5.153   2.882   3.212 -0.6795 -2.0351  0.7390
 6085TIP3   OH218260   4.129   4.068   2.276 -0.0748  0.6094  0.2423
 6085TIP3    H118261   4.166   4.085   2.362 -0.3046 -0.1885  0.5053
 6085TIP3    H218262   4.066   3.998   2.290 -1.0532  1.3457 -0.3556
 6086TIP3   OH218263   4.386   3.914   3.379 -0.7348  0.4402 -0.2020
 6086TIP3    H118264   4.464   3.872   3.344 -0.4981  0.5655  0.1668
 6086TIP3    H218265   4.396   4.007   3.360 -0.3933  0.5713  0.5718
 6087TIP3   OH218266   0.013   4.165   2.143  0.7022  0.0286  0.8855
 6087TIP3    H118267   0.102   4.187   2.115  0.6694  0.4274  1.0922
 6087TIP3    H218268   0.015   4.071   2.158  1.5395  0.2717  2.5042
 6088TIP3   OH218269   0.854   1.382   1.700  0.2301 -0.4334 -0.0541
 6088TIP3    H118270   0.906   1.311   1.663 -0.1761 -2.3766  2.7694
 6088TIP3    H218271   0.916   1.432   1.754 -0.3705 -1.7632  1.9863
 6089TIP3   OH218272   5.037   2.477   0.970  0.1607 -0.0437 -0.3011
 6089TIP3    H118273   4.957   2.460   1.019  0.7595  0.8615  1.0415
 6089TIP3    H218274   5.007   2.507   0.885 -0.9749  1.6831  0.6498
 6090TIP3   OH218275   2.573   1.286   3.758  0.4546  0.0167  0.2656
 6090TIP3    H118276   2.482   1.266   3.733  0.4347  1.1614 -0.6181
 6090TIP3    H218277   2.564   1.355   3.823  0.7468  1.7493 -1.4676
 6091TIP3   OH218278   6.253   3.688   2.821  0.0097 -0.0142  0.3774
 6091TIP3    H118279   6.181   3.749   2.838 -1.3324 -1.8768  1.9345
 6091TIP3    H218280   6.286   3.666   2.908  1.8706  0.0629 -0.2715
 6092TIP3   OH218281   3.063   4.653   2.697 -1.0870 -0.1072 -0.5451
 6092TIP3    H118282   3.082   4.609   2.614  0.6476  0.3313 -0.4141
 6092TIP3    H218283   3.126   4.615   2.759 -0.5202  1.4806 -0.0915
 6093TIP3   OH218284   4.281   4.318   1.722 -0.0611  0.2123  0.2635
 6093TIP3    H118285   4.225   4.376   1.670 -0.1468  0.0512  0.1762
 6093TIP3    H218286   4.369   4.352   1.707  0.0509 -0.5214 -0.9225
 6094TIP3   OH218287   3.619   1.551   2.595  0.0221 -0.4095 -0.2173
 6094TIP3    H118288   3.647   1.642   2.606  2.3746 -1.0149 -0.6893
 6094TIP3    H218289   3.579   1.549   2.507 -0.8048  0.3138  0.1271
 6095TIP3   OH218290   4.575   5.004   1.174 -0.3989  0.3303 -0.1050
 6095TIP3    H118291   4.551   4.944   1.245  0.0741 -1.3104 -1.2630
 6095TIP3    H218292   4.495   5.014   1.123 -0.3641  0.3055 -0.1647
 6096TIP3   OH218293   3.895   5.767   1.938 -0.4080  0.7037  0.3346
 6096TIP3    H118294   3.897   5.727   2.025  3.4408 -0.4717 -0.0807
 6096TIP3    H218295   3.932   5.854   1.951 -2.5336  1.6686  0.2285
 6097TIP3   OH218296   5.285   4.488   1.707  0.5046 -0.3006 -0.2617
 6097TIP3    H118297   5.266   4.479   1.800  0.9353  0.9679 -0.0371
 6097TIP3    H218298   5.379   4.505   1.703  0.3892  0.2324 -0.8826
 6098TIP3   OH218299   4.084   4.465   3.787 -0.2920 -0.6106  0.1799
 6098TIP3    H118300   4.028   4.531   3.745  0.7519 -0.4481 -1.0377
 6098TIP3    H218301   4.148   4.516   3.836 -0.1466 -0.7488  0.1325
 6099TIP3   OH218302   1.730   3.094   2.835  0.9206  0.1148  0.0892
 6099TIP3    H118303   1.726   3.056   2.747  4.1551  0.4628 -0.3267
 6099TIP3    H218304   1.742   3.019   2.893  1.0090  0.0431 -0.0213
 6100TIP3   OH218305   1.254   5.900   0.538  0.0797 -0.1575  0.2341
 6100TIP3    H118306   1.339   5.906   0.581 -0.1951 -1.1042  0.9506
 6100TIP3    H218307   1.226   5.991   0.528 -0.0415  0.1028  2.4981
 6101TIP3   OH218308   3.232   5.161   4.536 -0.5852 -0.8923 -0.2696
 6101TIP3    H118309   3.174   5.197   4.603  0.0406 -0.0622 -0.1621
 6101TIP3    H218310   3.174   5.142   4.462 -0.9752  0.1258 -0.2443
 6102TIP3   OH218311   1.667   4.100   3.585  0.2709  0.1480 -0.5606
 6102TIP3    H118312   1.718   4.149   3.520  0.3699 -1.0083 -1.3994
 6102TIP3    H218313   1.724   4.095   3.661  0.7374  0.3179 -0.8935
 6103TIP3   OH218314   1.269   2.925   3.342  0.6533  0.0255  0.8556
 6103TIP3    H118315   1.236   2.849   3.294 -2.4722  1.2917  0.7679
 6103TIP3    H218316   1.226   3.000   3.300  0.0200  1.4241  3.7741
 6104TIP3   OH218317   3.412   4.767   3.297  0.6106  0.4906 -0.9111
 6104TIP3    H118318   3.385   4.720   3.217  1.9388 -0.6586 -0.7187
 6104TIP3    H218319   3.425   4.857   3.269 -0.0942  0.3498 -1.7345
 6105TIP3   OH218320   3.814   5.291   2.606  0.3652 -0.2131 -0.4814
 6105TIP3    H118321   3.896   5.297   2.655  0.6507  0.0704 -0.9719
 6105TIP3    H218322   3.838   5.243   2.527 -0.2490 -1.2934 -0.0167
 6106TIP3   OH218323   4.238   3.185   2.659  0.4618  0.4444 -0.2031
 6106TIP3    H118324   4.280   3.233   2.730 -0.1411 -1.2616  1.3956
 6106TIP3    H218325   4.309   3.133   2.620  0.7000  1.0038 -0.5152
 6107TIP3   OH218326   5.493   1.912   2.954 -0.2723 -0.1280 -0.2788
 6107TIP3    H118327   5.521   1.842   2.895  0.1896  0.0023 -0.2153
 6107TIP3    H218328   5.398   1.911   2.948 -0.2433 -0.3360 -0.7736
 6108TIP3   OH218329   5.678   4.073   3.620  0.0057 -0.2230  0.4530
 6108TIP3    H118330   5.772   4.056   3.633  0.0328 -0.3294  0.1041
 6108TIP3    H218331   5.634   4.005   3.670  0.1129 -0.8755 -0.3299
 6109TIP3   OH218332   0.473   5.655   2.776  0.2239 -0.5912 -0.1315
 6109TIP3    H118333   0.487   5.738   2.822  1.9373 -0.7846 -0.2352
 6109TIP3    H218334   0.384   5.630   2.799 -0.2887  1.2061  0.0098
 6110TIP3   OH218335   5.816   5.788   0.513  0.2380 -0.3631  0.3066
 6110TIP3    H118336   5.891   5.744   0.472 -1.3210  0.0175 -3.3946
 6110TIP3    H218337   5.762   5.717   0.547  0.0808 -1.0197 -1.2320
 6111TIP3   OH218338   5.852   1.405   3.220  0.7079 -0.4345  0.1279
 6111TIP3    H118339   5.787   1.389   3.151  0.3629 -2.4109  0.8389
 6111TIP3    H218340   5.916   1.334   3.209  1.5292  0.1721  0.8408
 6112TIP3   OH218341   4.759   4.258   2.922 -0.4016  0.3185  0.3511
 6112TIP3    H118342   4.750   4.236   2.829  0.1733  1.2355  0.0650
 6112TIP3    H218343   4.851   4.239   2.941 -0.4310  0.4758  0.6456
 6113TIP3   OH218344   5.997   2.014   1.492 -0.4654 -0.1798 -0.2205
 6113TIP3    H118345   6.050   2.089   1.466  0.2492 -0.4428  0.4413
 6113TIP3    H218346   6.056   1.959   1.544 -1.1777 -0.8441 -0.0865
 6114TIP3   OH218347   6.256   5.973   0.372  0.3454 -1.2012 -0.1428
 6114TIP3    H118348   6.231   5.936   0.288  0.7703 -0.6310 -0.5294
 6114TIP3    H218349   6.352   5.966   0.374  0.5030  0.4416 -0.5133
 6115TIP3   OH218350   3.180   5.260   3.776 -0.7916 -0.4032 -0.4002
 6115TIP3    H118351   3.185   5.168   3.801  0.7031 -0.4663 -0.8280
 6115TIP3    H218352   3.121   5.299   3.841  0.9876 -1.0616  1.7431
 6116TIP3   OH218353   6.183   2.760   2.790  0.2627  0.0609  0.2981
 6116TIP3    H118354   6.202   2.668   2.811  0.1616  0.0462  0.3270
 6116TIP3    H218355   6.238   2.779   2.715 -0.3808 -0.2928 -0.2747
 6117TIP3   OH218356   3.819   4.836   0.843 -0.0878  0.1306 -0.3373
 6117TIP3    H118357   3.773   4.910   0.882 -2.4521  0.3249 -3.1759
 6117TIP3    H218358   3.884   4.876   0.786 -1.9842  0.1750 -2.5896
 6118TIP3   OH218359   5.394   3.881   4.452 -0.9779 -0.6531  0.3653
 6118TIP3    H118360   5.353   3.847   4.531  0.0684 -0.8134  0.8611
 6118TIP3    H218361   5.447   3.808   4.418  0.5299  0.1392  0.9098
 6119TIP3   OH218362   6.270   4.268   0.125 -0.2132  0.2388 -0.1142
 6119TIP3    H118363   6.323   4.192   0.150 -1.3660 -0.8805 -0.9193
 6119TIP3    H218364   6.181   4.243   0.148 -0.4424  2.1165  1.3050
 6120TIP3   OH218365   0.465   3.808   1.950  0.0485 -0.0749  0.3752
 6120TIP3    H118366   0.528   3.784   2.017 -0.7769  0.3569  1.3470
 6120TIP3    H218367   0.515   3.811   1.869  1.2163  0.0404  1.0785
 6121TIP3   OH218368   3.969   4.498   1.301  0.1341  0.1345 -0.1531
 6121TIP3    H118369   4.060   4.496   1.271 -0.2826  0.5510 -1.4909
 6121TIP3    H218370   3.955   4.411   1.340  0.2163 -1.1207 -2.7146
 6122TIP3   OH218371   6.246   5.456   4.279 -0.3609 -0.8160  0.3243
 6122TIP3    H118372   6.167   5.428   4.232 -0.1754 -2.6519  0.9816
 6122TIP3    H218373   6.213   5.496   4.359 -0.6454 -1.4599  0.5355
 6123TIP3   OH218374   5.442   5.731   2.379 -0.3413 -0.8495 -0.2344
 6123TIP3    H118375   5.513   5.732   2.316 -0.4353  1.5914 -0.4162
 6123TIP3    H218376   5.485   5.742   2.464 -0.3065 -2.8169  0.0353
 6124TIP3   OH218377   4.498   4.722   1.164  0.3718 -0.5032 -0.1677
 6124TIP3    H118378   4.405   4.740   1.148  0.5975  0.4246 -0.4973
 6124TIP3    H218379   4.522   4.658   1.098  0.2374  0.0867 -0.7946
 6125TIP3   OH218380   0.348   4.727   2.691  0.4732  0.1174 -0.1430
 6125TIP3    H118381   0.348   4.808   2.741 -0.4628 -0.9187  1.6176
 6125TIP3    H218382   0.298   4.748   2.611 -0.2085  1.1399  0.5318
 6126TIP3   OH218383   6.132   1.861   3.592 -0.2576  0.3745 -0.0532
 6126TIP3    H118384   6.127   1.786   3.533  0.0888  0.7651 -0.5874
 6126TIP3    H218385   6.146   1.936   3.535 -1.0502  0.9188  0.4306
 6127TIP3   OH218386   1.557   1.993   2.016 -0.2468 -0.2070  0.1862
 6127TIP3    H118387   1.619   1.920   2.025  1.1178  0.6789 -1.4489
 6127TIP3    H218388   1.486   1.958   1.962  0.6574 -0.2001 -1.0334
 6128TIP3   OH218389   2.453   5.878   1.653 -0.5579  0.2685 -0.1621
 6128TIP3    H118390   2.525   5.906   1.709  0.0136  1.6502 -1.5198
 6128TIP3    H218391   2.377   5.928   1.684 -0.9776 -1.1674  1.2499
 6129TIP3   OH218392   2.477   4.892   2.157  0.3141 -0.0526  0.3984
 6129TIP3    H118393   2.570   4.875   2.166  0.4886  0.4558 -0.3440
 6129TIP3    H218394   2.472   4.979   2.116 -0.4988  0.4852  1.5698
 6130TIP3   OH218395   4.334   5.639   5.096  0.3875 -0.1098 -0.6710
 6130TIP3    H118396   4.269   5.642   5.166  0.5081  0.0222 -0.5638
 6130TIP3    H218397   4.376   5.554   5.107  0.1495 -0.2482 -0.8174
 6131TIP3   OH218398   0.177   2.110   0.121 -0.4625 -0.2612 -0.0363
 6131TIP3    H118399   0.134   2.052   0.058 -2.0235  1.4809 -0.6596
 6131TIP3    H218400   0.105   2.149   0.171  0.4853  1.5420 -0.0062
 6132TIP3   OH218401   5.434   1.666   0.797 -0.1670 -0.3179  0.4725
 6132TIP3    H118402   5.389   1.592   0.839  1.0232 -0.5195  1.4529
 6132TIP3    H218403   5.459   1.633   0.711  1.6473 -1.6013  1.4344
 6133TIP3   OH218404   3.857   3.732   4.495 -0.1869  0.5898 -0.0055
 6133TIP3    H118405   3.928   3.726   4.431 -0.0574  1.8690 -0.0016
 6133TIP3    H218406   3.901   3.718   4.579 -0.2374 -0.3618 -0.1314
 6134TIP3   OH218407   3.043   0.356   2.096  0.3500  0.6858 -0.1404
 6134TIP3    H118408   3.042   0.436   2.149 -5.1657 -0.3944  2.0890
 6134TIP3    H218409   3.054   0.286   2.159 -0.7354 -0.4647 -1.1659
 6135TIP3   OH218410   0.237   2.314   1.661  0.1305 -0.0720  0.2508
 6135TIP3    H118411   0.237   2.373   1.736  0.1432 -0.2951  0.4246
 6135TIP3    H218412   0.298   2.245   1.684 -1.2176 -1.1233  0.8196
 6136TIP3   OH218413   5.322   4.287   0.821  0.3935 -0.3310  0.5109
 6136TIP3    H118414   5.321   4.372   0.864  2.0335  1.5365 -2.8277
 6136TIP3    H218415   5.264   4.296   0.746  1.8259 -1.6046 -0.8185
 6137TIP3   OH218416   0.482   0.946   2.453 -0.4031  0.0335  0.4846
 6137TIP3    H118417   0.551   0.946   2.520 -0.0841  1.2350  0.1706
 6137TIP3    H218418   0.415   1.005   2.488 -1.9398 -2.1111  1.4045
 6138TIP3   OH218419   3.877   1.766   0.312  0.3278 -0.2329 -0.1760
 6138TIP3    H118420   3.830   1.682   0.315  0.6527 -0.3718  1.4653
 6138TIP3    H218421   3.935   1.757   0.236 -0.5747 -0.9744 -0.8103
 6139TIP3   OH218422   3.894   4.474   1.995 -0.1267  0.0559 -0.3354
 6139TIP3    H118423   3.846   4.481   2.078  0.1427  0.3825 -0.2052
 6139TIP3    H218424   3.973   4.425   2.017  0.0842  0.3910 -0.3345
 6140TIP3   OH218425   0.022   3.479   4.485  0.3692 -0.0647 -0.0905
 6140TIP3    H118426   0.057   3.556   4.440  1.5009 -0.3584  0.2643
 6140TIP3    H218427   0.012   3.507   4.576  2.1264 -0.7186  0.3480
 6141TIP3   OH218428   1.194   0.157   1.117 -0.3344 -0.0055 -0.3265
 6141TIP3    H118429   1.141   0.228   1.082 -0.6732 -0.6392 -1.1484
 6141TIP3    H218430   1.192   0.090   1.048  0.4540 -0.5702  0.1809
 6142TIP3   OH218431   5.960   0.917   3.394  0.6398  0.2256  0.0388
 6142TIP3    H118432   5.916   0.933   3.311  1.0654 -0.9548 -0.4364
 6142TIP3    H218433   5.986   1.004   3.424 -1.3146  0.8859 -0.0247
 6143TIP3   OH218434   2.459   5.739   5.133  0.0263  0.0303  0.0547
 6143TIP3    H118435   2.528   5.804   5.147  0.6512 -0.2213 -1.6650
 6143TIP3    H218436   2.377   5.789   5.134 -0.2375  0.0430  4.8839
 6144TIP3   OH218437   0.251   2.712   2.160 -0.1236 -0.1467 -0.1965
 6144TIP3    H118438   0.314   2.642   2.179 -0.6110 -0.7146 -0.6343
 6144TIP3    H218439   0.165   2.670   2.169 -0.4599  0.7401  0.8636
 6145TIP3   OH218440   2.926   3.067   4.640  0.0548  0.1515 -0.0859
 6145TIP3    H118441   2.842   3.031   4.668  0.2630  0.8259  1.5022
 6145TIP3    H218442   2.940   3.142   4.697  1.7939 -0.0024 -0.2605
 6146TIP3   OH218443   5.853   1.674   3.795  0.0558  0.2649 -0.5119
 6146TIP3    H118444   5.823   1.699   3.708 -0.5441 -0.4002 -0.5069
 6146TIP3    H218445   5.904   1.594   3.780 -0.8282 -0.3796 -0.1586
 6147TIP3   OH218446   1.072   2.276   4.430 -0.0175  0.1059 -0.0915
 6147TIP3    H118447   1.109   2.249   4.513  0.4097  0.1773 -0.2569
 6147TIP3    H218448   1.031   2.361   4.448 -0.9166 -0.4023  0.3054
 6148TIP3   OH218449   3.395   2.014   4.305  0.1345  0.3851 -0.4960
 6148TIP3    H118450   3.389   2.058   4.390  0.7532  0.6253 -0.5712
 6148TIP3    H218451   3.485   2.030   4.276  0.4260 -1.0799 -0.4540
 6149TIP3   OH218452   4.302   4.283   0.707  0.4141  0.0449  0.3687
 6149TIP3    H118453   4.210   4.281   0.681  0.5517  2.3536 -0.5457
 6149TIP3    H218454   4.309   4.218   0.777 -1.1690 -2.5416 -1.7163
 6150TIP3   OH218455   1.179   2.735   4.585 -0.3368  0.0422  0.6266
 6150TIP3    H118456   1.234   2.665   4.552  0.3436  0.3922  0.9963
 6150TIP3    H218457   1.125   2.693   4.652  1.1398  0.1557  1.9418
 6151TIP3   OH218458   3.948   1.901   3.801 -0.0571 -0.0970  0.0590
 6151TIP3    H118459   3.869   1.946   3.772 -1.2066 -0.2669  2.6941
 6151TIP3    H218460   3.926   1.808   3.797 -0.2355 -0.1239  1.3926
 6152TIP3   OH218461   2.852   3.555   0.337 -0.1069 -0.2161  0.1123
 6152TIP3    H118462   2.822   3.538   0.248  1.8918 -1.5121 -0.3758
 6152TIP3    H218463   2.788   3.510   0.393 -0.4259 -0.8515 -0.7442
 6153TIP3   OH218464   0.110   2.796   3.672  0.8890  0.0737 -0.4723
 6153TIP3    H118465   0.160   2.878   3.670  1.0705  0.1162  2.1965
 6153TIP3    H218466   0.175   2.730   3.696  0.5891 -0.7431 -1.8547
 6154TIP3   OH218467   1.583   0.913   4.363 -0.0543  0.4499  0.3230
 6154TIP3    H118468   1.523   0.880   4.430  0.1111 -1.1464 -0.2501
 6154TIP3    H218469   1.669   0.914   4.406  0.0341 -0.4685  0.1929
 6155TIP3   OH218470   5.592   3.366   3.520 -0.0493  0.2603 -0.0468
 6155TIP3    H118471   5.512   3.318   3.496 -0.2957 -0.3359  1.8237
 6155TIP3    H218472   5.659   3.331   3.461 -0.5877 -1.2584  0.1881
 6156TIP3   OH218473   4.324   1.769   2.215  0.1827 -0.1983  0.0309
 6156TIP3    H118474   4.366   1.848   2.182  0.9869 -0.4854  0.3572
 6156TIP3    H218475   4.306   1.788   2.307 -0.9528  0.1401 -0.2379
 6157TIP3   OH218476   2.493   3.779   1.899 -0.1457  0.1762  0.1347
 6157TIP3    H118477   2.568   3.839   1.897  1.7690 -2.0971 -0.5403
 6157TIP3    H218478   2.446   3.799   1.819  1.2199 -0.0882 -0.7719
 6158TIP3   OH218479   5.732   3.247   4.032 -0.2200 -0.4133  0.0955
 6158TIP3    H118480   5.708   3.202   3.951 -1.5449 -2.8646  1.7112
 6158TIP3    H218481   5.663   3.312   4.044 -1.7414 -2.0481  0.6727
 6159TIP3   OH218482   0.458   3.407   3.662 -0.1383  0.2387  0.5222
 6159TIP3    H118483   0.445   3.365   3.747 -0.6319 -0.0497  0.3093
 6159TIP3    H218484   0.421   3.346   3.599  2.1074 -0.5588 -0.1308
 6160TIP3   OH218485   3.838   3.552   4.016  0.2748  0.1146 -0.0797
 6160TIP3    H118486   3.750   3.534   3.983 -0.4842  2.5038  0.4504
 6160TIP3    H218487   3.830   3.548   4.111  0.3654  1.6548  0.0234
 6161TIP3   OH218488   6.266   0.875   3.349  0.0956 -0.0667  0.2120
 6161TIP3    H118489   6.173   0.862   3.368 -0.4545  0.0046 -2.1345
 6161TIP3    H218490   6.293   0.945   3.409 -0.9389 -1.0700  1.9389
 6162TIP3   OH218491   2.626   2.022   3.634 -0.5338  1.4885 -0.1543
 6162TIP3    H118492   2.587   1.977   3.559  0.9011  0.4761 -0.3461
 6162TIP3    H218493   2.613   2.115   3.616 -0.4796  1.2558 -1.5352
 6163TIP3   OH218494   2.246   5.708   3.156  0.1405 -0.3977 -0.2239
 6163TIP3    H118495   2.235   5.623   3.113 -2.0907 -1.2079  1.7087
 6163TIP3    H218496   2.238   5.689   3.249  0.2674  1.8494  0.3072
 6164TIP3   OH218497   1.109   2.105   0.035 -0.5429  0.1624 -0.5637
 6164TIP3    H118498   1.205   2.102   0.026 -0.5056 -0.2029 -0.0922
 6164TIP3    H218499   1.091   2.191   0.073 -0.2383 -0.4249  1.0173
 6165TIP3   OH218500   3.321   4.592   0.095  0.4862  0.0800  0.2051
 6165TIP3    H118501   3.374   4.644   0.155  1.2019 -1.7426  1.2264
 6165TIP3    H218502   3.385   4.554   0.035  0.0782 -0.3909  0.0727
 6166TIP3   OH218503   5.017   1.455   1.140 -0.2966  0.0780 -0.0124
 6166TIP3    H118504   4.929   1.426   1.162 -0.4996  0.7991  0.1422
 6166TIP3    H218505   5.061   1.376   1.108 -0.6738 -0.5162  0.8851
 6167TIP3   OH218506   4.965   5.075   1.724 -0.2487 -0.0169 -0.0247
 6167TIP3    H118507   4.898   5.074   1.656 -0.4558  0.9212  0.1519
 6167TIP3    H218508   4.995   5.166   1.727 -1.1091  0.2556  1.9753
 6168TIP3   OH218509   5.740   5.146   0.727  0.4326  0.4008  0.3810
 6168TIP3    H118510   5.770   5.199   0.653  2.0275 -0.1545  0.5712
 6168TIP3    H218511   5.726   5.208   0.798  0.5721  0.7527  0.1008
 6169TIP3   OH218512   3.373   0.284   4.210  0.6434 -0.3817  0.1714
 6169TIP3    H118513   3.433   0.326   4.271 -0.8409  1.4589  0.4432
 6169TIP3    H218514   3.362   0.195   4.245  0.2962  0.4373  2.2477
 6170TIP3   OH218515   2.401   4.493   2.299  0.2540  0.0004 -0.1054
 6170TIP3    H118516   2.314   4.532   2.302 -0.6872 -2.0328  0.6016
 6170TIP3    H218517   2.455   4.557   2.253 -0.9234  2.5649  1.8861
 6171TIP3   OH218518   0.564   4.335   0.283 -0.0536 -0.4367  0.5206
 6171TIP3    H118519   0.607   4.265   0.332  0.2504 -0.1677  0.6377
 6171TIP3    H218520   0.600   4.416   0.319 -1.2598 -0.1713  1.2015
 6172TIP3   OH218521   1.523   2.527   3.731  0.0508 -0.2503  0.0516
 6172TIP3    H118522   1.542   2.617   3.703  0.3100 -0.1247  0.6259
 6172TIP3    H218523   1.450   2.536   3.792 -0.1015 -0.4594 -0.0999
 6173TIP3   OH218524   0.688   2.989   1.990  0.0603 -0.2560 -0.3607
 6173TIP3    H118525   0.607   3.004   2.038  0.2100  1.5647 -0.6247
 6173TIP3    H218526   0.757   2.997   2.056  0.0852 -1.2830 -0.2382
 6174TIP3   OH218527   3.001   0.874   0.584 -0.7080  0.0192 -0.5094
 6174TIP3    H118528   2.921   0.917   0.552  0.3899  1.2150 -1.7626
 6174TIP3    H218529   3.072   0.928   0.550  0.6478 -1.0217  0.5883
 6175TIP3   OH218530   1.298   4.609   2.926  0.1661 -0.0019 -0.1469
 6175TIP3    H118531   1.267   4.663   2.999  0.0955 -0.2103 -0.0217
 6175TIP3    H218532   1.234   4.625   2.856 -0.1900 -0.3694  0.0843
 6176TIP3   OH218533   2.312   2.354   2.578 -0.5271 -0.1028 -0.1073
 6176TIP3    H118534   2.384   2.298   2.605 -0.9962 -0.2737  0.8520
 6176TIP3    H218535   2.339   2.442   2.603 -0.4046 -0.0929 -0.2777
 6177TIP3   OH218536   4.393   2.113   1.556 -0.3907  0.2049 -0.1206
 6177TIP3    H118537   4.451   2.147   1.624 -0.5205 -2.3810  1.3917
 6177TIP3    H218538   4.306   2.113   1.595 -0.9853  1.2755 -1.3364
 6178TIP3   OH218539   5.594   2.901   1.410  0.2599  0.3229  0.2428
 6178TIP3    H118540   5.641   2.911   1.327  1.4356  0.5940  0.9200
 6178TIP3    H218541   5.514   2.952   1.398 -1.1414 -2.1229 -1.8273
 6179TIP3   OH218542   1.138   0.691   2.802  0.1611 -0.0791  0.6201
 6179TIP3    H118543   1.049   0.656   2.791  0.0398  0.4574 -0.1566
 6179TIP3    H218544   1.131   0.783   2.779  0.3248  0.7126  3.3404
 6180TIP3   OH218545   5.382   0.141   1.149 -0.0509  0.7540 -0.1660
 6180TIP3    H118546   5.326   0.127   1.225  0.1612 -0.9197 -0.2843
 6180TIP3    H218547   5.455   0.193   1.183 -0.4344  0.8454  0.5442
 6181TIP3   OH218548   4.464   0.017   4.955  1.0250 -0.2912 -0.1918
 6181TIP3    H118549   4.521   0.048   4.885  0.7054  0.4973 -0.1089
 6181TIP3    H218550   4.408   0.092   4.976  0.0673 -0.9895 -0.1655
 6182TIP3   OH218551   5.224   1.105   1.924  0.2889  0.5639  0.9723
 6182TIP3    H118552   5.192   1.077   1.838  0.8270  0.2101  0.8899
 6182TIP3    H218553   5.314   1.131   1.909  0.1505  1.2431  1.2815
 6183TIP3   OH218554   0.215   4.962   0.176  0.3898  0.1695 -0.0891
 6183TIP3    H118555   0.127   4.962   0.216  0.2520 -1.0286 -0.3520
 6183TIP3    H218556   0.219   5.044   0.127  0.1118  1.1133  1.3974
 6184TIP3   OH218557   6.309   1.533   2.810 -0.5415 -0.3755 -0.6213
 6184TIP3    H118558   6.339   1.533   2.719  0.1007 -0.2663 -0.4147
 6184TIP3    H218559   6.232   1.477   2.809 -0.1927 -0.8675 -1.1284
 6185TIP3   OH218560   4.759   3.789   4.337 -0.0341  0.0416  0.1868
 6185TIP3    H118561   4.748   3.761   4.428 -0.1268 -0.0718  0.1401
 6185TIP3    H218562   4.784   3.710   4.290 -0.2317  0.0491  0.0675
 6186TIP3   OH218563   4.036   1.483   0.302  0.1865  0.2144  0.1624
 6186TIP3    H118564   3.989   1.421   0.247 -2.2879  0.5806  1.6716
 6186TIP3    H218565   4.025   1.568   0.258 -1.9658  0.5422  1.1777
 6187TIP3   OH218566   1.060   3.756   1.319 -0.5073 -0.2233  0.2278
 6187TIP3    H118567   0.970   3.738   1.293 -0.2077 -0.3337 -0.7753
 6187TIP3    H218568   1.096   3.811   1.249  0.2546 -0.3298  0.5160
 6188TIP3   OH218569   2.578   4.819   1.860  0.1073 -0.0633  0.4298
 6188TIP3    H118570   2.557   4.824   1.953  0.3782 -1.7402  0.6122
 6188TIP3    H218571   2.662   4.864   1.851 -0.3219  0.8565  0.8134
 6189TIP3   OH218572   5.720   4.795   3.182  0.0165 -0.4379  0.2996
 6189TIP3    H118573   5.712   4.889   3.165 -1.3417 -0.3340  1.3491
 6189TIP3    H218574   5.647   4.756   3.134  3.7061 -1.7845 -5.0765
 6190TIP3   OH218575   4.951   0.415   2.023  0.3636  0.3516 -0.4914
 6190TIP3    H118576   4.989   0.495   1.987 -1.1607  2.2738  1.8337
 6190TIP3    H218577   5.026   0.360   2.046  1.5490  2.0741 -0.1083
 6191TIP3   OH218578   0.135   2.173   5.196  0.5424 -0.7201 -0.0351
 6191TIP3    H118579   0.202   2.105   5.189 -0.1104 -1.2311 -1.6358
 6191TIP3    H218580   0.126   2.208   5.107 -2.5299 -1.8853 -0.2971
 6192TIP3   OH218581   4.403   3.350   2.171 -0.6372  0.5292 -0.7784
 6192TIP3    H118582   4.410   3.260   2.139 -0.4374  0.9194 -1.8810
 6192TIP3    H218583   4.365   3.341   2.258 -0.1813 -0.6534 -0.6722
 6193TIP3   OH218584   4.131   0.985   1.719  0.4837  0.2695  0.0866
 6193TIP3    H118585   4.190   0.965   1.647 -1.0313 -1.9299 -0.6449
 6193TIP3    H218586   4.045   0.993   1.679 -0.5552 -1.9080  1.6679
 6194TIP3   OH218587   0.865   3.082   4.111 -0.1105 -0.6261 -0.2914
 6194TIP3    H118588   0.949   3.056   4.074 -0.7555  0.5404 -2.7715
 6194TIP3    H218589   0.864   3.178   4.106 -1.5302 -0.6080 -0.2132
 6195TIP3   OH218590   2.174   2.686   2.239  0.4942 -0.6732  0.3219
 6195TIP3    H118591   2.175   2.607   2.294 -1.7903  0.0544  1.5371
 6195TIP3    H218592   2.148   2.756   2.298  1.4784  0.8344 -0.9611
 6196TIP3   OH218593   1.492   5.317   3.488 -0.0787 -0.0872  0.0829
 6196TIP3    H118594   1.583   5.312   3.520 -0.2400 -1.7265  0.3675
 6196TIP3    H218595   1.442   5.263   3.549 -2.1248  4.0767  2.5847
 6197TIP3   OH218596   5.607   5.964   3.671 -0.4976  0.3235 -0.0174
 6197TIP3    H118597   5.654   6.016   3.605  0.8062 -1.1967 -0.3345
 6197TIP3    H218598   5.576   5.887   3.624 -2.0411  0.5567  0.5430
 6198TIP3   OH218599   2.637   1.378   3.131  0.0379  0.8639 -0.0725
 6198TIP3    H118600   2.631   1.379   3.036  0.7696  0.4091 -0.1305
 6198TIP3    H218601   2.549   1.352   3.160  0.4464 -1.4109 -0.7101
 6199TIP3   OH218602   5.950   2.724   2.305 -0.3009  0.1382 -0.3204
 6199TIP3    H118603   5.961   2.630   2.320 -0.6633  0.0437 -0.6309
 6199TIP3    H218604   6.038   2.756   2.283 -0.1732 -0.1192 -0.1830
 6200TIP3   OH218605   3.070   1.227   4.213 -0.9116 -0.6469  0.0069
 6200TIP3    H118606   3.122   1.236   4.133  0.0502  2.8953  0.8268
 6200TIP3    H218607   3.000   1.166   4.190  0.6207 -1.5358 -2.7702
 6201TIP3   OH218608   0.195   0.881   3.586 -0.2297  0.2504  0.0923
 6201TIP3    H118609   0.135   0.932   3.642 -0.2938 -1.7195  1.9650
 6201TIP3    H218610   0.278   0.881   3.634  0.3101  0.1576 -0.8258
 6202TIP3   OH218611   4.413   1.177   1.724  0.1482 -0.3094  0.6306
 6202TIP3    H118612   4.462   1.231   1.787  0.6574  1.1278 -0.9209
 6202TIP3    H218613   4.352   1.238   1.683 -1.5175 -1.6315  1.0149
 6203TIP3   OH218614   0.587   4.822   0.957 -0.0423  0.0657  0.1370
 6203TIP3    H118615   0.615   4.869   0.879  2.4877 -1.2169  0.1672
 6203TIP3    H218616   0.613   4.732   0.942 -1.0054 -0.5485  1.7945
 6204TIP3   OH218617   3.217   1.555   2.772  0.2148 -0.1910  0.5442
 6204TIP3    H118618   3.283   1.618   2.803  0.2230  0.1489 -0.1537
 6204TIP3    H218619   3.268   1.477   2.748  0.4899  0.4129 -0.9124
 6205TIP3   OH218620   1.697   2.318   0.751 -0.0855  0.2145  0.5267
 6205TIP3    H118621   1.634   2.329   0.821 -0.9495  0.4762 -0.2737
 6205TIP3    H218622   1.647   2.280   0.679  0.8229 -0.2364  0.1057
 6206TIP3   OH218623   5.990   3.950   4.163  0.0272 -0.0463  0.6598
 6206TIP3    H118624   5.985   4.005   4.241  1.3861  0.6495  0.2991
 6206TIP3    H218625   6.082   3.921   4.160 -0.4325 -1.5817  0.3220
 6207TIP3   OH218626   3.711   2.435   0.646 -0.5302 -0.3637 -0.1220
 6207TIP3    H118627   3.647   2.441   0.717 -1.8226 -1.8923 -1.1082
 6207TIP3    H218628   3.673   2.485   0.574  0.8239  1.2678  0.2318
 6208TIP3   OH218629   4.291   0.225   4.972 -0.0281 -0.1552 -0.4702
 6208TIP3    H118630   4.222   0.223   5.037 -1.5221  2.0251 -1.8394
 6208TIP3    H218631   4.249   0.259   4.893  2.4745  0.7946 -1.5213
 6209TIP3   OH218632   0.076   2.208   3.499  0.0285 -0.1472  0.3916
 6209TIP3    H118633   0.002   2.251   3.457  2.0329  0.5202 -2.8610
 6209TIP3    H218634   0.135   2.279   3.524  2.3409 -0.6368 -2.9734
 6210TIP3   OH218635   5.662   4.335   3.544  0.6822  0.2793 -0.1129
 6210TIP3    H118636   5.659   4.394   3.619  2.1318  1.5500 -1.0060
 6210TIP3    H218637   5.680   4.249   3.582  2.0713  1.0067  0.9558
 6211TIP3   OH218638   1.532   4.055   4.567  0.7979 -0.0771  0.0350
 6211TIP3    H118639   1.610   4.019   4.524  1.5167  0.7261  0.6225
 6211TIP3    H218640   1.566   4.099   4.645 -0.3056 -0.1278  0.5638
 6212TIP3   OH218641   5.671   3.039   3.384 -0.1080  0.4079 -0.0676
 6212TIP3    H118642   5.667   3.077   3.296 -2.1572 -0.2490 -0.3158
 6212TIP3    H218643   5.700   2.949   3.369  1.3174  0.8039  0.1561
 6213TIP3   OH218644   4.886   3.184   1.409 -0.0066 -0.1780  0.1656
 6213TIP3    H118645   4.928   3.160   1.491 -0.6398 -1.2517  0.1867
 6213TIP3    H218646   4.853   3.273   1.424 -0.8559 -0.6763  1.3663
 6214TIP3   OH218647   3.834   4.085   4.567 -0.0944 -0.4863 -0.7460
 6214TIP3    H118648   3.856   4.021   4.499  0.0378 -1.1455 -0.0923
 6214TIP3    H218649   3.903   4.151   4.560  1.9970 -2.3136  1.0112
 6215TIP3   OH218650   1.263   2.640   0.747 -0.2475  0.0009 -0.3476
 6215TIP3    H118651   1.231   2.607   0.662  0.5433 -1.2739 -0.1795
 6215TIP3    H218652   1.272   2.561   0.801  1.9488  0.4484  0.0104
 6216TIP3   OH218653   3.302   4.248   0.240  0.6145 -0.2857  0.8618
 6216TIP3    H118654   3.214   4.283   0.228  0.9316 -0.0449 -0.9100
 6216TIP3    H218655   3.289   4.172   0.298 -0.8674 -0.6897  0.0604
 6217TIP3   OH218656   0.325   4.166   0.032  0.0680  0.4104  0.2333
 6217TIP3    H118657   0.314   4.233   0.099 -1.3074  3.0566 -2.4195
 6217TIP3    H218658   0.260   4.100   0.053  2.2648 -0.9780  3.6280
 6218TIP3   OH218659   2.834   1.710   3.671 -0.4036  0.1040 -0.3973
 6218TIP3    H118660   2.740   1.703   3.686 -0.4771 -1.9947 -1.3218
 6218TIP3    H218661   2.865   1.773   3.735 -2.3554  0.4007  0.3157
 6219TIP3   OH218662   1.813   0.097   0.942  0.2214  0.6820 -0.0121
 6219TIP3    H118663   1.730   0.059   0.971  0.2312  1.4074  1.0407
 6219TIP3    H218664   1.878   0.058   1.000  0.1617  2.6719  1.4855
 6220TIP3   OH218665   6.338   1.557   4.018 -0.2091  0.0618  0.2787
 6220TIP3    H118666   6.367   1.641   3.984 -1.3301 -0.0459 -0.9976
 6220TIP3    H218667   6.262   1.577   4.072 -1.6060 -0.2686 -1.4844
 6221TIP3   OH218668   2.298   3.350   4.049  0.1138  0.0231 -0.0420
 6221TIP3    H118669   2.296   3.446   4.049 -2.9496  0.0623 -0.4581
 6221TIP3    H218670   2.275   3.326   3.959 -0.0546 -1.1001  0.2867
 6222TIP3   OH218671   4.873   0.713   1.780 -0.6877 -0.5846 -0.3624
 6222TIP3    H118672   4.835   0.674   1.701 -2.0150 -1.6919  0.7779
 6222TIP3    H218673   4.839   0.802   1.782 -0.5349 -0.5036 -1.1081
 6223TIP3   OH218674   3.483   0.732   0.773  0.4263 -0.1222 -0.5743
 6223TIP3    H118675   3.525   0.816   0.789 -2.2417  0.9920  1.2973
 6223TIP3    H218676   3.468   0.729   0.679  1.0538  1.2464 -0.7350
 6224TIP3   OH218677   1.394   2.773   1.326  0.7253 -0.3763  0.0334
 6224TIP3    H118678   1.390   2.699   1.386 -0.2214  0.1524  0.6631
 6224TIP3    H218679   1.447   2.742   1.252  1.1271 -1.3507  0.7119
 6225TIP3   OH218680   1.915   5.570   1.995 -0.3533 -0.2498 -0.0694
 6225TIP3    H118681   1.922   5.648   1.941 -0.6524 -1.5922 -2.1846
 6225TIP3    H218682   1.822   5.561   2.014 -0.3229 -0.1191  0.1454
 6226TIP3   OH218683   3.103   4.222   1.056 -0.2246  0.4225 -0.5287
 6226TIP3    H118684   3.101   4.316   1.038  1.9944  0.9250  1.4984
 6226TIP3    H218685   3.039   4.210   1.126  0.6047  0.7142  0.2932
 6227TIP3   OH218686   5.015   5.650   2.452  0.2944 -0.0789 -0.1522
 6227TIP3    H118687   5.080   5.668   2.384  0.0365 -1.1612 -0.7159
 6227TIP3    H218688   4.931   5.654   2.407  0.1235 -0.8996  0.0674
 6228TIP3   OH218689   5.952   4.844   5.141  0.0238  0.2563  0.6343
 6228TIP3    H118690   6.012   4.827   5.213 -0.6033 -1.4632  0.8023
 6228TIP3    H218691   6.007   4.876   5.070  1.2201 -1.5817  0.6712
 6229TIP3   OH218692   5.231   2.659   4.677 -0.3248  0.1227 -0.4227
 6229TIP3    H118693   5.151   2.640   4.629 -1.7650  0.0288  1.8493
 6229TIP3    H218694   5.296   2.679   4.610 -1.6969 -1.7752 -2.4267
 6230TIP3   OH218695   4.419   1.482   1.125 -0.5523  0.1425  0.5198
 6230TIP3    H118696   4.413   1.413   1.192 -0.6700 -0.2744  0.0891
 6230TIP3    H218697   4.486   1.450   1.064  0.3945  1.0535  1.0417
 6231TIP3   OH218698   4.650   2.201   2.919  0.2378  0.4966  0.0684
 6231TIP3    H118699   4.604   2.272   2.875 -0.1016  0.2455  0.0122
 6231TIP3    H218700   4.581   2.144   2.951  0.5168 -0.3728 -0.8270
 6232TIP3   OH218701   1.185   4.107   1.552 -0.4612 -0.5914 -0.4954
 6232TIP3    H118702   1.205   4.044   1.622  0.3674  1.3860  1.1288
 6232TIP3    H218703   1.146   4.182   1.597  0.8657  1.1065 -2.0143
 6233TIP3   OH218704   3.536   0.923   4.128  0.3108  0.4167  0.5191
 6233TIP3    H118705   3.592   0.897   4.056  0.7386 -0.4750  1.1566
 6233TIP3    H218706   3.482   0.994   4.093  0.5095 -0.0117 -0.6628
 6234TIP3   OH218707   0.418   5.322   1.308 -0.0335 -0.2241  0.1687
 6234TIP3    H118708   0.478   5.286   1.373  0.3625 -1.5778 -0.9032
 6234TIP3    H218709   0.354   5.371   1.360  0.4457 -1.0036  1.5536
 6235TIP3   OH218710   5.223   1.599   3.803 -0.1084 -0.3818  0.2085
 6235TIP3    H118711   5.169   1.525   3.833  0.0233 -0.5401  0.0585
 6235TIP3    H218712   5.178   1.676   3.837 -0.1940 -0.5365  0.4519
 6236TIP3   OH218713   3.856   1.856   1.733 -0.2008 -0.0364  0.2745
 6236TIP3    H118714   3.872   1.847   1.639 -1.0960 -0.3912  0.1457
 6236TIP3    H218715   3.843   1.766   1.763  0.6519  0.0191  0.8568
 6237TIP3   OH218716   0.759   5.847   1.540  0.2565  0.6730 -0.0616
 6237TIP3    H118717   0.730   5.813   1.625 -0.0975 -0.7004 -0.6946
 6237TIP3    H218718   0.845   5.884   1.557  0.5899 -0.4136  0.7353
 6238TIP3   OH218719   5.311   1.230   3.691 -0.0268  0.1515  0.0092
 6238TIP3    H118720   5.355   1.154   3.655  0.0568  0.6252 -0.9004
 6238TIP3    H218721   5.338   1.232   3.783  1.2603  0.0251 -0.3582
 6239TIP3   OH218722   5.372   4.190   3.175 -0.4865  0.5948  0.0622
 6239TIP3    H118723   5.385   4.197   3.269 -2.0427  0.8119  0.2925
 6239TIP3    H218724   5.458   4.168   3.140  0.1755  0.8056  1.4972
 6240TIP3   OH218725   3.023   4.490   0.775  0.3087  0.3493 -0.3587
 6240TIP3    H118726   2.960   4.422   0.754 -0.5523  0.5761  1.3121
 6240TIP3    H218727   3.055   4.467   0.862 -0.8094  2.5953  0.7321
 6241TIP3   OH218728   4.370   0.660   3.922  0.2867  0.2349 -0.1041
 6241TIP3    H118729   4.426   0.693   3.993 -0.0841  0.5022  0.0659
 6241TIP3    H218730   4.289   0.710   3.931 -0.3843 -0.9029  0.3207
 6242TIP3   OH218731   1.894   4.497   1.668  0.2643  0.0831 -0.0869
 6242TIP3    H118732   1.854   4.467   1.587 -0.6509  0.5151  0.1882
 6242TIP3    H218733   1.980   4.530   1.642 -0.1374  0.4870 -0.9386
 6243TIP3   OH218734   0.940   5.771   2.479  0.1701  0.8298 -0.1777
 6243TIP3    H118735   0.991   5.737   2.552  1.7157  0.2292 -1.4872
 6243TIP3    H218736   0.919   5.861   2.503  0.6030  0.6256  1.0111
 6244TIP3   OH218737   1.428   0.504   4.236 -0.4501  0.0118  0.0786
 6244TIP3    H118738   1.439   0.495   4.331  1.5832  0.6240 -0.0681
 6244TIP3    H218739   1.454   0.419   4.200 -0.8940 -0.1096  0.0390
 6245TIP3   OH218740   4.663   0.960   3.746  0.1698 -0.2601 -0.2632
 6245TIP3    H118741   4.592   1.019   3.772  1.0057  0.4333  0.5324
 6245TIP3    H218742   4.655   0.953   3.651 -0.3004  0.6802 -0.3075
 6246TIP3   OH218743   0.551   4.807   3.039  0.1394 -0.3119  0.1988
 6246TIP3    H118744   0.611   4.853   3.098 -0.1796 -1.0603  1.1309
 6246TIP3    H218745   0.467   4.850   3.052  0.1242 -0.2983  0.0642
 6247TIP3   OH218746   0.095   1.526   4.485  0.7545 -0.2823  0.1063
 6247TIP3    H118747   0.062   1.468   4.553 -1.6549  0.0757 -0.6477
 6247TIP3    H218748   0.111   1.609   4.530  0.4534 -0.4314  0.4893
 6248TIP3   OH218749   2.410   3.524   0.244  0.5513 -0.2507 -0.2339
 6248TIP3    H118750   2.403   3.616   0.221  1.0013 -0.5145 -1.5074
 6248TIP3    H218751   2.344   3.511   0.312 -1.3019  0.4613 -1.8084
 6249TIP3   OH218752   4.531   5.354   0.450  0.2219 -0.4952 -0.2583
 6249TIP3    H118753   4.545   5.315   0.364  0.5761  0.8041 -0.8157
 6249TIP3    H218754   4.578   5.437   0.447 -0.9785  0.2629  0.6758
 6250TIP3   OH218755   1.484   1.322   5.067 -0.0643 -0.3834  0.2771
 6250TIP3    H118756   1.496   1.253   5.132 -0.0174 -0.8388 -0.2047
 6250TIP3    H218757   1.495   1.404   5.116 -1.1349 -0.6858  1.0633
 6251TIP3   OH218758   1.495   2.069   4.739  0.0800 -0.5075  0.0524
 6251TIP3    H118759   1.439   2.076   4.816  0.4425  0.4872  0.2525
 6251TIP3    H218760   1.435   2.046   4.668 -0.5542  0.3060  0.3039
 6252TIP3   OH218761   6.011   5.764   3.768  0.1908  0.5555 -0.1937
 6252TIP3    H118762   6.009   5.738   3.860  0.9251  1.7437  0.1684
 6252TIP3    H218763   5.959   5.844   3.764 -0.5532  0.0639 -0.9847
 6253TIP3   OH218764   5.974   5.770   1.106 -0.5353 -0.4575  0.4015
 6253TIP3    H118765   6.035   5.712   1.151  0.1382 -0.0195  0.0632
 6253TIP3    H218766   6.022   5.802   1.030 -1.2269 -0.1975  0.0612
 6254TIP3   OH218767   2.454   4.244   1.437  0.0728  0.0573  0.1537
 6254TIP3    H118768   2.441   4.336   1.460  0.0409 -0.1704  1.1235
 6254TIP3    H218769   2.549   4.232   1.440  0.1662  0.3223 -1.1304
 6255TIP3   OH218770   4.285   2.552   4.672  0.0683 -0.0198 -0.1853
 6255TIP3    H118771   4.295   2.475   4.615 -2.6277  0.6950 -1.8035
 6255TIP3    H218772   4.256   2.515   4.756  1.4096 -0.9107 -0.0831
 6256TIP3   OH218773   0.619   4.791   4.933  0.0966 -0.6635 -0.4243
 6256TIP3    H118774   0.645   4.881   4.950 -1.2791 -0.3924  0.3528
 6256TIP3    H218775   0.574   4.763   5.013 -2.7929 -0.8066 -1.9612
 6257TIP3   OH218776   3.128   1.125   1.599 -0.0164  0.0272  0.6961
 6257TIP3    H118777   3.176   1.141   1.680  2.6364  0.9011 -0.9011
 6257TIP3    H218778   3.127   1.029   1.591 -0.6736 -0.0844  1.9316
 6258TIP3   OH218779   5.335   4.426   4.047 -0.2100 -0.1409 -0.4429
 6258TIP3    H118780   5.323   4.333   4.067  0.1391  0.0800  0.9275
 6258TIP3    H218781   5.249   4.465   4.062 -0.1396 -0.1063 -0.1094
 6259TIP3   OH218782   3.324   4.537   4.383 -0.0461 -0.1106  0.4616
 6259TIP3    H118783   3.385   4.516   4.313  0.2530  2.0758 -0.0267
 6259TIP3    H218784   3.300   4.628   4.367 -0.6603  0.1888  2.6904
 6260TIP3   OH218785   2.864   5.378   4.618 -0.5381 -0.0209  0.0523
 6260TIP3    H118786   2.783   5.403   4.662 -1.0677 -1.5351  0.0239
 6260TIP3    H218787   2.923   5.350   4.688 -1.2514 -2.0783 -0.0952
 6261TIP3   OH218788   0.433   5.744   3.411 -0.2297  0.0497  0.0200
 6261TIP3    H118789   0.448   5.649   3.414  0.5027  0.1364 -0.6728
 6261TIP3    H218790   0.380   5.757   3.332  1.2293  0.4063 -0.9280
 6262TIP3   OH218791   4.148   3.410   4.341 -0.3799  0.0825 -0.1076
 6262TIP3    H118792   4.229   3.414   4.392  0.5184  0.5266 -1.5060
 6262TIP3    H218793   4.080   3.390   4.405  0.3228  2.9022  1.6612
 6263TIP3   OH218794   2.943   1.191   0.462 -0.8298  0.5953 -0.0468
 6263TIP3    H118795   3.013   1.216   0.523 -1.3280  1.1062  0.3282
 6263TIP3    H218796   2.988   1.168   0.381 -0.1988  0.4783  0.3301
 6264TIP3   OH218797   0.949   3.728   3.184 -0.4705 -0.4282 -0.6352
 6264TIP3    H118798   0.930   3.695   3.096  2.2368  2.1277 -2.3752
 6264TIP3    H218799   1.002   3.659   3.225 -0.4024 -0.9776 -1.6251
 6265TIP3   OH218800   3.096   2.758   4.903  0.0643  0.5002 -0.1863
 6265TIP3    H118801   3.134   2.845   4.895  1.1610 -0.0971 -1.8088
 6265TIP3    H218802   3.134   2.707   4.832 -0.5218 -1.3372  0.7261
 6266TIP3   OH218803   5.419   2.693   1.441  0.2870  0.3227  0.5997
 6266TIP3    H118804   5.377   2.731   1.519 -0.6550 -1.2340  0.8834
 6266TIP3    H218805   5.480   2.761   1.412 -0.1003  1.3591  2.0780
 6267TIP3   OH218806   4.793   4.724   4.549 -0.2936 -0.6502 -0.3521
 6267TIP3    H118807   4.842   4.792   4.596 -1.0775 -0.4551  0.2113
 6267TIP3    H218808   4.740   4.772   4.485 -0.8179 -0.7219  0.0183
 6268TIP3   OH218809   4.570   1.892   0.063  0.1663  0.2181 -0.7214
 6268TIP3    H118810   4.630   1.841   0.116  0.7553 -0.1363 -1.7194
 6268TIP3    H218811   4.577   1.981   0.098 -0.9953 -0.3670  1.1339
 6269TIP3   OH218812   3.598   5.108   0.320  0.3764 -0.3108 -0.4801
 6269TIP3    H118813   3.570   5.199   0.326 -0.1323 -0.2395 -2.8753
 6269TIP3    H218814   3.543   5.061   0.382  1.1375  1.0614  1.3174
 6270TIP3   OH218815   3.453   1.884   0.139 -0.1155 -1.0213  0.5524
 6270TIP3    H118816   3.506   1.942   0.193 -0.4762 -0.3931  0.2306
 6270TIP3    H218817   3.407   1.828   0.202  0.3423 -1.0661  0.8534
 6271TIP3   OH218818   1.731   3.887   2.814 -0.0281  0.1814  0.0623
 6271TIP3    H118819   1.737   3.820   2.882  1.2516 -0.5943 -0.7529
 6271TIP3    H218820   1.800   3.950   2.835  1.8246 -1.1612 -1.5649
 6272TIP3   OH218821   4.515   2.356   1.120  0.0078 -0.2047 -0.1700
 6272TIP3    H118822   4.543   2.277   1.166 -0.7231 -0.2069  0.2932
 6272TIP3    H218823   4.483   2.324   1.035 -0.3080 -0.4099  0.0244
 6273TIP3   OH218824   4.673   4.617   0.032  0.5602  0.4397  0.4522
 6273TIP3    H118825   4.622   4.540   0.056 -0.6438  0.5965 -1.3689
 6273TIP3    H218826   4.745   4.583  -0.021 -0.6834  0.5730 -1.4449
 6274TIP3   OH218827   1.201   2.215   3.944 -0.3594 -0.6007 -0.2868
 6274TIP3    H118828   1.174   2.129   3.912 -0.5142 -0.5774 -0.2207
 6274TIP3    H218829   1.127   2.273   3.923 -0.5570 -0.6311  0.3045
 6275TIP3   OH218830   1.531   1.074   4.703  0.8092 -0.2898  0.0374
 6275TIP3    H118831   1.458   1.022   4.670 -0.0933  0.7013  0.4458
 6275TIP3    H218832   1.609   1.024   4.677 -0.0206 -1.7763  0.2937
 6276TIP3   OH218833   2.912   3.617   2.430  0.4343 -0.0141  0.0426
 6276TIP3    H118834   2.892   3.531   2.468  0.4227 -0.4251 -0.8728
 6276TIP3    H218835   3.007   3.616   2.417  0.3987  0.0143 -0.2147
 6277TIP3   OH218836   3.226   2.128   3.876 -0.2964  0.2138  0.5208
 6277TIP3    H118837   3.176   2.056   3.915 -0.5222  0.0717 -0.0202
 6277TIP3    H218838   3.199   2.206   3.925 -1.6635  0.2770 -0.2839
 6278TIP3   OH218839   1.512   5.506   3.049 -0.3722  0.2919 -0.3224
 6278TIP3    H118840   1.552   5.489   3.134 -0.8339  0.2369 -0.1084
 6278TIP3    H218841   1.451   5.578   3.065  1.8698  2.5485 -1.3078
 6279TIP3   OH218842   2.922   5.706   4.588 -0.1410  0.6111 -0.1067
 6279TIP3    H118843   2.904   5.707   4.682  0.4366 -0.6406  0.0377
 6279TIP3    H218844   2.846   5.662   4.550  0.1617  0.0657 -0.0881
 6280TIP3   OH218845   6.325   0.582   0.592 -0.2247  0.1801  1.0897
 6280TIP3    H118846   6.254   0.521   0.612 -1.2361  0.5975 -0.9518
 6280TIP3    H218847   6.296   0.665   0.631 -1.5009  0.6405 -0.6887
 6281TIP3   OH218848   3.030   3.840   4.146  0.3022 -0.0495  0.0873
 6281TIP3    H118849   3.074   3.756   4.138  1.3321  0.4783 -0.0122
 6281TIP3    H218850   2.980   3.849   4.066  0.0414 -0.6439  0.1777
 6282TIP3   OH218851   1.131   0.013   1.436  0.3324  0.3456 -0.2189
 6282TIP3    H118852   1.140   0.081   1.369 -1.0006 -0.5006 -1.3018
 6282TIP3    H218853   1.155  -0.068   1.391  1.7627  0.0237  1.0223
 6283TIP3   OH218854   4.466   5.929   3.703  0.2767  0.1790  0.2617
 6283TIP3    H118855   4.410   5.869   3.652 -0.7714  0.4026  1.1120
 6283TIP3    H218856   4.422   6.013   3.697  1.0250  0.5750  0.2033
 6284TIP3   OH218857   3.994   3.803   0.778 -0.0472 -0.2513  0.4399
 6284TIP3    H118858   3.981   3.787   0.685 -1.6592  0.1247  0.5666
 6284TIP3    H218859   3.916   3.851   0.805 -0.0122 -1.0804  2.1567
 6285TIP3   OH218860   0.733   5.837   5.037 -0.2076  0.7308 -0.0115
 6285TIP3    H118861   0.807   5.897   5.039 -0.9591  1.6883  1.5237
 6285TIP3    H218862   0.697   5.841   5.126 -0.3020 -2.0190  0.1564
 6286TIP3   OH218863   3.190   2.522   2.525 -0.0593 -0.1281  0.0613
 6286TIP3    H118864   3.168   2.608   2.561  1.7603  0.6303 -0.5485
 6286TIP3    H218865   3.253   2.540   2.455  0.1195 -1.9472 -0.3026
 6287TIP3   OH218866   2.224   3.634   4.078  0.0769  0.7476  0.2916
 6287TIP3    H118867   2.199   3.669   4.164  2.7867  0.5573  1.2510
 6287TIP3    H218868   2.243   3.712   4.026  0.7511  0.8442  0.6636
 6288TIP3   OH218869   1.323   2.360   1.617 -0.3022 -0.9406 -0.3815
 6288TIP3    H118870   1.228   2.356   1.607 -0.5199  0.8486  0.5374
 6288TIP3    H218871   1.342   2.302   1.691 -0.9867  0.2941  0.8188
 6289TIP3   OH218872   2.538   3.213   4.044 -0.1663  0.4009  0.0565
 6289TIP3    H118873   2.544   3.118   4.048 -1.2743  0.3322  0.7511
 6289TIP3    H218874   2.445   3.231   4.058  0.2395  1.6358  1.4798
 6290TIP3   OH218875   5.885   2.874   0.241 -0.2273 -0.0367 -0.0031
 6290TIP3    H118876   5.853   2.927   0.168  1.7461  0.7859 -0.3296
 6290TIP3    H218877   5.980   2.876   0.232  0.0386 -0.5488  2.1720
 6291TIP3   OH218878   3.501   5.740   3.941  0.5036 -0.4249  0.0863
 6291TIP3    H118879   3.585   5.749   3.897  0.3042  0.2477 -0.1692
 6291TIP3    H218880   3.522   5.695   4.023  1.1554 -0.0205  0.1499
 6292TIP3   OH218881   2.193   5.285   2.596  0.2154  0.0913 -0.1820
 6292TIP3    H118882   2.166   5.224   2.528 -3.7243  0.9863  0.3337
 6292TIP3    H218883   2.223   5.363   2.549  0.4216 -0.3814 -0.8410
 6293TIP3   OH218884   0.065   1.595   2.553 -0.0695 -0.3414 -0.0289
 6293TIP3    H118885   0.047   1.531   2.484  1.0780  0.1456 -0.8209
 6293TIP3    H218886   0.030   1.677   2.519  1.7320  0.2049 -0.7314
 6294TIP3   OH218887   3.309   5.414   3.591 -0.0038  0.1909 -0.4794
 6294TIP3    H118888   3.250   5.488   3.583  0.2153  0.3098 -1.0674
 6294TIP3    H218889   3.270   5.359   3.659 -0.4085  0.6139 -0.3640
 6295TIP3   OH218890   4.065   4.929   1.356  0.5855 -0.2673  0.0650
 6295TIP3    H118891   4.090   5.019   1.377 -1.4727  0.6068 -0.9314
 6295TIP3    H218892   4.135   4.897   1.300  0.8062  1.1158 -0.4838
 6296TIP3   OH218893   4.243   4.943   1.794  0.4018  0.6578 -0.6527
 6296TIP3    H118894   4.294   5.022   1.776  1.1225  0.2882 -0.2683
 6296TIP3    H218895   4.290   4.873   1.749  1.5260 -0.0671  1.5192
 6297TIP3   OH218896   4.072   4.973   3.888  0.2258 -0.0549  0.3509
 6297TIP3    H118897   4.033   5.053   3.922 -0.1745 -1.0550  2.3897
 6297TIP3    H218898   4.094   4.994   3.797 -2.5477  1.4056 -0.0807
 6298TIP3   OH218899   1.646   2.279   3.813 -0.5263  0.9898 -0.1431
 6298TIP3    H118900   1.581   2.218   3.847  0.7267  0.5261  1.5190
 6298TIP3    H218901   1.599   2.329   3.745 -1.6142 -1.7072 -1.5178
 6299TIP3   OH218902   0.244   4.984   1.741 -0.1985 -0.1357 -0.0870
 6299TIP3    H118903   0.255   4.899   1.700 -0.7663 -0.1836 -0.1550
 6299TIP3    H218904   0.280   5.046   1.678  0.3345 -0.3374  0.0214
 6300TIP3   OH218905   5.273   3.101   3.452  0.0188  0.1085  0.5391
 6300TIP3    H118906   5.265   3.166   3.521 -2.1861  0.4914 -0.0065
 6300TIP3    H218907   5.300   3.151   3.375 -0.4766  0.1867  0.4135
 6301TIP3   OH218908   2.156   4.306   3.515  0.5883 -0.1796  0.1295
 6301TIP3    H118909   2.107   4.377   3.473 -0.2220 -1.6741 -1.6263
 6301TIP3    H218910   2.247   4.321   3.489  0.3116 -0.2124 -0.8825
 6302TIP3   OH218911   4.381   3.021   3.691  0.3280  0.0107 -0.5953
 6302TIP3    H118912   4.450   3.021   3.625  1.3307  0.9921  0.4122
 6302TIP3    H218913   4.422   3.057   3.770 -1.3896  0.8495 -0.0192
 6303TIP3   OH218914   6.169   0.532   2.228  0.2235  0.1937  0.0381
 6303TIP3    H118915   6.261   0.521   2.253 -0.2026 -0.9927  1.2029
 6303TIP3    H218916   6.126   0.561   2.308 -0.4526  0.6036 -0.4658
 6304TIP3   OH218917   0.192   5.463   1.421 -0.3144  0.3462 -0.2424
 6304TIP3    H118918   0.129   5.433   1.356 -1.2614  0.4798  0.5874
 6304TIP3    H218919   0.184   5.400   1.493  1.3153 -0.2872 -0.5629
 6305TIP3   OH218920   2.630   0.493   3.025 -0.4083 -0.5794  0.3201
 6305TIP3    H118921   2.719   0.523   3.007 -0.7264  0.5223  0.4908
 6305TIP3    H218922   2.622   0.410   2.977  0.3748 -0.1842 -0.5292
 6306TIP3   OH218923   6.036   2.001   4.589 -0.5993 -0.1677 -0.2198
 6306TIP3    H118924   5.977   2.055   4.537 -0.4271 -0.7088 -0.9903
 6306TIP3    H218925   5.984   1.977   4.666 -0.9073  0.5078 -0.2091
 6307TIP3   OH218926   2.638   3.260   1.288 -0.2334  0.0773  0.5134
 6307TIP3    H118927   2.567   3.310   1.247 -0.5074 -0.1062  0.7581
 6307TIP3    H218928   2.626   3.276   1.382 -0.0267 -0.0564  0.5617
 6308TIP3   OH218929   3.639   4.085   0.397  0.0910  0.3459 -0.5708
 6308TIP3    H118930   3.616   3.993   0.389  2.8834 -0.2382 -4.0145
 6308TIP3    H218931   3.562   4.125   0.438 -1.3814 -3.3586  0.7041
 6309TIP3   OH218932   0.116   2.024   1.696 -0.1789 -0.2825  0.6363
 6309TIP3    H118933   0.149   2.010   1.784  0.9736 -1.2330  0.0874
 6309TIP3    H218934   0.194   2.018   1.640 -0.8805  0.3000 -0.4471
 6310TIP3   OH218935   2.107   4.933   2.181  0.1472  0.2081 -0.0437
 6310TIP3    H118936   2.022   4.896   2.208  0.4218 -0.0534  0.4856
 6310TIP3    H218937   2.155   4.859   2.144  0.1358  0.3627 -0.3742
 6311TIP3   OH218938   2.170   1.053   2.092  0.2509 -0.0385  0.1287
 6311TIP3    H118939   2.192   1.027   2.002 -0.1579 -0.8341  0.2481
 6311TIP3    H218940   2.149   1.147   2.085 -0.9594 -0.3440 -0.8471
 6312TIP3   OH218941   0.249   4.586   0.159  0.0770 -0.6410 -0.0251
 6312TIP3    H118942   0.172   4.613   0.208  1.0018 -0.7542  1.5736
 6312TIP3    H218943   0.320   4.642   0.192  0.3987  0.7223 -2.7257
 6313TIP3   OH218944   1.582   2.442   4.139 -0.0586 -0.5359 -0.1447
 6313TIP3    H118945   1.623   2.524   4.112 -0.1856 -0.6762 -0.7686
 6313TIP3    H218946   1.656   2.384   4.159  0.0377 -0.5430 -0.5209
 6314TIP3   OH218947   1.934   5.681   4.743 -0.9303  0.1070  0.1170
 6314TIP3    H118948   1.874   5.607   4.750 -0.0736 -0.8110 -1.5083
 6314TIP3    H218949   2.004   5.661   4.804 -0.6041 -0.5583 -0.4548
 6315TIP3   OH218950   6.038   4.682   1.271 -0.2085  0.0930  0.7492
 6315TIP3    H118951   6.005   4.679   1.361 -1.9987  0.1610  0.1460
 6315TIP3    H218952   6.084   4.766   1.265 -0.9637  0.5671  1.3280
 6316TIP3   OH218953   5.147   3.917   3.495 -0.2055  0.2294  0.3968
 6316TIP3    H118954   5.077   3.866   3.455  0.3516  0.2346 -0.6398
 6316TIP3    H218955   5.119   4.008   3.487 -0.4366  0.1817  0.6924
 6317TIP3   OH218956   5.783   1.459   4.678  0.3630 -0.6589  0.4190
 6317TIP3    H118957   5.805   1.408   4.600 -0.8986 -1.4425  0.5519
 6317TIP3    H218958   5.758   1.394   4.743 -2.3943  0.0885  0.2363
 6318TIP3   OH218959   1.719   3.733   3.781  0.1859 -0.0999  0.0750
 6318TIP3    H118960   1.761   3.818   3.786  1.6215 -0.7542 -0.3459
 6318TIP3    H218961   1.788   3.671   3.803 -1.0939 -1.1115  1.4325
 6319TIP3   OH218962   2.839   4.616   5.096 -0.1543  0.0417  1.0091
 6319TIP3    H118963   2.816   4.527   5.123 -0.7487 -0.0475  0.2222
 6319TIP3    H218964   2.775   4.639   5.029  0.7344  0.5991  0.3186
 6320TIP3   OH218965   3.600   5.881   5.194  0.4869  0.8366  0.5908
 6320TIP3    H118966   3.639   5.959   5.153 -0.7204  0.7277 -0.8880
 6320TIP3    H218967   3.594   5.818   5.122  0.0553 -0.0712  1.4116
 6321TIP3   OH218968   2.429   2.295   1.037  0.3575 -0.5839 -0.1290
 6321TIP3    H118969   2.357   2.308   0.976  0.1309  1.3631  0.4813
 6321TIP3    H218970   2.482   2.226   0.998 -1.0692 -1.0616 -1.2945
 6322TIP3   OH218971   4.181   2.201   0.862 -0.1928  0.1767  0.6564
 6322TIP3    H118972   4.109   2.171   0.806  0.2688 -0.8777  0.6007
 6322TIP3    H218973   4.175   2.146   0.939  1.0110 -0.4598  0.3200
 6323TIP3   OH218974   0.408   2.656   2.653  0.7152 -0.0895  0.0406
 6323TIP3    H118975   0.389   2.716   2.581  1.2289  1.5105  1.1765
 6323TIP3    H218976   0.490   2.687   2.690  0.5947 -1.0069  1.1765
 6324TIP3   OH218977   2.074   2.077   4.937  0.3499  0.0735 -0.2423
 6324TIP3    H118978   2.010   2.148   4.934 -0.9385 -1.0111  0.3040
 6324TIP3    H218979   2.021   1.998   4.931  1.7881 -0.8544 -1.3414
 6325TIP3   OH218980   0.520   3.920   0.896  0.0384 -0.9054 -0.2929
 6325TIP3    H118981   0.587   3.929   0.828  0.5486 -0.3177  0.2742
 6325TIP3    H218982   0.460   3.854   0.861 -0.0949 -0.1148 -1.6203
 6326TIP3   OH218983   4.582   2.801   4.196  0.3865  0.3481 -0.1977
 6326TIP3    H118984   4.630   2.873   4.237  0.3783  0.0726  0.3098
 6326TIP3    H218985   4.492   2.834   4.187  0.3603  0.3689  0.1243
 6327TIP3   OH218986   2.613   1.602   1.414 -0.4792  0.2841 -0.6186
 6327TIP3    H118987   2.701   1.634   1.435 -1.0115  0.8227  0.9413
 6327TIP3    H218988   2.569   1.677   1.374 -0.9950  0.8339  0.9141
 6328TIP3   OH218989   4.360   3.557   0.437  0.0641 -0.3653 -0.3307
 6328TIP3    H118990   4.344   3.636   0.385  3.4852  0.9545  0.3113
 6328TIP3    H218991   4.317   3.574   0.520 -0.4129  0.2003 -0.6863
 6329TIP3   OH218992   2.704   5.761   2.097  0.0872  0.1158  0.0704
 6329TIP3    H118993   2.785   5.768   2.147  0.9248  0.3416 -1.2697
 6329TIP3    H218994   2.635   5.783   2.159  1.0747  0.2467  1.1492
 6330TIP3   OH218995   4.270   1.246   4.052  0.8020  0.3335  1.0095
 6330TIP3    H118996   4.223   1.163   4.044 -1.4245  1.5052  1.0095
 6330TIP3    H218997   4.277   1.279   3.963  2.2509 -0.1117  0.9370
 6331TIP3   OH218998   5.572   5.547   2.982  0.0395  0.2989  0.6077
 6331TIP3    H118999   5.579   5.539   2.887 -0.4470 -2.0604  0.7128
 6331TIP3    H219000   5.523   5.628   2.996 -0.4420  0.3547 -1.1693
 6332TIP3   OH219001   2.353   3.285   1.229 -0.2436 -0.3397  0.7375
 6332TIP3    H119002   2.377   3.231   1.304 -0.4849 -0.8533  0.4460
 6332TIP3    H219003   2.267   3.321   1.251 -0.4874 -0.7941  0.5534
 6333TIP3   OH219004   3.713   3.808   1.047  0.2959 -0.2945 -0.5868
 6333TIP3    H119005   3.756   3.725   1.064 -0.1426 -1.0849 -2.9346
 6333TIP3    H219006   3.628   3.801   1.090 -0.0927 -1.4501 -1.5058
 6334TIP3   OH219007   3.162   3.264   4.374  0.2356  0.3101 -0.5434
 6334TIP3    H119008   3.197   3.190   4.324  1.1911  1.4229 -1.5900
 6334TIP3    H219009   3.093   3.300   4.318  0.5672  0.9009 -0.5813
 6335TIP3   OH219010   4.613   2.203   4.688  0.2191 -0.3757  0.0465
 6335TIP3    H119011   4.651   2.116   4.705 -0.3297 -0.2781  2.1258
 6335TIP3    H219012   4.520   2.193   4.710 -0.0745  0.4700 -0.7638
 6336TIP3   OH219013   3.804   0.624   2.004 -0.3541  0.0417  0.3687
 6336TIP3    H119014   3.855   0.552   2.041  0.3857  0.4067  0.0969
 6336TIP3    H219015   3.718   0.617   2.045  0.2200  0.0017  1.6228
 6337TIP3   OH219016   4.518   1.345   3.358  0.2069 -0.0506 -0.4569
 6337TIP3    H119017   4.601   1.313   3.322 -0.1081 -2.3676  0.6777
 6337TIP3    H219018   4.537   1.363   3.450 -0.6160 -0.9815 -0.0885
 6338TIP3   OH219019   5.600   1.214   0.681 -0.5377 -0.0339  0.8508
 6338TIP3    H119020   5.566   1.251   0.762 -0.0261 -1.2035  1.6270
 6338TIP3    H219021   5.534   1.150   0.654  0.7780 -2.1030  2.2109
 6339TIP3   OH219022   5.190   3.087   0.995  0.0946 -0.1441  0.1011
 6339TIP3    H119023   5.095   3.092   1.010  0.0742 -0.8464  0.2513
 6339TIP3    H219024   5.229   3.107   1.081  0.0478 -1.0617  0.3481
 6340TIP3   OH219025   3.277   4.571   3.116 -0.4805 -0.1624 -0.2323
 6340TIP3    H119026   3.204   4.605   3.064 -0.0480  0.6402 -0.3185
 6340TIP3    H219027   3.260   4.477   3.120 -1.8272  0.0703  0.2120
 6341TIP3   OH219028   0.219   1.950   2.483  0.7943  0.5148 -0.2238
 6341TIP3    H119029   0.149   1.985   2.538  0.8587  1.6889 -0.8706
 6341TIP3    H219030   0.294   2.008   2.498  2.1623 -1.5556  1.5885
 6342TIP3   OH219031   1.616   1.761   3.618  0.3528  0.1457  0.2041
 6342TIP3    H119032   1.675   1.764   3.542  0.2057 -0.1801  0.0716
 6342TIP3    H219033   1.634   1.841   3.666  1.0758 -0.0650  0.2918
 6343TIP3   OH219034   4.056   4.111   4.391 -0.0842 -0.0254  0.5518
 6343TIP3    H119035   4.106   4.192   4.390 -2.5216  1.5673  0.7038
 6343TIP3    H219036   4.010   4.110   4.306 -1.2364 -0.4535  1.1553
 6344TIP3   OH219037   5.965   4.739   3.092  0.3634  0.1708 -0.2347
 6344TIP3    H119038   6.006   4.800   3.031  0.0136  1.7468  1.0502
 6344TIP3    H219039   5.876   4.772   3.104  0.7801  0.6699  2.0344
 6345TIP3   OH219040   0.299   2.403   3.584 -0.5625  0.3954 -0.4848
 6345TIP3    H119041   0.352   2.325   3.602 -1.7748 -1.1375 -2.9386
 6345TIP3    H219042   0.360   2.463   3.541 -0.3891 -0.7121 -1.8585
 6346TIP3   OH219043   3.203   0.486   1.860  0.0146 -0.1754  0.6745
 6346TIP3    H119044   3.223   0.573   1.896 -0.4213  0.3136 -0.2353
 6346TIP3    H219045   3.159   0.441   1.932  0.7883  0.1379  1.3569
 6347TIP3   OH219046   5.443   4.661   0.627 -0.3230 -0.0114 -0.1791
 6347TIP3    H119047   5.477   4.589   0.680  0.8734  0.0554 -0.8156
 6347TIP3    H219048   5.471   4.740   0.674 -1.3060  0.0494  0.3192
 6348TIP3   OH219049   3.650   2.363   0.078 -0.3908 -0.4169  0.0449
 6348TIP3    H119050   3.687   2.357   0.166  0.2057 -1.0965 -0.2483
 6348TIP3    H219051   3.608   2.278   0.064 -2.6970  0.5466  0.6249
 6349TIP3   OH219052   1.024   4.128   3.460 -0.4097 -0.5242 -0.8255
 6349TIP3    H119053   0.938   4.157   3.431 -0.8471 -1.1830 -0.2092
 6349TIP3    H219054   1.008   4.048   3.508  0.5342 -0.5602 -0.5411
 6350TIP3   OH219055   4.320   3.451   2.426  0.0869 -0.3298  0.0287
 6350TIP3    H119056   4.233   3.417   2.446 -0.0804 -1.2564 -1.9865
 6350TIP3    H219057   4.303   3.529   2.373  0.4828 -0.5276 -0.3894
 6351TIP3   OH219058   4.543   1.340   3.637 -0.2947  0.5005  0.6517
 6351TIP3    H119059   4.631   1.379   3.637  0.2129 -0.5910  0.7046
 6351TIP3    H219060   4.548   1.272   3.703 -1.8498  1.7939  2.1755
 6352TIP3   OH219061   3.988   4.467   3.194 -0.0140  0.0363  0.0406
 6352TIP3    H119062   3.965   4.543   3.141  1.3295  0.0565 -0.5367
 6352TIP3    H219063   4.081   4.451   3.176 -0.1800 -1.5444  0.4048
 6353TIP3   OH219064   5.706   0.082   2.956  0.2260 -0.1000 -0.5313
 6353TIP3    H119065   5.621   0.124   2.951 -0.2991 -0.9450  0.7955
 6353TIP3    H219066   5.705   0.016   2.886 -0.2502 -0.1662 -0.4635
 6354TIP3   OH219067   5.818   0.411   2.445 -0.7565 -0.3215  0.0395
 6354TIP3    H119068   5.726   0.392   2.425 -0.5145 -0.2832 -1.1752
 6354TIP3    H219069   5.829   0.503   2.420 -0.4109 -0.3000  0.2700
 6355TIP3   OH219070   5.089   3.469   1.917  0.3200  0.1285  0.1286
 6355TIP3    H119071   5.063   3.424   1.836 -1.0572 -1.3366  1.3091
 6355TIP3    H219072   5.013   3.460   1.974  0.1368  3.6182  0.6641
 6356TIP3   OH219073   1.447   5.437   4.380  0.2855 -0.1519  0.3381
 6356TIP3    H119074   1.475   5.511   4.326 -1.0681 -0.7292 -1.2534
 6356TIP3    H219075   1.494   5.362   4.343 -0.7762 -0.5804 -0.2018
 6357TIP3   OH219076   0.571   5.284   2.623 -0.4262 -0.1427 -0.1021
 6357TIP3    H119077   0.661   5.252   2.635  0.4724  1.4322 -2.0582
 6357TIP3    H219078   0.552   5.334   2.702  1.1478  1.0214 -0.4128
 6358TIP3   OH219079   0.120   2.239   4.935 -0.3099  0.0153 -0.1440
 6358TIP3    H119080   0.044   2.198   4.894 -0.3089 -0.2201  0.0833
 6358TIP3    H219081   0.164   2.285   4.864 -0.3385 -0.3466 -0.3964
 6359TIP3   OH219082   3.985   3.330   1.040 -0.0798 -0.1436 -0.4374
 6359TIP3    H119083   3.966   3.240   1.015 -0.8026  0.2141 -1.2686
 6359TIP3    H219084   4.072   3.327   1.080  0.2092 -1.0938 -1.1006
 6360TIP3   OH219085  -0.025   0.163   1.795 -0.4911  0.3445  0.7132
 6360TIP3    H119086  -0.036   0.213   1.876 -0.1186 -1.4058  1.8963
 6360TIP3    H219087   0.067   0.138   1.796 -1.3465 -3.3163  2.0409
 6361TIP3   OH219088   2.943   4.439   3.291  0.3050 -0.2287 -0.0822
 6361TIP3    H119089   2.944   4.406   3.381  1.4450  1.0312  0.3876
 6361TIP3    H219090   2.853   4.470   3.278  0.3156  0.2390  0.8801
 6362TIP3   OH219091   2.346   2.042   5.079 -0.4384  0.0484  0.3497
 6362TIP3    H119092   2.322   2.051   4.987  0.9954 -1.1538 -0.1802
 6362TIP3    H219093   2.419   2.103   5.091 -1.2422  0.9225  0.9730
 6363TIP3   OH219094   3.392   4.014   2.950 -0.5864 -0.1641  0.0641
 6363TIP3    H119095   3.309   4.000   2.995 -1.9087  1.5581 -1.6377
 6363TIP3    H219096   3.370   4.011   2.857  1.5472 -1.0621 -0.4875
 6364TIP3   OH219097   2.831   0.610   4.850 -0.0379 -0.1752  0.0370
 6364TIP3    H119098   2.911   0.608   4.902  0.0994  3.5992  0.2845
 6364TIP3    H219099   2.761   0.591   4.914  0.4683 -1.0970  0.3358
 6365TIP3   OH219100   5.112   1.764   4.673 -0.0651 -0.5995 -0.0426
 6365TIP3    H119101   5.191   1.758   4.620  0.0293 -1.0642  0.1483
 6365TIP3    H219102   5.055   1.823   4.623 -0.0138 -1.1045 -0.7152
 6366TIP3   OH219103   0.238   0.052   1.770  0.1653  0.3836  0.7783
 6366TIP3    H119104   0.274   0.140   1.767 -0.2475  0.5170 -1.2850
 6366TIP3    H219105   0.305  -0.004   1.730  0.0218 -0.0950  1.1925
 6367TIP3   OH219106   2.396   5.502   0.043 -0.2554 -0.0329 -0.1274
 6367TIP3    H119107   2.413   5.542   0.129 -1.8072  0.5943 -0.0900
 6367TIP3    H219108   2.447   5.421   0.045 -0.4622 -0.1699  1.4950
 6368TIP3   OH219109   4.724   3.741   1.949  0.1229 -0.1636  0.7052
 6368TIP3    H119110   4.693   3.830   1.965 -1.0877 -0.7413  1.7377
 6368TIP3    H219111   4.790   3.727   2.017  1.8940  0.6569 -0.7737
 6369TIP3   OH219112   5.326   0.500   2.426  0.2726 -0.2917 -0.3138
 6369TIP3    H119113   5.393   0.436   2.404 -0.3324 -1.1682  0.3238
 6369TIP3    H219114   5.245   0.464   2.391 -0.4628 -1.0190  1.9280
 6370TIP3   OH219115   2.050   2.291   2.569  0.0564 -0.5579 -0.5566
 6370TIP3    H119116   2.034   2.198   2.555 -1.6462 -0.1157 -1.9261
 6370TIP3    H219117   2.145   2.300   2.566  0.2649 -2.2936  0.0028
 6371TIP3   OH219118   1.929   4.272   1.059 -0.0222 -0.1590  0.4757
 6371TIP3    H119119   1.916   4.341   1.125 -0.1935  1.6754 -1.3791
 6371TIP3    H219120   1.856   4.212   1.073 -0.8678  0.9485  1.0723
 6372TIP3   OH219121   1.680   1.277   3.772 -0.1176  0.5521  0.8516
 6372TIP3    H119122   1.738   1.270   3.696 -1.4591 -0.1897 -0.1297
 6372TIP3    H219123   1.641   1.191   3.781 -1.2842  1.1053  1.3190
 6373TIP3   OH219124   4.273   5.500   0.442  0.0859  0.1839 -0.3396
 6373TIP3    H119125   4.329   5.558   0.494  1.4597 -1.7373  0.4586
 6373TIP3    H219126   4.334   5.457   0.381 -0.8844 -0.4203 -0.8998
 6374TIP3   OH219127   3.512   5.187   4.944 -0.1094 -1.1460 -0.0726
 6374TIP3    H119128   3.599   5.150   4.964 -0.2488 -0.6547  1.5791
 6374TIP3    H219129   3.474   5.125   4.883  0.9062 -2.0744  0.1927
 6375TIP3   OH219130   3.074   1.973   5.194  0.4450  0.1780  0.3061
 6375TIP3    H119131   2.980   1.994   5.191  0.5988  0.7767 -0.7512
 6375TIP3    H219132   3.111   2.018   5.119  1.9180  1.5524  1.7780
 6376TIP3   OH219133   0.111   4.179   4.835  0.3348  0.0301 -0.2999
 6376TIP3    H119134   0.111   4.085   4.850 -0.9558 -0.1051 -0.9687
 6376TIP3    H219135   0.072   4.216   4.915  0.0586 -0.0854 -0.3793
 6377TIP3   OH219136   4.084   0.979   1.128  0.0842 -0.6104  0.1034
 6377TIP3    H119137   4.043   1.060   1.098  1.3267 -0.3145 -0.8894
 6377TIP3    H219138   4.177   1.001   1.136  0.5614 -2.1246 -0.9175
 6378TIP3   OH219139   3.394   1.881   4.065 -0.3278  0.2391  0.1611
 6378TIP3    H119140   3.373   1.920   4.150 -1.1551 -1.1846  0.6304
 6378TIP3    H219141   3.309   1.851   4.031  0.0510  0.4341 -1.0045
 6379TIP3   OH219142   2.023   0.410   1.240 -0.1404 -0.5294 -0.9313
 6379TIP3    H119143   2.079   0.338   1.214  0.8882  0.1212 -0.5889
 6379TIP3    H219144   2.047   0.482   1.181  1.8417  0.7948  1.3216
 6380TIP3   OH219145   3.620   1.337   3.294  0.9901 -0.7227  0.0685
 6380TIP3    H119146   3.675   1.409   3.264  0.9529  0.1691  2.0347
 6380TIP3    H219147   3.679   1.283   3.347 -0.2522  1.2169  3.7516
 6381TIP3   OH219148   5.220   2.320   0.454 -0.4256 -0.2604 -0.1920
 6381TIP3    H119149   5.304   2.304   0.412 -0.4011  0.7725 -0.5733
 6381TIP3    H219150   5.160   2.258   0.413  0.4315 -2.0062  1.1070
 6382TIP3   OH219151   2.601   2.420   3.228 -0.0183 -0.6436  0.0845
 6382TIP3    H119152   2.664   2.354   3.257  0.9327  0.9837  1.9133
 6382TIP3    H219153   2.583   2.472   3.306 -0.2044  1.7003 -1.4367
 6383TIP3   OH219154   3.355   1.475   1.080  0.5948 -0.4071 -0.6057
 6383TIP3    H119155   3.262   1.495   1.092  0.4529 -0.1498 -1.9468
 6383TIP3    H219156   3.357   1.384   1.053  0.9403 -1.1139  1.5994
 6384TIP3   OH219157   5.946   1.741   1.361  0.0315 -0.3017 -0.6095
 6384TIP3    H119158   5.877   1.727   1.296 -0.2788 -1.3885 -0.0768
 6384TIP3    H219159   5.926   1.826   1.400 -1.6336 -1.0382  0.2483
 6385TIP3   OH219160   2.526   2.071   0.891 -0.3573  0.0046  0.2555
 6385TIP3    H119161   2.543   2.133   0.819  0.4619  0.4607  0.8183
 6385TIP3    H219162   2.461   2.010   0.856 -0.0992  0.3229 -0.8106
 6386TIP3   OH219163   4.594   4.045   5.196  0.1608  0.6152  0.2952
 6386TIP3    H119164   4.535   4.103   5.147 -0.8266  1.2343  2.1256
 6386TIP3    H219165   4.659   4.018   5.131 -2.4914 -0.7012 -2.0248
 6387TIP3   OH219166   4.310   1.823   1.483  0.3911 -0.5556 -0.4043
 6387TIP3    H119167   4.271   1.862   1.561 -1.1623  0.2179 -1.5199
 6387TIP3    H219168   4.373   1.888   1.453 -0.1832 -0.1235 -0.6915
 6388TIP3   OH219169   4.012   2.588   2.262 -0.3714  0.0504  0.3228
 6388TIP3    H119170   4.083   2.642   2.295  1.7062 -1.7738 -0.8957
 6388TIP3    H219171   4.006   2.609   2.169 -1.7688  0.4742  0.4786
 6389TIP3   OH219172   4.689   4.235   1.797 -0.1073  0.2836  0.5157
 6389TIP3    H119173   4.598   4.218   1.773 -0.1514 -0.4107  1.1599
 6389TIP3    H219174   4.690   4.231   1.892  0.6026  0.2868  0.5115
 6390TIP3   OH219175   2.882   1.671   4.287 -0.0017  0.2348  0.0557
 6390TIP3    H119176   2.809   1.664   4.348  0.9458 -0.5806  1.1168
 6390TIP3    H219177   2.944   1.604   4.315  1.8789  1.9274  0.1755
 6391TIP3   OH219178   0.886   0.836   1.715  0.0903  0.0142  0.0519
 6391TIP3    H119179   0.956   0.771   1.703 -0.9151 -0.9628 -0.7830
 6391TIP3    H219180   0.850   0.816   1.801 -0.5669 -0.9081 -0.4263
 6392TIP3   OH219181   4.501   5.063   3.585  0.4399 -0.4660  0.1498
 6392TIP3    H119182   4.443   5.109   3.646  1.2905 -0.5650  1.0739
 6392TIP3    H219183   4.584   5.057   3.633  1.1335 -0.5458 -1.0398
 6393TIP3   OH219184   6.263   3.728   0.971  0.1026  0.1231 -0.4927
 6393TIP3    H119185   6.246   3.798   1.035  1.1583  1.0138 -1.1393
 6393TIP3    H219186   6.293   3.775   0.893  3.2938 -1.1202 -0.1611
 6394TIP3   OH219187   2.408   4.460   2.006  0.4481 -0.0493 -0.2619
 6394TIP3    H119188   2.441   4.373   1.984  2.2515  0.1852  1.2679
 6394TIP3    H219189   2.486   4.510   2.031 -0.9093  0.8901  2.4910
 6395TIP3   OH219190   3.116   1.510   0.199 -0.1580  0.8929 -0.4338
 6395TIP3    H119191   3.163   1.427   0.204  1.9693  1.9632 -1.3285
 6395TIP3    H219192   3.026   1.489   0.225  0.5587 -1.4600  0.3436
 6396TIP3   OH219193   5.939   2.325   1.982  0.0521  0.0025  0.1218
 6396TIP3    H119194   5.971   2.260   1.920  0.4304 -0.4691  0.8085
 6396TIP3    H219195   5.986   2.405   1.959  0.3990 -0.2407 -0.0277
 6397TIP3   OH219196   1.624   3.452   2.134  0.6413  0.0134  0.1087
 6397TIP3    H119197   1.691   3.516   2.157 -2.2776  3.7057 -0.6896
 6397TIP3    H219198   1.626   3.448   2.039 -0.4805  0.4857  0.0502
 6398TIP3   OH219199   6.195   5.167   3.825 -0.1331 -0.2030 -0.5687
 6398TIP3    H119200   6.141   5.123   3.760 -0.2140  1.3279 -1.5863
 6398TIP3    H219201   6.283   5.166   3.788 -0.6315  3.2149 -2.2227
 6399TIP3   OH219202   0.903   2.143   0.820 -0.0547  0.4245 -0.1657
 6399TIP3    H119203   0.934   2.180   0.737 -0.9065  0.2813 -0.5558
 6399TIP3    H219204   0.820   2.101   0.798  0.0443 -0.2109  0.6260
 6400TIP3   OH219205   5.817   4.377   3.055  0.4798 -0.0688  0.2208
 6400TIP3    H119206   5.813   4.422   3.140  1.1961 -1.9139  1.2868
 6400TIP3    H219207   5.906   4.392   3.024  0.5053 -0.1698  0.2440
 6401TIP3   OH219208   2.221   3.317   3.771 -0.2643  0.6001 -0.2409
 6401TIP3    H119209   2.240   3.263   3.694  0.3478  1.4321 -0.6941
 6401TIP3    H219210   2.221   3.406   3.737 -0.2327  0.9533  0.6865
 6402TIP3   OH219211   0.504   3.602   5.095 -0.0717  0.4539 -0.0035
 6402TIP3    H119212   0.422   3.552   5.099  0.4359 -0.3058  1.9815
 6402TIP3    H219213   0.477   3.692   5.109 -0.6089  0.2346  0.4331
 6403TIP3   OH219214   0.729   0.151   0.606 -0.3603 -0.1582  0.6851
 6403TIP3    H119215   0.756   0.104   0.527 -0.6651 -0.6374  0.8662
 6403TIP3    H219216   0.780   0.111   0.676  2.3415  2.3305  0.3692
 6404TIP3   OH219217   4.679   1.859   2.300 -0.2361  0.1783 -0.0080
 6404TIP3    H119218   4.585   1.867   2.311 -0.3968  0.4210 -1.3413
 6404TIP3    H219219   4.691   1.779   2.248  0.5663 -1.8265  2.9472
 6405TIP3   OH219220   0.031   2.287   4.379 -0.3715 -0.4516 -0.2490
 6405TIP3    H119221  -0.032   2.275   4.309 -0.1607  1.0693 -0.7278
 6405TIP3    H219222   0.039   2.201   4.419 -2.0244 -0.8768 -0.7845
 6406TIP3   OH219223   3.927   5.859   4.142 -0.7643  0.2755  0.4264
 6406TIP3    H119224   3.886   5.822   4.063 -1.1325 -0.6956  1.0540
 6406TIP3    H219225   4.021   5.841   4.131 -1.1274 -3.3641  1.9003
 6407TIP3   OH219226   3.740   2.560   4.692 -0.2827 -0.5957  0.2441
 6407TIP3    H119227   3.681   2.633   4.713  0.4254 -0.0111  0.2640
 6407TIP3    H219228   3.682   2.485   4.679 -0.8863 -0.7297  3.0059
 6408TIP3   OH219229   1.193   5.971   3.156  0.4784 -0.1088  0.3649
 6408TIP3    H119230   1.262   5.910   3.129  0.7069  0.9820 -1.7239
 6408TIP3    H219231   1.219   5.998   3.244  1.1718 -1.8409  0.7425
 6409TIP3   OH219232   3.203   3.125   4.954 -0.2813  0.2122  0.2604
 6409TIP3    H119233   3.167   3.130   5.042 -0.2811  2.0522  0.2009
 6409TIP3    H219234   3.166   3.201   4.909  1.0315  0.2642 -0.8017
 6410TIP3   OH219235   0.810   5.147   2.345  0.6201 -0.1191 -0.4198
 6410TIP3    H119236   0.846   5.072   2.392  0.1704 -1.1252 -1.6125
 6410TIP3    H219237   0.815   5.220   2.407  4.4555 -0.2126 -0.3803
 6411TIP3   OH219238   4.057   1.461   2.994 -0.0681 -0.0238  0.0623
 6411TIP3    H119239   4.078   1.374   3.028  0.0207 -0.8581 -1.9713
 6411TIP3    H219240   4.070   1.520   3.068 -1.0669 -1.8334  1.7810
 6412TIP3   OH219241   2.540   5.387   3.378  0.2320 -0.4392 -0.1209
 6412TIP3    H119242   2.558   5.478   3.356 -2.7579 -0.3194 -2.8732
 6412TIP3    H219243   2.619   5.340   3.352  1.0484  1.1411 -0.6232
 6413TIP3   OH219244   5.469   0.552   3.183 -0.0319 -0.3693 -0.1780
 6413TIP3    H119245   5.403   0.579   3.119  1.6823  0.1838 -1.8036
 6413TIP3    H219246   5.541   0.614   3.170  0.6743 -0.7091  1.8157
 6414TIP3   OH219247   0.202   4.476   2.203 -0.4591 -0.3253 -0.3687
 6414TIP3    H119248   0.221   4.533   2.128 -0.2240 -0.6563 -0.5601
 6414TIP3    H219249   0.218   4.388   2.171  1.0622 -0.3881  0.5078
 6415TIP3   OH219250   2.326   1.499   0.955 -0.1250  0.1927 -0.1720
 6415TIP3    H119251   2.289   1.575   0.999  0.6608  1.0538 -0.9506
 6415TIP3    H219252   2.373   1.451   1.024 -0.1472  0.7238  0.2137
 6416TIP3   OH219253   0.196   5.138   3.458 -0.3138 -0.2250 -0.5078
 6416TIP3    H119254   0.189   5.225   3.418  1.3974 -0.9381 -2.5636
 6416TIP3    H219255   0.137   5.083   3.405 -3.4307  0.0521  2.3655
 6417TIP3   OH219256   4.828   0.228   4.202  0.2109 -0.5660 -0.0596
 6417TIP3    H119257   4.767   0.231   4.128  1.6680 -0.6173 -1.3044
 6417TIP3    H219258   4.806   0.305   4.254  0.8168  0.9536 -1.9360
 6418TIP3   OH219259   5.283   3.110   5.054 -0.2375  0.1852 -0.2685
 6418TIP3    H119260   5.224   3.075   5.120 -1.4320  1.4963 -0.5954
 6418TIP3    H219261   5.260   3.065   4.973 -0.0610 -0.0661 -0.1791
 6419TIP3   OH219262   5.908   3.269   1.727  0.2485 -0.0707  0.7911
 6419TIP3    H119263   5.991   3.251   1.771  0.1184 -1.2540  0.5853
 6419TIP3    H219264   5.863   3.185   1.724 -0.5970  0.3808  0.1463
 6420TIP3   OH219265   3.324   5.927   3.143 -0.2407  0.0495 -0.5030
 6420TIP3    H119266   3.280   5.882   3.215 -0.2757  0.7880 -0.0449
 6420TIP3    H219267   3.384   5.862   3.106 -1.1033 -0.7111 -0.6001
 6421TIP3   OH219268   0.860   2.308   4.129 -0.4110  0.4169  0.1913
 6421TIP3    H119269   0.900   2.290   4.214 -1.3213 -0.0444  0.5363
 6421TIP3    H219270   0.862   2.225   4.082  2.0087  1.1272 -1.1068
 6422TIP3   OH219271   5.222   1.910   3.285  0.1153  0.2060 -0.3220
 6422TIP3    H119272   5.280   1.941   3.355  0.4618 -0.4225 -0.3253
 6422TIP3    H219273   5.195   1.990   3.240  1.3006  0.4821 -0.5701
 6423TIP3   OH219274   4.591   4.760   0.261 -0.1314  0.2891  0.1165
 6423TIP3    H119275   4.614   4.720   0.178 -1.4061  2.2269 -1.2798
 6423TIP3    H219276   4.512   4.713   0.289 -1.3156  1.3620 -1.2381
 6424TIP3   OH219277   3.434   4.881   1.097 -0.0454  0.1724 -0.3948
 6424TIP3    H119278   3.408   4.790   1.079  0.1717  0.4341 -2.1993
 6424TIP3    H219279   3.463   4.880   1.188 -2.4640 -1.0030  0.4390
 6425TIP3   OH219280   2.490   0.668   0.156  0.0552  0.0998  0.1072
 6425TIP3    H119281   2.419   0.614   0.191 -0.8361  0.5193 -1.0173
 6425TIP3    H219282   2.456   0.757   0.156  0.2968  0.2110 -1.1153
 6426TIP3   OH219283   0.680   0.399   3.245 -0.2512 -0.0660  0.0145
 6426TIP3    H119284   0.712   0.481   3.207  0.4716  0.5012  1.7228
 6426TIP3    H219285   0.593   0.420   3.278 -0.6372 -0.3926 -0.7743
 6427TIP3   OH219286   0.485   0.238   0.482  0.2226  0.1282 -0.2878
 6427TIP3    H119287   0.435   0.308   0.524  0.3925 -1.1971  2.3474
 6427TIP3    H219288   0.553   0.216   0.546  0.7059 -1.8474 -1.4011
 6428TIP3   OH219289   2.211   5.960   1.293 -0.0422 -0.0333 -0.2071
 6428TIP3    H119290   2.140   5.965   1.229 -1.2721  0.0266  1.1203
 6428TIP3    H219291   2.189   5.885   1.348  0.4077  0.5737  0.8169
 6429TIP3   OH219292   5.790   3.000   0.018 -0.2342 -0.1143 -0.6554
 6429TIP3    H119293   5.718   3.028   0.075  2.1021  2.2582  1.4678
 6429TIP3    H219294   5.778   3.050  -0.062  0.1880  2.0861  0.5657
 6430TIP3   OH219295   0.075   0.958   2.543 -0.1717  0.0053  0.0280
 6430TIP3    H119296   0.060   0.928   2.632 -1.0435  1.1218  0.2881
 6430TIP3    H219297  -0.005   0.934   2.496  0.5768 -1.2431 -0.6668
 6431TIP3   OH219298   3.317   0.870   1.017 -0.0088  0.0284 -0.3157
 6431TIP3    H119299   3.393   0.908   0.974  1.4743 -1.5318  0.7636
 6431TIP3    H219300   3.251   0.861   0.948  2.3505 -2.6211 -2.4522
 6432TIP3   OH219301   0.518   0.684   5.142  0.1089  0.3816  0.4100
 6432TIP3    H119302   0.576   0.611   5.164 -0.9727  0.1006  2.7066
 6432TIP3    H219303   0.475   0.657   5.061  0.8864 -0.8199  0.3676
 6433TIP3   OH219304   0.231   3.659   2.832 -0.9948 -0.1477 -0.1714
 6433TIP3    H119305   0.144   3.638   2.796 -1.7766  0.6835  1.1511
 6433TIP3    H219306   0.226   3.752   2.853  0.1585 -0.1393  0.1204
 6434TIP3   OH219307   0.782   3.268   1.898 -0.0158 -0.4411  0.1471
 6434TIP3    H119308   0.712   3.212   1.866  0.0119  0.1261 -0.9457
 6434TIP3    H219309   0.798   3.238   1.988  0.6412 -2.7892 -0.7037
 6435TIP3   OH219310   3.890   0.827   4.798  0.5790  0.3306  0.5855
 6435TIP3    H119311   3.802   0.790   4.785  0.6872 -0.4722  1.8643
 6435TIP3    H219312   3.933   0.817   4.714 -0.3183  0.0590  0.1407
 6436TIP3   OH219313   2.846   3.925   2.911 -0.0199 -0.6615 -0.1553
 6436TIP3    H119314   2.806   3.842   2.884  0.4030 -0.7553 -0.5175
 6436TIP3    H219315   2.811   3.990   2.850  1.0664 -0.9028 -1.0667
 6437TIP3   OH219316   5.341   4.756   1.221 -0.1655 -0.8135 -0.2923
 6437TIP3    H119317   5.433   4.750   1.245 -0.1808 -0.6822 -0.1997
 6437TIP3    H219318   5.341   4.791   1.132 -0.1157 -1.1242 -0.4159
 6438TIP3   OH219319   4.875   0.380  -0.006  0.3595 -0.4075 -0.2269
 6438TIP3    H119320   4.905   0.400   0.082 -0.4711 -0.6194  0.1150
 6438TIP3    H219321   4.838   0.463  -0.038  0.6734 -0.3265 -0.3912
 6439TIP3   OH219322   1.587   3.836   3.568  0.2663 -0.0896  0.3008
 6439TIP3    H119323   1.612   3.791   3.649  0.9326  0.0720  0.1911
 6439TIP3    H219324   1.577   3.928   3.594 -1.2197 -0.2916  0.5520
 6440TIP3   OH219325   1.051   0.280   0.858  0.2566 -0.1175 -0.0875
 6440TIP3    H119326   0.982   0.216   0.876 -2.2406  2.5044  0.2554
 6440TIP3    H219327   1.041   0.300   0.765 -0.8795  1.7301  0.3785
 6441TIP3   OH219328   5.291   4.672   2.872  0.3727 -0.2820  0.3209
 6441TIP3    H119329   5.335   4.600   2.917  1.5556  0.6793  0.7445
 6441TIP3    H219330   5.223   4.629   2.819  0.3949 -1.6120  1.3206
 6442TIP3   OH219331   1.804   4.102   0.581  0.2876  0.4408  0.6746
 6442TIP3    H119332   1.849   4.079   0.662  0.8485 -0.0637  0.2318
 6442TIP3    H219333   1.851   4.179   0.548  2.1676 -1.2325 -0.8006
 6443TIP3   OH219334   4.122   0.073   3.971  0.5048 -0.7729  0.2638
 6443TIP3    H119335   4.164   0.085   3.886 -0.9548  0.8871 -0.2694
 6443TIP3    H219336   4.160   0.141   4.026  0.5139 -1.0304  0.5784
 6444TIP3   OH219337   3.868   5.345   1.970  0.0862  0.5188 -0.0232
 6444TIP3    H119338   3.887   5.261   2.012 -3.1080 -0.1583  0.3250
 6444TIP3    H219339   3.819   5.323   1.891 -0.0548  2.0247 -0.4014
 6445TIP3   OH219340   3.369   3.422   4.807  0.0784 -0.0045  0.0078
 6445TIP3    H119341   3.313   3.350   4.777 -1.1688  0.6290  0.7470
 6445TIP3    H219342   3.438   3.428   4.741 -1.6712  0.3075 -1.8826
 6446TIP3   OH219343   6.244   3.885   4.236  0.5092 -0.0184 -0.1239
 6446TIP3    H119344   6.312   3.953   4.231 -0.1616  0.6590 -0.1645
 6446TIP3    H219345   6.286   3.807   4.199  2.0085 -0.2278  1.8663
 6447TIP3   OH219346   1.965   1.258   2.460 -0.0696 -0.3093 -0.0157
 6447TIP3    H119347   1.993   1.187   2.518 -0.6003 -0.5557 -0.0515
 6447TIP3    H219348   1.919   1.213   2.389 -1.4559  0.1391  0.5693
 6448TIP3   OH219349   1.038   4.104   5.132 -0.3574 -0.0909  0.2762
 6448TIP3    H119350   1.103   4.154   5.182  0.1383  0.9162 -1.3219
 6448TIP3    H219351   1.090   4.054   5.068 -1.1036  0.2299 -0.5974
 6449TIP3   OH219352   1.539   0.038   0.611 -0.0424 -0.1224 -0.5090
 6449TIP3    H119353   1.575  -0.047   0.584 -0.6221 -1.0056  1.3783
 6449TIP3    H219354   1.615   0.092   0.628  0.3333 -0.4209 -1.1870
 6450TIP3   OH219355   4.314   2.201   4.775 -0.2399  0.1955 -0.0197
 6450TIP3    H119356   4.281   2.118   4.810 -1.2046  0.3368 -0.5593
 6450TIP3    H219357   4.239   2.259   4.776  0.5455  1.2369  0.8115
 6451TIP3   OH219358   5.155   4.419   4.341 -0.0486 -0.3825  0.5751
 6451TIP3    H119359   5.098   4.478   4.391 -1.1982  0.1395 -1.2627
 6451TIP3    H219360   5.151   4.452   4.252  2.0763 -1.1962  0.1190
 6452TIP3   OH219361   4.973   0.642   0.278  0.2351  0.2088 -0.2148
 6452TIP3    H119362   5.016   0.698   0.213 -0.7154  2.2069  0.7889
 6452TIP3    H219363   4.996   0.681   0.362 -0.1182 -1.1980  0.5630
 6453TIP3   OH219364   6.219   2.235   4.162 -0.5444  0.2507 -0.5080
 6453TIP3    H119365   6.166   2.157   4.180 -1.8565  1.0099 -0.8942
 6453TIP3    H219366   6.155   2.305   4.151  0.4642  0.9789 -2.2161
 6454TIP3   OH219367   3.802   1.138   3.387 -0.1572  0.0133 -0.0120
 6454TIP3    H119368   3.818   1.067   3.325  2.6056  0.9911 -0.5870
 6454TIP3    H219369   3.830   1.102   3.472 -0.7845 -0.2421  0.0937
 6455TIP3   OH219370   0.455   1.149   2.153 -0.1777 -0.0477  0.0509
 6455TIP3    H119371   0.445   1.146   2.058  2.6367  0.4997 -0.3548
 6455TIP3    H219372   0.540   1.108   2.169 -0.1894  0.6659  2.2660
 6456TIP3   OH219373   0.080   5.139   3.700  0.5453  0.3197 -0.0731
 6456TIP3    H119374   0.033   5.058   3.679  1.7441 -0.5516  0.4940
 6456TIP3    H219375   0.147   5.146   3.632  1.8184 -0.3392  1.0714
 6457TIP3   OH219376   0.699   3.848   3.550 -0.2309  0.2233  0.1998
 6457TIP3    H119377   0.748   3.929   3.563  1.5074 -0.7860  0.2057
 6457TIP3    H219378   0.695   3.808   3.638  0.1944 -0.3879 -0.0536
 6458TIP3   OH219379   5.969   4.480   0.631 -0.2140 -0.2595 -0.0086
 6458TIP3    H119380   5.895   4.523   0.674  0.3326  0.8420 -0.1447
 6458TIP3    H219381   5.932   4.399   0.597 -1.9370  1.2859 -2.0932
 6459TIP3   OH219382   5.484   4.771   3.054 -0.1471  0.6248  0.3419
 6459TIP3    H119383   5.407   4.714   3.063 -0.2604  0.9326  1.3982
 6459TIP3    H219384   5.462   4.827   2.979  0.1716 -0.9994 -1.0380
 6460TIP3   OH219385   2.805   4.562   2.664 -0.2041  0.2179  0.1593
 6460TIP3    H119386   2.782   4.555   2.756 -1.0430  0.0059 -0.0623
 6460TIP3    H219387   2.887   4.612   2.663  2.1369 -3.2496  1.3033
 6461TIP3   OH219388   2.938   4.225   2.351 -0.1245 -0.4467  0.4148
 6461TIP3    H119389   3.004   4.278   2.396 -0.2880 -0.1164  0.2784
 6461TIP3    H219390   2.926   4.148   2.405 -1.0992  0.4394  1.5056
 6462TIP3   OH219391   0.375   3.141   2.898 -0.3772 -0.0476  0.1973
 6462TIP3    H119392   0.335   3.140   2.985 -0.3500  1.2928  0.2489
 6462TIP3    H219393   0.306   3.172   2.840 -0.4644 -1.1527 -0.3225
 6463TIP3   OH219394   3.785   0.138   2.716 -0.0862 -0.0536  0.0456
 6463TIP3    H119395   3.835   0.071   2.670 -1.8992  0.3081 -2.7159
 6463TIP3    H219396   3.699   0.099   2.729 -1.1610  1.6343 -1.5819
 6464TIP3   OH219397   4.523   4.929   1.886  0.3372  0.3851  0.4076
 6464TIP3    H119398   4.559   4.914   1.973 -1.3341  3.1498  1.7143
 6464TIP3    H219399   4.534   5.023   1.871 -0.5215  0.1941 -1.8576
 6465TIP3   OH219400   1.320   5.828   2.292 -0.8628  0.1420  0.2648
 6465TIP3    H119401   1.375   5.819   2.214  0.8112  1.0848  1.2682
 6465TIP3    H219402   1.266   5.905   2.274 -0.4946  0.3509  0.0267
 6466TIP3   OH219403   0.641   4.533   4.113 -0.2541 -0.6814 -0.0805
 6466TIP3    H119404   0.568   4.522   4.173  0.0184  1.7906  0.8249
 6466TIP3    H219405   0.710   4.475   4.148 -0.1991  0.4804  1.8742
 6467TIP3   OH219406   4.754   5.873   2.172  0.3796 -0.0357  0.1992
 6467TIP3    H119407   4.682   5.847   2.116 -0.3769 -0.6877  1.4197
 6467TIP3    H219408   4.746   5.816   2.249  0.4979  1.7635  1.6237
 6468TIP3   OH219409   1.643   3.423   0.720 -0.2965  0.1106  0.1687
 6468TIP3    H119410   1.612   3.441   0.809  0.6931  0.2841  0.4923
 6468TIP3    H219411   1.579   3.362   0.684  0.1186 -1.2104  1.5690
 6469TIP3   OH219412   0.238   2.410   0.778  0.0882 -0.8490  0.7660
 6469TIP3    H119413   0.305   2.377   0.838  2.0895 -0.2886 -1.0319
 6469TIP3    H219414   0.270   2.495   0.749 -1.0920 -0.8280 -0.6367
 6470TIP3   OH219415   4.574   5.522   2.200  0.1290  0.1364 -0.0632
 6470TIP3    H119416   4.498   5.466   2.212 -0.7248  1.2271 -0.1781
 6470TIP3    H219417   4.612   5.494   2.116  0.0582 -0.6343  0.1557
 6471TIP3   OH219418   3.640   5.263   2.286  0.1323 -1.1208  0.0867
 6471TIP3    H119419   3.560   5.236   2.241 -0.6938 -1.1329  1.4946
 6471TIP3    H219420   3.689   5.181   2.299 -0.5835 -1.4276  0.9769
 6472TIP3   OH219421   2.230   2.609   4.598 -0.1467  0.2851 -0.1656
 6472TIP3    H119422   2.159   2.672   4.586  0.1424  0.5811 -0.3415
 6472TIP3    H219423   2.253   2.582   4.509 -0.5744 -0.4154 -0.0670
 6473TIP3   OH219424   3.304   3.809   4.267 -0.2858  1.0780 -0.0421
 6473TIP3    H119425   3.400   3.803   4.261 -0.1631  2.4852  0.1765
 6473TIP3    H219426   3.284   3.898   4.237 -1.3824  1.3857  1.5053
 6474TIP3   OH219427   2.923   0.650   1.058 -0.5224  0.8307  0.1874
 6474TIP3    H119428   2.941   0.699   1.138 -2.3770 -1.4471  2.1445
 6474TIP3    H219429   2.859   0.703   1.011 -1.5003  0.9422  1.6039
 6475TIP3   OH219430   6.102   5.111   0.491 -0.1645  0.4943 -0.1437
 6475TIP3    H119431   6.067   5.169   0.423 -0.1394  1.4434  0.6294
 6475TIP3    H219432   6.153   5.169   0.548 -0.6003 -0.1890  0.9695
 6476TIP3   OH219433   0.999   3.315   3.846 -0.2097  0.5403 -0.0428
 6476TIP3    H119434   1.086   3.313   3.887  0.8415 -1.1932 -2.1919
 6476TIP3    H219435   0.940   3.340   3.918  1.9067  0.8805  1.7046
 6477TIP3   OH219436   4.440   1.574   1.660 -0.1294  0.3761 -0.3488
 6477TIP3    H119437   4.414   1.663   1.682 -1.6156  0.5179 -2.3434
 6477TIP3    H219438   4.531   1.582   1.631 -0.0668  1.1328  0.0232
 6478TIP3   OH219439   0.280   1.128   3.402 -0.0974  0.3282  0.0293
 6478TIP3    H119440   0.343   1.193   3.434  0.8813 -1.1593  1.2884
 6478TIP3    H219441   0.295   1.052   3.457  0.0472 -1.6310 -2.5402
 6479TIP3   OH219442   2.097   0.682   4.655 -0.0353  0.5187 -0.8284
 6479TIP3    H119443   2.083   0.715   4.744  2.3511 -0.0595 -0.1531
 6479TIP3    H219444   2.022   0.625   4.638  0.7032 -1.4911  1.9070
 6480TIP3   OH219445   5.472   0.738   2.503 -0.0848  0.8269  1.0613
 6480TIP3    H119446   5.430   0.691   2.431  0.6149  2.0307 -0.1937
 6480TIP3    H219447   5.408   0.737   2.574 -0.8651 -0.2422  0.3703
 6481TIP3   OH219448   1.214   4.532   0.058  0.3324  0.3121  0.2467
 6481TIP3    H119449   1.266   4.452   0.047 -0.7134 -0.3782  0.1029
 6481TIP3    H219450   1.186   4.529   0.150 -1.6504 -0.7701 -0.3185
 6482TIP3   OH219451   6.240   0.157   5.097  0.0138 -0.2414 -0.0212
 6482TIP3    H119452   6.286   0.101   5.035  0.2836  2.5990 -2.6030
 6482TIP3    H219453   6.303   0.225   5.120 -0.4091 -0.6598  2.7516
 6483TIP3   OH219454   3.311   2.310   4.965  0.1770  0.0035  0.5888
 6483TIP3    H119455   3.312   2.397   5.005  0.4324 -0.5973  1.9126
 6483TIP3    H219456   3.221   2.279   4.978  0.0847  0.0632  0.1141
 6484TIP3   OH219457   1.704   5.407   2.689  0.2216  0.2264 -0.0458
 6484TIP3    H119458   1.688   5.447   2.604 -0.5111 -1.4049 -0.7196
 6484TIP3    H219459   1.617   5.399   2.729  0.6391  1.8301  1.3027
 6485TIP3   OH219460   4.707   0.615   1.595  0.9100  0.0202 -0.5128
 6485TIP3    H119461   4.716   0.532   1.642  0.2037 -0.3329 -0.9915
 6485TIP3    H219462   4.616   0.640   1.606  0.6945 -0.1329 -1.7816
 6486TIP3   OH219463   5.203   5.885   1.864 -0.3999  0.3468 -0.3320
 6486TIP3    H119464   5.151   5.953   1.907 -0.2126  1.2742 -1.5068
 6486TIP3    H219465   5.146   5.853   1.793 -0.2668 -0.3274 -0.1438
 6487TIP3   OH219466   6.229   2.587   2.122  0.1519 -0.0911 -0.0346
 6487TIP3    H119467   6.208   2.679   2.137  2.2551  0.4385 -0.0028
 6487TIP3    H219468   6.205   2.572   2.030  2.7741  1.4722 -1.0641
 6488TIP3   OH219469   2.335   2.431   1.361  0.2555 -0.1283  0.2431
 6488TIP3    H119470   2.424   2.398   1.375 -0.3873 -1.3114  1.8498
 6488TIP3    H219471   2.328   2.507   1.418  0.2991  0.0821 -0.0327
 6489TIP3   OH219472   1.167   0.037   0.127 -0.7105 -0.2267  0.0596
 6489TIP3    H119473   1.247   0.076   0.093 -0.5452 -1.0847 -0.5897
 6489TIP3    H219474   1.100   0.060   0.062 -0.1022 -3.1279 -1.7910
 6490TIP3   OH219475   3.971   3.708   1.877 -0.3385 -0.9268 -0.3255
 6490TIP3    H119476   3.982   3.777   1.942 -1.2850 -0.5550 -0.5429
 6490TIP3    H219477   3.935   3.634   1.927  0.0227 -1.0342 -0.2206
 6491TIP3   OH219478   2.272   2.563   1.607  0.5677 -0.0171 -0.3025
 6491TIP3    H119479   2.217   2.639   1.627 -0.1320 -0.5466 -0.1540
 6491TIP3    H219480   2.352   2.577   1.657 -0.1157 -0.0493  0.8550
 6492TIP3   OH219481   2.206   0.732   2.327  0.1063  0.0906  0.3844
 6492TIP3    H119482   2.278   0.724   2.265  0.6650 -0.3014  1.0757
 6492TIP3    H219483   2.241   0.788   2.397 -0.5248  0.5500  0.3433
 6493TIP3   OH219484   2.323   3.001   1.169  0.4203  0.0200 -0.2342
 6493TIP3    H119485   2.387   3.067   1.142 -0.3824  1.0226  0.2167
 6493TIP3    H219486   2.258   3.001   1.099  0.2384 -0.0381 -0.0654
 6494TIP3   OH219487   4.840   3.454   1.449 -0.3282  0.0885 -0.0185
 6494TIP3    H119488   4.824   3.513   1.376  0.7007  0.2558 -0.1216
 6494TIP3    H219489   4.913   3.493   1.497  1.0511 -1.5773 -0.6496
 6495TIP3   OH219490   2.497   5.058   2.613  0.1910 -0.1637 -0.0208
 6495TIP3    H119491   2.459   5.140   2.644 -2.4759 -1.7204  1.2707
 6495TIP3    H219492   2.522   5.012   2.694  2.6021 -0.2642 -0.7618
 6496TIP3   OH219493   4.213   4.228   4.139 -0.1983  0.4838 -0.0471
 6496TIP3    H119494   4.138   4.284   4.118  0.0737  1.4631  1.4654
 6496TIP3    H219495   4.257   4.273   4.212  0.9267 -0.9048  0.1653
 6497TIP3   OH219496   2.720   5.174   1.480 -0.3561  0.2396 -0.2313
 6497TIP3    H119497   2.782   5.148   1.412  0.6568  0.7797  0.4750
 6497TIP3    H219498   2.773   5.187   1.558 -1.2942  1.1802  0.2728
 6498TIP3   OH219499   2.598   0.659   0.420  0.0673  0.8413 -0.0367
 6498TIP3    H119500   2.562   0.662   0.332 -1.6641 -1.3227  0.5008
 6498TIP3    H219501   2.689   0.631   0.408 -0.6707 -1.3295 -1.1181
 6499TIP3   OH219502   1.290   1.286   0.964  0.0030 -0.2828  0.1300
 6499TIP3    H119503   1.355   1.216   0.956 -0.3171 -0.6800  0.8539
 6499TIP3    H219504   1.271   1.290   1.058 -0.9780 -0.1421 -0.0624
 6500TIP3   OH219505   5.758   0.674   4.707  0.0531  0.5348 -0.0506
 6500TIP3    H119506   5.768   0.695   4.615  1.6918  0.5406  0.0889
 6500TIP3    H219507   5.725   0.754   4.748 -2.1453  0.0762 -0.8296
 6501TIP3   OH219508   5.067   3.772   4.498  0.1695  0.4282 -0.5154
 6501TIP3    H119509   5.080   3.862   4.469  1.7762  0.2231 -0.5346
 6501TIP3    H219510   5.047   3.723   4.418 -0.4112  0.6990 -0.5427
 6502TIP3   OH219511   2.644   1.183   4.272 -0.1640 -0.0051 -0.0671
 6502TIP3    H119512   2.696   1.169   4.351 -0.2719  0.7614  0.1397
 6502TIP3    H219513   2.556   1.205   4.304 -0.1785  0.4229 -0.3995
 6503TIP3   OH219514   5.099   3.308   3.061 -0.1011  0.5125 -0.5083
 6503TIP3    H119515   5.052   3.386   3.031 -2.2317 -0.1920  0.7655
 6503TIP3    H219516   5.100   3.250   2.985 -0.6066  0.8584 -0.7881
 6504TIP3   OH219517   4.660   2.634   4.409  0.1575  0.0832 -0.1698
 6504TIP3    H119518   4.612   2.664   4.332 -1.6061  0.6896  1.0907
 6504TIP3    H219519   4.617   2.551   4.433  0.6907 -0.1009  0.1670
 6505TIP3   OH219520   0.510   0.488   2.807 -0.3812  0.3387 -0.3921
 6505TIP3    H119521   0.564   0.548   2.858 -1.3852 -0.0246  1.1921
 6505TIP3    H219522   0.435   0.540   2.779 -1.1206 -0.0459  0.7603
 6506TIP3   OH219523   4.803   1.048   0.416  0.3726  0.1252  0.2754
 6506TIP3    H119524   4.793   0.979   0.482  2.2953  0.3593  0.8730
 6506TIP3    H219525   4.857   1.114   0.459 -2.9520  3.0214  0.4119
 6507TIP3   OH219526   3.386   2.700   3.746  0.1603 -0.0502 -0.3534
 6507TIP3    H119527   3.357   2.611   3.726 -0.0973 -0.0647  0.0822
 6507TIP3    H219528   3.481   2.692   3.755 -0.1101 -1.0607  3.3389
 6508TIP3   OH219529   1.815   0.501   3.957 -0.3904 -0.5277 -0.8357
 6508TIP3    H119530   1.884   0.562   3.931  1.0686 -1.5540  0.4378
 6508TIP3    H219531   1.804   0.443   3.882 -1.3278  0.8350 -1.8049
 6509TIP3   OH219532   1.960   1.389   4.370  0.3533 -0.9664 -0.3979
 6509TIP3    H119533   1.912   1.423   4.445  1.6826 -0.8077  0.4237
 6509TIP3    H219534   1.939   1.448   4.298 -1.7433 -1.7069 -0.4405
 6510TIP3   OH219535   1.934   5.019   2.999  0.3348 -0.3365 -0.6451
 6510TIP3    H119536   2.028   5.038   2.991  0.3297 -0.7201 -1.9433
 6510TIP3    H219537   1.929   4.923   3.000 -0.0792 -0.3343 -1.3964
 6511TIP3   OH219538   3.696   5.877   0.502  0.0511 -0.2415  0.0360
 6511TIP3    H119539   3.614   5.861   0.456  0.1355  0.1596 -0.2612
 6511TIP3    H219540   3.681   5.957   0.552  0.5676  0.3777 -0.7766
 6512TIP3   OH219541   4.568   2.712   3.128 -0.0318 -0.5444 -0.1635
 6512TIP3    H119542   4.661   2.688   3.135  0.3593  1.0386  0.6741
 6512TIP3    H219543   4.566   2.804   3.154 -2.0079 -0.8589  0.9607
 6513TIP3   OH219544   5.338   2.578   2.078  0.0932  0.3699  0.4966
 6513TIP3    H119545   5.296   2.659   2.105 -0.5814 -0.5935  2.4385
 6513TIP3    H219546   5.271   2.532   2.028 -1.0965 -0.9311  3.1485
 6514TIP3   OH219547   6.237   5.183   2.958 -0.1800  0.7994  0.5431
 6514TIP3    H119548   6.233   5.265   3.007 -0.8973  0.7090  0.6462
 6514TIP3    H219549   6.217   5.207   2.868  0.2175  0.8225  0.4557
 6515TIP3   OH219550   4.260   1.940   4.829  0.2571  0.1677 -0.4994
 6515TIP3    H119551   4.322   1.871   4.803 -0.4586 -0.0000 -1.9036
 6515TIP3    H219552   4.227   1.912   4.914  0.3915 -0.9517 -0.7994
 6516TIP3   OH219553   3.610   5.888   1.374  0.3480  0.3445 -0.0464
 6516TIP3    H119554   3.602   5.855   1.284  3.1386 -0.4185 -0.1058
 6516TIP3    H219555   3.642   5.978   1.363  1.2734  0.0512  0.1507
 6517TIP3   OH219556   5.364   5.314   1.344  0.3150 -0.0777  0.0566
 6517TIP3    H119557   5.296   5.348   1.402  0.3302  0.3217 -0.1563
 6517TIP3    H219558   5.386   5.388   1.287  3.0493  0.7361  2.0171
 6518TIP3   OH219559   4.709   3.604   0.504 -0.8914 -0.1532  0.3268
 6518TIP3    H119560   4.671   3.679   0.549 -3.3732 -0.7490 -0.6203
 6518TIP3    H219561   4.718   3.633   0.413  0.0450 -0.3576  0.3469
 6519TIP3   OH219562   0.919   5.011   1.114  0.8622  0.3592 -0.3748
 6519TIP3    H119563   0.954   4.939   1.166 -0.3390 -0.7416 -1.0545
 6519TIP3    H219564   0.827   5.016   1.138  0.9730  1.9021 -0.1103
 6520TIP3   OH219565   5.284   3.072   1.601 -0.2340 -0.4866  0.2825
 6520TIP3    H119566   5.335   3.037   1.674 -2.0516 -2.6660  0.6250
 6520TIP3    H219567   5.345   3.073   1.527  1.1436  0.0450  1.3701
 6521TIP3   OH219568   1.524   3.820   4.928 -0.0889  0.0289 -0.0619
 6521TIP3    H119569   1.596   3.760   4.950  0.1086  0.2920  0.0309
 6521TIP3    H219570   1.566   3.889   4.877 -0.8608 -1.5410 -3.0669
 6522TIP3   OH219571   3.310   2.573   0.016  0.2506  0.3058 -0.1939
 6522TIP3    H119572   3.303   2.498   0.074  0.7152 -0.5526 -1.2019
 6522TIP3    H219573   3.317   2.649   0.074 -0.0066 -0.4506  0.8412
 6523TIP3   OH219574   4.073   5.018   2.536 -0.0680 -0.1592 -0.0946
 6523TIP3    H119575   4.151   4.991   2.585  0.1508 -2.6742 -1.6168
 6523TIP3    H219576   4.008   4.951   2.556 -1.4289  1.1732  0.1003
 6524TIP3   OH219577   3.549   0.087   2.173  0.6268 -0.2478  0.5412
 6524TIP3    H119578   3.494   0.162   2.195  0.9521  0.4339 -0.8568
 6524TIP3    H219579   3.517   0.058   2.088  1.6290 -0.6046  0.2709
 6525TIP3   OH219580   5.541   3.405   1.626  0.0445 -0.3390 -0.0814
 6525TIP3    H119581   5.572   3.316   1.608  0.3787  0.3186 -3.2551
 6525TIP3    H219582   5.445   3.398   1.624  0.0528 -0.3260 -2.4684
 6526TIP3   OH219583   1.764   3.495   4.879 -0.0280  0.0396  0.5337
 6526TIP3    H119584   1.673   3.482   4.855 -0.2635 -2.5021  2.3454
 6526TIP3    H219585   1.805   3.410   4.865  1.6228  0.6329  1.4492
 6527TIP3   OH219586   3.871   4.165   2.400  0.0555  0.0153  0.1630
 6527TIP3    H119587   3.853   4.100   2.468 -1.3436  0.3201  0.1055
 6527TIP3    H219588   3.869   4.249   2.445  2.3703  0.0355  0.3337
 6528TIP3   OH219589   0.083   5.576   2.671 -0.5656 -0.1205 -0.0623
 6528TIP3    H119590   0.001   5.585   2.721 -0.1514  0.3023  0.5554
 6528TIP3    H219591   0.101   5.665   2.639  0.0126 -0.0625  0.3975
 6529TIP3   OH219592   4.146   0.254   1.002 -0.8842 -0.6168 -0.1069
 6529TIP3    H119593   4.143   0.250   0.906  1.3920  0.2896 -0.2697
 6529TIP3    H219594   4.179   0.167   1.028 -0.6678 -0.5700 -0.2180
 6530TIP3   OH219595   2.948   2.497   4.778 -0.7641 -0.4876  0.0922
 6530TIP3    H119596   3.013   2.463   4.716 -0.6926  0.9644 -0.6557
 6530TIP3    H219597   2.965   2.449   4.859 -1.4724 -3.1552 -1.2081
 6531TIP3   OH219598   4.201   0.707   1.014 -0.5715  0.2551 -0.2503
 6531TIP3    H119599   4.174   0.793   1.045  0.9680  1.2081 -1.4290
 6531TIP3    H219600   4.193   0.712   0.919 -0.4870 -0.9203 -0.3349
 6532TIP3   OH219601   4.397   0.266   4.560  0.0930 -0.2728  0.9526
 6532TIP3    H119602   4.431   0.347   4.523  1.3208 -1.5523 -0.9225
 6532TIP3    H219603   4.313   0.253   4.516 -0.7243  0.5847  2.2044
 6533TIP3   OH219604   4.891   0.537   5.080 -0.2404  0.3974  0.3830
 6533TIP3    H119605   4.950   0.570   5.013 -0.3721  1.9654  0.9993
 6533TIP3    H219606   4.808   0.525   5.034 -0.4195  1.7766  0.2873
 6534TIP3   OH219607   3.324   5.413   4.426  0.4024  0.6641 -0.1058
 6534TIP3    H119608   3.271   5.430   4.348  0.7821  0.0303 -0.5152
 6534TIP3    H219609   3.283   5.337   4.467 -0.2426  1.4578  0.7343
 6535TIP3   OH219610   5.142   4.879   2.570  0.0101 -0.5853  0.8242
 6535TIP3    H119611   5.080   4.886   2.498  1.4433  0.2015 -0.3985
 6535TIP3    H219612   5.093   4.837   2.640 -1.5435 -1.0386 -0.4754
 6536TIP3   OH219613   1.909   4.213   4.742 -0.2818 -0.3746  0.3975
 6536TIP3    H119614   1.952   4.290   4.779 -0.8906  0.9943 -1.5850
 6536TIP3    H219615   1.821   4.214   4.780 -0.8362  0.9062 -0.8262
 6537TIP3   OH219616   1.148   5.637   4.637 -0.0970 -0.0303 -0.9281
 6537TIP3    H119617   1.079   5.570   4.641 -0.6113  0.5239  3.0974
 6537TIP3    H219618   1.230   5.588   4.647 -0.5152 -0.2321  2.9902
 6538TIP3   OH219619   2.529   1.032   4.547 -0.1799 -0.1389 -0.0615
 6538TIP3    H119620   2.575   0.966   4.600 -1.5839 -1.3656 -0.3051
 6538TIP3    H219621   2.457   0.984   4.506 -0.0808  1.1220 -1.8523
 6539TIP3   OH219622   0.173   2.554   2.443  0.1572  0.9755  0.2453
 6539TIP3    H119623   0.155   2.545   2.536 -0.3047  1.6725  0.2311
 6539TIP3    H219624   0.088   2.570   2.403  0.2795  0.1730 -0.3701
 6540TIP3   OH219625   5.955   3.806   1.668 -0.0005  0.0041  0.8669
 6540TIP3    H119626   6.019   3.788   1.737 -0.7528  0.6120  1.7638
 6540TIP3    H219627   5.971   3.897   1.643  1.7474 -0.8512 -1.4187
 6541TIP3   OH219628   2.153   1.423   1.788  0.3680 -0.3693 -0.1668
 6541TIP3    H119629   2.236   1.468   1.799 -0.1579  0.7208 -0.4872
 6541TIP3    H219630   2.176   1.339   1.747  1.3050 -0.1018 -0.2117
 6542TIP3   OH219631   0.416   5.664   3.701 -0.7626 -0.5241  0.1414
 6542TIP3    H119632   0.432   5.702   3.614  1.9046 -1.0467  0.3090
 6542TIP3    H219633   0.386   5.575   3.683 -0.4266 -0.5632 -0.2469
 6543TIP3   OH219634   3.009   4.652   1.612 -0.0785 -0.6123 -0.7013
 6543TIP3    H119635   3.087   4.617   1.568  0.5340 -1.0643  0.6943
 6543TIP3    H219636   2.987   4.586   1.678 -1.1069 -0.0553 -0.4658
 6544TIP3   OH219637   1.961   0.792   0.531 -0.0625 -0.1761  0.0828
 6544TIP3    H119638   2.035   0.734   0.513 -0.0217  0.0666 -0.5827
 6544TIP3    H219639   1.997   0.881   0.526 -0.5885 -0.0039 -1.3657
 6545TIP3   OH219640   4.862   4.300   4.344 -0.2337  0.0429 -0.3208
 6545TIP3    H119641   4.924   4.297   4.417  0.4618  1.3823 -0.8140
 6545TIP3    H219642   4.893   4.232   4.284 -0.0218 -0.1780  0.0339
 6546TIP3   OH219643   5.242   4.572   3.558 -0.6483  0.1876  0.1844
 6546TIP3    H119644   5.229   4.496   3.615 -0.3328 -0.3139 -0.4099
 6546TIP3    H219645   5.309   4.624   3.602  0.4939 -0.8106 -0.3195
 6547TIP3   OH219646   4.049   2.939   2.340 -0.0180  0.3758  0.3841
 6547TIP3    H119647   4.116   2.896   2.393 -1.1812 -1.6404  0.3005
 6547TIP3    H219648   4.038   3.025   2.381  0.8773 -0.1797  1.8752
 6548TIP3   OH219649   4.361   4.894   1.386 -0.2341  0.2338  0.1730
 6548TIP3    H119650   4.339   4.985   1.404 -0.0732  0.3325 -0.1448
 6548TIP3    H219651   4.311   4.871   1.308  0.3517  0.2896 -0.2219
 6549TIP3   OH219652   0.833   1.864   4.958  0.4855 -0.1740  0.1941
 6549TIP3    H119653   0.863   1.899   4.874 -1.0840 -0.6338 -0.6017
 6549TIP3    H219654   0.914   1.842   5.005  1.4293  1.2329 -0.6727
 6550TIP3   OH219655   3.250   5.379   3.034  0.4225  0.3503 -0.0999
 6550TIP3    H119656   3.327   5.434   3.016  1.0729 -0.5450 -0.1242
 6550TIP3    H219657   3.184   5.441   3.065 -0.1624  1.7363 -3.6877
 6551TIP3   OH219658   1.502   5.315   1.893 -0.1071 -0.1407 -0.1263
 6551TIP3    H119659   1.407   5.308   1.900  0.0307 -0.8375  1.4801
 6551TIP3    H219660   1.532   5.224   1.881  0.5291 -0.4252  2.7915
 6552TIP3   OH219661   1.359   0.895   4.573  0.0583  0.1106 -0.4409
 6552TIP3    H119662   1.345   0.808   4.536  0.4849 -0.7842  1.3732
 6552TIP3    H219663   1.286   0.908   4.633  1.0492  0.1179  0.8063
 6553TIP3   OH219664   1.196   2.569   0.216  0.3342  0.0463  0.3067
 6553TIP3    H119665   1.175   2.657   0.185  0.8149  0.4180  1.0146
 6553TIP3    H219666   1.289   2.558   0.199  0.1745 -0.5216 -0.2329
 6554TIP3   OH219667   1.525   5.618   4.793 -0.0018  0.3586  0.5908
 6554TIP3    H119668   1.499   5.528   4.773 -1.2773  0.9366 -0.4604
 6554TIP3    H219669   1.559   5.613   4.882 -1.6944 -0.8651  1.2203
 6555TIP3   OH219670   0.206   3.886   3.994 -0.0772  0.4670 -0.0367
 6555TIP3    H119671   0.166   3.915   3.912  1.0391  0.2783 -0.6673
 6555TIP3    H219672   0.258   3.961   4.023  2.7305 -0.6783 -1.6139
 6556TIP3   OH219673   3.367   0.075   0.083  0.6917  0.0055 -0.6318
 6556TIP3    H119674   3.307   0.036   0.147  1.5943 -1.3105 -0.5312
 6556TIP3    H219675   3.364   0.015   0.008  0.6402  0.8151 -1.2905
 6557TIP3   OH219676   5.211   0.609   0.532  0.2211  0.4299 -0.2772
 6557TIP3    H119677   5.171   0.685   0.489  0.0717  1.1283  1.0605
 6557TIP3    H219678   5.150   0.538   0.516  0.1307  0.6832 -1.1405
 6558TIP3   OH219679   0.992   3.021   0.707  0.5799 -0.0542 -0.2617
 6558TIP3    H119680   0.995   3.116   0.722  0.2010 -0.0931  0.0756
 6558TIP3    H219681   0.957   3.012   0.619  1.7472  0.1475 -0.7676
 6559TIP3   OH219682   1.278   0.707   3.281 -0.3320 -0.1491 -0.2116
 6559TIP3    H119683   1.287   0.799   3.255  0.3276 -0.3983 -0.9089
 6559TIP3    H219684   1.321   0.702   3.366 -0.5533  0.2290 -0.0743
 6560TIP3   OH219685   0.071   5.182   2.328  0.1810 -0.0469  0.2087
 6560TIP3    H119686   0.162   5.183   2.299  0.6537 -1.5273  1.4794
 6560TIP3    H219687   0.062   5.262   2.380  0.8360  0.0130  0.2465
 6561TIP3   OH219688   2.937   5.318   0.200 -0.3125 -0.0221  0.4390
 6561TIP3    H119689   2.863   5.378   0.204  0.9304  1.5832  0.1367
 6561TIP3    H219690   2.907   5.247   0.143 -1.4859  0.7966  0.0095
 6562TIP3   OH219691   1.117   4.459   0.309  0.4382 -0.2755 -0.6183
 6562TIP3    H119692   1.143   4.470   0.400 -0.9106 -0.8660 -0.1260
 6562TIP3    H219693   1.025   4.486   0.307  0.0066 -1.6807 -1.4683
 6563TIP3   OH219694   5.830   0.514   4.948 -0.2941  0.8433  0.2396
 6563TIP3    H119695   5.868   0.434   4.913 -0.9473  0.6044  0.0661
 6563TIP3    H219696   5.821   0.572   4.872  1.8704  1.8109  0.6229
 6564TIP3   OH219697   4.355   2.516   0.589 -0.0613  0.0817 -0.5267
 6564TIP3    H119698   4.401   2.449   0.640 -0.8163 -0.7541 -0.9112
 6564TIP3    H219699   4.292   2.467   0.536 -1.0743  1.1559 -0.3555
 6565TIP3   OH219700   5.827   1.358  -0.008 -0.6580  0.1653  0.4116
 6565TIP3    H119701   5.911   1.345   0.036 -1.2410 -0.2162  1.4269
 6565TIP3    H219702   5.781   1.275   0.004 -1.4990  0.6493  0.5450
 6566TIP3   OH219703   4.113   3.125   1.779  0.3349 -0.1068  0.0454
 6566TIP3    H119704   4.042   3.187   1.799  1.4949  0.4225  3.0864
 6566TIP3    H219705   4.173   3.175   1.724 -0.3532  0.3177 -0.3418
 6567TIP3   OH219706   3.607   0.368   3.210  0.0479 -0.1449  0.1287
 6567TIP3    H119707   3.672   0.298   3.209 -1.8812 -2.0423  0.7150
 6567TIP3    H219708   3.659   0.448   3.220  2.3806 -1.3792 -1.2020
 6568TIP3   OH219709   0.818   3.700   0.876 -0.0536  0.0349  0.6238
 6568TIP3    H119710   0.797   3.701   0.782 -0.9104 -0.7004  0.7899
 6568TIP3    H219711   0.909   3.671   0.880 -0.2428 -0.6583  0.0462
 6569TIP3   OH219712   6.271   1.299   1.969 -0.2747 -0.1275 -0.1241
 6569TIP3    H119713   6.363   1.293   1.995 -0.2038  1.9131  0.3327
 6569TIP3    H219714   6.241   1.381   2.009 -2.3432 -0.8221 -0.1494
 6570TIP3   OH219715   6.135   0.402   3.137 -0.1939 -0.6909 -0.4172
 6570TIP3    H119716   6.167   0.452   3.212  1.8247 -1.2769 -0.8328
 6570TIP3    H219717   6.080   0.464   3.089 -1.6215 -0.3458  1.5668
 6571TIP3   OH219718   4.118   4.820   3.112 -0.1078 -0.3388  0.7940
 6571TIP3    H119719   4.032   4.840   3.149 -0.1998 -1.2753  1.1045
 6571TIP3    H219720   4.136   4.893   3.053  0.2331  1.4725  2.9850
 6572TIP3   OH219721   5.784   3.411   4.269  0.0597 -0.0600  0.2018
 6572TIP3    H119722   5.753   3.345   4.207  1.0455 -1.7534  1.4290
 6572TIP3    H219723   5.762   3.376   4.355  1.1870  0.9127  0.9216
 6573TIP3   OH219724   3.743   2.953   0.749  0.0973  0.6320  0.1783
 6573TIP3    H119725   3.771   3.015   0.681 -0.3413  1.2008  0.4968
 6573TIP3    H219726   3.679   2.897   0.705 -1.5697  2.1498  0.5268
 6574TIP3   OH219727   2.759   2.898   1.376 -0.1297 -0.1900 -0.4513
 6574TIP3    H119728   2.799   2.978   1.341 -0.1865  0.3604  0.7023
 6574TIP3    H219729   2.669   2.900   1.342 -0.0878  0.1671 -0.5523
 6575TIP3   OH219730   0.454   0.566   0.540  0.2103  0.2552  0.4079
 6575TIP3    H119731   0.425   0.657   0.541  1.5398  0.7256 -0.6340
 6575TIP3    H219732   0.503   0.556   0.622  0.5955  0.6708  0.2334
 6576TIP3   OH219733   3.383   5.653   5.119  0.2748 -0.0450  0.2838
 6576TIP3    H119734   3.323   5.631   5.048  0.5834  0.3187 -0.0877
 6576TIP3    H219735   3.420   5.569   5.146 -0.0484 -0.2152  0.2041
 6577TIP3   OH219736   2.598   5.484   0.764  0.0986  0.0145 -0.1114
 6577TIP3    H119737   2.688   5.495   0.794  0.0978  1.4651 -0.5635
 6577TIP3    H219738   2.603   5.411   0.701  0.2542 -2.4188  2.5302
 6578TIP3   OH219739   3.634   4.394   3.674 -0.4245  0.6647  0.1662
 6578TIP3    H119740   3.549   4.363   3.644 -0.5984  0.2750  1.0352
 6578TIP3    H219741   3.686   4.403   3.594 -1.2111  0.7002 -0.3457
 6579TIP3   OH219742   1.672   3.868   1.858 -0.0678  0.0435  0.2042
 6579TIP3    H119743   1.589   3.864   1.810 -0.7607 -2.0082  1.4510
 6579TIP3    H219744   1.653   3.827   1.942  1.7865  1.1544  1.2370
 6580TIP3   OH219745   5.618   4.924   3.937 -0.2632  0.0422  0.5686
 6580TIP3    H119746   5.579   4.878   3.864  0.4535 -0.3609  0.4262
 6580TIP3    H219747   5.544   4.958   3.987 -0.7647 -0.0698 -0.0876
 6581TIP3   OH219748   3.427   1.907   4.569  0.5531  0.1846 -0.3269
 6581TIP3    H119749   3.504   1.881   4.620  0.6354  1.6054  0.3223
 6581TIP3    H219750   3.418   1.840   4.502  0.8635 -1.3817  1.1328
 6582TIP3   OH219751   2.473   1.018   1.994  0.1481 -0.0476 -0.1169
 6582TIP3    H119752   2.449   1.092   2.050 -0.6394  0.5706 -1.2366
 6582TIP3    H219753   2.497   1.058   1.911 -0.4200 -1.0624 -0.7806
 6583TIP3   OH219754   4.655   3.893   4.724  0.0577 -0.4486 -0.2071
 6583TIP3    H119755   4.572   3.907   4.678  0.7638 -0.9673 -1.7116
 6583TIP3    H219756   4.718   3.947   4.676  0.3252  1.3052  1.9580
 6584TIP3   OH219757   3.248   0.895   3.204  0.3865 -0.3886 -0.4864
 6584TIP3    H119758   3.273   0.933   3.120 -1.6945  1.0803 -0.5084
 6584TIP3    H219759   3.252   0.968   3.266 -1.3953 -0.6404 -0.0265
 6585TIP3   OH219760   4.027   3.699   3.427  0.1421 -0.4396 -0.3512
 6585TIP3    H119761   4.005   3.632   3.362  1.9815 -0.6692 -0.8187
 6585TIP3    H219762   4.101   3.746   3.388  0.1187  0.6193  0.8089
 6586TIP3   OH219763   5.454   5.330   4.188 -0.6327 -0.1258  0.1705
 6586TIP3    H119764   5.391   5.315   4.259 -1.3667  0.5824 -0.3300
 6586TIP3    H219765   5.535   5.289   4.220 -0.6174  1.1852  1.9228
 6587TIP3   OH219766   1.286   5.035   1.729 -0.1703  0.3653  0.6573
 6587TIP3    H119767   1.285   5.102   1.797  0.0942  0.4837  0.5459
 6587TIP3    H219768   1.197   4.999   1.729 -0.8399  1.9058 -0.4886
 6588TIP3   OH219769   3.146   1.770   1.042 -0.5066  0.4610  0.4955
 6588TIP3    H119770   3.065   1.821   1.040 -1.0467 -0.2675  2.2588
 6588TIP3    H219771   3.126   1.696   1.099  1.4600  0.3781  1.1346
 6589TIP3   OH219772   4.793   0.627   3.515 -0.4244 -0.2617 -0.0070
 6589TIP3    H119773   4.715   0.572   3.503  0.9729 -2.0135 -1.5457
 6589TIP3    H219774   4.767   0.712   3.481 -1.5300 -0.9328 -0.9361
 6590TIP3   OH219775   4.082   1.580   2.709  0.0180 -0.4764  0.2726
 6590TIP3    H119776   3.994   1.561   2.676 -0.5314 -0.1152  1.4724
 6590TIP3    H219777   4.091   1.525   2.787  1.7308 -2.1960 -1.0285
 6591TIP3   OH219778   1.960   5.863   2.872  0.0708  0.1607  0.2022
 6591TIP3    H119779   2.025   5.912   2.921  0.4254 -0.4596  0.3598
 6591TIP3    H219780   1.920   5.804   2.936  0.4786 -0.5951 -0.2281
 6592TIP3   OH219781   2.102   2.297   0.236  0.6167  0.1034 -0.1971
 6592TIP3    H119782   2.021   2.280   0.283 -0.1789  1.1054 -1.1485
 6592TIP3    H219783   2.171   2.272   0.297 -0.3974 -0.0914  0.9026
 6593TIP3   OH219784   4.019   1.078   0.440  0.2050 -0.4341 -0.2239
 6593TIP3    H119785   4.003   1.140   0.511  0.1396  0.9161 -1.3658
 6593TIP3    H219786   4.115   1.072   0.435  0.2625  1.0299 -1.2866
 6594TIP3   OH219787   2.488   0.415   4.469 -0.3817 -0.3870  0.6039
 6594TIP3    H119788   2.451   0.396   4.383 -0.9346  0.1181  0.7273
 6594TIP3    H219789   2.480   0.333   4.518  0.2682 -0.7880  0.0666
 6595TIP3   OH219790   4.834   5.354   3.181 -0.1029  0.0260  0.4532
 6595TIP3    H119791   4.897   5.405   3.232  0.4656 -2.0578  2.0122
 6595TIP3    H219792   4.887   5.291   3.133 -0.7298  1.2463 -2.0134
 6596TIP3   OH219793   4.815   3.155   3.150  0.6274 -0.3684  0.2630
 6596TIP3    H119794   4.720   3.152   3.146  0.6606 -0.6953 -1.0976
 6596TIP3    H219795   4.836   3.231   3.204 -0.4013 -0.1155  0.3144
 6597TIP3   OH219796   2.474   2.347   3.476  0.2550  0.0103  0.1097
 6597TIP3    H119797   2.560   2.317   3.505  0.0742 -1.4304 -0.7541
 6597TIP3    H219798   2.473   2.330   3.381 -1.4505 -1.2830  0.3075
 6598TIP3   OH219799   1.645   2.505   1.868 -0.2599  0.1999  0.2228
 6598TIP3    H119800   1.667   2.414   1.890 -0.5683  0.2359  0.6967
 6598TIP3    H219801   1.651   2.508   1.772  2.9584  0.5101  0.3367
 6599TIP3   OH219802   3.443   1.854   3.543  0.6725  0.4802  0.5937
 6599TIP3    H119803   3.350   1.856   3.566  0.7148  0.6630  0.7472
 6599TIP3    H219804   3.480   1.931   3.585  1.3757 -0.8646  2.5939
 6600TIP3   OH219805   4.742   1.077   4.709  0.2708 -0.3847  0.6649
 6600TIP3    H119806   4.664   1.089   4.654  1.2735  0.6838 -0.6006
 6600TIP3    H219807   4.708   1.073   4.798 -1.1022  2.6336  0.4265
 6601TIP3   OH219808   5.526   2.262   0.353  0.3962  0.3656 -0.0273
 6601TIP3    H119809   5.610   2.274   0.310  0.2792  0.5370 -0.2106
 6601TIP3    H219810   5.546   2.262   0.446  0.3869  2.2145  0.0154
 6602TIP3   OH219811   2.541   3.245   3.746 -0.0702 -0.4493 -0.2241
 6602TIP3    H119812   2.459   3.248   3.697 -0.6756  0.8096  0.8071
 6602TIP3    H219813   2.602   3.296   3.693 -0.9832  1.7484  0.6826
 6603TIP3   OH219814   3.499   3.925   3.572 -0.8574  0.2816  0.0869
 6603TIP3    H119815   3.466   3.924   3.482 -1.2808  0.4529  0.2380
 6603TIP3    H219816   3.571   3.988   3.571 -0.3493 -0.2939 -0.3091
 6604TIP3   OH219817   1.550   2.989   1.518  0.1937 -0.2577 -0.2781
 6604TIP3    H119818   1.459   2.998   1.546  0.9041  1.1693  1.8414
 6604TIP3    H219819   1.560   3.055   1.449 -0.0086  0.6903  0.5790
 6605TIP3   OH219820   4.681   4.075   0.688  0.3786  0.2702  0.2867
 6605TIP3    H119821   4.760   4.058   0.739 -0.1018 -2.3017  0.3106
 6605TIP3    H219822   4.611   4.082   0.754  0.5398  2.8032  0.2885
 6606TIP3   OH219823   5.543   0.122   3.318 -0.1373 -0.7859 -0.2870
 6606TIP3    H119824   5.635   0.098   3.309  0.6495  1.7192  0.2158
 6606TIP3    H219825   5.501   0.086   3.240  1.0781 -2.6287 -0.1507
 6607TIP3   OH219826   2.415   3.236   0.454 -0.1646  0.0019 -0.2572
 6607TIP3    H119827   2.336   3.285   0.432  0.8152  2.3166  1.0409
 6607TIP3    H219828   2.411   3.225   0.549  0.8358 -0.2916 -0.2326
 6608TIP3   OH219829   3.159   5.664   3.588  0.0560 -0.0825 -0.1405
 6608TIP3    H119830   3.147   5.635   3.679 -2.1765 -2.0932 -0.9432
 6608TIP3    H219831   3.070   5.688   3.559  1.0675  2.9752 -1.1225
 6609TIP3   OH219832   1.097   1.714   1.076  0.0782  0.0350 -0.0020
 6609TIP3    H119833   1.112   1.739   1.167  1.4516  0.3103 -0.2847
 6609TIP3    H219834   1.074   1.796   1.032  0.6187  0.1182 -0.1361
 6610TIP3   OH219835   3.183   1.312   2.513  0.0806 -0.0260 -0.2177
 6610TIP3    H119836   3.165   1.233   2.462  0.4205  0.4145 -1.0381
 6610TIP3    H219837   3.279   1.321   2.511  0.0266  0.5658 -0.3856
 6611TIP3   OH219838   2.331   3.710   2.180 -0.1638  0.3221 -0.4287
 6611TIP3    H119839   2.345   3.776   2.249 -1.1498  0.5090 -0.3912
 6611TIP3    H219840   2.362   3.752   2.100  0.9112  0.1365 -0.1269
 6612TIP3   OH219841   2.925   3.900   0.172  0.0721 -0.1813  0.1143
 6612TIP3    H119842   2.970   3.973   0.213  0.8205 -0.7609  0.3527
 6612TIP3    H219843   2.832   3.918   0.187  0.0013  2.3589 -2.6134
 6613TIP3   OH219844   1.552   5.910   3.014  0.3957 -0.5846 -0.3015
 6613TIP3    H119845   1.506   5.836   3.053 -0.8874  0.4773  0.3075
 6613TIP3    H219846   1.641   5.905   3.048  0.4707 -2.0994 -0.6599
 6614TIP3   OH219847   1.896   2.089   2.784  0.5593 -0.2678  0.3296
 6614TIP3    H119848   1.961   2.152   2.814 -0.3797  0.3395  1.1358
 6614TIP3    H219849   1.839   2.139   2.725  0.5735 -0.7018 -0.0645
 6615TIP3   OH219850   1.523   0.052   0.941  0.3990  0.1643  0.0171
 6615TIP3    H119851   1.529   0.068   0.847  1.1828 -0.3521 -0.0361
 6615TIP3    H219852   1.457  -0.016   0.950  1.4291 -0.9213 -0.3268
 6616TIP3   OH219853   6.360   3.538   0.186  0.3111 -0.0107 -0.3787
 6616TIP3    H119854   6.302   3.525   0.111 -2.5503 -0.3935  1.7736
 6616TIP3    H219855   6.360   3.455   0.232 -0.0999  0.9593  1.4540
 6617TIP3   OH219856   0.068   0.225   3.663  0.1789  0.4069 -0.4250
 6617TIP3    H119857   0.028   0.311   3.671 -2.1374 -0.5323 -1.2219
 6617TIP3    H219858   0.052   0.182   3.747  0.9140  0.5596 -0.1973
 6618TIP3   OH219859   5.667   2.287   3.008 -0.6768 -0.2095 -0.3483
 6618TIP3    H119860   5.617   2.368   2.997 -0.0868  0.2056  0.0264
 6618TIP3    H219861   5.730   2.288   2.936 -0.2656 -0.0416  0.0176
 6619TIP3   OH219862   3.589   0.341   3.965 -0.1226  0.1060  0.2210
 6619TIP3    H119863   3.541   0.368   4.044  0.6382 -0.3695  0.8548
 6619TIP3    H219864   3.535   0.271   3.928 -1.2533  1.3293 -0.5255
 6620TIP3   OH219865   4.987   3.273   2.164  0.2308 -0.1449  0.2852
 6620TIP3    H119866   4.926   3.306   2.097 -2.4492 -0.4717  2.4050
 6620TIP3    H219867   5.045   3.347   2.181 -0.0136  0.4507 -1.2669
 6621TIP3   OH219868   1.663   4.166   1.535 -0.2850  0.3367 -0.1691
 6621TIP3    H119869   1.604   4.196   1.604 -0.6884  0.1783 -0.4426
 6621TIP3    H219870   1.746   4.150   1.579 -0.3722  0.8087  0.1750
 6622TIP3   OH219871   3.534   2.846   3.393  0.1017 -0.3828  0.2523
 6622TIP3    H119872   3.568   2.842   3.482 -0.4519 -1.6654  0.4232
 6622TIP3    H219873   3.612   2.843   3.337  0.5106  1.2891  0.6710
 6623TIP3   OH219874   1.161   4.667   1.436  0.2559  0.3263 -0.1224
 6623TIP3    H119875   1.128   4.729   1.500  0.9396 -0.1300  0.6852
 6623TIP3    H219876   1.130   4.700   1.352 -1.2571  0.5389  0.4974
 6624TIP3   OH219877   4.797   3.124   4.643 -0.3023 -0.4327 -0.3081
 6624TIP3    H119878   4.855   3.184   4.597 -0.2059 -0.3743 -0.1090
 6624TIP3    H219879   4.780   3.166   4.727 -1.9672  0.3618 -1.0008
 6625TIP3   OH219880   4.738   2.098   3.516  0.0624  0.0468  0.3462
 6625TIP3    H119881   4.825   2.136   3.529 -0.4656  1.8930 -0.9490
 6625TIP3    H219882   4.682   2.147   3.576 -0.4520  0.6215 -0.5735
 6626TIP3   OH219883   1.846   5.505   0.847 -0.0763  0.1713  0.2398
 6626TIP3    H119884   1.801   5.582   0.884 -0.7972 -0.1485  0.0463
 6626TIP3    H219885   1.875   5.534   0.760 -1.6881 -0.2121 -0.4731
 6627TIP3   OH219886   5.509   5.730   3.577 -0.2337  0.2381 -0.0439
 6627TIP3    H119887   5.429   5.780   3.590 -0.8531 -0.1007 -2.2821
 6627TIP3    H219888   5.510   5.668   3.650  0.0959  2.7759  2.3090
 6628TIP3   OH219889   0.075   0.386   5.122 -0.2420 -0.0117  0.1949
 6628TIP3    H119890   0.115   0.356   5.204 -1.4062 -2.5828 -0.0922
 6628TIP3    H219891   0.145   0.377   5.057  0.3451  0.9403  0.6706
 6629TIP3   OH219892   5.041   1.205   0.497  0.3162 -0.4514 -0.0789
 6629TIP3    H119893   5.093   1.170   0.424  0.0907 -1.4948  0.2622
 6629TIP3    H219894   5.065   1.151   0.572  0.4131  0.5113  0.5990
 6630TIP3   OH219895   4.174   1.796   2.826 -0.0033  0.0914  0.2144
 6630TIP3    H119896   4.094   1.848   2.833  1.1911  1.9658  0.7010
 6630TIP3    H219897   4.148   1.719   2.774 -2.1085  0.5792  0.4317
 6631TIP3   OH219898   2.710   3.678   2.814 -0.3469 -0.4571  0.0763
 6631TIP3    H119899   2.698   3.591   2.853 -0.1058  0.4194  2.2657
 6631TIP3    H219900   2.632   3.727   2.842  0.8811  0.8379  1.3864
 6632TIP3   OH219901   4.166   5.875   2.729  0.4101 -0.0037 -0.1190
 6632TIP3    H119902   4.259   5.870   2.709  0.4088 -1.3290  0.1113
 6632TIP3    H219903   4.129   5.929   2.659  1.4553  1.2157  0.2479
 6633TIP3   OH219904   5.522   2.833   3.194  0.5049 -0.0968 -0.5149
 6633TIP3    H119905   5.514   2.822   3.289  1.5715  0.1968 -0.3712
 6633TIP3    H219906   5.571   2.756   3.165 -3.3116 -2.4404 -1.5119
 6634TIP3   OH219907   0.821   4.440   3.553  0.0728  0.1263 -0.3629
 6634TIP3    H119908   0.803   4.369   3.492  1.0537  0.1552 -0.6989
 6634TIP3    H219909   0.749   4.501   3.541 -0.4472 -0.5043 -0.5223
 6635TIP3   OH219910   2.137   4.793   4.002 -0.2387  0.0533  0.0029
 6635TIP3    H119911   2.161   4.874   3.957 -0.3523  0.3323  0.4377
 6635TIP3    H219912   2.218   4.741   4.001 -0.1335  0.2159 -0.1764
 6636TIP3   OH219913   4.514   3.901   1.389 -0.4640  0.4172  0.2114
 6636TIP3    H119914   4.570   3.978   1.393  0.0287  0.0358  0.7997
 6636TIP3    H219915   4.499   3.887   1.295 -1.0413  1.5633  0.1113
 6637TIP3   OH219916   1.489   3.484   3.617 -0.0466 -0.2107  0.3802
 6637TIP3    H119917   1.556   3.542   3.654 -0.8366  1.8557 -1.2491
 6637TIP3    H219918   1.536   3.405   3.593  1.5333  0.6123  0.6384
 6638TIP3   OH219919   1.369   0.181   4.010  0.1045  0.4013 -0.5340
 6638TIP3    H119920   1.312   0.119   3.965  0.6136  0.3255 -1.0850
 6638TIP3    H219921   1.333   0.187   4.099  0.2161 -0.8929 -0.3926
 6639TIP3   OH219922   3.637   0.897   2.124  0.3418  0.1902  0.1203
 6639TIP3    H119923   3.716   0.863   2.165  0.3457  0.4587  0.3328
 6639TIP3    H219924   3.668   0.937   2.043  0.2114 -1.2917 -0.7109
 6640TIP3   OH219925   3.238   2.159   3.611  0.1958  0.3495 -0.3002
 6640TIP3    H119926   3.261   2.162   3.704  0.3454  0.4825 -0.3400
 6640TIP3    H219927   3.203   2.072   3.597 -0.7058  0.6447  0.0877
 6641TIP3   OH219928   3.355   5.176   3.472  0.0645  0.3418  0.3560
 6641TIP3    H119929   3.358   5.240   3.543  2.0492  0.0600  0.5840
 6641TIP3    H219930   3.356   5.091   3.516 -2.6618  0.0696  0.0612
 6642TIP3   OH219931   2.232   0.402   1.949  0.4219  0.0137 -0.3971
 6642TIP3    H119932   2.239   0.461   1.874 -0.8124  0.8805  0.1264
 6642TIP3    H219933   2.239   0.460   2.025  2.5668 -0.9631  0.2138
 6643TIP3   OH219934   0.962   1.250   2.605 -1.0360  0.0267 -0.1874
 6643TIP3    H119935   0.981   1.244   2.511  2.1378 -0.7558  0.3776
 6643TIP3    H219936   0.932   1.162   2.629 -0.7827 -0.0916 -0.2956
 6644TIP3   OH219937   4.847   2.968   0.504  0.0044  0.3328  1.1764
 6644TIP3    H119938   4.844   2.877   0.474  1.1428  1.0090 -1.2740
 6644TIP3    H219939   4.761   2.983   0.544  0.2969 -2.1886  3.0162
 6645TIP3   OH219940   5.663   1.317   3.049 -0.5103  0.0530 -0.4712
 6645TIP3    H119941   5.596   1.384   3.033 -0.1485  0.2001 -1.4401
 6645TIP3    H219942   5.614   1.242   3.083 -0.6689  1.5317  2.9518
   6.34550   5.98259   5.18108   0.00000   0.00000  -2.11517   0.00000  -2.11517  -2.99130
