Title t= 497.00000 step= 248500
29212
    1ASP      N    1   1.660   3.347   5.104
    1ASP    HT1    2   1.597   3.429   5.093
    1ASP    HT2    3   1.741   3.373   5.164
    1ASP    HT3    4   1.606   3.281   5.164
    1ASP     CA    5   1.703   3.282   4.980
    1ASP     HA    6   1.738   3.185   5.012
    1ASP     CB    7   1.596   3.287   4.865
    1ASP    HB1    8   1.626   3.264   4.761
    1ASP    HB2    9   1.557   3.391   4.856
    1ASP     CG   10   1.488   3.183   4.895
    1ASP    OD1   11   1.491   3.119   5.002
    1ASP    OD2   12   1.405   3.161   4.798
    1ASP      C   13   1.836   3.350   4.941
    1ASP      O   14   1.846   3.475   4.945
    2GLY      N   15   1.935   3.273   4.909
    2GLY     HN   16   1.917   3.176   4.895
    2GLY     CA   17   2.072   3.313   4.891
    2GLY    HA1   18   2.120   3.216   4.893
    2GLY    HA2   19   2.111   3.378   4.968
    2GLY      C   20   2.088   3.377   4.754
    2GLY      O   21   1.992   3.403   4.678
    3ASP      N   22   2.213   3.392   4.711
    3ASP     HN   23   2.296   3.368   4.761
    3ASP     CA   24   2.257   3.448   4.583
    3ASP     HA   25   2.210   3.545   4.575
    3ASP     CB   26   2.414   3.447   4.583
    3ASP    HB1   27   2.455   3.481   4.485
    3ASP    HB2   28   2.451   3.344   4.600
    3ASP     CG   29   2.477   3.523   4.696
    3ASP    OD1   30   2.408   3.611   4.756
    3ASP    OD2   31   2.603   3.516   4.714
    3ASP      C   32   2.209   3.368   4.463
    3ASP      O   33   2.180   3.251   4.479
    4GLY      N   34   2.177   3.438   4.350
    4GLY     HN   35   2.188   3.537   4.350
    4GLY     CA   36   2.117   3.372   4.230
    4GLY    HA1   37   2.101   3.450   4.158
    4GLY    HA2   38   2.023   3.332   4.263
    4GLY      C   39   2.202   3.262   4.161
    4GLY      O   40   2.313   3.246   4.199
    5PRO      N   41   2.157   3.180   4.063
    5PRO     CD   42   2.015   3.189   4.019
    5PRO    HD1   43   2.015   3.295   3.984
    5PRO    HD2   44   1.942   3.176   4.102
    5PRO     CA   45   2.244   3.109   3.962
    5PRO     HA   46   2.311   3.058   4.030
    5PRO     CB   47   2.144   3.028   3.875
    5PRO    HB1   48   2.148   2.920   3.898
    5PRO    HB2   49   2.162   3.041   3.767
    5PRO     CG   50   2.004   3.080   3.909
    5PRO    HG1   51   1.951   3.108   3.815
    5PRO    HG2   52   1.944   2.993   3.946
    5PRO      C   53   2.323   3.216   3.882
    5PRO      O   54   2.269   3.322   3.860
    6GLY      N   55   2.448   3.185   3.847
    6GLY     HN   56   2.489   3.104   3.888
    6GLY     CA   57   2.544   3.269   3.779
    6GLY    HA1   58   2.601   3.189   3.733
    6GLY    HA2   59   2.601   3.325   3.852
    6GLY      C   60   2.499   3.356   3.661
    6GLY      O   61   2.389   3.329   3.603
    7ASP      N   62   2.579   3.459   3.620
    7ASP     HN   63   2.672   3.466   3.654
    7ASP     CA   64   2.553   3.536   3.500
    7ASP     HA   65   2.447   3.556   3.507
    7ASP     CB   66   2.630   3.670   3.508
    7ASP    HB1   67   2.576   3.736   3.436
    7ASP    HB2   68   2.739   3.654   3.490
    7ASP     CG   69   2.595   3.742   3.631
    7ASP    OD1   70   2.680   3.822   3.685
    7ASP    OD2   71   2.484   3.730   3.686
    7ASP      C   72   2.575   3.453   3.368
    7ASP      O   73   2.657   3.363   3.373
    8PRO      N   74   2.513   3.495   3.254
    8PRO     CD   75   2.395   3.585   3.252
    8PRO    HD1   76   2.441   3.685   3.270
    8PRO    HD2   77   2.326   3.555   3.333
    8PRO     CA   78   2.550   3.445   3.120
    8PRO     HA   79   2.522   3.341   3.128
    8PRO     CB   80   2.462   3.535   3.020
    8PRO    HB1   81   2.417   3.483   2.932
    8PRO    HB2   82   2.528   3.615   2.978
    8PRO     CG   83   2.339   3.583   3.104
    8PRO    HG1   84   2.295   3.682   3.081
    8PRO    HG2   85   2.256   3.510   3.103
    8PRO      C   86   2.701   3.445   3.081
    8PRO      O   87   2.775   3.540   3.097
    9GLY      N   88   2.750   3.335   3.022
    9GLY     HN   89   2.686   3.258   3.017
    9GLY     CA   90   2.874   3.329   2.946
    9GLY    HA1   91   2.883   3.225   2.919
    9GLY    HA2   92   2.955   3.361   3.010
    9GLY      C   93   2.882   3.425   2.829
    9GLY      O   94   2.780   3.469   2.777
   10ASP      N   95   3.006   3.454   2.789
   10ASP     HN   96   3.085   3.420   2.839
   10ASP     CA   97   3.040   3.548   2.689
   10ASP     HA   98   2.968   3.626   2.707
   10ASP     CB   99   3.183   3.597   2.698
   10ASP    HB1  100   3.196   3.651   2.602
   10ASP    HB2  101   3.255   3.513   2.698
   10ASP     CG  102   3.195   3.687   2.816
   10ASP    OD1  103   3.105   3.714   2.898
   10ASP    OD2  104   3.306   3.746   2.824
   10ASP      C  105   3.007   3.499   2.548
   10ASP      O  106   3.040   3.386   2.507
   11GLY      N  107   2.948   3.595   2.465
   11GLY     HN  108   2.929   3.686   2.499
   11GLY     CA  109   2.899   3.579   2.329
   11GLY    HA1  110   2.965   3.511   2.278
   11GLY    HA2  111   2.886   3.677   2.285
   11GLY      C  112   2.761   3.514   2.298
   11GLY    OT1  113   2.746   3.471   2.178
   11GLY    OT2  114   2.670   3.487   2.385
   12SOD    SOD  115   4.753   2.325   1.149
   13SOD    SOD  116   3.417   2.870   5.776
   14SOD    SOD  117   1.119   1.326   1.508
   15SOD    SOD  118   6.392   0.150   2.661
   16SOD    SOD  119   2.608   6.393   4.936
   17SOD    SOD  120   1.870   4.219   3.560
   18SOD    SOD  121   0.438   2.894   5.758
   19SOD    SOD  122   5.356   0.375   5.753
   20SOD    SOD  123   6.651   0.854   5.841
   21SOD    SOD  124   6.313   0.298   1.176
   22SOD    SOD  125   4.428   6.533   4.049
   23SOD    SOD  126   3.041   1.420   2.669
   24SOD    SOD  127   3.603   3.104   5.008
   25SOD    SOD  128   3.161   2.742   1.597
   26SOD    SOD  129   4.845   5.750   3.853
   27SOD    SOD  130   3.727   3.287   2.866
   28SOD    SOD  131   5.859   2.681   3.206
   29SOD    SOD  132   0.727   2.474   2.106
   30SOD    SOD  133   2.266   4.930   5.776
   31SOD    SOD  134   1.379   0.027   2.860
   32SOD    SOD  135   3.299   4.956   1.275
   33SOD    SOD  136   1.428   3.091   1.458
   34SOD    SOD  137   4.761   6.099   2.179
   35SOD    SOD  138   4.378   4.304   1.472
   36SOD    SOD  139   5.173   2.141   4.711
   37SOD    SOD  140   3.510   4.388   0.312
   38SOD    SOD  141   2.413   4.661   3.885
   39SOD    SOD  142   1.280   5.242   3.946
   40SOD    SOD  143   5.680   2.764   0.841
   41SOD    SOD  144   4.133   1.651   0.990
   42SOD    SOD  145   6.454   5.939   4.962
   43CLA    CLA  146   1.666   6.096   2.862
   44CLA    CLA  147   5.885   5.633   0.608
   45CLA    CLA  148   5.475   1.678   5.640
   46CLA    CLA  149   5.977   4.415   4.395
   47CLA    CLA  150   0.964   6.602   1.902
   48CLA    CLA  151   2.490   1.937   2.094
   49CLA    CLA  152   7.177   0.994   2.021
   50CLA    CLA  153   2.338   6.788   4.323
   51CLA    CLA  154   6.410   4.220   4.273
   52CLA    CLA  155   2.021   2.108   2.933
   53CLA    CLA  156   1.535   4.797   0.268
   54CLA    CLA  157   4.136   2.954   2.246
   55CLA    CLA  158   1.080   0.970   2.244
   56CLA    CLA  159   5.963   5.819   3.831
   57CLA    CLA  160   3.084   4.347   0.453
   58CLA    CLA  161   1.657   2.807   2.816
   59CLA    CLA  162   0.520   4.961   2.934
   60CLA    CLA  163   6.959   6.127   4.799
   61CLA    CLA  164   6.560   3.067   0.620
   62CLA    CLA  165   5.620   2.360   1.114
   63CLA    CLA  166   7.035   2.166   1.906
   64CLA    CLA  167   3.598   6.307   0.716
   65CLA    CLA  168   6.267   0.322   4.522
   66CLA    CLA  169   3.123   0.392   3.285
   67CLA    CLA  170   6.929   0.815   0.242
   68CLA    CLA  171   6.676   1.045   2.139
   69CLA    CLA  172   5.143   0.846   1.285
   70TIP3   OH2  173   0.633   4.466   0.795
   70TIP3    H1  174   0.682   4.473   0.877
   70TIP3    H2  175   0.569   4.397   0.811
   71TIP3   OH2  176   1.352   3.813   0.922
   71TIP3    H1  177   1.267   3.856   0.918
   71TIP3    H2  178   1.347   3.744   0.855
   72TIP3   OH2  179   3.620   4.522   5.496
   72TIP3    H1  180   3.547   4.515   5.558
   72TIP3    H2  181   3.691   4.560   5.548
   73TIP3   OH2  182   5.666   1.579   2.689
   73TIP3    H1  183   5.624   1.564   2.604
   73TIP3    H2  184   5.645   1.670   2.710
   74TIP3   OH2  185   2.538   4.770   4.486
   74TIP3    H1  186   2.628   4.739   4.474
   74TIP3    H2  187   2.483   4.698   4.456
   75TIP3   OH2  188   6.468   5.581   4.706
   75TIP3    H1  189   6.400   5.601   4.642
   75TIP3    H2  190   6.509   5.666   4.725
   76TIP3   OH2  191   4.994   3.333   5.402
   76TIP3    H1  192   4.994   3.408   5.344
   76TIP3    H2  193   4.948   3.364   5.481
   77TIP3   OH2  194   4.184   2.058   2.989
   77TIP3    H1  195   4.246   2.075   3.060
   77TIP3    H2  196   4.180   2.140   2.940
   78TIP3   OH2  197   5.018   4.435   5.524
   78TIP3    H1  198   4.972   4.494   5.465
   78TIP3    H2  199   4.967   4.437   5.605
   79TIP3   OH2  200   6.242   1.731   0.116
   79TIP3    H1  201   6.293   1.747   0.036
   79TIP3    H2  202   6.185   1.808   0.123
   80TIP3   OH2  203   1.452   3.177   4.059
   80TIP3    H1  204   1.526   3.234   4.082
   80TIP3    H2  205   1.486   3.122   3.988
   81TIP3   OH2  206   6.074   3.465   2.600
   81TIP3    H1  207   6.145   3.511   2.556
   81TIP3    H2  208   6.078   3.376   2.565
   82TIP3   OH2  209   1.485   1.262   4.880
   82TIP3    H1  210   1.407   1.286   4.828
   82TIP3    H2  211   1.450   1.244   4.967
   83TIP3   OH2  212   0.863   6.034   3.923
   83TIP3    H1  213   0.911   5.977   3.983
   83TIP3    H2  214   0.918   6.112   3.915
   84TIP3   OH2  215   1.138   4.678   3.519
   84TIP3    H1  216   1.055   4.724   3.530
   84TIP3    H2  217   1.160   4.691   3.427
   85TIP3   OH2  218   0.161   1.313   4.349
   85TIP3    H1  219   0.114   1.265   4.281
   85TIP3    H2  220   0.205   1.384   4.302
   86TIP3   OH2  221   0.924   3.398   2.783
   86TIP3    H1  222   0.892   3.418   2.695
   86TIP3    H2  223   1.004   3.347   2.769
   87TIP3   OH2  224   4.409   5.202   0.151
   87TIP3    H1  225   4.328   5.151   0.141
   87TIP3    H2  226   4.379   5.288   0.181
   88TIP3   OH2  227   1.962   4.977   5.350
   88TIP3    H1  228   1.941   4.931   5.432
   88TIP3    H2  229   1.982   4.906   5.288
   89TIP3   OH2  230   0.214   2.348   3.940
   89TIP3    H1  231   0.171   2.273   3.981
   89TIP3    H2  232   0.157   2.372   3.867
   90TIP3   OH2  233   1.729   0.786   1.208
   90TIP3    H1  234   1.702   0.871   1.174
   90TIP3    H2  235   1.802   0.806   1.266
   91TIP3   OH2  236   3.054   1.214   3.046
   91TIP3    H1  237   3.083   1.128   3.077
   91TIP3    H2  238   2.973   1.231   3.093
   92TIP3   OH2  239   3.127   0.522   0.903
   92TIP3    H1  240   3.206   0.469   0.894
   92TIP3    H2  241   3.055   0.461   0.886
   93TIP3   OH2  242   2.557   0.281   3.735
   93TIP3    H1  243   2.507   0.331   3.671
   93TIP3    H2  244   2.620   0.343   3.770
   94TIP3   OH2  245   0.429   6.672   2.375
   94TIP3    H1  246   0.420   6.633   2.463
   94TIP3    H2  247   0.351   6.727   2.366
   95TIP3   OH2  248   3.511   1.721   1.995
   95TIP3    H1  249   3.557   1.767   1.925
   95TIP3    H2  250   3.433   1.685   1.953
   96TIP3   OH2  251   2.272   3.217   3.372
   96TIP3    H1  252   2.275   3.123   3.392
   96TIP3    H2  253   2.307   3.258   3.450
   97TIP3   OH2  254   0.991   1.464   1.355
   97TIP3    H1  255   1.042   1.537   1.321
   97TIP3    H2  256   0.905   1.502   1.374
   98TIP3   OH2  257   2.822   2.598   1.107
   98TIP3    H1  258   2.765   2.569   1.036
   98TIP3    H2  259   2.857   2.517   1.144
   99TIP3   OH2  260   4.320   0.239   1.883
   99TIP3    H1  261   4.404   0.213   1.846
   99TIP3    H2  262   4.342   0.297   1.956
  100TIP3   OH2  263   2.875   6.140   4.274
  100TIP3    H1  264   2.966   6.126   4.299
  100TIP3    H2  265   2.868   6.235   4.261
  101TIP3   OH2  266   0.527   1.242   0.573
  101TIP3    H1  267   0.474   1.163   0.587
  101TIP3    H2  268   0.463   1.313   0.569
  102TIP3   OH2  269   0.090   6.537   2.409
  102TIP3    H1  270   0.010   6.498   2.373
  102TIP3    H2  271   0.059   6.602   2.472
  103TIP3   OH2  272   3.024   5.297   0.171
  103TIP3    H1  273   3.008   5.319   0.263
  103TIP3    H2  274   3.029   5.202   0.170
  104TIP3   OH2  275   6.378   2.688   1.757
  104TIP3    H1  276   6.453   2.747   1.759
  104TIP3    H2  277   6.414   2.603   1.734
  105TIP3   OH2  278   5.230   0.713   1.942
  105TIP3    H1  279   5.274   0.768   2.006
  105TIP3    H2  280   5.143   0.698   1.978
  106TIP3   OH2  281   4.709   4.546   2.120
  106TIP3    H1  282   4.758   4.587   2.192
  106TIP3    H2  283   4.774   4.491   2.076
  107TIP3   OH2  284   2.963   5.169   3.216
  107TIP3    H1  285   2.907   5.228   3.265
  107TIP3    H2  286   2.907   5.095   3.193
  108TIP3   OH2  287   2.117   4.070   4.149
  108TIP3    H1  288   2.082   4.013   4.218
  108TIP3    H2  289   2.087   4.030   4.067
  109TIP3   OH2  290   5.571   1.699   0.825
  109TIP3    H1  291   5.569   1.791   0.852
  109TIP3    H2  292   5.660   1.685   0.792
  110TIP3   OH2  293   6.357   1.773   0.687
  110TIP3    H1  294   6.373   1.810   0.600
  110TIP3    H2  295   6.299   1.836   0.730
  111TIP3   OH2  296   3.255   1.087   4.633
  111TIP3    H1  297   3.225   1.178   4.640
  111TIP3    H2  298   3.293   1.081   4.545
  112TIP3   OH2  299   6.552   1.720   1.983
  112TIP3    H1  300   6.499   1.758   1.913
  112TIP3    H2  301   6.520   1.761   2.063
  113TIP3   OH2  302   2.881   0.626   5.726
  113TIP3    H1  303   2.895   0.596   5.636
  113TIP3    H2  304   2.965   0.612   5.769
  114TIP3   OH2  305   5.340   4.681   3.537
  114TIP3    H1  306   5.387   4.597   3.530
  114TIP3    H2  307   5.359   4.710   3.626
  115TIP3   OH2  308   3.045   2.427   1.847
  115TIP3    H1  309   3.006   2.474   1.773
  115TIP3    H2  310   3.031   2.485   1.922
  116TIP3   OH2  311   0.026   2.508   4.627
  116TIP3    H1  312  -0.028   2.443   4.583
  116TIP3    H2  313   0.068   2.558   4.556
  117TIP3   OH2  314   0.054   4.687   2.188
  117TIP3    H1  315   0.137   4.731   2.168
  117TIP3    H2  316   0.007   4.749   2.245
  118TIP3   OH2  317   0.312   1.055   0.598
  118TIP3    H1  318   0.222   1.070   0.627
  118TIP3    H2  319   0.339   0.977   0.646
  119TIP3   OH2  320   4.358   1.071   4.689
  119TIP3    H1  321   4.442   1.105   4.658
  119TIP3    H2  322   4.311   1.049   4.608
  120TIP3   OH2  323   6.922   4.645   1.112
  120TIP3    H1  324   6.916   4.549   1.116
  120TIP3    H2  325   6.881   4.674   1.193
  121TIP3   OH2  326   4.378   4.522   1.579
  121TIP3    H1  327   4.412   4.611   1.571
  121TIP3    H2  328   4.344   4.517   1.668
  122TIP3   OH2  329   0.088   5.018   0.137
  122TIP3    H1  330   0.115   5.105   0.106
  122TIP3    H2  331   0.058   5.033   0.226
  123TIP3   OH2  332   0.611   6.470   0.038
  123TIP3    H1  333   0.658   6.387   0.029
  123TIP3    H2  334   0.596   6.479   0.132
  124TIP3   OH2  335   5.036   2.241   3.258
  124TIP3    H1  336   5.035   2.186   3.180
  124TIP3    H2  337   4.964   2.301   3.246
  125TIP3   OH2  338   3.832   4.587   5.858
  125TIP3    H1  339   3.844   4.571   5.765
  125TIP3    H2  340   3.743   4.623   5.865
  126TIP3   OH2  341   6.991   2.793   3.454
  126TIP3    H1  342   7.063   2.732   3.439
  126TIP3    H2  343   7.002   2.861   3.387
  127TIP3   OH2  344   3.494   2.614   1.940
  127TIP3    H1  345   3.570   2.556   1.941
  127TIP3    H2  346   3.423   2.561   1.976
  128TIP3   OH2  347   0.224   1.559   2.601
  128TIP3    H1  348   0.206   1.596   2.514
  128TIP3    H2  349   0.266   1.475   2.583
  129TIP3   OH2  350   1.995   4.572   0.350
  129TIP3    H1  351   1.900   4.571   0.335
  129TIP3    H2  352   2.016   4.665   0.363
  130TIP3   OH2  353   4.375   3.018   5.528
  130TIP3    H1  354   4.405   3.095   5.577
  130TIP3    H2  355   4.405   3.034   5.439
  131TIP3   OH2  356   2.437   1.356   0.025
  131TIP3    H1  357   2.381   1.434   0.015
  131TIP3    H2  358   2.447   1.346   0.120
  132TIP3   OH2  359   5.781   1.740   5.643
  132TIP3    H1  360   5.813   1.654   5.615
  132TIP3    H2  361   5.686   1.731   5.646
  133TIP3   OH2  362   5.482   3.727   1.225
  133TIP3    H1  363   5.459   3.735   1.133
  133TIP3    H2  364   5.571   3.693   1.225
  134TIP3   OH2  365   3.998   3.418   4.271
  134TIP3    H1  366   4.011   3.513   4.265
  134TIP3    H2  367   3.914   3.403   4.227
  135TIP3   OH2  368   0.907   3.915   4.399
  135TIP3    H1  369   0.868   3.953   4.478
  135TIP3    H2  370   0.984   3.869   4.430
  136TIP3   OH2  371   1.860   1.916   1.376
  136TIP3    H1  372   1.896   2.004   1.366
  136TIP3    H2  373   1.936   1.859   1.381
  137TIP3   OH2  374   4.104   4.527   2.887
  137TIP3    H1  375   4.055   4.513   2.968
  137TIP3    H2  376   4.193   4.499   2.908
  138TIP3   OH2  377   0.199   4.117   1.476
  138TIP3    H1  378   0.183   4.190   1.535
  138TIP3    H2  379   0.114   4.072   1.470
  139TIP3   OH2  380   4.228   2.567   5.376
  139TIP3    H1  381   4.321   2.589   5.370
  139TIP3    H2  382   4.185   2.621   5.310
  140TIP3   OH2  383   4.453   2.828   1.685
  140TIP3    H1  384   4.402   2.759   1.728
  140TIP3    H2  385   4.438   2.815   1.592
  141TIP3   OH2  386   3.217   2.460   3.815
  141TIP3    H1  387   3.186   2.405   3.887
  141TIP3    H2  388   3.159   2.535   3.814
  142TIP3   OH2  389   7.213   1.377   1.355
  142TIP3    H1  390   7.135   1.355   1.304
  142TIP3    H2  391   7.213   1.315   1.428
  143TIP3   OH2  392   1.546   6.538   0.546
  143TIP3    H1  393   1.518   6.600   0.613
  143TIP3    H2  394   1.641   6.538   0.551
  144TIP3   OH2  395   5.011   3.180   3.943
  144TIP3    H1  396   5.068   3.104   3.939
  144TIP3    H2  397   5.015   3.208   4.035
  145TIP3   OH2  398   3.434   1.049   4.866
  145TIP3    H1  399   3.365   1.086   4.811
  145TIP3    H2  400   3.500   1.018   4.804
  146TIP3   OH2  401   1.628   1.791   1.301
  146TIP3    H1  402   1.570   1.778   1.375
  146TIP3    H2  403   1.708   1.828   1.339
  147TIP3   OH2  404   5.493   6.143   2.639
  147TIP3    H1  405   5.536   6.211   2.692
  147TIP3    H2  406   5.543   6.064   2.656
  148TIP3   OH2  407   4.027   1.568   5.110
  148TIP3    H1  408   3.957   1.510   5.082
  148TIP3    H2  409   3.982   1.649   5.135
  149TIP3   OH2  410   6.163   4.537   1.802
  149TIP3    H1  411   6.112   4.556   1.881
  149TIP3    H2  412   6.206   4.619   1.780
  150TIP3   OH2  413   1.407   2.161   4.123
  150TIP3    H1  414   1.322   2.188   4.158
  150TIP3    H2  415   1.389   2.078   4.079
  151TIP3   OH2  416   3.293   5.476   5.506
  151TIP3    H1  417   3.293   5.522   5.422
  151TIP3    H2  418   3.377   5.429   5.507
  152TIP3   OH2  419   4.314   0.907   0.998
  152TIP3    H1  420   4.273   0.913   1.084
  152TIP3    H2  421   4.359   0.823   0.998
  153TIP3   OH2  422   0.554   4.706   3.872
  153TIP3    H1  423   0.565   4.614   3.851
  153TIP3    H2  424   0.466   4.713   3.909
  154TIP3   OH2  425   3.500   2.252   5.050
  154TIP3    H1  426   3.557   2.321   5.084
  154TIP3    H2  427   3.542   2.225   4.969
  155TIP3   OH2  428   0.788   0.739   0.897
  155TIP3    H1  429   0.818   0.764   0.809
  155TIP3    H2  430   0.733   0.812   0.925
  156TIP3   OH2  431   2.193   5.190   3.927
  156TIP3    H1  432   2.265   5.162   3.984
  156TIP3    H2  433   2.135   5.114   3.923
  157TIP3   OH2  434   2.614   2.894   5.169
  157TIP3    H1  435   2.554   2.830   5.131
  157TIP3    H2  436   2.588   2.900   5.261
  158TIP3   OH2  437   6.844   3.186   0.299
  158TIP3    H1  438   6.771   3.150   0.248
  158TIP3    H2  439   6.864   3.269   0.258
  159TIP3   OH2  440   0.812   5.050   1.932
  159TIP3    H1  441   0.905   5.057   1.911
  159TIP3    H2  442   0.796   5.122   1.993
  160TIP3   OH2  443   4.813   4.663   2.347
  160TIP3    H1  444   4.766   4.721   2.406
  160TIP3    H2  445   4.861   4.721   2.289
  161TIP3   OH2  446   4.561   4.316   0.536
  161TIP3    H1  447   4.499   4.324   0.608
  161TIP3    H2  448   4.567   4.222   0.520
  162TIP3   OH2  449   6.531   2.290   5.366
  162TIP3    H1  450   6.562   2.301   5.456
  162TIP3    H2  451   6.441   2.258   5.375
  163TIP3   OH2  452   4.791   6.656   3.489
  163TIP3    H1  453   4.862   6.599   3.522
  163TIP3    H2  454   4.742   6.680   3.568
  164TIP3   OH2  455   2.205   3.797   1.758
  164TIP3    H1  456   2.185   3.776   1.667
  164TIP3    H2  457   2.206   3.892   1.761
  165TIP3   OH2  458   5.986   1.075   2.088
  165TIP3    H1  459   5.917   1.101   2.026
  165TIP3    H2  460   5.956   1.109   2.172
  166TIP3   OH2  461   5.550   2.115   4.990
  166TIP3    H1  462   5.591   2.029   5.000
  166TIP3    H2  463   5.582   2.148   4.906
  167TIP3   OH2  464   5.478   6.145   1.664
  167TIP3    H1  465   5.561   6.102   1.642
  167TIP3    H2  466   5.447   6.181   1.581
  168TIP3   OH2  467   3.777   5.301   2.356
  168TIP3    H1  468   3.737   5.295   2.443
  168TIP3    H2  469   3.869   5.319   2.374
  169TIP3   OH2  470   0.587   4.649   4.325
  169TIP3    H1  471   0.568   4.742   4.317
  169TIP3    H2  472   0.521   4.615   4.385
  170TIP3   OH2  473   2.098   4.683   4.510
  170TIP3    H1  474   2.178   4.631   4.521
  170TIP3    H2  475   2.094   4.738   4.588
  171TIP3   OH2  476   1.211   5.965   0.282
  171TIP3    H1  477   1.190   5.901   0.351
  171TIP3    H2  478   1.261   5.915   0.218
  172TIP3   OH2  479   5.635   1.441   1.606
  172TIP3    H1  480   5.593   1.387   1.673
  172TIP3    H2  481   5.670   1.515   1.653
  173TIP3   OH2  482   4.336   4.377   4.976
  173TIP3    H1  483   4.259   4.326   4.950
  173TIP3    H2  484   4.396   4.312   5.014
  174TIP3   OH2  485   5.219   3.865   1.265
  174TIP3    H1  486   5.312   3.845   1.259
  174TIP3    H2  487   5.176   3.797   1.213
  175TIP3   OH2  488   6.721   3.711   4.686
  175TIP3    H1  489   6.803   3.683   4.727
  175TIP3    H2  490   6.746   3.784   4.630
  176TIP3   OH2  491   4.966   6.461   2.089
  176TIP3    H1  492   4.903   6.506   2.145
  176TIP3    H2  493   5.037   6.524   2.077
  177TIP3   OH2  494   0.577   5.827   4.857
  177TIP3    H1  495   0.603   5.909   4.815
  177TIP3    H2  496   0.609   5.759   4.798
  178TIP3   OH2  497   6.609   4.840   4.382
  178TIP3    H1  498   6.570   4.924   4.406
  178TIP3    H2  499   6.626   4.795   4.465
  179TIP3   OH2  500   4.449   4.620   2.720
  179TIP3    H1  501   4.434   4.552   2.786
  179TIP3    H2  502   4.501   4.576   2.652
  180TIP3   OH2  503   1.829   1.797   2.471
  180TIP3    H1  504   1.733   1.798   2.473
  180TIP3    H2  505   1.851   1.756   2.387
  181TIP3   OH2  506   1.774   4.070   4.838
  181TIP3    H1  507   1.850   4.061   4.781
  181TIP3    H2  508   1.726   3.988   4.828
  182TIP3   OH2  509   6.834   4.266   3.831
  182TIP3    H1  510   6.925   4.293   3.825
  182TIP3    H2  511   6.800   4.314   3.907
  183TIP3   OH2  512   5.237   6.795   4.972
  183TIP3    H1  513   5.189   6.719   4.940
  183TIP3    H2  514   5.238   6.856   4.898
  184TIP3   OH2  515   3.030   2.125   3.230
  184TIP3    H1  516   3.060   2.215   3.221
  184TIP3    H2  517   2.939   2.132   3.259
  185TIP3   OH2  518   6.011   2.297   4.789
  185TIP3    H1  519   5.925   2.335   4.806
  185TIP3    H2  520   6.006   2.210   4.829
  186TIP3   OH2  521   2.837   5.586   4.618
  186TIP3    H1  522   2.921   5.567   4.576
  186TIP3    H2  523   2.785   5.507   4.603
  187TIP3   OH2  524   0.407   1.732   2.777
  187TIP3    H1  525   0.346   1.687   2.718
  187TIP3    H2  526   0.491   1.690   2.761
  188TIP3   OH2  527   5.155   5.974   2.342
  188TIP3    H1  528   5.199   5.911   2.399
  188TIP3    H2  529   5.186   6.059   2.373
  189TIP3   OH2  530   1.277   3.768   4.244
  189TIP3    H1  531   1.232   3.811   4.317
  189TIP3    H2  532   1.244   3.679   4.245
  190TIP3   OH2  533   2.338   6.635   5.578
  190TIP3    H1  534   2.286   6.695   5.525
  190TIP3    H2  535   2.350   6.679   5.661
  191TIP3   OH2  536   3.999   2.800   3.298
  191TIP3    H1  537   4.023   2.741   3.226
  191TIP3    H2  538   4.069   2.866   3.298
  192TIP3   OH2  539   1.080   1.494   5.064
  192TIP3    H1  540   1.150   1.555   5.088
  192TIP3    H2  541   1.032   1.480   5.146
  193TIP3   OH2  542   4.657   6.001   0.190
  193TIP3    H1  543   4.728   6.061   0.165
  193TIP3    H2  544   4.702   5.924   0.225
  194TIP3   OH2  545   2.889   4.520   5.374
  194TIP3    H1  546   2.978   4.551   5.392
  194TIP3    H2  547   2.855   4.582   5.309
  195TIP3   OH2  548   5.545   3.711   4.450
  195TIP3    H1  549   5.466   3.707   4.503
  195TIP3    H2  550   5.525   3.659   4.372
  196TIP3   OH2  551   7.163   6.628   0.209
  196TIP3    H1  552   7.131   6.675   0.286
  196TIP3    H2  553   7.099   6.559   0.195
  197TIP3   OH2  554   1.545   0.352   1.614
  197TIP3    H1  555   1.491   0.413   1.664
  197TIP3    H2  556   1.633   0.364   1.649
  198TIP3   OH2  557   3.634   5.257   0.237
  198TIP3    H1  558   3.578   5.329   0.265
  198TIP3    H2  559   3.723   5.288   0.257
  199TIP3   OH2  560   2.249   1.256   2.703
  199TIP3    H1  561   2.332   1.261   2.752
  199TIP3    H2  562   2.214   1.344   2.707
  200TIP3   OH2  563   6.110   2.858   3.424
  200TIP3    H1  564   6.142   2.887   3.338
  200TIP3    H2  565   6.021   2.828   3.408
  201TIP3   OH2  566   7.054   4.418   2.651
  201TIP3    H1  567   7.110   4.427   2.575
  201TIP3    H2  568   6.969   4.393   2.615
  202TIP3   OH2  569   0.445   4.984   1.819
  202TIP3    H1  570   0.353   5.007   1.828
  202TIP3    H2  571   0.480   5.048   1.757
  203TIP3   OH2  572   5.326   3.806   0.137
  203TIP3    H1  573   5.298   3.754   0.213
  203TIP3    H2  574   5.398   3.859   0.170
  204TIP3   OH2  575   2.515   5.331   3.266
  204TIP3    H1  576   2.454   5.294   3.330
  204TIP3    H2  577   2.465   5.399   3.222
  205TIP3   OH2  578   5.041   3.809   4.059
  205TIP3    H1  579   5.002   3.784   4.143
  205TIP3    H2  580   5.133   3.826   4.078
  206TIP3   OH2  581   3.068   4.663   4.684
  206TIP3    H1  582   3.034   4.709   4.761
  206TIP3    H2  583   3.131   4.724   4.646
  207TIP3   OH2  584   6.770   4.391   4.087
  207TIP3    H1  585   6.710   4.332   4.133
  207TIP3    H2  586   6.773   4.470   4.142
  208TIP3   OH2  587   0.969   1.155   1.448
  208TIP3    H1  588   0.889   1.173   1.398
  208TIP3    H2  589   0.944   1.087   1.510
  209TIP3   OH2  590   5.438   1.394   1.092
  209TIP3    H1  591   5.438   1.441   1.175
  209TIP3    H2  592   5.364   1.335   1.097
  210TIP3   OH2  593   0.253   5.354   1.653
  210TIP3    H1  594   0.163   5.324   1.665
  210TIP3    H2  595   0.254   5.443   1.690
  211TIP3   OH2  596   0.769   4.472   1.525
  211TIP3    H1  597   0.753   4.469   1.619
  211TIP3    H2  598   0.757   4.565   1.502
  212TIP3   OH2  599   3.052   0.142   0.889
  212TIP3    H1  600   3.028   0.221   0.840
  212TIP3    H2  601   3.045   0.071   0.825
  213TIP3   OH2  602   5.655   0.466   0.675
  213TIP3    H1  603   5.604   0.543   0.703
  213TIP3    H2  604   5.706   0.442   0.753
  214TIP3   OH2  605   6.335   4.905   5.381
  214TIP3    H1  606   6.331   4.841   5.309
  214TIP3    H2  607   6.425   4.939   5.377
  215TIP3   OH2  608   6.100   1.303   0.243
  215TIP3    H1  609   6.029   1.280   0.303
  215TIP3    H2  610   6.154   1.365   0.292
  216TIP3   OH2  611   1.855   6.469   2.182
  216TIP3    H1  612   1.820   6.484   2.094
  216TIP3    H2  613   1.818   6.539   2.235
  217TIP3   OH2  614   6.639   5.224   1.179
  217TIP3    H1  615   6.678   5.300   1.221
  217TIP3    H2  616   6.546   5.230   1.200
  218TIP3   OH2  617   1.210   4.979   4.810
  218TIP3    H1  618   1.290   4.952   4.854
  218TIP3    H2  619   1.232   5.062   4.767
  219TIP3   OH2  620   0.274   2.174   4.312
  219TIP3    H1  621   0.334   2.236   4.272
  219TIP3    H2  622   0.318   2.089   4.303
  220TIP3   OH2  623   6.538   2.914   1.752
  220TIP3    H1  624   6.487   2.986   1.790
  220TIP3    H2  625   6.625   2.922   1.792
  221TIP3   OH2  626   2.226   0.661   0.311
  221TIP3    H1  627   2.132   0.672   0.293
  221TIP3    H2  628   2.252   0.586   0.258
  222TIP3   OH2  629   4.158   0.969   3.970
  222TIP3    H1  630   4.210   0.969   4.051
  222TIP3    H2  631   4.103   0.891   3.977
  223TIP3   OH2  632   3.896   6.531   5.454
  223TIP3    H1  633   3.833   6.536   5.525
  223TIP3    H2  634   3.976   6.569   5.491
  224TIP3   OH2  635   0.365   2.859   3.056
  224TIP3    H1  636   0.433   2.909   3.102
  224TIP3    H2  637   0.386   2.768   3.074
  225TIP3   OH2  638   1.452   0.210   0.967
  225TIP3    H1  639   1.374   0.155   0.978
  225TIP3    H2  640   1.431   0.291   1.012
  226TIP3   OH2  641   2.070   5.471   1.781
  226TIP3    H1  642   2.140   5.414   1.750
  226TIP3    H2  643   2.084   5.477   1.876
  227TIP3   OH2  644   0.562   1.178   4.101
  227TIP3    H1  645   0.538   1.146   4.014
  227TIP3    H2  646   0.647   1.220   4.089
  228TIP3   OH2  647   5.997   3.168   4.921
  228TIP3    H1  648   6.065   3.198   4.860
  228TIP3    H2  649   6.018   3.211   5.003
  229TIP3   OH2  650   4.325   5.459   0.260
  229TIP3    H1  651   4.294   5.514   0.332
  229TIP3    H2  652   4.245   5.431   0.215
  230TIP3   OH2  653   3.472   2.771   4.335
  230TIP3    H1  654   3.398   2.766   4.396
  230TIP3    H2  655   3.439   2.731   4.254
  231TIP3   OH2  656   1.451   5.012   0.042
  231TIP3    H1  657   1.490   4.963   0.113
  231TIP3    H2  658   1.515   5.006  -0.029
  232TIP3   OH2  659   2.695   3.031   5.709
  232TIP3    H1  660   2.716   3.123   5.690
  232TIP3    H2  661   2.658   2.998   5.627
  233TIP3   OH2  662   4.007   3.500  -0.001
  233TIP3    H1  663   4.004   3.429   0.063
  233TIP3    H2  664   3.971   3.576   0.045
  234TIP3   OH2  665   1.324   6.675   5.250
  234TIP3    H1  666   1.290   6.585   5.253
  234TIP3    H2  667   1.291   6.715   5.330
  235TIP3   OH2  668   2.454   5.623   0.130
  235TIP3    H1  669   2.495   5.709   0.131
  235TIP3    H2  670   2.381   5.631   0.191
  236TIP3   OH2  671   5.828   3.670   3.283
  236TIP3    H1  672   5.847   3.611   3.209
  236TIP3    H2  673   5.892   3.740   3.275
  237TIP3   OH2  674   5.894   4.067   0.566
  237TIP3    H1  675   5.953   4.129   0.521
  237TIP3    H2  676   5.928   4.063   0.655
  238TIP3   OH2  677   3.002   0.888   5.488
  238TIP3    H1  678   3.051   0.942   5.550
  238TIP3    H2  679   3.068   0.852   5.430
  239TIP3   OH2  680   3.650   2.752   0.425
  239TIP3    H1  681   3.721   2.731   0.487
  239TIP3    H2  682   3.573   2.762   0.480
  240TIP3   OH2  683   2.219   2.073   4.456
  240TIP3    H1  684   2.269   2.030   4.525
  240TIP3    H2  685   2.134   2.030   4.457
  241TIP3   OH2  686   2.747   0.523   1.673
  241TIP3    H1  687   2.796   0.589   1.624
  241TIP3    H2  688   2.785   0.440   1.646
  242TIP3   OH2  689   4.158   1.661   3.564
  242TIP3    H1  690   4.087   1.666   3.501
  242TIP3    H2  691   4.119   1.623   3.643
  243TIP3   OH2  692   1.790   3.408   4.493
  243TIP3    H1  693   1.825   3.326   4.459
  243TIP3    H2  694   1.853   3.436   4.559
  244TIP3   OH2  695   1.608   3.885   0.655
  244TIP3    H1  696   1.542   3.953   0.640
  244TIP3    H2  697   1.658   3.916   0.730
  245TIP3   OH2  698   2.727   6.201   3.653
  245TIP3    H1  699   2.816   6.169   3.641
  245TIP3    H2  700   2.672   6.143   3.600
  246TIP3   OH2  701   0.669   5.593   3.112
  246TIP3    H1  702   0.690   5.615   3.021
  246TIP3    H2  703   0.608   5.662   3.140
  247TIP3   OH2  704   5.415   0.161   5.235
  247TIP3    H1  705   5.362   0.093   5.277
  247TIP3    H2  706   5.504   0.128   5.239
  248TIP3   OH2  707   1.377   0.298   4.528
  248TIP3    H1  708   1.439   0.224   4.526
  248TIP3    H2  709   1.432   0.374   4.548
  249TIP3   OH2  710   0.765   3.202   4.358
  249TIP3    H1  711   0.729   3.135   4.417
  249TIP3    H2  712   0.709   3.279   4.373
  250TIP3   OH2  713   2.469   5.342   2.826
  250TIP3    H1  714   2.519   5.423   2.816
  250TIP3    H2  715   2.486   5.294   2.744
  251TIP3   OH2  716   4.558   1.555   5.240
  251TIP3    H1  717   4.538   1.461   5.245
  251TIP3    H2  718   4.475   1.596   5.218
  252TIP3   OH2  719   6.552   2.239   4.348
  252TIP3    H1  720   6.531   2.317   4.399
  252TIP3    H2  721   6.632   2.260   4.302
  253TIP3   OH2  722   3.011   5.956   4.779
  253TIP3    H1  723   3.077   6.014   4.741
  253TIP3    H2  724   3.051   5.923   4.860
  254TIP3   OH2  725   3.006   5.991   0.228
  254TIP3    H1  726   2.984   6.078   0.261
  254TIP3    H2  727   2.923   5.943   0.230
  255TIP3   OH2  728   5.148   6.718   0.433
  255TIP3    H1  729   5.171   6.811   0.428
  255TIP3    H2  730   5.164   6.695   0.524
  256TIP3   OH2  731   6.724   2.605   0.776
  256TIP3    H1  732   6.790   2.642   0.835
  256TIP3    H2  733   6.649   2.665   0.784
  257TIP3   OH2  734   4.366   6.047   1.273
  257TIP3    H1  735   4.290   6.033   1.216
  257TIP3    H2  736   4.412   5.963   1.273
  258TIP3   OH2  737   3.240   6.299   4.914
  258TIP3    H1  738   3.235   6.204   4.904
  258TIP3    H2  739   3.302   6.327   4.846
  259TIP3   OH2  740   2.420   0.976   5.267
  259TIP3    H1  741   2.451   0.891   5.237
  259TIP3    H2  742   2.499   1.029   5.273
  260TIP3   OH2  743   6.063   5.204   3.891
  260TIP3    H1  744   5.968   5.210   3.892
  260TIP3    H2  745   6.093   5.294   3.881
  261TIP3   OH2  746   3.384   5.787   4.124
  261TIP3    H1  747   3.369   5.709   4.071
  261TIP3    H2  748   3.297   5.822   4.140
  262TIP3   OH2  749   6.040   1.529   2.141
  262TIP3    H1  750   6.095   1.579   2.201
  262TIP3    H2  751   6.099   1.464   2.102
  263TIP3   OH2  752   4.087   4.692   5.435
  263TIP3    H1  753   4.143   4.661   5.506
  263TIP3    H2  754   4.086   4.788   5.446
  264TIP3   OH2  755   5.433   3.423   0.358
  264TIP3    H1  756   5.501   3.364   0.323
  264TIP3    H2  757   5.482   3.495   0.397
  265TIP3   OH2  758   0.874   2.807   4.477
  265TIP3    H1  759   0.941   2.813   4.545
  265TIP3    H2  760   0.922   2.814   4.395
  266TIP3   OH2  761   5.083   1.558   3.425
  266TIP3    H1  762   5.089   1.651   3.403
  266TIP3    H2  763   5.152   1.544   3.490
  267TIP3   OH2  764   2.248   6.578   3.380
  267TIP3    H1  765   2.247   6.490   3.341
  267TIP3    H2  766   2.340   6.597   3.393
  268TIP3   OH2  767   2.191   6.292   4.495
  268TIP3    H1  768   2.227   6.342   4.422
  268TIP3    H2  769   2.240   6.210   4.495
  269TIP3   OH2  770   1.673   3.188   2.313
  269TIP3    H1  771   1.764   3.162   2.326
  269TIP3    H2  772   1.647   3.142   2.232
  270TIP3   OH2  773   5.594   3.302   2.095
  270TIP3    H1  774   5.658   3.361   2.055
  270TIP3    H2  775   5.530   3.361   2.135
  271TIP3   OH2  776   2.486   2.476   2.166
  271TIP3    H1  777   2.423   2.451   2.234
  271TIP3    H2  778   2.571   2.448   2.201
  272TIP3   OH2  779   3.363   4.568   1.004
  272TIP3    H1  780   3.283   4.519   1.023
  272TIP3    H2  781   3.405   4.581   1.089
  273TIP3   OH2  782   2.079   6.431   1.545
  273TIP3    H1  783   2.046   6.348   1.512
  273TIP3    H2  784   2.169   6.435   1.515
  274TIP3   OH2  785   2.783   6.384   2.529
  274TIP3    H1  786   2.698   6.388   2.573
  274TIP3    H2  787   2.816   6.296   2.549
  275TIP3   OH2  788   5.816   6.189   4.167
  275TIP3    H1  789   5.731   6.156   4.139
  275TIP3    H2  790   5.796   6.267   4.219
  276TIP3   OH2  791   1.702   3.075   1.740
  276TIP3    H1  792   1.732   2.997   1.694
  276TIP3    H2  793   1.781   3.110   1.782
  277TIP3   OH2  794   6.319   6.362   4.489
  277TIP3    H1  795   6.369   6.440   4.512
  277TIP3    H2  796   6.254   6.354   4.558
  278TIP3   OH2  797   2.612   2.335   1.103
  278TIP3    H1  798   2.523   2.364   1.081
  278TIP3    H2  799   2.630   2.265   1.041
  279TIP3   OH2  800   0.570   3.929   2.012
  279TIP3    H1  801   0.550   3.979   2.091
  279TIP3    H2  802   0.613   3.993   1.954
  280TIP3   OH2  803   1.878   2.464   3.270
  280TIP3    H1  804   1.863   2.447   3.177
  280TIP3    H2  805   1.863   2.379   3.313
  281TIP3   OH2  806   3.066   6.291   2.061
  281TIP3    H1  807   3.016   6.347   2.120
  281TIP3    H2  808   3.140   6.261   2.114
  282TIP3   OH2  809   5.862   3.565   2.737
  282TIP3    H1  810   5.832   3.503   2.803
  282TIP3    H2  811   5.898   3.510   2.667
  283TIP3   OH2  812   3.605   5.513   1.422
  283TIP3    H1  813   3.656   5.570   1.480
  283TIP3    H2  814   3.560   5.573   1.363
  284TIP3   OH2  815   4.555   2.931   2.392
  284TIP3    H1  816   4.605   2.856   2.359
  284TIP3    H2  817   4.466   2.897   2.404
  285TIP3   OH2  818   6.924   2.352   5.637
  285TIP3    H1  819   7.018   2.367   5.646
  285TIP3    H2  820   6.915   2.307   5.553
  286TIP3   OH2  821   5.867   0.779   3.562
  286TIP3    H1  822   5.952   0.736   3.568
  286TIP3    H2  823   5.878   0.863   3.605
  287TIP3   OH2  824   3.549   1.989   1.519
  287TIP3    H1  825   3.622   1.985   1.458
  287TIP3    H2  826   3.478   2.029   1.470
  288TIP3   OH2  827   6.253   3.866   0.662
  288TIP3    H1  828   6.224   3.943   0.614
  288TIP3    H2  829   6.341   3.848   0.628
  289TIP3   OH2  830   2.909   6.609   4.077
  289TIP3    H1  831   2.875   6.685   4.030
  289TIP3    H2  832   2.941   6.644   4.160
  290TIP3   OH2  833   5.879   4.632   4.199
  290TIP3    H1  834   5.818   4.583   4.143
  290TIP3    H2  835   5.920   4.565   4.253
  291TIP3   OH2  836   7.135   1.947   4.271
  291TIP3    H1  837   7.088   2.022   4.308
  291TIP3    H2  838   7.114   1.875   4.330
  292TIP3   OH2  839   4.871   6.406   4.976
  292TIP3    H1  840   4.814   6.345   5.022
  292TIP3    H2  841   4.839   6.404   4.885
  293TIP3   OH2  842   2.164   2.762   3.598
  293TIP3    H1  843   2.147   2.732   3.509
  293TIP3    H2  844   2.077   2.766   3.639
  294TIP3   OH2  845   5.417   0.986   1.961
  294TIP3    H1  846   5.428   0.979   1.866
  294TIP3    H2  847   5.404   1.079   1.978
  295TIP3   OH2  848   5.837   3.665   2.477
  295TIP3    H1  849   5.842   3.679   2.571
  295TIP3    H2  850   5.793   3.580   2.467
  296TIP3   OH2  851   0.515   6.425   3.963
  296TIP3    H1  852   0.544   6.399   4.050
  296TIP3    H2  853   0.462   6.504   3.979
  297TIP3   OH2  854   7.057   0.181   1.008
  297TIP3    H1  855   7.099   0.261   0.977
  297TIP3    H2  856   7.106   0.111   0.964
  298TIP3   OH2  857   1.494   3.945   4.417
  298TIP3    H1  858   1.548   4.007   4.367
  298TIP3    H2  859   1.447   3.895   4.350
  299TIP3   OH2  860   4.949   5.781   3.650
  299TIP3    H1  861   5.036   5.742   3.642
  299TIP3    H2  862   4.898   5.741   3.579
  300TIP3   OH2  863   1.548   5.492   1.027
  300TIP3    H1  864   1.631   5.444   1.018
  300TIP3    H2  865   1.557   5.539   1.109
  301TIP3   OH2  866   3.130   6.427   2.313
  301TIP3    H1  867   3.152   6.412   2.405
  301TIP3    H2  868   3.201   6.386   2.264
  302TIP3   OH2  869   4.319   3.026   4.872
  302TIP3    H1  870   4.237   3.068   4.845
  302TIP3    H2  871   4.372   3.024   4.792
  303TIP3   OH2  872   0.645   4.102   1.797
  303TIP3    H1  873   0.576   4.041   1.769
  303TIP3    H2  874   0.710   4.098   1.727
  304TIP3   OH2  875   4.739   0.753   3.474
  304TIP3    H1  876   4.736   0.702   3.393
  304TIP3    H2  877   4.696   0.836   3.452
  305TIP3   OH2  878   2.858   6.449   3.439
  305TIP3    H1  879   2.875   6.543   3.428
  305TIP3    H2  880   2.893   6.409   3.360
  306TIP3   OH2  881   5.843   2.336   3.665
  306TIP3    H1  882   5.928   2.315   3.704
  306TIP3    H2  883   5.794   2.254   3.667
  307TIP3   OH2  884   6.110   5.400   0.490
  307TIP3    H1  885   6.027   5.418   0.534
  307TIP3    H2  886   6.103   5.445   0.406
  308TIP3   OH2  887   6.349   1.571   0.911
  308TIP3    H1  888   6.371   1.638   0.847
  308TIP3    H2  889   6.264   1.536   0.882
  309TIP3   OH2  890   5.544   0.909   4.929
  309TIP3    H1  891   5.621   0.861   4.901
  309TIP3    H2  892   5.578   0.981   4.981
  310TIP3   OH2  893   0.792   4.933   1.660
  310TIP3    H1  894   0.775   4.952   1.752
  310TIP3    H2  895   0.769   5.014   1.614
  311TIP3   OH2  896   0.094   3.851   5.696
  311TIP3    H1  897   0.069   3.894   5.777
  311TIP3    H2  898   0.010   3.834   5.652
  312TIP3   OH2  899   1.627   1.930   2.040
  312TIP3    H1  900   1.639   2.017   2.078
  312TIP3    H2  901   1.716   1.902   2.018
  313TIP3   OH2  902   6.040   2.240   2.288
  313TIP3    H1  903   6.128   2.223   2.321
  313TIP3    H2  904   5.982   2.223   2.362
  314TIP3   OH2  905   4.690   4.652   4.169
  314TIP3    H1  906   4.750   4.578   4.159
  314TIP3    H2  907   4.627   4.623   4.235
  315TIP3   OH2  908   6.430   1.514   3.053
  315TIP3    H1  909   6.493   1.496   2.983
  315TIP3    H2  910   6.418   1.608   3.052
  316TIP3   OH2  911   4.157   1.318   0.865
  316TIP3    H1  912   4.220   1.310   0.937
  316TIP3    H2  913   4.187   1.393   0.814
  317TIP3   OH2  914   5.147   6.149   2.045
  317TIP3    H1  915   5.222   6.162   2.103
  317TIP3    H2  916   5.077   6.201   2.084
  318TIP3   OH2  917   5.214   0.335   0.081
  318TIP3    H1  918   5.238   0.266   0.020
  318TIP3    H2  919   5.249   0.307   0.166
  319TIP3   OH2  920   3.503   0.637   1.574
  319TIP3    H1  921   3.527   0.730   1.573
  319TIP3    H2  922   3.508   0.613   1.667
  320TIP3   OH2  923   2.668   1.548   4.380
  320TIP3    H1  924   2.673   1.597   4.462
  320TIP3    H2  925   2.577   1.517   4.377
  321TIP3   OH2  926   3.826   1.864   3.937
  321TIP3    H1  927   3.860   1.814   4.011
  321TIP3    H2  928   3.731   1.865   3.950
  322TIP3   OH2  929   3.443   1.005   4.394
  322TIP3    H1  930   3.397   0.934   4.349
  322TIP3    H2  931   3.529   1.008   4.353
  323TIP3   OH2  932   6.625   2.189   0.391
  323TIP3    H1  933   6.669   2.261   0.437
  323TIP3    H2  934   6.600   2.128   0.460
  324TIP3   OH2  935   1.454   5.637   1.517
  324TIP3    H1  936   1.438   5.544   1.537
  324TIP3    H2  937   1.379   5.682   1.556
  325TIP3   OH2  938   2.662   2.040   0.696
  325TIP3    H1  939   2.597   2.025   0.764
  325TIP3    H2  940   2.675   2.135   0.696
  326TIP3   OH2  941   0.434   6.765   4.974
  326TIP3    H1  942   0.385   6.684   4.959
  326TIP3    H2  943   0.443   6.804   4.887
  327TIP3   OH2  944   4.772   5.489   5.467
  327TIP3    H1  945   4.677   5.493   5.475
  327TIP3    H2  946   4.796   5.408   5.513
  328TIP3   OH2  947   1.619   4.386   3.863
  328TIP3    H1  948   1.582   4.464   3.903
  328TIP3    H2  949   1.552   4.356   3.801
  329TIP3   OH2  950   6.828   1.321   0.232
  329TIP3    H1  951   6.850   1.249   0.291
  329TIP3    H2  952   6.747   1.292   0.189
  330TIP3   OH2  953   4.329   3.077   0.737
  330TIP3    H1  954   4.257   3.119   0.784
  330TIP3    H2  955   4.401   3.074   0.800
  331TIP3   OH2  956   1.133   5.581   3.291
  331TIP3    H1  957   1.159   5.507   3.345
  331TIP3    H2  958   1.077   5.543   3.222
  332TIP3   OH2  959   4.131   2.062   5.554
  332TIP3    H1  960   4.174   2.003   5.492
  332TIP3    H2  961   4.038   2.045   5.542
  333TIP3   OH2  962   6.140   4.019   1.380
  333TIP3    H1  963   6.159   4.049   1.470
  333TIP3    H2  964   6.226   3.998   1.344
  334TIP3   OH2  965   2.835   3.553   1.348
  334TIP3    H1  966   2.804   3.627   1.296
  334TIP3    H2  967   2.774   3.482   1.328
  335TIP3   OH2  968   4.281   3.946   3.939
  335TIP3    H1  969   4.201   3.900   3.915
  335TIP3    H2  970   4.342   3.877   3.964
  336TIP3   OH2  971   7.068   1.301   2.467
  336TIP3    H1  972   7.093   1.386   2.504
  336TIP3    H2  973   6.984   1.317   2.425
  337TIP3   OH2  974   6.298   1.122   2.680
  337TIP3    H1  975   6.338   1.064   2.745
  337TIP3    H2  976   6.263   1.195   2.731
  338TIP3   OH2  977   6.441   6.488   5.235
  338TIP3    H1  978   6.406   6.489   5.324
  338TIP3    H2  979   6.366   6.465   5.180
  339TIP3   OH2  980   4.121   1.183   3.821
  339TIP3    H1  981   4.041   1.204   3.869
  339TIP3    H2  982   4.149   1.098   3.854
  340TIP3   OH2  983   2.061   5.781   4.757
  340TIP3    H1  984   2.094   5.808   4.843
  340TIP3    H2  985   1.980   5.734   4.775
  341TIP3   OH2  986   5.869   6.672   2.142
  341TIP3    H1  987   5.939   6.614   2.170
  341TIP3    H2  988   5.911   6.757   2.131
  342TIP3   OH2  989   1.695   5.801   1.602
  342TIP3    H1  990   1.632   5.750   1.551
  342TIP3    H2  991   1.778   5.757   1.588
  343TIP3   OH2  992   5.342   5.441   2.736
  343TIP3    H1  993   5.345   5.362   2.681
  343TIP3    H2  994   5.431   5.450   2.769
  344TIP3   OH2  995   4.424   6.233   1.085
  344TIP3    H1  996   4.512   6.232   1.048
  344TIP3    H2  997   4.425   6.163   1.150
  345TIP3   OH2  998   5.597   4.009   1.227
  345TIP3    H1  999   5.592   3.962   1.310
  345TIP3    H2 1000   5.629   4.096   1.250
  346TIP3   OH2 1001   3.541   3.629   3.254
  346TIP3    H1 1002   3.491   3.586   3.323
  346TIP3    H2 1003   3.596   3.693   3.300
  347TIP3   OH2 1004   5.757   2.711   2.125
  347TIP3    H1 1005   5.723   2.799   2.145
  347TIP3    H2 1006   5.691   2.673   2.067
  348TIP3   OH2 1007   4.140   6.326   5.708
  348TIP3    H1 1008   4.193   6.249   5.687
  348TIP3    H2 1009   4.052   6.303   5.680
  349TIP3   OH2 1010   3.684   0.529   3.047
  349TIP3    H1 1011   3.629   0.463   3.089
  349TIP3    H2 1012   3.677   0.510   2.953
  350TIP3   OH2 1013   1.108   6.325   5.433
  350TIP3    H1 1014   1.143   6.359   5.350
  350TIP3    H2 1015   1.036   6.384   5.454
  351TIP3   OH2 1016   6.267   6.256   3.523
  351TIP3    H1 1017   6.228   6.337   3.491
  351TIP3    H2 1018   6.194   6.205   3.557
  352TIP3   OH2 1019   4.063   3.106   2.560
  352TIP3    H1 1020   3.980   3.139   2.525
  352TIP3    H2 1021   4.117   3.091   2.483
  353TIP3   OH2 1022   7.226   3.908   1.410
  353TIP3    H1 1023   7.277   3.828   1.396
  353TIP3    H2 1024   7.176   3.919   1.329
  354TIP3   OH2 1025   1.788   4.493   2.564
  354TIP3    H1 1026   1.821   4.509   2.652
  354TIP3    H2 1027   1.700   4.459   2.576
  355TIP3   OH2 1028   5.451   1.937   3.478
  355TIP3    H1 1029   5.468   1.957   3.570
  355TIP3    H2 1030   5.359   1.910   3.476
  356TIP3   OH2 1031   3.464   2.789   4.679
  356TIP3    H1 1032   3.396   2.771   4.615
  356TIP3    H2 1033   3.446   2.728   4.751
  357TIP3   OH2 1034   0.769   6.081   5.324
  357TIP3    H1 1035   0.816   6.081   5.241
  357TIP3    H2 1036   0.693   6.138   5.308
  358TIP3   OH2 1037   2.462   1.379   2.045
  358TIP3    H1 1038   2.500   1.464   2.069
  358TIP3    H2 1039   2.530   1.315   2.067
  359TIP3   OH2 1040   0.853   6.629   3.089
  359TIP3    H1 1041   0.821   6.688   3.157
  359TIP3    H2 1042   0.948   6.635   3.094
  360TIP3   OH2 1043   4.684   6.161   4.584
  360TIP3    H1 1044   4.649   6.249   4.573
  360TIP3    H2 1045   4.724   6.161   4.671
  361TIP3   OH2 1046   5.757   6.684   2.989
  361TIP3    H1 1047   5.692   6.720   3.049
  361TIP3    H2 1048   5.725   6.596   2.968
  362TIP3   OH2 1049   6.585   4.796  -0.033
  362TIP3    H1 1050   6.551   4.724   0.020
  362TIP3    H2 1051   6.541   4.873   0.000
  363TIP3   OH2 1052   6.250   0.768   5.585
  363TIP3    H1 1053   6.233   0.674   5.583
  363TIP3    H2 1054   6.173   0.807   5.543
  364TIP3   OH2 1055   5.700   1.508   4.516
  364TIP3    H1 1056   5.665   1.485   4.602
  364TIP3    H2 1057   5.779   1.455   4.508
  365TIP3   OH2 1058   5.912   4.542   0.879
  365TIP3    H1 1059   5.896   4.468   0.936
  365TIP3    H2 1060   5.971   4.599   0.929
  366TIP3   OH2 1061   6.312   3.644   1.259
  366TIP3    H1 1062   6.402   3.657   1.287
  366TIP3    H2 1063   6.290   3.555   1.288
  367TIP3   OH2 1064   2.896   6.195   1.891
  367TIP3    H1 1065   2.978   6.195   1.940
  367TIP3    H2 1066   2.904   6.268   1.830
  368TIP3   OH2 1067   7.038   3.789   3.022
  368TIP3    H1 1068   7.040   3.708   3.074
  368TIP3    H2 1069   7.000   3.854   3.082
  369TIP3   OH2 1070   3.464   5.307   1.577
  369TIP3    H1 1071   3.526   5.373   1.546
  369TIP3    H2 1072   3.511   5.224   1.569
  370TIP3   OH2 1073   4.651   5.660   3.685
  370TIP3    H1 1074   4.607   5.745   3.676
  370TIP3    H2 1075   4.632   5.615   3.602
  371TIP3   OH2 1076   0.725   4.979   2.329
  371TIP3    H1 1077   0.739   4.888   2.356
  371TIP3    H2 1078   0.732   5.030   2.409
  372TIP3   OH2 1079   6.033   5.149   1.017
  372TIP3    H1 1080   6.045   5.243   1.001
  372TIP3    H2 1081   6.090   5.131   1.092
  373TIP3   OH2 1082   5.314   5.922   4.136
  373TIP3    H1 1083   5.229   5.899   4.175
  373TIP3    H2 1084   5.377   5.869   4.186
  374TIP3   OH2 1085   0.587   2.690   1.004
  374TIP3    H1 1086   0.569   2.735   1.087
  374TIP3    H2 1087   0.608   2.761   0.943
  375TIP3   OH2 1088   0.374   4.143   4.181
  375TIP3    H1 1089   0.445   4.177   4.126
  375TIP3    H2 1090   0.379   4.196   4.261
  376TIP3   OH2 1091   7.038   1.015   4.457
  376TIP3    H1 1092   6.982   1.005   4.380
  376TIP3    H2 1093   7.007   0.948   4.518
  377TIP3   OH2 1094   4.153   0.476   5.015
  377TIP3    H1 1095   4.101   0.406   5.053
  377TIP3    H2 1096   4.136   0.552   5.071
  378TIP3   OH2 1097   3.704   5.250   4.708
  378TIP3    H1 1098   3.770   5.209   4.651
  378TIP3    H2 1099   3.630   5.190   4.704
  379TIP3   OH2 1100   3.372   0.564   3.929
  379TIP3    H1 1101   3.310   0.501   3.966
  379TIP3    H2 1102   3.341   0.578   3.840
  380TIP3   OH2 1103   5.985   0.082   1.072
  380TIP3    H1 1104   5.974  -0.011   1.094
  380TIP3    H2 1105   5.915   0.099   1.008
  381TIP3   OH2 1106   5.372   3.556   0.751
  381TIP3    H1 1107   5.451   3.543   0.804
  381TIP3    H2 1108   5.404   3.577   0.663
  382TIP3   OH2 1109   2.049   2.826   2.507
  382TIP3    H1 1110   2.025   2.815   2.599
  382TIP3    H2 1111   1.966   2.841   2.461
  383TIP3   OH2 1112   1.342   6.249   1.872
  383TIP3    H1 1113   1.315   6.320   1.814
  383TIP3    H2 1114   1.274   6.247   1.940
  384TIP3   OH2 1115   5.425   6.443   4.069
  384TIP3    H1 1116   5.508   6.435   4.023
  384TIP3    H2 1117   5.433   6.526   4.117
  385TIP3   OH2 1118   4.383   1.298   3.877
  385TIP3    H1 1119   4.314   1.247   3.834
  385TIP3    H2 1120   4.439   1.326   3.805
  386TIP3   OH2 1121   6.080   3.602   5.371
  386TIP3    H1 1122   6.153   3.551   5.405
  386TIP3    H2 1123   6.113   3.692   5.370
  387TIP3   OH2 1124   0.977   6.244   3.640
  387TIP3    H1 1125   0.949   6.334   3.654
  387TIP3    H2 1126   0.915   6.209   3.575
  388TIP3   OH2 1127   2.844   1.883   4.209
  388TIP3    H1 1128   2.928   1.850   4.243
  388TIP3    H2 1129   2.799   1.805   4.178
  389TIP3   OH2 1130   1.920   3.008   4.820
  389TIP3    H1 1131   1.951   3.039   4.735
  389TIP3    H2 1132   1.891   2.918   4.804
  390TIP3   OH2 1133   5.339   4.368   1.108
  390TIP3    H1 1134   5.320   4.285   1.151
  390TIP3    H2 1135   5.434   4.375   1.110
  391TIP3   OH2 1136   2.637   5.133   5.443
  391TIP3    H1 1137   2.587   5.083   5.378
  391TIP3    H2 1138   2.571   5.183   5.491
  392TIP3   OH2 1139   2.578   5.925   2.154
  392TIP3    H1 1140   2.664   5.896   2.122
  392TIP3    H2 1141   2.563   6.008   2.109
  393TIP3   OH2 1142   0.549   5.623   2.027
  393TIP3    H1 1143   0.567   5.717   2.016
  393TIP3    H2 1144   0.593   5.581   1.953
  394TIP3   OH2 1145   2.960   2.276   2.396
  394TIP3    H1 1146   2.955   2.208   2.463
  394TIP3    H2 1147   2.979   2.229   2.315
  395TIP3   OH2 1148   0.809   2.529   0.975
  395TIP3    H1 1149   0.738   2.591   0.983
  395TIP3    H2 1150   0.792   2.464   1.044
  396TIP3   OH2 1151   1.981   1.494   5.826
  396TIP3    H1 1152   2.043   1.484   5.754
  396TIP3    H2 1153   1.992   1.414   5.878
  397TIP3   OH2 1154   1.628   1.326   2.313
  397TIP3    H1 1155   1.718   1.306   2.340
  397TIP3    H2 1156   1.587   1.240   2.302
  398TIP3   OH2 1157   4.996   2.986   1.974
  398TIP3    H1 1158   4.908   2.981   1.936
  398TIP3    H2 1159   4.984   3.034   2.055
  399TIP3   OH2 1160   5.392   6.775   3.750
  399TIP3    H1 1161   5.426   6.724   3.823
  399TIP3    H2 1162   5.462   6.773   3.684
  400TIP3   OH2 1163   3.320   5.607   1.093
  400TIP3    H1 1164   3.326   5.537   1.028
  400TIP3    H2 1165   3.248   5.662   1.063
  401TIP3   OH2 1166   6.075   1.792   2.954
  401TIP3    H1 1167   6.124   1.861   2.998
  401TIP3    H2 1168   6.083   1.812   2.861
  402TIP3   OH2 1169   3.068   0.442   2.995
  402TIP3    H1 1170   3.077   0.418   3.088
  402TIP3    H2 1171   3.156   0.470   2.969
  403TIP3   OH2 1172   1.186   6.664   1.027
  403TIP3    H1 1173   1.199   6.584   0.975
  403TIP3    H2 1174   1.259   6.663   1.090
  404TIP3   OH2 1175   6.818   2.634   3.300
  404TIP3    H1 1176   6.893   2.595   3.256
  404TIP3    H2 1177   6.856   2.682   3.373
  405TIP3   OH2 1178   0.801   2.277   2.008
  405TIP3    H1 1179   0.893   2.297   1.992
  405TIP3    H2 1180   0.756   2.308   1.930
  406TIP3   OH2 1181   4.426   1.637   3.518
  406TIP3    H1 1182   4.333   1.657   3.534
  406TIP3    H2 1183   4.428   1.603   3.429
  407TIP3   OH2 1184   0.243   4.360   3.849
  407TIP3    H1 1185   0.187   4.284   3.835
  407TIP3    H2 1186   0.308   4.355   3.779
  408TIP3   OH2 1187   0.468   4.423   2.776
  408TIP3    H1 1188   0.486   4.365   2.850
  408TIP3    H2 1189   0.508   4.506   2.800
  409TIP3   OH2 1190   5.072   5.488   5.452
  409TIP3    H1 1191   5.156   5.454   5.483
  409TIP3    H2 1192   5.009   5.419   5.472
  410TIP3   OH2 1193   3.209   4.948   2.983
  410TIP3    H1 1194   3.232   4.855   2.977
  410TIP3    H2 1195   3.115   4.948   3.000
  411TIP3   OH2 1196   3.378   0.526   5.553
  411TIP3    H1 1197   3.407   0.580   5.480
  411TIP3    H2 1198   3.455   0.521   5.611
  412TIP3   OH2 1199   2.091   4.500   5.268
  412TIP3    H1 1200   2.019   4.527   5.325
  412TIP3    H2 1201   2.060   4.420   5.225
  413TIP3   OH2 1202   4.280   6.343   0.738
  413TIP3    H1 1203   4.294   6.249   0.728
  413TIP3    H2 1204   4.246   6.353   0.827
  414TIP3   OH2 1205   6.433   5.361   0.868
  414TIP3    H1 1206   6.342   5.390   0.869
  414TIP3    H2 1207   6.477   5.419   0.930
  415TIP3   OH2 1208   2.143   4.849   4.750
  415TIP3    H1 1209   2.070   4.892   4.795
  415TIP3    H2 1210   2.200   4.819   4.821
  416TIP3   OH2 1211   1.736   4.320   1.958
  416TIP3    H1 1212   1.668   4.361   1.904
  416TIP3    H2 1213   1.735   4.369   2.040
  417TIP3   OH2 1214   0.453   2.468   2.899
  417TIP3    H1 1215   0.450   2.498   2.990
  417TIP3    H2 1216   0.422   2.378   2.902
  418TIP3   OH2 1217   2.216   1.724   5.496
  418TIP3    H1 1218   2.259   1.803   5.465
  418TIP3    H2 1219   2.140   1.756   5.545
  419TIP3   OH2 1220   6.415   1.336   2.565
  419TIP3    H1 1221   6.365   1.270   2.612
  419TIP3    H2 1222   6.476   1.286   2.511
  420TIP3   OH2 1223   3.916   4.226   2.417
  420TIP3    H1 1224   3.822   4.229   2.437
  420TIP3    H2 1225   3.950   4.310   2.447
  421TIP3   OH2 1226   1.961   5.240   0.204
  421TIP3    H1 1227   1.868   5.265   0.202
  421TIP3    H2 1228   1.974   5.206   0.293
  422TIP3   OH2 1229   0.459   0.459   1.700
  422TIP3    H1 1230   0.479   0.366   1.710
  422TIP3    H2 1231   0.536   0.504   1.733
  423TIP3   OH2 1232   3.729   0.801   5.802
  423TIP3    H1 1233   3.702   0.799   5.894
  423TIP3    H2 1234   3.808   0.855   5.802
  424TIP3   OH2 1235   7.043   5.264   4.887
  424TIP3    H1 1236   6.996   5.348   4.892
  424TIP3    H2 1237   7.112   5.272   4.953
  425TIP3   OH2 1238   1.498   3.863   4.089
  425TIP3    H1 1239   1.437   3.791   4.102
  425TIP3    H2 1240   1.448   3.941   4.114
  426TIP3   OH2 1241   7.003   4.219   5.331
  426TIP3    H1 1242   7.006   4.309   5.362
  426TIP3    H2 1243   6.922   4.214   5.280
  427TIP3   OH2 1244   6.737   5.180   5.269
  427TIP3    H1 1245   6.784   5.249   5.223
  427TIP3    H2 1246   6.799   5.107   5.273
  428TIP3   OH2 1247   1.614   1.566   2.556
  428TIP3    H1 1248   1.665   1.538   2.632
  428TIP3    H2 1249   1.533   1.514   2.561
  429TIP3   OH2 1250   1.315   0.748   5.020
  429TIP3    H1 1251   1.329   0.677   5.083
  429TIP3    H2 1252   1.221   0.766   5.025
  430TIP3   OH2 1253   1.518   2.551   4.262
  430TIP3    H1 1254   1.447   2.518   4.317
  430TIP3    H2 1255   1.598   2.522   4.307
  431TIP3   OH2 1256   4.036   3.984   4.208
  431TIP3    H1 1257   4.085   4.048   4.157
  431TIP3    H2 1258   4.096   3.956   4.277
  432TIP3   OH2 1259   1.933   4.243   1.073
  432TIP3    H1 1260   1.860   4.182   1.067
  432TIP3    H2 1261   1.915   4.309   1.006
  433TIP3   OH2 1262   5.357   2.785   3.135
  433TIP3    H1 1263   5.268   2.807   3.163
  433TIP3    H2 1264   5.372   2.697   3.171
  434TIP3   OH2 1265   2.067   2.158   3.252
  434TIP3    H1 1266   2.055   2.126   3.163
  434TIP3    H2 1267   2.133   2.227   3.244
  435TIP3   OH2 1268   2.984   0.337   0.720
  435TIP3    H1 1269   3.013   0.383   0.641
  435TIP3    H2 1270   2.889   0.343   0.718
  436TIP3   OH2 1271   6.551   6.364   2.606
  436TIP3    H1 1272   6.486   6.330   2.546
  436TIP3    H2 1273   6.627   6.308   2.594
  437TIP3   OH2 1274   4.266   5.380   5.777
  437TIP3    H1 1275   4.182   5.340   5.799
  437TIP3    H2 1276   4.244   5.471   5.758
  438TIP3   OH2 1277   0.499   4.591   2.402
  438TIP3    H1 1278   0.482   4.600   2.495
  438TIP3    H2 1279   0.448   4.661   2.361
  439TIP3   OH2 1280   1.538   2.414   5.329
  439TIP3    H1 1281   1.602   2.344   5.347
  439TIP3    H2 1282   1.468   2.370   5.280
  440TIP3   OH2 1283   4.093   2.676   5.670
  440TIP3    H1 1284   4.147   2.603   5.642
  440TIP3    H2 1285   4.140   2.754   5.640
  441TIP3   OH2 1286   6.196   6.806   3.124
  441TIP3    H1 1287   6.282   6.817   3.165
  441TIP3    H2 1288   6.134   6.843   3.188
  442TIP3   OH2 1289   6.436   2.854   2.399
  442TIP3    H1 1290   6.475   2.834   2.314
  442TIP3    H2 1291   6.509   2.888   2.451
  443TIP3   OH2 1292   4.357   6.229   2.977
  443TIP3    H1 1293   4.433   6.183   3.013
  443TIP3    H2 1294   4.387   6.262   2.892
  444TIP3   OH2 1295   3.111   4.747   2.758
  444TIP3    H1 1296   3.186   4.732   2.815
  444TIP3    H2 1297   3.046   4.682   2.786
  445TIP3   OH2 1298   2.715   2.459   1.949
  445TIP3    H1 1299   2.636   2.498   1.988
  445TIP3    H2 1300   2.684   2.411   1.873
  446TIP3   OH2 1301   0.545   1.127   1.970
  446TIP3    H1 1302   0.482   1.151   2.038
  446TIP3    H2 1303   0.611   1.196   1.973
  447TIP3   OH2 1304   4.251   6.551   3.530
  447TIP3    H1 1305   4.182   6.590   3.477
  447TIP3    H2 1306   4.228   6.458   3.534
  448TIP3   OH2 1307   1.025   1.643   3.744
  448TIP3    H1 1308   0.931   1.643   3.761
  448TIP3    H2 1309   1.042   1.729   3.705
  449TIP3   OH2 1310   3.608   4.872   4.881
  449TIP3    H1 1311   3.540   4.811   4.910
  449TIP3    H2 1312   3.576   4.904   4.796
  450TIP3   OH2 1313   4.478   6.015   5.587
  450TIP3    H1 1314   4.427   6.088   5.550
  450TIP3    H2 1315   4.560   6.056   5.615
  451TIP3   OH2 1316   1.922   4.895   2.101
  451TIP3    H1 1317   1.888   4.971   2.055
  451TIP3    H2 1318   1.972   4.931   2.174
  452TIP3   OH2 1319   4.052   6.304   5.395
  452TIP3    H1 1320   4.142   6.333   5.384
  452TIP3    H2 1321   4.006   6.381   5.429
  453TIP3   OH2 1322   2.649   1.781   3.854
  453TIP3    H1 1323   2.582   1.722   3.887
  453TIP3    H2 1324   2.723   1.724   3.834
  454TIP3   OH2 1325   7.096   1.338   5.109
  454TIP3    H1 1326   7.113   1.417   5.160
  454TIP3    H2 1327   7.117   1.363   5.019
  455TIP3   OH2 1328   0.765   5.654   2.864
  455TIP3    H1 1329   0.855   5.688   2.863
  455TIP3    H2 1330   0.724   5.695   2.789
  456TIP3   OH2 1331   1.559   0.814   0.200
  456TIP3    H1 1332   1.642   0.810   0.153
  456TIP3    H2 1333   1.557   0.735   0.253
  457TIP3   OH2 1334   4.983   1.897   1.663
  457TIP3    H1 1335   5.029   1.870   1.583
  457TIP3    H2 1336   5.049   1.942   1.715
  458TIP3   OH2 1337   0.671   1.880   4.687
  458TIP3    H1 1338   0.653   1.913   4.775
  458TIP3    H2 1339   0.590   1.836   4.661
  459TIP3   OH2 1340   0.646   2.685   2.183
  459TIP3    H1 1341   0.582   2.682   2.254
  459TIP3    H2 1342   0.661   2.779   2.168
  460TIP3   OH2 1343   5.776   1.707   3.070
  460TIP3    H1 1344   5.808   1.691   2.981
  460TIP3    H2 1345   5.824   1.645   3.125
  461TIP3   OH2 1346   1.718   1.361   3.000
  461TIP3    H1 1347   1.813   1.369   3.012
  461TIP3    H2 1348   1.681   1.437   3.045
  462TIP3   OH2 1349   2.473   1.846   1.752
  462TIP3    H1 1350   2.448   1.905   1.681
  462TIP3    H2 1351   2.483   1.904   1.828
  463TIP3   OH2 1352   1.791   4.866   4.087
  463TIP3    H1 1353   1.732   4.870   4.162
  463TIP3    H2 1354   1.787   4.953   4.047
  464TIP3   OH2 1355   2.536   4.515   0.686
  464TIP3    H1 1356   2.608   4.468   0.643
  464TIP3    H2 1357   2.457   4.468   0.659
  465TIP3   OH2 1358   5.595   0.086   4.382
  465TIP3    H1 1359   5.610   0.147   4.454
  465TIP3    H2 1360   5.536   0.133   4.323
  466TIP3   OH2 1361   0.882   2.517   2.282
  466TIP3    H1 1362   0.975   2.509   2.305
  466TIP3    H2 1363   0.835   2.499   2.364
  467TIP3   OH2 1364   0.584   1.459   4.414
  467TIP3    H1 1365   0.572   1.366   4.393
  467TIP3    H2 1366   0.666   1.463   4.462
  468TIP3   OH2 1367   5.361   5.465   0.446
  468TIP3    H1 1368   5.317   5.469   0.531
  468TIP3    H2 1369   5.431   5.401   0.458
  469TIP3   OH2 1370   2.824   1.777   5.818
  469TIP3    H1 1371   2.787   1.865   5.815
  469TIP3    H2 1372   2.838   1.754   5.726
  470TIP3   OH2 1373   4.805   1.716   0.231
  470TIP3    H1 1374   4.853   1.693   0.151
  470TIP3    H2 1375   4.761   1.635   0.256
  471TIP3   OH2 1376   4.877   2.637   5.288
  471TIP3    H1 1377   4.839   2.551   5.303
  471TIP3    H2 1378   4.846   2.662   5.201
  472TIP3   OH2 1379   2.397   0.264   3.028
  472TIP3    H1 1380   2.466   0.244   2.965
  472TIP3    H2 1381   2.393   0.187   3.085
  473TIP3   OH2 1382   1.187   3.789   3.915
  473TIP3    H1 1383   1.170   3.820   4.003
  473TIP3    H2 1384   1.258   3.845   3.883
  474TIP3   OH2 1385   1.236   0.937   5.783
  474TIP3    H1 1386   1.144   0.955   5.800
  474TIP3    H2 1387   1.242   0.933   5.687
  475TIP3   OH2 1388   0.286   0.233   4.253
  475TIP3    H1 1389   0.192   0.244   4.237
  475TIP3    H2 1390   0.327   0.298   4.196
  476TIP3   OH2 1391   3.261   6.454   3.907
  476TIP3    H1 1392   3.266   6.378   3.849
  476TIP3    H2 1393   3.184   6.501   3.877
  477TIP3   OH2 1394   2.214   2.347   4.527
  477TIP3    H1 1395   2.174   2.407   4.465
  477TIP3    H2 1396   2.218   2.264   4.481
  478TIP3   OH2 1397   0.274   5.150   4.104
  478TIP3    H1 1398   0.349   5.159   4.163
  478TIP3    H2 1399   0.262   5.238   4.068
  479TIP3   OH2 1400   2.471   1.554   4.023
  479TIP3    H1 1401   2.397   1.610   3.998
  479TIP3    H2 1402   2.434   1.466   4.027
  480TIP3   OH2 1403   3.744   0.520   0.734
  480TIP3    H1 1404   3.692   0.513   0.815
  480TIP3    H2 1405   3.719   0.443   0.683
  481TIP3   OH2 1406   0.246   5.248   0.045
  481TIP3    H1 1407   0.319   5.192   0.020
  481TIP3    H2 1408   0.191   5.252  -0.033
  482TIP3   OH2 1409   1.309   0.505   3.642
  482TIP3    H1 1410   1.330   0.519   3.550
  482TIP3    H2 1411   1.257   0.425   3.643
  483TIP3   OH2 1412   6.850   4.879   0.698
  483TIP3    H1 1413   6.762   4.842   0.694
  483TIP3    H2 1414   6.907   4.808   0.668
  484TIP3   OH2 1415   1.611   6.665   1.232
  484TIP3    H1 1416   1.526   6.710   1.230
  484TIP3    H2 1417   1.590   6.573   1.243
  485TIP3   OH2 1418   2.382   4.784   2.000
  485TIP3    H1 1419   2.355   4.762   2.090
  485TIP3    H2 1420   2.387   4.699   1.955
  486TIP3   OH2 1421   0.220   2.015   2.183
  486TIP3    H1 1422   0.194   1.949   2.248
  486TIP3    H2 1423   0.158   2.086   2.196
  487TIP3   OH2 1424   5.128   2.288   1.022
  487TIP3    H1 1425   5.038   2.318   1.026
  487TIP3    H2 1426   5.131   2.229   0.946
  488TIP3   OH2 1427   3.589   5.423   5.805
  488TIP3    H1 1428   3.631   5.466   5.731
  488TIP3    H2 1429   3.500   5.404   5.775
  489TIP3   OH2 1430   1.162   2.516   0.961
  489TIP3    H1 1431   1.107   2.491   0.887
  489TIP3    H2 1432   1.101   2.521   1.035
  490TIP3   OH2 1433   4.107   4.425   2.513
  490TIP3    H1 1434   4.037   4.421   2.577
  490TIP3    H2 1435   4.184   4.392   2.560
  491TIP3   OH2 1436   6.115   0.646   1.220
  491TIP3    H1 1437   6.154   0.575   1.169
  491TIP3    H2 1438   6.094   0.606   1.304
  492TIP3   OH2 1439   2.381   4.919   4.637
  492TIP3    H1 1440   2.420   4.845   4.591
  492TIP3    H2 1441   2.294   4.888   4.662
  493TIP3   OH2 1442   6.960   3.383   4.190
  493TIP3    H1 1443   6.926   3.472   4.202
  493TIP3    H2 1444   7.031   3.393   4.126
  494TIP3   OH2 1445   1.921   2.474   3.861
  494TIP3    H1 1446   1.882   2.483   3.773
  494TIP3    H2 1447   1.853   2.506   3.920
  495TIP3   OH2 1448   6.671   6.104   2.612
  495TIP3    H1 1449   6.745   6.044   2.600
  495TIP3    H2 1450   6.603   6.071   2.554
  496TIP3   OH2 1451   5.765   1.899   4.611
  496TIP3    H1 1452   5.831   1.913   4.543
  496TIP3    H2 1453   5.813   1.858   4.682
  497TIP3   OH2 1454   7.179   6.763   2.521
  497TIP3    H1 1455   7.194   6.847   2.565
  497TIP3    H2 1456   7.084   6.755   2.514
  498TIP3   OH2 1457   1.829   3.364   1.574
  498TIP3    H1 1458   1.836   3.273   1.603
  498TIP3    H2 1459   1.851   3.361   1.481
  499TIP3   OH2 1460   6.631   4.806   0.459
  499TIP3    H1 1461   6.705   4.820   0.400
  499TIP3    H2 1462   6.581   4.888   0.455
  500TIP3   OH2 1463   4.592   3.868   3.438
  500TIP3    H1 1464   4.611   3.958   3.412
  500TIP3    H2 1465   4.663   3.844   3.497
  501TIP3   OH2 1466  -0.029   3.668   4.621
  501TIP3    H1 1467   0.052   3.715   4.604
  501TIP3    H2 1468  -0.008   3.576   4.603
  502TIP3   OH2 1469   1.833   1.509   0.968
  502TIP3    H1 1470   1.889   1.512   0.891
  502TIP3    H2 1471   1.891   1.484   1.039
  503TIP3   OH2 1472   5.841   6.013   1.239
  503TIP3    H1 1473   5.849   5.999   1.145
  503TIP3    H2 1474   5.828   5.925   1.275
  504TIP3   OH2 1475   5.051   4.746   4.448
  504TIP3    H1 1476   4.982   4.701   4.496
  504TIP3    H2 1477   5.125   4.748   4.509
  505TIP3   OH2 1478   2.188   4.164   0.854
  505TIP3    H1 1479   2.283   4.162   0.864
  505TIP3    H2 1480   2.163   4.252   0.881
  506TIP3   OH2 1481   0.677   3.361   4.959
  506TIP3    H1 1482   0.673   3.266   4.948
  506TIP3    H2 1483   0.706   3.374   5.049
  507TIP3   OH2 1484   0.116   0.230   1.778
  507TIP3    H1 1485   0.168   0.194   1.706
  507TIP3    H2 1486   0.034   0.180   1.774
  508TIP3   OH2 1487   4.230   4.949   2.889
  508TIP3    H1 1488   4.318   4.914   2.903
  508TIP3    H2 1489   4.178   4.874   2.861
  509TIP3   OH2 1490   3.758   2.764   2.710
  509TIP3    H1 1491   3.823   2.789   2.645
  509TIP3    H2 1492   3.674   2.770   2.664
  510TIP3   OH2 1493   6.049   2.513   3.239
  510TIP3    H1 1494   6.024   2.448   3.305
  510TIP3    H2 1495   6.073   2.461   3.162
  511TIP3   OH2 1496   5.405   1.345   3.588
  511TIP3    H1 1497   5.313   1.354   3.611
  511TIP3    H2 1498   5.452   1.356   3.670
  512TIP3   OH2 1499   3.303   2.672   5.730
  512TIP3    H1 1500   3.333   2.602   5.673
  512TIP3    H2 1501   3.220   2.640   5.766
  513TIP3   OH2 1502   1.591   2.905   4.869
  513TIP3    H1 1503   1.655   2.891   4.939
  513TIP3    H2 1504   1.535   2.975   4.902
  514TIP3   OH2 1505   5.935   2.393   2.780
  514TIP3    H1 1506   5.888   2.450   2.720
  514TIP3    H2 1507   5.963   2.319   2.726
  515TIP3   OH2 1508   1.996   3.011   5.692
  515TIP3    H1 1509   1.902   3.000   5.708
  515TIP3    H2 1510   2.026   3.070   5.762
  516TIP3   OH2 1511   6.641   3.315   3.473
  516TIP3    H1 1512   6.550   3.344   3.484
  516TIP3    H2 1513   6.686   3.349   3.551
  517TIP3   OH2 1514   5.874   6.311   0.619
  517TIP3    H1 1515   5.817   6.388   0.615
  517TIP3    H2 1516   5.849   6.258   0.543
  518TIP3   OH2 1517   5.593   0.337   4.887
  518TIP3    H1 1518   5.596   0.243   4.901
  518TIP3    H2 1519   5.544   0.371   4.962
  519TIP3   OH2 1520   0.248   0.709   3.675
  519TIP3    H1 1521   0.304   0.632   3.675
  519TIP3    H2 1522   0.309   0.783   3.677
  520TIP3   OH2 1523   1.410   2.936   0.229
  520TIP3    H1 1524   1.383   2.885   0.153
  520TIP3    H2 1525   1.424   3.024   0.196
  521TIP3   OH2 1526   1.316   1.366   1.390
  521TIP3    H1 1527   1.349   1.444   1.435
  521TIP3    H2 1528   1.394   1.323   1.356
  522TIP3   OH2 1529   3.598   5.951   2.298
  522TIP3    H1 1530   3.630   5.900   2.224
  522TIP3    H2 1531   3.516   5.909   2.323
  523TIP3   OH2 1532   0.229   0.722   1.836
  523TIP3    H1 1533   0.215   0.629   1.853
  523TIP3    H2 1534   0.215   0.764   1.921
  524TIP3   OH2 1535   6.465   5.062   4.917
  524TIP3    H1 1536   6.433   5.087   5.004
  524TIP3    H2 1537   6.535   5.124   4.898
  525TIP3   OH2 1538   4.830   4.020   3.600
  525TIP3    H1 1539   4.922   3.995   3.594
  525TIP3    H2 1540   4.788   3.946   3.643
  526TIP3   OH2 1541   5.410   6.696   5.451
  526TIP3    H1 1542   5.421   6.791   5.462
  526TIP3    H2 1543   5.393   6.685   5.357
  527TIP3   OH2 1544   3.398   2.200   3.918
  527TIP3    H1 1545   3.328   2.253   3.956
  527TIP3    H2 1546   3.473   2.260   3.911
  528TIP3   OH2 1547   1.649   3.058   1.378
  528TIP3    H1 1548   1.672   3.043   1.286
  528TIP3    H2 1549   1.727   3.031   1.427
  529TIP3   OH2 1550   4.566   1.482   1.649
  529TIP3    H1 1551   4.639   1.432   1.612
  529TIP3    H2 1552   4.601   1.572   1.656
  530TIP3   OH2 1553   5.042   2.805   1.591
  530TIP3    H1 1554   4.948   2.823   1.584
  530TIP3    H2 1555   5.082   2.858   1.521
  531TIP3   OH2 1556   1.963   4.764   5.148
  531TIP3    H1 1557   1.953   4.804   5.061
  531TIP3    H2 1558   1.948   4.671   5.134
  532TIP3   OH2 1559   1.706   5.308   0.546
  532TIP3    H1 1560   1.693   5.384   0.489
  532TIP3    H2 1561   1.619   5.292   0.584
  533TIP3   OH2 1562   4.552   1.979   4.380
  533TIP3    H1 1563   4.482   1.961   4.317
  533TIP3    H2 1564   4.516   1.952   4.465
  534TIP3   OH2 1565   1.118   4.211   1.916
  534TIP3    H1 1566   1.161   4.172   1.992
  534TIP3    H2 1567   1.113   4.140   1.852
  535TIP3   OH2 1568   1.808   0.768   4.386
  535TIP3    H1 1569   1.816   0.784   4.292
  535TIP3    H2 1570   1.892   0.797   4.422
  536TIP3   OH2 1571   3.379   3.485   3.070
  536TIP3    H1 1572   3.286   3.479   3.094
  536TIP3    H2 1573   3.422   3.517   3.150
  537TIP3   OH2 1574   1.161   5.479   2.323
  537TIP3    H1 1575   1.239   5.529   2.345
  537TIP3    H2 1576   1.107   5.481   2.403
  538TIP3   OH2 1577   0.829   2.112   5.555
  538TIP3    H1 1578   0.811   2.070   5.471
  538TIP3    H2 1579   0.805   2.046   5.620
  539TIP3   OH2 1580   5.242   4.376   5.143
  539TIP3    H1 1581   5.278   4.287   5.138
  539TIP3    H2 1582   5.151   4.363   5.167
  540TIP3   OH2 1583   2.204   4.385   1.875
  540TIP3    H1 1584   2.238   4.371   1.786
  540TIP3    H2 1585   2.128   4.327   1.880
  541TIP3   OH2 1586   5.093   2.637   5.514
  541TIP3    H1 1587   5.075   2.713   5.570
  541TIP3    H2 1588   5.015   2.627   5.460
  542TIP3   OH2 1589   1.108   1.523   5.849
  542TIP3    H1 1590   1.075   1.604   5.811
  542TIP3    H2 1591   1.131   1.469   5.773
  543TIP3   OH2 1592   5.201   3.354   1.074
  543TIP3    H1 1593   5.250   3.301   1.010
  543TIP3    H2 1594   5.192   3.297   1.150
  544TIP3   OH2 1595   5.123   5.617   4.362
  544TIP3    H1 1596   5.094   5.571   4.440
  544TIP3    H2 1597   5.193   5.562   4.325
  545TIP3   OH2 1598   0.696   4.074   5.250
  545TIP3    H1 1599   0.749   4.135   5.302
  545TIP3    H2 1600   0.617   4.060   5.303
  546TIP3   OH2 1601   5.239   5.486   5.177
  546TIP3    H1 1602   5.181   5.555   5.208
  546TIP3    H2 1603   5.219   5.411   5.232
  547TIP3   OH2 1604   3.273   6.079   1.506
  547TIP3    H1 1605   3.255   6.013   1.439
  547TIP3    H2 1606   3.190   6.090   1.552
  548TIP3   OH2 1607   4.938   4.190   0.350
  548TIP3    H1 1608   4.888   4.186   0.268
  548TIP3    H2 1609   5.029   4.174   0.323
  549TIP3   OH2 1610   1.361   2.854   5.644
  549TIP3    H1 1611   1.371   2.765   5.676
  549TIP3    H2 1612   1.342   2.906   5.722
  550TIP3   OH2 1613   5.613   5.074   1.959
  550TIP3    H1 1614   5.657   5.072   1.874
  550TIP3    H2 1615   5.643   4.994   2.003
  551TIP3   OH2 1616   4.900   0.520   5.574
  551TIP3    H1 1617   4.941   0.531   5.659
  551TIP3    H2 1618   4.810   0.549   5.587
  552TIP3   OH2 1619   2.275   4.208   3.194
  552TIP3    H1 1620   2.351   4.157   3.165
  552TIP3    H2 1621   2.222   4.145   3.243
  553TIP3   OH2 1622   5.223   3.158   2.390
  553TIP3    H1 1623   5.137   3.118   2.404
  553TIP3    H2 1624   5.273   3.090   2.345
  554TIP3   OH2 1625   1.295   3.320   3.456
  554TIP3    H1 1626   1.358   3.366   3.513
  554TIP3    H2 1627   1.229   3.287   3.516
  555TIP3   OH2 1628   6.239   1.738   1.370
  555TIP3    H1 1629   6.293   1.760   1.295
  555TIP3    H2 1630   6.274   1.790   1.442
  556TIP3   OH2 1631   6.477   0.398   0.688
  556TIP3    H1 1632   6.517   0.412   0.774
  556TIP3    H2 1633   6.475   0.485   0.649
  557TIP3   OH2 1634   3.240   1.354   1.471
  557TIP3    H1 1635   3.323   1.401   1.482
  557TIP3    H2 1636   3.213   1.332   1.560
  558TIP3   OH2 1637   4.281   0.048   4.206
  558TIP3    H1 1638   4.221  -0.027   4.210
  558TIP3    H2 1639   4.325   0.049   4.291
  559TIP3   OH2 1640   6.717   6.776   5.563
  559TIP3    H1 1641   6.719   6.690   5.522
  559TIP3    H2 1642   6.764   6.765   5.646
  560TIP3   OH2 1643   0.060   4.871   4.147
  560TIP3    H1 1644   0.046   4.935   4.078
  560TIP3    H2 1645  -0.007   4.804   4.133
  561TIP3   OH2 1646   6.791   4.344   2.250
  561TIP3    H1 1647   6.883   4.324   2.229
  561TIP3    H2 1648   6.772   4.424   2.201
  562TIP3   OH2 1649   1.680   2.798   3.860
  562TIP3    H1 1650   1.633   2.782   3.942
  562TIP3    H2 1651   1.669   2.718   3.810
  563TIP3   OH2 1652   3.387   4.364   0.772
  563TIP3    H1 1653   3.434   4.413   0.840
  563TIP3    H2 1654   3.358   4.430   0.710
  564TIP3   OH2 1655   7.095   3.599   3.354
  564TIP3    H1 1656   7.071   3.691   3.361
  564TIP3    H2 1657   7.165   3.587   3.419
  565TIP3   OH2 1658   1.958   0.525   4.380
  565TIP3    H1 1659   1.869   0.542   4.412
  565TIP3    H2 1660   2.010   0.512   4.460
  566TIP3   OH2 1661   3.992   6.732   2.768
  566TIP3    H1 1662   4.024   6.643   2.778
  566TIP3    H2 1663   3.952   6.753   2.853
  567TIP3   OH2 1664   5.711   4.995   0.692
  567TIP3    H1 1665   5.788   4.947   0.721
  567TIP3    H2 1666   5.650   4.991   0.766
  568TIP3   OH2 1667   4.121   3.644   3.629
  568TIP3    H1 1668   4.065   3.603   3.563
  568TIP3    H2 1669   4.066   3.712   3.668
  569TIP3   OH2 1670   0.608   3.133   0.992
  569TIP3    H1 1671   0.577   3.171   0.910
  569TIP3    H2 1672   0.560   3.180   1.060
  570TIP3   OH2 1673   2.195   5.183   2.030
  570TIP3    H1 1674   2.204   5.238   2.108
  570TIP3    H2 1675   2.284   5.158   2.007
  571TIP3   OH2 1676   6.476   6.712   2.183
  571TIP3    H1 1677   6.527   6.791   2.204
  571TIP3    H2 1678   6.415   6.741   2.116
  572TIP3   OH2 1679   6.894   6.291   1.984
  572TIP3    H1 1680   6.833   6.294   2.058
  572TIP3    H2 1681   6.920   6.383   1.971
  573TIP3   OH2 1682   1.261   0.061   3.790
  573TIP3    H1 1683   1.310  -0.018   3.814
  573TIP3    H2 1684   1.177   0.027   3.759
  574TIP3   OH2 1685   2.753   1.742   0.433
  574TIP3    H1 1686   2.819   1.741   0.364
  574TIP3    H2 1687   2.679   1.788   0.395
  575TIP3   OH2 1688   6.162   6.296   5.200
  575TIP3    H1 1689   6.100   6.366   5.219
  575TIP3    H2 1690   6.226   6.336   5.142
  576TIP3   OH2 1691   0.250   3.284   5.312
  576TIP3    H1 1692   0.171   3.234   5.289
  576TIP3    H2 1693   0.246   3.362   5.256
  577TIP3   OH2 1694   1.809   5.771   0.584
  577TIP3    H1 1695   1.770   5.802   0.503
  577TIP3    H2 1696   1.871   5.704   0.557
  578TIP3   OH2 1697   2.973   3.405   3.295
  578TIP3    H1 1698   3.045   3.438   3.242
  578TIP3    H2 1699   2.895   3.448   3.258
  579TIP3   OH2 1700   3.852   5.210   4.943
  579TIP3    H1 1701   3.808   5.245   4.866
  579TIP3    H2 1702   3.793   5.230   5.016
  580TIP3   OH2 1703   5.651   6.646   0.184
  580TIP3    H1 1704   5.688   6.669   0.269
  580TIP3    H2 1705   5.567   6.690   0.182
  581TIP3   OH2 1706   5.917   6.299   2.113
  581TIP3    H1 1707   5.828   6.318   2.142
  581TIP3    H2 1708   5.966   6.379   2.133
  582TIP3   OH2 1709   5.489   3.201   3.650
  582TIP3    H1 1710   5.490   3.239   3.562
  582TIP3    H2 1711   5.579   3.210   3.681
  583TIP3   OH2 1712   6.564   6.005   1.789
  583TIP3    H1 1713   6.641   6.008   1.732
  583TIP3    H2 1714   6.599   6.018   1.877
  584TIP3   OH2 1715   2.220   3.526   1.014
  584TIP3    H1 1716   2.226   3.529   0.919
  584TIP3    H2 1717   2.188   3.438   1.033
  585TIP3   OH2 1718   4.300   4.823   1.924
  585TIP3    H1 1719   4.238   4.895   1.914
  585TIP3    H2 1720   4.376   4.849   1.871
  586TIP3   OH2 1721   3.019   3.641   4.232
  586TIP3    H1 1722   2.969   3.559   4.228
  586TIP3    H2 1723   3.022   3.662   4.325
  587TIP3   OH2 1724   3.152   6.580   2.949
  587TIP3    H1 1725   3.147   6.485   2.941
  587TIP3    H2 1726   3.170   6.611   2.860
  588TIP3   OH2 1727   5.289   2.925   1.467
  588TIP3    H1 1728   5.345   2.848   1.475
  588TIP3    H2 1729   5.334   2.982   1.404
  589TIP3   OH2 1730   7.003   2.266   2.751
  589TIP3    H1 1731   6.973   2.310   2.671
  589TIP3    H2 1732   7.094   2.243   2.732
  590TIP3   OH2 1733   1.782   0.794   3.367
  590TIP3    H1 1734   1.870   0.830   3.372
  590TIP3    H2 1735   1.730   0.863   3.325
  591TIP3   OH2 1736   0.435   3.561   5.749
  591TIP3    H1 1737   0.500   3.543   5.682
  591TIP3    H2 1738   0.353   3.529   5.713
  592TIP3   OH2 1739   3.231   4.915   5.670
  592TIP3    H1 1740   3.201   5.006   5.676
  592TIP3    H2 1741   3.151   4.864   5.660
  593TIP3   OH2 1742   5.886   1.212   3.346
  593TIP3    H1 1743   5.976   1.183   3.329
  593TIP3    H2 1744   5.878   1.293   3.297
  594TIP3   OH2 1745   2.401   6.175   0.778
  594TIP3    H1 1746   2.322   6.221   0.747
  594TIP3    H2 1747   2.416   6.107   0.712
  595TIP3   OH2 1748   3.036   6.111   4.029
  595TIP3    H1 1749   2.947   6.133   4.057
  595TIP3    H2 1750   3.093   6.152   4.094
  596TIP3   OH2 1751   0.332   4.320   4.992
  596TIP3    H1 1752   0.331   4.305   4.897
  596TIP3    H2 1753   0.239   4.320   5.017
  597TIP3   OH2 1754   1.139   0.327   1.773
  597TIP3    H1 1755   1.149   0.417   1.802
  597TIP3    H2 1756   1.061   0.295   1.819
  598TIP3   OH2 1757   1.638   1.193   3.646
  598TIP3    H1 1758   1.609   1.112   3.605
  598TIP3    H2 1759   1.686   1.240   3.578
  599TIP3   OH2 1760   1.342   0.573   0.340
  599TIP3    H1 1761   1.389   0.562   0.423
  599TIP3    H2 1762   1.381   0.507   0.282
  600TIP3   OH2 1763   3.714   3.798   2.014
  600TIP3    H1 1764   3.628   3.815   2.052
  600TIP3    H2 1765   3.777   3.818   2.083
  601TIP3   OH2 1766   0.867   2.075   0.927
  601TIP3    H1 1767   0.895   2.060   1.017
  601TIP3    H2 1768   0.872   1.990   0.885
  602TIP3   OH2 1769   4.812   5.954   1.976
  602TIP3    H1 1770   4.752   5.917   1.912
  602TIP3    H2 1771   4.897   5.952   1.932
  603TIP3   OH2 1772   2.536   0.735   1.848
  603TIP3    H1 1773   2.510   0.714   1.758
  603TIP3    H2 1774   2.616   0.684   1.862
  604TIP3   OH2 1775   2.915   2.593   5.884
  604TIP3    H1 1776   2.881   2.639   5.808
  604TIP3    H2 1777   2.920   2.659   5.953
  605TIP3   OH2 1778   1.005   4.817   3.889
  605TIP3    H1 1779   0.968   4.766   3.816
  605TIP3    H2 1780   1.053   4.752   3.940
  606TIP3   OH2 1781   1.245   2.681   2.080
  606TIP3    H1 1782   1.273   2.765   2.042
  606TIP3    H2 1783   1.206   2.705   2.164
  607TIP3   OH2 1784   1.466   5.412   2.701
  607TIP3    H1 1785   1.440   5.410   2.609
  607TIP3    H2 1786   1.544   5.358   2.705
  608TIP3   OH2 1787   0.197   0.265   0.159
  608TIP3    H1 1788   0.189   0.250   0.065
  608TIP3    H2 1789   0.203   0.360   0.168
  609TIP3   OH2 1790   6.791   1.534   2.638
  609TIP3    H1 1791   6.727   1.524   2.567
  609TIP3    H2 1792   6.738   1.553   2.716
  610TIP3   OH2 1793   0.497   3.406   2.061
  610TIP3    H1 1794   0.572   3.436   2.112
  610TIP3    H2 1795   0.524   3.417   1.970
  611TIP3   OH2 1796   2.269   5.233   0.846
  611TIP3    H1 1797   2.210   5.169   0.805
  611TIP3    H2 1798   2.239   5.318   0.813
  612TIP3   OH2 1799   1.972   0.819   0.657
  612TIP3    H1 1800   2.056   0.831   0.613
  612TIP3    H2 1801   1.964   0.724   0.668
  613TIP3   OH2 1802   2.742   0.738   0.663
  613TIP3    H1 1803   2.791   0.790   0.728
  613TIP3    H2 1804   2.694   0.804   0.612
  614TIP3   OH2 1805   2.357   6.120   0.125
  614TIP3    H1 1806   2.286   6.074   0.170
  614TIP3    H2 1807   2.349   6.210   0.154
  615TIP3   OH2 1808   5.020   4.913   0.128
  615TIP3    H1 1809   5.091   4.924   0.191
  615TIP3    H2 1810   4.969   4.839   0.162
  616TIP3   OH2 1811   2.077   4.178   0.417
  616TIP3    H1 1812   2.170   4.157   0.431
  616TIP3    H2 1813   2.064   4.261   0.462
  617TIP3   OH2 1814   1.381   6.465   3.997
  617TIP3    H1 1815   1.308   6.527   3.998
  617TIP3    H2 1816   1.340   6.380   3.978
  618TIP3   OH2 1817   3.156   2.452   2.226
  618TIP3    H1 1818   3.061   2.444   2.234
  618TIP3    H2 1819   3.188   2.362   2.230
  619TIP3   OH2 1820   3.667   3.929   3.281
  619TIP3    H1 1821   3.706   4.015   3.269
  619TIP3    H2 1822   3.606   3.939   3.354
  620TIP3   OH2 1823   5.921   5.179   0.048
  620TIP3    H1 1824   5.979   5.243   0.090
  620TIP3    H2 1825   5.840   5.182   0.100
  621TIP3   OH2 1826   4.680   1.807   2.024
  621TIP3    H1 1827   4.755   1.795   1.966
  621TIP3    H2 1828   4.710   1.871   2.089
  622TIP3   OH2 1829   6.693   1.698   0.573
  622TIP3    H1 1830   6.614   1.647   0.589
  622TIP3    H2 1831   6.762   1.651   0.621
  623TIP3   OH2 1832   4.770   0.350   2.220
  623TIP3    H1 1833   4.835   0.306   2.275
  623TIP3    H2 1834   4.690   0.349   2.272
  624TIP3   OH2 1835   6.902   3.692   0.848
  624TIP3    H1 1836   6.853   3.667   0.770
  624TIP3    H2 1837   6.835   3.712   0.913
  625TIP3   OH2 1838   0.398   3.955   3.692
  625TIP3    H1 1839   0.368   3.874   3.651
  625TIP3    H2 1840   0.355   3.955   3.778
  626TIP3   OH2 1841   3.900   5.055   0.433
  626TIP3    H1 1842   3.904   5.048   0.529
  626TIP3    H2 1843   3.888   5.148   0.417
  627TIP3   OH2 1844   0.119   1.623   0.929
  627TIP3    H1 1845   0.024   1.617   0.939
  627TIP3    H2 1846   0.146   1.535   0.904
  628TIP3   OH2 1847   4.333   6.005   0.478
  628TIP3    H1 1848   4.301   5.974   0.393
  628TIP3    H2 1849   4.424   6.028   0.463
  629TIP3   OH2 1850   5.629   0.412   4.347
  629TIP3    H1 1851   5.692   0.380   4.282
  629TIP3    H2 1852   5.544   0.395   4.308
  630TIP3   OH2 1853   3.305   1.656   3.226
  630TIP3    H1 1854   3.308   1.660   3.322
  630TIP3    H2 1855   3.238   1.590   3.207
  631TIP3   OH2 1856   0.971   1.710   4.654
  631TIP3    H1 1857   0.980   1.717   4.749
  631TIP3    H2 1858   0.894   1.764   4.633
  632TIP3   OH2 1859   2.972   3.914   0.523
  632TIP3    H1 1860   2.931   3.992   0.486
  632TIP3    H2 1861   3.056   3.945   0.557
  633TIP3   OH2 1862   4.455   3.984   3.717
  633TIP3    H1 1863   4.411   3.978   3.802
  633TIP3    H2 1864   4.480   3.893   3.697
  634TIP3   OH2 1865   4.809   3.373   2.113
  634TIP3    H1 1866   4.850   3.298   2.157
  634TIP3    H2 1867   4.833   3.362   2.021
  635TIP3   OH2 1868   1.618   2.533   5.680
  635TIP3    H1 1869   1.657   2.614   5.715
  635TIP3    H2 1870   1.693   2.475   5.666
  636TIP3   OH2 1871   5.641   1.869   4.187
  636TIP3    H1 1872   5.700   1.795   4.179
  636TIP3    H2 1873   5.626   1.878   4.282
  637TIP3   OH2 1874   6.588   5.701   0.338
  637TIP3    H1 1875   6.684   5.698   0.336
  637TIP3    H2 1876   6.561   5.646   0.264
  638TIP3   OH2 1877   2.301   6.700   5.133
  638TIP3    H1 1878   2.301   6.703   5.229
  638TIP3    H2 1879   2.393   6.692   5.109
  639TIP3   OH2 1880   4.599   5.664   5.033
  639TIP3    H1 1881   4.647   5.663   4.950
  639TIP3    H2 1882   4.516   5.707   5.011
  640TIP3   OH2 1883   1.958   3.159   1.858
  640TIP3    H1 1884   1.962   3.127   1.948
  640TIP3    H2 1885   2.039   3.130   1.818
  641TIP3   OH2 1886   4.460   6.602   2.284
  641TIP3    H1 1887   4.395   6.532   2.289
  641TIP3    H2 1888   4.511   6.593   2.365
  642TIP3   OH2 1889   6.757   6.744   0.590
  642TIP3    H1 1890   6.811   6.791   0.654
  642TIP3    H2 1891   6.667   6.761   0.618
  643TIP3   OH2 1892   1.455   3.168   4.544
  643TIP3    H1 1893   1.455   3.263   4.539
  643TIP3    H2 1894   1.461   3.149   4.638
  644TIP3   OH2 1895   6.856   0.682   2.917
  644TIP3    H1 1896   6.804   0.611   2.879
  644TIP3    H2 1897   6.912   0.638   2.981
  645TIP3   OH2 1898   6.095   1.852   3.324
  645TIP3    H1 1899   6.121   1.780   3.380
  645TIP3    H2 1900   6.061   1.919   3.384
  646TIP3   OH2 1901   0.002   3.536   1.131
  646TIP3    H1 1902   0.083   3.485   1.141
  646TIP3    H2 1903  -0.011   3.541   1.037
  647TIP3   OH2 1904   1.433   5.693   2.683
  647TIP3    H1 1905   1.411   5.601   2.693
  647TIP3    H2 1906   1.403   5.716   2.596
  648TIP3   OH2 1907   6.651   5.809   0.700
  648TIP3    H1 1908   6.634   5.716   0.685
  648TIP3    H2 1909   6.571   5.843   0.739
  649TIP3   OH2 1910   2.306   0.323   1.709
  649TIP3    H1 1911   2.230   0.375   1.735
  649TIP3    H2 1912   2.379   0.364   1.755
  650TIP3   OH2 1913   1.708   4.826   2.401
  650TIP3    H1 1914   1.655   4.751   2.376
  650TIP3    H2 1915   1.795   4.805   2.367
  651TIP3   OH2 1916   1.747   2.212   1.754
  651TIP3    H1 1917   1.794   2.142   1.799
  651TIP3    H2 1918   1.655   2.197   1.774
  652TIP3   OH2 1919   4.631   2.270   3.838
  652TIP3    H1 1920   4.546   2.312   3.827
  652TIP3    H2 1921   4.632   2.201   3.772
  653TIP3   OH2 1922   3.968   2.583   1.310
  653TIP3    H1 1923   3.913   2.573   1.388
  653TIP3    H2 1924   3.919   2.542   1.240
  654TIP3   OH2 1925   4.596   2.048   3.248
  654TIP3    H1 1926   4.592   1.954   3.265
  654TIP3    H2 1927   4.670   2.078   3.299
  655TIP3   OH2 1928   6.994   2.734   0.267
  655TIP3    H1 1929   7.009   2.822   0.233
  655TIP3    H2 1930   7.072   2.714   0.319
  656TIP3   OH2 1931   6.815   5.172   4.418
  656TIP3    H1 1932   6.802   5.135   4.330
  656TIP3    H2 1933   6.754   5.246   4.422
  657TIP3   OH2 1934   7.139   3.354   5.652
  657TIP3    H1 1935   7.173   3.415   5.718
  657TIP3    H2 1936   7.145   3.402   5.570
  658TIP3   OH2 1937   5.668   6.378   0.293
  658TIP3    H1 1938   5.660   6.437   0.218
  658TIP3    H2 1939   5.716   6.302   0.259
  659TIP3   OH2 1940   6.595   4.016   0.658
  659TIP3    H1 1941   6.591   3.929   0.617
  659TIP3    H2 1942   6.511   4.056   0.636
  660TIP3   OH2 1943   5.175   4.078   4.284
  660TIP3    H1 1944   5.108   4.143   4.264
  660TIP3    H2 1945   5.126   4.004   4.319
  661TIP3   OH2 1946   1.542   3.779   3.719
  661TIP3    H1 1947   1.530   3.692   3.758
  661TIP3    H2 1948   1.546   3.763   3.625
  662TIP3   OH2 1949   3.153   6.752   2.708
  662TIP3    H1 1950   3.150   6.729   2.615
  662TIP3    H2 1951   3.223   6.817   2.714
  663TIP3   OH2 1952   0.844   1.802   3.419
  663TIP3    H1 1953   0.823   1.888   3.382
  663TIP3    H2 1954   0.895   1.822   3.497
  664TIP3   OH2 1955   1.940   3.690   4.768
  664TIP3    H1 1956   1.948   3.665   4.676
  664TIP3    H2 1957   1.911   3.611   4.812
  665TIP3   OH2 1958   1.478   0.877   5.442
  665TIP3    H1 1959   1.499   0.905   5.353
  665TIP3    H2 1960   1.541   0.924   5.497
  666TIP3   OH2 1961   1.236   6.293   3.848
  666TIP3    H1 1962   1.242   6.304   3.753
  666TIP3    H2 1963   1.143   6.277   3.865
  667TIP3   OH2 1964   5.164   2.723   5.231
  667TIP3    H1 1965   5.078   2.687   5.251
  667TIP3    H2 1966   5.224   2.648   5.239
  668TIP3   OH2 1967   0.713   1.122   0.118
  668TIP3    H1 1968   0.714   1.166   0.203
  668TIP3    H2 1969   0.625   1.086   0.110
  669TIP3   OH2 1970   6.658   1.177   3.035
  669TIP3    H1 1971   6.676   1.214   2.949
  669TIP3    H2 1972   6.681   1.246   3.097
  670TIP3   OH2 1973   5.158   4.890   1.706
  670TIP3    H1 1974   5.171   4.985   1.703
  670TIP3    H2 1975   5.220   4.855   1.643
  671TIP3   OH2 1976   4.520   1.408   3.689
  671TIP3    H1 1977   4.576   1.359   3.629
  671TIP3    H2 1978   4.473   1.469   3.632
  672TIP3   OH2 1979   0.647   2.015   2.796
  672TIP3    H1 1980   0.622   2.080   2.731
  672TIP3    H2 1981   0.659   2.065   2.877
  673TIP3   OH2 1982   5.483   3.713   3.675
  673TIP3    H1 1983   5.503   3.709   3.769
  673TIP3    H2 1984   5.568   3.722   3.633
  674TIP3   OH2 1985   6.965   3.652   4.810
  674TIP3    H1 1986   7.030   3.651   4.740
  674TIP3    H2 1987   7.015   3.633   4.889
  675TIP3   OH2 1988   6.929   1.543   1.362
  675TIP3    H1 1989   6.984   1.617   1.390
  675TIP3    H2 1990   6.887   1.574   1.282
  676TIP3   OH2 1991   0.976   5.956   5.176
  676TIP3    H1 1992   1.064   5.977   5.145
  676TIP3    H2 1993   0.932   5.916   5.101
  677TIP3   OH2 1994   6.647   2.091   0.142
  677TIP3    H1 1995   6.658   2.114   0.234
  677TIP3    H2 1996   6.650   2.174   0.096
  678TIP3   OH2 1997   2.795   4.056   1.032
  678TIP3    H1 1998   2.823   4.142   1.001
  678TIP3    H2 1999   2.803   3.999   0.955
  679TIP3   OH2 2000   3.102   0.657   0.325
  679TIP3    H1 2001   3.074   0.742   0.358
  679TIP3    H2 2002   3.167   0.678   0.258
  680TIP3   OH2 2003   7.169   3.731   5.423
  680TIP3    H1 2004   7.260   3.761   5.425
  680TIP3    H2 2005   7.117   3.811   5.418
  681TIP3   OH2 2006   7.042   5.874   0.093
  681TIP3    H1 2007   7.085   5.952   0.061
  681TIP3    H2 2008   6.986   5.845   0.021
  682TIP3   OH2 2009   0.960   1.749   2.209
  682TIP3    H1 2010   0.960   1.670   2.156
  682TIP3    H2 2011   1.041   1.744   2.261
  683TIP3   OH2 2012   5.457   5.296   4.107
  683TIP3    H1 2013   5.535   5.296   4.163
  683TIP3    H2 2014   5.421   5.207   4.116
  684TIP3   OH2 2015   4.945   2.958   4.505
  684TIP3    H1 2016   4.904   2.937   4.422
  684TIP3    H2 2017   4.873   2.964   4.568
  685TIP3   OH2 2018   4.187   0.210   1.051
  685TIP3    H1 2019   4.247   0.149   1.093
  685TIP3    H2 2020   4.115   0.156   1.018
  686TIP3   OH2 2021   0.938   1.471   2.089
  686TIP3    H1 2022   0.918   1.400   2.149
  686TIP3    H2 2023   1.024   1.450   2.053
  687TIP3   OH2 2024   1.976   1.710   2.249
  687TIP3    H1 2025   2.047   1.774   2.242
  687TIP3    H2 2026   2.015   1.637   2.296
  688TIP3   OH2 2027   6.431   6.465   0.567
  688TIP3    H1 2028   6.392   6.542   0.526
  688TIP3    H2 2029   6.356   6.413   0.596
  689TIP3   OH2 2030   4.562   6.519   3.854
  689TIP3    H1 2031   4.560   6.529   3.759
  689TIP3    H2 2032   4.655   6.520   3.876
  690TIP3   OH2 2033   1.265   5.487   5.716
  690TIP3    H1 2034   1.189   5.486   5.775
  690TIP3    H2 2035   1.305   5.573   5.729
  691TIP3   OH2 2036   5.047   1.385   2.752
  691TIP3    H1 2037   5.062   1.303   2.705
  691TIP3    H2 2038   5.121   1.441   2.727
  692TIP3   OH2 2039   1.900   3.746   4.279
  692TIP3    H1 2040   1.977   3.694   4.303
  692TIP3    H2 2041   1.837   3.729   4.348
  693TIP3   OH2 2042   1.447   0.540   1.799
  693TIP3    H1 2043   1.379   0.559   1.863
  693TIP3    H2 2044   1.528   0.571   1.840
  694TIP3   OH2 2045   4.761   3.281   4.614
  694TIP3    H1 2046   4.826   3.298   4.546
  694TIP3    H2 2047   4.806   3.301   4.696
  695TIP3   OH2 2048   6.241   0.199   0.733
  695TIP3    H1 2049   6.216   0.228   0.645
  695TIP3    H2 2050   6.332   0.227   0.742
  696TIP3   OH2 2051   4.507   4.529   4.371
  696TIP3    H1 2052   4.480   4.586   4.443
  696TIP3    H2 2053   4.430   4.521   4.316
  697TIP3   OH2 2054   4.893   3.258   1.182
  697TIP3    H1 2055   4.955   3.256   1.254
  697TIP3    H2 2056   4.813   3.219   1.218
  698TIP3   OH2 2057   2.619   2.738   4.095
  698TIP3    H1 2058   2.687   2.781   4.146
  698TIP3    H2 2059   2.641   2.645   4.099
  699TIP3   OH2 2060   6.881   4.851   4.782
  699TIP3    H1 2061   6.801   4.860   4.729
  699TIP3    H2 2062   6.856   4.793   4.854
  700TIP3   OH2 2063   4.134   6.704   2.493
  700TIP3    H1 2064   4.058   6.678   2.545
  700TIP3    H2 2065   4.185   6.761   2.550
  701TIP3   OH2 2066   3.736   1.640   5.227
  701TIP3    H1 2067   3.764   1.588   5.152
  701TIP3    H2 2068   3.650   1.605   5.249
  702TIP3   OH2 2069   6.382   4.681   5.702
  702TIP3    H1 2070   6.411   4.616   5.766
  702TIP3    H2 2071   6.460   4.731   5.681
  703TIP3   OH2 2072   2.620   2.902   4.506
  703TIP3    H1 2073   2.559   2.974   4.490
  703TIP3    H2 2074   2.571   2.824   4.481
  704TIP3   OH2 2075   4.000   4.169   0.975
  704TIP3    H1 2076   3.980   4.242   1.033
  704TIP3    H2 2077   3.948   4.096   1.008
  705TIP3   OH2 2078   0.043   0.239   5.685
  705TIP3    H1 2079   0.021   0.257   5.594
  705TIP3    H2 2080   0.117   0.296   5.704
  706TIP3   OH2 2081   0.196   0.074   2.202
  706TIP3    H1 2082   0.181  -0.004   2.149
  706TIP3    H2 2083   0.290   0.089   2.196
  707TIP3   OH2 2084   2.939   4.596   2.341
  707TIP3    H1 2085   2.851   4.590   2.379
  707TIP3    H2 2086   2.997   4.565   2.411
  708TIP3   OH2 2087   4.210   6.503   4.160
  708TIP3    H1 2088   4.124   6.544   4.161
  708TIP3    H2 2089   4.209   6.443   4.235
  709TIP3   OH2 2090   4.265   2.354   0.463
  709TIP3    H1 2091   4.211   2.382   0.389
  709TIP3    H2 2092   4.207   2.360   0.539
  710TIP3   OH2 2093   5.630   4.616   5.615
  710TIP3    H1 2094   5.627   4.690   5.554
  710TIP3    H2 2095   5.588   4.544   5.569
  711TIP3   OH2 2096   7.062   2.198   1.400
  711TIP3    H1 2097   7.151   2.181   1.371
  711TIP3    H2 2098   7.010   2.130   1.356
  712TIP3   OH2 2099   2.424   6.347   4.013
  712TIP3    H1 2100   2.337   6.334   3.975
  712TIP3    H2 2101   2.451   6.434   3.983
  713TIP3   OH2 2102   1.445   5.941   1.461
  713TIP3    H1 2103   1.504   5.897   1.523
  713TIP3    H2 2104   1.396   6.002   1.515
  714TIP3   OH2 2105   3.191   3.333   5.232
  714TIP3    H1 2106   3.144   3.302   5.155
  714TIP3    H2 2107   3.277   3.292   5.225
  715TIP3   OH2 2108   6.607   2.907   3.759
  715TIP3    H1 2109   6.515   2.934   3.756
  715TIP3    H2 2110   6.642   2.950   3.838
  716TIP3   OH2 2111   0.155   5.139   5.090
  716TIP3    H1 2112   0.168   5.193   5.013
  716TIP3    H2 2113   0.242   5.106   5.112
  717TIP3   OH2 2114   7.155   2.246   0.965
  717TIP3    H1 2115   7.231   2.233   0.908
  717TIP3    H2 2116   7.169   2.331   1.006
  718TIP3   OH2 2117   5.956   3.155   0.088
  718TIP3    H1 2118   5.982   3.063   0.090
  718TIP3    H2 2119   5.863   3.153   0.064
  719TIP3   OH2 2120   6.246   1.322   2.901
  719TIP3    H1 2121   6.295   1.392   2.945
  719TIP3    H2 2122   6.164   1.316   2.949
  720TIP3   OH2 2123   4.736   3.047   0.829
  720TIP3    H1 2124   4.826   3.038   0.862
  720TIP3    H2 2125   4.700   3.121   0.878
  721TIP3   OH2 2126   7.152   1.708   5.859
  721TIP3    H1 2127   7.141   1.679   5.768
  721TIP3    H2 2128   7.198   1.791   5.853
  722TIP3   OH2 2129   0.147   1.260   1.995
  722TIP3    H1 2130   0.114   1.339   2.037
  722TIP3    H2 2131   0.094   1.189   2.031
  723TIP3   OH2 2132   0.175   6.146   4.845
  723TIP3    H1 2133   0.188   6.157   4.939
  723TIP3    H2 2134   0.146   6.056   4.835
  724TIP3   OH2 2135   4.697   1.764   0.864
  724TIP3    H1 2136   4.752   1.765   0.786
  724TIP3    H2 2137   4.751   1.723   0.932
  725TIP3   OH2 2138   0.287   5.263   4.638
  725TIP3    H1 2139   0.363   5.275   4.580
  725TIP3    H2 2140   0.212   5.288   4.584
  726TIP3   OH2 2141   6.625   1.134   0.494
  726TIP3    H1 2142   6.653   1.176   0.575
  726TIP3    H2 2143   6.702   1.137   0.438
  727TIP3   OH2 2144   2.409   4.599   1.795
  727TIP3    H1 2145   2.493   4.574   1.757
  727TIP3    H2 2146   2.344   4.558   1.738
  728TIP3   OH2 2147   0.224   1.837   1.944
  728TIP3    H1 2148   0.307   1.840   1.897
  728TIP3    H2 2149   0.241   1.886   2.025
  729TIP3   OH2 2150   1.078   3.504   2.154
  729TIP3    H1 2151   1.148   3.471   2.097
  729TIP3    H2 2152   1.085   3.451   2.233
  730TIP3   OH2 2153   3.957   4.094   0.708
  730TIP3    H1 2154   3.969   4.114   0.801
  730TIP3    H2 2155   3.911   4.170   0.674
  731TIP3   OH2 2156   6.342   6.725   0.469
  731TIP3    H1 2157   6.414   6.734   0.532
  731TIP3    H2 2158   6.334   6.811   0.429
  732TIP3   OH2 2159   2.395   5.039   1.228
  732TIP3    H1 2160   2.461   5.012   1.292
  732TIP3    H2 2161   2.352   4.958   1.202
  733TIP3   OH2 2162   2.890   6.689   2.751
  733TIP3    H1 2163   2.856   6.706   2.663
  733TIP3    H2 2164   2.980   6.724   2.748
  734TIP3   OH2 2165   3.479   5.976   5.437
  734TIP3    H1 2166   3.442   5.904   5.386
  734TIP3    H2 2167   3.563   5.943   5.468
  735TIP3   OH2 2168   5.726   6.261   5.758
  735TIP3    H1 2169   5.694   6.341   5.715
  735TIP3    H2 2170   5.743   6.289   5.848
  736TIP3   OH2 2171   0.723   1.523   1.407
  736TIP3    H1 2172   0.628   1.539   1.405
  736TIP3    H2 2173   0.732   1.428   1.405
  737TIP3   OH2 2174   3.830   4.767   3.631
  737TIP3    H1 2175   3.840   4.764   3.536
  737TIP3    H2 2176   3.750   4.719   3.649
  738TIP3   OH2 2177   0.008   5.104   2.865
  738TIP3    H1 2178   0.042   5.139   2.947
  738TIP3    H2 2179   0.086   5.078   2.816
  739TIP3   OH2 2180   2.115   3.922   3.099
  739TIP3    H1 2181   2.052   3.988   3.072
  739TIP3    H2 2182   2.177   3.917   3.026
  740TIP3   OH2 2183   4.846   3.711   1.686
  740TIP3    H1 2184   4.771   3.737   1.739
  740TIP3    H2 2185   4.880   3.793   1.650
  741TIP3   OH2 2186   3.261   5.216   4.756
  741TIP3    H1 2187   3.193   5.284   4.758
  741TIP3    H2 2188   3.215   5.136   4.782
  742TIP3   OH2 2189   5.800   5.417   0.995
  742TIP3    H1 2190   5.856   5.400   1.071
  742TIP3    H2 2191   5.718   5.447   1.034
  743TIP3   OH2 2192   6.295   2.587   2.600
  743TIP3    H1 2193   6.335   2.541   2.526
  743TIP3    H2 2194   6.342   2.670   2.605
  744TIP3   OH2 2195   1.137   1.405   0.502
  744TIP3    H1 2196   1.089   1.436   0.579
  744TIP3    H2 2197   1.111   1.313   0.493
  745TIP3   OH2 2198   0.588   5.984   3.074
  745TIP3    H1 2199   0.668   6.005   3.026
  745TIP3    H2 2200   0.542   5.921   3.020
  746TIP3   OH2 2201   4.677   2.788   4.827
  746TIP3    H1 2202   4.731   2.867   4.819
  746TIP3    H2 2203   4.716   2.740   4.901
  747TIP3   OH2 2204   2.680   3.663   2.015
  747TIP3    H1 2205   2.605   3.624   1.968
  747TIP3    H2 2206   2.709   3.594   2.074
  748TIP3   OH2 2207   3.419   0.116   4.925
  748TIP3    H1 2208   3.364   0.073   4.991
  748TIP3    H2 2209   3.495   0.058   4.915
  749TIP3   OH2 2210   6.518   3.574   5.381
  749TIP3    H1 2211   6.428   3.576   5.413
  749TIP3    H2 2212   6.530   3.660   5.339
  750TIP3   OH2 2213   6.742   6.428   3.391
  750TIP3    H1 2214   6.805   6.356   3.390
  750TIP3    H2 2215   6.792   6.504   3.422
  751TIP3   OH2 2216   6.035   1.952   1.471
  751TIP3    H1 2217   6.116   1.978   1.516
  751TIP3    H2 2218   6.041   1.856   1.465
  752TIP3   OH2 2219   3.155   1.122   3.383
  752TIP3    H1 2220   3.096   1.107   3.457
  752TIP3    H2 2221   3.182   1.214   3.391
  753TIP3   OH2 2222   1.994   4.968   5.806
  753TIP3    H1 2223   1.954   5.042   5.760
  753TIP3    H2 2224   1.929   4.943   5.872
  754TIP3   OH2 2225   5.356   6.171   0.188
  754TIP3    H1 2226   5.351   6.265   0.172
  754TIP3    H2 2227   5.383   6.163   0.279
  755TIP3   OH2 2228   2.823   6.798   1.319
  755TIP3    H1 2229   2.888   6.807   1.388
  755TIP3    H2 2230   2.869   6.822   1.239
  756TIP3   OH2 2231   3.306   1.066   5.292
  756TIP3    H1 2232   3.376   1.126   5.269
  756TIP3    H2 2233   3.260   1.109   5.364
  757TIP3   OH2 2234   6.157   4.654   0.098
  757TIP3    H1 2235   6.148   4.749   0.103
  757TIP3    H2 2236   6.085   4.625   0.043
  758TIP3   OH2 2237   1.828   0.389   5.779
  758TIP3    H1 2238   1.843   0.353   5.867
  758TIP3    H2 2239   1.744   0.435   5.785
  759TIP3   OH2 2240   6.643   4.587   1.745
  759TIP3    H1 2241   6.658   4.632   1.662
  759TIP3    H2 2242   6.583   4.643   1.793
  760TIP3   OH2 2243   1.921   3.288   0.041
  760TIP3    H1 2244   2.005   3.263   0.003
  760TIP3    H2 2245   1.922   3.384   0.042
  761TIP3   OH2 2246   2.886   1.248   3.273
  761TIP3    H1 2247   2.895   1.229   3.366
  761TIP3    H2 2248   2.857   1.339   3.270
  762TIP3   OH2 2249   1.174   6.261   5.696
  762TIP3    H1 2250   1.137   6.300   5.617
  762TIP3    H2 2251   1.100   6.222   5.742
  763TIP3   OH2 2252   2.269   3.008   4.813
  763TIP3    H1 2253   2.229   3.021   4.727
  763TIP3    H2 2254   2.264   2.914   4.829
  764TIP3   OH2 2255   3.232   3.656   2.098
  764TIP3    H1 2256   3.165   3.659   2.030
  764TIP3    H2 2257   3.305   3.607   2.059
  765TIP3   OH2 2258   4.664   5.742   4.065
  765TIP3    H1 2259   4.662   5.730   4.160
  765TIP3    H2 2260   4.636   5.833   4.053
  766TIP3   OH2 2261   3.509   2.871   5.002
  766TIP3    H1 2262   3.536   2.818   5.077
  766TIP3    H2 2263   3.415   2.886   5.015
  767TIP3   OH2 2264   0.257   3.815   4.228
  767TIP3    H1 2265   0.321   3.882   4.206
  767TIP3    H2 2266   0.194   3.860   4.285
  768TIP3   OH2 2267   2.069   0.208   1.620
  768TIP3    H1 2268   2.144   0.268   1.624
  768TIP3    H2 2269   2.034   0.207   1.709
  769TIP3   OH2 2270   7.020   4.436   1.640
  769TIP3    H1 2271   6.926   4.428   1.625
  769TIP3    H2 2272   7.030   4.515   1.693
  770TIP3   OH2 2273   5.924   0.642   0.509
  770TIP3    H1 2274   5.840   0.617   0.470
  770TIP3    H2 2275   5.973   0.560   0.516
  771TIP3   OH2 2276   3.576   2.469   0.602
  771TIP3    H1 2277   3.670   2.475   0.583
  771TIP3    H2 2278   3.557   2.545   0.656
  772TIP3   OH2 2279   5.250   0.647   5.113
  772TIP3    H1 2280   5.308   0.710   5.156
  772TIP3    H2 2281   5.164   0.664   5.151
  773TIP3   OH2 2282   0.247   4.314   3.102
  773TIP3    H1 2283   0.159   4.343   3.123
  773TIP3    H2 2284   0.246   4.300   3.008
  774TIP3   OH2 2285   5.520   5.552   0.784
  774TIP3    H1 2286   5.589   5.496   0.747
  774TIP3    H2 2287   5.439   5.518   0.746
  775TIP3   OH2 2288   4.357   5.260   4.986
  775TIP3    H1 2289   4.277   5.252   5.038
  775TIP3    H2 2290   4.327   5.299   4.903
  776TIP3   OH2 2291   4.917   3.121   2.238
  776TIP3    H1 2292   4.914   3.116   2.333
  776TIP3    H2 2293   4.827   3.102   2.210
  777TIP3   OH2 2294   3.666   2.420   4.533
  777TIP3    H1 2295   3.617   2.443   4.612
  777TIP3    H2 2296   3.602   2.428   4.462
  778TIP3   OH2 2297   2.717   3.956   2.367
  778TIP3    H1 2298   2.651   3.898   2.405
  778TIP3    H2 2299   2.705   3.947   2.273
  779TIP3   OH2 2300   1.234   1.201   5.390
  779TIP3    H1 2301   1.231   1.116   5.434
  779TIP3    H2 2302   1.202   1.183   5.301
  780TIP3   OH2 2303   2.251   1.761   4.940
  780TIP3    H1 2304   2.240   1.666   4.936
  780TIP3    H2 2305   2.322   1.779   4.880
  781TIP3   OH2 2306   4.049   4.008   2.010
  781TIP3    H1 2307   4.043   4.098   1.978
  781TIP3    H2 2308   4.067   4.016   2.103
  782TIP3   OH2 2309   4.595   3.235   3.835
  782TIP3    H1 2310   4.559   3.291   3.766
  782TIP3    H2 2311   4.681   3.208   3.801
  783TIP3   OH2 2312   5.559   2.415   1.500
  783TIP3    H1 2313   5.552   2.411   1.405
  783TIP3    H2 2314   5.582   2.325   1.526
  784TIP3   OH2 2315   0.702   0.916   2.120
  784TIP3    H1 2316   0.610   0.915   2.094
  784TIP3    H2 2317   0.712   0.996   2.171
  785TIP3   OH2 2318   2.618   3.659   5.777
  785TIP3    H1 2319   2.707   3.632   5.756
  785TIP3    H2 2320   2.606   3.743   5.731
  786TIP3   OH2 2321   1.176   6.633   4.008
  786TIP3    H1 2322   1.215   6.720   4.000
  786TIP3    H2 2323   1.083   6.650   4.021
  787TIP3   OH2 2324   7.200   4.699   3.553
  787TIP3    H1 2325   7.249   4.713   3.472
  787TIP3    H2 2326   7.242   4.757   3.616
  788TIP3   OH2 2327   7.217   3.172   5.243
  788TIP3    H1 2328   7.160   3.183   5.319
  788TIP3    H2 2329   7.176   3.101   5.193
  789TIP3   OH2 2330   5.891   4.589   5.678
  789TIP3    H1 2331   5.935   4.526   5.622
  789TIP3    H2 2332   5.802   4.595   5.643
  790TIP3   OH2 2333   5.244   4.435   0.104
  790TIP3    H1 2334   5.220   4.469   0.191
  790TIP3    H2 2335   5.280   4.349   0.122
  791TIP3   OH2 2336   1.401   6.139   0.682
  791TIP3    H1 2337   1.322   6.085   0.691
  791TIP3    H2 2338   1.473   6.079   0.699
  792TIP3   OH2 2339   5.617   2.136   1.547
  792TIP3    H1 2340   5.651   2.054   1.513
  792TIP3    H2 2341   5.692   2.177   1.590
  793TIP3   OH2 2342   0.423   1.500   4.066
  793TIP3    H1 2343   0.384   1.548   3.993
  793TIP3    H2 2344   0.362   1.513   4.138
  794TIP3   OH2 2345   2.586   0.069   2.898
  794TIP3    H1 2346   2.622   0.110   2.820
  794TIP3    H2 2347   2.661   0.025   2.939
  795TIP3   OH2 2348   4.198   2.973   0.220
  795TIP3    H1 2349   4.254   3.051   0.226
  795TIP3    H2 2350   4.210   2.943   0.129
  796TIP3   OH2 2351   2.430   1.313   0.292
  796TIP3    H1 2352   2.467   1.231   0.324
  796TIP3    H2 2353   2.375   1.344   0.364
  797TIP3   OH2 2354   1.464   5.804   2.125
  797TIP3    H1 2355   1.503   5.735   2.072
  797TIP3    H2 2356   1.443   5.873   2.062
  798TIP3   OH2 2357   0.625   3.565   3.461
  798TIP3    H1 2358   0.608   3.651   3.422
  798TIP3    H2 2359   0.676   3.583   3.539
  799TIP3   OH2 2360   5.390   5.668   5.480
  799TIP3    H1 2361   5.457   5.716   5.432
  799TIP3    H2 2362   5.316   5.662   5.419
  800TIP3   OH2 2363   7.179   6.193   2.092
  800TIP3    H1 2364   7.096   6.157   2.123
  800TIP3    H2 2365   7.226   6.117   2.058
  801TIP3   OH2 2366   1.367   0.841   0.861
  801TIP3    H1 2367   1.317   0.760   0.875
  801TIP3    H2 2368   1.412   0.855   0.945
  802TIP3   OH2 2369   3.916   3.398   1.143
  802TIP3    H1 2370   3.836   3.360   1.181
  802TIP3    H2 2371   3.938   3.471   1.201
  803TIP3   OH2 2372   6.819   2.335   1.284
  803TIP3    H1 2373   6.811   2.343   1.189
  803TIP3    H2 2374   6.908   2.303   1.297
  804TIP3   OH2 2375   4.458   4.481   3.801
  804TIP3    H1 2376   4.523   4.483   3.731
  804TIP3    H2 2377   4.479   4.557   3.856
  805TIP3   OH2 2378   5.124   4.959   3.079
  805TIP3    H1 2379   5.200   5.004   3.044
  805TIP3    H2 2380   5.148   4.937   3.169
  806TIP3   OH2 2381   0.104   2.563   0.416
  806TIP3    H1 2382   0.109   2.659   0.412
  806TIP3    H2 2383   0.177   2.538   0.473
  807TIP3   OH2 2384   5.369   5.179   0.533
  807TIP3    H1 2385   5.458   5.197   0.502
  807TIP3    H2 2386   5.381   5.109   0.598
  808TIP3   OH2 2387   5.926   5.992   0.970
  808TIP3    H1 2388   5.841   5.972   0.929
  808TIP3    H2 2389   5.944   6.082   0.945
  809TIP3   OH2 2390   5.278   4.816   3.961
  809TIP3    H1 2391   5.240   4.888   3.911
  809TIP3    H2 2392   5.372   4.823   3.947
  810TIP3   OH2 2393   6.824   4.008   0.803
  810TIP3    H1 2394   6.787   3.950   0.870
  810TIP3    H2 2395   6.752   4.023   0.742
  811TIP3   OH2 2396   6.291   1.010   1.723
  811TIP3    H1 2397   6.236   1.005   1.800
  811TIP3    H2 2398   6.309   0.919   1.699
  812TIP3   OH2 2399   0.398   5.533   2.828
  812TIP3    H1 2400   0.333   5.473   2.790
  812TIP3    H2 2401   0.482   5.493   2.808
  813TIP3   OH2 2402   4.387   3.928   4.618
  813TIP3    H1 2403   4.328   3.907   4.545
  813TIP3    H2 2404   4.460   3.974   4.577
  814TIP3   OH2 2405   4.918   6.091   4.434
  814TIP3    H1 2406   4.851   6.095   4.502
  814TIP3    H2 2407   4.976   6.164   4.454
  815TIP3   OH2 2408   6.744   1.785   4.431
  815TIP3    H1 2409   6.726   1.818   4.519
  815TIP3    H2 2410   6.743   1.863   4.376
  816TIP3   OH2 2411   0.552   6.656   1.577
  816TIP3    H1 2412   0.582   6.703   1.499
  816TIP3    H2 2413   0.586   6.567   1.566
  817TIP3   OH2 2414   5.801   4.722   2.253
  817TIP3    H1 2415   5.835   4.635   2.273
  817TIP3    H2 2416   5.773   4.756   2.338
  818TIP3   OH2 2417   4.637   1.041   5.272
  818TIP3    H1 2418   4.578   1.023   5.346
  818TIP3    H2 2419   4.725   1.038   5.310
  819TIP3   OH2 2420   5.048   5.676   4.933
  819TIP3    H1 2421   5.060   5.581   4.936
  819TIP3    H2 2422   5.050   5.703   5.025
  820TIP3   OH2 2423   6.033   0.065   1.535
  820TIP3    H1 2424   6.064   0.090   1.622
  820TIP3    H2 2425   6.028   0.148   1.488
  821TIP3   OH2 2426   0.993   4.121   2.168
  821TIP3    H1 2427   0.921   4.178   2.193
  821TIP3    H2 2428   0.955   4.033   2.169
  822TIP3   OH2 2429   4.465   4.131   0.062
  822TIP3    H1 2430   4.543   4.091   0.100
  822TIP3    H2 2431   4.430   4.187   0.131
  823TIP3   OH2 2432   1.591   6.519   3.805
  823TIP3    H1 2433   1.540   6.516   3.885
  823TIP3    H2 2434   1.670   6.567   3.829
  824TIP3   OH2 2435   1.168   4.078   0.103
  824TIP3    H1 2436   1.157   4.029   0.021
  824TIP3    H2 2437   1.155   4.170   0.078
  825TIP3   OH2 2438  -0.004   3.408   4.020
  825TIP3    H1 2439   0.058   3.393   4.092
  825TIP3    H2 2440   0.050   3.441   3.948
  826TIP3   OH2 2441   3.927   4.974   2.368
  826TIP3    H1 2442   3.981   4.926   2.305
  826TIP3    H2 2443   3.844   4.988   2.323
  827TIP3   OH2 2444   3.236   0.359   2.351
  827TIP3    H1 2445   3.280   0.280   2.382
  827TIP3    H2 2446   3.199   0.399   2.430
  828TIP3   OH2 2447   3.055   0.663   3.831
  828TIP3    H1 2448   2.983   0.721   3.807
  828TIP3    H2 2449   3.054   0.594   3.764
  829TIP3   OH2 2450   4.808   4.084   2.766
  829TIP3    H1 2451   4.833   4.053   2.853
  829TIP3    H2 2452   4.713   4.098   2.771
  830TIP3   OH2 2453   5.730   3.846   2.724
  830TIP3    H1 2454   5.695   3.759   2.702
  830TIP3    H2 2455   5.685   3.906   2.665
  831TIP3   OH2 2456   1.487   2.711   2.315
  831TIP3    H1 2457   1.436   2.630   2.313
  831TIP3    H2 2458   1.483   2.743   2.224
  832TIP3   OH2 2459   5.168   4.123   2.906
  832TIP3    H1 2460   5.164   4.055   2.839
  832TIP3    H2 2461   5.087   4.111   2.956
  833TIP3   OH2 2462   1.590   5.758   5.652
  833TIP3    H1 2463   1.607   5.706   5.574
  833TIP3    H2 2464   1.495   5.764   5.657
  834TIP3   OH2 2465   0.773   4.636   5.209
  834TIP3    H1 2466   0.833   4.581   5.159
  834TIP3    H2 2467   0.695   4.582   5.221
  835TIP3   OH2 2468   5.282   6.147   0.996
  835TIP3    H1 2469   5.298   6.239   0.974
  835TIP3    H2 2470   5.314   6.098   0.921
  836TIP3   OH2 2471   4.354   2.609   2.770
  836TIP3    H1 2472   4.340   2.674   2.840
  836TIP3    H2 2473   4.414   2.545   2.809
  837TIP3   OH2 2474   2.644   3.011   1.993
  837TIP3    H1 2475   2.655   3.070   1.918
  837TIP3    H2 2476   2.552   3.018   2.015
  838TIP3   OH2 2477   0.720   2.004   0.290
  838TIP3    H1 2478   0.721   2.078   0.230
  838TIP3    H2 2479   0.807   2.004   0.331
  839TIP3   OH2 2480   4.519   6.533   3.585
  839TIP3    H1 2481   4.427   6.559   3.582
  839TIP3    H2 2482   4.564   6.599   3.533
  840TIP3   OH2 2483   0.723   6.778   1.097
  840TIP3    H1 2484   0.791   6.719   1.065
  840TIP3    H2 2485   0.685   6.817   1.019
  841TIP3   OH2 2486   7.166   3.144   2.897
  841TIP3    H1 2487   7.107   3.091   2.844
  841TIP3    H2 2488   7.250   3.100   2.892
  842TIP3   OH2 2489   2.823   4.154   0.112
  842TIP3    H1 2490   2.856   4.133   0.025
  842TIP3    H2 2491   2.740   4.199   0.097
  843TIP3   OH2 2492   2.537   1.500   2.563
  843TIP3    H1 2493   2.533   1.555   2.485
  843TIP3    H2 2494   2.488   1.548   2.629
  844TIP3   OH2 2495   2.315   3.167   5.790
  844TIP3    H1 2496   2.333   3.081   5.754
  844TIP3    H2 2497   2.335   3.158   5.884
  845TIP3   OH2 2498   1.933   2.385   5.168
  845TIP3    H1 2499   1.908   2.313   5.227
  845TIP3    H2 2500   1.999   2.346   5.110
  846TIP3   OH2 2501   3.969   1.475   1.984
  846TIP3    H1 2502   3.901   1.408   1.986
  846TIP3    H2 2503   3.922   1.557   2.001
  847TIP3   OH2 2504   5.168   2.107   0.796
  847TIP3    H1 2505   5.196   2.035   0.852
  847TIP3    H2 2506   5.108   2.067   0.733
  848TIP3   OH2 2507   2.476   5.573   2.375
  848TIP3    H1 2508   2.549   5.621   2.335
  848TIP3    H2 2509   2.438   5.636   2.437
  849TIP3   OH2 2510   7.036   3.951   5.686
  849TIP3    H1 2511   6.994   3.866   5.700
  849TIP3    H2 2512   7.031   3.994   5.771
  850TIP3   OH2 2513   6.589   3.723   2.310
  850TIP3    H1 2514   6.668   3.741   2.361
  850TIP3    H2 2515   6.522   3.780   2.347
  851TIP3   OH2 2516   6.890   4.104   1.902
  851TIP3    H1 2517   6.979   4.132   1.880
  851TIP3    H2 2518   6.902   4.021   1.948
  852TIP3   OH2 2519   7.186   6.809   3.522
  852TIP3    H1 2520   7.148   6.772   3.602
  852TIP3    H2 2521   7.260   6.751   3.502
  853TIP3   OH2 2522   1.784  -0.010   1.280
  853TIP3    H1 2523   1.762   0.079   1.309
  853TIP3    H2 2524   1.720  -0.030   1.213
  854TIP3   OH2 2525   2.355   6.231   2.652
  854TIP3    H1 2526   2.352   6.282   2.733
  854TIP3    H2 2527   2.273   6.182   2.651
  855TIP3   OH2 2528   3.809   3.060   4.887
  855TIP3    H1 2529   3.875   3.024   4.946
  855TIP3    H2 2530   3.801   2.994   4.818
  856TIP3   OH2 2531   3.738   6.672   1.316
  856TIP3    H1 2532   3.683   6.669   1.395
  856TIP3    H2 2533   3.759   6.580   1.298
  857TIP3   OH2 2534   7.135   4.693   4.844
  857TIP3    H1 2535   7.212   4.651   4.881
  857TIP3    H2 2536   7.119   4.768   4.901
  858TIP3   OH2 2537   6.770   5.141   0.104
  858TIP3    H1 2538   6.752   5.232   0.126
  858TIP3    H2 2539   6.686   5.105   0.078
  859TIP3   OH2 2540   2.453   5.570   3.719
  859TIP3    H1 2541   2.412   5.588   3.634
  859TIP3    H2 2542   2.384   5.528   3.770
  860TIP3   OH2 2543   0.865   5.897   4.739
  860TIP3    H1 2544   0.862   5.992   4.752
  860TIP3    H2 2545   0.862   5.886   4.644
  861TIP3   OH2 2546   4.402   3.762   2.014
  861TIP3    H1 2547   4.319   3.722   1.988
  861TIP3    H2 2548   4.380   3.853   2.034
  862TIP3   OH2 2549   0.927   5.872   4.475
  862TIP3    H1 2550   1.006   5.921   4.495
  862TIP3    H2 2551   0.926   5.865   4.379
  863TIP3   OH2 2552   2.833   6.383   4.940
  863TIP3    H1 2553   2.872   6.324   5.005
  863TIP3    H2 2554   2.866   6.351   4.856
  864TIP3   OH2 2555   3.518   1.399   2.064
  864TIP3    H1 2556   3.515   1.310   2.100
  864TIP3    H2 2557   3.450   1.446   2.112
  865TIP3   OH2 2558   2.699   6.160   0.548
  865TIP3    H1 2559   2.612   6.122   0.558
  865TIP3    H2 2560   2.701   6.235   0.608
  866TIP3   OH2 2561   5.719   5.440   1.802
  866TIP3    H1 2562   5.667   5.404   1.730
  866TIP3    H2 2563   5.658   5.446   1.875
  867TIP3   OH2 2564   1.525   3.822   3.384
  867TIP3    H1 2565   1.531   3.863   3.298
  867TIP3    H2 2566   1.614   3.793   3.403
  868TIP3   OH2 2567   2.444   4.397   3.805
  868TIP3    H1 2568   2.376   4.339   3.840
  868TIP3    H2 2569   2.512   4.338   3.772
  869TIP3   OH2 2570   6.756   2.124   2.532
  869TIP3    H1 2571   6.769   2.209   2.576
  869TIP3    H2 2572   6.738   2.147   2.441
  870TIP3   OH2 2573   0.534   3.294   5.606
  870TIP3    H1 2574   0.510   3.206   5.634
  870TIP3    H2 2575   0.453   3.329   5.568
  871TIP3   OH2 2576   4.386   3.081   1.653
  871TIP3    H1 2577   4.298   3.066   1.617
  871TIP3    H2 2578   4.412   2.996   1.689
  872TIP3   OH2 2579   3.554   4.511   2.560
  872TIP3    H1 2580   3.465   4.480   2.578
  872TIP3    H2 2581   3.589   4.536   2.645
  873TIP3   OH2 2582   7.102   0.366   0.092
  873TIP3    H1 2583   7.059   0.382   0.176
  873TIP3    H2 2584   7.188   0.331   0.115
  874TIP3   OH2 2585   5.007   5.494   4.142
  874TIP3    H1 2586   5.044   5.536   4.220
  874TIP3    H2 2587   5.011   5.400   4.161
  875TIP3   OH2 2588   2.569   4.031   2.819
  875TIP3    H1 2589   2.606   3.955   2.775
  875TIP3    H2 2590   2.554   4.095   2.749
  876TIP3   OH2 2591   4.379   1.257   2.806
  876TIP3    H1 2592   4.443   1.194   2.772
  876TIP3    H2 2593   4.428   1.338   2.818
  877TIP3   OH2 2594   6.359   1.479   1.803
  877TIP3    H1 2595   6.427   1.487   1.870
  877TIP3    H2 2596   6.305   1.405   1.832
  878TIP3   OH2 2597   0.467   5.017   2.270
  878TIP3    H1 2598   0.468   5.112   2.260
  878TIP3    H2 2599   0.555   4.995   2.297
  879TIP3   OH2 2600   1.149   0.340   4.080
  879TIP3    H1 2601   1.228   0.289   4.099
  879TIP3    H2 2602   1.094   0.329   4.157
  880TIP3   OH2 2603   1.719   6.312   4.332
  880TIP3    H1 2604   1.722   6.408   4.335
  880TIP3    H2 2605   1.810   6.285   4.318
  881TIP3   OH2 2606   1.457   1.075   2.717
  881TIP3    H1 2607   1.511   1.016   2.769
  881TIP3    H2 2608   1.519   1.120   2.660
  882TIP3   OH2 2609   3.267   0.116   2.470
  882TIP3    H1 2610   3.306   0.047   2.522
  882TIP3    H2 2611   3.185   0.078   2.437
  883TIP3   OH2 2612   0.491   3.668   4.261
  883TIP3    H1 2613   0.474   3.628   4.175
  883TIP3    H2 2614   0.404   3.689   4.295
  884TIP3   OH2 2615   5.878   3.785   1.156
  884TIP3    H1 2616   5.863   3.713   1.217
  884TIP3    H2 2617   5.970   3.777   1.130
  885TIP3   OH2 2618   4.025   6.413   1.858
  885TIP3    H1 2619   4.071   6.381   1.780
  885TIP3    H2 2620   4.041   6.508   1.858
  886TIP3   OH2 2621   0.784   1.537   0.711
  886TIP3    H1 2622   0.750   1.578   0.791
  886TIP3    H2 2623   0.722   1.564   0.643
  887TIP3   OH2 2624   0.384   0.874   3.187
  887TIP3    H1 2625   0.479   0.876   3.192
  887TIP3    H2 2626   0.354   0.895   3.275
  888TIP3   OH2 2627   7.174   2.889   3.759
  888TIP3    H1 2628   7.214   2.917   3.677
  888TIP3    H2 2629   7.164   2.970   3.810
  889TIP3   OH2 2630   5.330   4.001   4.961
  889TIP3    H1 2631   5.370   3.930   4.911
  889TIP3    H2 2632   5.371   4.080   4.927
  890TIP3   OH2 2633   0.176   3.131   4.037
  890TIP3    H1 2634   0.222   3.107   4.117
  890TIP3    H2 2635   0.208   3.219   4.016
  891TIP3   OH2 2636   2.263   1.997   3.745
  891TIP3    H1 2637   2.216   2.063   3.695
  891TIP3    H2 2638   2.334   2.046   3.787
  892TIP3   OH2 2639   1.783   1.470   2.752
  892TIP3    H1 2640   1.730   1.454   2.829
  892TIP3    H2 2641   1.874   1.467   2.784
  893TIP3   OH2 2642   6.904   2.787   2.042
  893TIP3    H1 2643   6.940   2.718   1.986
  893TIP3    H2 2644   6.977   2.815   2.097
  894TIP3   OH2 2645   7.032   0.470   5.438
  894TIP3    H1 2646   7.033   0.566   5.437
  894TIP3    H2 2647   7.124   0.445   5.437
  895TIP3   OH2 2648  -0.015   3.970   4.541
  895TIP3    H1 2649   0.069   4.012   4.524
  895TIP3    H2 2650  -0.026   3.975   4.636
  896TIP3   OH2 2651   4.729   1.261   0.457
  896TIP3    H1 2652   4.715   1.300   0.370
  896TIP3    H2 2653   4.648   1.215   0.476
  897TIP3   OH2 2654   3.318   5.023   3.678
  897TIP3    H1 2655   3.333   4.994   3.588
  897TIP3    H2 2656   3.386   4.980   3.729
  898TIP3   OH2 2657   3.586   4.375   2.098
  898TIP3    H1 2658   3.554   4.445   2.041
  898TIP3    H2 2659   3.524   4.303   2.086
  899TIP3   OH2 2660   4.708   1.556   3.023
  899TIP3    H1 2661   4.800   1.535   3.008
  899TIP3    H2 2662   4.710   1.641   3.067
  900TIP3   OH2 2663   0.815   4.457   5.444
  900TIP3    H1 2664   0.783   4.537   5.403
  900TIP3    H2 2665   0.776   4.458   5.532
  901TIP3   OH2 2666   5.278   0.648   0.514
  901TIP3    H1 2667   5.368   0.669   0.489
  901TIP3    H2 2668   5.275   0.663   0.608
  902TIP3   OH2 2669   6.622   1.313   1.601
  902TIP3    H1 2670   6.601   1.374   1.671
  902TIP3    H2 2671   6.548   1.252   1.598
  903TIP3   OH2 2672   6.657   5.626   3.820
  903TIP3    H1 2673   6.565   5.650   3.807
  903TIP3    H2 2674   6.659   5.531   3.817
  904TIP3   OH2 2675   5.472   1.537   4.979
  904TIP3    H1 2676   5.460   1.523   5.073
  904TIP3    H2 2677   5.445   1.453   4.939
  905TIP3   OH2 2678   3.193   5.232   1.608
  905TIP3    H1 2679   3.128   5.298   1.632
  905TIP3    H2 2680   3.277   5.271   1.631
  906TIP3   OH2 2681   4.113   6.552   2.266
  906TIP3    H1 2682   4.144   6.619   2.328
  906TIP3    H2 2683   4.018   6.567   2.262
  907TIP3   OH2 2684   4.473   1.901   0.870
  907TIP3    H1 2685   4.550   1.844   0.863
  907TIP3    H2 2686   4.411   1.866   0.806
  908TIP3   OH2 2687   6.696   6.489   0.508
  908TIP3    H1 2688   6.607   6.459   0.529
  908TIP3    H2 2689   6.694   6.583   0.527
  909TIP3   OH2 2690   5.069   4.948   3.534
  909TIP3    H1 2691   5.062   5.043   3.522
  909TIP3    H2 2692   5.052   4.935   3.627
  910TIP3   OH2 2693   4.785   1.494   2.651
  910TIP3    H1 2694   4.857   1.469   2.709
  910TIP3    H2 2695   4.729   1.417   2.648
  911TIP3   OH2 2696   1.885   4.049   0.568
  911TIP3    H1 2697   1.963   4.081   0.524
  911TIP3    H2 2698   1.868   4.114   0.637
  912TIP3   OH2 2699   1.890   0.009   2.494
  912TIP3    H1 2700   1.882   0.077   2.561
  912TIP3    H2 2701   1.976  -0.030   2.508
  913TIP3   OH2 2702   5.230   6.210   2.708
  913TIP3    H1 2703   5.215   6.146   2.777
  913TIP3    H2 2704   5.325   6.210   2.696
  914TIP3   OH2 2705   1.612   1.586   1.967
  914TIP3    H1 2706   1.600   1.642   2.043
  914TIP3    H2 2707   1.688   1.532   1.988
  915TIP3   OH2 2708   1.015   0.941   4.570
  915TIP3    H1 2709   1.090   0.965   4.515
  915TIP3    H2 2710   0.978   1.024   4.598
  916TIP3   OH2 2711   1.007   4.076   2.930
  916TIP3    H1 2712   0.932   4.065   2.988
  916TIP3    H2 2713   1.082   4.047   2.981
  917TIP3   OH2 2714   5.862   4.106   3.185
  917TIP3    H1 2715   5.812   4.119   3.104
  917TIP3    H2 2716   5.952   4.129   3.162
  918TIP3   OH2 2717   1.731   5.295   1.696
  918TIP3    H1 2718   1.751   5.366   1.635
  918TIP3    H2 2719   1.805   5.235   1.688
  919TIP3   OH2 2720   6.539   0.284   4.686
  919TIP3    H1 2721   6.595   0.292   4.609
  919TIP3    H2 2722   6.450   0.276   4.651
  920TIP3   OH2 2723   6.309   5.893   3.226
  920TIP3    H1 2724   6.351   5.969   3.185
  920TIP3    H2 2725   6.353   5.886   3.311
  921TIP3   OH2 2726   0.614   4.253   1.541
  921TIP3    H1 2727   0.651   4.338   1.517
  921TIP3    H2 2728   0.683   4.190   1.520
  922TIP3   OH2 2729   4.846   2.576   4.313
  922TIP3    H1 2730   4.811   2.555   4.400
  922TIP3    H2 2731   4.921   2.634   4.331
  923TIP3   OH2 2732   4.721   4.208   1.790
  923TIP3    H1 2733   4.781   4.150   1.836
  923TIP3    H2 2734   4.739   4.295   1.826
  924TIP3   OH2 2735   0.622   6.320   5.389
  924TIP3    H1 2736   0.572   6.368   5.322
  924TIP3    H2 2737   0.562   6.315   5.464
  925TIP3   OH2 2738   1.049   1.514   3.418
  925TIP3    H1 2739   0.975   1.493   3.475
  925TIP3    H2 2740   1.050   1.444   3.353
  926TIP3   OH2 2741   1.428   1.226   1.844
  926TIP3    H1 2742   1.453   1.166   1.774
  926TIP3    H2 2743   1.410   1.170   1.920
  927TIP3   OH2 2744   2.798   6.528   5.362
  927TIP3    H1 2745   2.791   6.473   5.284
  927TIP3    H2 2746   2.765   6.474   5.434
  928TIP3   OH2 2747   2.158   4.406   2.619
  928TIP3    H1 2748   2.231   4.388   2.678
  928TIP3    H2 2749   2.161   4.335   2.555
  929TIP3   OH2 2750   1.067   0.876   5.127
  929TIP3    H1 2751   1.002   0.843   5.064
  929TIP3    H2 2752   1.086   0.801   5.184
  930TIP3   OH2 2753   1.829   0.529   1.986
  930TIP3    H1 2754   1.903   0.513   2.045
  930TIP3    H2 2755   1.752   0.531   2.042
  931TIP3   OH2 2756   6.809   0.363   1.905
  931TIP3    H1 2757   6.789   0.414   1.983
  931TIP3    H2 2758   6.805   0.426   1.833
  932TIP3   OH2 2759   5.608   3.147   0.946
  932TIP3    H1 2760   5.654   3.206   0.886
  932TIP3    H2 2761   5.655   3.155   1.029
  933TIP3   OH2 2762   2.611   5.435   2.012
  933TIP3    H1 2763   2.535   5.479   2.049
  933TIP3    H2 2764   2.626   5.480   1.929
  934TIP3   OH2 2765   6.396   0.348   5.466
  934TIP3    H1 2766   6.384   0.276   5.404
  934TIP3    H2 2767   6.409   0.425   5.411
  935TIP3   OH2 2768   2.645   2.219   4.162
  935TIP3    H1 2769   2.704   2.183   4.095
  935TIP3    H2 2770   2.607   2.141   4.203
  936TIP3   OH2 2771   6.383   2.547   1.473
  936TIP3    H1 2772   6.326   2.479   1.438
  936TIP3    H2 2773   6.340   2.574   1.554
  937TIP3   OH2 2774   1.094   4.281   3.464
  937TIP3    H1 2775   1.178   4.324   3.478
  937TIP3    H2 2776   1.116   4.190   3.446
  938TIP3   OH2 2777   3.526   5.313   3.036
  938TIP3    H1 2778   3.434   5.336   3.046
  938TIP3    H2 2779   3.548   5.266   3.117
  939TIP3   OH2 2780   5.756   3.201   5.037
  939TIP3    H1 2781   5.724   3.111   5.040
  939TIP3    H2 2782   5.839   3.195   4.991
  940TIP3   OH2 2783   5.989   2.835   4.323
  940TIP3    H1 2784   6.079   2.808   4.308
  940TIP3    H2 2785   5.996   2.918   4.370
  941TIP3   OH2 2786   3.955   1.965   0.535
  941TIP3    H1 2787   4.043   1.989   0.506
  941TIP3    H2 2788   3.953   1.870   0.528
  942TIP3   OH2 2789   2.968   0.680   0.066
  942TIP3    H1 2790   3.016   0.677   0.148
  942TIP3    H2 2791   2.978   0.592   0.029
  943TIP3   OH2 2792   6.864   0.466   4.161
  943TIP3    H1 2793   6.834   0.557   4.161
  943TIP3    H2 2794   6.950   0.469   4.119
  944TIP3   OH2 2795   0.086   2.578   4.897
  944TIP3    H1 2796   0.090   2.560   4.803
  944TIP3    H2 2797   0.173   2.555   4.929
  945TIP3   OH2 2798   5.700   5.026   2.710
  945TIP3    H1 2799   5.606   5.038   2.702
  945TIP3    H2 2800   5.713   4.987   2.796
  946TIP3   OH2 2801   2.638   4.038   4.088
  946TIP3    H1 2802   2.696   3.968   4.117
  946TIP3    H2 2803   2.670   4.116   4.135
  947TIP3   OH2 2804   6.921   2.250   0.284
  947TIP3    H1 2805   6.987   2.306   0.324
  947TIP3    H2 2806   6.892   2.298   0.207
  948TIP3   OH2 2807   6.300   2.290   5.805
  948TIP3    H1 2808   6.332   2.353   5.741
  948TIP3    H2 2809   6.247   2.229   5.754
  949TIP3   OH2 2810   3.569   0.296   3.121
  949TIP3    H1 2811   3.597   0.286   3.212
  949TIP3    H2 2812   3.474   0.283   3.124
  950TIP3   OH2 2813   1.025   2.173   0.289
  950TIP3    H1 2814   1.027   2.238   0.359
  950TIP3    H2 2815   0.997   2.092   0.332
  951TIP3   OH2 2816   1.911   3.935   2.766
  951TIP3    H1 2817   1.853   4.009   2.748
  951TIP3    H2 2818   1.984   3.974   2.815
  952TIP3   OH2 2819   7.093   4.867   2.306
  952TIP3    H1 2820   7.040   4.908   2.237
  952TIP3    H2 2821   7.059   4.902   2.388
  953TIP3   OH2 2822   1.684   3.445   1.802
  953TIP3    H1 2823   1.721   3.430   1.715
  953TIP3    H2 2824   1.730   3.523   1.835
  954TIP3   OH2 2825   3.874   2.652   2.348
  954TIP3    H1 2826   3.883   2.730   2.403
  954TIP3    H2 2827   3.780   2.637   2.343
  955TIP3   OH2 2828   5.133   6.625   0.176
  955TIP3    H1 2829   5.132   6.650   0.269
  955TIP3    H2 2830   5.166   6.703   0.131
  956TIP3   OH2 2831   3.540   6.000   4.020
  956TIP3    H1 2832   3.506   6.040   3.940
  956TIP3    H2 2833   3.483   5.924   4.035
  957TIP3   OH2 2834   4.350   0.078   4.670
  957TIP3    H1 2835   4.398   0.159   4.686
  957TIP3    H2 2836   4.377   0.020   4.741
  958TIP3   OH2 2837   1.474   5.291   3.852
  958TIP3    H1 2838   1.480   5.383   3.827
  958TIP3    H2 2839   1.483   5.244   3.769
  959TIP3   OH2 2840   2.867   6.778   0.166
  959TIP3    H1 2841   2.920   6.848   0.204
  959TIP3    H2 2842   2.908   6.761   0.081
  960TIP3   OH2 2843   2.526   3.995   1.609
  960TIP3    H1 2844   2.457   3.960   1.552
  960TIP3    H2 2845   2.592   3.926   1.613
  961TIP3   OH2 2846   3.834   0.156   2.418
  961TIP3    H1 2847   3.775   0.119   2.484
  961TIP3    H2 2848   3.913   0.179   2.466
  962TIP3   OH2 2849   6.235   6.749   2.315
  962TIP3    H1 2850   6.221   6.666   2.270
  962TIP3    H2 2851   6.328   6.747   2.339
  963TIP3   OH2 2852   0.871   3.521   5.427
  963TIP3    H1 2853   0.851   3.512   5.334
  963TIP3    H2 2854   0.964   3.498   5.433
  964TIP3   OH2 2855   7.143   6.480   1.958
  964TIP3    H1 2856   7.124   6.390   1.984
  964TIP3    H2 2857   7.067   6.530   1.986
  965TIP3   OH2 2858   3.069   5.144   5.758
  965TIP3    H1 2859   2.983   5.139   5.715
  965TIP3    H2 2860   3.059   5.095   5.839
  966TIP3   OH2 2861   2.735   1.437   3.028
  966TIP3    H1 2862   2.752   1.354   2.983
  966TIP3    H2 2863   2.795   1.499   2.988
  967TIP3   OH2 2864   1.879   6.633   4.982
  967TIP3    H1 2865   1.811   6.612   4.918
  967TIP3    H2 2866   1.831   6.667   5.058
  968TIP3   OH2 2867   3.094   6.303   0.960
  968TIP3    H1 2868   3.064   6.357   0.887
  968TIP3    H2 2869   3.136   6.365   1.020
  969TIP3   OH2 2870   2.025   0.233   1.915
  969TIP3    H1 2871   2.007   0.193   2.000
  969TIP3    H2 2872   2.083   0.306   1.934
  970TIP3   OH2 2873   5.881   2.799   5.079
  970TIP3    H1 2874   5.895   2.785   4.986
  970TIP3    H2 2875   5.968   2.818   5.115
  971TIP3   OH2 2876   6.322   0.749   4.035
  971TIP3    H1 2877   6.246   0.719   4.085
  971TIP3    H2 2878   6.396   0.702   4.073
  972TIP3   OH2 2879   1.169   2.385   3.337
  972TIP3    H1 2880   1.140   2.470   3.368
  972TIP3    H2 2881   1.264   2.383   3.354
  973TIP3   OH2 2882   1.480   0.894   2.345
  973TIP3    H1 2883   1.460   0.804   2.318
  973TIP3    H2 2884   1.546   0.884   2.414
  974TIP3   OH2 2885   0.435   2.739   5.573
  974TIP3    H1 2886   0.464   2.699   5.491
  974TIP3    H2 2887   0.355   2.785   5.550
  975TIP3   OH2 2888   1.015   3.994   0.319
  975TIP3    H1 2889   0.944   4.058   0.328
  975TIP3    H2 2890   1.069   4.028   0.248
  976TIP3   OH2 2891   6.714   3.373   5.397
  976TIP3    H1 2892   6.721   3.300   5.336
  976TIP3    H2 2893   6.628   3.412   5.379
  977TIP3   OH2 2894   5.691   3.654   1.537
  977TIP3    H1 2895   5.652   3.645   1.624
  977TIP3    H2 2896   5.723   3.566   1.516
  978TIP3   OH2 2897   5.515   4.580   1.643
  978TIP3    H1 2898   5.606   4.551   1.640
  978TIP3    H2 2899   5.488   4.583   1.551
  979TIP3   OH2 2900   5.389   1.039   2.802
  979TIP3    H1 2901   5.407   0.947   2.823
  979TIP3    H2 2902   5.427   1.051   2.715
  980TIP3   OH2 2903   6.516   1.412   4.997
  980TIP3    H1 2904   6.467   1.400   5.079
  980TIP3    H2 2905   6.548   1.324   4.976
  981TIP3   OH2 2906   3.721   5.421   3.213
  981TIP3    H1 2907   3.784   5.410   3.284
  981TIP3    H2 2908   3.758   5.370   3.141
  982TIP3   OH2 2909   6.409   0.037   4.552
  982TIP3    H1 2910   6.385   0.126   4.525
  982TIP3    H2 2911   6.378   0.030   4.642
  983TIP3   OH2 2912   1.580   5.975   2.399
  983TIP3    H1 2913   1.666   5.980   2.357
  983TIP3    H2 2914   1.519   5.957   2.328
  984TIP3   OH2 2915   3.917   1.911   3.290
  984TIP3    H1 2916   3.943   1.888   3.201
  984TIP3    H2 2917   3.973   1.986   3.312
  985TIP3   OH2 2918   4.074   6.411   4.706
  985TIP3    H1 2919   3.989   6.454   4.700
  985TIP3    H2 2920   4.090   6.400   4.800
  986TIP3   OH2 2921   3.920   5.981   3.240
  986TIP3    H1 2922   3.914   6.045   3.169
  986TIP3    H2 2923   3.919   6.034   3.320
  987TIP3   OH2 2924   2.408   1.459   4.400
  987TIP3    H1 2925   2.337   1.404   4.367
  987TIP3    H2 2926   2.384   1.478   4.491
  988TIP3   OH2 2927   1.909   3.042   3.566
  988TIP3    H1 2928   1.912   2.982   3.641
  988TIP3    H2 2929   1.928   2.987   3.490
  989TIP3   OH2 2930   4.606   1.478   1.274
  989TIP3    H1 2931   4.583   1.482   1.182
  989TIP3    H2 2932   4.533   1.521   1.319
  990TIP3   OH2 2933   5.011   0.294   4.766
  990TIP3    H1 2934   4.975   0.378   4.796
  990TIP3    H2 2935   5.053   0.315   4.683
  991TIP3   OH2 2936   2.364   6.597   3.735
  991TIP3    H1 2937   2.420   6.522   3.714
  991TIP3    H2 2938   2.291   6.560   3.783
  992TIP3   OH2 2939   3.445   3.539   1.046
  992TIP3    H1 2940   3.427   3.451   1.081
  992TIP3    H2 2941   3.531   3.560   1.080
  993TIP3   OH2 2942   4.417   6.404   4.958
  993TIP3    H1 2943   4.445   6.467   4.891
  993TIP3    H2 2944   4.375   6.457   5.026
  994TIP3   OH2 2945   2.708   0.263   3.125
  994TIP3    H1 2946   2.715   0.322   3.200
  994TIP3    H2 2947   2.746   0.312   3.052
  995TIP3   OH2 2948   3.456   1.501   2.429
  995TIP3    H1 2949   3.500   1.430   2.477
  995TIP3    H2 2950   3.430   1.563   2.497
  996TIP3   OH2 2951   1.143   4.590   1.794
  996TIP3    H1 2952   1.104   4.667   1.752
  996TIP3    H2 2953   1.131   4.605   1.887
  997TIP3   OH2 2954   1.630   3.641   0.175
  997TIP3    H1 2955   1.616   3.727   0.213
  997TIP3    H2 2956   1.592   3.580   0.239
  998TIP3   OH2 2957   6.585   3.466   4.663
  998TIP3    H1 2958   6.619   3.539   4.714
  998TIP3    H2 2959   6.662   3.426   4.625
  999TIP3   OH2 2960   6.315   0.501   1.057
  999TIP3    H1 2961   6.296   0.516   0.964
  999TIP3    H2 2962   6.376   0.570   1.080
 1000TIP3   OH2 2963   2.092   0.515   3.157
 1000TIP3    H1 2964   2.186   0.513   3.144
 1000TIP3    H2 2965   2.068   0.607   3.155
 1001TIP3   OH2 2966   6.711   4.986   5.013
 1001TIP3    H1 2967   6.745   5.043   4.944
 1001TIP3    H2 2968   6.690   5.044   5.085
 1002TIP3   OH2 2969   1.838   4.400   3.708
 1002TIP3    H1 2970   1.762   4.395   3.767
 1002TIP3    H2 2971   1.913   4.411   3.766
 1003TIP3   OH2 2972   5.320   4.497   5.614
 1003TIP3    H1 2973   5.233   4.484   5.579
 1003TIP3    H2 2974   5.371   4.532   5.541
 1004TIP3   OH2 2975   3.038   3.602   0.506
 1004TIP3    H1 2976   2.993   3.584   0.588
 1004TIP3    H2 2977   3.074   3.691   0.518
 1005TIP3   OH2 2978   6.141   0.320   3.267
 1005TIP3    H1 2979   6.147   0.270   3.349
 1005TIP3    H2 2980   6.061   0.372   3.277
 1006TIP3   OH2 2981   6.910   3.279   5.117
 1006TIP3    H1 2982   6.930   3.352   5.175
 1006TIP3    H2 2983   6.857   3.219   5.170
 1007TIP3   OH2 2984   3.528   3.563   3.709
 1007TIP3    H1 2985   3.592   3.571   3.637
 1007TIP3    H2 2986   3.498   3.653   3.723
 1008TIP3   OH2 2987   6.911   6.726   4.889
 1008TIP3    H1 2988   6.855   6.725   4.966
 1008TIP3    H2 2989   6.970   6.652   4.900
 1009TIP3   OH2 2990   2.632   3.717   1.638
 1009TIP3    H1 2991   2.606   3.693   1.549
 1009TIP3    H2 2992   2.717   3.675   1.650
 1010TIP3   OH2 2993   6.326   5.930   1.688
 1010TIP3    H1 2994   6.417   5.953   1.707
 1010TIP3    H2 2995   6.287   5.912   1.773
 1011TIP3   OH2 2996   0.288   1.410   0.460
 1011TIP3    H1 2997   0.249   1.335   0.416
 1011TIP3    H2 2998   0.215   1.470   0.474
 1012TIP3   OH2 2999   5.907   1.832   2.514
 1012TIP3    H1 3000   5.960   1.879   2.577
 1012TIP3    H2 3001   5.924   1.739   2.531
 1013TIP3   OH2 3002   1.205   4.893   1.299
 1013TIP3    H1 3003   1.216   4.947   1.221
 1013TIP3    H2 3004   1.123   4.923   1.338
 1014TIP3   OH2 3005   3.311   1.634   1.800
 1014TIP3    H1 3006   3.290   1.656   1.709
 1014TIP3    H2 3007   3.226   1.634   1.845
 1015TIP3   OH2 3008   3.247   5.080   5.167
 1015TIP3    H1 3009   3.300   5.062   5.245
 1015TIP3    H2 3010   3.310   5.084   5.095
 1016TIP3   OH2 3011   2.766   4.554   3.016
 1016TIP3    H1 3012   2.754   4.462   2.992
 1016TIP3    H2 3013   2.830   4.587   2.954
 1017TIP3   OH2 3014   2.975   1.663   4.010
 1017TIP3    H1 3015   2.893   1.711   4.004
 1017TIP3    H2 3016   2.951   1.572   3.993
 1018TIP3   OH2 3017   5.683   4.313   2.605
 1018TIP3    H1 3018   5.755   4.250   2.614
 1018TIP3    H2 3019   5.639   4.312   2.689
 1019TIP3   OH2 3020   0.688   0.271   3.733
 1019TIP3    H1 3021   0.770   0.272   3.783
 1019TIP3    H2 3022   0.623   0.236   3.794
 1020TIP3   OH2 3023   3.765   5.727   2.464
 1020TIP3    H1 3024   3.744   5.821   2.468
 1020TIP3    H2 3025   3.726   5.698   2.381
 1021TIP3   OH2 3026   1.719   5.537   3.364
 1021TIP3    H1 3027   1.813   5.530   3.350
 1021TIP3    H2 3028   1.701   5.631   3.362
 1022TIP3   OH2 3029   6.243   1.597   2.574
 1022TIP3    H1 3030   6.315   1.660   2.583
 1022TIP3    H2 3031   6.287   1.515   2.553
 1023TIP3   OH2 3032   6.279   0.026   5.563
 1023TIP3    H1 3033   6.366   0.014   5.600
 1023TIP3    H2 3034   6.294   0.056   5.474
 1024TIP3   OH2 3035   3.333   1.976   1.060
 1024TIP3    H1 3036   3.250   1.982   1.013
 1024TIP3    H2 3037   3.399   1.997   0.994
 1025TIP3   OH2 3038   5.219   0.665   4.812
 1025TIP3    H1 3039   5.190   0.643   4.900
 1025TIP3    H2 3040   5.313   0.646   4.812
 1026TIP3   OH2 3041   1.726   0.152   0.171
 1026TIP3    H1 3042   1.789   0.106   0.227
 1026TIP3    H2 3043   1.672   0.201   0.232
 1027TIP3   OH2 3044   4.677   1.861   1.400
 1027TIP3    H1 3045   4.639   1.815   1.324
 1027TIP3    H2 3046   4.655   1.953   1.386
 1028TIP3   OH2 3047   3.062   2.142   1.877
 1028TIP3    H1 3048   3.098   2.224   1.844
 1028TIP3    H2 3049   3.063   2.083   1.801
 1029TIP3   OH2 3050   1.999   6.380   3.633
 1029TIP3    H1 3051   1.909   6.351   3.616
 1029TIP3    H2 3052   2.001   6.472   3.606
 1030TIP3   OH2 3053   4.241   3.637   2.361
 1030TIP3    H1 3054   4.241   3.667   2.452
 1030TIP3    H2 3055   4.288   3.706   2.313
 1031TIP3   OH2 3056   3.160   0.804   4.659
 1031TIP3    H1 3057   3.189   0.895   4.658
 1031TIP3    H2 3058   3.156   0.781   4.751
 1032TIP3   OH2 3059   3.560   5.367   5.459
 1032TIP3    H1 3060   3.626   5.435   5.443
 1032TIP3    H2 3061   3.537   5.335   5.372
 1033TIP3   OH2 3062   1.673   0.698   1.821
 1033TIP3    H1 3063   1.727   0.740   1.754
 1033TIP3    H2 3064   1.735   0.650   1.876
 1034TIP3   OH2 3065   0.463   5.578   2.285
 1034TIP3    H1 3066   0.424   5.665   2.292
 1034TIP3    H2 3067   0.517   5.582   2.205
 1035TIP3   OH2 3068   6.665   4.960   0.981
 1035TIP3    H1 3069   6.644   5.040   0.933
 1035TIP3    H2 3070   6.759   4.967   0.999
 1036TIP3   OH2 3071   4.880   3.371   1.832
 1036TIP3    H1 3072   4.877   3.312   1.757
 1036TIP3    H2 3073   4.793   3.410   1.835
 1037TIP3   OH2 3074   5.634   4.678   1.087
 1037TIP3    H1 3075   5.707   4.618   1.068
 1037TIP3    H2 3076   5.570   4.660   1.018
 1038TIP3   OH2 3077   3.550   1.615   4.336
 1038TIP3    H1 3078   3.600   1.696   4.326
 1038TIP3    H2 3079   3.469   1.630   4.286
 1039TIP3   OH2 3080   3.698   6.439   4.075
 1039TIP3    H1 3081   3.720   6.373   4.141
 1039TIP3    H2 3082   3.632   6.493   4.117
 1040TIP3   OH2 3083   3.078   3.630   4.842
 1040TIP3    H1 3084   3.051   3.711   4.798
 1040TIP3    H2 3085   3.164   3.650   4.879
 1041TIP3   OH2 3086   4.898   5.887   2.284
 1041TIP3    H1 3087   4.831   5.891   2.352
 1041TIP3    H2 3088   4.974   5.929   2.323
 1042TIP3   OH2 3089   3.633   0.966   4.658
 1042TIP3    H1 3090   3.723   0.935   4.650
 1042TIP3    H2 3091   3.580   0.895   4.622
 1043TIP3   OH2 3092   2.624   0.342   1.861
 1043TIP3    H1 3093   2.664   0.256   1.848
 1043TIP3    H2 3094   2.681   0.402   1.812
 1044TIP3   OH2 3095   2.590   0.121   4.110
 1044TIP3    H1 3096   2.665   0.136   4.052
 1044TIP3    H2 3097   2.624   0.136   4.198
 1045TIP3   OH2 3098   0.825   5.173   1.020
 1045TIP3    H1 3099   0.880   5.202   1.092
 1045TIP3    H2 3100   0.792   5.088   1.047
 1046TIP3   OH2 3101   1.781   3.648   1.946
 1046TIP3    H1 3102   1.749   3.733   1.917
 1046TIP3    H2 3103   1.776   3.651   2.041
 1047TIP3   OH2 3104   2.221   0.994   2.769
 1047TIP3    H1 3105   2.239   1.084   2.740
 1047TIP3    H2 3106   2.283   0.940   2.721
 1048TIP3   OH2 3107   5.661   0.834   1.006
 1048TIP3    H1 3108   5.668   0.891   1.083
 1048TIP3    H2 3109   5.740   0.780   1.009
 1049TIP3   OH2 3110   3.808   4.441   3.821
 1049TIP3    H1 3111   3.734   4.410   3.873
 1049TIP3    H2 3112   3.875   4.462   3.886
 1050TIP3   OH2 3113   5.957   3.774   2.915
 1050TIP3    H1 3114   5.872   3.818   2.917
 1050TIP3    H2 3115   5.953   3.717   2.838
 1051TIP3   OH2 3116   0.155   1.345   3.408
 1051TIP3    H1 3117   0.188   1.400   3.337
 1051TIP3    H2 3118   0.205   1.265   3.403
 1052TIP3   OH2 3119   6.283   2.890   4.550
 1052TIP3    H1 3120   6.260   2.819   4.610
 1052TIP3    H2 3121   6.318   2.959   4.607
 1053TIP3   OH2 3122   2.576   1.920   0.077
 1053TIP3    H1 3123   2.592   1.838   0.031
 1053TIP3    H2 3124   2.492   1.907   0.122
 1054TIP3   OH2 3125   4.830   2.017   5.308
 1054TIP3    H1 3126   4.803   1.927   5.327
 1054TIP3    H2 3127   4.835   2.058   5.394
 1055TIP3   OH2 3128   4.722   2.686   1.000
 1055TIP3    H1 3129   4.627   2.679   1.008
 1055TIP3    H2 3130   4.754   2.688   1.090
 1056TIP3   OH2 3131   4.301   5.646   1.791
 1056TIP3    H1 3132   4.315   5.614   1.880
 1056TIP3    H2 3133   4.240   5.583   1.751
 1057TIP3   OH2 3134   5.636   4.421   1.406
 1057TIP3    H1 3135   5.592   4.497   1.369
 1057TIP3    H2 3136   5.658   4.367   1.330
 1058TIP3   OH2 3137   3.014   4.748   1.553
 1058TIP3    H1 3138   2.964   4.717   1.629
 1058TIP3    H2 3139   3.020   4.842   1.566
 1059TIP3   OH2 3140   6.215   6.746   4.956
 1059TIP3    H1 3141   6.182   6.836   4.957
 1059TIP3    H2 3142   6.155   6.699   4.899
 1060TIP3   OH2 3143   5.767   2.987   3.412
 1060TIP3    H1 3144   5.719   2.943   3.482
 1060TIP3    H2 3145   5.834   3.038   3.458
 1061TIP3   OH2 3146   3.681   4.879   4.138
 1061TIP3    H1 3147   3.642   4.810   4.191
 1061TIP3    H2 3148   3.623   4.955   4.151
 1062TIP3   OH2 3149   3.372   5.852   0.853
 1062TIP3    H1 3150   3.447   5.847   0.912
 1062TIP3    H2 3151   3.355   5.946   0.843
 1063TIP3   OH2 3152   4.108   4.102   4.823
 1063TIP3    H1 3153   4.191   4.148   4.809
 1063TIP3    H2 3154   4.043   4.154   4.776
 1064TIP3   OH2 3155   1.929   0.831   2.451
 1064TIP3    H1 3156   1.837   0.852   2.465
 1064TIP3    H2 3157   1.975   0.913   2.464
 1065TIP3   OH2 3158   3.478   0.280   2.764
 1065TIP3    H1 3159   3.448   0.285   2.855
 1065TIP3    H2 3160   3.408   0.234   2.718
 1066TIP3   OH2 3161   6.908   2.487   0.115
 1066TIP3    H1 3162   6.871   2.568   0.150
 1066TIP3    H2 3163   6.988   2.473   0.167
 1067TIP3   OH2 3164   1.262   2.422   3.707
 1067TIP3    H1 3165   1.258   2.343   3.760
 1067TIP3    H2 3166   1.300   2.394   3.624
 1068TIP3   OH2 3167   2.855   6.777   5.413
 1068TIP3    H1 3168   2.875   6.762   5.505
 1068TIP3    H2 3169   2.845   6.689   5.376
 1069TIP3   OH2 3170   2.187   5.524   2.884
 1069TIP3    H1 3171   2.234   5.604   2.862
 1069TIP3    H2 3172   2.106   5.554   2.925
 1070TIP3   OH2 3173   0.136   1.439   2.868
 1070TIP3    H1 3174   0.201   1.381   2.909
 1070TIP3    H2 3175   0.174   1.461   2.783
 1071TIP3   OH2 3176   5.284   6.239   5.519
 1071TIP3    H1 3177   5.245   6.164   5.565
 1071TIP3    H2 3178   5.314   6.204   5.435
 1072TIP3   OH2 3179   2.307   4.680   2.565
 1072TIP3    H1 3180   2.247   4.623   2.614
 1072TIP3    H2 3181   2.394   4.647   2.588
 1073TIP3   OH2 3182   5.871   1.323   4.388
 1073TIP3    H1 3183   5.914   1.237   4.388
 1073TIP3    H2 3184   5.802   1.315   4.322
 1074TIP3   OH2 3185   3.076   6.201   3.396
 1074TIP3    H1 3186   3.076   6.288   3.356
 1074TIP3    H2 3187   3.065   6.218   3.490
 1075TIP3   OH2 3188   0.827   1.485   4.561
 1075TIP3    H1 3189   0.896   1.550   4.572
 1075TIP3    H2 3190   0.850   1.440   4.480
 1076TIP3   OH2 3191   5.363   2.591   2.895
 1076TIP3    H1 3192   5.397   2.666   2.945
 1076TIP3    H2 3193   5.287   2.562   2.946
 1077TIP3   OH2 3194   4.377   3.925   2.597
 1077TIP3    H1 3195   4.348   3.932   2.506
 1077TIP3    H2 3196   4.419   3.840   2.603
 1078TIP3   OH2 3197   4.444   1.786   4.604
 1078TIP3    H1 3198   4.396   1.865   4.626
 1078TIP3    H2 3199   4.376   1.723   4.580
 1079TIP3   OH2 3200   0.794   4.165   0.287
 1079TIP3    H1 3201   0.773   4.115   0.208
 1079TIP3    H2 3202   0.810   4.254   0.255
 1080TIP3   OH2 3203   5.310   1.136   1.728
 1080TIP3    H1 3204   5.285   1.177   1.645
 1080TIP3    H2 3205   5.233   1.145   1.783
 1081TIP3   OH2 3206   4.829   3.877   1.131
 1081TIP3    H1 3207   4.883   3.814   1.178
 1081TIP3    H2 3208   4.774   3.824   1.073
 1082TIP3   OH2 3209   6.609   0.076   2.284
 1082TIP3    H1 3210   6.634   0.038   2.369
 1082TIP3    H2 3211   6.692   0.087   2.238
 1083TIP3   OH2 3212   4.605   5.315   0.916
 1083TIP3    H1 3213   4.562   5.308   1.001
 1083TIP3    H2 3214   4.542   5.361   0.861
 1084TIP3   OH2 3215   4.246   0.037   2.105
 1084TIP3    H1 3216   4.154   0.063   2.113
 1084TIP3    H2 3217   4.286   0.108   2.054
 1085TIP3   OH2 3218   5.888   4.152   2.411
 1085TIP3    H1 3219   5.859   4.061   2.401
 1085TIP3    H2 3220   5.980   4.150   2.385
 1086TIP3   OH2 3221   6.987   0.976   1.170
 1086TIP3    H1 3222   6.950   0.990   1.257
 1086TIP3    H2 3223   7.007   0.883   1.167
 1087TIP3   OH2 3224   2.371   0.370   2.001
 1087TIP3    H1 3225   2.353   0.454   2.043
 1087TIP3    H2 3226   2.465   0.371   1.985
 1088TIP3   OH2 3227   5.867   4.657   5.296
 1088TIP3    H1 3228   5.786   4.605   5.295
 1088TIP3    H2 3229   5.913   4.630   5.216
 1089TIP3   OH2 3230   3.765   6.126   1.224
 1089TIP3    H1 3231   3.754   6.145   1.131
 1089TIP3    H2 3232   3.800   6.037   1.227
 1090TIP3   OH2 3233   4.882   0.987   1.650
 1090TIP3    H1 3234   4.888   0.928   1.575
 1090TIP3    H2 3235   4.798   1.032   1.638
 1091TIP3   OH2 3236   4.749   5.216   5.257
 1091TIP3    H1 3237   4.701   5.135   5.276
 1091TIP3    H2 3238   4.684   5.273   5.216
 1092TIP3   OH2 3239   4.643   2.553   1.520
 1092TIP3    H1 3240   4.586   2.519   1.589
 1092TIP3    H2 3241   4.731   2.547   1.557
 1093TIP3   OH2 3242   4.578   3.580   5.441
 1093TIP3    H1 3243   4.556   3.503   5.388
 1093TIP3    H2 3244   4.519   3.648   5.409
 1094TIP3   OH2 3245   5.004   4.970   2.820
 1094TIP3    H1 3246   4.999   4.878   2.794
 1094TIP3    H2 3247   5.002   4.968   2.916
 1095TIP3   OH2 3248   5.745   1.914   1.463
 1095TIP3    H1 3249   5.733   1.836   1.409
 1095TIP3    H2 3250   5.839   1.916   1.482
 1096TIP3   OH2 3251   1.802   5.169   1.440
 1096TIP3    H1 3252   1.804   5.103   1.370
 1096TIP3    H2 3253   1.872   5.143   1.500
 1097TIP3   OH2 3254   5.972   4.523   5.074
 1097TIP3    H1 3255   6.007   4.556   4.991
 1097TIP3    H2 3256   6.035   4.457   5.102
 1098TIP3   OH2 3257   4.707   4.363   4.302
 1098TIP3    H1 3258   4.659   4.340   4.222
 1098TIP3    H2 3259   4.658   4.436   4.339
 1099TIP3   OH2 3260   5.793   1.127   4.638
 1099TIP3    H1 3261   5.709   1.167   4.613
 1099TIP3    H2 3262   5.834   1.103   4.555
 1100TIP3   OH2 3263   5.578   3.053   2.535
 1100TIP3    H1 3264   5.536   3.029   2.452
 1100TIP3    H2 3265   5.571   3.148   2.538
 1101TIP3   OH2 3266   1.973   4.915   1.485
 1101TIP3    H1 3267   2.058   4.890   1.521
 1101TIP3    H2 3268   1.977   4.890   1.393
 1102TIP3   OH2 3269   2.451   2.021   4.247
 1102TIP3    H1 3270   2.400   1.974   4.181
 1102TIP3    H2 3271   2.387   2.076   4.292
 1103TIP3   OH2 3272   0.274   2.188   4.589
 1103TIP3    H1 3273   0.188   2.166   4.627
 1103TIP3    H2 3274   0.259   2.186   4.495
 1104TIP3   OH2 3275   6.839   4.130   4.461
 1104TIP3    H1 3276   6.874   4.067   4.397
 1104TIP3    H2 3277   6.803   4.200   4.408
 1105TIP3   OH2 3278   7.166   3.931   1.691
 1105TIP3    H1 3279   7.172   4.023   1.717
 1105TIP3    H2 3280   7.163   3.933   1.595
 1106TIP3   OH2 3281   5.448   4.264   5.776
 1106TIP3    H1 3282   5.395   4.321   5.721
 1106TIP3    H2 3283   5.388   4.230   5.842
 1107TIP3   OH2 3284   1.664   0.903   2.522
 1107TIP3    H1 3285   1.654   0.863   2.608
 1107TIP3    H2 3286   1.672   0.997   2.540
 1108TIP3   OH2 3287   0.886   4.187   5.394
 1108TIP3    H1 3288   0.962   4.165   5.447
 1108TIP3    H2 3289   0.870   4.280   5.412
 1109TIP3   OH2 3290   4.297   3.478   0.281
 1109TIP3    H1 3291   4.290   3.446   0.371
 1109TIP3    H2 3292   4.251   3.412   0.229
 1110TIP3   OH2 3293   3.804   4.471   5.284
 1110TIP3    H1 3294   3.733   4.420   5.247
 1110TIP3    H2 3295   3.769   4.505   5.366
 1111TIP3   OH2 3296   2.840   5.582   0.148
 1111TIP3    H1 3297   2.815   5.673   0.161
 1111TIP3    H2 3298   2.855   5.549   0.237
 1112TIP3   OH2 3299   2.323   5.328   3.485
 1112TIP3    H1 3300   2.261   5.258   3.465
 1112TIP3    H2 3301   2.277   5.381   3.551
 1113TIP3   OH2 3302   3.972   1.009   0.520
 1113TIP3    H1 3303   3.962   0.916   0.540
 1113TIP3    H2 3304   3.905   1.052   0.573
 1114TIP3   OH2 3305   3.804   1.467   2.337
 1114TIP3    H1 3306   3.724   1.503   2.299
 1114TIP3    H2 3307   3.834   1.535   2.399
 1115TIP3   OH2 3308   0.842   3.350   3.084
 1115TIP3    H1 3309   0.848   3.359   3.180
 1115TIP3    H2 3310   0.932   3.338   3.056
 1116TIP3   OH2 3311   1.657   4.592   3.373
 1116TIP3    H1 3312   1.727   4.631   3.321
 1116TIP3    H2 3313   1.637   4.658   3.440
 1117TIP3   OH2 3314   0.498   3.328   0.804
 1117TIP3    H1 3315   0.404   3.312   0.794
 1117TIP3    H2 3316   0.503   3.413   0.847
 1118TIP3   OH2 3317   0.981   2.848   1.467
 1118TIP3    H1 3318   0.924   2.903   1.415
 1118TIP3    H2 3319   0.935   2.836   1.550
 1119TIP3   OH2 3320   5.139   6.224   2.442
 1119TIP3    H1 3321   5.158   6.303   2.393
 1119TIP3    H2 3322   5.196   6.229   2.519
 1120TIP3   OH2 3323   4.601   1.209   4.661
 1120TIP3    H1 3324   4.592   1.303   4.679
 1120TIP3    H2 3325   4.598   1.202   4.566
 1121TIP3   OH2 3326   2.010   0.813   2.130
 1121TIP3    H1 3327   2.066   0.830   2.206
 1121TIP3    H2 3328   1.938   0.875   2.138
 1122TIP3   OH2 3329   6.270   6.047   5.068
 1122TIP3    H1 3330   6.277   6.136   5.102
 1122TIP3    H2 3331   6.227   5.998   5.137
 1123TIP3   OH2 3332   3.091   1.010   3.668
 1123TIP3    H1 3333   3.093   1.008   3.763
 1123TIP3    H2 3334   3.129   0.926   3.641
 1124TIP3   OH2 3335   5.736   6.022   2.058
 1124TIP3    H1 3336   5.770   5.947   2.009
 1124TIP3    H2 3337   5.642   6.006   2.063
 1125TIP3   OH2 3338   3.508   1.832   5.307
 1125TIP3    H1 3339   3.474   1.900   5.249
 1125TIP3    H2 3340   3.574   1.877   5.360
 1126TIP3   OH2 3341   6.068   6.438   3.522
 1126TIP3    H1 3342   6.040   6.525   3.492
 1126TIP3    H2 3343   6.010   6.418   3.595
 1127TIP3   OH2 3344   5.685   3.333   0.752
 1127TIP3    H1 3345   5.616   3.373   0.698
 1127TIP3    H2 3346   5.728   3.407   0.795
 1128TIP3   OH2 3347   7.126   1.864   5.287
 1128TIP3    H1 3348   7.148   1.899   5.374
 1128TIP3    H2 3349   7.140   1.937   5.227
 1129TIP3   OH2 3350   0.442   0.495   4.469
 1129TIP3    H1 3351   0.473   0.584   4.488
 1129TIP3    H2 3352   0.347   0.504   4.462
 1130TIP3   OH2 3353   4.727   6.744   4.325
 1130TIP3    H1 3354   4.784   6.670   4.344
 1130TIP3    H2 3355   4.750   6.809   4.392
 1131TIP3   OH2 3356   2.849   0.717   1.289
 1131TIP3    H1 3357   2.782   0.768   1.336
 1131TIP3    H2 3358   2.804   0.637   1.262
 1132TIP3   OH2 3359   4.923   0.058   3.947
 1132TIP3    H1 3360   4.830   0.073   3.933
 1132TIP3    H2 3361   4.937  -0.033   3.918
 1133TIP3   OH2 3362   0.798   3.816   1.592
 1133TIP3    H1 3363   0.863   3.748   1.573
 1133TIP3    H2 3364   0.843   3.898   1.575
 1134TIP3   OH2 3365   3.564   0.587   5.739
 1134TIP3    H1 3366   3.503   0.592   5.813
 1134TIP3    H2 3367   3.636   0.645   5.764
 1135TIP3   OH2 3368   3.968   5.937   4.566
 1135TIP3    H1 3369   3.958   6.019   4.519
 1135TIP3    H2 3370   4.052   5.945   4.611
 1136TIP3   OH2 3371   3.679   1.023   2.378
 1136TIP3    H1 3372   3.770   1.010   2.353
 1136TIP3    H2 3373   3.680   1.104   2.429
 1137TIP3   OH2 3374   1.722   4.502   4.601
 1137TIP3    H1 3375   1.643   4.462   4.563
 1137TIP3    H2 3376   1.706   4.500   4.695
 1138TIP3   OH2 3377   4.957   0.692   1.058
 1138TIP3    H1 3378   4.875   0.679   1.105
 1138TIP3    H2 3379   5.011   0.743   1.119
 1139TIP3   OH2 3380   0.140   2.586   4.373
 1139TIP3    H1 3381   0.203   2.537   4.320
 1139TIP3    H2 3382   0.184   2.669   4.391
 1140TIP3   OH2 3383   1.974   6.236   4.337
 1140TIP3    H1 3384   2.021   6.210   4.416
 1140TIP3    H2 3385   1.958   6.153   4.291
 1141TIP3   OH2 3386   4.995   1.514   0.465
 1141TIP3    H1 3387   5.079   1.556   0.483
 1141TIP3    H2 3388   5.010   1.465   0.384
 1142TIP3   OH2 3389   4.074   5.343   0.700
 1142TIP3    H1 3390   4.082   5.438   0.704
 1142TIP3    H2 3391   4.144   5.311   0.757
 1143TIP3   OH2 3392   6.529   1.369   3.734
 1143TIP3    H1 3393   6.530   1.337   3.825
 1143TIP3    H2 3394   6.607   1.331   3.694
 1144TIP3   OH2 3395   5.696   6.330   2.283
 1144TIP3    H1 3396   5.712   6.365   2.370
 1144TIP3    H2 3397   5.638   6.255   2.298
 1145TIP3   OH2 3398   5.747   2.366   0.029
 1145TIP3    H1 3399   5.714   2.454   0.046
 1145TIP3    H2 3400   5.777   2.335   0.114
 1146TIP3   OH2 3401   4.606   6.278   5.318
 1146TIP3    H1 3402   4.575   6.212   5.379
 1146TIP3    H2 3403   4.688   6.309   5.356
 1147TIP3   OH2 3404   2.708   2.550   0.394
 1147TIP3    H1 3405   2.798   2.528   0.368
 1147TIP3    H2 3406   2.654   2.520   0.321
 1148TIP3   OH2 3407   2.258   1.573   3.020
 1148TIP3    H1 3408   2.194   1.643   3.033
 1148TIP3    H2 3409   2.256   1.523   3.102
 1149TIP3   OH2 3410   1.943   5.373   4.706
 1149TIP3    H1 3411   1.993   5.293   4.690
 1149TIP3    H2 3412   1.985   5.413   4.783
 1150TIP3   OH2 3413   2.831   1.916   4.903
 1150TIP3    H1 3414   2.741   1.904   4.935
 1150TIP3    H2 3415   2.866   1.827   4.898
 1151TIP3   OH2 3416   4.781   3.603   2.358
 1151TIP3    H1 3417   4.838   3.529   2.381
 1151TIP3    H2 3418   4.697   3.562   2.339
 1152TIP3   OH2 3419   6.378   0.865   4.515
 1152TIP3    H1 3420   6.375   0.945   4.463
 1152TIP3    H2 3421   6.326   0.802   4.465
 1153TIP3   OH2 3422   6.159   0.625   3.719
 1153TIP3    H1 3423   6.231   0.574   3.757
 1153TIP3    H2 3424   6.116   0.565   3.659
 1154TIP3   OH2 3425   3.426   6.194   2.704
 1154TIP3    H1 3426   3.433   6.289   2.710
 1154TIP3    H2 3427   3.467   6.171   2.621
 1155TIP3   OH2 3428   3.884   2.877   2.502
 1155TIP3    H1 3429   3.828   2.950   2.476
 1155TIP3    H2 3430   3.973   2.908   2.483
 1156TIP3   OH2 3431   4.222   5.609   0.717
 1156TIP3    H1 3432   4.316   5.621   0.728
 1156TIP3    H2 3433   4.182   5.668   0.781
 1157TIP3   OH2 3434   4.969   6.368   4.404
 1157TIP3    H1 3435   5.034   6.411   4.460
 1157TIP3    H2 3436   5.022   6.328   4.334
 1158TIP3   OH2 3437   5.856   5.031   4.471
 1158TIP3    H1 3438   5.842   4.990   4.385
 1158TIP3    H2 3439   5.951   5.028   4.482
 1159TIP3   OH2 3440   2.424   5.982   0.584
 1159TIP3    H1 3441   2.492   5.925   0.549
 1159TIP3    H2 3442   2.370   6.005   0.509
 1160TIP3   OH2 3443   1.110   1.262   3.277
 1160TIP3    H1 3444   1.059   1.183   3.259
 1160TIP3    H2 3445   1.164   1.273   3.199
 1161TIP3   OH2 3446   5.579   0.759   1.800
 1161TIP3    H1 3447   5.615   0.678   1.765
 1161TIP3    H2 3448   5.499   0.733   1.845
 1162TIP3   OH2 3449   2.105   0.137   2.716
 1162TIP3    H1 3450   2.104   0.184   2.799
 1162TIP3    H2 3451   2.154   0.056   2.734
 1163TIP3   OH2 3452   3.645   5.881   5.818
 1163TIP3    H1 3453   3.564   5.832   5.833
 1163TIP3    H2 3454   3.680   5.844   5.737
 1164TIP3   OH2 3455   3.184   1.360   4.636
 1164TIP3    H1 3456   3.101   1.361   4.589
 1164TIP3    H2 3457   3.244   1.408   4.580
 1165TIP3   OH2 3458   1.145   4.431   1.548
 1165TIP3    H1 3459   1.238   4.421   1.527
 1165TIP3    H2 3460   1.144   4.473   1.634
 1166TIP3   OH2 3461   5.294   3.775   4.176
 1166TIP3    H1 3462   5.323   3.789   4.266
 1166TIP3    H2 3463   5.265   3.684   4.174
 1167TIP3   OH2 3464   1.126   1.697   1.275
 1167TIP3    H1 3465   1.095   1.734   1.192
 1167TIP3    H2 3466   1.146   1.773   1.329
 1168TIP3   OH2 3467   0.817   4.384   0.097
 1168TIP3    H1 3468   0.776   4.470   0.110
 1168TIP3    H2 3469   0.790   4.357   0.009
 1169TIP3   OH2 3470   3.085   4.434   0.168
 1169TIP3    H1 3471   3.088   4.371   0.241
 1169TIP3    H2 3472   3.061   4.381   0.092
 1170TIP3   OH2 3473   0.126   6.189   0.913
 1170TIP3    H1 3474   0.071   6.265   0.893
 1170TIP3    H2 3475   0.104   6.126   0.844
 1171TIP3   OH2 3476   6.237   0.697   2.117
 1171TIP3    H1 3477   6.215   0.730   2.204
 1171TIP3    H2 3478   6.294   0.621   2.133
 1172TIP3   OH2 3479   4.672   4.082   0.400
 1172TIP3    H1 3480   4.763   4.111   0.401
 1172TIP3    H2 3481   4.658   4.050   0.311
 1173TIP3   OH2 3482   3.010   0.690   1.802
 1173TIP3    H1 3483   3.076   0.625   1.823
 1173TIP3    H2 3484   2.995   0.679   1.708
 1174TIP3   OH2 3485   6.899   6.776   0.845
 1174TIP3    H1 3486   6.982   6.809   0.880
 1174TIP3    H2 3487   6.887   6.692   0.888
 1175TIP3   OH2 3488   5.681   6.334   3.412
 1175TIP3    H1 3489   5.705   6.351   3.503
 1175TIP3    H2 3490   5.696   6.417   3.368
 1176TIP3   OH2 3491   2.324   3.426   5.706
 1176TIP3    H1 3492   2.299   3.342   5.745
 1176TIP3    H2 3493   2.314   3.489   5.777
 1177TIP3   OH2 3494   2.851   3.537   5.674
 1177TIP3    H1 3495   2.930   3.528   5.619
 1177TIP3    H2 3496   2.799   3.460   5.652
 1178TIP3   OH2 3497   1.606   4.720   3.615
 1178TIP3    H1 3498   1.644   4.711   3.703
 1178TIP3    H2 3499   1.533   4.781   3.627
 1179TIP3   OH2 3500   2.283   0.747   3.757
 1179TIP3    H1 3501   2.327   0.826   3.788
 1179TIP3    H2 3502   2.193   0.775   3.738
 1180TIP3   OH2 3503   1.394   0.215   3.983
 1180TIP3    H1 3504   1.435   0.141   4.028
 1180TIP3    H2 3505   1.337   0.175   3.918
 1181TIP3   OH2 3506   2.080   5.115   4.324
 1181TIP3    H1 3507   2.155   5.164   4.290
 1181TIP3    H2 3508   2.075   5.037   4.269
 1182TIP3   OH2 3509   6.277   0.652   5.919
 1182TIP3    H1 3510   6.289   0.649   5.824
 1182TIP3    H2 3511   6.194   0.607   5.934
 1183TIP3   OH2 3512   2.925   5.786   2.175
 1183TIP3    H1 3513   2.925   5.823   2.087
 1183TIP3    H2 3514   2.997   5.831   2.220
 1184TIP3   OH2 3515   6.342   3.668   3.471
 1184TIP3    H1 3516   6.361   3.658   3.378
 1184TIP3    H2 3517   6.326   3.762   3.482
 1185TIP3   OH2 3518   7.011   4.976   2.054
 1185TIP3    H1 3519   7.011   5.055   2.109
 1185TIP3    H2 3520   7.032   5.008   1.966
 1186TIP3   OH2 3521   1.941   3.531   1.098
 1186TIP3    H1 3522   1.913   3.621   1.115
 1186TIP3    H2 3523   2.037   3.535   1.102
 1187TIP3   OH2 3524   2.827   3.889   5.068
 1187TIP3    H1 3525   2.801   3.898   5.159
 1187TIP3    H2 3526   2.794   3.803   5.042
 1188TIP3   OH2 3527   4.784   4.958   1.873
 1188TIP3    H1 3528   4.807   5.045   1.839
 1188TIP3    H2 3529   4.818   4.957   1.962
 1189TIP3   OH2 3530   5.231   3.123   1.996
 1189TIP3    H1 3531   5.262   3.110   2.085
 1189TIP3    H2 3532   5.150   3.072   1.991
 1190TIP3   OH2 3533   1.183   3.096   1.504
 1190TIP3    H1 3534   1.114   3.035   1.479
 1190TIP3    H2 3535   1.155   3.180   1.468
 1191TIP3   OH2 3536   3.253   0.768   2.281
 1191TIP3    H1 3537   3.292   0.802   2.201
 1191TIP3    H2 3538   3.206   0.689   2.253
 1192TIP3   OH2 3539   0.415   3.294   0.385
 1192TIP3    H1 3540   0.322   3.300   0.366
 1192TIP3    H2 3541   0.428   3.348   0.463
 1193TIP3   OH2 3542   6.186   4.461   5.652
 1193TIP3    H1 3543   6.215   4.541   5.695
 1193TIP3    H2 3544   6.185   4.396   5.722
 1194TIP3   OH2 3545   6.409   5.358   4.468
 1194TIP3    H1 3546   6.320   5.383   4.446
 1194TIP3    H2 3547   6.401   5.312   4.551
 1195TIP3   OH2 3548   3.742   1.565   3.149
 1195TIP3    H1 3549   3.700   1.557   3.235
 1195TIP3    H2 3550   3.732   1.658   3.127
 1196TIP3   OH2 3551   2.594   2.776   4.831
 1196TIP3    H1 3552   2.570   2.844   4.768
 1196TIP3    H2 3553   2.685   2.796   4.855
 1197TIP3   OH2 3554   2.847   3.091   2.179
 1197TIP3    H1 3555   2.805   3.139   2.250
 1197TIP3    H2 3556   2.780   3.085   2.111
 1198TIP3   OH2 3557   4.882   6.150   5.422
 1198TIP3    H1 3558   4.920   6.111   5.501
 1198TIP3    H2 3559   4.898   6.085   5.354
 1199TIP3   OH2 3560   5.695   3.538   1.211
 1199TIP3    H1 3561   5.769   3.486   1.181
 1199TIP3    H2 3562   5.618   3.493   1.176
 1200TIP3   OH2 3563   2.508   1.491   5.597
 1200TIP3    H1 3564   2.569   1.551   5.554
 1200TIP3    H2 3565   2.491   1.423   5.531
 1201TIP3   OH2 3566   0.724   2.272   4.602
 1201TIP3    H1 3567   0.657   2.244   4.664
 1201TIP3    H2 3568   0.723   2.367   4.607
 1202TIP3   OH2 3569   0.893   4.140   5.856
 1202TIP3    H1 3570   0.926   4.134   5.946
 1202TIP3    H2 3571   0.966   4.111   5.802
 1203TIP3   OH2 3572   4.214   3.814   1.556
 1203TIP3    H1 3573   4.209   3.893   1.504
 1203TIP3    H2 3574   4.146   3.824   1.623
 1204TIP3   OH2 3575   4.305   1.791   1.099
 1204TIP3    H1 3576   4.351   1.847   1.162
 1204TIP3    H2 3577   4.335   1.821   1.013
 1205TIP3   OH2 3578   4.481   3.056   3.988
 1205TIP3    H1 3579   4.402   3.027   3.943
 1205TIP3    H2 3580   4.518   3.124   3.932
 1206TIP3   OH2 3581   5.841   3.782   5.463
 1206TIP3    H1 3582   5.778   3.712   5.479
 1206TIP3    H2 3583   5.916   3.738   5.423
 1207TIP3   OH2 3584   1.367   5.669   0.578
 1207TIP3    H1 3585   1.289   5.626   0.613
 1207TIP3    H2 3586   1.424   5.683   0.653
 1208TIP3   OH2 3587   6.901   3.691   3.932
 1208TIP3    H1 3588   6.995   3.708   3.931
 1208TIP3    H2 3589   6.893   3.599   3.906
 1209TIP3   OH2 3590   4.538   4.796   5.047
 1209TIP3    H1 3591   4.615   4.782   5.102
 1209TIP3    H2 3592   4.559   4.873   4.995
 1210TIP3   OH2 3593   4.899   4.484   3.614
 1210TIP3    H1 3594   4.946   4.407   3.646
 1210TIP3    H2 3595   4.910   4.549   3.683
 1211TIP3   OH2 3596   1.517   3.509   3.566
 1211TIP3    H1 3597   1.571   3.435   3.597
 1211TIP3    H2 3598   1.566   3.543   3.491
 1212TIP3   OH2 3599   1.443   2.860   1.572
 1212TIP3    H1 3600   1.514   2.857   1.636
 1212TIP3    H2 3601   1.467   2.794   1.507
 1213TIP3   OH2 3602   4.871   2.245   0.927
 1213TIP3    H1 3603   4.899   2.155   0.946
 1213TIP3    H2 3604   4.819   2.237   0.848
 1214TIP3   OH2 3605   1.259   4.934   2.557
 1214TIP3    H1 3606   1.257   5.002   2.490
 1214TIP3    H2 3607   1.287   4.855   2.510
 1215TIP3   OH2 3608   6.731   5.391   0.158
 1215TIP3    H1 3609   6.710   5.461   0.096
 1215TIP3    H2 3610   6.744   5.437   0.241
 1216TIP3   OH2 3611   4.352   4.733   0.677
 1216TIP3    H1 3612   4.374   4.694   0.762
 1216TIP3    H2 3613   4.396   4.677   0.613
 1217TIP3   OH2 3614   4.197   2.126   0.867
 1217TIP3    H1 3615   4.263   2.144   0.800
 1217TIP3    H2 3616   4.243   2.138   0.950
 1218TIP3   OH2 3617   3.239   4.102   4.891
 1218TIP3    H1 3618   3.280   4.059   4.816
 1218TIP3    H2 3619   3.189   4.033   4.934
 1219TIP3   OH2 3620   4.611   2.738   3.710
 1219TIP3    H1 3621   4.555   2.720   3.786
 1219TIP3    H2 3622   4.585   2.825   3.680
 1220TIP3   OH2 3623  -0.026   4.355   1.316
 1220TIP3    H1 3624   0.056   4.380   1.359
 1220TIP3    H2 3625  -0.052   4.432   1.266
 1221TIP3   OH2 3626   4.483   3.921   1.231
 1221TIP3    H1 3627   4.474   3.945   1.139
 1221TIP3    H2 3628   4.573   3.889   1.239
 1222TIP3   OH2 3629   2.944   4.237   5.119
 1222TIP3    H1 3630   2.905   4.242   5.206
 1222TIP3    H2 3631   3.022   4.293   5.125
 1223TIP3   OH2 3632   3.602   1.599   0.889
 1223TIP3    H1 3633   3.636   1.573   0.803
 1223TIP3    H2 3634   3.547   1.526   0.916
 1224TIP3   OH2 3635   4.428   2.426   5.119
 1224TIP3    H1 3636   4.471   2.341   5.110
 1224TIP3    H2 3637   4.483   2.475   5.180
 1225TIP3   OH2 3638   5.395   5.454   2.288
 1225TIP3    H1 3639   5.341   5.422   2.360
 1225TIP3    H2 3640   5.450   5.379   2.265
 1226TIP3   OH2 3641   4.298   2.001   4.656
 1226TIP3    H1 3642   4.204   2.016   4.642
 1226TIP3    H2 3643   4.323   2.065   4.723
 1227TIP3   OH2 3644   1.680   5.096   0.743
 1227TIP3    H1 3645   1.630   5.015   0.745
 1227TIP3    H2 3646   1.617   5.163   0.714
 1228TIP3   OH2 3647   0.395   0.082   0.092
 1228TIP3    H1 3648   0.449   0.131   0.030
 1228TIP3    H2 3649   0.323   0.142   0.114
 1229TIP3   OH2 3650   6.755   6.430   4.488
 1229TIP3    H1 3651   6.749   6.481   4.407
 1229TIP3    H2 3652   6.848   6.412   4.498
 1230TIP3   OH2 3653   5.615   2.803   3.577
 1230TIP3    H1 3654   5.553   2.734   3.600
 1230TIP3    H2 3655   5.627   2.852   3.658
 1231TIP3   OH2 3656   3.012   1.410   5.802
 1231TIP3    H1 3657   2.992   1.474   5.870
 1231TIP3    H2 3658   3.102   1.429   5.777
 1232TIP3   OH2 3659   1.041   2.990   4.103
 1232TIP3    H1 3660   0.957   3.036   4.106
 1232TIP3    H2 3661   1.029   2.915   4.162
 1233TIP3   OH2 3662   2.110   2.717   0.187
 1233TIP3    H1 3663   2.115   2.636   0.137
 1233TIP3    H2 3664   2.020   2.747   0.174
 1234TIP3   OH2 3665   3.377   2.073   1.951
 1234TIP3    H1 3666   3.457   2.020   1.950
 1234TIP3    H2 3667   3.349   2.075   1.859
 1235TIP3   OH2 3668   0.965   1.487   4.315
 1235TIP3    H1 3669   1.012   1.406   4.338
 1235TIP3    H2 3670   0.981   1.499   4.222
 1236TIP3   OH2 3671   6.819   5.941   1.578
 1236TIP3    H1 3672   6.874   5.868   1.549
 1236TIP3    H2 3673   6.795   5.987   1.498
 1237TIP3   OH2 3674   0.031   2.655   1.983
 1237TIP3    H1 3675   0.115   2.609   1.972
 1237TIP3    H2 3676   0.056   2.744   2.006
 1238TIP3   OH2 3677   6.214   2.236   1.973
 1238TIP3    H1 3678   6.203   2.331   1.971
 1238TIP3    H2 3679   6.144   2.202   1.918
 1239TIP3   OH2 3680   6.007   3.524   1.634
 1239TIP3    H1 3681   6.044   3.585   1.569
 1239TIP3    H2 3682   6.083   3.476   1.667
 1240TIP3   OH2 3683   2.902   3.123   4.648
 1240TIP3    H1 3684   2.858   3.145   4.566
 1240TIP3    H2 3685   2.953   3.202   4.669
 1241TIP3   OH2 3686   0.256   1.339   2.418
 1241TIP3    H1 3687   0.190   1.279   2.385
 1241TIP3    H2 3688   0.339   1.308   2.380
 1242TIP3   OH2 3689   1.990   6.183   4.863
 1242TIP3    H1 3690   1.961   6.218   4.948
 1242TIP3    H2 3691   1.957   6.246   4.799
 1243TIP3   OH2 3692   5.395   2.891   5.129
 1243TIP3    H1 3693   5.422   2.841   5.206
 1243TIP3    H2 3694   5.303   2.867   5.116
 1244TIP3   OH2 3695   0.735   2.461   5.701
 1244TIP3    H1 3696   0.796   2.401   5.743
 1244TIP3    H2 3697   0.729   2.535   5.761
 1245TIP3   OH2 3698   4.126   1.682   4.819
 1245TIP3    H1 3699   4.190   1.616   4.792
 1245TIP3    H2 3700   4.077   1.640   4.890
 1246TIP3   OH2 3701   3.666   4.291   0.157
 1246TIP3    H1 3702   3.688   4.198   0.159
 1246TIP3    H2 3703   3.680   4.318   0.067
 1247TIP3   OH2 3704   0.450   0.374   2.661
 1247TIP3    H1 3705   0.391   0.446   2.641
 1247TIP3    H2 3706   0.467   0.382   2.755
 1248TIP3   OH2 3707   4.977   6.216   1.805
 1248TIP3    H1 3708   5.034   6.165   1.862
 1248TIP3    H2 3709   4.932   6.151   1.751
 1249TIP3   OH2 3710   0.298   5.640   4.518
 1249TIP3    H1 3711   0.281   5.693   4.596
 1249TIP3    H2 3712   0.373   5.681   4.477
 1250TIP3   OH2 3713   4.121   1.843   0.866
 1250TIP3    H1 3714   4.157   1.825   0.779
 1250TIP3    H2 3715   4.120   1.938   0.872
 1251TIP3   OH2 3716   4.452   2.320   2.241
 1251TIP3    H1 3717   4.417   2.242   2.198
 1251TIP3    H2 3718   4.439   2.390   2.178
 1252TIP3   OH2 3719   5.531   3.089   3.201
 1252TIP3    H1 3720   5.438   3.102   3.217
 1252TIP3    H2 3721   5.573   3.112   3.284
 1253TIP3   OH2 3722   3.405   1.434   3.011
 1253TIP3    H1 3723   3.463   1.508   2.999
 1253TIP3    H2 3724   3.318   1.468   2.990
 1254TIP3   OH2 3725   1.532   5.705   1.871
 1254TIP3    H1 3726   1.531   5.797   1.847
 1254TIP3    H2 3727   1.492   5.660   1.796
 1255TIP3   OH2 3728   7.105   0.485   0.647
 1255TIP3    H1 3729   7.083   0.410   0.592
 1255TIP3    H2 3730   7.031   0.545   0.637
 1256TIP3   OH2 3731   4.270   0.201   3.726
 1256TIP3    H1 3732   4.323   0.155   3.661
 1256TIP3    H2 3733   4.260   0.289   3.690
 1257TIP3   OH2 3734   4.326   4.157   3.034
 1257TIP3    H1 3735   4.323   4.138   2.941
 1257TIP3    H2 3736   4.239   4.133   3.066
 1258TIP3   OH2 3737   2.576   0.385   0.966
 1258TIP3    H1 3738   2.561   0.342   0.881
 1258TIP3    H2 3739   2.654   0.439   0.951
 1259TIP3   OH2 3740   3.018   6.045   0.924
 1259TIP3    H1 3741   2.931   6.075   0.953
 1259TIP3    H2 3742   3.055   6.121   0.878
 1260TIP3   OH2 3743   2.326   5.851   0.825
 1260TIP3    H1 3744   2.370   5.767   0.836
 1260TIP3    H2 3745   2.363   5.889   0.745
 1261TIP3   OH2 3746   4.724   4.936   0.512
 1261TIP3    H1 3747   4.802   4.987   0.533
 1261TIP3    H2 3748   4.693   4.973   0.429
 1262TIP3   OH2 3749   3.487   2.335   2.276
 1262TIP3    H1 3750   3.501   2.346   2.370
 1262TIP3    H2 3751   3.396   2.306   2.268
 1263TIP3   OH2 3752   4.475   2.067   5.297
 1263TIP3    H1 3753   4.506   2.126   5.366
 1263TIP3    H2 3754   4.523   1.986   5.310
 1264TIP3   OH2 3755   1.193   3.818   3.446
 1264TIP3    H1 3756   1.190   3.736   3.397
 1264TIP3    H2 3757   1.216   3.884   3.381
 1265TIP3   OH2 3758   1.466   2.533   1.696
 1265TIP3    H1 3759   1.413   2.513   1.619
 1265TIP3    H2 3760   1.415   2.501   1.770
 1266TIP3   OH2 3761   5.750   2.495   2.335
 1266TIP3    H1 3762   5.832   2.493   2.384
 1266TIP3    H2 3763   5.759   2.571   2.278
 1267TIP3   OH2 3764   0.686   0.259   0.681
 1267TIP3    H1 3765   0.604   0.299   0.709
 1267TIP3    H2 3766   0.737   0.332   0.644
 1268TIP3   OH2 3767   5.383   4.362   0.473
 1268TIP3    H1 3768   5.330   4.283   0.459
 1268TIP3    H2 3769   5.322   4.434   0.464
 1269TIP3   OH2 3770   4.377   0.894   2.769
 1269TIP3    H1 3771   4.358   0.958   2.700
 1269TIP3    H2 3772   4.419   0.821   2.723
 1270TIP3   OH2 3773   3.553   4.548   1.880
 1270TIP3    H1 3774   3.643   4.533   1.852
 1270TIP3    H2 3775   3.500   4.518   1.806
 1271TIP3   OH2 3776   4.072   6.738   0.633
 1271TIP3    H1 3777   3.978   6.723   0.627
 1271TIP3    H2 3778   4.085   6.774   0.721
 1272TIP3   OH2 3779   6.791   0.119   1.478
 1272TIP3    H1 3780   6.834   0.181   1.419
 1272TIP3    H2 3781   6.707   0.100   1.437
 1273TIP3   OH2 3782   3.638   0.199   4.588
 1273TIP3    H1 3783   3.722   0.245   4.579
 1273TIP3    H2 3784   3.659   0.120   4.638
 1274TIP3   OH2 3785   4.085   5.198   2.412
 1274TIP3    H1 3786   4.032   5.120   2.392
 1274TIP3    H2 3787   4.097   5.194   2.507
 1275TIP3   OH2 3788   1.304   1.217   0.752
 1275TIP3    H1 3789   1.298   1.135   0.703
 1275TIP3    H2 3790   1.270   1.195   0.839
 1276TIP3   OH2 3791   5.773   1.422   0.921
 1276TIP3    H1 3792   5.752   1.413   0.828
 1276TIP3    H2 3793   5.723   1.353   0.965
 1277TIP3   OH2 3794   5.171   5.370   3.668
 1277TIP3    H1 3795   5.234   5.437   3.644
 1277TIP3    H2 3796   5.211   5.323   3.741
 1278TIP3   OH2 3797   0.595   6.137   4.412
 1278TIP3    H1 3798   0.537   6.189   4.467
 1278TIP3    H2 3799   0.538   6.068   4.376
 1279TIP3   OH2 3800   3.831   4.864   5.722
 1279TIP3    H1 3801   3.893   4.822   5.782
 1279TIP3    H2 3802   3.830   4.807   5.645
 1280TIP3   OH2 3803   4.176   5.371   3.825
 1280TIP3    H1 3804   4.259   5.419   3.821
 1280TIP3    H2 3805   4.182   5.321   3.907
 1281TIP3   OH2 3806   3.735   5.971   2.669
 1281TIP3    H1 3807   3.757   5.960   2.762
 1281TIP3    H2 3808   3.645   5.939   2.662
 1282TIP3   OH2 3809   0.072   4.297   3.599
 1282TIP3    H1 3810   0.091   4.232   3.531
 1282TIP3    H2 3811   0.080   4.250   3.681
 1283TIP3   OH2 3812   3.757   0.254   5.218
 1283TIP3    H1 3813   3.684   0.229   5.276
 1283TIP3    H2 3814   3.727   0.232   5.130
 1284TIP3   OH2 3815   6.096   5.532   3.134
 1284TIP3    H1 3816   6.064   5.558   3.047
 1284TIP3    H2 3817   6.187   5.506   3.119
 1285TIP3   OH2 3818   4.033   5.857   2.550
 1285TIP3    H1 3819   3.997   5.788   2.605
 1285TIP3    H2 3820   3.955   5.901   2.513
 1286TIP3   OH2 3821   6.299   1.580   4.414
 1286TIP3    H1 3822   6.330   1.598   4.325
 1286TIP3    H2 3823   6.344   1.644   4.469
 1287TIP3   OH2 3824   5.813   5.216   0.542
 1287TIP3    H1 3825   5.860   5.275   0.601
 1287TIP3    H2 3826   5.775   5.149   0.599
 1288TIP3   OH2 3827   7.235   2.762   2.839
 1288TIP3    H1 3828   7.143   2.763   2.810
 1288TIP3    H2 3829   7.258   2.854   2.848
 1289TIP3   OH2 3830   1.054   0.040   3.607
 1289TIP3    H1 3831   0.972   0.000   3.636
 1289TIP3    H2 3832   1.088  -0.020   3.541
 1290TIP3   OH2 3833   2.091   5.740   1.707
 1290TIP3    H1 3834   2.053   5.681   1.772
 1290TIP3    H2 3835   2.087   5.826   1.748
 1291TIP3   OH2 3836   0.785   2.120   2.222
 1291TIP3    H1 3837   0.776   2.171   2.141
 1291TIP3    H2 3838   0.703   2.071   2.229
 1292TIP3   OH2 3839   6.762   4.360   0.105
 1292TIP3    H1 3840   6.679   4.338   0.147
 1292TIP3    H2 3841   6.794   4.437   0.151
 1293TIP3   OH2 3842   3.065   1.676   4.392
 1293TIP3    H1 3843   3.015   1.654   4.471
 1293TIP3    H2 3844   3.133   1.609   4.388
 1294TIP3   OH2 3845   0.501   4.812   0.114
 1294TIP3    H1 3846   0.472   4.849   0.197
 1294TIP3    H2 3847   0.426   4.763   0.081
 1295TIP3   OH2 3848   1.274   2.043   0.210
 1295TIP3    H1 3849   1.261   1.996   0.128
 1295TIP3    H2 3850   1.192   2.090   0.225
 1296TIP3   OH2 3851   6.422   6.726   5.647
 1296TIP3    H1 3852   6.497   6.768   5.604
 1296TIP3    H2 3853   6.404   6.780   5.724
 1297TIP3   OH2 3854   2.664   0.034   4.718
 1297TIP3    H1 3855   2.597  -0.034   4.713
 1297TIP3    H2 3856   2.747  -0.014   4.718
 1298TIP3   OH2 3857   4.679   2.089   1.665
 1298TIP3    H1 3858   4.599   2.059   1.709
 1298TIP3    H2 3859   4.729   2.132   1.734
 1299TIP3   OH2 3860   6.118   1.905   2.708
 1299TIP3    H1 3861   6.187   1.871   2.651
 1299TIP3    H2 3862   6.125   2.000   2.700
 1300TIP3   OH2 3863   4.428   3.317   3.163
 1300TIP3    H1 3864   4.367   3.385   3.193
 1300TIP3    H2 3865   4.511   3.363   3.153
 1301TIP3   OH2 3866   2.681   6.458   3.209
 1301TIP3    H1 3867   2.710   6.513   3.136
 1301TIP3    H2 3868   2.762   6.426   3.249
 1302TIP3   OH2 3869   4.173   5.445   4.833
 1302TIP3    H1 3870   4.158   5.376   4.768
 1302TIP3    H2 3871   4.183   5.524   4.781
 1303TIP3   OH2 3872   5.243   4.340   3.878
 1303TIP3    H1 3873   5.156   4.317   3.845
 1303TIP3    H2 3874   5.260   4.427   3.842
 1304TIP3   OH2 3875   6.108   0.524   5.566
 1304TIP3    H1 3876   6.116   0.431   5.584
 1304TIP3    H2 3877   6.068   0.528   5.479
 1305TIP3   OH2 3878   6.168   4.958   3.068
 1305TIP3    H1 3879   6.152   4.870   3.034
 1305TIP3    H2 3880   6.144   5.017   2.997
 1306TIP3   OH2 3881   1.622   0.938   3.919
 1306TIP3    H1 3882   1.657   0.871   3.978
 1306TIP3    H2 3883   1.642   1.021   3.963
 1307TIP3   OH2 3884   7.071   5.930   2.305
 1307TIP3    H1 3885   7.072   5.951   2.398
 1307TIP3    H2 3886   7.163   5.935   2.278
 1308TIP3   OH2 3887   2.724   2.422   2.281
 1308TIP3    H1 3888   2.777   2.480   2.336
 1308TIP3    H2 3889   2.789   2.368   2.234
 1309TIP3   OH2 3890   5.356   2.113   0.091
 1309TIP3    H1 3891   5.358   2.186   0.153
 1309TIP3    H2 3892   5.267   2.077   0.098
 1310TIP3   OH2 3893   0.802   3.262   4.656
 1310TIP3    H1 3894   0.784   3.168   4.660
 1310TIP3    H2 3895   0.890   3.269   4.620
 1311TIP3   OH2 3896   6.368   2.063   0.229
 1311TIP3    H1 3897   6.409   2.082   0.145
 1311TIP3    H2 3898   6.311   2.138   0.246
 1312TIP3   OH2 3899   0.246   2.396   5.534
 1312TIP3    H1 3900   0.326   2.388   5.587
 1312TIP3    H2 3901   0.247   2.318   5.478
 1313TIP3   OH2 3902   0.397   0.788   2.683
 1313TIP3    H1 3903   0.404   0.749   2.770
 1313TIP3    H2 3904   0.330   0.737   2.638
 1314TIP3   OH2 3905   2.823   6.525   1.457
 1314TIP3    H1 3906   2.850   6.595   1.517
 1314TIP3    H2 3907   2.898   6.513   1.399
 1315TIP3   OH2 3908   2.448   2.797   0.037
 1315TIP3    H1 3909   2.423   2.873   0.089
 1315TIP3    H2 3910   2.513   2.831  -0.026
 1316TIP3   OH2 3911   3.262   5.770   3.477
 1316TIP3    H1 3912   3.325   5.842   3.484
 1316TIP3    H2 3913   3.180   5.813   3.453
 1317TIP3   OH2 3914   3.986   5.560   2.587
 1317TIP3    H1 3915   4.035   5.522   2.661
 1317TIP3    H2 3916   3.895   5.561   2.617
 1318TIP3   OH2 3917   0.838   0.730   1.168
 1318TIP3    H1 3918   0.764   0.674   1.191
 1318TIP3    H2 3919   0.834   0.736   1.072
 1319TIP3   OH2 3920   6.135   1.392   0.874
 1319TIP3    H1 3921   6.144   1.297   0.875
 1319TIP3    H2 3922   6.101   1.412   0.787
 1320TIP3   OH2 3923   4.122   5.427   5.094
 1320TIP3    H1 3924   4.136   5.422   4.999
 1320TIP3    H2 3925   4.028   5.418   5.105
 1321TIP3   OH2 3926   3.685   1.057   3.467
 1321TIP3    H1 3927   3.620   1.017   3.410
 1321TIP3    H2 3928   3.707   1.140   3.425
 1322TIP3   OH2 3929   6.530   3.259   1.105
 1322TIP3    H1 3930   6.505   3.178   1.062
 1322TIP3    H2 3931   6.508   3.246   1.197
 1323TIP3   OH2 3932   0.374   1.390   1.208
 1323TIP3    H1 3933   0.387   1.335   1.285
 1323TIP3    H2 3934   0.291   1.359   1.170
 1324TIP3   OH2 3935   2.035   4.898   2.744
 1324TIP3    H1 3936   2.071   4.979   2.780
 1324TIP3    H2 3937   2.093   4.830   2.777
 1325TIP3   OH2 3938   3.373   4.914   1.049
 1325TIP3    H1 3939   3.352   4.897   0.957
 1325TIP3    H2 3940   3.468   4.931   1.049
 1326TIP3   OH2 3941   0.044   1.016   5.506
 1326TIP3    H1 3942   0.093   1.033   5.425
 1326TIP3    H2 3943  -0.048   1.027   5.482
 1327TIP3   OH2 3944   3.685   0.090   1.569
 1327TIP3    H1 3945   3.620   0.136   1.622
 1327TIP3    H2 3946   3.757   0.074   1.629
 1328TIP3   OH2 3947   1.967   1.925   0.897
 1328TIP3    H1 3948   1.872   1.932   0.903
 1328TIP3    H2 3949   1.983   1.894   0.808
 1329TIP3   OH2 3950   3.363   6.354   4.620
 1329TIP3    H1 3951   3.420   6.391   4.552
 1329TIP3    H2 3952   3.395   6.265   4.634
 1330TIP3   OH2 3953   1.944   5.188   4.047
 1330TIP3    H1 3954   2.019   5.230   4.007
 1330TIP3    H2 3955   1.879   5.182   3.977
 1331TIP3   OH2 3956   5.535   0.658   5.877
 1331TIP3    H1 3957   5.457   0.684   5.827
 1331TIP3    H2 3958   5.606   0.711   5.841
 1332TIP3   OH2 3959   4.462   2.182   0.753
 1332TIP3    H1 3960   4.463   2.097   0.797
 1332TIP3    H2 3961   4.547   2.187   0.709
 1333TIP3   OH2 3962   0.141   5.220   4.363
 1333TIP3    H1 3963   0.217   5.277   4.377
 1333TIP3    H2 3964   0.091   5.264   4.295
 1334TIP3   OH2 3965   3.742   4.306   3.232
 1334TIP3    H1 3966   3.802   4.283   3.303
 1334TIP3    H2 3967   3.700   4.387   3.261
 1335TIP3   OH2 3968   1.977   1.004   4.366
 1335TIP3    H1 3969   1.960   1.090   4.403
 1335TIP3    H2 3970   2.020   0.955   4.437
 1336TIP3   OH2 3971   3.408   2.997   5.540
 1336TIP3    H1 3972   3.467   3.072   5.543
 1336TIP3    H2 3973   3.446   2.939   5.474
 1337TIP3   OH2 3974   3.146   3.887   1.593
 1337TIP3    H1 3975   3.176   3.801   1.623
 1337TIP3    H2 3976   3.226   3.939   1.586
 1338TIP3   OH2 3977   1.290   3.677   2.178
 1338TIP3    H1 3978   1.203   3.638   2.174
 1338TIP3    H2 3979   1.307   3.708   2.089
 1339TIP3   OH2 3980   4.184   3.613   0.982
 1339TIP3    H1 3981   4.262   3.667   0.995
 1339TIP3    H2 3982   4.141   3.612   1.067
 1340TIP3   OH2 3983   6.246   1.967   4.150
 1340TIP3    H1 3984   6.292   2.011   4.221
 1340TIP3    H2 3985   6.307   1.971   4.076
 1341TIP3   OH2 3986   4.925   4.061   5.339
 1341TIP3    H1 3987   4.846   4.115   5.343
 1341TIP3    H2 3988   4.959   4.062   5.428
 1342TIP3   OH2 3989   6.111   2.926   0.052
 1342TIP3    H1 3990   6.102   2.900  -0.040
 1342TIP3    H2 3991   6.063   2.860   0.101
 1343TIP3   OH2 3992   2.868   0.855   3.468
 1343TIP3    H1 3993   2.896   0.778   3.418
 1343TIP3    H2 3994   2.927   0.857   3.543
 1344TIP3   OH2 3995   2.829   2.947   4.908
 1344TIP3    H1 3996   2.769   2.995   4.963
 1344TIP3    H2 3997   2.839   3.001   4.830
 1345TIP3   OH2 3998   6.328   3.880   5.244
 1345TIP3    H1 3999   6.421   3.901   5.247
 1345TIP3    H2 4000   6.297   3.921   5.163
 1346TIP3   OH2 4001   1.823   3.369   0.524
 1346TIP3    H1 4002   1.873   3.350   0.603
 1346TIP3    H2 4003   1.872   3.439   0.481
 1347TIP3   OH2 4004   1.005   1.507   2.435
 1347TIP3    H1 4005   0.919   1.532   2.402
 1347TIP3    H2 4006   1.039   1.586   2.476
 1348TIP3   OH2 4007   4.981   3.570   5.237
 1348TIP3    H1 4008   4.961   3.658   5.268
 1348TIP3    H2 4009   5.045   3.583   5.167
 1349TIP3   OH2 4010   4.991   3.850   1.432
 1349TIP3    H1 4011   5.074   3.864   1.386
 1349TIP3    H2 4012   5.004   3.891   1.517
 1350TIP3   OH2 4013   5.705   0.189   2.743
 1350TIP3    H1 4014   5.688   0.182   2.836
 1350TIP3    H2 4015   5.623   0.221   2.705
 1351TIP3   OH2 4016   0.466   3.031   5.540
 1351TIP3    H1 4017   0.535   3.058   5.480
 1351TIP3    H2 4018   0.396   2.998   5.483
 1352TIP3   OH2 4019   5.289   5.809   3.858
 1352TIP3    H1 4020   5.227   5.853   3.915
 1352TIP3    H2 4021   5.333   5.880   3.810
 1353TIP3   OH2 4022   2.964   1.636   4.927
 1353TIP3    H1 4023   3.042   1.595   4.963
 1353TIP3    H2 4024   2.892   1.606   4.983
 1354TIP3   OH2 4025   2.380   3.847   5.090
 1354TIP3    H1 4026   2.294   3.833   5.131
 1354TIP3    H2 4027   2.422   3.761   5.091
 1355TIP3   OH2 4028   4.922   4.834   4.984
 1355TIP3    H1 4029   4.967   4.868   5.061
 1355TIP3    H2 4030   4.876   4.757   5.016
 1356TIP3   OH2 4031   0.156   4.874   1.972
 1356TIP3    H1 4032   0.167   4.969   1.963
 1356TIP3    H2 4033   0.062   4.862   1.985
 1357TIP3   OH2 4034   4.309   2.760   2.969
 1357TIP3    H1 4035   4.373   2.809   3.022
 1357TIP3    H2 4036   4.252   2.718   3.033
 1358TIP3   OH2 4037   7.078   1.923   4.939
 1358TIP3    H1 4038   7.146   1.935   5.005
 1358TIP3    H2 4039   7.069   1.828   4.931
 1359TIP3   OH2 4040   1.241   5.540   1.000
 1359TIP3    H1 4041   1.217   5.536   1.092
 1359TIP3    H2 4042   1.322   5.489   0.994
 1360TIP3   OH2 4043   1.903   3.874   1.778
 1360TIP3    H1 4044   1.894   3.782   1.753
 1360TIP3    H2 4045   1.944   3.916   1.702
 1361TIP3   OH2 4046   1.071   4.027   1.592
 1361TIP3    H1 4047   1.118   4.018   1.675
 1361TIP3    H2 4048   1.131   3.990   1.526
 1362TIP3   OH2 4049   4.145   2.430   1.542
 1362TIP3    H1 4050   4.086   2.504   1.534
 1362TIP3    H2 4051   4.110   2.379   1.615
 1363TIP3   OH2 4052   4.151   4.786   2.525
 1363TIP3    H1 4053   4.208   4.862   2.530
 1363TIP3    H2 4054   4.106   4.784   2.610
 1364TIP3   OH2 4055   5.968   2.771   1.150
 1364TIP3    H1 4056   5.907   2.738   1.216
 1364TIP3    H2 4057   5.944   2.724   1.070
 1365TIP3   OH2 4058   1.127   2.019   2.199
 1365TIP3    H1 4059   1.060   2.006   2.267
 1365TIP3    H2 4060   1.076   2.027   2.117
 1366TIP3   OH2 4061   0.760   6.139   1.825
 1366TIP3    H1 4062   0.716   6.153   1.908
 1366TIP3    H2 4063   0.769   6.227   1.787
 1367TIP3   OH2 4064   3.523   2.872   2.254
 1367TIP3    H1 4065   3.549   2.780   2.257
 1367TIP3    H2 4066   3.534   2.903   2.343
 1368TIP3   OH2 4067   1.519   0.191   0.377
 1368TIP3    H1 4068   1.465   0.172   0.300
 1368TIP3    H2 4069   1.459   0.234   0.438
 1369TIP3   OH2 4070   2.386   1.892   2.676
 1369TIP3    H1 4071   2.340   1.974   2.695
 1369TIP3    H2 4072   2.384   1.885   2.581
 1370TIP3   OH2 4073   0.510   6.563   5.160
 1370TIP3    H1 4074   0.476   6.572   5.249
 1370TIP3    H2 4075   0.505   6.651   5.123
 1371TIP3   OH2 4076   6.349   0.932   0.733
 1371TIP3    H1 4077   6.400   0.986   0.793
 1371TIP3    H2 4078   6.277   0.989   0.704
 1372TIP3   OH2 4079   1.064   2.145   3.414
 1372TIP3    H1 4080   1.117   2.221   3.394
 1372TIP3    H2 4081   0.989   2.153   3.354
 1373TIP3   OH2 4082   2.831   3.010   3.774
 1373TIP3    H1 4083   2.887   2.934   3.790
 1373TIP3    H2 4084   2.756   2.998   3.832
 1374TIP3   OH2 4085   3.902   5.062   2.849
 1374TIP3    H1 4086   3.923   4.980   2.893
 1374TIP3    H2 4087   3.855   5.035   2.770
 1375TIP3   OH2 4088   4.928   4.040   3.008
 1375TIP3    H1 4089   4.891   4.101   3.072
 1375TIP3    H2 4090   4.910   3.953   3.043
 1376TIP3   OH2 4091   1.371   4.225   4.387
 1376TIP3    H1 4092   1.371   4.130   4.395
 1376TIP3    H2 4093   1.438   4.243   4.321
 1377TIP3   OH2 4094   4.576   2.287   5.465
 1377TIP3    H1 4095   4.548   2.378   5.478
 1377TIP3    H2 4096   4.535   2.239   5.538
 1378TIP3   OH2 4097   2.777   0.594   1.994
 1378TIP3    H1 4098   2.825   0.654   1.936
 1378TIP3    H2 4099   2.837   0.520   2.007
 1379TIP3   OH2 4100   3.679   5.695   0.858
 1379TIP3    H1 4101   3.695   5.602   0.872
 1379TIP3    H2 4102   3.692   5.709   0.764
 1380TIP3   OH2 4103   0.131   5.492   0.706
 1380TIP3    H1 4104   0.157   5.436   0.779
 1380TIP3    H2 4105   0.068   5.553   0.744
 1381TIP3   OH2 4106   4.327   6.185   5.457
 1381TIP3    H1 4107   4.240   6.152   5.436
 1381TIP3    H2 4108   4.330   6.271   5.414
 1382TIP3   OH2 4109   3.833   5.479   5.163
 1382TIP3    H1 4110   3.828   5.396   5.210
 1382TIP3    H2 4111   3.747   5.487   5.120
 1383TIP3   OH2 4112   1.046   2.395   1.186
 1383TIP3    H1 4113   1.038   2.487   1.212
 1383TIP3    H2 4114   0.959   2.359   1.200
 1384TIP3   OH2 4115   4.742   2.967   4.046
 1384TIP3    H1 4116   4.759   3.020   3.968
 1384TIP3    H2 4117   4.652   2.988   4.070
 1385TIP3   OH2 4118   3.799   1.800   5.452
 1385TIP3    H1 4119   3.797   1.747   5.373
 1385TIP3    H2 4120   3.779   1.739   5.523
 1386TIP3   OH2 4121   4.247   6.183   4.133
 1386TIP3    H1 4122   4.339   6.196   4.109
 1386TIP3    H2 4123   4.200   6.250   4.083
 1387TIP3   OH2 4124   2.038   4.803   1.236
 1387TIP3    H1 4125   2.047   4.727   1.179
 1387TIP3    H2 4126   1.965   4.852   1.199
 1388TIP3   OH2 4127   6.412   0.105   5.837
 1388TIP3    H1 4128   6.445   0.140   5.920
 1388TIP3    H2 4129   6.335   0.053   5.862
 1389TIP3   OH2 4130   3.539   3.222   5.431
 1389TIP3    H1 4131   3.569   3.233   5.521
 1389TIP3    H2 4132   3.504   3.308   5.407
 1390TIP3   OH2 4133   0.120   3.451   4.871
 1390TIP3    H1 4134   0.137   3.396   4.795
 1390TIP3    H2 4135   0.183   3.523   4.864
 1391TIP3   OH2 4136   7.047   6.602   0.686
 1391TIP3    H1 4137   7.128   6.633   0.726
 1391TIP3    H2 4138   6.994   6.681   0.675
 1392TIP3   OH2 4139   3.086   2.442   5.629
 1392TIP3    H1 4140   3.072   2.537   5.634
 1392TIP3    H2 4141   3.113   2.416   5.717
 1393TIP3   OH2 4142   6.183   4.962   3.799
 1393TIP3    H1 4143   6.276   4.975   3.812
 1393TIP3    H2 4144   6.142   5.044   3.827
 1394TIP3   OH2 4145   1.938   5.530   3.924
 1394TIP3    H1 4146   1.903   5.608   3.968
 1394TIP3    H2 4147   1.986   5.484   3.993
 1395TIP3   OH2 4148   4.639   5.845   2.584
 1395TIP3    H1 4149   4.565   5.813   2.634
 1395TIP3    H2 4150   4.714   5.794   2.615
 1396TIP3   OH2 4151   0.441   0.593   3.167
 1396TIP3    H1 4152   0.413   0.598   3.259
 1396TIP3    H2 4153   0.387   0.658   3.123
 1397TIP3   OH2 4154   0.704   6.349   2.107
 1397TIP3    H1 4155   0.653   6.405   2.049
 1397TIP3    H2 4156   0.661   6.358   2.193
 1398TIP3   OH2 4157   6.183   1.320   1.139
 1398TIP3    H1 4158   6.166   1.368   1.058
 1398TIP3    H2 4159   6.261   1.362   1.176
 1399TIP3   OH2 4160   6.367   5.852   2.791
 1399TIP3    H1 4161   6.300   5.806   2.841
 1399TIP3    H2 4162   6.321   5.923   2.747
 1400TIP3   OH2 4163   5.184   6.451   2.276
 1400TIP3    H1 4164   5.254   6.515   2.279
 1400TIP3    H2 4165   5.213   6.386   2.211
 1401TIP3   OH2 4166   4.622   4.524   3.019
 1401TIP3    H1 4167   4.690   4.471   3.060
 1401TIP3    H2 4168   4.650   4.614   3.035
 1402TIP3   OH2 4169   2.633   2.627   3.380
 1402TIP3    H1 4170   2.717   2.649   3.421
 1402TIP3    H2 4171   2.626   2.532   3.389
 1403TIP3   OH2 4172   4.615   5.937   4.456
 1403TIP3    H1 4173   4.624   6.027   4.489
 1403TIP3    H2 4174   4.528   5.934   4.417
 1404TIP3   OH2 4175   1.063   0.913   0.929
 1404TIP3    H1 4176   1.114   0.864   0.865
 1404TIP3    H2 4177   1.106   0.895   1.013
 1405TIP3   OH2 4178   6.189   3.576   4.562
 1405TIP3    H1 4179   6.264   3.624   4.596
 1405TIP3    H2 4180   6.128   3.644   4.533
 1406TIP3   OH2 4181   0.260   0.115   4.522
 1406TIP3    H1 4182   0.289   0.146   4.436
 1406TIP3    H2 4183   0.208   0.188   4.557
 1407TIP3   OH2 4184   6.111   4.288   5.152
 1407TIP3    H1 4185   6.203   4.313   5.155
 1407TIP3    H2 4186   6.097   4.238   5.232
 1408TIP3   OH2 4187   4.304   4.078   5.665
 1408TIP3    H1 4188   4.324   4.166   5.632
 1408TIP3    H2 4189   4.227   4.051   5.615
 1409TIP3   OH2 4190   3.051   0.349   5.604
 1409TIP3    H1 4191   3.090   0.308   5.527
 1409TIP3    H2 4192   3.126   0.372   5.659
 1410TIP3   OH2 4193   7.054   3.583   5.050
 1410TIP3    H1 4194   6.981   3.560   5.108
 1410TIP3    H2 4195   7.128   3.532   5.083
 1411TIP3   OH2 4196   6.424   4.710   2.140
 1411TIP3    H1 4197   6.331   4.723   2.155
 1411TIP3    H2 4198   6.449   4.777   2.077
 1412TIP3   OH2 4199   6.144   0.035   0.040
 1412TIP3    H1 4200   6.205   0.097   0.080
 1412TIP3    H2 4201   6.061   0.050   0.085
 1413TIP3   OH2 4202   3.153   5.249   5.459
 1413TIP3    H1 4203   3.087   5.234   5.527
 1413TIP3    H2 4204   3.197   5.330   5.485
 1414TIP3   OH2 4205   1.592   0.503   0.123
 1414TIP3    H1 4206   1.567   0.585   0.080
 1414TIP3    H2 4207   1.688   0.507   0.127
 1415TIP3   OH2 4208   1.743   4.053   0.041
 1415TIP3    H1 4209   1.728   4.051   0.135
 1415TIP3    H2 4210   1.656   4.060   0.003
 1416TIP3   OH2 4211   6.052   5.119   4.796
 1416TIP3    H1 4212   5.967   5.147   4.761
 1416TIP3    H2 4213   6.058   5.026   4.773
 1417TIP3   OH2 4214   4.426   3.553   2.903
 1417TIP3    H1 4215   4.368   3.535   2.977
 1417TIP3    H2 4216   4.433   3.470   2.857
 1418TIP3   OH2 4217   3.585   1.648   2.244
 1418TIP3    H1 4218   3.564   1.660   2.152
 1418TIP3    H2 4219   3.525   1.581   2.275
 1419TIP3   OH2 4220   2.570   4.127   4.707
 1419TIP3    H1 4221   2.570   4.038   4.672
 1419TIP3    H2 4222   2.655   4.162   4.684
 1420TIP3   OH2 4223   1.164   6.220   2.802
 1420TIP3    H1 4224   1.256   6.229   2.826
 1420TIP3    H2 4225   1.132   6.309   2.793
 1421TIP3   OH2 4226   0.887   6.082   2.573
 1421TIP3    H1 4227   0.793   6.100   2.567
 1421TIP3    H2 4228   0.905   6.021   2.501
 1422TIP3   OH2 4229   1.992   0.327   1.267
 1422TIP3    H1 4230   1.900   0.312   1.246
 1422TIP3    H2 4231   2.025   0.242   1.297
 1423TIP3   OH2 4232   4.396   5.197   1.473
 1423TIP3    H1 4233   4.477   5.225   1.516
 1423TIP3    H2 4234   4.420   5.121   1.421
 1424TIP3   OH2 4235   1.106   0.953   1.199
 1424TIP3    H1 4236   1.083   1.046   1.190
 1424TIP3    H2 4237   1.043   0.918   1.261
 1425TIP3   OH2 4238   1.885   0.281   5.218
 1425TIP3    H1 4239   1.905   0.369   5.251
 1425TIP3    H2 4240   1.852   0.234   5.294
 1426TIP3   OH2 4241   0.670   3.167   0.378
 1426TIP3    H1 4242   0.707   3.255   0.389
 1426TIP3    H2 4243   0.576   3.181   0.368
 1427TIP3   OH2 4244   2.700   3.855   5.313
 1427TIP3    H1 4245   2.651   3.777   5.337
 1427TIP3    H2 4246   2.645   3.928   5.340
 1428TIP3   OH2 4247   3.875   3.765   0.056
 1428TIP3    H1 4248   3.915   3.807   0.132
 1428TIP3    H2 4249   3.916   3.806  -0.020
 1429TIP3   OH2 4250   6.513   6.714   5.044
 1429TIP3    H1 4251   6.525   6.657   5.120
 1429TIP3    H2 4252   6.418   6.719   5.031
 1430TIP3   OH2 4253   2.188   2.519   4.937
 1430TIP3    H1 4254   2.226   2.550   4.855
 1430TIP3    H2 4255   2.128   2.589   4.963
 1431TIP3   OH2 4256   3.429   2.360   3.636
 1431TIP3    H1 4257   3.353   2.403   3.674
 1431TIP3    H2 4258   3.394   2.313   3.560
 1432TIP3   OH2 4259   6.491   5.199   2.521
 1432TIP3    H1 4260   6.436   5.127   2.551
 1432TIP3    H2 4261   6.481   5.200   2.426
 1433TIP3   OH2 4262   2.126   4.663   3.418
 1433TIP3    H1 4263   2.056   4.675   3.483
 1433TIP3    H2 4264   2.174   4.586   3.448
 1434TIP3   OH2 4265   1.762   4.880   1.667
 1434TIP3    H1 4266   1.711   4.815   1.620
 1434TIP3    H2 4267   1.840   4.894   1.613
 1435TIP3   OH2 4268   3.319   0.925   5.828
 1435TIP3    H1 4269   3.402   0.885   5.803
 1435TIP3    H2 4270   3.285   0.964   5.748
 1436TIP3   OH2 4271   3.847   1.031   0.984
 1436TIP3    H1 4272   3.839   0.950   1.035
 1436TIP3    H2 4273   3.926   1.019   0.932
 1437TIP3   OH2 4274   0.943   6.775   1.434
 1437TIP3    H1 4275   0.852   6.781   1.406
 1437TIP3    H2 4276   0.978   6.700   1.386
 1438TIP3   OH2 4277   1.210   5.040   2.128
 1438TIP3    H1 4278   1.199   5.067   2.219
 1438TIP3    H2 4279   1.304   5.020   2.121
 1439TIP3   OH2 4280   4.820   2.163   3.413
 1439TIP3    H1 4281   4.802   2.253   3.386
 1439TIP3    H2 4282   4.909   2.165   3.449
 1440TIP3   OH2 4283   3.688   6.636   2.745
 1440TIP3    H1 4284   3.746   6.703   2.780
 1440TIP3    H2 4285   3.691   6.564   2.809
 1441TIP3   OH2 4286   2.530   2.035   3.391
 1441TIP3    H1 4287   2.527   1.941   3.373
 1441TIP3    H2 4288   2.509   2.077   3.308
 1442TIP3   OH2 4289   5.365   1.989   2.644
 1442TIP3    H1 4290   5.459   2.002   2.648
 1442TIP3    H2 4291   5.354   1.907   2.596
 1443TIP3   OH2 4292   6.430   4.803   2.928
 1443TIP3    H1 4293   6.444   4.820   3.021
 1443TIP3    H2 4294   6.433   4.889   2.887
 1444TIP3   OH2 4295   1.483   4.339   0.171
 1444TIP3    H1 4296   1.560   4.373   0.123
 1444TIP3    H2 4297   1.466   4.254   0.131
 1445TIP3   OH2 4298   2.316   3.943   1.400
 1445TIP3    H1 4299   2.272   4.019   1.361
 1445TIP3    H2 4300   2.248   3.877   1.406
 1446TIP3   OH2 4301   5.028   2.426   5.017
 1446TIP3    H1 4302   5.114   2.386   5.002
 1446TIP3    H2 4303   4.971   2.352   5.035
 1447TIP3   OH2 4304   0.469   1.460   0.101
 1447TIP3    H1 4305   0.508   1.423   0.022
 1447TIP3    H2 4306   0.435   1.545   0.075
 1448TIP3   OH2 4307   1.294   1.524   4.423
 1448TIP3    H1 4308   1.253   1.604   4.458
 1448TIP3    H2 4309   1.251   1.510   4.339
 1449TIP3   OH2 4310   4.887   2.138   5.563
 1449TIP3    H1 4311   4.980   2.157   5.574
 1449TIP3    H2 4312   4.842   2.216   5.598
 1450TIP3   OH2 4313   4.953   3.440   2.457
 1450TIP3    H1 4314   4.962   3.350   2.425
 1450TIP3    H2 4315   4.989   3.437   2.546
 1451TIP3   OH2 4316   2.340   3.530   5.200
 1451TIP3    H1 4317   2.303   3.580   5.127
 1451TIP3    H2 4318   2.430   3.511   5.173
 1452TIP3   OH2 4319   4.931   4.469   4.064
 1452TIP3    H1 4320   4.987   4.419   4.123
 1452TIP3    H2 4321   4.992   4.521   4.012
 1453TIP3   OH2 4322   1.936   6.048   3.135
 1453TIP3    H1 4323   1.907   5.985   3.070
 1453TIP3    H2 4324   1.892   6.021   3.216
 1454TIP3   OH2 4325   6.959   6.162   3.223
 1454TIP3    H1 4326   6.883   6.166   3.164
 1454TIP3    H2 4327   6.922   6.177   3.310
 1455TIP3   OH2 4328   1.847   2.775   0.144
 1455TIP3    H1 4329   1.785   2.799   0.213
 1455TIP3    H2 4330   1.801   2.710   0.092
 1456TIP3   OH2 4331   5.466   3.134   5.276
 1456TIP3    H1 4332   5.399   3.203   5.273
 1456TIP3    H2 4333   5.434   3.067   5.216
 1457TIP3   OH2 4334   3.128   0.006   1.881
 1457TIP3    H1 4335   3.199  -0.056   1.893
 1457TIP3    H2 4336   3.170   0.092   1.881
 1458TIP3   OH2 4337   2.282   0.772   0.992
 1458TIP3    H1 4338   2.294   0.710   1.065
 1458TIP3    H2 4339   2.335   0.736   0.921
 1459TIP3   OH2 4340   1.239   0.921   4.317
 1459TIP3    H1 4341   1.191   0.845   4.284
 1459TIP3    H2 4342   1.320   0.922   4.267
 1460TIP3   OH2 4343   2.764   0.302   1.483
 1460TIP3    H1 4344   2.685   0.248   1.485
 1460TIP3    H2 4345   2.829   0.252   1.533
 1461TIP3   OH2 4346   2.425   3.042   0.623
 1461TIP3    H1 4347   2.369   2.965   0.616
 1461TIP3    H2 4348   2.384   3.106   0.565
 1462TIP3   OH2 4349   4.089   5.926   4.172
 1462TIP3    H1 4350   4.131   5.898   4.253
 1462TIP3    H2 4351   4.132   6.009   4.151
 1463TIP3   OH2 4352   3.016   2.393   4.450
 1463TIP3    H1 4353   3.018   2.392   4.546
 1463TIP3    H2 4354   2.936   2.346   4.427
 1464TIP3   OH2 4355   3.101   4.384   2.196
 1464TIP3    H1 4356   3.014   4.381   2.234
 1464TIP3    H2 4357   3.119   4.477   2.184
 1465TIP3   OH2 4358   0.662   6.056   3.723
 1465TIP3    H1 4359   0.719   6.058   3.800
 1465TIP3    H2 4360   0.621   5.970   3.726
 1466TIP3   OH2 4361   5.405   3.251   4.525
 1466TIP3    H1 4362   5.498   3.246   4.503
 1466TIP3    H2 4363   5.388   3.171   4.574
 1467TIP3   OH2 4364   1.981   1.443   4.060
 1467TIP3    H1 4365   1.965   1.352   4.037
 1467TIP3    H2 4366   1.899   1.488   4.038
 1468TIP3   OH2 4367   4.919   2.010   2.696
 1468TIP3    H1 4368   4.992   1.949   2.705
 1468TIP3    H2 4369   4.945   2.069   2.626
 1469TIP3   OH2 4370   1.142   1.173   4.263
 1469TIP3    H1 4371   1.190   1.091   4.276
 1469TIP3    H2 4372   1.055   1.156   4.299
 1470TIP3   OH2 4373   3.708   2.885   4.692
 1470TIP3    H1 4374   3.739   2.854   4.608
 1470TIP3    H2 4375   3.622   2.846   4.703
 1471TIP3   OH2 4376   0.105   5.905   2.165
 1471TIP3    H1 4377   0.126   5.931   2.075
 1471TIP3    H2 4378   0.189   5.903   2.210
 1472TIP3   OH2 4379   5.127   2.624   3.407
 1472TIP3    H1 4380   5.137   2.653   3.498
 1472TIP3    H2 4381   5.186   2.549   3.399
 1473TIP3   OH2 4382   3.004   3.912   2.099
 1473TIP3    H1 4383   2.940   3.870   2.041
 1473TIP3    H2 4384   3.089   3.883   2.066
 1474TIP3   OH2 4385   4.031   1.227   3.007
 1474TIP3    H1 4386   4.079   1.287   3.066
 1474TIP3    H2 4387   3.950   1.274   2.987
 1475TIP3   OH2 4388   4.661   6.588   3.016
 1475TIP3    H1 4389   4.741   6.600   2.964
 1475TIP3    H2 4390   4.675   6.505   3.063
 1476TIP3   OH2 4391   4.239   0.605   0.674
 1476TIP3    H1 4392   4.230   0.532   0.735
 1476TIP3    H2 4393   4.180   0.672   0.707
 1477TIP3   OH2 4394   2.102   6.369   2.167
 1477TIP3    H1 4395   2.029   6.430   2.155
 1477TIP3    H2 4396   2.112   6.361   2.261
 1478TIP3   OH2 4397   5.754   3.364   1.474
 1478TIP3    H1 4398   5.777   3.337   1.385
 1478TIP3    H2 4399   5.811   3.312   1.530
 1479TIP3   OH2 4400   3.813   6.040   4.017
 1479TIP3    H1 4401   3.876   5.973   3.991
 1479TIP3    H2 4402   3.732   5.991   4.033
 1480TIP3   OH2 4403   5.795   0.961   3.837
 1480TIP3    H1 4404   5.816   1.020   3.764
 1480TIP3    H2 4405   5.706   0.984   3.861
 1481TIP3   OH2 4406   6.742   4.302   5.893
 1481TIP3    H1 4407   6.749   4.317   5.798
 1481TIP3    H2 4408   6.774   4.383   5.933
 1482TIP3   OH2 4409   6.394   0.805   2.573
 1482TIP3    H1 4410   6.302   0.806   2.547
 1482TIP3    H2 4411   6.442   0.807   2.490
 1483TIP3   OH2 4412   2.092   2.998   5.079
 1483TIP3    H1 4413   2.089   3.003   4.983
 1483TIP3    H2 4414   2.163   3.056   5.104
 1484TIP3   OH2 4415   6.049   5.887   0.548
 1484TIP3    H1 4416   5.992   5.820   0.586
 1484TIP3    H2 4417   6.138   5.853   0.560
 1485TIP3   OH2 4418   5.212   4.451   4.827
 1485TIP3    H1 4419   5.256   4.463   4.912
 1485TIP3    H2 4420   5.126   4.492   4.840
 1486TIP3   OH2 4421   2.084   4.247   5.103
 1486TIP3    H1 4422   2.119   4.236   5.014
 1486TIP3    H2 4423   2.145   4.200   5.159
 1487TIP3   OH2 4424   3.489   4.768   2.468
 1487TIP3    H1 4425   3.408   4.801   2.507
 1487TIP3    H2 4426   3.505   4.685   2.513
 1488TIP3   OH2 4427   7.027   5.021   2.536
 1488TIP3    H1 4428   6.999   4.939   2.578
 1488TIP3    H2 4429   6.948   5.074   2.532
 1489TIP3   OH2 4430   6.467   1.529   0.581
 1489TIP3    H1 4431   6.413   1.450   0.581
 1489TIP3    H2 4432   6.404   1.601   0.588
 1490TIP3   OH2 4433   0.284   6.378   2.501
 1490TIP3    H1 4434   0.210   6.428   2.466
 1490TIP3    H2 4435   0.334   6.441   2.553
 1491TIP3   OH2 4436   2.534   4.231   2.617
 1491TIP3    H1 4437   2.617   4.245   2.571
 1491TIP3    H2 4438   2.491   4.161   2.569
 1492TIP3   OH2 4439   1.715   3.971   5.190
 1492TIP3    H1 4440   1.657   4.041   5.160
 1492TIP3    H2 4441   1.724   3.913   5.114
 1493TIP3   OH2 4442   6.741   2.806   5.434
 1493TIP3    H1 4443   6.688   2.803   5.354
 1493TIP3    H2 4444   6.705   2.879   5.484
 1494TIP3   OH2 4445   3.120   1.842   3.303
 1494TIP3    H1 4446   3.120   1.934   3.275
 1494TIP3    H2 4447   3.182   1.799   3.244
 1495TIP3   OH2 4448   0.939   5.347   3.406
 1495TIP3    H1 4449   0.906   5.257   3.404
 1495TIP3    H2 4450   1.022   5.343   3.358
 1496TIP3   OH2 4451   3.723   5.441   1.780
 1496TIP3    H1 4452   3.783   5.505   1.820
 1496TIP3    H2 4453   3.635   5.472   1.805
 1497TIP3   OH2 4454   3.320   0.543   1.144
 1497TIP3    H1 4455   3.274   0.534   1.227
 1497TIP3    H2 4456   3.252   0.533   1.077
 1498TIP3   OH2 4457   1.381   4.317   3.721
 1498TIP3    H1 4458   1.351   4.238   3.678
 1498TIP3    H2 4459   1.401   4.378   3.650
 1499TIP3   OH2 4460   6.686   0.448   0.467
 1499TIP3    H1 4461   6.626   0.492   0.406
 1499TIP3    H2 4462   6.700   0.511   0.537
 1500TIP3   OH2 4463   5.446   3.869   1.890
 1500TIP3    H1 4464   5.439   3.840   1.981
 1500TIP3    H2 4465   5.480   3.958   1.896
 1501TIP3   OH2 4466   1.938   6.165   5.324
 1501TIP3    H1 4467   2.013   6.108   5.341
 1501TIP3    H2 4468   1.915   6.199   5.411
 1502TIP3   OH2 4469   1.049   4.434   2.346
 1502TIP3    H1 4470   1.120   4.374   2.370
 1502TIP3    H2 4471   0.969   4.385   2.364
 1503TIP3   OH2 4472   1.274   0.587   5.857
 1503TIP3    H1 4473   1.210   0.579   5.787
 1503TIP3    H2 4474   1.342   0.523   5.836
 1504TIP3   OH2 4475   2.744   5.474   0.607
 1504TIP3    H1 4476   2.815   5.465   0.671
 1504TIP3    H2 4477   2.737   5.387   0.567
 1505TIP3   OH2 4478   3.709   3.221   1.295
 1505TIP3    H1 4479   3.682   3.130   1.284
 1505TIP3    H2 4480   3.805   3.218   1.298
 1506TIP3   OH2 4481   6.207   5.177   2.543
 1506TIP3    H1 4482   6.184   5.106   2.484
 1506TIP3    H2 4483   6.205   5.256   2.489
 1507TIP3   OH2 4484   5.355   6.450   0.107
 1507TIP3    H1 4485   5.433   6.482   0.061
 1507TIP3    H2 4486   5.298   6.527   0.114
 1508TIP3   OH2 4487   4.104   4.987   1.436
 1508TIP3    H1 4488   4.143   5.028   1.359
 1508TIP3    H2 4489   4.149   5.027   1.510
 1509TIP3   OH2 4490   2.838   4.942   0.563
 1509TIP3    H1 4491   2.784   4.867   0.589
 1509TIP3    H2 4492   2.777   5.003   0.523
 1510TIP3   OH2 4493   6.431   1.419   1.125
 1510TIP3    H1 4494   6.465   1.499   1.163
 1510TIP3    H2 4495   6.418   1.439   1.032
 1511TIP3   OH2 4496   4.916   6.477   5.587
 1511TIP3    H1 4497   4.924   6.470   5.682
 1511TIP3    H2 4498   5.006   6.477   5.555
 1512TIP3   OH2 4499   2.625   3.713   0.930
 1512TIP3    H1 4500   2.713   3.724   0.894
 1512TIP3    H2 4501   2.583   3.798   0.919
 1513TIP3   OH2 4502   1.617   3.244   3.607
 1513TIP3    H1 4503   1.708   3.240   3.636
 1513TIP3    H2 4504   1.611   3.176   3.539
 1514TIP3   OH2 4505   7.155   2.882   0.877
 1514TIP3    H1 4506   7.132   2.907   0.787
 1514TIP3    H2 4507   7.249   2.900   0.884
 1515TIP3   OH2 4508   3.814   3.883   4.904
 1515TIP3    H1 4509   3.846   3.966   4.940
 1515TIP3    H2 4510   3.822   3.892   4.809
 1516TIP3   OH2 4511   6.854   1.872   0.067
 1516TIP3    H1 4512   6.807   1.881   0.150
 1516TIP3    H2 4513   6.847   1.779   0.046
 1517TIP3   OH2 4514   6.639   6.057   5.359
 1517TIP3    H1 4515   6.614   6.126   5.421
 1517TIP3    H2 4516   6.665   5.984   5.414
 1518TIP3   OH2 4517   0.503   5.385   3.927
 1518TIP3    H1 4518   0.495   5.298   3.888
 1518TIP3    H2 4519   0.418   5.402   3.967
 1519TIP3   OH2 4520   3.540   0.125   2.326
 1519TIP3    H1 4521   3.574   0.135   2.415
 1519TIP3    H2 4522   3.447   0.108   2.338
 1520TIP3   OH2 4523   1.687   3.055   5.704
 1520TIP3    H1 4524   1.680   3.129   5.643
 1520TIP3    H2 4525   1.616   3.069   5.767
 1521TIP3   OH2 4526   3.467   3.327   1.229
 1521TIP3    H1 4527   3.549   3.280   1.219
 1521TIP3    H2 4528   3.413   3.271   1.284
 1522TIP3   OH2 4529   0.512   2.956   2.538
 1522TIP3    H1 4530   0.479   3.010   2.610
 1522TIP3    H2 4531   0.538   2.874   2.580
 1523TIP3   OH2 4532   3.192   6.242   5.450
 1523TIP3    H1 4533   3.155   6.153   5.449
 1523TIP3    H2 4534   3.184   6.272   5.359
 1524TIP3   OH2 4535   6.864   2.500   1.030
 1524TIP3    H1 4536   6.827   2.497   0.941
 1524TIP3    H2 4537   6.958   2.487   1.017
 1525TIP3   OH2 4538   6.356   0.445   2.115
 1525TIP3    H1 4539   6.292   0.375   2.125
 1525TIP3    H2 4540   6.430   0.417   2.169
 1526TIP3   OH2 4541   2.252   2.856   2.991
 1526TIP3    H1 4542   2.285   2.861   3.081
 1526TIP3    H2 4543   2.330   2.844   2.937
 1527TIP3   OH2 4544   6.121   3.889   4.810
 1527TIP3    H1 4545   6.134   3.795   4.824
 1527TIP3    H2 4546   6.178   3.931   4.873
 1528TIP3   OH2 4547   1.379   3.737   1.581
 1528TIP3    H1 4548   1.444   3.778   1.639
 1528TIP3    H2 4549   1.295   3.756   1.622
 1529TIP3   OH2 4550   0.650   4.138   4.371
 1529TIP3    H1 4551   0.664   4.048   4.342
 1529TIP3    H2 4552   0.694   4.192   4.305
 1530TIP3   OH2 4553   3.314   6.437   0.666
 1530TIP3    H1 4554   3.264   6.359   0.643
 1530TIP3    H2 4555   3.397   6.403   0.702
 1531TIP3   OH2 4556   1.445   3.413   2.562
 1531TIP3    H1 4557   1.532   3.405   2.601
 1531TIP3    H2 4558   1.427   3.328   2.524
 1532TIP3   OH2 4559   0.179   0.022   2.710
 1532TIP3    H1 4560   0.116  -0.037   2.669
 1532TIP3    H2 4561   0.226   0.062   2.637
 1533TIP3   OH2 4562   0.716   4.279   2.913
 1533TIP3    H1 4563   0.808   4.255   2.905
 1533TIP3    H2 4564   0.670   4.195   2.924
 1534TIP3   OH2 4565   1.225   5.178   0.538
 1534TIP3    H1 4566   1.184   5.235   0.474
 1534TIP3    H2 4567   1.154   5.123   0.572
 1535TIP3   OH2 4568   0.074   1.623   0.628
 1535TIP3    H1 4569   0.098   1.711   0.599
 1535TIP3    H2 4570   0.041   1.636   0.718
 1536TIP3   OH2 4571   1.469   4.873   4.876
 1536TIP3    H1 4572   1.487   4.913   4.791
 1536TIP3    H2 4573   1.553   4.838   4.904
 1537TIP3   OH2 4574   0.229   2.230   3.355
 1537TIP3    H1 4575   0.208   2.242   3.448
 1537TIP3    H2 4576   0.235   2.135   3.345
 1538TIP3   OH2 4577   7.078   0.484   2.045
 1538TIP3    H1 4578   7.076   0.390   2.029
 1538TIP3    H2 4579   7.088   0.524   1.958
 1539TIP3   OH2 4580   6.758   1.136   5.545
 1539TIP3    H1 4581   6.691   1.130   5.477
 1539TIP3    H2 4582   6.715   1.104   5.624
 1540TIP3   OH2 4583   0.445   1.480   5.554
 1540TIP3    H1 4584   0.526   1.433   5.576
 1540TIP3    H2 4585   0.376   1.415   5.562
 1541TIP3   OH2 4586   2.417   6.181   2.944
 1541TIP3    H1 4587   2.394   6.242   3.014
 1541TIP3    H2 4588   2.358   6.107   2.955
 1542TIP3   OH2 4589   2.542   3.148   1.502
 1542TIP3    H1 4590   2.478   3.079   1.485
 1542TIP3    H2 4591   2.596   3.113   1.573
 1543TIP3   OH2 4592   6.423   0.969   2.852
 1543TIP3    H1 4593   6.430   0.903   2.783
 1543TIP3    H2 4594   6.510   1.009   2.855
 1544TIP3   OH2 4595   6.364   0.750   1.813
 1544TIP3    H1 4596   6.371   0.655   1.817
 1544TIP3    H2 4597   6.326   0.775   1.897
 1545TIP3   OH2 4598   7.150   3.892   3.832
 1545TIP3    H1 4599   7.184   3.837   3.902
 1545TIP3    H2 4600   7.064   3.920   3.862
 1546TIP3   OH2 4601   3.278   1.475   5.739
 1546TIP3    H1 4602   3.307   1.563   5.718
 1546TIP3    H2 4603   3.327   1.418   5.680
 1547TIP3   OH2 4604   6.627   4.420   3.623
 1547TIP3    H1 4605   6.592   4.346   3.573
 1547TIP3    H2 4606   6.704   4.384   3.667
 1548TIP3   OH2 4607   4.896   1.358   4.641
 1548TIP3    H1 4608   4.816   1.409   4.648
 1548TIP3    H2 4609   4.868   1.267   4.646
 1549TIP3   OH2 4610   3.631   0.798   3.114
 1549TIP3    H1 4611   3.721   0.815   3.142
 1549TIP3    H2 4612   3.629   0.704   3.095
 1550TIP3   OH2 4613   3.862   4.968   4.811
 1550TIP3    H1 4614   3.871   5.051   4.858
 1550TIP3    H2 4615   3.776   4.936   4.836
 1551TIP3   OH2 4616   4.914   0.117   1.754
 1551TIP3    H1 4617   4.846   0.152   1.811
 1551TIP3    H2 4618   4.994   0.161   1.782
 1552TIP3   OH2 4619   2.930   6.404   4.633
 1552TIP3    H1 4620   3.007   6.453   4.605
 1552TIP3    H2 4621   2.857   6.463   4.616
 1553TIP3   OH2 4622   0.933   0.869   1.385
 1553TIP3    H1 4623   0.885   0.832   1.310
 1553TIP3    H2 4624   0.889   0.832   1.461
 1554TIP3   OH2 4625   4.826   0.645   2.695
 1554TIP3    H1 4626   4.882   0.714   2.659
 1554TIP3    H2 4627   4.839   0.651   2.790
 1555TIP3   OH2 4628   3.932   1.476   1.333
 1555TIP3    H1 4629   3.843   1.447   1.313
 1555TIP3    H2 4630   3.941   1.464   1.427
 1556TIP3   OH2 4631   5.654   6.307   4.592
 1556TIP3    H1 4632   5.664   6.363   4.669
 1556TIP3    H2 4633   5.690   6.223   4.620
 1557TIP3   OH2 4634   3.834   1.845   1.381
 1557TIP3    H1 4635   3.905   1.789   1.412
 1557TIP3    H2 4636   3.857   1.864   1.290
 1558TIP3   OH2 4637   3.892   1.322   0.971
 1558TIP3    H1 4638   3.867   1.230   0.981
 1558TIP3    H2 4639   3.977   1.318   0.927
 1559TIP3   OH2 4640   7.113   5.022   3.580
 1559TIP3    H1 4641   7.078   4.948   3.531
 1559TIP3    H2 4642   7.206   5.024   3.558
 1560TIP3   OH2 4643   4.050   4.387   5.732
 1560TIP3    H1 4644   4.131   4.336   5.735
 1560TIP3    H2 4645   4.049   4.435   5.815
 1561TIP3   OH2 4646   3.894   0.011   1.714
 1561TIP3    H1 4647   3.907  -0.070   1.762
 1561TIP3    H2 4648   3.980   0.052   1.711
 1562TIP3   OH2 4649   4.123   5.695   1.279
 1562TIP3    H1 4650   4.030   5.694   1.258
 1562TIP3    H2 4651   4.143   5.606   1.306
 1563TIP3   OH2 4652   3.948   4.764   1.460
 1563TIP3    H1 4653   3.858   4.784   1.487
 1563TIP3    H2 4654   3.995   4.846   1.469
 1564TIP3   OH2 4655   6.778   1.303   3.612
 1564TIP3    H1 4656   6.787   1.387   3.567
 1564TIP3    H2 4657   6.779   1.238   3.542
 1565TIP3   OH2 4658   0.841   5.057   3.366
 1565TIP3    H1 4659   0.903   4.998   3.408
 1565TIP3    H2 4660   0.781   4.998   3.320
 1566TIP3   OH2 4661   1.424   4.415   4.581
 1566TIP3    H1 4662   1.444   4.378   4.667
 1566TIP3    H2 4663   1.400   4.339   4.528
 1567TIP3   OH2 4664   4.859   4.188   0.091
 1567TIP3    H1 4665   4.787   4.224   0.041
 1567TIP3    H2 4666   4.852   4.093   0.080
 1568TIP3   OH2 4667   5.606   4.959   4.613
 1568TIP3    H1 4668   5.673   5.003   4.561
 1568TIP3    H2 4669   5.613   4.999   4.700
 1569TIP3   OH2 4670   4.973   4.095   2.545
 1569TIP3    H1 4671   4.954   4.015   2.497
 1569TIP3    H2 4672   4.920   4.088   2.625
 1570TIP3   OH2 4673   3.126   1.675   2.226
 1570TIP3    H1 4674   3.182   1.599   2.239
 1570TIP3    H2 4675   3.185   1.750   2.233
 1571TIP3   OH2 4676   2.125   5.553   1.447
 1571TIP3    H1 4677   2.205   5.516   1.409
 1571TIP3    H2 4678   2.156   5.606   1.521
 1572TIP3   OH2 4679   3.727   1.537   2.769
 1572TIP3    H1 4680   3.791   1.607   2.759
 1572TIP3    H2 4681   3.765   1.479   2.835
 1573TIP3   OH2 4682   6.072   2.595   0.775
 1573TIP3    H1 4683   6.069   2.516   0.721
 1573TIP3    H2 4684   6.081   2.563   0.865
 1574TIP3   OH2 4685   4.615   1.908   2.509
 1574TIP3    H1 4686   4.604   1.974   2.578
 1574TIP3    H2 4687   4.699   1.932   2.467
 1575TIP3   OH2 4688   1.439   2.940   5.373
 1575TIP3    H1 4689   1.392   2.962   5.454
 1575TIP3    H2 4690   1.465   2.849   5.385
 1576TIP3   OH2 4691   0.522   0.670   2.895
 1576TIP3    H1 4692   0.614   0.665   2.868
 1576TIP3    H2 4693   0.524   0.724   2.975
 1577TIP3   OH2 4694   4.567   5.318   4.695
 1577TIP3    H1 4695   4.495   5.294   4.637
 1577TIP3    H2 4696   4.591   5.237   4.740
 1578TIP3   OH2 4697   4.553   0.031   0.153
 1578TIP3    H1 4698   4.617   0.067   0.093
 1578TIP3    H2 4699   4.519  -0.047   0.109
 1579TIP3   OH2 4700   4.744   1.533   3.824
 1579TIP3    H1 4701   4.650   1.546   3.823
 1579TIP3    H2 4702   4.767   1.508   3.735
 1580TIP3   OH2 4703   4.026   3.695   0.450
 1580TIP3    H1 4704   4.009   3.749   0.527
 1580TIP3    H2 4705   4.105   3.646   0.472
 1581TIP3   OH2 4706   2.314   6.460   1.998
 1581TIP3    H1 4707   2.352   6.374   1.977
 1581TIP3    H2 4708   2.259   6.443   2.074
 1582TIP3   OH2 4709   2.446   2.858   1.507
 1582TIP3    H1 4710   2.398   2.807   1.572
 1582TIP3    H2 4711   2.532   2.873   1.547
 1583TIP3   OH2 4712   5.451   0.468   3.684
 1583TIP3    H1 4713   5.384   0.515   3.635
 1583TIP3    H2 4714   5.526   0.528   3.685
 1584TIP3   OH2 4715   0.213   3.827   5.369
 1584TIP3    H1 4716   0.254   3.882   5.302
 1584TIP3    H2 4717   0.286   3.785   5.414
 1585TIP3   OH2 4718   4.060   1.282   0.326
 1585TIP3    H1 4719   4.138   1.234   0.298
 1585TIP3    H2 4720   4.020   1.311   0.244
 1586TIP3   OH2 4721   6.734   2.210   3.417
 1586TIP3    H1 4722   6.661   2.272   3.415
 1586TIP3    H2 4723   6.704   2.136   3.365
 1587TIP3   OH2 4724   1.696   4.052   3.539
 1587TIP3    H1 4725   1.728   3.965   3.512
 1587TIP3    H2 4726   1.601   4.042   3.544
 1588TIP3   OH2 4727   6.117   0.491   1.748
 1588TIP3    H1 4728   6.212   0.498   1.758
 1588TIP3    H2 4729   6.082   0.513   1.834
 1589TIP3   OH2 4730   2.599   3.535   5.163
 1589TIP3    H1 4731   2.647   3.593   5.105
 1589TIP3    H2 4732   2.664   3.471   5.193
 1590TIP3   OH2 4733   2.013   6.746   2.299
 1590TIP3    H1 4734   1.973   6.765   2.214
 1590TIP3    H2 4735   1.942   6.755   2.362
 1591TIP3   OH2 4736   6.077   5.737   3.330
 1591TIP3    H1 4737   6.074   5.660   3.274
 1591TIP3    H2 4738   6.161   5.779   3.310
 1592TIP3   OH2 4739   6.058   1.377   2.457
 1592TIP3    H1 4740   6.045   1.472   2.454
 1592TIP3    H2 4741   6.141   1.366   2.502
 1593TIP3   OH2 4742   4.015   6.069   0.406
 1593TIP3    H1 4743   3.926   6.039   0.386
 1593TIP3    H2 4744   4.003   6.140   0.469
 1594TIP3   OH2 4745   4.266   3.047   3.593
 1594TIP3    H1 4746   4.350   3.000   3.592
 1594TIP3    H2 4747   4.211   3.000   3.531
 1595TIP3   OH2 4748   2.043   4.089   0.158
 1595TIP3    H1 4749   2.074   4.144   0.086
 1595TIP3    H2 4750   2.020   4.151   0.228
 1596TIP3   OH2 4751   6.868   4.582   0.188
 1596TIP3    H1 4752   6.854   4.650   0.123
 1596TIP3    H2 4753   6.952   4.603   0.228
 1597TIP3   OH2 4754   0.490   0.966   0.088
 1597TIP3    H1 4755   0.555   0.902   0.060
 1597TIP3    H2 4756   0.446   0.925   0.163
 1598TIP3   OH2 4757   5.256   0.012   2.315
 1598TIP3    H1 4758   5.200   0.030   2.240
 1598TIP3    H2 4759   5.269  -0.083   2.313
 1599TIP3   OH2 4760   0.902   3.114   3.361
 1599TIP3    H1 4761   0.940   3.101   3.448
 1599TIP3    H2 4762   0.862   3.201   3.365
 1600TIP3   OH2 4763   2.832   6.646   3.676
 1600TIP3    H1 4764   2.745   6.607   3.681
 1600TIP3    H2 4765   2.836   6.682   3.587
 1601TIP3   OH2 4766   2.107   2.244   4.926
 1601TIP3    H1 4767   2.149   2.326   4.902
 1601TIP3    H2 4768   2.178   2.191   4.963
 1602TIP3   OH2 4769   4.046   1.693   1.212
 1602TIP3    H1 4770   4.096   1.715   1.291
 1602TIP3    H2 4771   3.987   1.623   1.241
 1603TIP3   OH2 4772   2.765   0.669   2.609
 1603TIP3    H1 4773   2.789   0.739   2.548
 1603TIP3    H2 4774   2.697   0.707   2.664
 1604TIP3   OH2 4775   6.150   3.205   0.749
 1604TIP3    H1 4776   6.067   3.252   0.739
 1604TIP3    H2 4777   6.126   3.124   0.793
 1605TIP3   OH2 4778   3.705   0.231   0.254
 1605TIP3    H1 4779   3.728   0.324   0.251
 1605TIP3    H2 4780   3.622   0.225   0.207
 1606TIP3   OH2 4781   3.469   3.186   4.173
 1606TIP3    H1 4782   3.454   3.179   4.079
 1606TIP3    H2 4783   3.465   3.279   4.191
 1607TIP3   OH2 4784   2.161   6.026   5.426
 1607TIP3    H1 4785   2.141   6.064   5.512
 1607TIP3    H2 4786   2.140   5.933   5.435
 1608TIP3   OH2 4787   5.904   3.808   0.686
 1608TIP3    H1 4788   5.971   3.875   0.674
 1608TIP3    H2 4789   5.822   3.857   0.696
 1609TIP3   OH2 4790   4.446   1.398   1.871
 1609TIP3    H1 4791   4.357   1.433   1.879
 1609TIP3    H2 4792   4.481   1.439   1.792
 1610TIP3   OH2 4793   5.084   2.794   2.295
 1610TIP3    H1 4794   4.990   2.775   2.303
 1610TIP3    H2 4795   5.118   2.779   2.383
 1611TIP3   OH2 4796   0.170   0.324   0.982
 1611TIP3    H1 4797   0.258   0.344   0.951
 1611TIP3    H2 4798   0.174   0.231   1.005
 1612TIP3   OH2 4799   4.815   0.280   1.944
 1612TIP3    H1 4800   4.793   0.307   2.033
 1612TIP3    H2 4801   4.891   0.334   1.921
 1613TIP3   OH2 4802   6.943   4.916   3.803
 1613TIP3    H1 4803   7.011   4.959   3.751
 1613TIP3    H2 4804   6.905   4.851   3.744
 1614TIP3   OH2 4805   5.861   2.009   3.958
 1614TIP3    H1 4806   5.799   1.974   4.022
 1614TIP3    H2 4807   5.837   2.101   3.949
 1615TIP3   OH2 4808   0.746   1.983   5.854
 1615TIP3    H1 4809   0.685   1.959   5.923
 1615TIP3    H2 4810   0.778   2.070   5.879
 1616TIP3   OH2 4811   1.597   3.787   1.754
 1616TIP3    H1 4812   1.674   3.742   1.719
 1616TIP3    H2 4813   1.627   3.877   1.769
 1617TIP3   OH2 4814   0.600   4.602   1.816
 1617TIP3    H1 4815   0.688   4.565   1.811
 1617TIP3    H2 4816   0.603   4.660   1.892
 1618TIP3   OH2 4817   2.468   2.666   1.099
 1618TIP3    H1 4818   2.417   2.731   1.148
 1618TIP3    H2 4819   2.556   2.674   1.134
 1619TIP3   OH2 4820   1.640   1.065   0.116
 1619TIP3    H1 4821   1.583   1.125   0.069
 1619TIP3    H2 4822   1.581   1.010   0.167
 1620TIP3   OH2 4823   1.467   5.639   0.322
 1620TIP3    H1 4824   1.428   5.649   0.409
 1620TIP3    H2 4825   1.466   5.545   0.306
 1621TIP3   OH2 4826   6.321   0.078   1.291
 1621TIP3    H1 4827   6.258   0.007   1.307
 1621TIP3    H2 4828   6.368   0.088   1.373
 1622TIP3   OH2 4829   3.730   1.545   0.636
 1622TIP3    H1 4830   3.658   1.482   0.641
 1622TIP3    H2 4831   3.800   1.498   0.591
 1623TIP3   OH2 4832   2.174   3.734   4.391
 1623TIP3    H1 4833   2.254   3.748   4.339
 1623TIP3    H2 4834   2.192   3.777   4.474
 1624TIP3   OH2 4835   5.119   5.260   0.446
 1624TIP3    H1 4836   5.194   5.259   0.504
 1624TIP3    H2 4837   5.151   5.223   0.364
 1625TIP3   OH2 4838   2.776   5.506   4.891
 1625TIP3    H1 4839   2.680   5.504   4.892
 1625TIP3    H2 4840   2.798   5.584   4.841
 1626TIP3   OH2 4841   2.387   2.805   3.254
 1626TIP3    H1 4842   2.350   2.726   3.215
 1626TIP3    H2 4843   2.451   2.773   3.317
 1627TIP3   OH2 4844   2.704   1.767   1.466
 1627TIP3    H1 4845   2.684   1.686   1.513
 1627TIP3    H2 4846   2.630   1.779   1.406
 1628TIP3   OH2 4847   0.292   0.340   3.539
 1628TIP3    H1 4848   0.247   0.258   3.560
 1628TIP3    H2 4849   0.330   0.368   3.622
 1629TIP3   OH2 4850   3.703   6.668   5.726
 1629TIP3    H1 4851   3.707   6.697   5.817
 1629TIP3    H2 4852   3.756   6.732   5.678
 1630TIP3   OH2 4853   3.374   3.047   0.134
 1630TIP3    H1 4854   3.415   3.062   0.220
 1630TIP3    H2 4855   3.440   2.998   0.085
 1631TIP3   OH2 4856   1.278   5.671   3.019
 1631TIP3    H1 4857   1.291   5.579   3.042
 1631TIP3    H2 4858   1.356   5.714   3.053
 1632TIP3   OH2 4859   6.580   2.862   4.443
 1632TIP3    H1 4860   6.671   2.831   4.444
 1632TIP3    H2 4861   6.540   2.822   4.519
 1633TIP3   OH2 4862   3.318   5.175   1.224
 1633TIP3    H1 4863   3.400   5.223   1.233
 1633TIP3    H2 4864   3.264   5.230   1.168
 1634TIP3   OH2 4865   5.606   1.232   0.409
 1634TIP3    H1 4866   5.533   1.173   0.429
 1634TIP3    H2 4867   5.592   1.258   0.318
 1635TIP3   OH2 4868   0.651   3.734   2.741
 1635TIP3    H1 4869   0.642   3.644   2.711
 1635TIP3    H2 4870   0.727   3.732   2.799
 1636TIP3   OH2 4871   1.841   4.901   0.914
 1636TIP3    H1 4872   1.800   4.962   0.854
 1636TIP3    H2 4873   1.917   4.948   0.949
 1637TIP3   OH2 4874   5.434   4.129   4.286
 1637TIP3    H1 4875   5.451   4.217   4.251
 1637TIP3    H2 4876   5.339   4.119   4.279
 1638TIP3   OH2 4877   6.907   2.752   0.918
 1638TIP3    H1 4878   6.997   2.786   0.914
 1638TIP3    H2 4879   6.855   2.824   0.953
 1639TIP3   OH2 4880   1.872   6.587   1.461
 1639TIP3    H1 4881   1.903   6.581   1.371
 1639TIP3    H2 4882   1.934   6.536   1.512
 1640TIP3   OH2 4883   4.658   1.776   0.468
 1640TIP3    H1 4884   4.622   1.741   0.387
 1640TIP3    H2 4885   4.650   1.871   0.460
 1641TIP3   OH2 4886   4.605   2.294   1.855
 1641TIP3    H1 4887   4.574   2.356   1.789
 1641TIP3    H2 4888   4.548   2.218   1.844
 1642TIP3   OH2 4889   3.210   4.041   4.480
 1642TIP3    H1 4890   3.247   4.113   4.429
 1642TIP3    H2 4891   3.281   4.015   4.538
 1643TIP3   OH2 4892   1.933   4.027   5.750
 1643TIP3    H1 4893   1.907   4.085   5.821
 1643TIP3    H2 4894   1.929   3.939   5.789
 1644TIP3   OH2 4895   1.549   3.429   2.049
 1644TIP3    H1 4896   1.581   3.418   1.960
 1644TIP3    H2 4897   1.628   3.420   2.104
 1645TIP3   OH2 4898   6.054   5.867   5.353
 1645TIP3    H1 4899   6.138   5.823   5.340
 1645TIP3    H2 4900   6.075   5.943   5.408
 1646TIP3   OH2 4901   0.688   2.890   3.532
 1646TIP3    H1 4902   0.757   2.935   3.581
 1646TIP3    H2 4903   0.684   2.803   3.571
 1647TIP3   OH2 4904   6.148   5.395   2.372
 1647TIP3    H1 4905   6.142   5.468   2.311
 1647TIP3    H2 4906   6.164   5.319   2.316
 1648TIP3   OH2 4907   6.010   3.934   4.561
 1648TIP3    H1 4908   6.051   4.002   4.507
 1648TIP3    H2 4909   6.054   3.942   4.646
 1649TIP3   OH2 4910   5.622   5.204   3.855
 1649TIP3    H1 4911   5.663   5.120   3.872
 1649TIP3    H2 4912   5.648   5.259   3.929
 1650TIP3   OH2 4913   4.223   3.628   2.706
 1650TIP3    H1 4914   4.285   3.635   2.779
 1650TIP3    H2 4915   4.248   3.547   2.662
 1651TIP3   OH2 4916   0.488   1.443   2.674
 1651TIP3    H1 4917   0.580   1.419   2.679
 1651TIP3    H2 4918   0.466   1.439   2.581
 1652TIP3   OH2 4919   4.651   1.037   1.518
 1652TIP3    H1 4920   4.696   1.020   1.435
 1652TIP3    H2 4921   4.639   1.132   1.519
 1653TIP3   OH2 4922   5.865   6.007   4.369
 1653TIP3    H1 4923   5.829   5.919   4.362
 1653TIP3    H2 4924   5.846   6.048   4.285
 1654TIP3   OH2 4925   6.388   4.134   5.715
 1654TIP3    H1 4926   6.297   4.130   5.687
 1654TIP3    H2 4927   6.438   4.133   5.633
 1655TIP3   OH2 4928   2.454   0.249   1.165
 1655TIP3    H1 4929   2.522   0.299   1.120
 1655TIP3    H2 4930   2.374   0.269   1.116
 1656TIP3   OH2 4931   3.881   6.155   3.428
 1656TIP3    H1 4932   3.847   6.103   3.500
 1656TIP3    H2 4933   3.976   6.159   3.444
 1657TIP3   OH2 4934   0.338   5.035   1.031
 1657TIP3    H1 4935   0.355   4.941   1.019
 1657TIP3    H2 4936   0.246   5.038   1.058
 1658TIP3   OH2 4937   4.864   6.209   0.183
 1658TIP3    H1 4938   4.936   6.270   0.166
 1658TIP3    H2 4939   4.785   6.256   0.156
 1659TIP3   OH2 4940   4.123   0.986   2.228
 1659TIP3    H1 4941   4.081   1.072   2.235
 1659TIP3    H2 4942   4.216   1.005   2.221
 1660TIP3   OH2 4943   3.465   3.818   3.040
 1660TIP3    H1 4944   3.444   3.767   2.962
 1660TIP3    H2 4945   3.486   3.752   3.106
 1661TIP3   OH2 4946   1.923   5.139   2.658
 1661TIP3    H1 4947   1.956   5.052   2.637
 1661TIP3    H2 4948   1.934   5.189   2.577
 1662TIP3   OH2 4949   4.004   0.666   0.868
 1662TIP3    H1 4950   4.053   0.682   0.948
 1662TIP3    H2 4951   3.980   0.573   0.872
 1663TIP3   OH2 4952   2.746   0.248   5.811
 1663TIP3    H1 4953   2.709   0.324   5.764
 1663TIP3    H2 4954   2.819   0.284   5.861
 1664TIP3   OH2 4955   0.313   6.188   3.167
 1664TIP3    H1 4956   0.329   6.123   3.236
 1664TIP3    H2 4957   0.218   6.188   3.155
 1665TIP3   OH2 4958   4.511   2.052   2.718
 1665TIP3    H1 4959   4.421   2.061   2.688
 1665TIP3    H2 4960   4.508   1.976   2.777
 1666TIP3   OH2 4961   2.058   4.921   4.086
 1666TIP3    H1 4962   1.975   4.875   4.075
 1666TIP3    H2 4963   2.035   5.013   4.086
 1667TIP3   OH2 4964   6.628   0.633   1.627
 1667TIP3    H1 4965   6.608   0.676   1.711
 1667TIP3    H2 4966   6.709   0.585   1.643
 1668TIP3   OH2 4967   4.220   1.043   0.563
 1668TIP3    H1 4968   4.129   1.046   0.532
 1668TIP3    H2 4969   4.252   0.957   0.534
 1669TIP3   OH2 4970   1.690   4.102   2.175
 1669TIP3    H1 4971   1.697   4.026   2.118
 1669TIP3    H2 4972   1.727   4.174   2.124
 1670TIP3   OH2 4973   1.447   6.524   0.251
 1670TIP3    H1 4974   1.427   6.433   0.273
 1670TIP3    H2 4975   1.542   6.524   0.238
 1671TIP3   OH2 4976   3.141   6.082   1.754
 1671TIP3    H1 4977   3.126   6.014   1.820
 1671TIP3    H2 4978   3.236   6.090   1.750
 1672TIP3   OH2 4979   2.685   2.341   2.788
 1672TIP3    H1 4980   2.691   2.246   2.792
 1672TIP3    H2 4981   2.631   2.359   2.711
 1673TIP3   OH2 4982   4.209   4.547   0.498
 1673TIP3    H1 4983   4.149   4.615   0.466
 1673TIP3    H2 4984   4.263   4.525   0.422
 1674TIP3   OH2 4985   2.700   5.892   4.016
 1674TIP3    H1 4986   2.674   5.983   4.033
 1674TIP3    H2 4987   2.628   5.855   3.967
 1675TIP3   OH2 4988   6.225   1.814   5.362
 1675TIP3    H1 4989   6.245   1.723   5.383
 1675TIP3    H2 4990   6.306   1.849   5.326
 1676TIP3   OH2 4991   0.912   6.552   1.599
 1676TIP3    H1 4992   0.930   6.578   1.689
 1676TIP3    H2 4993   0.938   6.629   1.546
 1677TIP3   OH2 4994   0.739   2.564   4.619
 1677TIP3    H1 4995   0.821   2.604   4.647
 1677TIP3    H2 4996   0.671   2.612   4.667
 1678TIP3   OH2 4997   4.759   0.956   1.940
 1678TIP3    H1 4998   4.664   0.958   1.955
 1678TIP3    H2 4999   4.768   0.937   1.847
 1679TIP3   OH2 5000   2.196   0.372   0.221
 1679TIP3    H1 5001   2.109   0.387   0.258
 1679TIP3    H2 5002   2.187   0.294   0.167
 1680TIP3   OH2 5003   5.802   0.996   0.374
 1680TIP3    H1 5004   5.752   1.040   0.306
 1680TIP3    H2 5005   5.877   1.054   0.390
 1681TIP3   OH2 5006   3.096   0.281   2.669
 1681TIP3    H1 5007   3.149   0.359   2.652
 1681TIP3    H2 5008   3.130   0.246   2.751
 1682TIP3   OH2 5009   1.058   2.114   3.741
 1682TIP3    H1 5010   0.996   2.180   3.710
 1682TIP3    H2 5011   1.096   2.151   3.821
 1683TIP3   OH2 5012   2.171   3.516   1.545
 1683TIP3    H1 5013   2.122   3.575   1.603
 1683TIP3    H2 5014   2.158   3.429   1.582
 1684TIP3   OH2 5015   2.687   4.706   1.147
 1684TIP3    H1 5016   2.778   4.703   1.177
 1684TIP3    H2 5017   2.692   4.746   1.061
 1685TIP3   OH2 5018   1.071   3.247   4.582
 1685TIP3    H1 5019   1.099   3.227   4.493
 1685TIP3    H2 5020   1.075   3.343   4.588
 1686TIP3   OH2 5021   4.638   4.771   3.118
 1686TIP3    H1 5022   4.731   4.774   3.096
 1686TIP3    H2 5023   4.636   4.769   3.214
 1687TIP3   OH2 5024   3.562   5.321   1.249
 1687TIP3    H1 5025   3.584   5.380   1.321
 1687TIP3    H2 5026   3.604   5.360   1.173
 1688TIP3   OH2 5027   1.024   1.335   2.646
 1688TIP3    H1 5028   1.034   1.390   2.568
 1688TIP3    H2 5029   1.042   1.395   2.719
 1689TIP3   OH2 5030   2.162   0.372   3.914
 1689TIP3    H1 5031   2.208   0.293   3.943
 1689TIP3    H2 5032   2.116   0.346   3.835
 1690TIP3   OH2 5033   3.173   4.518   1.532
 1690TIP3    H1 5034   3.110   4.453   1.563
 1690TIP3    H2 5035   3.124   4.600   1.530
 1691TIP3   OH2 5036   5.097   5.255   3.257
 1691TIP3    H1 5037   5.166   5.302   3.211
 1691TIP3    H2 5038   5.108   5.163   3.231
 1692TIP3   OH2 5039   5.309   5.255   3.875
 1692TIP3    H1 5040   5.253   5.180   3.896
 1692TIP3    H2 5041   5.356   5.274   3.956
 1693TIP3   OH2 5042   0.300   2.454   4.198
 1693TIP3    H1 5043   0.277   2.407   4.118
 1693TIP3    H2 5044   0.356   2.526   4.169
 1694TIP3   OH2 5045   1.981   6.019   4.628
 1694TIP3    H1 5046   1.935   5.941   4.660
 1694TIP3    H2 5047   1.953   6.088   4.688
 1695TIP3   OH2 5048   6.190   5.796   4.395
 1695TIP3    H1 5049   6.157   5.886   4.390
 1695TIP3    H2 5050   6.285   5.806   4.387
 1696TIP3   OH2 5051   0.726   4.738   4.067
 1696TIP3    H1 5052   0.666   4.727   3.994
 1696TIP3    H2 5053   0.684   4.693   4.140
 1697TIP3   OH2 5054   5.948   2.951   2.291
 1697TIP3    H1 5055   5.906   3.028   2.330
 1697TIP3    H2 5056   6.023   2.934   2.348
 1698TIP3   OH2 5057   0.843   0.890   2.429
 1698TIP3    H1 5058   0.914   0.890   2.366
 1698TIP3    H2 5059   0.863   0.818   2.489
 1699TIP3   OH2 5060   5.675   4.319   5.287
 1699TIP3    H1 5061   5.607   4.272   5.238
 1699TIP3    H2 5062   5.734   4.251   5.318
 1700TIP3   OH2 5063   0.109   3.932   3.103
 1700TIP3    H1 5064   0.023   3.931   3.060
 1700TIP3    H2 5065   0.168   3.895   3.037
 1701TIP3   OH2 5066   7.181   5.328   1.689
 1701TIP3    H1 5067   7.135   5.354   1.769
 1701TIP3    H2 5068   7.183   5.408   1.636
 1702TIP3   OH2 5069   6.875   3.087   0.534
 1702TIP3    H1 5070   6.788   3.069   0.570
 1702TIP3    H2 5071   6.858   3.113   0.443
 1703TIP3   OH2 5072   2.010   4.205   1.878
 1703TIP3    H1 5073   1.954   4.280   1.899
 1703TIP3    H2 5074   1.949   4.132   1.867
 1704TIP3   OH2 5075   6.702   3.108   4.615
 1704TIP3    H1 5076   6.744   3.145   4.692
 1704TIP3    H2 5077   6.692   3.183   4.555
 1705TIP3   OH2 5078   2.743   0.090   1.878
 1705TIP3    H1 5079   2.727   0.017   1.819
 1705TIP3    H2 5080   2.798   0.054   1.948
 1706TIP3   OH2 5081   2.448   1.746   1.329
 1706TIP3    H1 5082   2.437   1.656   1.297
 1706TIP3    H2 5083   2.388   1.753   1.403
 1707TIP3   OH2 5084   3.728   2.718   4.442
 1707TIP3    H1 5085   3.769   2.672   4.369
 1707TIP3    H2 5086   3.637   2.728   4.416
 1708TIP3   OH2 5087   0.788   6.416   3.835
 1708TIP3    H1 5088   0.703   6.378   3.858
 1708TIP3    H2 5089   0.767   6.503   3.801
 1709TIP3   OH2 5090   4.133   3.403   5.535
 1709TIP3    H1 5091   4.138   3.462   5.611
 1709TIP3    H2 5092   4.040   3.401   5.513
 1710TIP3   OH2 5093   2.629   0.967   5.832
 1710TIP3    H1 5094   2.587   0.952   5.916
 1710TIP3    H2 5095   2.718   0.994   5.854
 1711TIP3   OH2 5096   0.413   5.552   0.577
 1711TIP3    H1 5097   0.422   5.588   0.489
 1711TIP3    H2 5098   0.341   5.489   0.569
 1712TIP3   OH2 5099   1.818   3.454   2.367
 1712TIP3    H1 5100   1.756   3.382   2.356
 1712TIP3    H2 5101   1.852   3.442   2.456
 1713TIP3   OH2 5102   4.077   0.680   3.949
 1713TIP3    H1 5103   4.158   0.630   3.936
 1713TIP3    H2 5104   4.062   0.724   3.866
 1714TIP3   OH2 5105   0.532   4.036   5.449
 1714TIP3    H1 5106   0.492   4.122   5.443
 1714TIP3    H2 5107   0.492   3.996   5.526
 1715TIP3   OH2 5108   5.539   1.070   2.576
 1715TIP3    H1 5109   5.569   0.990   2.532
 1715TIP3    H2 5110   5.618   1.124   2.582
 1716TIP3   OH2 5111   4.005   5.711   1.618
 1716TIP3    H1 5112   3.999   5.712   1.714
 1716TIP3    H2 5113   4.085   5.759   1.599
 1717TIP3   OH2 5114   1.398   4.563   1.514
 1717TIP3    H1 5115   1.488   4.537   1.495
 1717TIP3    H2 5116   1.405   4.649   1.555
 1718TIP3   OH2 5117   2.720   5.700   2.329
 1718TIP3    H1 5118   2.777   5.693   2.406
 1718TIP3    H2 5119   2.779   5.723   2.257
 1719TIP3   OH2 5120   7.070   4.814   0.961
 1719TIP3    H1 5121   7.028   4.755   1.024
 1719TIP3    H2 5122   7.122   4.757   0.905
 1720TIP3   OH2 5123   6.595   0.969   1.564
 1720TIP3    H1 5124   6.606   0.999   1.654
 1720TIP3    H2 5125   6.546   0.887   1.573
 1721TIP3   OH2 5126   1.704   0.551   3.273
 1721TIP3    H1 5127   1.722   0.643   3.292
 1721TIP3    H2 5128   1.702   0.508   3.358
 1722TIP3   OH2 5129   2.180   6.772   1.395
 1722TIP3    H1 5130   2.090   6.803   1.405
 1722TIP3    H2 5131   2.182   6.735   1.307
 1723TIP3   OH2 5132   4.927   0.597   1.739
 1723TIP3    H1 5133   4.967   0.533   1.797
 1723TIP3    H2 5134   4.982   0.675   1.746
 1724TIP3   OH2 5135   4.227   1.632   2.186
 1724TIP3    H1 5136   4.288   1.618   2.258
 1724TIP3    H2 5137   4.216   1.546   2.146
 1725TIP3   OH2 5138   3.384   4.955   1.929
 1725TIP3    H1 5139   3.430   4.890   1.983
 1725TIP3    H2 5140   3.439   5.033   1.935
 1726TIP3   OH2 5141   0.921   4.588   4.810
 1726TIP3    H1 5142   0.983   4.547   4.750
 1726TIP3    H2 5143   0.942   4.551   4.896
 1727TIP3   OH2 5144   5.219   4.112   1.536
 1727TIP3    H1 5145   5.186   4.150   1.617
 1727TIP3    H2 5146   5.263   4.031   1.564
 1728TIP3   OH2 5147   5.528   0.765   0.428
 1728TIP3    H1 5148   5.557   0.820   0.501
 1728TIP3    H2 5149   5.608   0.739   0.384
 1729TIP3   OH2 5150   3.473   4.558   4.943
 1729TIP3    H1 5151   3.436   4.479   4.905
 1729TIP3    H2 5152   3.403   4.623   4.936
 1730TIP3   OH2 5153   3.171   2.977   0.751
 1730TIP3    H1 5154   3.224   2.987   0.830
 1730TIP3    H2 5155   3.105   3.045   0.757
 1731TIP3   OH2 5156   4.014   0.898   5.311
 1731TIP3    H1 5157   4.001   0.820   5.366
 1731TIP3    H2 5158   4.034   0.968   5.373
 1732TIP3   OH2 5159   0.607   5.448   5.727
 1732TIP3    H1 5160   0.652   5.529   5.702
 1732TIP3    H2 5161   0.596   5.454   5.822
 1733TIP3   OH2 5162   0.080   1.217   4.583
 1733TIP3    H1 5163   0.090   1.271   4.505
 1733TIP3    H2 5164   0.108   1.130   4.556
 1734TIP3   OH2 5165   1.866   2.322   0.180
 1734TIP3    H1 5166   1.813   2.275   0.116
 1734TIP3    H2 5167   1.954   2.323   0.143
 1735TIP3   OH2 5168   4.562   6.352   4.078
 1735TIP3    H1 5169   4.642   6.374   4.031
 1735TIP3    H2 5170   4.592   6.315   4.161
 1736TIP3   OH2 5171   2.256   1.546   0.074
 1736TIP3    H1 5172   2.178   1.543   0.130
 1736TIP3    H2 5173   2.303   1.625   0.102
 1737TIP3   OH2 5174   2.943   4.722   1.264
 1737TIP3    H1 5175   2.968   4.729   1.355
 1737TIP3    H2 5176   2.995   4.649   1.230
 1738TIP3   OH2 5177   1.109   4.444   4.679
 1738TIP3    H1 5178   1.043   4.389   4.636
 1738TIP3    H2 5179   1.177   4.383   4.708
 1739TIP3   OH2 5180   6.000   1.090   4.308
 1739TIP3    H1 5181   6.007   1.041   4.226
 1739TIP3    H2 5182   6.070   1.155   4.303
 1740TIP3   OH2 5183   1.231   1.859   4.878
 1740TIP3    H1 5184   1.224   1.939   4.825
 1740TIP3    H2 5185   1.321   1.860   4.911
 1741TIP3   OH2 5186   7.129  -0.025   5.629
 1741TIP3    H1 5187   7.102   0.064   5.653
 1741TIP3    H2 5188   7.224  -0.024   5.633
 1742TIP3   OH2 5189   2.044   0.863   1.590
 1742TIP3    H1 5190   1.950   0.845   1.594
 1742TIP3    H2 5191   2.068   0.846   1.499
 1743TIP3   OH2 5192   3.895   1.565   0.373
 1743TIP3    H1 5193   3.915   1.491   0.430
 1743TIP3    H2 5194   3.910   1.531   0.284
 1744TIP3   OH2 5195   2.893   0.339   2.100
 1744TIP3    H1 5196   2.814   0.295   2.131
 1744TIP3    H2 5197   2.959   0.270   2.097
 1745TIP3   OH2 5198   3.327   4.376   2.584
 1745TIP3    H1 5199   3.359   4.325   2.510
 1745TIP3    H2 5200   3.330   4.315   2.658
 1746TIP3   OH2 5201   4.109   5.947   3.499
 1746TIP3    H1 5202   4.200   5.970   3.481
 1746TIP3    H2 5203   4.095   5.865   3.450
 1747TIP3   OH2 5204   4.263   0.454   1.179
 1747TIP3    H1 5205   4.238   0.375   1.132
 1747TIP3    H2 5206   4.346   0.431   1.221
 1748TIP3   OH2 5207   5.505   4.773   1.821
 1748TIP3    H1 5208   5.423   4.764   1.868
 1748TIP3    H2 5209   5.503   4.703   1.756
 1749TIP3   OH2 5210   6.575   5.146   1.886
 1749TIP3    H1 5211   6.548   5.220   1.940
 1749TIP3    H2 5212   6.636   5.183   1.822
 1750TIP3   OH2 5213   1.130   2.011   5.131
 1750TIP3    H1 5214   1.197   2.037   5.068
 1750TIP3    H2 5215   1.076   1.948   5.084
 1751TIP3   OH2 5216   2.897   5.083   2.714
 1751TIP3    H1 5217   2.978   5.047   2.678
 1751TIP3    H2 5218   2.840   5.095   2.638
 1752TIP3   OH2 5219   1.987   3.847   2.312
 1752TIP3    H1 5220   2.029   3.885   2.235
 1752TIP3    H2 5221   1.909   3.803   2.278
 1753TIP3   OH2 5222   5.448   0.243   2.397
 1753TIP3    H1 5223   5.531   0.229   2.351
 1753TIP3    H2 5224   5.384   0.253   2.327
 1754TIP3   OH2 5225   2.491   5.320   5.028
 1754TIP3    H1 5226   2.576   5.321   5.071
 1754TIP3    H2 5227   2.429   5.301   5.097
 1755TIP3   OH2 5228   1.805   0.121   1.524
 1755TIP3    H1 5229   1.791   0.184   1.595
 1755TIP3    H2 5230   1.876   0.158   1.472
 1756TIP3   OH2 5231   1.771   3.731   5.057
 1756TIP3    H1 5232   1.820   3.749   5.137
 1756TIP3    H2 5233   1.806   3.648   5.025
 1757TIP3   OH2 5234   3.892   4.694   3.032
 1757TIP3    H1 5235   3.941   4.765   3.073
 1757TIP3    H2 5236   3.923   4.615   3.077
 1758TIP3   OH2 5237   2.156   6.056   2.976
 1758TIP3    H1 5238   2.114   5.993   2.918
 1758TIP3    H2 5239   2.095   6.065   3.050
 1759TIP3   OH2 5240   6.577   4.632   3.769
 1759TIP3    H1 5241   6.546   4.581   3.844
 1759TIP3    H2 5242   6.583   4.568   3.698
 1760TIP3   OH2 5243   4.181   2.180   0.126
 1760TIP3    H1 5244   4.213   2.197   0.037
 1760TIP3    H2 5245   4.129   2.258   0.148
 1761TIP3   OH2 5246   5.313   0.181   4.669
 1761TIP3    H1 5247   5.231   0.226   4.649
 1761TIP3    H2 5248   5.290   0.121   4.740
 1762TIP3   OH2 5249   2.933   2.398   4.701
 1762TIP3    H1 5250   2.898   2.358   4.780
 1762TIP3    H2 5251   2.956   2.488   4.727
 1763TIP3   OH2 5252   0.049   2.339   1.728
 1763TIP3    H1 5253  -0.006   2.402   1.681
 1763TIP3    H2 5254  -0.012   2.283   1.776
 1764TIP3   OH2 5255   3.917   1.601   0.939
 1764TIP3    H1 5256   3.882   1.513   0.929
 1764TIP3    H2 5257   3.852   1.658   0.899
 1765TIP3   OH2 5258   1.273   6.430   1.165
 1765TIP3    H1 5259   1.317   6.395   1.242
 1765TIP3    H2 5260   1.318   6.389   1.091
 1766TIP3   OH2 5261   1.418   3.455   1.588
 1766TIP3    H1 5262   1.480   3.442   1.517
 1766TIP3    H2 5263   1.396   3.548   1.585
 1767TIP3   OH2 5264   6.165   5.931   1.933
 1767TIP3    H1 5265   6.208   5.898   2.012
 1767TIP3    H2 5266   6.157   6.025   1.947
 1768TIP3   OH2 5267   3.969   6.629   3.497
 1768TIP3    H1 5268   3.906   6.557   3.491
 1768TIP3    H2 5269   3.983   6.656   3.406
 1769TIP3   OH2 5270   4.927   3.029   2.770
 1769TIP3    H1 5271   4.960   2.996   2.854
 1769TIP3    H2 5272   4.891   2.952   2.726
 1770TIP3   OH2 5273   6.976   3.954   5.413
 1770TIP3    H1 5274   6.987   4.037   5.367
 1770TIP3    H2 5275   7.008   3.972   5.502
 1771TIP3   OH2 5276   0.598   4.635   3.480
 1771TIP3    H1 5277   0.632   4.566   3.536
 1771TIP3    H2 5278   0.644   4.624   3.397
 1772TIP3   OH2 5279   3.507   1.151   0.463
 1772TIP3    H1 5280   3.428   1.201   0.485
 1772TIP3    H2 5281   3.474   1.064   0.440
 1773TIP3   OH2 5282   2.515   3.301   0.369
 1773TIP3    H1 5283   2.589   3.350   0.406
 1773TIP3    H2 5284   2.454   3.369   0.338
 1774TIP3   OH2 5285   6.206   0.795   1.578
 1774TIP3    H1 5286   6.133   0.832   1.528
 1774TIP3    H2 5287   6.172   0.711   1.612
 1775TIP3   OH2 5288   5.094   2.744   3.948
 1775TIP3    H1 5289   5.047   2.788   3.878
 1775TIP3    H2 5290   5.160   2.807   3.976
 1776TIP3   OH2 5291   2.725   1.214   2.359
 1776TIP3    H1 5292   2.810   1.222   2.316
 1776TIP3    H2 5293   2.693   1.305   2.366
 1777TIP3   OH2 5294   6.123   6.416   1.427
 1777TIP3    H1 5295   6.148   6.406   1.519
 1777TIP3    H2 5296   6.101   6.327   1.398
 1778TIP3   OH2 5297   6.564   4.517   5.492
 1778TIP3    H1 5298   6.508   4.568   5.551
 1778TIP3    H2 5299   6.611   4.582   5.441
 1779TIP3   OH2 5300   2.654   5.763   0.538
 1779TIP3    H1 5301   2.625   5.672   0.529
 1779TIP3    H2 5302   2.738   5.756   0.583
 1780TIP3   OH2 5303   6.102   4.682   0.433
 1780TIP3    H1 5304   6.195   4.673   0.454
 1780TIP3    H2 5305   6.058   4.629   0.500
 1781TIP3   OH2 5306   5.510   2.194   0.426
 1781TIP3    H1 5307   5.415   2.196   0.426
 1781TIP3    H2 5308   5.533   2.134   0.497
 1782TIP3   OH2 5309   6.760   3.776   5.546
 1782TIP3    H1 5310   6.809   3.810   5.471
 1782TIP3    H2 5311   6.799   3.690   5.563
 1783TIP3   OH2 5312   3.921   6.051   1.951
 1783TIP3    H1 5313   3.975   6.078   2.026
 1783TIP3    H2 5314   3.831   6.068   1.978
 1784TIP3   OH2 5315   7.023   1.762   4.430
 1784TIP3    H1 5316   6.929   1.750   4.417
 1784TIP3    H2 5317   7.032   1.789   4.521
 1785TIP3   OH2 5318   1.630   4.057   1.586
 1785TIP3    H1 5319   1.573   4.095   1.653
 1785TIP3    H2 5320   1.617   4.113   1.509
 1786TIP3   OH2 5321   4.505   6.530   5.216
 1786TIP3    H1 5322   4.592   6.554   5.184
 1786TIP3    H2 5323   4.521   6.463   5.283
 1787TIP3   OH2 5324   3.727   6.036   1.506
 1787TIP3    H1 5325   3.788   6.045   1.579
 1787TIP3    H2 5326   3.768   6.084   1.434
 1788TIP3   OH2 5327   6.622   3.443   4.289
 1788TIP3    H1 5328   6.650   3.494   4.214
 1788TIP3    H2 5329   6.697   3.445   4.349
 1789TIP3   OH2 5330   0.866   6.441   5.359
 1789TIP3    H1 5331   0.869   6.406   5.270
 1789TIP3    H2 5332   0.778   6.419   5.391
 1790TIP3   OH2 5333   3.106   6.253   3.700
 1790TIP3    H1 5334   3.065   6.337   3.715
 1790TIP3    H2 5335   3.036   6.189   3.712
 1791TIP3   OH2 5336   2.343   5.558   2.090
 1791TIP3    H1 5337   2.348   5.563   2.185
 1791TIP3    H2 5338   2.255   5.591   2.069
 1792TIP3   OH2 5339   4.493   6.742   0.302
 1792TIP3    H1 5340   4.411   6.742   0.350
 1792TIP3    H2 5341   4.542   6.668   0.339
 1793TIP3   OH2 5342   5.033   1.857   3.059
 1793TIP3    H1 5343   5.096   1.827   2.992
 1793TIP3    H2 5344   5.003   1.942   3.028
 1794TIP3   OH2 5345   0.265   0.981   3.714
 1794TIP3    H1 5346   0.215   0.935   3.781
 1794TIP3    H2 5347   0.223   1.066   3.707
 1795TIP3   OH2 5348   5.921   6.346   4.980
 1795TIP3    H1 5349   5.986   6.279   4.955
 1795TIP3    H2 5350   5.838   6.311   4.948
 1796TIP3   OH2 5351   4.436   5.797   2.272
 1796TIP3    H1 5352   4.528   5.770   2.268
 1796TIP3    H2 5353   4.408   5.772   2.360
 1797TIP3   OH2 5354   1.353   3.545   0.839
 1797TIP3    H1 5355   1.433   3.503   0.808
 1797TIP3    H2 5356   1.320   3.487   0.908
 1798TIP3   OH2 5357   6.984   4.439   5.013
 1798TIP3    H1 5358   6.956   4.438   4.921
 1798TIP3    H2 5359   6.918   4.388   5.059
 1799TIP3   OH2 5360   2.345   4.952   5.164
 1799TIP3    H1 5361   2.439   4.953   5.183
 1799TIP3    H2 5362   2.307   4.899   5.234
 1800TIP3   OH2 5363   3.911   3.836   0.656
 1800TIP3    H1 5364   3.958   3.917   0.677
 1800TIP3    H2 5365   3.820   3.855   0.679
 1801TIP3   OH2 5366   1.991   1.300   4.731
 1801TIP3    H1 5367   1.903   1.265   4.718
 1801TIP3    H2 5368   1.977   1.386   4.770
 1802TIP3   OH2 5369   5.538   4.684   1.346
 1802TIP3    H1 5370   5.580   4.698   1.261
 1802TIP3    H2 5371   5.481   4.760   1.357
 1803TIP3   OH2 5372   1.949   0.530   2.546
 1803TIP3    H1 5373   1.929   0.623   2.536
 1803TIP3    H2 5374   1.964   0.518   2.640
 1804TIP3   OH2 5375   7.018   0.722   4.370
 1804TIP3    H1 5376   7.065   0.679   4.441
 1804TIP3    H2 5377   6.932   0.679   4.368
 1805TIP3   OH2 5378   3.593   2.660   5.167
 1805TIP3    H1 5379   3.619   2.590   5.227
 1805TIP3    H2 5380   3.527   2.621   5.111
 1806TIP3   OH2 5381   6.226   4.790   1.752
 1806TIP3    H1 5382   6.136   4.820   1.742
 1806TIP3    H2 5383   6.268   4.811   1.668
 1807TIP3   OH2 5384   0.295   6.533   4.532
 1807TIP3    H1 5385   0.345   6.584   4.596
 1807TIP3    H2 5386   0.238   6.596   4.489
 1808TIP3   OH2 5387   6.994   1.411   1.829
 1808TIP3    H1 5388   6.977   1.387   1.920
 1808TIP3    H2 5389   6.951   1.343   1.777
 1809TIP3   OH2 5390   1.432   3.779   1.310
 1809TIP3    H1 5391   1.527   3.783   1.298
 1809TIP3    H2 5392   1.421   3.764   1.404
 1810TIP3   OH2 5393   0.337   3.585   1.699
 1810TIP3    H1 5394   0.407   3.646   1.674
 1810TIP3    H2 5395   0.257   3.637   1.695
 1811TIP3   OH2 5396   2.697   3.723   0.548
 1811TIP3    H1 5397   2.629   3.656   0.554
 1811TIP3    H2 5398   2.757   3.690   0.481
 1812TIP3   OH2 5399   3.083   3.526   5.840
 1812TIP3    H1 5400   3.166   3.557   5.876
 1812TIP3    H2 5401   3.019   3.594   5.864
 1813TIP3   OH2 5402   3.728   3.348   3.408
 1813TIP3    H1 5403   3.706   3.288   3.336
 1813TIP3    H2 5404   3.701   3.301   3.487
 1814TIP3   OH2 5405   0.582   4.870   0.706
 1814TIP3    H1 5406   0.495   4.842   0.677
 1814TIP3    H2 5407   0.580   4.965   0.697
 1815TIP3   OH2 5408   5.642   4.494   2.999
 1815TIP3    H1 5409   5.736   4.487   3.013
 1815TIP3    H2 5410   5.610   4.545   3.074
 1816TIP3   OH2 5411   7.026   0.820   0.780
 1816TIP3    H1 5412   6.997   0.779   0.698
 1816TIP3    H2 5413   6.988   0.767   0.849
 1817TIP3   OH2 5414   4.095   4.558   1.343
 1817TIP3    H1 5415   4.059   4.635   1.386
 1817TIP3    H2 5416   4.136   4.591   1.263
 1818TIP3   OH2 5417   5.897   6.706   1.753
 1818TIP3    H1 5418   5.954   6.759   1.808
 1818TIP3    H2 5419   5.906   6.617   1.788
 1819TIP3   OH2 5420   0.550   2.763   4.715
 1819TIP3    H1 5421   0.477   2.758   4.777
 1819TIP3    H2 5422   0.608   2.830   4.752
 1820TIP3   OH2 5423   6.383   1.927   5.746
 1820TIP3    H1 5424   6.293   1.931   5.714
 1820TIP3    H2 5425   6.379   1.964   5.834
 1821TIP3   OH2 5426   1.275   4.226   1.361
 1821TIP3    H1 5427   1.275   4.138   1.323
 1821TIP3    H2 5428   1.230   4.215   1.445
 1822TIP3   OH2 5429   7.149   2.117   5.790
 1822TIP3    H1 5430   7.190   2.139   5.873
 1822TIP3    H2 5431   7.061   2.088   5.814
 1823TIP3   OH2 5432   4.747   6.059   2.443
 1823TIP3    H1 5433   4.706   5.992   2.498
 1823TIP3    H2 5434   4.825   6.085   2.492
 1824TIP3   OH2 5435   2.695   1.668   4.144
 1824TIP3    H1 5436   2.616   1.637   4.100
 1824TIP3    H2 5437   2.701   1.615   4.223
 1825TIP3   OH2 5438   2.017   0.831   3.725
 1825TIP3    H1 5439   1.992   0.765   3.790
 1825TIP3    H2 5440   1.942   0.890   3.719
 1826TIP3   OH2 5441   2.459   2.346   4.666
 1826TIP3    H1 5442   2.480   2.254   4.678
 1826TIP3    H2 5443   2.380   2.346   4.612
 1827TIP3   OH2 5444   4.725   1.337   5.519
 1827TIP3    H1 5445   4.771   1.393   5.457
 1827TIP3    H2 5446   4.751   1.248   5.495
 1828TIP3   OH2 5447   4.667   3.058   2.176
 1828TIP3    H1 5448   4.640   3.014   2.256
 1828TIP3    H2 5449   4.588   3.062   2.122
 1829TIP3   OH2 5450   7.069   0.240   0.521
 1829TIP3    H1 5451   7.057   0.153   0.557
 1829TIP3    H2 5452   7.118   0.226   0.439
 1830TIP3   OH2 5453   4.377   5.917   3.400
 1830TIP3    H1 5454   4.466   5.892   3.378
 1830TIP3    H2 5455   4.327   5.900   3.320
 1831TIP3   OH2 5456   0.909   5.788   4.979
 1831TIP3    H1 5457   0.890   5.838   4.899
 1831TIP3    H2 5458   0.962   5.714   4.949
 1832TIP3   OH2 5459   6.321   5.681   0.416
 1832TIP3    H1 5460   6.412   5.694   0.443
 1832TIP3    H2 5461   6.315   5.724   0.331
 1833TIP3   OH2 5462   4.869   0.981   2.675
 1833TIP3    H1 5463   4.959   0.980   2.707
 1833TIP3    H2 5464   4.878   0.986   2.580
 1834TIP3   OH2 5465   4.508   2.670   2.225
 1834TIP3    H1 5466   4.490   2.640   2.315
 1834TIP3    H2 5467   4.537   2.592   2.179
 1835TIP3   OH2 5468   3.193   4.372   4.876
 1835TIP3    H1 5469   3.211   4.278   4.880
 1835TIP3    H2 5470   3.178   4.389   4.783
 1836TIP3   OH2 5471   6.373   1.283   0.584
 1836TIP3    H1 5472   6.432   1.246   0.650
 1836TIP3    H2 5473   6.299   1.222   0.582
 1837TIP3   OH2 5474   2.319   6.727   5.865
 1837TIP3    H1 5475   2.286   6.780   5.938
 1837TIP3    H2 5476   2.407   6.760   5.849
 1838TIP3   OH2 5477   7.176   0.678   0.082
 1838TIP3    H1 5478   7.100   0.728   0.109
 1838TIP3    H2 5479   7.202   0.629   0.160
 1839TIP3   OH2 5480   5.961   4.014   4.198
 1839TIP3    H1 5481   5.971   3.933   4.248
 1839TIP3    H2 5482   6.003   4.081   4.252
 1840TIP3   OH2 5483   5.473   2.093   4.396
 1840TIP3    H1 5484   5.477   1.998   4.408
 1840TIP3    H2 5485   5.451   2.104   4.303
 1841TIP3   OH2 5486   5.492   0.411   1.072
 1841TIP3    H1 5487   5.452   0.325   1.056
 1841TIP3    H2 5488   5.419   0.468   1.096
 1842TIP3   OH2 5489   0.849   3.672   4.145
 1842TIP3    H1 5490   0.866   3.580   4.165
 1842TIP3    H2 5491   0.935   3.712   4.139
 1843TIP3   OH2 5492   1.141   4.077   5.739
 1843TIP3    H1 5493   1.171   4.097   5.651
 1843TIP3    H2 5494   1.217   4.038   5.782
 1844TIP3   OH2 5495   2.785   3.026   2.524
 1844TIP3    H1 5496   2.741   3.048   2.606
 1844TIP3    H2 5497   2.742   3.080   2.458
 1845TIP3   OH2 5498   1.877   4.265   4.338
 1845TIP3    H1 5499   1.963   4.302   4.316
 1845TIP3    H2 5500   1.889   4.171   4.329
 1846TIP3   OH2 5501   3.730   4.753   0.880
 1846TIP3    H1 5502   3.669   4.695   0.927
 1846TIP3    H2 5503   3.710   4.740   0.788
 1847TIP3   OH2 5504   6.659   4.123   3.110
 1847TIP3    H1 5505   6.605   4.197   3.081
 1847TIP3    H2 5506   6.748   4.158   3.113
 1848TIP3   OH2 5507   3.739   4.049   0.250
 1848TIP3    H1 5508   3.688   3.979   0.209
 1848TIP3    H2 5509   3.829   4.017   0.250
 1849TIP3   OH2 5510   5.168   0.866   3.316
 1849TIP3    H1 5511   5.141   0.849   3.406
 1849TIP3    H2 5512   5.226   0.792   3.294
 1850TIP3   OH2 5513   2.113   1.796   3.640
 1850TIP3    H1 5514   2.029   1.832   3.671
 1850TIP3    H2 5515   2.171   1.872   3.635
 1851TIP3   OH2 5516   6.997   4.766   4.167
 1851TIP3    H1 5517   6.993   4.844   4.224
 1851TIP3    H2 5518   6.910   4.761   4.128
 1852TIP3   OH2 5519   1.834   2.046   4.117
 1852TIP3    H1 5520   1.755   2.022   4.165
 1852TIP3    H2 5521   1.906   2.014   4.171
 1853TIP3   OH2 5522   5.732   5.451   3.465
 1853TIP3    H1 5523   5.747   5.364   3.427
 1853TIP3    H2 5524   5.691   5.433   3.549
 1854TIP3   OH2 5525   2.699   1.048   3.184
 1854TIP3    H1 5526   2.744   1.126   3.217
 1854TIP3    H2 5527   2.765   1.003   3.132
 1855TIP3   OH2 5528   5.419   2.651   0.475
 1855TIP3    H1 5529   5.455   2.562   0.466
 1855TIP3    H2 5530   5.346   2.641   0.535
 1856TIP3   OH2 5531   5.456   4.217   4.834
 1856TIP3    H1 5532   5.450   4.312   4.821
 1856TIP3    H2 5533   5.495   4.184   4.754
 1857TIP3   OH2 5534   5.996   2.033   3.497
 1857TIP3    H1 5535   5.903   2.052   3.490
 1857TIP3    H2 5536   6.016   2.045   3.590
 1858TIP3   OH2 5537   4.135   4.902   0.374
 1858TIP3    H1 5538   4.086   4.977   0.408
 1858TIP3    H2 5539   4.069   4.847   0.333
 1859TIP3   OH2 5540   6.148   1.451   3.398
 1859TIP3    H1 5541   6.176   1.524   3.453
 1859TIP3    H2 5542   6.058   1.434   3.424
 1860TIP3   OH2 5543   3.496   6.232   1.898
 1860TIP3    H1 5544   3.478   6.207   1.807
 1860TIP3    H2 5545   3.589   6.251   1.899
 1861TIP3   OH2 5546   1.846   5.979   2.260
 1861TIP3    H1 5547   1.882   6.066   2.277
 1861TIP3    H2 5548   1.826   5.979   2.166
 1862TIP3   OH2 5549   0.505   5.833   5.155
 1862TIP3    H1 5550   0.580   5.806   5.208
 1862TIP3    H2 5551   0.513   5.782   5.074
 1863TIP3   OH2 5552   6.404   4.067   0.279
 1863TIP3    H1 5553   6.496   4.088   0.267
 1863TIP3    H2 5554   6.385   4.090   0.370
 1864TIP3   OH2 5555   6.018   0.883   0.573
 1864TIP3    H1 5556   5.970   0.812   0.532
 1864TIP3    H2 5557   6.056   0.844   0.652
 1865TIP3   OH2 5558   4.999   4.886   3.806
 1865TIP3    H1 5559   4.965   4.938   3.879
 1865TIP3    H2 5560   4.926   4.829   3.781
 1866TIP3   OH2 5561   5.960   3.170   5.369
 1866TIP3    H1 5562   5.882   3.121   5.395
 1866TIP3    H2 5563   5.984   3.218   5.448
 1867TIP3   OH2 5564   6.405   0.490   1.796
 1867TIP3    H1 5565   6.493   0.458   1.776
 1867TIP3    H2 5566   6.403   0.496   1.892
 1868TIP3   OH2 5567   2.521   2.713   2.896
 1868TIP3    H1 5568   2.523   2.627   2.939
 1868TIP3    H2 5569   2.473   2.697   2.815
 1869TIP3   OH2 5570   1.871   1.337   2.499
 1869TIP3    H1 5571   1.944   1.383   2.457
 1869TIP3    H2 5572   1.841   1.397   2.567
 1870TIP3   OH2 5573   1.710   5.037   2.210
 1870TIP3    H1 5574   1.719   4.968   2.276
 1870TIP3    H2 5575   1.659   4.997   2.140
 1871TIP3   OH2 5576   5.504   2.386   2.444
 1871TIP3    H1 5577   5.581   2.422   2.400
 1871TIP3    H2 5578   5.524   2.393   2.537
 1872TIP3   OH2 5579   6.265   1.114   1.301
 1872TIP3    H1 5580   6.247   1.191   1.246
 1872TIP3    H2 5581   6.190   1.057   1.288
 1873TIP3   OH2 5582   5.214   2.981   3.879
 1873TIP3    H1 5583   5.256   2.949   3.799
 1873TIP3    H2 5584   5.263   3.060   3.902
 1874TIP3   OH2 5585   2.691   4.178   1.316
 1874TIP3    H1 5586   2.620   4.118   1.294
 1874TIP3    H2 5587   2.681   4.251   1.254
 1875TIP3   OH2 5588   2.932   4.222   2.904
 1875TIP3    H1 5589   2.995   4.204   2.975
 1875TIP3    H2 5590   2.970   4.180   2.827
 1876TIP3   OH2 5591   5.149   2.889   0.578
 1876TIP3    H1 5592   5.124   2.975   0.544
 1876TIP3    H2 5593   5.222   2.908   0.638
 1877TIP3   OH2 5594   6.364   1.757   1.130
 1877TIP3    H1 5595   6.432   1.767   1.196
 1877TIP3    H2 5596   6.402   1.698   1.065
 1878TIP3   OH2 5597   7.098   4.340   1.906
 1878TIP3    H1 5598   7.132   4.322   1.818
 1878TIP3    H2 5599   7.011   4.377   1.891
 1879TIP3   OH2 5600   2.217   4.763   5.339
 1879TIP3    H1 5601   2.218   4.688   5.399
 1879TIP3    H2 5602   2.147   4.743   5.277
 1880TIP3   OH2 5603   2.910   0.982   3.009
 1880TIP3    H1 5604   2.913   0.938   2.924
 1880TIP3    H2 5605   2.984   0.946   3.058
 1881TIP3   OH2 5606   6.795   6.087   1.360
 1881TIP3    H1 5607   6.775   6.171   1.400
 1881TIP3    H2 5608   6.716   6.064   1.311
 1882TIP3   OH2 5609   5.990   3.743   0.091
 1882TIP3    H1 5610   5.895   3.735   0.091
 1882TIP3    H2 5611   6.008   3.819   0.147
 1883TIP3   OH2 5612   5.759   1.616   2.200
 1883TIP3    H1 5613   5.716   1.635   2.117
 1883TIP3    H2 5614   5.839   1.570   2.176
 1884TIP3   OH2 5615   6.928   5.701   0.768
 1884TIP3    H1 5616   6.839   5.735   0.760
 1884TIP3    H2 5617   6.942   5.654   0.685
 1885TIP3   OH2 5618   2.742   0.126   0.791
 1885TIP3    H1 5619   2.806   0.056   0.776
 1885TIP3    H2 5620   2.687   0.124   0.713
 1886TIP3   OH2 5621   5.913   3.551   5.141
 1886TIP3    H1 5622   5.956   3.565   5.226
 1886TIP3    H2 5623   5.824   3.526   5.163
 1887TIP3   OH2 5624   2.239   3.616   4.955
 1887TIP3    H1 5625   2.179   3.667   4.900
 1887TIP3    H2 5626   2.306   3.584   4.894
 1888TIP3   OH2 5627   4.807   1.866   3.654
 1888TIP3    H1 5628   4.795   1.789   3.598
 1888TIP3    H2 5629   4.783   1.835   3.742
 1889TIP3   OH2 5630   1.572   3.405   0.781
 1889TIP3    H1 5631   1.657   3.363   0.791
 1889TIP3    H2 5632   1.585   3.470   0.711
 1890TIP3   OH2 5633   3.647   3.429   3.930
 1890TIP3    H1 5634   3.654   3.492   3.859
 1890TIP3    H2 5635   3.570   3.376   3.908
 1891TIP3   OH2 5636   4.294   0.724   1.586
 1891TIP3    H1 5637   4.231   0.775   1.637
 1891TIP3    H2 5638   4.355   0.789   1.551
 1892TIP3   OH2 5639   5.163   2.828   2.628
 1892TIP3    H1 5640   5.136   2.910   2.668
 1892TIP3    H2 5641   5.257   2.839   2.613
 1893TIP3   OH2 5642   0.334   4.923   3.958
 1893TIP3    H1 5643   0.297   4.994   4.010
 1893TIP3    H2 5644   0.263   4.860   3.948
 1894TIP3   OH2 5645   7.214   2.893   4.937
 1894TIP3    H1 5646   7.184   2.983   4.949
 1894TIP3    H2 5647   7.134   2.841   4.931
 1895TIP3   OH2 5648   2.154   5.483   5.224
 1895TIP3    H1 5649   2.077   5.536   5.201
 1895TIP3    H2 5650   2.226   5.545   5.225
 1896TIP3   OH2 5651   6.726   0.924   2.789
 1896TIP3    H1 5652   6.725   0.834   2.822
 1896TIP3    H2 5653   6.744   0.915   2.695
 1897TIP3   OH2 5654   3.762   4.578   4.299
 1897TIP3    H1 5655   3.687   4.627   4.267
 1897TIP3    H2 5656   3.738   4.550   4.387
 1898TIP3   OH2 5657   6.150   0.714   0.355
 1898TIP3    H1 5658   6.083   0.743   0.417
 1898TIP3    H2 5659   6.132   0.622   0.341
 1899TIP3   OH2 5660   3.038   2.163   0.414
 1899TIP3    H1 5661   3.029   2.166   0.319
 1899TIP3    H2 5662   3.076   2.076   0.431
 1900TIP3   OH2 5663   0.947   2.654   4.797
 1900TIP3    H1 5664   0.913   2.741   4.817
 1900TIP3    H2 5665   1.042   2.662   4.804
 1901TIP3   OH2 5666   5.525   2.479   2.713
 1901TIP3    H1 5667   5.446   2.514   2.754
 1901TIP3    H2 5668   5.594   2.541   2.737
 1902TIP3   OH2 5669   1.450   2.746   4.573
 1902TIP3    H1 5670   1.441   2.675   4.637
 1902TIP3    H2 5671   1.540   2.739   4.541
 1903TIP3   OH2 5672   1.628   6.687   5.222
 1903TIP3    H1 5673   1.646   6.599   5.254
 1903TIP3    H2 5674   1.532   6.692   5.217
 1904TIP3   OH2 5675   3.231   1.705   1.534
 1904TIP3    H1 5676   3.273   1.697   1.449
 1904TIP3    H2 5677   3.138   1.693   1.517
 1905TIP3   OH2 5678   0.850   3.649   1.902
 1905TIP3    H1 5679   0.805   3.634   1.985
 1905TIP3    H2 5680   0.823   3.576   1.846
 1906TIP3   OH2 5681   0.006   5.586   4.086
 1906TIP3    H1 5682   0.074   5.647   4.060
 1906TIP3    H2 5683   0.029   5.562   4.176
 1907TIP3   OH2 5684   4.010   4.227   1.854
 1907TIP3    H1 5685   4.027   4.286   1.780
 1907TIP3    H2 5686   3.956   4.278   1.914
 1908TIP3   OH2 5687   1.963   1.610   1.326
 1908TIP3    H1 5688   2.018   1.684   1.300
 1908TIP3    H2 5689   2.019   1.557   1.383
 1909TIP3   OH2 5690   4.719   2.041   2.193
 1909TIP3    H1 5691   4.783   2.016   2.259
 1909TIP3    H2 5692   4.759   2.114   2.147
 1910TIP3   OH2 5693   5.946   6.121   5.233
 1910TIP3    H1 5694   5.941   6.055   5.164
 1910TIP3    H2 5695   6.027   6.169   5.215
 1911TIP3   OH2 5696   6.146   2.573   4.008
 1911TIP3    H1 5697   6.210   2.628   3.964
 1911TIP3    H2 5698   6.069   2.575   3.951
 1912TIP3   OH2 5699   2.512   5.288   4.732
 1912TIP3    H1 5700   2.420   5.264   4.737
 1912TIP3    H2 5701   2.538   5.305   4.823
 1913TIP3   OH2 5702   5.247   4.927   0.320
 1913TIP3    H1 5703   5.333   4.898   0.290
 1913TIP3    H2 5704   5.228   4.873   0.397
 1914TIP3   OH2 5705   3.166   5.360   3.586
 1914TIP3    H1 5706   3.086   5.308   3.582
 1914TIP3    H2 5707   3.135   5.451   3.594
 1915TIP3   OH2 5708   5.399   2.722   0.143
 1915TIP3    H1 5709   5.369   2.714   0.052
 1915TIP3    H2 5710   5.460   2.649   0.155
 1916TIP3   OH2 5711   2.569   2.769   0.454
 1916TIP3    H1 5712   2.589   2.828   0.382
 1916TIP3    H2 5713   2.618   2.689   0.435
 1917TIP3   OH2 5714   5.707   6.182   1.417
 1917TIP3    H1 5715   5.756   6.142   1.489
 1917TIP3    H2 5716   5.736   6.136   1.339
 1918TIP3   OH2 5717   0.382   2.706   0.056
 1918TIP3    H1 5718   0.333   2.653   0.119
 1918TIP3    H2 5719   0.428   2.642   0.002
 1919TIP3   OH2 5720   3.738   5.636   3.410
 1919TIP3    H1 5721   3.797   5.564   3.432
 1919TIP3    H2 5722   3.659   5.593   3.377
 1920TIP3   OH2 5723   3.537   4.872   3.824
 1920TIP3    H1 5724   3.540   4.964   3.849
 1920TIP3    H2 5725   3.605   4.830   3.877
 1921TIP3   OH2 5726   2.115   5.094   3.464
 1921TIP3    H1 5727   2.062   5.040   3.405
 1921TIP3    H2 5728   2.051   5.149   3.510
 1922TIP3   OH2 5729   6.928   4.195   0.491
 1922TIP3    H1 5730   6.903   4.228   0.578
 1922TIP3    H2 5731   6.984   4.119   0.510
 1923TIP3   OH2 5732   0.940   5.924   2.343
 1923TIP3    H1 5733   0.985   5.851   2.300
 1923TIP3    H2 5734   0.899   5.972   2.271
 1924TIP3   OH2 5735   2.208   1.194   4.608
 1924TIP3    H1 5736   2.269   1.257   4.645
 1924TIP3    H2 5737   2.122   1.220   4.643
 1925TIP3   OH2 5738   1.720   2.196   2.145
 1925TIP3    H1 5739   1.797   2.248   2.121
 1925TIP3    H2 5740   1.746   2.150   2.225
 1926TIP3   OH2 5741   5.356   3.407   2.197
 1926TIP3    H1 5742   5.339   3.500   2.210
 1926TIP3    H2 5743   5.274   3.364   2.221
 1927TIP3   OH2 5744   0.394   5.657   0.303
 1927TIP3    H1 5745   0.377   5.747   0.331
 1927TIP3    H2 5746   0.378   5.657   0.209
 1928TIP3   OH2 5747   1.561   3.198   5.329
 1928TIP3    H1 5748   1.540   3.106   5.344
 1928TIP3    H2 5749   1.597   3.228   5.413
 1929TIP3   OH2 5750   5.696   5.217   3.323
 1929TIP3    H1 5751   5.606   5.250   3.321
 1929TIP3    H2 5752   5.693   5.141   3.381
 1930TIP3   OH2 5753   6.040   4.863   4.721
 1930TIP3    H1 5754   6.005   4.777   4.745
 1930TIP3    H2 5755   6.071   4.852   4.631
 1931TIP3   OH2 5756   0.235   1.065   4.141
 1931TIP3    H1 5757   0.150   1.095   4.176
 1931TIP3    H2 5758   0.244   1.111   4.057
 1932TIP3   OH2 5759   0.875   6.280   0.283
 1932TIP3    H1 5760   0.823   6.234   0.349
 1932TIP3    H2 5761   0.965   6.271   0.313
 1933TIP3   OH2 5762   4.290   6.333   3.888
 1933TIP3    H1 5763   4.201   6.345   3.856
 1933TIP3    H2 5764   4.343   6.328   3.808
 1934TIP3   OH2 5765   0.987   6.476   2.623
 1934TIP3    H1 5766   1.062   6.418   2.607
 1934TIP3    H2 5767   0.915   6.436   2.574
 1935TIP3   OH2 5768   0.606   5.967   0.064
 1935TIP3    H1 5769   0.643   5.889   0.106
 1935TIP3    H2 5770   0.589   5.940  -0.026
 1936TIP3   OH2 5771   0.034   4.782   5.571
 1936TIP3    H1 5772   0.079   4.722   5.630
 1936TIP3    H2 5773   0.100   4.847   5.548
 1937TIP3   OH2 5774   2.780   5.121   4.674
 1937TIP3    H1 5775   2.741   5.198   4.633
 1937TIP3    H2 5776   2.844   5.156   4.735
 1938TIP3   OH2 5777   6.892   1.573   5.602
 1938TIP3    H1 5778   6.837   1.590   5.678
 1938TIP3    H2 5779   6.838   1.518   5.545
 1939TIP3   OH2 5780   2.457   1.447   0.635
 1939TIP3    H1 5781   2.479   1.377   0.697
 1939TIP3    H2 5782   2.524   1.513   0.650
 1940TIP3   OH2 5783   7.021   2.262   4.001
 1940TIP3    H1 5784   7.058   2.338   4.044
 1940TIP3    H2 5785   7.094   2.202   3.989
 1941TIP3   OH2 5786   3.410   3.411   4.592
 1941TIP3    H1 5787   3.492   3.363   4.587
 1941TIP3    H2 5788   3.370   3.382   4.675
 1942TIP3   OH2 5789   0.050   0.606   5.550
 1942TIP3    H1 5790   0.120   0.587   5.612
 1942TIP3    H2 5791   0.092   0.604   5.464
 1943TIP3   OH2 5792   2.087   5.995   0.162
 1943TIP3    H1 5793   2.055   6.085   0.154
 1943TIP3    H2 5794   2.032   5.945   0.102
 1944TIP3   OH2 5795   5.581   5.452   3.719
 1944TIP3    H1 5796   5.550   5.506   3.792
 1944TIP3    H2 5797   5.580   5.362   3.753
 1945TIP3   OH2 5798   4.667   0.677   4.052
 1945TIP3    H1 5799   4.643   0.597   4.005
 1945TIP3    H2 5800   4.584   0.714   4.081
 1946TIP3   OH2 5801   3.816   3.737   2.759
 1946TIP3    H1 5802   3.734   3.692   2.739
 1946TIP3    H2 5803   3.799   3.782   2.842
 1947TIP3   OH2 5804   4.108   3.717   4.990
 1947TIP3    H1 5805   4.187   3.678   5.028
 1947TIP3    H2 5806   4.037   3.658   5.016
 1948TIP3   OH2 5807   4.519   6.510   0.660
 1948TIP3    H1 5808   4.443   6.454   0.673
 1948TIP3    H2 5809   4.525   6.561   0.741
 1949TIP3   OH2 5810   2.856   2.277   4.936
 1949TIP3    H1 5811   2.881   2.202   4.989
 1949TIP3    H2 5812   2.787   2.320   4.987
 1950TIP3   OH2 5813   0.515   3.145   3.547
 1950TIP3    H1 5814   0.442   3.110   3.496
 1950TIP3    H2 5815   0.572   3.069   3.562
 1951TIP3   OH2 5816   0.565   2.672   2.669
 1951TIP3    H1 5817   0.543   2.593   2.718
 1951TIP3    H2 5818   0.588   2.737   2.736
 1952TIP3   OH2 5819   5.439   3.772   2.137
 1952TIP3    H1 5820   5.513   3.730   2.181
 1952TIP3    H2 5821   5.364   3.755   2.194
 1953TIP3   OH2 5822   5.678   3.490   4.579
 1953TIP3    H1 5823   5.730   3.563   4.610
 1953TIP3    H2 5824   5.603   3.530   4.534
 1954TIP3   OH2 5825   7.106   5.213   5.184
 1954TIP3    H1 5826   7.058   5.146   5.233
 1954TIP3    H2 5827   7.192   5.174   5.168
 1955TIP3   OH2 5828   2.759   2.775   2.777
 1955TIP3    H1 5829   2.689   2.733   2.828
 1955TIP3    H2 5830   2.716   2.804   2.697
 1956TIP3   OH2 5831   6.227   4.500   3.729
 1956TIP3    H1 5832   6.167   4.445   3.679
 1956TIP3    H2 5833   6.273   4.438   3.786
 1957TIP3   OH2 5834   1.734   2.206   0.574
 1957TIP3    H1 5835   1.758   2.160   0.493
 1957TIP3    H2 5836   1.671   2.272   0.546
 1958TIP3   OH2 5837   0.836   6.106   2.130
 1958TIP3    H1 5838   0.810   6.195   2.107
 1958TIP3    H2 5839   0.925   6.097   2.097
 1959TIP3   OH2 5840   1.606   1.882   1.775
 1959TIP3    H1 5841   1.515   1.853   1.765
 1959TIP3    H2 5842   1.614   1.902   1.869
 1960TIP3   OH2 5843   0.105   1.203   3.634
 1960TIP3    H1 5844   0.106   1.251   3.551
 1960TIP3    H2 5845   0.014   1.173   3.642
 1961TIP3   OH2 5846   5.113   4.635   3.858
 1961TIP3    H1 5847   5.063   4.711   3.829
 1961TIP3    H2 5848   5.174   4.669   3.923
 1962TIP3   OH2 5849   3.062   0.934   4.385
 1962TIP3    H1 5850   3.143   0.884   4.375
 1962TIP3    H2 5851   3.022   0.899   4.465
 1963TIP3   OH2 5852   4.081   3.177   4.099
 1963TIP3    H1 5853   4.136   3.125   4.157
 1963TIP3    H2 5854   4.021   3.223   4.157
 1964TIP3   OH2 5855   6.919   0.847   5.840
 1964TIP3    H1 5856   6.996   0.903   5.833
 1964TIP3    H2 5857   6.933   0.778   5.775
 1965TIP3   OH2 5858   2.255   4.257   1.583
 1965TIP3    H1 5859   2.348   4.241   1.565
 1965TIP3    H2 5860   2.226   4.314   1.512
 1966TIP3   OH2 5861   1.160   2.164   5.356
 1966TIP3    H1 5862   1.160   2.132   5.266
 1966TIP3    H2 5863   1.124   2.253   5.350
 1967TIP3   OH2 5864   1.790   2.393   1.249
 1967TIP3    H1 5865   1.735   2.384   1.171
 1967TIP3    H2 5866   1.729   2.421   1.318
 1968TIP3   OH2 5867   5.948   1.809   5.344
 1968TIP3    H1 5868   5.909   1.895   5.329
 1968TIP3    H2 5869   6.042   1.826   5.347
 1969TIP3   OH2 5870   2.011   4.359   4.579
 1969TIP3    H1 5871   1.924   4.387   4.549
 1969TIP3    H2 5872   2.065   4.362   4.500
 1970TIP3   OH2 5873   5.082   5.867   4.285
 1970TIP3    H1 5874   5.081   5.774   4.309
 1970TIP3    H2 5875   5.001   5.902   4.322
 1971TIP3   OH2 5876   3.125   0.387   3.964
 1971TIP3    H1 5877   3.051   0.349   4.012
 1971TIP3    H2 5878   3.141   0.326   3.893
 1972TIP3   OH2 5879   1.928   2.993   2.069
 1972TIP3    H1 5880   1.980   3.040   2.134
 1972TIP3    H2 5881   1.839   2.996   2.102
 1973TIP3   OH2 5882   2.237   4.713   2.883
 1973TIP3    H1 5883   2.322   4.669   2.893
 1973TIP3    H2 5884   2.246   4.793   2.935
 1974TIP3   OH2 5885   6.876   1.628   1.707
 1974TIP3    H1 5886   6.906   1.706   1.754
 1974TIP3    H2 5887   6.928   1.556   1.744
 1975TIP3   OH2 5888   2.445   4.844   0.360
 1975TIP3    H1 5889   2.426   4.798   0.441
 1975TIP3    H2 5890   2.448   4.936   0.384
 1976TIP3   OH2 5891   4.948   0.896   2.434
 1976TIP3    H1 5892   5.035   0.866   2.406
 1976TIP3    H2 5893   4.888   0.828   2.402
 1977TIP3   OH2 5894   4.961   0.029   5.253
 1977TIP3    H1 5895   4.898   0.099   5.266
 1977TIP3    H2 5896   5.011   0.055   5.176
 1978TIP3   OH2 5897   3.935   3.623   1.897
 1978TIP3    H1 5898   3.898   3.565   1.830
 1978TIP3    H2 5899   3.860   3.645   1.953
 1979TIP3   OH2 5900   0.768   4.052   3.073
 1979TIP3    H1 5901   0.687   4.093   3.105
 1979TIP3    H2 5902   0.771   3.968   3.118
 1980TIP3   OH2 5903   0.322   1.429   1.782
 1980TIP3    H1 5904   0.315   1.352   1.838
 1980TIP3    H2 5905   0.238   1.474   1.794
 1981TIP3   OH2 5906   0.944   2.474   2.731
 1981TIP3    H1 5907   1.037   2.490   2.716
 1981TIP3    H2 5908   0.901   2.509   2.654
 1982TIP3   OH2 5909   4.741   0.580   2.045
 1982TIP3    H1 5910   4.745   0.506   2.105
 1982TIP3    H2 5911   4.668   0.559   1.987
 1983TIP3   OH2 5912   6.762   5.723   5.120
 1983TIP3    H1 5913   6.779   5.781   5.045
 1983TIP3    H2 5914   6.785   5.635   5.087
 1984TIP3   OH2 5915   5.783   3.906   2.376
 1984TIP3    H1 5916   5.816   3.823   2.410
 1984TIP3    H2 5917   5.708   3.882   2.323
 1985TIP3   OH2 5918   6.559   2.858   4.164
 1985TIP3    H1 5919   6.486   2.918   4.175
 1985TIP3    H2 5920   6.595   2.848   4.252
 1986TIP3   OH2 5921   0.083   1.922   4.544
 1986TIP3    H1 5922   0.009   1.977   4.517
 1986TIP3    H2 5923   0.114   1.962   4.625
 1987TIP3   OH2 5924   4.852   3.864   2.416
 1987TIP3    H1 5925   4.777   3.924   2.418
 1987TIP3    H2 5926   4.816   3.781   2.384
 1988TIP3   OH2 5927   2.468   0.299   2.648
 1988TIP3    H1 5928   2.406   0.359   2.607
 1988TIP3    H2 5929   2.508   0.351   2.718
 1989TIP3   OH2 5930   3.225   6.100   2.519
 1989TIP3    H1 5931   3.309   6.104   2.472
 1989TIP3    H2 5932   3.250   6.096   2.611
 1990TIP3   OH2 5933   5.500   5.104   1.436
 1990TIP3    H1 5934   5.552   5.156   1.375
 1990TIP3    H2 5935   5.535   5.015   1.427
 1991TIP3   OH2 5936   2.584   5.472   5.468
 1991TIP3    H1 5937   2.527   5.496   5.394
 1991TIP3    H2 5938   2.545   5.515   5.544
 1992TIP3   OH2 5939   3.255   4.888   0.746
 1992TIP3    H1 5940   3.342   4.924   0.728
 1992TIP3    H2 5941   3.203   4.915   0.671
 1993TIP3   OH2 5942   7.072   3.204   2.381
 1993TIP3    H1 5943   7.111   3.129   2.336
 1993TIP3    H2 5944   7.142   3.237   2.438
 1994TIP3   OH2 5945   5.463   0.093   3.474
 1994TIP3    H1 5946   5.541   0.081   3.528
 1994TIP3    H2 5947   5.496   0.123   3.389
 1995TIP3   OH2 5948   5.470   5.727   4.270
 1995TIP3    H1 5949   5.514   5.722   4.355
 1995TIP3    H2 5950   5.425   5.643   4.262
 1996TIP3   OH2 5951   3.147   5.886   4.274
 1996TIP3    H1 5952   3.137   5.980   4.289
 1996TIP3    H2 5953   3.057   5.853   4.274
 1997TIP3   OH2 5954   0.803   1.577   1.069
 1997TIP3    H1 5955   0.820   1.625   1.150
 1997TIP3    H2 5956   0.772   1.643   1.007
 1998TIP3   OH2 5957   0.769   0.741   4.560
 1998TIP3    H1 5958   0.807   0.700   4.482
 1998TIP3    H2 5959   0.825   0.817   4.576
 1999TIP3   OH2 5960   2.901   3.409   1.970
 1999TIP3    H1 5961   2.829   3.416   2.033
 1999TIP3    H2 5962   2.972   3.368   2.019
 2000TIP3   OH2 5963   2.675   5.207   3.045
 2000TIP3    H1 5964   2.698   5.135   3.103
 2000TIP3    H2 5965   2.621   5.265   3.099
 2001TIP3   OH2 5966   0.992   1.748   3.178
 2001TIP3    H1 5967   1.062   1.801   3.214
 2001TIP3    H2 5968   0.932   1.734   3.251
 2002TIP3   OH2 5969   3.392   1.395  -0.007
 2002TIP3    H1 5970   3.419   1.346  -0.085
 2002TIP3    H2 5971   3.418   1.339   0.066
 2003TIP3   OH2 5972   2.439   4.875   3.979
 2003TIP3    H1 5973   2.483   4.941   3.926
 2003TIP3    H2 5974   2.468   4.893   4.069
 2004TIP3   OH2 5975   4.911   1.263   1.051
 2004TIP3    H1 5976   4.844   1.198   1.034
 2004TIP3    H2 5977   4.896   1.290   1.142
 2005TIP3   OH2 5978   6.508   1.207   2.337
 2005TIP3    H1 5979   6.455   1.274   2.294
 2005TIP3    H2 5980   6.549   1.160   2.264
 2006TIP3   OH2 5981   6.598   4.392   3.256
 2006TIP3    H1 5982   6.674   4.445   3.281
 2006TIP3    H2 5983   6.523   4.437   3.297
 2007TIP3   OH2 5984   6.118   2.466   1.039
 2007TIP3    H1 5985   6.140   2.482   1.131
 2007TIP3    H2 5986   6.092   2.374   1.036
 2008TIP3   OH2 5987   5.415   5.502   4.606
 2008TIP3    H1 5988   5.435   5.496   4.513
 2008TIP3    H2 5989   5.351   5.432   4.621
 2009TIP3   OH2 5990   5.211   6.485   3.394
 2009TIP3    H1 5991   5.222   6.572   3.433
 2009TIP3    H2 5992   5.297   6.464   3.359
 2010TIP3   OH2 5993   5.233   1.333   4.309
 2010TIP3    H1 5994   5.197   1.244   4.318
 2010TIP3    H2 5995   5.157   1.387   4.288
 2011TIP3   OH2 5996   5.847   0.362   4.186
 2011TIP3    H1 5997   5.916   0.370   4.252
 2011TIP3    H2 5998   5.890   0.385   4.104
 2012TIP3   OH2 5999   1.182   1.082   2.799
 2012TIP3    H1 6000   1.123   1.065   2.725
 2012TIP3    H2 6001   1.269   1.084   2.760
 2013TIP3   OH2 6002   2.283   3.756   3.530
 2013TIP3    H1 6003   2.349   3.768   3.598
 2013TIP3    H2 6004   2.222   3.691   3.566
 2014TIP3   OH2 6005   2.136   0.823   1.347
 2014TIP3    H1 6006   2.111   0.849   1.258
 2014TIP3    H2 6007   2.189   0.744   1.335
 2015TIP3   OH2 6008   0.646   1.315   1.026
 2015TIP3    H1 6009   0.575   1.292   0.966
 2015TIP3    H2 6010   0.660   1.408   1.012
 2016TIP3   OH2 6011   1.103   6.778   3.390
 2016TIP3    H1 6012   1.070   6.717   3.324
 2016TIP3    H2 6013   1.147   6.723   3.455
 2017TIP3   OH2 6014   0.777   1.955   3.820
 2017TIP3    H1 6015   0.831   1.935   3.744
 2017TIP3    H2 6016   0.808   1.895   3.888
 2018TIP3   OH2 6017   0.533   3.393   1.579
 2018TIP3    H1 6018   0.462   3.455   1.596
 2018TIP3    H2 6019   0.490   3.308   1.575
 2019TIP3   OH2 6020   3.189   6.083  -0.014
 2019TIP3    H1 6021   3.284   6.080  -0.022
 2019TIP3    H2 6022   3.174   6.122   0.072
 2020TIP3   OH2 6023   2.908   4.882   2.909
 2020TIP3    H1 6024   2.880   4.960   2.861
 2020TIP3    H2 6025   2.972   4.840   2.851
 2021TIP3   OH2 6026   6.087   4.730   1.025
 2021TIP3    H1 6027   6.033   4.801   0.991
 2021TIP3    H2 6028   6.119   4.762   1.109
 2022TIP3   OH2 6029   5.424   5.846   5.764
 2022TIP3    H1 6030   5.351   5.822   5.823
 2022TIP3    H2 6031   5.416   5.786   5.690
 2023TIP3   OH2 6032   2.864   0.319   2.873
 2023TIP3    H1 6033   2.944   0.363   2.901
 2023TIP3    H2 6034   2.885   0.225   2.877
 2024TIP3   OH2 6035   5.003   1.142   5.623
 2024TIP3    H1 6036   5.005   1.118   5.530
 2024TIP3    H2 6037   5.076   1.205   5.632
 2025TIP3   OH2 6038   0.561   3.278   4.066
 2025TIP3    H1 6039   0.610   3.358   4.089
 2025TIP3    H2 6040   0.569   3.272   3.971
 2026TIP3   OH2 6041   4.329   1.144   3.085
 2026TIP3    H1 6042   4.403   1.085   3.069
 2026TIP3    H2 6043   4.294   1.163   2.998
 2027TIP3   OH2 6044   2.294   3.152   2.309
 2027TIP3    H1 6045   2.278   3.184   2.221
 2027TIP3    H2 6046   2.272   3.059   2.306
 2028TIP3   OH2 6047   5.645   6.193   3.881
 2028TIP3    H1 6048   5.603   6.146   3.953
 2028TIP3    H2 6049   5.695   6.126   3.835
 2029TIP3   OH2 6050   6.427   4.943   2.020
 2029TIP3    H1 6051   6.337   4.974   2.009
 2029TIP3    H2 6052   6.480   5.020   2.001
 2030TIP3   OH2 6053   1.846   1.226   0.059
 2030TIP3    H1 6054   1.782   1.286   0.020
 2030TIP3    H2 6055   1.793   1.167   0.114
 2031TIP3   OH2 6056   6.637   2.712   1.439
 2031TIP3    H1 6057   6.563   2.653   1.458
 2031TIP3    H2 6058   6.664   2.688   1.350
 2032TIP3   OH2 6059   6.031   3.823   0.368
 2032TIP3    H1 6060   5.978   3.754   0.409
 2032TIP3    H2 6061   6.000   3.904   0.410
 2033TIP3   OH2 6062   5.863   2.909   0.895
 2033TIP3    H1 6063   5.922   2.898   0.970
 2033TIP3    H2 6064   5.922   2.919   0.820
 2034TIP3   OH2 6065   1.783   3.798   3.484
 2034TIP3    H1 6066   1.808   3.731   3.548
 2034TIP3    H2 6067   1.845   3.787   3.412
 2035TIP3   OH2 6068   0.926   2.342   4.331
 2035TIP3    H1 6069   0.901   2.295   4.410
 2035TIP3    H2 6070   0.856   2.405   4.316
 2036TIP3   OH2 6071   7.207   0.054   1.393
 2036TIP3    H1 6072   7.287   0.009   1.420
 2036TIP3    H2 6073   7.138   0.011   1.444
 2037TIP3   OH2 6074   5.830   5.900   0.196
 2037TIP3    H1 6075   5.747   5.863   0.225
 2037TIP3    H2 6076   5.894   5.830   0.212
 2038TIP3   OH2 6077   1.303   5.375   2.039
 2038TIP3    H1 6078   1.290   5.312   2.110
 2038TIP3    H2 6079   1.327   5.322   1.963
 2039TIP3   OH2 6080   7.114   3.117   5.514
 2039TIP3    H1 6081   7.135   3.188   5.575
 2039TIP3    H2 6082   7.082   3.047   5.569
 2040TIP3   OH2 6083   0.201   2.696   1.097
 2040TIP3    H1 6084   0.255   2.692   1.177
 2040TIP3    H2 6085   0.223   2.616   1.050
 2041TIP3   OH2 6086   0.317   4.005   5.165
 2041TIP3    H1 6087   0.284   4.077   5.219
 2041TIP3    H2 6088   0.385   4.046   5.111
 2042TIP3   OH2 6089   1.817   6.267   2.604
 2042TIP3    H1 6090   1.785   6.262   2.514
 2042TIP3    H2 6091   1.739   6.255   2.658
 2043TIP3   OH2 6092   6.700   1.739   3.227
 2043TIP3    H1 6093   6.723   1.730   3.320
 2043TIP3    H2 6094   6.784   1.740   3.182
 2044TIP3   OH2 6095   3.965   0.787   1.523
 2044TIP3    H1 6096   3.884   0.839   1.526
 2044TIP3    H2 6097   3.998   0.789   1.613
 2045TIP3   OH2 6098   1.516   4.883   0.715
 2045TIP3    H1 6099   1.429   4.875   0.676
 2045TIP3    H2 6100   1.524   4.806   0.771
 2046TIP3   OH2 6101   5.294   5.118   1.018
 2046TIP3    H1 6102   5.253   5.165   0.945
 2046TIP3    H2 6103   5.354   5.181   1.057
 2047TIP3   OH2 6104   4.349   1.966   4.199
 2047TIP3    H1 6105   4.272   1.911   4.184
 2047TIP3    H2 6106   4.396   1.965   4.116
 2048TIP3   OH2 6107   2.103   1.735   3.364
 2048TIP3    H1 6108   2.166   1.664   3.355
 2048TIP3    H2 6109   2.103   1.755   3.458
 2049TIP3   OH2 6110   6.267   4.503   4.223
 2049TIP3    H1 6111   6.187   4.454   4.204
 2049TIP3    H2 6112   6.325   4.439   4.265
 2050TIP3   OH2 6113   6.999   3.062   4.393
 2050TIP3    H1 6114   6.997   2.966   4.388
 2050TIP3    H2 6115   6.909   3.088   4.372
 2051TIP3   OH2 6116   1.320   0.111   3.380
 2051TIP3    H1 6117   1.266   0.188   3.396
 2051TIP3    H2 6118   1.397   0.124   3.435
 2052TIP3   OH2 6119   4.621   4.111   0.760
 2052TIP3    H1 6120   4.684   4.052   0.719
 2052TIP3    H2 6121   4.665   4.196   0.761
 2053TIP3   OH2 6122   7.241   6.162   3.217
 2053TIP3    H1 6123   7.147   6.150   3.204
 2053TIP3    H2 6124   7.248   6.220   3.292
 2054TIP3   OH2 6125   5.076   0.245   3.767
 2054TIP3    H1 6126   5.086   0.253   3.672
 2054TIP3    H2 6127   5.025   0.165   3.779
 2055TIP3   OH2 6128   6.505   5.461   5.395
 2055TIP3    H1 6129   6.497   5.463   5.490
 2055TIP3    H2 6130   6.545   5.545   5.373
 2056TIP3   OH2 6131   2.209   6.569   3.033
 2056TIP3    H1 6132   2.164   6.490   3.006
 2056TIP3    H2 6133   2.252   6.545   3.116
 2057TIP3   OH2 6134   5.526   5.795   0.006
 2057TIP3    H1 6135   5.449   5.848   0.029
 2057TIP3    H2 6136   5.523   5.721   0.066
 2058TIP3   OH2 6137   5.853   0.607   4.918
 2058TIP3    H1 6138   5.946   0.629   4.931
 2058TIP3    H2 6139   5.825   0.665   4.848
 2059TIP3   OH2 6140   0.635   5.542   2.482
 2059TIP3    H1 6141   0.584   5.563   2.404
 2059TIP3    H2 6142   0.646   5.626   2.527
 2060TIP3   OH2 6143   3.676   4.018   2.880
 2060TIP3    H1 6144   3.593   4.045   2.920
 2060TIP3    H2 6145   3.652   3.987   2.792
 2061TIP3   OH2 6146   5.115   1.701   5.014
 2061TIP3    H1 6147   5.119   1.615   4.973
 2061TIP3    H2 6148   5.136   1.685   5.106
 2062TIP3   OH2 6149  -0.030   4.851   0.637
 2062TIP3    H1 6150   0.003   4.922   0.692
 2062TIP3    H2 6151  -0.017   4.772   0.690
 2063TIP3   OH2 6152   0.411   1.793   4.612
 2063TIP3    H1 6153   0.364   1.781   4.529
 2063TIP3    H2 6154   0.347   1.767   4.679
 2064TIP3   OH2 6155   1.389   0.971   1.281
 2064TIP3    H1 6156   1.351   0.908   1.220
 2064TIP3    H2 6157   1.313   1.013   1.321
 2065TIP3   OH2 6158   0.773   4.682   0.658
 2065TIP3    H1 6159   0.741   4.616   0.720
 2065TIP3    H2 6160   0.710   4.753   0.664
 2066TIP3   OH2 6161   2.403   2.327   4.069
 2066TIP3    H1 6162   2.459   2.305   4.143
 2066TIP3    H2 6163   2.386   2.421   4.079
 2067TIP3   OH2 6164   6.689   1.013   2.489
 2067TIP3    H1 6165   6.608   1.063   2.499
 2067TIP3    H2 6166   6.700   1.004   2.394
 2068TIP3   OH2 6167   3.727   2.232   1.037
 2068TIP3    H1 6168   3.767   2.319   1.044
 2068TIP3    H2 6169   3.788   2.174   1.082
 2069TIP3   OH2 6170   6.971   1.806   1.459
 2069TIP3    H1 6171   6.975   1.859   1.539
 2069TIP3    H2 6172   6.920   1.859   1.398
 2070TIP3   OH2 6173   0.961   2.062   1.625
 2070TIP3    H1 6174   0.905   2.102   1.558
 2070TIP3    H2 6175   1.050   2.069   1.591
 2071TIP3   OH2 6176   4.882   2.581   0.598
 2071TIP3    H1 6177   4.894   2.486   0.587
 2071TIP3    H2 6178   4.845   2.611   0.515
 2072TIP3   OH2 6179   6.866   6.456   0.047
 2072TIP3    H1 6180   6.897   6.511  -0.026
 2072TIP3    H2 6181   6.828   6.380   0.004
 2073TIP3   OH2 6182   7.018   2.147   3.444
 2073TIP3    H1 6183   7.058   2.233   3.430
 2073TIP3    H2 6184   6.924   2.166   3.448
 2074TIP3   OH2 6185   1.465   3.187   1.657
 2074TIP3    H1 6186   1.536   3.155   1.713
 2074TIP3    H2 6187   1.478   3.281   1.653
 2075TIP3   OH2 6188   1.500   2.199   1.873
 2075TIP3    H1 6189   1.449   2.280   1.878
 2075TIP3    H2 6190   1.470   2.147   1.948
 2076TIP3   OH2 6191   0.011   2.082   5.129
 2076TIP3    H1 6192   0.090   2.106   5.080
 2076TIP3    H2 6193  -0.036   2.165   5.140
 2077TIP3   OH2 6194   0.109   4.483   4.826
 2077TIP3    H1 6195   0.139   4.425   4.756
 2077TIP3    H2 6196   0.048   4.429   4.877
 2078TIP3   OH2 6197   6.377   1.321   3.388
 2078TIP3    H1 6198   6.370   1.257   3.459
 2078TIP3    H2 6199   6.294   1.368   3.390
 2079TIP3   OH2 6200   2.514   2.615   1.750
 2079TIP3    H1 6201   2.419   2.605   1.754
 2079TIP3    H2 6202   2.538   2.650   1.836
 2080TIP3   OH2 6203   5.975   6.836   5.369
 2080TIP3    H1 6204   6.020   6.770   5.421
 2080TIP3    H2 6205   5.888   6.800   5.353
 2081TIP3   OH2 6206   6.559   4.491   5.002
 2081TIP3    H1 6207   6.562   4.469   5.095
 2081TIP3    H2 6208   6.475   4.458   4.972
 2082TIP3   OH2 6209   3.103   0.907   0.531
 2082TIP3    H1 6210   3.193   0.906   0.498
 2082TIP3    H2 6211   3.104   0.847   0.605
 2083TIP3   OH2 6212   3.680   1.495   4.580
 2083TIP3    H1 6213   3.670   1.529   4.491
 2083TIP3    H2 6214   3.604   1.439   4.592
 2084TIP3   OH2 6215   6.031   3.751   4.342
 2084TIP3    H1 6216   6.120   3.784   4.353
 2084TIP3    H2 6217   5.982   3.791   4.414
 2085TIP3   OH2 6218   3.482   0.929   0.108
 2085TIP3    H1 6219   3.419   0.964   0.045
 2085TIP3    H2 6220   3.520   1.006   0.149
 2086TIP3   OH2 6221   4.076   0.162   5.525
 2086TIP3    H1 6222   4.116   0.119   5.601
 2086TIP3    H2 6223   4.137   0.144   5.453
 2087TIP3   OH2 6224   6.377   4.508   3.379
 2087TIP3    H1 6225   6.349   4.579   3.320
 2087TIP3    H2 6226   6.379   4.548   3.466
 2088TIP3   OH2 6227   7.147   2.429   3.265
 2088TIP3    H1 6228   7.106   2.500   3.214
 2088TIP3    H2 6229   7.162   2.360   3.201
 2089TIP3   OH2 6230   5.532   5.557   2.002
 2089TIP3    H1 6231   5.479   5.614   2.058
 2089TIP3    H2 6232   5.496   5.470   2.017
 2090TIP3   OH2 6233   0.648   1.662   4.991
 2090TIP3    H1 6234   0.580   1.642   5.056
 2090TIP3    H2 6235   0.644   1.589   4.929
 2091TIP3   OH2 6236   5.482   3.120   1.811
 2091TIP3    H1 6237   5.502   3.146   1.901
 2091TIP3    H2 6238   5.404   3.171   1.788
 2092TIP3   OH2 6239   5.404   1.726   0.607
 2092TIP3    H1 6240   5.427   1.648   0.556
 2092TIP3    H2 6241   5.441   1.709   0.694
 2093TIP3   OH2 6242   1.163   4.730   3.246
 2093TIP3    H1 6243   1.209   4.698   3.168
 2093TIP3    H2 6244   1.071   4.713   3.227
 2094TIP3   OH2 6245   3.269   1.751   5.426
 2094TIP3    H1 6246   3.292   1.740   5.518
 2094TIP3    H2 6247   3.350   1.780   5.384
 2095TIP3   OH2 6248   4.641   4.863   5.700
 2095TIP3    H1 6249   4.640   4.870   5.796
 2095TIP3    H2 6250   4.550   4.876   5.674
 2096TIP3   OH2 6251   4.199   5.387   4.540
 2096TIP3    H1 6252   4.145   5.332   4.484
 2096TIP3    H2 6253   4.168   5.476   4.524
 2097TIP3   OH2 6254   3.431   6.581   4.083
 2097TIP3    H1 6255   3.457   6.662   4.040
 2097TIP3    H2 6256   3.369   6.541   4.022
 2098TIP3   OH2 6257   5.653   6.498   4.888
 2098TIP3    H1 6258   5.563   6.489   4.859
 2098TIP3    H2 6259   5.647   6.526   4.979
 2099TIP3   OH2 6260   3.064   5.581   3.762
 2099TIP3    H1 6261   3.113   5.658   3.733
 2099TIP3    H2 6262   3.033   5.604   3.850
 2100TIP3   OH2 6263   2.130   6.110   2.586
 2100TIP3    H1 6264   2.056   6.076   2.636
 2100TIP3    H2 6265   2.174   6.032   2.552
 2101TIP3   OH2 6266   2.222   6.649   0.328
 2101TIP3    H1 6267   2.250   6.690   0.410
 2101TIP3    H2 6268   2.196   6.722   0.271
 2102TIP3   OH2 6269   6.710   3.741   3.370
 2102TIP3    H1 6270   6.761   3.674   3.324
 2102TIP3    H2 6271   6.727   3.725   3.463
 2103TIP3   OH2 6272   4.628   6.339   0.104
 2103TIP3    H1 6273   4.567   6.410   0.083
 2103TIP3    H2 6274   4.572   6.261   0.113
 2104TIP3   OH2 6275   6.452   5.943   0.346
 2104TIP3    H1 6276   6.494   5.865   0.311
 2104TIP3    H2 6277   6.524   6.002   0.366
 2105TIP3   OH2 6278   3.151   1.499   0.507
 2105TIP3    H1 6279   3.232   1.497   0.456
 2105TIP3    H2 6280   3.112   1.413   0.493
 2106TIP3   OH2 6281   1.738   2.793   5.429
 2106TIP3    H1 6282   1.775   2.729   5.367
 2106TIP3    H2 6283   1.744   2.876   5.383
 2107TIP3   OH2 6284   4.315   5.166   3.017
 2107TIP3    H1 6285   4.298   5.097   3.081
 2107TIP3    H2 6286   4.264   5.141   2.940
 2108TIP3   OH2 6287   2.545   3.285   0.729
 2108TIP3    H1 6288   2.463   3.237   0.718
 2108TIP3    H2 6289   2.587   3.281   0.643
 2109TIP3   OH2 6290   6.829   6.648   2.896
 2109TIP3    H1 6291   6.872   6.685   2.973
 2109TIP3    H2 6292   6.799   6.562   2.925
 2110TIP3   OH2 6293   6.533   4.376   0.260
 2110TIP3    H1 6294   6.446   4.337   0.250
 2110TIP3    H2 6295   6.572   4.328   0.333
 2111TIP3   OH2 6296   4.958   2.482   1.975
 2111TIP3    H1 6297   4.888   2.504   1.913
 2111TIP3    H2 6298   5.036   2.477   1.921
 2112TIP3   OH2 6299   1.375   5.846   3.647
 2112TIP3    H1 6300   1.392   5.804   3.563
 2112TIP3    H2 6301   1.316   5.919   3.626
 2113TIP3   OH2 6302   1.766   1.453   1.438
 2113TIP3    H1 6303   1.796   1.508   1.366
 2113TIP3    H2 6304   1.751   1.513   1.510
 2114TIP3   OH2 6305   6.620   2.964   2.564
 2114TIP3    H1 6306   6.627   2.889   2.623
 2114TIP3    H2 6307   6.704   2.968   2.519
 2115TIP3   OH2 6308   4.495   4.033   3.194
 2115TIP3    H1 6309   4.438   4.086   3.139
 2115TIP3    H2 6310   4.446   4.021   3.276
 2116TIP3   OH2 6311   1.609   4.642   1.810
 2116TIP3    H1 6312   1.638   4.675   1.895
 2116TIP3    H2 6313   1.540   4.703   1.784
 2117TIP3   OH2 6314   3.728   1.164   2.749
 2117TIP3    H1 6315   3.722   1.209   2.833
 2117TIP3    H2 6316   3.793   1.095   2.763
 2118TIP3   OH2 6317   6.881   6.240   5.892
 2118TIP3    H1 6318   6.826   6.292   5.833
 2118TIP3    H2 6319   6.962   6.225   5.843
 2119TIP3   OH2 6320   4.147   1.299   1.267
 2119TIP3    H1 6321   4.198   1.361   1.215
 2119TIP3    H2 6322   4.058   1.333   1.264
 2120TIP3   OH2 6323   2.472   4.905   4.264
 2120TIP3    H1 6324   2.512   4.874   4.346
 2120TIP3    H2 6325   2.380   4.880   4.272
 2121TIP3   OH2 6326   1.452   4.429   1.847
 2121TIP3    H1 6327   1.373   4.470   1.812
 2121TIP3    H2 6328   1.511   4.501   1.865
 2122TIP3   OH2 6329   4.432   3.442   1.563
 2122TIP3    H1 6330   4.378   3.406   1.493
 2122TIP3    H2 6331   4.422   3.537   1.555
 2123TIP3   OH2 6332   2.152   4.518   1.239
 2123TIP3    H1 6333   2.069   4.488   1.275
 2123TIP3    H2 6334   2.210   4.442   1.244
 2124TIP3   OH2 6335   1.108   4.754   5.667
 2124TIP3    H1 6336   1.047   4.822   5.695
 2124TIP3    H2 6337   1.068   4.716   5.589
 2125TIP3   OH2 6338   1.008   6.388   2.146
 2125TIP3    H1 6339   0.997   6.439   2.066
 2125TIP3    H2 6340   1.007   6.297   2.116
 2126TIP3   OH2 6341   2.066   3.628   0.235
 2126TIP3    H1 6342   2.029   3.713   0.259
 2126TIP3    H2 6343   2.072   3.631   0.139
 2127TIP3   OH2 6344   1.991   1.744   5.717
 2127TIP3    H1 6345   2.003   1.657   5.754
 2127TIP3    H2 6346   1.931   1.788   5.777
 2128TIP3   OH2 6347   2.219   1.799   1.519
 2128TIP3    H1 6348   2.183   1.821   1.605
 2128TIP3    H2 6349   2.268   1.718   1.534
 2129TIP3   OH2 6350   4.929   5.462   0.489
 2129TIP3    H1 6351   4.997   5.395   0.497
 2129TIP3    H2 6352   4.847   5.414   0.487
 2130TIP3   OH2 6353   1.396   5.262   1.389
 2130TIP3    H1 6354   1.459   5.211   1.440
 2130TIP3    H2 6355   1.315   5.256   1.439
 2131TIP3   OH2 6356   3.543   2.173   0.228
 2131TIP3    H1 6357   3.522   2.234   0.299
 2131TIP3    H2 6358   3.538   2.227   0.149
 2132TIP3   OH2 6359   3.403   0.730   0.731
 2132TIP3    H1 6360   3.440   0.790   0.796
 2132TIP3    H2 6361   3.336   0.782   0.685
 2133TIP3   OH2 6362   1.438   6.207   5.617
 2133TIP3    H1 6363   1.458   6.162   5.535
 2133TIP3    H2 6364   1.342   6.205   5.624
 2134TIP3   OH2 6365   3.597   4.186   1.205
 2134TIP3    H1 6366   3.616   4.196   1.298
 2134TIP3    H2 6367   3.526   4.247   1.188
 2135TIP3   OH2 6368   6.710   1.488   1.022
 2135TIP3    H1 6369   6.719   1.395   1.043
 2135TIP3    H2 6370   6.695   1.490   0.927
 2136TIP3   OH2 6371   5.868   0.468   3.356
 2136TIP3    H1 6372   5.807   0.400   3.383
 2136TIP3    H2 6373   5.826   0.508   3.279
 2137TIP3   OH2 6374   5.866   2.597   2.989
 2137TIP3    H1 6375   5.911   2.513   2.982
 2137TIP3    H2 6376   5.819   2.606   2.906
 2138TIP3   OH2 6377   2.131   6.150   1.227
 2138TIP3    H1 6378   2.183   6.230   1.222
 2138TIP3    H2 6379   2.129   6.118   1.137
 2139TIP3   OH2 6380   3.292   2.335   0.896
 2139TIP3    H1 6381   3.280   2.323   0.801
 2139TIP3    H2 6382   3.287   2.246   0.931
 2140TIP3   OH2 6383   3.315   3.594   5.552
 2140TIP3    H1 6384   3.321   3.689   5.560
 2140TIP3    H2 6385   3.222   3.575   5.552
 2141TIP3   OH2 6386   5.011   3.169   1.447
 2141TIP3    H1 6387   5.049   3.114   1.378
 2141TIP3    H2 6388   5.079   3.234   1.465
 2142TIP3   OH2 6389   4.397   6.647   4.822
 2142TIP3    H1 6390   4.313   6.691   4.835
 2142TIP3    H2 6391   4.451   6.711   4.775
 2143TIP3   OH2 6392   3.867   4.138   4.995
 2143TIP3    H1 6393   3.783   4.174   4.965
 2143TIP3    H2 6394   3.932   4.205   4.969
 2144TIP3   OH2 6395   1.067   3.588   1.414
 2144TIP3    H1 6396   1.094   3.678   1.435
 2144TIP3    H2 6397   1.088   3.538   1.493
 2145TIP3   OH2 6398   7.073   3.565   0.604
 2145TIP3    H1 6399   7.016   3.640   0.623
 2145TIP3    H2 6400   7.016   3.489   0.612
 2146TIP3   OH2 6401   5.076   6.830   5.713
 2146TIP3    H1 6402   5.029   6.770   5.771
 2146TIP3    H2 6403   5.142   6.776   5.670
 2147TIP3   OH2 6404   5.838   5.451   5.294
 2147TIP3    H1 6405   5.758   5.404   5.316
 2147TIP3    H2 6406   5.811   5.513   5.225
 2148TIP3   OH2 6407   6.554   4.649   2.757
 2148TIP3    H1 6408   6.496   4.702   2.812
 2148TIP3    H2 6409   6.641   4.686   2.771
 2149TIP3   OH2 6410   3.887   3.191   4.506
 2149TIP3    H1 6411   3.892   3.252   4.432
 2149TIP3    H2 6412   3.864   3.107   4.466
 2150TIP3   OH2 6413   1.514   5.585   3.850
 2150TIP3    H1 6414   1.578   5.646   3.887
 2150TIP3    H2 6415   1.469   5.635   3.782
 2151TIP3   OH2 6416   6.079   3.809   3.827
 2151TIP3    H1 6417   6.012   3.742   3.814
 2151TIP3    H2 6418   6.105   3.834   3.738
 2152TIP3   OH2 6419   4.018   5.722   1.897
 2152TIP3    H1 6420   4.013   5.692   1.988
 2152TIP3    H2 6421   4.078   5.797   1.900
 2153TIP3   OH2 6422   6.080   6.514   2.222
 2153TIP3    H1 6423   6.093   6.480   2.310
 2153TIP3    H2 6424   6.152   6.478   2.171
 2154TIP3   OH2 6425   3.202   6.709   5.477
 2154TIP3    H1 6426   3.126   6.716   5.534
 2154TIP3    H2 6427   3.171   6.659   5.401
 2155TIP3   OH2 6428   2.408   5.699   3.466
 2155TIP3    H1 6429   2.322   5.657   3.462
 2155TIP3    H2 6430   2.398   5.779   3.413
 2156TIP3   OH2 6431   6.594   1.809   4.124
 2156TIP3    H1 6432   6.551   1.851   4.049
 2156TIP3    H2 6433   6.590   1.875   4.193
 2157TIP3   OH2 6434   5.854   5.729   5.487
 2157TIP3    H1 6435   5.932   5.778   5.459
 2157TIP3    H2 6436   5.791   5.742   5.416
 2158TIP3   OH2 6437   5.295   5.710   2.709
 2158TIP3    H1 6438   5.299   5.615   2.722
 2158TIP3    H2 6439   5.275   5.745   2.796
 2159TIP3   OH2 6440   3.288   2.557   3.492
 2159TIP3    H1 6441   3.372   2.540   3.450
 2159TIP3    H2 6442   3.224   2.547   3.422
 2160TIP3   OH2 6443   1.834   0.970   4.715
 2160TIP3    H1 6444   1.760   0.909   4.718
 2160TIP3    H2 6445   1.797   1.051   4.679
 2161TIP3   OH2 6446   3.772   5.211   5.814
 2161TIP3    H1 6447   3.723   5.130   5.800
 2161TIP3    H2 6448   3.706   5.280   5.809
 2162TIP3   OH2 6449   1.456   0.508   1.255
 2162TIP3    H1 6450   1.493   0.564   1.323
 2162TIP3    H2 6451   1.492   0.422   1.272
 2163TIP3   OH2 6452   6.324   4.137   0.899
 2163TIP3    H1 6453   6.407   4.108   0.935
 2163TIP3    H2 6454   6.266   4.061   0.908
 2164TIP3   OH2 6455   3.766   3.778   5.693
 2164TIP3    H1 6456   3.851   3.792   5.652
 2164TIP3    H2 6457   3.703   3.819   5.634
 2165TIP3   OH2 6458   6.721   4.277   5.585
 2165TIP3    H1 6459   6.661   4.350   5.572
 2165TIP3    H2 6460   6.807   4.318   5.594
 2166TIP3   OH2 6461   3.770   3.088   1.640
 2166TIP3    H1 6462   3.751   2.994   1.638
 2166TIP3    H2 6463   3.833   3.101   1.569
 2167TIP3   OH2 6464   6.415   4.012   1.361
 2167TIP3    H1 6465   6.394   4.045   1.448
 2167TIP3    H2 6466   6.491   3.955   1.375
 2168TIP3   OH2 6467   3.563   0.967   0.905
 2168TIP3    H1 6468   3.561   0.977   1.000
 2168TIP3    H2 6469   3.654   0.982   0.882
 2169TIP3   OH2 6470   3.806   4.001   1.130
 2169TIP3    H1 6471   3.751   4.065   1.177
 2169TIP3    H2 6472   3.746   3.958   1.070
 2170TIP3   OH2 6473   1.045   4.188   1.167
 2170TIP3    H1 6474   1.042   4.243   1.089
 2170TIP3    H2 6475   0.989   4.233   1.230
 2171TIP3   OH2 6476   3.288   1.533   3.716
 2171TIP3    H1 6477   3.307   1.442   3.693
 2171TIP3    H2 6478   3.198   1.547   3.688
 2172TIP3   OH2 6479   4.809   3.257   4.315
 2172TIP3    H1 6480   4.759   3.326   4.273
 2172TIP3    H2 6481   4.754   3.180   4.310
 2173TIP3   OH2 6482   1.170   5.253   5.539
 2173TIP3    H1 6483   1.100   5.207   5.586
 2173TIP3    H2 6484   1.137   5.343   5.530
 2174TIP3   OH2 6485   1.330   5.128   3.022
 2174TIP3    H1 6486   1.362   5.084   2.943
 2174TIP3    H2 6487   1.256   5.074   3.051
 2175TIP3   OH2 6488   2.431   1.003   3.528
 2175TIP3    H1 6489   2.493   0.939   3.564
 2175TIP3    H2 6490   2.369   0.950   3.477
 2176TIP3   OH2 6491   3.212   1.082   5.614
 2176TIP3    H1 6492   3.133   1.102   5.664
 2176TIP3    H2 6493   3.236   1.165   5.573
 2177TIP3   OH2 6494   3.244   3.625   0.891
 2177TIP3    H1 6495   3.306   3.621   0.964
 2177TIP3    H2 6496   3.298   3.614   0.813
 2178TIP3   OH2 6497   5.993   5.013   2.412
 2178TIP3    H1 6498   5.919   5.072   2.421
 2178TIP3    H2 6499   5.976   4.942   2.474
 2179TIP3   OH2 6500   3.604   0.320   4.979
 2179TIP3    H1 6501   3.534   0.256   4.969
 2179TIP3    H2 6502   3.561   0.405   4.969
 2180TIP3   OH2 6503   2.466   1.307   5.786
 2180TIP3    H1 6504   2.466   1.246   5.712
 2180TIP3    H2 6505   2.480   1.393   5.747
 2181TIP3   OH2 6506   3.664   4.801   2.137
 2181TIP3    H1 6507   3.603   4.732   2.110
 2181TIP3    H2 6508   3.703   4.768   2.218
 2182TIP3   OH2 6509   4.841   1.037   3.424
 2182TIP3    H1 6510   4.805   0.969   3.368
 2182TIP3    H2 6511   4.884   0.990   3.495
 2183TIP3   OH2 6512   1.567   3.877   3.120
 2183TIP3    H1 6513   1.639   3.930   3.154
 2183TIP3    H2 6514   1.605   3.828   3.047
 2184TIP3   OH2 6515   3.342   4.241   4.269
 2184TIP3    H1 6516   3.262   4.242   4.216
 2184TIP3    H2 6517   3.401   4.181   4.223
 2185TIP3   OH2 6518   1.727   2.567   3.664
 2185TIP3    H1 6519   1.676   2.601   3.591
 2185TIP3    H2 6520   1.708   2.473   3.666
 2186TIP3   OH2 6521   6.953   4.204   3.013
 2186TIP3    H1 6522   6.948   4.297   3.033
 2186TIP3    H2 6523   7.010   4.200   2.935
 2187TIP3   OH2 6524   3.845   2.069   1.540
 2187TIP3    H1 6525   3.839   1.995   1.480
 2187TIP3    H2 6526   3.877   2.031   1.622
 2188TIP3   OH2 6527   2.097   2.365   0.050
 2188TIP3    H1 6528   2.053   2.366  -0.034
 2188TIP3    H2 6529   2.170   2.426   0.040
 2189TIP3   OH2 6530   1.410   2.336   5.080
 2189TIP3    H1 6531   1.467   2.411   5.060
 2189TIP3    H2 6532   1.322   2.368   5.065
 2190TIP3   OH2 6533   7.094   4.454   3.491
 2190TIP3    H1 6534   7.143   4.385   3.534
 2190TIP3    H2 6535   7.148   4.532   3.500
 2191TIP3   OH2 6536   4.377   6.674   1.108
 2191TIP3    H1 6537   4.453   6.620   1.129
 2191TIP3    H2 6538   4.305   6.632   1.156
 2192TIP3   OH2 6539   5.351   6.271   2.177
 2192TIP3    H1 6540   5.398   6.214   2.238
 2192TIP3    H2 6541   5.366   6.231   2.091
 2193TIP3   OH2 6542   5.830   0.267   2.008
 2193TIP3    H1 6543   5.819   0.325   1.932
 2193TIP3    H2 6544   5.920   0.235   2.001
 2194TIP3   OH2 6545   1.243   3.155   1.103
 2194TIP3    H1 6546   1.288   3.181   1.184
 2194TIP3    H2 6547   1.161   3.116   1.132
 2195TIP3   OH2 6548   0.083   1.763   3.430
 2195TIP3    H1 6549  -0.001   1.800   3.402
 2195TIP3    H2 6550   0.061   1.676   3.463
 2196TIP3   OH2 6551   5.511   0.778   2.769
 2196TIP3    H1 6552   5.545   0.773   2.859
 2196TIP3    H2 6553   5.590   0.785   2.715
 2197TIP3   OH2 6554   3.987   1.964   4.240
 2197TIP3    H1 6555   4.029   2.037   4.195
 2197TIP3    H2 6556   3.976   1.994   4.330
 2198TIP3   OH2 6557   6.773   4.768   1.350
 2198TIP3    H1 6558   6.681   4.757   1.375
 2198TIP3    H2 6559   6.815   4.805   1.428
 2199TIP3   OH2 6560   0.899   2.517   3.913
 2199TIP3    H1 6561   0.967   2.512   3.979
 2199TIP3    H2 6562   0.863   2.429   3.908
 2200TIP3   OH2 6563   0.618   1.475   4.790
 2200TIP3    H1 6564   0.692   1.481   4.729
 2200TIP3    H2 6565   0.541   1.467   4.733
 2201TIP3   OH2 6566   1.489   3.654   2.753
 2201TIP3    H1 6567   1.500   3.565   2.719
 2201TIP3    H2 6568   1.402   3.654   2.792
 2202TIP3   OH2 6569   4.502   5.682   0.457
 2202TIP3    H1 6570   4.538   5.595   0.474
 2202TIP3    H2 6571   4.411   5.665   0.432
 2203TIP3   OH2 6572   2.948   6.453   0.770
 2203TIP3    H1 6573   2.990   6.420   0.691
 2203TIP3    H2 6574   2.922   6.543   0.748
 2204TIP3   OH2 6575   5.024   0.473   3.447
 2204TIP3    H1 6576   5.070   0.396   3.480
 2204TIP3    H2 6577   4.948   0.438   3.401
 2205TIP3   OH2 6578   3.358   4.220   0.296
 2205TIP3    H1 6579   3.287   4.247   0.354
 2205TIP3    H2 6580   3.330   4.136   0.261
 2206TIP3   OH2 6581   1.166   6.442   3.316
 2206TIP3    H1 6582   1.081   6.398   3.314
 2206TIP3    H2 6583   1.227   6.374   3.341
 2207TIP3   OH2 6584   6.991   1.215   0.796
 2207TIP3    H1 6585   7.083   1.198   0.816
 2207TIP3    H2 6586   6.954   1.129   0.775
 2208TIP3   OH2 6587   6.012   6.220   4.444
 2208TIP3    H1 6588   5.950   6.151   4.418
 2208TIP3    H2 6589   6.096   6.192   4.406
 2209TIP3   OH2 6590   3.227   0.514   2.594
 2209TIP3    H1 6591   3.177   0.595   2.606
 2209TIP3    H2 6592   3.306   0.541   2.548
 2210TIP3   OH2 6593   5.100   3.682   3.579
 2210TIP3    H1 6594   5.188   3.698   3.546
 2210TIP3    H2 6595   5.108   3.689   3.674
 2211TIP3   OH2 6596   3.558   6.449   5.214
 2211TIP3    H1 6597   3.563   6.512   5.286
 2211TIP3    H2 6598   3.524   6.369   5.255
 2212TIP3   OH2 6599   0.343   4.663   5.839
 2212TIP3    H1 6600   0.250   4.681   5.851
 2212TIP3    H2 6601   0.373   4.630   5.924
 2213TIP3   OH2 6602   7.103   0.898   3.898
 2213TIP3    H1 6603   7.065   0.985   3.906
 2213TIP3    H2 6604   7.042   0.850   3.843
 2214TIP3   OH2 6605   2.249   0.316   4.595
 2214TIP3    H1 6606   2.272   0.325   4.503
 2214TIP3    H2 6607   2.269   0.401   4.633
 2215TIP3   OH2 6608   7.041   6.482   1.330
 2215TIP3    H1 6609   7.045   6.393   1.293
 2215TIP3    H2 6610   7.040   6.539   1.253
 2216TIP3   OH2 6611   2.228   4.856   0.059
 2216TIP3    H1 6612   2.299   4.793   0.050
 2216TIP3    H2 6613   2.267   4.940   0.036
 2217TIP3   OH2 6614   2.586   0.165   0.466
 2217TIP3    H1 6615   2.680   0.153   0.452
 2217TIP3    H2 6616   2.561   0.235   0.405
 2218TIP3   OH2 6617   6.471   4.019   3.809
 2218TIP3    H1 6618   6.418   3.999   3.887
 2218TIP3    H2 6619   6.486   3.934   3.768
 2219TIP3   OH2 6620   3.106   1.183   2.771
 2219TIP3    H1 6621   3.196   1.150   2.774
 2219TIP3    H2 6622   3.081   1.191   2.863
 2220TIP3   OH2 6623   3.586   1.932   0.309
 2220TIP3    H1 6624   3.600   1.937   0.404
 2220TIP3    H2 6625   3.586   2.023   0.280
 2221TIP3   OH2 6626   5.202   2.127   2.838
 2221TIP3    H1 6627   5.280   2.167   2.875
 2221TIP3    H2 6628   5.236   2.058   2.780
 2222TIP3   OH2 6629   6.882   5.979   5.231
 2222TIP3    H1 6630   6.860   5.886   5.222
 2222TIP3    H2 6631   6.832   6.008   5.307
 2223TIP3   OH2 6632   3.670   4.330   4.049
 2223TIP3    H1 6633   3.598   4.276   4.016
 2223TIP3    H2 6634   3.668   4.316   4.144
 2224TIP3   OH2 6635   3.268   2.523   1.577
 2224TIP3    H1 6636   3.350   2.549   1.618
 2224TIP3    H2 6637   3.274   2.428   1.569
 2225TIP3   OH2 6638   6.000   4.486   2.274
 2225TIP3    H1 6639   5.940   4.419   2.241
 2225TIP3    H2 6640   6.076   4.436   2.306
 2226TIP3   OH2 6641   4.967   6.209   2.228
 2226TIP3    H1 6642   5.007   6.221   2.314
 2226TIP3    H2 6643   4.955   6.297   2.193
 2227TIP3   OH2 6644   1.406   0.508   3.394
 2227TIP3    H1 6645   1.353   0.432   3.370
 2227TIP3    H2 6646   1.392   0.571   3.324
 2228TIP3   OH2 6647   6.240   5.501   4.112
 2228TIP3    H1 6648   6.205   5.525   4.026
 2228TIP3    H2 6649   6.266   5.409   4.103
 2229TIP3   OH2 6650   4.823   4.640   1.549
 2229TIP3    H1 6651   4.779   4.668   1.469
 2229TIP3    H2 6652   4.911   4.615   1.521
 2230TIP3   OH2 6653   3.626   4.579   3.655
 2230TIP3    H1 6654   3.546   4.542   3.694
 2230TIP3    H2 6655   3.697   4.530   3.696
 2231TIP3   OH2 6656   4.128   3.371   2.304
 2231TIP3    H1 6657   4.144   3.289   2.256
 2231TIP3    H2 6658   4.203   3.427   2.282
 2232TIP3   OH2 6659   6.765   0.654   2.595
 2232TIP3    H1 6660   6.712   0.720   2.549
 2232TIP3    H2 6661   6.852   0.694   2.602
 2233TIP3   OH2 6662   2.707   4.173   0.709
 2233TIP3    H1 6663   2.677   4.217   0.629
 2233TIP3    H2 6664   2.727   4.084   0.681
 2234TIP3   OH2 6665   5.532   2.761   1.028
 2234TIP3    H1 6666   5.438   2.770   1.014
 2234TIP3    H2 6667   5.542   2.749   1.123
 2235TIP3   OH2 6668   1.435   2.078   2.780
 2235TIP3    H1 6669   1.363   2.048   2.725
 2235TIP3    H2 6670   1.400   2.153   2.827
 2236TIP3   OH2 6671   5.635   0.126   3.697
 2236TIP3    H1 6672   5.559   0.130   3.756
 2236TIP3    H2 6673   5.704   0.087   3.750
 2237TIP3   OH2 6674   4.976   2.124   3.004
 2237TIP3    H1 6675   5.042   2.127   2.935
 2237TIP3    H2 6676   4.893   2.144   2.959
 2238TIP3   OH2 6677   3.485   3.813   0.844
 2238TIP3    H1 6678   3.478   3.830   0.938
 2238TIP3    H2 6679   3.568   3.854   0.819
 2239TIP3   OH2 6680   2.495   5.105   0.553
 2239TIP3    H1 6681   2.402   5.129   0.559
 2239TIP3    H2 6682   2.518   5.079   0.643
 2240TIP3   OH2 6683   6.503   5.767   4.438
 2240TIP3    H1 6684   6.498   5.721   4.354
 2240TIP3    H2 6685   6.591   5.804   4.439
 2241TIP3   OH2 6686   6.444   1.223   5.878
 2241TIP3    H1 6687   6.411   1.243   5.966
 2241TIP3    H2 6688   6.470   1.308   5.842
 2242TIP3   OH2 6689   2.762   4.216   2.458
 2242TIP3    H1 6690   2.739   4.123   2.449
 2242TIP3    H2 6691   2.752   4.252   2.370
 2243TIP3   OH2 6692   3.675   0.504   0.153
 2243TIP3    H1 6693   3.610   0.512   0.083
 2243TIP3    H2 6694   3.742   0.570   0.130
 2244TIP3   OH2 6695   0.367   3.032   3.863
 2244TIP3    H1 6696   0.301   3.034   3.932
 2244TIP3    H2 6697   0.330   3.084   3.792
 2245TIP3   OH2 6698   2.596  -0.001   0.987
 2245TIP3    H1 6699   2.671   0.031   0.937
 2245TIP3    H2 6700   2.524   0.059   0.964
 2246TIP3   OH2 6701   2.966   5.608   1.782
 2246TIP3    H1 6702   2.967   5.537   1.846
 2246TIP3    H2 6703   2.873   5.618   1.758
 2247TIP3   OH2 6704   3.952   3.757   5.352
 2247TIP3    H1 6705   3.929   3.841   5.313
 2247TIP3    H2 6706   3.907   3.692   5.298
 2248TIP3   OH2 6707   5.558   3.169   5.675
 2248TIP3    H1 6708   5.516   3.254   5.670
 2248TIP3    H2 6709   5.506   3.120   5.739
 2249TIP3   OH2 6710   0.174   5.574   5.788
 2249TIP3    H1 6711   0.221   5.658   5.787
 2249TIP3    H2 6712   0.226   5.517   5.731
 2250TIP3   OH2 6713   4.630   3.198   2.449
 2250TIP3    H1 6714   4.634   3.243   2.364
 2250TIP3    H2 6715   4.580   3.119   2.432
 2251TIP3   OH2 6716   0.932   1.836   0.774
 2251TIP3    H1 6717   1.012   1.796   0.741
 2251TIP3    H2 6718   0.863   1.802   0.718
 2252TIP3   OH2 6719   5.916   1.445   5.602
 2252TIP3    H1 6720   5.945   1.482   5.685
 2252TIP3    H2 6721   5.856   1.374   5.627
 2253TIP3   OH2 6722   2.937   1.116   0.718
 2253TIP3    H1 6723   2.948   1.106   0.812
 2253TIP3    H2 6724   2.958   1.029   0.682
 2254TIP3   OH2 6725   3.263   2.846   3.283
 2254TIP3    H1 6726   3.344   2.894   3.301
 2254TIP3    H2 6727   3.196   2.914   3.274
 2255TIP3   OH2 6728   6.726   2.377   3.945
 2255TIP3    H1 6729   6.662   2.432   3.899
 2255TIP3    H2 6730   6.797   2.365   3.883
 2256TIP3   OH2 6731   5.043   2.898   2.998
 2256TIP3    H1 6732   5.006   2.815   2.967
 2256TIP3    H2 6733   5.071   2.880   3.088
 2257TIP3   OH2 6734   4.381   2.449   3.255
 2257TIP3    H1 6735   4.422   2.532   3.230
 2257TIP3    H2 6736   4.396   2.444   3.350
 2258TIP3   OH2 6737   3.839   0.435   1.165
 2258TIP3    H1 6738   3.882   0.470   1.243
 2258TIP3    H2 6739   3.763   0.388   1.199
 2259TIP3   OH2 6740   3.205   4.437   3.348
 2259TIP3    H1 6741   3.207   4.341   3.352
 2259TIP3    H2 6742   3.251   4.464   3.428
 2260TIP3   OH2 6743   4.346   4.638   0.007
 2260TIP3    H1 6744   4.406   4.570   0.037
 2260TIP3    H2 6745   4.269   4.629   0.065
 2261TIP3   OH2 6746   0.876   4.823   2.861
 2261TIP3    H1 6747   0.798   4.829   2.916
 2261TIP3    H2 6748   0.913   4.737   2.881
 2262TIP3   OH2 6749   5.767   4.507   4.608
 2262TIP3    H1 6750   5.815   4.497   4.526
 2262TIP3    H2 6751   5.707   4.580   4.592
 2263TIP3   OH2 6752   3.368   5.321   3.405
 2263TIP3    H1 6753   3.324   5.303   3.488
 2263TIP3    H2 6754   3.311   5.281   3.339
 2264TIP3   OH2 6755   2.004   2.154   0.349
 2264TIP3    H1 6756   1.952   2.087   0.393
 2264TIP3    H2 6757   1.940   2.201   0.294
 2265TIP3   OH2 6758   5.724   3.896   4.397
 2265TIP3    H1 6759   5.633   3.867   4.401
 2265TIP3    H2 6760   5.724   3.980   4.441
 2266TIP3   OH2 6761   4.319   6.512   5.636
 2266TIP3    H1 6762   4.391   6.520   5.698
 2266TIP3    H2 6763   4.262   6.444   5.672
 2267TIP3   OH2 6764   2.241   2.730   1.670
 2267TIP3    H1 6765   2.237   2.669   1.596
 2267TIP3    H2 6766   2.175   2.697   1.732
 2268TIP3   OH2 6767   6.927   0.886   2.173
 2268TIP3    H1 6768   7.005   0.921   2.130
 2268TIP3    H2 6769   6.862   0.956   2.167
 2269TIP3   OH2 6770   6.026   3.964   5.772
 2269TIP3    H1 6771   5.968   3.888   5.761
 2269TIP3    H2 6772   5.974   4.038   5.740
 2270TIP3   OH2 6773   2.787   5.118   5.901
 2270TIP3    H1 6774   2.721   5.132   5.968
 2270TIP3    H2 6775   2.778   5.193   5.842
 2271TIP3   OH2 6776   0.497   5.233   1.707
 2271TIP3    H1 6777   0.403   5.254   1.706
 2271TIP3    H2 6778   0.513   5.195   1.621
 2272TIP3   OH2 6779   4.285   1.577   0.821
 2272TIP3    H1 6780   4.282   1.596   0.727
 2272TIP3    H2 6781   4.378   1.574   0.842
 2273TIP3   OH2 6782   3.988   4.643   0.660
 2273TIP3    H1 6783   3.951   4.634   0.747
 2273TIP3    H2 6784   4.070   4.593   0.663
 2274TIP3   OH2 6785   1.932   5.840   2.501
 2274TIP3    H1 6786   1.924   5.902   2.574
 2274TIP3    H2 6787   1.894   5.885   2.426
 2275TIP3   OH2 6788   1.933   0.493   2.844
 2275TIP3    H1 6789   1.956   0.404   2.869
 2275TIP3    H2 6790   1.906   0.535   2.925
 2276TIP3   OH2 6791   3.794   4.594   2.756
 2276TIP3    H1 6792   3.834   4.516   2.718
 2276TIP3    H2 6793   3.841   4.608   2.838
 2277TIP3   OH2 6794   5.726   0.445   1.201
 2277TIP3    H1 6795   5.699   0.523   1.249
 2277TIP3    H2 6796   5.646   0.414   1.158
 2278TIP3   OH2 6797   1.630   0.512   3.002
 2278TIP3    H1 6798   1.687   0.435   3.006
 2278TIP3    H2 6799   1.642   0.556   3.086
 2279TIP3   OH2 6800   4.152   1.841   5.323
 2279TIP3    H1 6801   4.093   1.790   5.268
 2279TIP3    H2 6802   4.207   1.776   5.366
 2280TIP3   OH2 6803   2.181   4.615   5.606
 2280TIP3    H1 6804   2.263   4.637   5.650
 2280TIP3    H2 6805   2.171   4.520   5.618
 2281TIP3   OH2 6806   5.134   5.625   3.318
 2281TIP3    H1 6807   5.224   5.593   3.310
 2281TIP3    H2 6808   5.101   5.586   3.399
 2282TIP3   OH2 6809   6.343   1.996   1.923
 2282TIP3    H1 6810   6.300   2.079   1.904
 2282TIP3    H2 6811   6.273   1.939   1.953
 2283TIP3   OH2 6812   0.591   0.862   5.532
 2283TIP3    H1 6813   0.583   0.904   5.446
 2283TIP3    H2 6814   0.597   0.769   5.513
 2284TIP3   OH2 6815   1.878   5.544   1.583
 2284TIP3    H1 6816   1.918   5.522   1.667
 2284TIP3    H2 6817   1.952   5.567   1.526
 2285TIP3   OH2 6818   7.000   4.396   5.733
 2285TIP3    H1 6819   7.038   4.362   5.814
 2285TIP3    H2 6820   6.977   4.487   5.754
 2286TIP3   OH2 6821   6.140   0.283   2.240
 2286TIP3    H1 6822   6.095   0.312   2.319
 2286TIP3    H2 6823   6.198   0.213   2.269
 2287TIP3   OH2 6824   3.475   5.501   2.526
 2287TIP3    H1 6825   3.520   5.559   2.588
 2287TIP3    H2 6826   3.502   5.532   2.440
 2288TIP3   OH2 6827   3.366   0.298   4.278
 2288TIP3    H1 6828   3.433   0.287   4.210
 2288TIP3    H2 6829   3.290   0.251   4.245
 2289TIP3   OH2 6830   1.466   3.857   2.585
 2289TIP3    H1 6831   1.378   3.879   2.617
 2289TIP3    H2 6832   1.479   3.767   2.613
 2290TIP3   OH2 6833   1.661   1.393  -0.016
 2290TIP3    H1 6834   1.622   1.427   0.065
 2290TIP3    H2 6835   1.727   1.458  -0.039
 2291TIP3   OH2 6836   2.756   3.191   4.053
 2291TIP3    H1 6837   2.807   3.240   3.988
 2291TIP3    H2 6838   2.797   3.104   4.055
 2292TIP3   OH2 6839   3.946   0.777   3.087
 2292TIP3    H1 6840   3.887   0.852   3.079
 2292TIP3    H2 6841   3.956   0.744   2.998
 2293TIP3   OH2 6842   4.684   2.361   4.402
 2293TIP3    H1 6843   4.588   2.368   4.410
 2293TIP3    H2 6844   4.702   2.377   4.309
 2294TIP3   OH2 6845   5.267   5.872   5.219
 2294TIP3    H1 6846   5.314   5.851   5.139
 2294TIP3    H2 6847   5.182   5.829   5.208
 2295TIP3   OH2 6848   3.528   2.442   4.259
 2295TIP3    H1 6849   3.617   2.472   4.241
 2295TIP3    H2 6850   3.472   2.505   4.214
 2296TIP3   OH2 6851   0.405   0.564   1.466
 2296TIP3    H1 6852   0.430   0.528   1.551
 2296TIP3    H2 6853   0.379   0.654   1.486
 2297TIP3   OH2 6854   4.664   5.499   2.903
 2297TIP3    H1 6855   4.612   5.523   2.980
 2297TIP3    H2 6856   4.610   5.524   2.829
 2298TIP3   OH2 6857   3.030   5.926   3.430
 2298TIP3    H1 6858   2.944   5.887   3.421
 2298TIP3    H2 6859   3.019   6.016   3.398
 2299TIP3   OH2 6860   6.798   3.394   3.658
 2299TIP3    H1 6861   6.830   3.475   3.618
 2299TIP3    H2 6862   6.855   3.382   3.735
 2300TIP3   OH2 6863   2.680   5.577   2.688
 2300TIP3    H1 6864   2.732   5.514   2.737
 2300TIP3    H2 6865   2.739   5.607   2.619
 2301TIP3   OH2 6866   0.096   3.112   1.570
 2301TIP3    H1 6867   0.056   3.091   1.655
 2301TIP3    H2 6868   0.078   3.035   1.516
 2302TIP3   OH2 6869   5.383   6.500   2.567
 2302TIP3    H1 6870   5.401   6.457   2.484
 2302TIP3    H2 6871   5.330   6.577   2.543
 2303TIP3   OH2 6872   2.894   5.394   3.358
 2303TIP3    H1 6873   2.898   5.343   3.439
 2303TIP3    H2 6874   2.982   5.433   3.351
 2304TIP3   OH2 6875   5.387   1.616   3.277
 2304TIP3    H1 6876   5.312   1.674   3.285
 2304TIP3    H2 6877   5.449   1.646   3.344
 2305TIP3   OH2 6878   5.937   6.542   2.622
 2305TIP3    H1 6879   5.863   6.579   2.573
 2305TIP3    H2 6880   5.996   6.508   2.554
 2306TIP3   OH2 6881   5.983   1.598   2.662
 2306TIP3    H1 6882   6.073   1.588   2.630
 2306TIP3    H2 6883   5.981   1.549   2.744
 2307TIP3   OH2 6884   1.464   3.568   5.427
 2307TIP3    H1 6885   1.495   3.596   5.340
 2307TIP3    H2 6886   1.372   3.595   5.428
 2308TIP3   OH2 6887   5.897   1.252   0.490
 2308TIP3    H1 6888   5.888   1.218   0.579
 2308TIP3    H2 6889   5.808   1.255   0.456
 2309TIP3   OH2 6890   4.675   5.366   0.404
 2309TIP3    H1 6891   4.611   5.306   0.366
 2309TIP3    H2 6892   4.706   5.419   0.331
 2310TIP3   OH2 6893   4.330   2.155   3.641
 2310TIP3    H1 6894   4.369   2.228   3.592
 2310TIP3    H2 6895   4.307   2.091   3.574
 2311TIP3   OH2 6896   4.745   5.313   2.712
 2311TIP3    H1 6897   4.686   5.372   2.761
 2311TIP3    H2 6898   4.822   5.367   2.693
 2312TIP3   OH2 6899   4.777   3.903   4.925
 2312TIP3    H1 6900   4.710   3.845   4.887
 2312TIP3    H2 6901   4.855   3.849   4.930
 2313TIP3   OH2 6902   6.973   1.788   2.437
 2313TIP3    H1 6903   6.903   1.732   2.404
 2313TIP3    H2 6904   7.020   1.733   2.499
 2314TIP3   OH2 6905   1.973   6.499   1.175
 2314TIP3    H1 6906   2.057   6.456   1.157
 2314TIP3    H2 6907   1.911   6.427   1.183
 2315TIP3   OH2 6908   7.128   3.949   4.796
 2315TIP3    H1 6909   7.039   3.925   4.821
 2315TIP3    H2 6910   7.180   3.936   4.876
 2316TIP3   OH2 6911   2.961   3.914   2.445
 2316TIP3    H1 6912   2.877   3.923   2.401
 2316TIP3    H2 6913   3.000   4.001   2.441
 2317TIP3   OH2 6914   1.671   0.297   4.534
 2317TIP3    H1 6915   1.719   0.265   4.611
 2317TIP3    H2 6916   1.679   0.392   4.539
 2318TIP3   OH2 6917   5.526   3.492   3.192
 2318TIP3    H1 6918   5.449   3.452   3.152
 2318TIP3    H2 6919   5.599   3.463   3.137
 2319TIP3   OH2 6920   4.300   1.759   2.989
 2319TIP3    H1 6921   4.371   1.823   2.976
 2319TIP3    H2 6922   4.335   1.677   2.955
 2320TIP3   OH2 6923   0.288   3.365   2.645
 2320TIP3    H1 6924   0.326   3.425   2.580
 2320TIP3    H2 6925   0.265   3.421   2.719
 2321TIP3   OH2 6926  -0.020   3.877   0.274
 2321TIP3    H1 6927   0.019   3.811   0.331
 2321TIP3    H2 6928   0.054   3.929   0.243
 2322TIP3   OH2 6929   1.331   4.383   4.998
 2322TIP3    H1 6930   1.320   4.341   4.913
 2322TIP3    H2 6931   1.322   4.477   4.980
 2323TIP3   OH2 6932   0.332   2.852   4.882
 2323TIP3    H1 6933   0.379   2.827   4.962
 2323TIP3    H2 6934   0.244   2.818   4.894
 2324TIP3   OH2 6935   0.405   0.194   3.903
 2324TIP3    H1 6936   0.327   0.245   3.880
 2324TIP3    H2 6937   0.383   0.104   3.879
 2325TIP3   OH2 6938   2.282   2.476   1.512
 2325TIP3    H1 6939   2.285   2.419   1.589
 2325TIP3    H2 6940   2.344   2.438   1.451
 2326TIP3   OH2 6941   1.980   3.241   3.166
 2326TIP3    H1 6942   2.047   3.177   3.142
 2326TIP3    H2 6943   1.980   3.241   3.262
 2327TIP3   OH2 6944   5.257   1.240   0.225
 2327TIP3    H1 6945   5.330   1.185   0.197
 2327TIP3    H2 6946   5.284   1.275   0.310
 2328TIP3   OH2 6947   4.309   0.783   0.451
 2328TIP3    H1 6948   4.291   0.710   0.510
 2328TIP3    H2 6949   4.247   0.771   0.379
 2329TIP3   OH2 6950   2.356   0.883   1.578
 2329TIP3    H1 6951   2.400   0.798   1.586
 2329TIP3    H2 6952   2.266   0.866   1.608
 2330TIP3   OH2 6953   5.294   3.483   3.376
 2330TIP3    H1 6954   5.264   3.431   3.301
 2330TIP3    H2 6955   5.364   3.538   3.340
 2331TIP3   OH2 6956   0.893   5.905   0.261
 2331TIP3    H1 6957   0.980   5.903   0.300
 2331TIP3    H2 6958   0.896   5.837   0.193
 2332TIP3   OH2 6959   4.378   0.824   3.395
 2332TIP3    H1 6960   4.375   0.841   3.489
 2332TIP3    H2 6961   4.294   0.856   3.361
 2333TIP3   OH2 6962   7.065   0.723   1.839
 2333TIP3    H1 6963   7.143   0.679   1.805
 2333TIP3    H2 6964   7.100   0.796   1.890
 2334TIP3   OH2 6965   7.077   0.102   2.329
 2334TIP3    H1 6966   7.154   0.060   2.368
 2334TIP3    H2 6967   7.099   0.195   2.327
 2335TIP3   OH2 6968   5.651   6.636   1.004
 2335TIP3    H1 6969   5.720   6.686   1.046
 2335TIP3    H2 6970   5.684   6.546   1.002
 2336TIP3   OH2 6971   4.271   6.559   1.350
 2336TIP3    H1 6972   4.262   6.466   1.368
 2336TIP3    H2 6973   4.335   6.591   1.413
 2337TIP3   OH2 6974   2.681   1.115   1.434
 2337TIP3    H1 6975   2.686   1.188   1.372
 2337TIP3    H2 6976   2.772   1.095   1.453
 2338TIP3   OH2 6977   7.264   2.969   3.503
 2338TIP3    H1 6978   7.197   3.037   3.496
 2338TIP3    H2 6979   7.239   2.904   3.438
 2339TIP3   OH2 6980   1.649   6.553   4.857
 2339TIP3    H1 6981   1.630   6.620   4.791
 2339TIP3    H2 6982   1.566   6.540   4.903
 2340TIP3   OH2 6983   7.159   5.278   2.590
 2340TIP3    H1 6984   7.149   5.294   2.497
 2340TIP3    H2 6985   7.159   5.183   2.599
 2341TIP3   OH2 6986   5.665   5.919   1.008
 2341TIP3    H1 6987   5.625   6.006   1.011
 2341TIP3    H2 6988   5.636   5.882   0.925
 2342TIP3   OH2 6989   4.492   5.065   2.147
 2342TIP3    H1 6990   4.433   5.083   2.074
 2342TIP3    H2 6991   4.505   4.970   2.143
 2343TIP3   OH2 6992   5.065   5.252   1.134
 2343TIP3    H1 6993   5.017   5.219   1.210
 2343TIP3    H2 6994   5.134   5.188   1.119
 2344TIP3   OH2 6995   2.158   0.199   5.443
 2344TIP3    H1 6996   2.063   0.215   5.446
 2344TIP3    H2 6997   2.186   0.206   5.534
 2345TIP3   OH2 6998   0.944   1.220   5.545
 2345TIP3    H1 6999   0.871   1.279   5.567
 2345TIP3    H2 7000   1.021   1.262   5.584
 2346TIP3   OH2 7001   5.213   2.525   4.805
 2346TIP3    H1 7002   5.280   2.558   4.744
 2346TIP3    H2 7003   5.186   2.441   4.767
 2347TIP3   OH2 7004   4.573   2.602   5.285
 2347TIP3    H1 7005   4.584   2.584   5.379
 2347TIP3    H2 7006   4.605   2.691   5.274
 2348TIP3   OH2 7007   1.453   4.632   3.001
 2348TIP3    H1 7008   1.495   4.632   2.915
 2348TIP3    H2 7009   1.360   4.620   2.983
 2349TIP3   OH2 7010   2.628   0.162   4.378
 2349TIP3    H1 7011   2.598   0.252   4.394
 2349TIP3    H2 7012   2.710   0.155   4.427
 2350TIP3   OH2 7013   3.588   1.873   3.607
 2350TIP3    H1 7014   3.527   1.882   3.680
 2350TIP3    H2 7015   3.674   1.888   3.645
 2351TIP3   OH2 7016   5.197   1.754   4.273
 2351TIP3    H1 7017   5.143   1.710   4.340
 2351TIP3    H2 7018   5.189   1.847   4.294
 2352TIP3   OH2 7019   6.901   0.832   3.358
 2352TIP3    H1 7020   6.837   0.859   3.292
 2352TIP3    H2 7021   6.960   0.773   3.312
 2353TIP3   OH2 7022   6.981   4.811   3.375
 2353TIP3    H1 7023   6.969   4.777   3.463
 2353TIP3    H2 7024   7.063   4.772   3.344
 2354TIP3   OH2 7025   5.856   2.060   3.230
 2354TIP3    H1 7026   5.798   1.990   3.257
 2354TIP3    H2 7027   5.937   2.016   3.203
 2355TIP3   OH2 7028   2.826   1.775   3.489
 2355TIP3    H1 7029   2.779   1.750   3.569
 2355TIP3    H2 7030   2.894   1.835   3.520
 2356TIP3   OH2 7031   5.053   0.974   3.085
 2356TIP3    H1 7032   5.103   0.950   3.163
 2356TIP3    H2 7033   4.980   1.027   3.118
 2357TIP3   OH2 7034   1.092   0.169   4.743
 2357TIP3    H1 7035   1.168   0.141   4.691
 2357TIP3    H2 7036   1.057   0.088   4.781
 2358TIP3   OH2 7037   5.350   4.101   0.709
 2358TIP3    H1 7038   5.292   4.069   0.778
 2358TIP3    H2 7039   5.357   4.195   0.725
 2359TIP3   OH2 7040   2.405   5.833   3.990
 2359TIP3    H1 7041   2.366   5.811   4.075
 2359TIP3    H2 7042   2.404   5.751   3.941
 2360TIP3   OH2 7043   0.019   5.638   1.174
 2360TIP3    H1 7044   0.084   5.574   1.147
 2360TIP3    H2 7045   0.064   5.692   1.239
 2361TIP3   OH2 7046   3.605   2.607   2.287
 2361TIP3    H1 7047   3.581   2.573   2.202
 2361TIP3    H2 7048   3.542   2.568   2.348
 2362TIP3   OH2 7049   1.816   1.554   0.364
 2362TIP3    H1 7050   1.750   1.590   0.305
 2362TIP3    H2 7051   1.816   1.613   0.439
 2363TIP3   OH2 7052   6.321   3.806   2.455
 2363TIP3    H1 7053   6.290   3.882   2.504
 2363TIP3    H2 7054   6.241   3.758   2.432
 2364TIP3   OH2 7055   0.265   1.331   5.203
 2364TIP3    H1 7056   0.248   1.420   5.232
 2364TIP3    H2 7057   0.360   1.322   5.210
 2365TIP3   OH2 7058   6.207   1.080   0.543
 2365TIP3    H1 7059   6.237   1.078   0.452
 2365TIP3    H2 7060   6.145   1.007   0.549
 2366TIP3   OH2 7061   4.238   2.994   4.253
 2366TIP3    H1 7062   4.314   2.936   4.258
 2366TIP3    H2 7063   4.194   2.982   4.337
 2367TIP3   OH2 7064   2.839   2.582   5.215
 2367TIP3    H1 7065   2.819   2.495   5.181
 2367TIP3    H2 7066   2.914   2.569   5.273
 2368TIP3   OH2 7067   5.828   4.295   2.176
 2368TIP3    H1 7068   5.826   4.227   2.108
 2368TIP3    H2 7069   5.833   4.246   2.258
 2369TIP3   OH2 7070   6.621   6.771   1.882
 2369TIP3    H1 7071   6.541   6.786   1.830
 2369TIP3    H2 7072   6.615   6.834   1.954
 2370TIP3   OH2 7073   0.877   5.395   1.894
 2370TIP3    H1 7074   0.913   5.399   1.983
 2370TIP3    H2 7075   0.784   5.378   1.907
 2371TIP3   OH2 7076   6.415   2.083   2.682
 2371TIP3    H1 7077   6.478   2.147   2.649
 2371TIP3    H2 7078   6.403   2.022   2.609
 2372TIP3   OH2 7079   6.909   2.991   1.333
 2372TIP3    H1 7080   6.852   2.990   1.409
 2372TIP3    H2 7081   6.975   2.923   1.352
 2373TIP3   OH2 7082   0.892   1.387   5.277
 2373TIP3    H1 7083   0.814   1.335   5.257
 2373TIP3    H2 7084   0.948   1.327   5.328
 2374TIP3   OH2 7085   4.977   2.259   4.703
 2374TIP3    H1 7086   4.927   2.339   4.720
 2374TIP3    H2 7087   4.911   2.194   4.678
 2375TIP3   OH2 7088   0.712   1.968   1.793
 2375TIP3    H1 7089   0.771   1.903   1.754
 2375TIP3    H2 7090   0.655   1.917   1.851
 2376TIP3   OH2 7091   3.724   2.492   2.660
 2376TIP3    H1 7092   3.686   2.464   2.743
 2376TIP3    H2 7093   3.728   2.588   2.667
 2377TIP3   OH2 7094   5.930   1.723   4.783
 2377TIP3    H1 7095   5.988   1.686   4.716
 2377TIP3    H2 7096   5.989   1.765   4.846
 2378TIP3   OH2 7097   0.154   1.889   2.451
 2378TIP3    H1 7098   0.225   1.938   2.492
 2378TIP3    H2 7099   0.194   1.807   2.421
 2379TIP3   OH2 7100   4.417   2.440   0.212
 2379TIP3    H1 7101   4.321   2.445   0.213
 2379TIP3    H2 7102   4.446   2.528   0.191
 2380TIP3   OH2 7103   1.078   3.614   0.978
 2380TIP3    H1 7104   1.122   3.535   0.946
 2380TIP3    H2 7105   0.991   3.585   1.003
 2381TIP3   OH2 7106   1.056   6.596   3.630
 2381TIP3    H1 7107   0.976   6.571   3.675
 2381TIP3    H2 7108   1.092   6.668   3.682
 2382TIP3   OH2 7109   3.954   5.689   4.945
 2382TIP3    H1 7110   4.016   5.738   4.891
 2382TIP3    H2 7111   4.001   5.670   5.026
 2383TIP3   OH2 7112   5.194   1.330   5.646
 2383TIP3    H1 7113   5.179   1.391   5.573
 2383TIP3    H2 7114   5.284   1.347   5.673
 2384TIP3   OH2 7115   7.182   1.521   3.489
 2384TIP3    H1 7116   7.104   1.496   3.439
 2384TIP3    H2 7117   7.248   1.457   3.462
 2385TIP3   OH2 7118   0.803   5.972   2.871
 2385TIP3    H1 7119   0.881   5.990   2.924
 2385TIP3    H2 7120   0.830   5.991   2.781
 2386TIP3   OH2 7121   1.139   5.695   0.811
 2386TIP3    H1 7122   1.120   5.637   0.738
 2386TIP3    H2 7123   1.170   5.638   0.880
 2387TIP3   OH2 7124   1.429   5.391   0.382
 2387TIP3    H1 7125   1.468   5.303   0.386
 2387TIP3    H2 7126   1.335   5.375   0.387
 2388TIP3   OH2 7127   2.138   2.502   2.638
 2388TIP3    H1 7128   2.103   2.415   2.621
 2388TIP3    H2 7129   2.144   2.543   2.552
 2389TIP3   OH2 7130   2.558   3.590   4.001
 2389TIP3    H1 7131   2.603   3.674   4.002
 2389TIP3    H2 7132   2.466   3.611   3.985
 2390TIP3   OH2 7133   6.318   4.550   1.404
 2390TIP3    H1 7134   6.336   4.480   1.467
 2390TIP3    H2 7135   6.235   4.525   1.364
 2391TIP3   OH2 7136   5.436   0.203   3.218
 2391TIP3    H1 7137   5.383   0.124   3.211
 2391TIP3    H2 7138   5.395   0.266   3.159
 2392TIP3   OH2 7139   6.127   4.140   4.373
 2392TIP3    H1 7140   6.063   4.211   4.375
 2392TIP3    H2 7141   6.208   4.181   4.347
 2393TIP3   OH2 7142   3.495   0.733   2.867
 2393TIP3    H1 7143   3.515   0.775   2.783
 2393TIP3    H2 7144   3.549   0.780   2.930
 2394TIP3   OH2 7145   3.321   5.269   3.810
 2394TIP3    H1 7146   3.262   5.309   3.746
 2394TIP3    H2 7147   3.306   5.175   3.800
 2395TIP3   OH2 7148   6.787   0.588   4.433
 2395TIP3    H1 7149   6.753   0.511   4.388
 2395TIP3    H2 7150   6.764   0.574   4.525
 2396TIP3   OH2 7151   5.199   4.544   0.374
 2396TIP3    H1 7152   5.263   4.611   0.400
 2396TIP3    H2 7153   5.114   4.582   0.393
 2397TIP3   OH2 7154   5.936   4.339   2.895
 2397TIP3    H1 7155   5.917   4.254   2.935
 2397TIP3    H2 7156   5.969   4.392   2.967
 2398TIP3   OH2 7157   7.153   4.749   1.359
 2398TIP3    H1 7158   7.187   4.713   1.277
 2398TIP3    H2 7159   7.145   4.673   1.416
 2399TIP3   OH2 7160   2.378   5.242   2.222
 2399TIP3    H1 7161   2.441   5.260   2.153
 2399TIP3    H2 7162   2.369   5.146   2.221
 2400TIP3   OH2 7163   4.573   4.906   3.490
 2400TIP3    H1 7164   4.520   4.837   3.529
 2400TIP3    H2 7165   4.645   4.860   3.446
 2401TIP3   OH2 7166   5.476   4.837   5.230
 2401TIP3    H1 7167   5.419   4.761   5.220
 2401TIP3    H2 7168   5.419   4.906   5.264
 2402TIP3   OH2 7169   3.588   5.597   2.296
 2402TIP3    H1 7170   3.576   5.520   2.241
 2402TIP3    H2 7171   3.548   5.669   2.246
 2403TIP3   OH2 7172   6.451   1.281   5.560
 2403TIP3    H1 7173   6.383   1.340   5.528
 2403TIP3    H2 7174   6.425   1.194   5.531
 2404TIP3   OH2 7175   5.014   0.444   2.788
 2404TIP3    H1 7176   5.083   0.498   2.751
 2404TIP3    H2 7177   4.953   0.430   2.715
 2405TIP3   OH2 7178   1.418   2.125   4.474
 2405TIP3    H1 7179   1.442   2.093   4.561
 2405TIP3    H2 7180   1.323   2.122   4.473
 2406TIP3   OH2 7181   1.067   6.230   5.025
 2406TIP3    H1 7182   1.039   6.223   4.934
 2406TIP3    H2 7183   1.113   6.147   5.042
 2407TIP3   OH2 7184   1.978   5.116   1.684
 2407TIP3    H1 7185   1.982   5.134   1.778
 2407TIP3    H2 7186   2.012   5.027   1.676
 2408TIP3   OH2 7187   3.343   2.075   1.318
 2408TIP3    H1 7188   3.355   2.049   1.227
 2408TIP3    H2 7189   3.267   2.025   1.347
 2409TIP3   OH2 7190   0.433   3.006   0.284
 2409TIP3    H1 7191   0.369   3.052   0.339
 2409TIP3    H2 7192   0.426   2.914   0.309
 2410TIP3   OH2 7193   5.998   5.213   5.700
 2410TIP3    H1 7194   5.969   5.207   5.608
 2410TIP3    H2 7195   6.043   5.130   5.717
 2411TIP3   OH2 7196   4.953   0.433   0.875
 2411TIP3    H1 7197   4.937   0.525   0.898
 2411TIP3    H2 7198   4.954   0.433   0.779
 2412TIP3   OH2 7199   5.471   6.430   3.251
 2412TIP3    H1 7200   5.533   6.483   3.201
 2412TIP3    H2 7201   5.524   6.392   3.322
 2413TIP3   OH2 7202   2.839   6.676   0.675
 2413TIP3    H1 7203   2.816   6.624   0.598
 2413TIP3    H2 7204   2.804   6.763   0.657
 2414TIP3   OH2 7205   3.059   3.894   4.665
 2414TIP3    H1 7206   2.971   3.902   4.702
 2414TIP3    H2 7207   3.074   3.977   4.620
 2415TIP3   OH2 7208   1.062   6.527   4.334
 2415TIP3    H1 7209   1.014   6.598   4.377
 2415TIP3    H2 7210   1.117   6.570   4.269
 2416TIP3   OH2 7211   1.804   5.485   3.681
 2416TIP3    H1 7212   1.888   5.455   3.647
 2416TIP3    H2 7213   1.821   5.501   3.774
 2417TIP3   OH2 7214   0.807   2.859   3.267
 2417TIP3    H1 7215   0.765   2.856   3.353
 2417TIP3    H2 7216   0.870   2.930   3.273
 2418TIP3   OH2 7217   5.098   0.691   5.780
 2418TIP3    H1 7218   5.046   0.771   5.777
 2418TIP3    H2 7219   5.034   0.621   5.796
 2419TIP3   OH2 7220   2.673   5.096   4.262
 2419TIP3    H1 7221   2.635   5.168   4.211
 2419TIP3    H2 7222   2.618   5.021   4.241
 2420TIP3   OH2 7223   5.765   4.210   0.257
 2420TIP3    H1 7224   5.731   4.192   0.344
 2420TIP3    H2 7225   5.715   4.285   0.226
 2421TIP3   OH2 7226   2.846   4.893   4.802
 2421TIP3    H1 7227   2.808   4.955   4.739
 2421TIP3    H2 7228   2.771   4.861   4.852
 2422TIP3   OH2 7229   4.341   1.496   0.319
 2422TIP3    H1 7230   4.272   1.441   0.356
 2422TIP3    H2 7231   4.295   1.564   0.271
 2423TIP3   OH2 7232   1.306   6.225   0.977
 2423TIP3    H1 7233   1.338   6.138   0.999
 2423TIP3    H2 7234   1.346   6.246   0.893
 2424TIP3   OH2 7235   2.592   2.962   3.555
 2424TIP3    H1 7236   2.505   2.957   3.595
 2424TIP3    H2 7237   2.650   2.927   3.622
 2425TIP3   OH2 7238   1.020   5.174   0.164
 2425TIP3    H1 7239   1.079   5.135   0.100
 2425TIP3    H2 7240   0.937   5.184   0.118
 2426TIP3   OH2 7241   4.927   0.919   5.805
 2426TIP3    H1 7242   4.952   0.988   5.743
 2426TIP3    H2 7243   4.895   0.966   5.882
 2427TIP3   OH2 7244   0.574   0.658   0.599
 2427TIP3    H1 7245   0.564   0.728   0.535
 2427TIP3    H2 7246   0.516   0.682   0.670
 2428TIP3   OH2 7247   2.884   3.121   5.428
 2428TIP3    H1 7248   2.965   3.140   5.476
 2428TIP3    H2 7249   2.901   3.036   5.387
 2429TIP3   OH2 7250   5.936   0.695   3.859
 2429TIP3    H1 7251   5.889   0.772   3.827
 2429TIP3    H2 7252   6.020   0.696   3.812
 2430TIP3   OH2 7253   4.627   1.136   4.236
 2430TIP3    H1 7254   4.642   1.042   4.236
 2430TIP3    H2 7255   4.617   1.159   4.144
 2431TIP3   OH2 7256   6.578   3.774   4.363
 2431TIP3    H1 7257   6.602   3.739   4.448
 2431TIP3    H2 7258   6.572   3.868   4.376
 2432TIP3   OH2 7259   2.428   5.058   1.934
 2432TIP3    H1 7260   2.513   5.047   1.976
 2432TIP3    H2 7261   2.389   4.970   1.937
 2433TIP3   OH2 7262   6.603   2.695   3.592
 2433TIP3    H1 7263   6.530   2.730   3.541
 2433TIP3    H2 7264   6.624   2.765   3.654
 2434TIP3   OH2 7265   2.706   1.723   4.592
 2434TIP3    H1 7266   2.739   1.808   4.560
 2434TIP3    H2 7267   2.785   1.670   4.602
 2435TIP3   OH2 7268   4.315   5.093   4.196
 2435TIP3    H1 7269   4.240   5.111   4.140
 2435TIP3    H2 7270   4.382   5.155   4.168
 2436TIP3   OH2 7271   6.621   4.026   5.515
 2436TIP3    H1 7272   6.678   3.957   5.549
 2436TIP3    H2 7273   6.663   4.107   5.544
 2437TIP3   OH2 7274   0.876   6.392   2.389
 2437TIP3    H1 7275   0.909   6.395   2.299
 2437TIP3    H2 7276   0.788   6.429   2.384
 2438TIP3   OH2 7277   3.823   0.096   5.589
 2438TIP3    H1 7278   3.858   0.031   5.649
 2438TIP3    H2 7279   3.900   0.136   5.548
 2439TIP3   OH2 7280   1.429   3.174   2.428
 2439TIP3    H1 7281   1.518   3.186   2.397
 2439TIP3    H2 7282   1.407   3.084   2.404
 2440TIP3   OH2 7283   1.981   3.892   4.947
 2440TIP3    H1 7284   1.928   3.971   4.956
 2440TIP3    H2 7285   1.929   3.835   4.889
 2441TIP3   OH2 7286   2.744   5.669   5.159
 2441TIP3    H1 7287   2.743   5.642   5.067
 2441TIP3    H2 7288   2.699   5.598   5.205
 2442TIP3   OH2 7289   5.847   2.283   3.085
 2442TIP3    H1 7290   5.782   2.342   3.123
 2442TIP3    H2 7291   5.853   2.211   3.148
 2443TIP3   OH2 7292   2.156   2.150   0.757
 2443TIP3    H1 7293   2.140   2.241   0.781
 2443TIP3    H2 7294   2.089   2.101   0.805
 2444TIP3   OH2 7295   7.184   4.381   3.226
 2444TIP3    H1 7296   7.178   4.439   3.301
 2444TIP3    H2 7297   7.110   4.406   3.171
 2445TIP3   OH2 7298   1.319   2.931   4.419
 2445TIP3    H1 7299   1.336   3.016   4.459
 2445TIP3    H2 7300   1.390   2.875   4.451
 2446TIP3   OH2 7301   6.681   4.628   0.653
 2446TIP3    H1 7302   6.684   4.686   0.577
 2446TIP3    H2 7303   6.610   4.662   0.706
 2447TIP3   OH2 7304   1.609   2.133   5.032
 2447TIP3    H1 7305   1.684   2.160   4.979
 2447TIP3    H2 7306   1.557   2.212   5.043
 2448TIP3   OH2 7307   4.305   2.256   1.907
 2448TIP3    H1 7308   4.351   2.324   1.956
 2448TIP3    H2 7309   4.212   2.271   1.928
 2449TIP3   OH2 7310   1.600   0.975   1.869
 2449TIP3    H1 7311   1.614   0.983   1.963
 2449TIP3    H2 7312   1.611   0.882   1.850
 2450TIP3   OH2 7313   6.271   2.584   2.007
 2450TIP3    H1 7314   6.355   2.538   2.015
 2450TIP3    H2 7315   6.285   2.646   1.936
 2451TIP3   OH2 7316   3.349   4.088   1.628
 2451TIP3    H1 7317   3.378   4.047   1.709
 2451TIP3    H2 7318   3.328   4.178   1.653
 2452TIP3   OH2 7319   3.943   6.596   4.466
 2452TIP3    H1 7320   3.963   6.689   4.476
 2452TIP3    H2 7321   3.847   6.593   4.457
 2453TIP3   OH2 7322   3.811   6.234   2.132
 2453TIP3    H1 7323   3.793   6.263   2.043
 2453TIP3    H2 7324   3.895   6.274   2.154
 2454TIP3   OH2 7325   5.137   3.378   1.919
 2454TIP3    H1 7326   5.057   3.385   1.867
 2454TIP3    H2 7327   5.150   3.284   1.932
 2455TIP3   OH2 7328   5.145   4.016   0.181
 2455TIP3    H1 7329   5.200   4.086   0.146
 2455TIP3    H2 7330   5.187   3.936   0.150
 2456TIP3   OH2 7331   2.659   5.003   3.839
 2456TIP3    H1 7332   2.730   5.039   3.786
 2456TIP3    H2 7333   2.590   5.069   3.835
 2457TIP3   OH2 7334   0.752   0.356   1.560
 2457TIP3    H1 7335   0.772   0.387   1.472
 2457TIP3    H2 7336   0.799   0.273   1.567
 2458TIP3   OH2 7337   0.186   4.207   5.292
 2458TIP3    H1 7338   0.132   4.216   5.371
 2458TIP3    H2 7339   0.137   4.255   5.225
 2459TIP3   OH2 7340   3.145   0.965   3.159
 2459TIP3    H1 7341   3.186   0.881   3.180
 2459TIP3    H2 7342   3.160   1.019   3.237
 2460TIP3   OH2 7343   6.309   3.701   0.316
 2460TIP3    H1 7344   6.262   3.631   0.270
 2460TIP3    H2 7345   6.239   3.760   0.346
 2461TIP3   OH2 7346   6.083   0.420   0.550
 2461TIP3    H1 7347   6.160   0.456   0.594
 2461TIP3    H2 7348   6.112   0.335   0.517
 2462TIP3   OH2 7349   5.665   0.329   3.505
 2462TIP3    H1 7350   5.620   0.397   3.555
 2462TIP3    H2 7351   5.641   0.248   3.549
 2463TIP3   OH2 7352   4.491   6.814   0.619
 2463TIP3    H1 7353   4.512   6.781   0.706
 2463TIP3    H2 7354   4.427   6.752   0.584
 2464TIP3   OH2 7355   4.947   6.757   3.123
 2464TIP3    H1 7356   4.941   6.662   3.120
 2464TIP3    H2 7357   4.857   6.787   3.129
 2465TIP3   OH2 7358   0.152   6.532   0.363
 2465TIP3    H1 7359   0.123   6.452   0.406
 2465TIP3    H2 7360   0.095   6.540   0.286
 2466TIP3   OH2 7361   7.184   4.223   5.576
 2466TIP3    H1 7362   7.109   4.164   5.589
 2466TIP3    H2 7363   7.149   4.310   5.595
 2467TIP3   OH2 7364   4.108   5.141   4.720
 2467TIP3    H1 7365   4.089   5.107   4.807
 2467TIP3    H2 7366   4.022   5.145   4.677
 2468TIP3   OH2 7367   7.098   0.576   4.667
 2468TIP3    H1 7368   7.183   0.567   4.711
 2468TIP3    H2 7369   7.057   0.490   4.677
 2469TIP3   OH2 7370   1.270   0.245   2.787
 2469TIP3    H1 7371   1.210   0.283   2.723
 2469TIP3    H2 7372   1.275   0.310   2.857
 2470TIP3   OH2 7373   2.107   1.263   0.072
 2470TIP3    H1 7374   2.120   1.349   0.112
 2470TIP3    H2 7375   2.013   1.258   0.055
 2471TIP3   OH2 7376   4.308   3.710   0.556
 2471TIP3    H1 7377   4.383   3.694   0.499
 2471TIP3    H2 7378   4.307   3.635   0.616
 2472TIP3   OH2 7379   0.624   1.792   1.499
 2472TIP3    H1 7380   0.573   1.866   1.534
 2472TIP3    H2 7381   0.565   1.717   1.505
 2473TIP3   OH2 7382   4.484   3.118   1.993
 2473TIP3    H1 7383   4.417   3.178   2.024
 2473TIP3    H2 7384   4.439   3.062   1.930
 2474TIP3   OH2 7385   7.066   0.139   1.721
 2474TIP3    H1 7386   7.064   0.051   1.759
 2474TIP3    H2 7387   6.986   0.145   1.670
 2475TIP3   OH2 7388   1.562   5.637   1.269
 2475TIP3    H1 7389   1.619   5.574   1.314
 2475TIP3    H2 7390   1.495   5.658   1.334
 2476TIP3   OH2 7391   0.151   6.088   1.435
 2476TIP3    H1 7392   0.059   6.114   1.439
 2476TIP3    H2 7393   0.198   6.171   1.424
 2477TIP3   OH2 7394   4.333   4.007   3.426
 2477TIP3    H1 7395   4.389   3.953   3.482
 2477TIP3    H2 7396   4.275   4.053   3.487
 2478TIP3   OH2 7397   6.139   6.617   3.859
 2478TIP3    H1 7398   6.228   6.606   3.827
 2478TIP3    H2 7399   6.144   6.598   3.953
 2479TIP3   OH2 7400   6.903   0.727   4.901
 2479TIP3    H1 7401   6.865   0.775   4.828
 2479TIP3    H2 7402   6.834   0.666   4.928
 2480TIP3   OH2 7403   0.668   4.235   1.069
 2480TIP3    H1 7404   0.723   4.198   0.999
 2480TIP3    H2 7405   0.597   4.279   1.023
 2481TIP3   OH2 7406   5.141   6.712   1.352
 2481TIP3    H1 7407   5.088   6.633   1.360
 2481TIP3    H2 7408   5.224   6.681   1.315
 2482TIP3   OH2 7409   7.067   3.219   1.249
 2482TIP3    H1 7410   7.025   3.139   1.282
 2482TIP3    H2 7411   7.110   3.256   1.325
 2483TIP3   OH2 7412   1.948   0.532   5.324
 2483TIP3    H1 7413   1.984   0.502   5.408
 2483TIP3    H2 7414   1.929   0.624   5.337
 2484TIP3   OH2 7415   6.783   6.473   4.762
 2484TIP3    H1 7416   6.876   6.479   4.785
 2484TIP3    H2 7417   6.782   6.432   4.676
 2485TIP3   OH2 7418   5.057   4.158   2.223
 2485TIP3    H1 7419   5.009   4.076   2.213
 2485TIP3    H2 7420   5.141   4.142   2.182
 2486TIP3   OH2 7421   2.159   0.334   2.907
 2486TIP3    H1 7422   2.241   0.316   2.952
 2486TIP3    H2 7423   2.169   0.422   2.871
 2487TIP3   OH2 7424   0.207   2.995   2.862
 2487TIP3    H1 7425   0.261   2.927   2.901
 2487TIP3    H2 7426   0.267   3.068   2.847
 2488TIP3   OH2 7427   5.098   4.435   4.514
 2488TIP3    H1 7428   5.190   4.458   4.503
 2488TIP3    H2 7429   5.078   4.461   4.604
 2489TIP3   OH2 7430   5.920   5.358   0.723
 2489TIP3    H1 7431   5.879   5.364   0.810
 2489TIP3    H2 7432   5.900   5.442   0.682
 2490TIP3   OH2 7433   4.279   3.406   5.165
 2490TIP3    H1 7434   4.315   3.460   5.094
 2490TIP3    H2 7435   4.221   3.344   5.121
 2491TIP3   OH2 7436   4.096   5.347   3.248
 2491TIP3    H1 7437   4.045   5.384   3.320
 2491TIP3    H2 7438   4.031   5.317   3.185
 2492TIP3   OH2 7439   0.334   2.098   0.007
 2492TIP3    H1 7440   0.277   2.119   0.081
 2492TIP3    H2 7441   0.275   2.062  -0.059
 2493TIP3   OH2 7442   6.158   2.122   5.174
 2493TIP3    H1 7443   6.219   2.059   5.137
 2493TIP3    H2 7444   6.071   2.089   5.148
 2494TIP3   OH2 7445   5.714   3.818   0.247
 2494TIP3    H1 7446   5.711   3.784   0.337
 2494TIP3    H2 7447   5.682   3.745   0.194
 2495TIP3   OH2 7448   6.290   6.102   1.440
 2495TIP3    H1 7449   6.273   6.086   1.533
 2495TIP3    H2 7450   6.204   6.103   1.399
 2496TIP3   OH2 7451   3.304   2.404   1.929
 2496TIP3    H1 7452   3.215   2.437   1.916
 2496TIP3    H2 7453   3.292   2.322   1.976
 2497TIP3   OH2 7454   5.541   3.770   3.305
 2497TIP3    H1 7455   5.515   3.699   3.247
 2497TIP3    H2 7456   5.628   3.745   3.337
 2498TIP3   OH2 7457   3.640   2.307   3.959
 2498TIP3    H1 7458   3.666   2.356   4.037
 2498TIP3    H2 7459   3.692   2.346   3.888
 2499TIP3   OH2 7460   6.706   6.110   3.109
 2499TIP3    H1 7461   6.736   6.071   3.027
 2499TIP3    H2 7462   6.713   6.040   3.174
 2500TIP3   OH2 7463   0.406   3.564   0.657
 2500TIP3    H1 7464   0.493   3.547   0.694
 2500TIP3    H2 7465   0.348   3.565   0.733
 2501TIP3   OH2 7466   2.972   2.388   3.514
 2501TIP3    H1 7467   2.882   2.380   3.484
 2501TIP3    H2 7468   3.024   2.393   3.434
 2502TIP3   OH2 7469   4.782   5.724   5.733
 2502TIP3    H1 7470   4.839   5.712   5.657
 2502TIP3    H2 7471   4.720   5.651   5.728
 2503TIP3   OH2 7472   5.404   4.562   5.007
 2503TIP3    H1 7473   5.363   4.500   5.068
 2503TIP3    H2 7474   5.497   4.558   5.030
 2504TIP3   OH2 7475   2.979   6.027   0.520
 2504TIP3    H1 7476   2.883   6.027   0.517
 2504TIP3    H2 7477   3.005   5.985   0.439
 2505TIP3   OH2 7478   5.593   2.674   4.745
 2505TIP3    H1 7479   5.646   2.734   4.797
 2505TIP3    H2 7480   5.541   2.626   4.809
 2506TIP3   OH2 7481   5.826   2.447   0.617
 2506TIP3    H1 7482   5.762   2.409   0.677
 2506TIP3    H2 7483   5.891   2.378   0.603
 2507TIP3   OH2 7484   3.988   1.081   3.383
 2507TIP3    H1 7485   3.915   1.034   3.423
 2507TIP3    H2 7486   4.014   1.145   3.449
 2508TIP3   OH2 7487   2.790   1.918   2.468
 2508TIP3    H1 7488   2.826   1.987   2.412
 2508TIP3    H2 7489   2.835   1.838   2.439
 2509TIP3   OH2 7490   2.941   1.416   2.220
 2509TIP3    H1 7491   2.937   1.506   2.189
 2509TIP3    H2 7492   2.916   1.363   2.144
 2510TIP3   OH2 7493   0.121   3.933   0.668
 2510TIP3    H1 7494   0.157   3.972   0.748
 2510TIP3    H2 7495   0.198   3.908   0.618
 2511TIP3   OH2 7496   1.525   4.348   2.563
 2511TIP3    H1 7497   1.438   4.385   2.549
 2511TIP3    H2 7498   1.531   4.275   2.501
 2512TIP3   OH2 7499   4.755   5.115   4.875
 2512TIP3    H1 7500   4.823   5.123   4.942
 2512TIP3    H2 7501   4.802   5.090   4.796
 2513TIP3   OH2 7502   1.393   2.893   2.958
 2513TIP3    H1 7503   1.373   2.974   2.910
 2513TIP3    H2 7504   1.470   2.857   2.915
 2514TIP3   OH2 7505   0.530   1.741   3.288
 2514TIP3    H1 7506   0.442   1.736   3.252
 2514TIP3    H2 7507   0.582   1.781   3.219
 2515TIP3   OH2 7508   3.701   1.094   5.389
 2515TIP3    H1 7509   3.692   0.999   5.394
 2515TIP3    H2 7510   3.732   1.119   5.477
 2516TIP3   OH2 7511   3.510   2.957   0.828
 2516TIP3    H1 7512   3.553   3.031   0.871
 2516TIP3    H2 7513   3.429   2.945   0.878
 2517TIP3   OH2 7514   6.313   5.489   4.915
 2517TIP3    H1 7515   6.372   5.509   4.843
 2517TIP3    H2 7516   6.370   5.456   4.984
 2518TIP3   OH2 7517   6.182   6.169   1.075
 2518TIP3    H1 7518   6.227   6.171   0.991
 2518TIP3    H2 7519   6.210   6.249   1.119
 2519TIP3   OH2 7520   5.682   5.256   4.256
 2519TIP3    H1 7521   5.733   5.294   4.184
 2519TIP3    H2 7522   5.747   5.233   4.322
 2520TIP3   OH2 7523   1.784   4.578   2.280
 2520TIP3    H1 7524   1.804   4.572   2.374
 2520TIP3    H2 7525   1.867   4.599   2.239
 2521TIP3   OH2 7526   3.810   5.151   4.251
 2521TIP3    H1 7527   3.806   5.244   4.232
 2521TIP3    H2 7528   3.721   5.119   4.233
 2522TIP3   OH2 7529   2.819   1.813   5.537
 2522TIP3    H1 7530   2.836   1.900   5.572
 2522TIP3    H2 7531   2.905   1.782   5.507
 2523TIP3   OH2 7532   2.381   6.061   1.037
 2523TIP3    H1 7533   2.388   6.136   0.978
 2523TIP3    H2 7534   2.394   5.985   0.980
 2524TIP3   OH2 7535   5.926   3.613   3.727
 2524TIP3    H1 7536   5.980   3.549   3.680
 2524TIP3    H2 7537   5.904   3.571   3.809
 2525TIP3   OH2 7538   6.772   5.571   5.796
 2525TIP3    H1 7539   6.868   5.574   5.801
 2525TIP3    H2 7540   6.754   5.551   5.705
 2526TIP3   OH2 7541   2.326   6.701   1.604
 2526TIP3    H1 7542   2.395   6.766   1.589
 2526TIP3    H2 7543   2.257   6.724   1.541
 2527TIP3   OH2 7544   2.009   0.969   5.581
 2527TIP3    H1 7545   1.965   0.902   5.635
 2527TIP3    H2 7546   2.083   0.923   5.542
 2528TIP3   OH2 7547   3.689   0.445   2.787
 2528TIP3    H1 7548   3.652   0.531   2.768
 2528TIP3    H2 7549   3.617   0.384   2.772
 2529TIP3   OH2 7550   6.776   4.203   1.346
 2529TIP3    H1 7551   6.811   4.285   1.380
 2529TIP3    H2 7552   6.737   4.159   1.421
 2530TIP3   OH2 7553   6.458   2.746   3.131
 2530TIP3    H1 7554   6.542   2.745   3.085
 2530TIP3    H2 7555   6.409   2.672   3.094
 2531TIP3   OH2 7556   1.346   2.170   2.177
 2531TIP3    H1 7557   1.404   2.128   2.240
 2531TIP3    H2 7558   1.260   2.133   2.194
 2532TIP3   OH2 7559   1.087   5.002   3.027
 2532TIP3    H1 7560   1.073   5.096   3.019
 2532TIP3    H2 7561   1.058   4.966   2.944
 2533TIP3   OH2 7562   3.791   3.103   0.153
 2533TIP3    H1 7563   3.811   3.036   0.219
 2533TIP3    H2 7564   3.724   3.063   0.098
 2534TIP3   OH2 7565   0.561   3.715   1.131
 2534TIP3    H1 7566   0.630   3.755   1.184
 2534TIP3    H2 7567   0.513   3.659   1.192
 2535TIP3   OH2 7568   6.183   4.905   5.039
 2535TIP3    H1 7569   6.221   4.824   5.071
 2535TIP3    H2 7570   6.204   4.908   4.946
 2536TIP3   OH2 7571   5.945   5.434   5.854
 2536TIP3    H1 7572   5.942   5.358   5.795
 2536TIP3    H2 7573   5.872   5.421   5.914
 2537TIP3   OH2 7574   5.020   5.596   1.678
 2537TIP3    H1 7575   4.987   5.551   1.756
 2537TIP3    H2 7576   5.100   5.547   1.655
 2538TIP3   OH2 7577   5.607   1.762   1.703
 2538TIP3    H1 7578   5.655   1.760   1.620
 2538TIP3    H2 7579   5.624   1.850   1.739
 2539TIP3   OH2 7580   4.076   3.798   5.603
 2539TIP3    H1 7581   4.049   3.754   5.523
 2539TIP3    H2 7582   4.164   3.764   5.621
 2540TIP3   OH2 7583   3.819   2.083   0.163
 2540TIP3    H1 7584   3.723   2.082   0.161
 2540TIP3    H2 7585   3.841   2.123   0.247
 2541TIP3   OH2 7586   3.881   1.579   4.056
 2541TIP3    H1 7587   3.839   1.494   4.042
 2541TIP3    H2 7588   3.886   1.588   4.151
 2542TIP3   OH2 7589   3.776   2.084   2.496
 2542TIP3    H1 7590   3.777   2.000   2.451
 2542TIP3    H2 7591   3.705   2.133   2.454
 2543TIP3   OH2 7592   1.012   0.848   4.835
 2543TIP3    H1 7593   1.099   0.848   4.795
 2543TIP3    H2 7594   0.953   0.879   4.766
 2544TIP3   OH2 7595   3.283   0.276   0.061
 2544TIP3    H1 7596   3.345   0.214   0.098
 2544TIP3    H2 7597   3.325   0.307  -0.019
 2545TIP3   OH2 7598   6.253   2.974   5.343
 2545TIP3    H1 7599   6.203   2.923   5.279
 2545TIP3    H2 7600   6.191   2.991   5.414
 2546TIP3   OH2 7601   1.522   1.362   4.319
 2546TIP3    H1 7602   1.599   1.419   4.309
 2546TIP3    H2 7603   1.452   1.420   4.348
 2547TIP3   OH2 7604   5.649   3.831   1.007
 2547TIP3    H1 7605   5.601   3.899   1.054
 2547TIP3    H2 7606   5.726   3.814   1.062
 2548TIP3   OH2 7607   4.055   1.094   5.495
 2548TIP3    H1 7608   3.972   1.142   5.498
 2548TIP3    H2 7609   4.115   1.153   5.449
 2549TIP3   OH2 7610   4.910   2.500   2.414
 2549TIP3    H1 7611   4.940   2.447   2.487
 2549TIP3    H2 7612   4.977   2.487   2.346
 2550TIP3   OH2 7613   6.228   4.255   3.586
 2550TIP3    H1 7614   6.287   4.235   3.513
 2550TIP3    H2 7615   6.284   4.253   3.664
 2551TIP3   OH2 7616   0.470   1.879   1.175
 2551TIP3    H1 7617   0.490   1.881   1.081
 2551TIP3    H2 7618   0.379   1.850   1.179
 2552TIP3   OH2 7619   7.054   4.195   1.473
 2552TIP3    H1 7620   7.032   4.266   1.533
 2552TIP3    H2 7621   7.105   4.237   1.404
 2553TIP3   OH2 7622   5.595   5.745   0.321
 2553TIP3    H1 7623   5.611   5.653   0.345
 2553TIP3    H2 7624   5.509   5.744   0.279
 2554TIP3   OH2 7625   6.975   0.614   3.874
 2554TIP3    H1 7626   6.957   0.664   3.953
 2554TIP3    H2 7627   6.889   0.598   3.835
 2555TIP3   OH2 7628   5.026   6.136   1.427
 2555TIP3    H1 7629   5.060   6.073   1.491
 2555TIP3    H2 7630   4.976   6.198   1.479
 2556TIP3   OH2 7631   2.106   2.613   1.345
 2556TIP3    H1 7632   2.162   2.552   1.391
 2556TIP3    H2 7633   2.165   2.683   1.315
 2557TIP3   OH2 7634   5.034   0.106   5.534
 2557TIP3    H1 7635   4.954   0.142   5.495
 2557TIP3    H2 7636   5.082   0.068   5.461
 2558TIP3   OH2 7637   1.476   2.203   3.766
 2558TIP3    H1 7638   1.464   2.115   3.730
 2558TIP3    H2 7639   1.543   2.242   3.709
 2559TIP3   OH2 7640   1.721   4.084   0.330
 2559TIP3    H1 7641   1.659   4.010   0.335
 2559TIP3    H2 7642   1.772   4.078   0.411
 2560TIP3   OH2 7643   3.632   2.505   2.935
 2560TIP3    H1 7644   3.722   2.515   2.965
 2560TIP3    H2 7645   3.605   2.419   2.966
 2561TIP3   OH2 7646   7.178   3.475   5.400
 2561TIP3    H1 7647   7.159   3.569   5.396
 2561TIP3    H2 7648   7.174   3.446   5.309
 2562TIP3   OH2 7649   3.875   2.375   5.705
 2562TIP3    H1 7650   3.917   2.400   5.623
 2562TIP3    H2 7651   3.799   2.434   5.712
 2563TIP3   OH2 7652   4.609   1.073   2.749
 2563TIP3    H1 7653   4.646   1.145   2.800
 2563TIP3    H2 7654   4.686   1.030   2.710
 2564TIP3   OH2 7655   4.317   6.561   1.848
 2564TIP3    H1 7656   4.319   6.616   1.926
 2564TIP3    H2 7657   4.234   6.582   1.806
 2565TIP3   OH2 7658   5.621   4.935   0.950
 2565TIP3    H1 7659   5.676   4.987   1.009
 2565TIP3    H2 7660   5.609   4.852   0.997
 2566TIP3   OH2 7661   0.313   3.659   5.136
 2566TIP3    H1 7662   0.251   3.675   5.207
 2566TIP3    H2 7663   0.310   3.565   5.122
 2567TIP3   OH2 7664   6.760   1.542   2.045
 2567TIP3    H1 7665   6.684   1.594   2.018
 2567TIP3    H2 7666   6.739   1.453   2.017
 2568TIP3   OH2 7667   1.144   3.590   0.299
 2568TIP3    H1 7668   1.175   3.604   0.389
 2568TIP3    H2 7669   1.100   3.505   0.302
 2569TIP3   OH2 7670   2.725   2.266   5.388
 2569TIP3    H1 7671   2.630   2.258   5.381
 2569TIP3    H2 7672   2.739   2.297   5.478
 2570TIP3   OH2 7673   6.406   2.501   5.697
 2570TIP3    H1 7674   6.476   2.498   5.631
 2570TIP3    H2 7675   6.354   2.577   5.673
 2571TIP3   OH2 7676   4.882   5.538   3.926
 2571TIP3    H1 7677   4.924   5.506   4.006
 2571TIP3    H2 7678   4.889   5.466   3.864
 2572TIP3   OH2 7679   2.660   1.635   0.671
 2572TIP3    H1 7680   2.736   1.585   0.699
 2572TIP3    H2 7681   2.684   1.669   0.584
 2573TIP3   OH2 7682   1.122   0.363   2.536
 2573TIP3    H1 7683   1.197   0.323   2.491
 2573TIP3    H2 7684   1.051   0.299   2.525
 2574TIP3   OH2 7685   5.365   1.321   0.759
 2574TIP3    H1 7686   5.333   1.382   0.826
 2574TIP3    H2 7687   5.339   1.235   0.792
 2575TIP3   OH2 7688   3.072   3.266   2.152
 2575TIP3    H1 7689   3.039   3.315   2.228
 2575TIP3    H2 7690   3.076   3.175   2.183
 2576TIP3   OH2 7691   0.836   1.294   4.077
 2576TIP3    H1 7692   0.872   1.307   4.165
 2576TIP3    H2 7693   0.899   1.337   4.019
 2577TIP3   OH2 7694   0.692   3.000   4.528
 2577TIP3    H1 7695   0.769   2.946   4.543
 2577TIP3    H2 7696   0.630   2.941   4.485
 2578TIP3   OH2 7697   6.715   5.849   1.095
 2578TIP3    H1 7698   6.649   5.895   1.147
 2578TIP3    H2 7699   6.786   5.832   1.156
 2579TIP3   OH2 7700   1.628   4.773   5.333
 2579TIP3    H1 7701   1.705   4.808   5.376
 2579TIP3    H2 7702   1.590   4.848   5.287
 2580TIP3   OH2 7703   5.802   4.105   1.515
 2580TIP3    H1 7704   5.837   4.124   1.428
 2580TIP3    H2 7705   5.734   4.040   1.499
 2581TIP3   OH2 7706   5.059   2.818   3.250
 2581TIP3    H1 7707   4.964   2.831   3.255
 2581TIP3    H2 7708   5.074   2.733   3.290
 2582TIP3   OH2 7709   5.223   5.481   1.031
 2582TIP3    H1 7710   5.161   5.524   0.973
 2582TIP3    H2 7711   5.199   5.389   1.029
 2583TIP3   OH2 7712   0.480   4.855   5.220
 2583TIP3    H1 7713   0.423   4.872   5.145
 2583TIP3    H2 7714   0.569   4.861   5.184
 2584TIP3   OH2 7715   2.411   1.170   2.395
 2584TIP3    H1 7716   2.498   1.152   2.429
 2584TIP3    H2 7717   2.358   1.094   2.420
 2585TIP3   OH2 7718   6.301   2.200   3.230
 2585TIP3    H1 7719   6.365   2.263   3.195
 2585TIP3    H2 7720   6.284   2.230   3.320
 2586TIP3   OH2 7721   5.933   1.147   5.440
 2586TIP3    H1 7722   5.859   1.172   5.385
 2586TIP3    H2 7723   6.002   1.210   5.419
 2587TIP3   OH2 7724   5.602   6.785   1.926
 2587TIP3    H1 7725   5.577   6.782   1.834
 2587TIP3    H2 7726   5.667   6.715   1.935
 2588TIP3   OH2 7727   5.748   3.408   2.456
 2588TIP3    H1 7728   5.661   3.374   2.476
 2588TIP3    H2 7729   5.795   3.404   2.539
 2589TIP3   OH2 7730   7.086   5.763   3.349
 2589TIP3    H1 7731   7.159   5.801   3.302
 2589TIP3    H2 7732   7.077   5.675   3.314
 2590TIP3   OH2 7733   1.032   0.499   2.867
 2590TIP3    H1 7734   0.944   0.480   2.833
 2590TIP3    H2 7735   1.064   0.570   2.812
 2591TIP3   OH2 7736   2.596   1.155   2.116
 2591TIP3    H1 7737   2.572   1.085   2.056
 2591TIP3    H2 7738   2.581   1.119   2.204
 2592TIP3   OH2 7739   4.570   5.560   2.638
 2592TIP3    H1 7740   4.477   5.542   2.630
 2592TIP3    H2 7741   4.603   5.559   2.547
 2593TIP3   OH2 7742   3.854   4.062   1.606
 2593TIP3    H1 7743   3.832   4.149   1.640
 2593TIP3    H2 7744   3.881   4.012   1.684
 2594TIP3   OH2 7745   0.588   2.971   3.157
 2594TIP3    H1 7746   0.675   2.939   3.179
 2594TIP3    H2 7747   0.595   3.066   3.158
 2595TIP3   OH2 7748   6.744   6.826   0.313
 2595TIP3    H1 7749   6.720   6.756   0.253
 2595TIP3    H2 7750   6.750   6.784   0.398
 2596TIP3   OH2 7751   5.354   4.091   2.185
 2596TIP3    H1 7752   5.404   4.145   2.246
 2596TIP3    H2 7753   5.392   4.004   2.194
 2597TIP3   OH2 7754   2.883   6.696   4.580
 2597TIP3    H1 7755   2.917   6.767   4.526
 2597TIP3    H2 7756   2.896   6.726   4.670
 2598TIP3   OH2 7757   0.785   3.209   2.167
 2598TIP3    H1 7758   0.868   3.204   2.214
 2598TIP3    H2 7759   0.728   3.147   2.213
 2599TIP3   OH2 7760   1.122   3.158   4.326
 2599TIP3    H1 7761   1.110   3.117   4.240
 2599TIP3    H2 7762   1.193   3.220   4.313
 2600TIP3   OH2 7763   2.335   5.418   1.346
 2600TIP3    H1 7764   2.321   5.371   1.263
 2600TIP3    H2 7765   2.303   5.358   1.413
 2601TIP3   OH2 7766   2.520   4.774   0.083
 2601TIP3    H1 7767   2.535   4.679   0.088
 2601TIP3    H2 7768   2.510   4.801   0.174
 2602TIP3   OH2 7769   5.410   6.010   3.720
 2602TIP3    H1 7770   5.503   6.006   3.741
 2602TIP3    H2 7771   5.407   6.053   3.634
 2603TIP3   OH2 7772   5.615   4.135   0.493
 2603TIP3    H1 7773   5.698   4.094   0.519
 2603TIP3    H2 7774   5.579   4.171   0.574
 2604TIP3   OH2 7775   7.075   1.175   0.519
 2604TIP3    H1 7776   7.069   1.178   0.614
 2604TIP3    H2 7777   7.168   1.165   0.501
 2605TIP3   OH2 7778   6.619   2.485   3.420
 2605TIP3    H1 7779   6.700   2.508   3.376
 2605TIP3    H2 7780   6.621   2.536   3.502
 2606TIP3   OH2 7781   3.269   4.979   1.516
 2606TIP3    H1 7782   3.318   4.938   1.587
 2606TIP3    H2 7783   3.243   5.065   1.551
 2607TIP3   OH2 7784   2.533   2.451   3.002
 2607TIP3    H1 7785   2.455   2.422   2.955
 2607TIP3    H2 7786   2.600   2.387   2.980
 2608TIP3   OH2 7787   0.609   6.665   0.762
 2608TIP3    H1 7788   0.657   6.674   0.680
 2608TIP3    H2 7789   0.662   6.607   0.816
 2609TIP3   OH2 7790   6.824   5.234   1.767
 2609TIP3    H1 7791   6.812   5.195   1.680
 2609TIP3    H2 7792   6.913   5.210   1.791
 2610TIP3   OH2 7793   4.074   1.459   3.190
 2610TIP3    H1 7794   4.063   1.520   3.117
 2610TIP3    H2 7795   4.003   1.481   3.250
 2611TIP3   OH2 7796   2.219   2.120   2.727
 2611TIP3    H1 7797   2.165   2.070   2.666
 2611TIP3    H2 7798   2.167   2.125   2.807
 2612TIP3   OH2 7799   2.591   6.636   4.227
 2612TIP3    H1 7800   2.649   6.700   4.268
 2612TIP3    H2 7801   2.505   6.651   4.267
 2613TIP3   OH2 7802   4.701   3.514   4.142
 2613TIP3    H1 7803   4.759   3.574   4.187
 2613TIP3    H2 7804   4.731   3.515   4.051
 2614TIP3   OH2 7805   2.377   5.447   3.058
 2614TIP3    H1 7806   2.298   5.485   3.020
 2614TIP3    H2 7807   2.417   5.398   2.987
 2615TIP3   OH2 7808   4.277   2.686   0.134
 2615TIP3    H1 7809   4.247   2.650   0.051
 2615TIP3    H2 7810   4.347   2.748   0.111
 2616TIP3   OH2 7811   4.212   4.602   1.092
 2616TIP3    H1 7812   4.297   4.645   1.098
 2616TIP3    H2 7813   4.230   4.509   1.103
 2617TIP3   OH2 7814   0.726   6.234   2.877
 2617TIP3    H1 7815   0.795   6.300   2.879
 2617TIP3    H2 7816   0.772   6.151   2.862
 2618TIP3   OH2 7817   5.974   5.177   0.335
 2618TIP3    H1 7818   6.035   5.249   0.324
 2618TIP3    H2 7819   5.913   5.207   0.402
 2619TIP3   OH2 7820   3.367   2.844   1.519
 2619TIP3    H1 7821   3.372   2.858   1.425
 2619TIP3    H2 7822   3.456   2.826   1.546
 2620TIP3   OH2 7823   2.338   3.378   1.839
 2620TIP3    H1 7824   2.422   3.355   1.798
 2620TIP3    H2 7825   2.349   3.470   1.865
 2621TIP3   OH2 7826   3.910   1.347   0.571
 2621TIP3    H1 7827   3.874   1.261   0.594
 2621TIP3    H2 7828   4.003   1.330   0.554
 2622TIP3   OH2 7829   6.476   1.696   1.688
 2622TIP3    H1 7830   6.407   1.634   1.711
 2622TIP3    H2 7831   6.529   1.649   1.623
 2623TIP3   OH2 7832   3.815   0.514   5.272
 2623TIP3    H1 7833   3.809   0.426   5.235
 2623TIP3    H2 7834   3.750   0.515   5.343
 2624TIP3   OH2 7835   0.372   0.651   1.106
 2624TIP3    H1 7836   0.382   0.731   1.054
 2624TIP3    H2 7837   0.452   0.645   1.158
 2625TIP3   OH2 7838   0.079   2.928   3.113
 2625TIP3    H1 7839   0.109   2.989   3.045
 2625TIP3    H2 7840   0.148   2.862   3.119
 2626TIP3   OH2 7841   6.959   2.934   5.226
 2626TIP3    H1 7842   6.977   2.883   5.147
 2626TIP3    H2 7843   6.975   2.873   5.298
 2627TIP3   OH2 7844   2.731   0.916   2.470
 2627TIP3    H1 7845   2.671   0.955   2.407
 2627TIP3    H2 7846   2.784   0.990   2.501
 2628TIP3   OH2 7847   1.082   5.575   2.618
 2628TIP3    H1 7848   1.034   5.613   2.691
 2628TIP3    H2 7849   1.082   5.481   2.636
 2629TIP3   OH2 7850   1.313   2.129   3.185
 2629TIP3    H1 7851   1.260   2.207   3.200
 2629TIP3    H2 7852   1.249   2.060   3.168
 2630TIP3   OH2 7853   5.953   1.861   0.866
 2630TIP3    H1 7854   6.009   1.810   0.925
 2630TIP3    H2 7855   5.903   1.796   0.818
 2631TIP3   OH2 7856   0.452   5.253   1.177
 2631TIP3    H1 7857   0.381   5.300   1.219
 2631TIP3    H2 7858   0.432   5.160   1.193
 2632TIP3   OH2 7859   5.069   3.883   0.452
 2632TIP3    H1 7860   5.087   3.879   0.546
 2632TIP3    H2 7861   5.130   3.819   0.414
 2633TIP3   OH2 7862   1.424   5.485   4.803
 2633TIP3    H1 7863   1.399   5.503   4.894
 2633TIP3    H2 7864   1.496   5.545   4.785
 2634TIP3   OH2 7865   2.515   6.339   1.672
 2634TIP3    H1 7866   2.600   6.307   1.642
 2634TIP3    H2 7867   2.535   6.419   1.721
 2635TIP3   OH2 7868   2.092   2.762   5.659
 2635TIP3    H1 7869   2.047   2.716   5.730
 2635TIP3    H2 7870   2.053   2.850   5.659
 2636TIP3   OH2 7871   0.005   0.523   1.760
 2636TIP3    H1 7872   0.044   0.529   1.673
 2636TIP3    H2 7873   0.012   0.431   1.783
 2637TIP3   OH2 7874   5.851   4.263   4.718
 2637TIP3    H1 7875   5.796   4.329   4.676
 2637TIP3    H2 7876   5.810   4.180   4.696
 2638TIP3   OH2 7877   6.274   2.811   0.762
 2638TIP3    H1 7878   6.268   2.871   0.687
 2638TIP3    H2 7879   6.183   2.787   0.779
 2639TIP3   OH2 7880   6.940   3.070   2.717
 2639TIP3    H1 7881   6.909   3.150   2.675
 2639TIP3    H2 7882   6.866   3.043   2.773
 2640TIP3   OH2 7883   1.046   6.014   0.996
 2640TIP3    H1 7884   1.126   5.985   1.041
 2640TIP3    H2 7885   1.016   6.089   1.047
 2641TIP3   OH2 7886   4.692   5.615   4.325
 2641TIP3    H1 7887   4.631   5.605   4.398
 2641TIP3    H2 7888   4.681   5.534   4.274
 2642TIP3   OH2 7889   2.230   2.353   0.373
 2642TIP3    H1 7890   2.135   2.359   0.369
 2642TIP3    H2 7891   2.260   2.442   0.391
 2643TIP3   OH2 7892   1.195   4.678   5.182
 2643TIP3    H1 7893   1.124   4.741   5.197
 2643TIP3    H2 7894   1.234   4.666   5.268
 2644TIP3   OH2 7895   6.653   3.341   2.962
 2644TIP3    H1 7896   6.598   3.395   2.904
 2644TIP3    H2 7897   6.630   3.371   3.050
 2645TIP3   OH2 7898   7.200   4.445   0.124
 2645TIP3    H1 7899   7.127   4.485   0.076
 2645TIP3    H2 7900   7.163   4.420   0.208
 2646TIP3   OH2 7901   2.253   2.645   0.397
 2646TIP3    H1 7902   2.340   2.623   0.363
 2646TIP3    H2 7903   2.208   2.686   0.324
 2647TIP3   OH2 7904   0.423   4.931   0.392
 2647TIP3    H1 7905   0.345   4.877   0.406
 2647TIP3    H2 7906   0.497   4.873   0.411
 2648TIP3   OH2 7907   1.790   6.591   3.999
 2648TIP3    H1 7908   1.860   6.526   3.992
 2648TIP3    H2 7909   1.753   6.578   4.086
 2649TIP3   OH2 7910   4.830   2.485   4.745
 2649TIP3    H1 7911   4.764   2.548   4.716
 2649TIP3    H2 7912   4.869   2.526   4.823
 2650TIP3   OH2 7913   5.339   5.050   5.345
 2650TIP3    H1 7914   5.289   5.048   5.427
 2650TIP3    H2 7915   5.401   5.121   5.356
 2651TIP3   OH2 7916   0.399   2.686   5.877
 2651TIP3    H1 7917   0.456   2.622   5.920
 2651TIP3    H2 7918   0.317   2.639   5.861
 2652TIP3   OH2 7919   3.554   2.443   0.897
 2652TIP3    H1 7920   3.465   2.410   0.887
 2652TIP3    H2 7921   3.602   2.406   0.823
 2653TIP3   OH2 7922   2.464   1.917   2.421
 2653TIP3    H1 7923   2.535   1.858   2.442
 2653TIP3    H2 7924   2.464   1.923   2.325
 2654TIP3   OH2 7925   1.491   3.381   1.084
 2654TIP3    H1 7926   1.560   3.396   1.019
 2654TIP3    H2 7927   1.427   3.449   1.068
 2655TIP3   OH2 7928   5.106   3.486   0.743
 2655TIP3    H1 7929   5.198   3.507   0.760
 2655TIP3    H2 7930   5.058   3.540   0.806
 2656TIP3   OH2 7931   5.357   0.920   3.928
 2656TIP3    H1 7932   5.345   0.867   3.849
 2656TIP3    H2 7933   5.322   0.865   3.999
 2657TIP3   OH2 7934   3.632   1.045   1.770
 2657TIP3    H1 7935   3.564   0.983   1.796
 2657TIP3    H2 7936   3.710   1.017   1.818
 2658TIP3   OH2 7937   4.558   4.970   1.344
 2658TIP3    H1 7938   4.614   5.000   1.272
 2658TIP3    H2 7939   4.613   4.978   1.421
 2659TIP3   OH2 7940   6.983   0.558   3.129
 2659TIP3    H1 7941   6.951   0.469   3.118
 2659TIP3    H2 7942   7.078   0.548   3.137
 2660TIP3   OH2 7943   4.933   3.929   2.158
 2660TIP3    H1 7944   4.945   3.841   2.121
 2660TIP3    H2 7945   4.906   3.914   2.248
 2661TIP3   OH2 7946   2.272   6.266   0.472
 2661TIP3    H1 7947   2.183   6.236   0.495
 2661TIP3    H2 7948   2.287   6.341   0.529
 2662TIP3   OH2 7949   5.026   6.592   5.834
 2662TIP3    H1 7950   5.063   6.504   5.843
 2662TIP3    H2 7951   4.971   6.604   5.911
 2663TIP3   OH2 7952   4.385   2.424   3.838
 2663TIP3    H1 7953   4.421   2.504   3.875
 2663TIP3    H2 7954   4.291   2.440   3.833
 2664TIP3   OH2 7955   1.880   3.986   1.463
 2664TIP3    H1 7956   1.912   4.060   1.412
 2664TIP3    H2 7957   1.802   4.020   1.507
 2665TIP3   OH2 7958   3.883   4.343   1.133
 2665TIP3    H1 7959   3.917   4.422   1.091
 2665TIP3    H2 7960   3.875   4.367   1.225
 2666TIP3   OH2 7961   1.429   4.514   0.377
 2666TIP3    H1 7962   1.445   4.601   0.339
 2666TIP3    H2 7963   1.457   4.453   0.309
 2667TIP3   OH2 7964   4.680   1.247   0.171
 2667TIP3    H1 7965   4.604   1.239   0.113
 2667TIP3    H2 7966   4.703   1.156   0.193
 2668TIP3   OH2 7967   1.173   0.687   2.363
 2668TIP3    H1 7968   1.123   0.668   2.443
 2668TIP3    H2 7969   1.142   0.773   2.335
 2669TIP3   OH2 7970   6.812   3.595   1.234
 2669TIP3    H1 7971   6.865   3.583   1.313
 2669TIP3    H2 7972   6.865   3.559   1.163
 2670TIP3   OH2 7973   4.919   1.219   2.300
 2670TIP3    H1 7974   4.938   1.180   2.215
 2670TIP3    H2 7975   4.994   1.195   2.355
 2671TIP3   OH2 7976   1.360   2.963   2.261
 2671TIP3    H1 7977   1.400   2.949   2.175
 2671TIP3    H2 7978   1.284   2.905   2.261
 2672TIP3   OH2 7979   6.529   1.303   4.014
 2672TIP3    H1 7980   6.437   1.310   4.041
 2672TIP3    H2 7981   6.577   1.353   4.081
 2673TIP3   OH2 7982   1.879   5.158   5.624
 2673TIP3    H1 7983   1.810   5.098   5.594
 2673TIP3    H2 7984   1.831   5.229   5.667
 2674TIP3   OH2 7985   6.735   5.448   1.273
 2674TIP3    H1 7986   6.662   5.506   1.296
 2674TIP3    H2 7987   6.804   5.507   1.245
 2675TIP3   OH2 7988   6.225   3.175   3.616
 2675TIP3    H1 7989   6.264   3.107   3.562
 2675TIP3    H2 7990   6.287   3.247   3.613
 2676TIP3   OH2 7991   5.596   4.705   4.527
 2676TIP3    H1 7992   5.583   4.716   4.432
 2676TIP3    H2 7993   5.589   4.793   4.563
 2677TIP3   OH2 7994   3.168   1.948   5.141
 2677TIP3    H1 7995   3.205   1.889   5.076
 2677TIP3    H2 7996   3.244   1.984   5.187
 2678TIP3   OH2 7997   1.827   0.539   2.294
 2678TIP3    H1 7998   1.869   0.519   2.377
 2678TIP3    H2 7999   1.896   0.578   2.240
 2679TIP3   OH2 8000   4.526   0.393   0.846
 2679TIP3    H1 8001   4.561   0.389   0.935
 2679TIP3    H2 8002   4.484   0.479   0.840
 2680TIP3   OH2 8003   6.505   6.798   0.676
 2680TIP3    H1 8004   6.446   6.873   0.664
 2680TIP3    H2 8005   6.473   6.755   0.755
 2681TIP3   OH2 8006   1.975   0.020   5.845
 2681TIP3    H1 8007   2.029  -0.006   5.919
 2681TIP3    H2 8008   1.963   0.114   5.855
 2682TIP3   OH2 8009   6.552   0.377   1.177
 2682TIP3    H1 8010   6.580   0.459   1.219
 2682TIP3    H2 8011   6.606   0.371   1.098
 2683TIP3   OH2 8012   1.574   1.238   3.204
 2683TIP3    H1 8013   1.495   1.187   3.188
 2683TIP3    H2 8014   1.610   1.254   3.117
 2684TIP3   OH2 8015   5.846   5.198   1.653
 2684TIP3    H1 8016   5.829   5.128   1.591
 2684TIP3    H2 8017   5.875   5.272   1.599
 2685TIP3   OH2 8018   2.356   4.727   5.807
 2685TIP3    H1 8019   2.443   4.685   5.809
 2685TIP3    H2 8020   2.314   4.698   5.888
 2686TIP3   OH2 8021   1.124   2.401   4.598
 2686TIP3    H1 8022   1.105   2.456   4.674
 2686TIP3    H2 8023   1.075   2.320   4.614
 2687TIP3   OH2 8024   4.779   3.748   3.663
 2687TIP3    H1 8025   4.775   3.688   3.737
 2687TIP3    H2 8026   4.802   3.693   3.588
 2688TIP3   OH2 8027   1.085   0.498   0.061
 2688TIP3    H1 8028   1.090   0.590   0.035
 2688TIP3    H2 8029   1.175   0.474   0.082
 2689TIP3   OH2 8030   1.880   1.533   1.748
 2689TIP3    H1 8031   1.858   1.473   1.819
 2689TIP3    H2 8032   1.797   1.575   1.725
 2690TIP3   OH2 8033   4.055   6.597   3.752
 2690TIP3    H1 8034   4.015   6.517   3.785
 2690TIP3    H2 8035   4.051   6.589   3.657
 2691TIP3   OH2 8036   3.285   1.322   1.141
 2691TIP3    H1 8037   3.314   1.316   1.232
 2691TIP3    H2 8038   3.206   1.375   1.144
 2692TIP3   OH2 8039   0.940   3.254   1.016
 2692TIP3    H1 8040   0.867   3.220   0.963
 2692TIP3    H2 8041   0.953   3.188   1.084
 2693TIP3   OH2 8042   5.277   2.941   0.826
 2693TIP3    H1 8043   5.208   3.006   0.838
 2693TIP3    H2 8044   5.248   2.864   0.875
 2694TIP3   OH2 8045   3.353   4.178   2.770
 2694TIP3    H1 8046   3.327   4.107   2.712
 2694TIP3    H2 8047   3.351   4.140   2.857
 2695TIP3   OH2 8048   0.162   2.132   0.239
 2695TIP3    H1 8049   0.077   2.090   0.231
 2695TIP3    H2 8050   0.146   2.224   0.218
 2696TIP3   OH2 8051   1.949   0.741   2.974
 2696TIP3    H1 8052   1.898   0.821   2.963
 2696TIP3    H2 8053   2.013   0.763   3.042
 2697TIP3   OH2 8054   3.914   2.297   4.226
 2697TIP3    H1 8055   3.952   2.257   4.148
 2697TIP3    H2 8056   3.825   2.261   4.231
 2698TIP3   OH2 8057   4.224   6.083   2.701
 2698TIP3    H1 8058   4.320   6.078   2.707
 2698TIP3    H2 8059   4.207   6.094   2.608
 2699TIP3   OH2 8060   4.398   4.024   2.099
 2699TIP3    H1 8061   4.351   4.086   2.043
 2699TIP3    H2 8062   4.474   4.072   2.131
 2700TIP3   OH2 8063   1.722   6.104   1.069
 2700TIP3    H1 8064   1.706   6.027   1.123
 2700TIP3    H2 8065   1.726   6.177   1.130
 2701TIP3   OH2 8066   4.952   0.300   0.123
 2701TIP3    H1 8067   5.003   0.267   0.197
 2701TIP3    H2 8068   5.015   0.344   0.068
 2702TIP3   OH2 8069   0.225   3.577   2.177
 2702TIP3    H1 8070   0.185   3.607   2.095
 2702TIP3    H2 8071   0.314   3.610   2.173
 2703TIP3   OH2 8072   1.503   6.727   5.772
 2703TIP3    H1 8073   1.596   6.747   5.778
 2703TIP3    H2 8074   1.499   6.631   5.769
 2704TIP3   OH2 8075   3.528   4.910   1.320
 2704TIP3    H1 8076   3.553   4.877   1.407
 2704TIP3    H2 8077   3.609   4.906   1.269
 2705TIP3   OH2 8078   7.213   6.483   5.462
 2705TIP3    H1 8079   7.200   6.576   5.443
 2705TIP3    H2 8080   7.152   6.438   5.404
 2706TIP3   OH2 8081   3.645   5.358   2.108
 2706TIP3    H1 8082   3.552   5.347   2.127
 2706TIP3    H2 8083   3.690   5.327   2.187
 2707TIP3   OH2 8084   4.910   1.036   1.356
 2707TIP3    H1 8085   4.982   0.989   1.314
 2707TIP3    H2 8086   4.953   1.106   1.406
 2708TIP3   OH2 8087   2.348   5.035   3.669
 2708TIP3    H1 8088   2.301   5.038   3.586
 2708TIP3    H2 8089   2.380   5.125   3.682
 2709TIP3   OH2 8090   3.457   4.228   3.261
 2709TIP3    H1 8091   3.517   4.276   3.317
 2709TIP3    H2 8092   3.399   4.182   3.322
 2710TIP3   OH2 8093   3.441   5.843   0.554
 2710TIP3    H1 8094   3.414   5.799   0.635
 2710TIP3    H2 8095   3.460   5.772   0.493
 2711TIP3   OH2 8096   6.509   2.371   0.209
 2711TIP3    H1 8097   6.571   2.319   0.260
 2711TIP3    H2 8098   6.531   2.352   0.118
 2712TIP3   OH2 8099   5.423   0.265   1.905
 2712TIP3    H1 8100   5.469   0.229   1.829
 2712TIP3    H2 8101   5.437   0.359   1.900
 2713TIP3   OH2 8102   5.072   0.223   1.043
 2713TIP3    H1 8103   5.007   0.223   1.113
 2713TIP3    H2 8104   5.040   0.289   0.981
 2714TIP3   OH2 8105   4.063   4.154   3.743
 2714TIP3    H1 8106   4.129   4.222   3.735
 2714TIP3    H2 8107   4.022   4.169   3.827
 2715TIP3   OH2 8108   4.770   1.297   1.575
 2715TIP3    H1 8109   4.845   1.304   1.635
 2715TIP3    H2 8110   4.806   1.319   1.489
 2716TIP3   OH2 8111   0.665   3.533   4.015
 2716TIP3    H1 8112   0.582   3.573   3.989
 2716TIP3    H2 8113   0.706   3.597   4.073
 2717TIP3   OH2 8114   1.084   4.657   1.352
 2717TIP3    H1 8115   1.121   4.594   1.413
 2717TIP3    H2 8116   1.137   4.736   1.362
 2718TIP3   OH2 8117   2.672   3.665   4.337
 2718TIP3    H1 8118   2.680   3.596   4.271
 2718TIP3    H2 8119   2.720   3.631   4.412
 2719TIP3   OH2 8120   0.408   2.100   5.371
 2719TIP3    H1 8121   0.496   2.125   5.344
 2719TIP3    H2 8122   0.350   2.146   5.310
 2720TIP3   OH2 8123   5.469   2.780   5.366
 2720TIP3    H1 8124   5.447   2.687   5.357
 2720TIP3    H2 8125   5.524   2.784   5.444
 2721TIP3   OH2 8126   7.167   3.152   3.852
 2721TIP3    H1 8127   7.084   3.169   3.898
 2721TIP3    H2 8128   7.234   3.190   3.909
 2722TIP3   OH2 8129   3.728   3.254   3.674
 2722TIP3    H1 8130   3.685   3.178   3.714
 2722TIP3    H2 8131   3.816   3.253   3.711
 2723TIP3   OH2 8132   4.342   0.153   0.727
 2723TIP3    H1 8133   4.337   0.246   0.753
 2723TIP3    H2 8134   4.429   0.145   0.687
 2724TIP3   OH2 8135   3.445   6.247   5.354
 2724TIP3    H1 8136   3.481   6.159   5.342
 2724TIP3    H2 8137   3.360   6.233   5.395
 2725TIP3   OH2 8138   1.137   6.017   3.653
 2725TIP3    H1 8139   1.073   5.946   3.650
 2725TIP3    H2 8140   1.087   6.094   3.678
 2726TIP3   OH2 8141   2.340   2.931   5.672
 2726TIP3    H1 8142   2.255   2.912   5.632
 2726TIP3    H2 8143   2.374   2.846   5.698
 2727TIP3   OH2 8144   2.728   6.500   2.114
 2727TIP3    H1 8145   2.794   6.472   2.178
 2727TIP3    H2 8146   2.693   6.581   2.150
 2728TIP3   OH2 8147   0.381   5.910   1.634
 2728TIP3    H1 8148   0.453   5.949   1.682
 2728TIP3    H2 8149   0.324   5.983   1.611
 2729TIP3   OH2 8150   4.907   2.113   1.473
 2729TIP3    H1 8151   4.935   2.192   1.520
 2729TIP3    H2 8152   4.900   2.046   1.541
 2730TIP3   OH2 8153   3.798   5.864   2.922
 2730TIP3    H1 8154   3.886   5.865   2.884
 2730TIP3    H2 8155   3.808   5.817   3.005
 2731TIP3   OH2 8156   6.520   4.739   1.402
 2731TIP3    H1 8157   6.474   4.820   1.425
 2731TIP3    H2 8158   6.451   4.672   1.397
 2732TIP3   OH2 8159   4.467   0.246   2.608
 2732TIP3    H1 8160   4.394   0.185   2.611
 2732TIP3    H2 8161   4.476   0.269   2.515
 2733TIP3   OH2 8162   4.265   2.059   2.169
 2733TIP3    H1 8163   4.225   2.054   2.256
 2733TIP3    H2 8164   4.320   1.981   2.164
 2734TIP3   OH2 8165   5.616   2.325   1.825
 2734TIP3    H1 8166   5.663   2.369   1.895
 2734TIP3    H2 8167   5.534   2.375   1.815
 2735TIP3   OH2 8168   3.206   0.788   3.561
 2735TIP3    H1 8169   3.204   0.706   3.610
 2735TIP3    H2 8170   3.296   0.796   3.530
 2736TIP3   OH2 8171   3.602   4.153   1.489
 2736TIP3    H1 8172   3.521   4.106   1.506
 2736TIP3    H2 8173   3.668   4.104   1.539
 2737TIP3   OH2 8174   0.207   6.381   5.627
 2737TIP3    H1 8175   0.213   6.474   5.646
 2737TIP3    H2 8176   0.133   6.373   5.568
 2738TIP3   OH2 8177   4.354   2.004   3.886
 2738TIP3    H1 8178   4.278   1.948   3.868
 2738TIP3    H2 8179   4.380   2.036   3.799
 2739TIP3   OH2 8180   1.418   1.751   2.105
 2739TIP3    H1 8181   1.487   1.809   2.073
 2739TIP3    H2 8182   1.345   1.764   2.044
 2740TIP3   OH2 8183   3.569   1.509   3.397
 2740TIP3    H1 8184   3.522   1.583   3.435
 2740TIP3    H2 8185   3.508   1.435   3.403
 2741TIP3   OH2 8186   3.342   4.695   3.823
 2741TIP3    H1 8187   3.382   4.637   3.889
 2741TIP3    H2 8188   3.404   4.768   3.815
 2742TIP3   OH2 8189   5.004   3.755   4.895
 2742TIP3    H1 8190   5.078   3.778   4.839
 2742TIP3    H2 8191   5.028   3.672   4.936
 2743TIP3   OH2 8192   0.698   1.756   2.159
 2743TIP3    H1 8193   0.788   1.784   2.175
 2743TIP3    H2 8194   0.645   1.833   2.180
 2744TIP3   OH2 8195   5.139   5.826   1.163
 2744TIP3    H1 8196   5.054   5.805   1.125
 2744TIP3    H2 8197   5.197   5.836   1.088
 2745TIP3   OH2 8198   5.644   2.808   3.202
 2745TIP3    H1 8199   5.639   2.828   3.295
 2745TIP3    H2 8200   5.564   2.844   3.165
 2746TIP3   OH2 8201   6.815   4.054   3.633
 2746TIP3    H1 8202   6.794   3.977   3.685
 2746TIP3    H2 8203   6.840   4.120   3.697
 2747TIP3   OH2 8204   3.015   4.115   5.504
 2747TIP3    H1 8205   2.935   4.153   5.467
 2747TIP3    H2 8206   2.993   4.024   5.522
 2748TIP3   OH2 8207   1.264   2.449   0.215
 2748TIP3    H1 8208   1.187   2.495   0.248
 2748TIP3    H2 8209   1.243   2.431   0.123
 2749TIP3   OH2 8210   0.368   0.580   3.439
 2749TIP3    H1 8211   0.348   0.499   3.486
 2749TIP3    H2 8212   0.310   0.645   3.479
 2750TIP3   OH2 8213   0.768   3.537   2.135
 2750TIP3    H1 8214   0.857   3.503   2.127
 2750TIP3    H2 8215   0.741   3.512   2.224
 2751TIP3   OH2 8216   2.619   6.366   2.892
 2751TIP3    H1 8217   2.529   6.344   2.869
 2751TIP3    H2 8218   2.669   6.287   2.870
 2752TIP3   OH2 8219   1.045   0.675   1.719
 2752TIP3    H1 8220   1.095   0.743   1.763
 2752TIP3    H2 8221   1.004   0.624   1.790
 2753TIP3   OH2 8222   3.633   3.429   0.522
 2753TIP3    H1 8223   3.581   3.492   0.572
 2753TIP3    H2 8224   3.587   3.346   0.534
 2754TIP3   OH2 8225   0.756   5.350   2.812
 2754TIP3    H1 8226   0.842   5.349   2.771
 2754TIP3    H2 8227   0.746   5.440   2.845
 2755TIP3   OH2 8228   2.341   0.138   0.591
 2755TIP3    H1 8229   2.328   0.080   0.515
 2755TIP3    H2 8230   2.426   0.180   0.574
 2756TIP3   OH2 8231   5.634   2.913   5.012
 2756TIP3    H1 8232   5.547   2.882   5.035
 2756TIP3    H2 8233   5.693   2.866   5.071
 2757TIP3   OH2 8234   4.019   0.907   1.963
 2757TIP3    H1 8235   4.073   0.920   2.041
 2757TIP3    H2 8236   3.984   0.819   1.973
 2758TIP3   OH2 8237   1.221   1.806   2.326
 2758TIP3    H1 8238   1.213   1.883   2.270
 2758TIP3    H2 8239   1.308   1.772   2.308
 2759TIP3   OH2 8240   1.207   2.744   3.098
 2759TIP3    H1 8241   1.159   2.814   3.142
 2759TIP3    H2 8242   1.277   2.789   3.050
 2760TIP3   OH2 8243   3.328   5.842   2.308
 2760TIP3    H1 8244   3.289   5.761   2.275
 2760TIP3    H2 8245   3.258   5.907   2.298
 2761TIP3   OH2 8246   3.002   3.337   4.235
 2761TIP3    H1 8247   3.060   3.350   4.160
 2761TIP3    H2 8248   3.060   3.348   4.311
 2762TIP3   OH2 8249   3.876   2.919   3.767
 2762TIP3    H1 8250   3.902   2.827   3.765
 2762TIP3    H2 8251   3.845   2.937   3.679
 2763TIP3   OH2 8252   4.343   5.286   2.611
 2763TIP3    H1 8253   4.252   5.262   2.630
 2763TIP3    H2 8254   4.371   5.222   2.546
 2764TIP3   OH2 8255   4.444   2.473   1.681
 2764TIP3    H1 8256   4.371   2.434   1.633
 2764TIP3    H2 8257   4.404   2.541   1.734
 2765TIP3   OH2 8258   1.995   2.918   3.320
 2765TIP3    H1 8259   2.072   2.878   3.280
 2765TIP3    H2 8260   1.935   2.845   3.334
 2766TIP3   OH2 8261   0.737   2.067   0.652
 2766TIP3    H1 8262   0.787   2.113   0.719
 2766TIP3    H2 8263   0.680   2.007   0.701
 2767TIP3   OH2 8264   4.185   5.089   2.062
 2767TIP3    H1 8265   4.094   5.119   2.072
 2767TIP3    H2 8266   4.205   5.047   2.146
 2768TIP3   OH2 8267   0.405   5.678   3.586
 2768TIP3    H1 8268   0.357   5.725   3.518
 2768TIP3    H2 8269   0.420   5.591   3.549
 2769TIP3   OH2 8270   6.545   4.568   4.704
 2769TIP3    H1 8271   6.543   4.646   4.759
 2769TIP3    H2 8272   6.458   4.563   4.665
 2770TIP3   OH2 8273   4.179   3.394   0.530
 2770TIP3    H1 8274   4.193   3.424   0.619
 2770TIP3    H2 8275   4.093   3.352   0.532
 2771TIP3   OH2 8276   5.465   2.066   4.107
 2771TIP3    H1 8277   5.523   1.990   4.099
 2771TIP3    H2 8278   5.378   2.028   4.119
 2772TIP3   OH2 8279   1.782   4.438   4.097
 2772TIP3    H1 8280   1.789   4.359   4.151
 2772TIP3    H2 8281   1.711   4.418   4.036
 2773TIP3   OH2 8282   1.291   3.466   3.231
 2773TIP3    H1 8283   1.373   3.444   3.188
 2773TIP3    H2 8284   1.291   3.414   3.311
 2774TIP3   OH2 8285   5.385   2.163   1.058
 2774TIP3    H1 8286   5.453   2.230   1.056
 2774TIP3    H2 8287   5.305   2.208   1.030
 2775TIP3   OH2 8288   3.134   3.312   3.990
 2775TIP3    H1 8289   3.057   3.320   3.934
 2775TIP3    H2 8290   3.150   3.218   3.997
 2776TIP3   OH2 8291   3.546   0.432   1.399
 2776TIP3    H1 8292   3.459   0.417   1.361
 2776TIP3    H2 8293   3.529   0.477   1.481
 2777TIP3   OH2 8294   6.025   2.903   0.636
 2777TIP3    H1 8295   6.116   2.917   0.609
 2777TIP3    H2 8296   5.973   2.955   0.574
 2778TIP3   OH2 8297   4.946   0.082   1.422
 2778TIP3    H1 8298   5.032   0.121   1.404
 2778TIP3    H2 8299   4.925   0.109   1.511
 2779TIP3   OH2 8300   2.625   5.851   3.252
 2779TIP3    H1 8301   2.720   5.853   3.263
 2779TIP3    H2 8302   2.592   5.912   3.318
 2780TIP3   OH2 8303   0.409   4.773   1.073
 2780TIP3    H1 8304   0.498   4.795   1.049
 2780TIP3    H2 8305   0.415   4.686   1.112
 2781TIP3   OH2 8306   6.494   5.138   5.391
 2781TIP3    H1 8307   6.588   5.149   5.372
 2781TIP3    H2 8308   6.456   5.223   5.370
 2782TIP3   OH2 8309   0.123   6.713   4.982
 2782TIP3    H1 8310   0.097   6.730   4.891
 2782TIP3    H2 8311   0.056   6.754   5.035
 2783TIP3   OH2 8312   6.684   0.529   3.240
 2783TIP3    H1 8313   6.664   0.588   3.167
 2783TIP3    H2 8314   6.634   0.450   3.221
 2784TIP3   OH2 8315   1.363   2.633   3.290
 2784TIP3    H1 8316   1.419   2.571   3.243
 2784TIP3    H2 8317   1.286   2.644   3.234
 2785TIP3   OH2 8318   1.770   4.289   0.703
 2785TIP3    H1 8319   1.686   4.306   0.660
 2785TIP3    H2 8320   1.763   4.336   0.787
 2786TIP3   OH2 8321   2.225   4.075   2.632
 2786TIP3    H1 8322   2.223   4.117   2.718
 2786TIP3    H2 8323   2.164   4.126   2.579
 2787TIP3   OH2 8324   1.532   1.688   3.427
 2787TIP3    H1 8325   1.472   1.614   3.428
 2787TIP3    H2 8326   1.482   1.759   3.387
 2788TIP3   OH2 8327   6.889   2.579   0.520
 2788TIP3    H1 8328   6.863   2.620   0.438
 2788TIP3    H2 8329   6.829   2.615   0.585
 2789TIP3   OH2 8330   4.486   4.206   1.660
 2789TIP3    H1 8331   4.418   4.195   1.726
 2789TIP3    H2 8332   4.568   4.213   1.709
 2790TIP3   OH2 8333   3.760   4.635   2.343
 2790TIP3    H1 8334   3.852   4.610   2.339
 2790TIP3    H2 8335   3.731   4.607   2.430
 2791TIP3   OH2 8336   5.250   3.155   3.305
 2791TIP3    H1 8337   5.238   3.151   3.400
 2791TIP3    H2 8338   5.166   3.188   3.273
 2792TIP3   OH2 8339   0.537   5.822   3.762
 2792TIP3    H1 8340   0.490   5.782   3.689
 2792TIP3    H2 8341   0.565   5.748   3.817
 2793TIP3   OH2 8342   4.588   6.480   1.165
 2793TIP3    H1 8343   4.594   6.432   1.083
 2793TIP3    H2 8344   4.643   6.430   1.226
 2794TIP3   OH2 8345   2.576   1.002   2.940
 2794TIP3    H1 8346   2.615   0.993   3.027
 2794TIP3    H2 8347   2.482   1.003   2.957
 2795TIP3   OH2 8348   1.532   6.493   0.899
 2795TIP3    H1 8349   1.591   6.568   0.904
 2795TIP3    H2 8350   1.589   6.417   0.913
 2796TIP3   OH2 8351   5.507   2.209   3.451
 2796TIP3    H1 8352   5.485   2.124   3.412
 2796TIP3    H2 8353   5.429   2.263   3.436
 2797TIP3   OH2 8354   6.158   5.538   4.386
 2797TIP3    H1 8355   6.188   5.534   4.296
 2797TIP3    H2 8356   6.155   5.632   4.406
 2798TIP3   OH2 8357   3.991   4.447   3.153
 2798TIP3    H1 8358   3.916   4.387   3.148
 2798TIP3    H2 8359   4.049   4.408   3.219
 2799TIP3   OH2 8360   6.181   5.427   0.847
 2799TIP3    H1 8361   6.170   5.515   0.884
 2799TIP3    H2 8362   6.115   5.422   0.778
 2800TIP3   OH2 8363   5.488   1.733   0.165
 2800TIP3    H1 8364   5.536   1.809   0.199
 2800TIP3    H2 8365   5.396   1.756   0.173
 2801TIP3   OH2 8366   2.292   4.334   5.621
 2801TIP3    H1 8367   2.359   4.300   5.681
 2801TIP3    H2 8368   2.224   4.266   5.621
 2802TIP3   OH2 8369   3.291   6.488   3.368
 2802TIP3    H1 8370   3.202   6.518   3.351
 2802TIP3    H2 8371   3.312   6.524   3.454
 2803TIP3   OH2 8372  -0.013   2.713   3.301
 2803TIP3    H1 8373   0.032   2.629   3.298
 2803TIP3    H2 8374  -0.048   2.724   3.212
 2804TIP3   OH2 8375   6.192   3.163   0.293
 2804TIP3    H1 8376   6.247   3.235   0.325
 2804TIP3    H2 8377   6.134   3.204   0.229
 2805TIP3   OH2 8378   3.419   6.077   4.481
 2805TIP3    H1 8379   3.425   6.116   4.394
 2805TIP3    H2 8380   3.459   5.991   4.472
 2806TIP3   OH2 8381   4.229   0.859   4.295
 2806TIP3    H1 8382   4.306   0.819   4.254
 2806TIP3    H2 8383   4.207   0.800   4.367
 2807TIP3   OH2 8384   0.146   3.200   2.451
 2807TIP3    H1 8385   0.173   3.255   2.525
 2807TIP3    H2 8386   0.218   3.206   2.389
 2808TIP3   OH2 8387   4.339   1.515   2.448
 2808TIP3    H1 8388   4.422   1.563   2.446
 2808TIP3    H2 8389   4.359   1.432   2.406
 2809TIP3   OH2 8390   3.672   2.614   3.505
 2809TIP3    H1 8391   3.688   2.543   3.567
 2809TIP3    H2 8392   3.630   2.571   3.430
 2810TIP3   OH2 8393   6.779   2.926   4.032
 2810TIP3    H1 8394   6.753   2.849   3.982
 2810TIP3    H2 8395   6.707   2.941   4.093
 2811TIP3   OH2 8396   6.941   2.484   4.914
 2811TIP3    H1 8397   6.880   2.411   4.904
 2811TIP3    H2 8398   7.023   2.451   4.876
 2812TIP3   OH2 8399   5.062   6.110   0.443
 2812TIP3    H1 8400   5.131   6.138   0.383
 2812TIP3    H2 8401   5.032   6.192   0.484
 2813TIP3   OH2 8402   5.959   1.291   4.961
 2813TIP3    H1 8403   5.926   1.365   4.910
 2813TIP3    H2 8404   6.021   1.330   5.023
 2814TIP3   OH2 8405   3.184   2.877   5.364
 2814TIP3    H1 8406   3.096   2.911   5.382
 2814TIP3    H2 8407   3.238   2.910   5.436
 2815TIP3   OH2 8408   1.019   2.528   1.716
 2815TIP3    H1 8409   1.073   2.459   1.677
 2815TIP3    H2 8410   1.066   2.609   1.696
 2816TIP3   OH2 8411   4.116   2.665   4.729
 2816TIP3    H1 8412   4.198   2.698   4.765
 2816TIP3    H2 8413   4.141   2.584   4.685
 2817TIP3   OH2 8414   7.005   1.295   1.159
 2817TIP3    H1 8415   6.933   1.315   1.217
 2817TIP3    H2 8416   6.975   1.219   1.108
 2818TIP3   OH2 8417   2.964   1.243   3.579
 2818TIP3    H1 8418   3.002   1.206   3.659
 2818TIP3    H2 8419   2.876   1.206   3.575
 2819TIP3   OH2 8420   5.755   5.127   2.446
 2819TIP3    H1 8421   5.669   5.098   2.415
 2819TIP3    H2 8422   5.763   5.088   2.532
 2820TIP3   OH2 8423   5.391   6.560   1.954
 2820TIP3    H1 8424   5.400   6.490   1.889
 2820TIP3    H2 8425   5.440   6.529   2.030
 2821TIP3   OH2 8426   1.087   1.742   0.064
 2821TIP3    H1 8427   1.093   1.828   0.022
 2821TIP3    H2 8428   1.059   1.683  -0.007
 2822TIP3   OH2 8429   0.724   3.229   0.699
 2822TIP3    H1 8430   0.763   3.298   0.645
 2822TIP3    H2 8431   0.639   3.264   0.725
 2823TIP3   OH2 8432   0.987   6.281   3.961
 2823TIP3    H1 8433   0.983   6.311   4.052
 2823TIP3    H2 8434   0.923   6.335   3.915
 2824TIP3   OH2 8435   6.943   6.210   0.941
 2824TIP3    H1 8436   6.910   6.146   0.878
 2824TIP3    H2 8437   7.016   6.253   0.895
 2825TIP3   OH2 8438   2.825   6.187   0.312
 2825TIP3    H1 8439   2.759   6.219   0.250
 2825TIP3    H2 8440   2.779   6.182   0.396
 2826TIP3   OH2 8441   5.045   0.776   3.537
 2826TIP3    H1 8442   5.012   0.689   3.515
 2826TIP3    H2 8443   5.036   0.782   3.632
 2827TIP3   OH2 8444   0.765   0.167   4.271
 2827TIP3    H1 8445   0.833   0.233   4.285
 2827TIP3    H2 8446   0.776   0.105   4.343
 2828TIP3   OH2 8447   6.708   1.096   3.386
 2828TIP3    H1 8448   6.712   1.023   3.324
 2828TIP3    H2 8449   6.615   1.103   3.409
 2829TIP3   OH2 8450   2.264   3.486   0.359
 2829TIP3    H1 8451   2.193   3.537   0.322
 2829TIP3    H2 8452   2.340   3.544   0.358
 2830TIP3   OH2 8453   5.087   4.830   0.550
 2830TIP3    H1 8454   5.010   4.803   0.500
 2830TIP3    H2 8455   5.074   4.923   0.565
 2831TIP3   OH2 8456   0.828   1.111   5.264
 2831TIP3    H1 8457   0.887   1.047   5.225
 2831TIP3    H2 8458   0.866   1.129   5.350
 2832TIP3   OH2 8459   0.813   2.975   3.769
 2832TIP3    H1 8460   0.809   3.071   3.768
 2832TIP3    H2 8461   0.904   2.955   3.790
 2833TIP3   OH2 8462   1.293   1.137   2.441
 2833TIP3    H1 8463   1.238   1.116   2.366
 2833TIP3    H2 8464   1.341   1.057   2.460
 2834TIP3   OH2 8465   6.800   4.292   1.639
 2834TIP3    H1 8466   6.722   4.303   1.695
 2834TIP3    H2 8467   6.805   4.198   1.623
 2835TIP3   OH2 8468   0.794   1.011   0.440
 2835TIP3    H1 8469   0.769   1.099   0.412
 2835TIP3    H2 8470   0.879   0.996   0.399
 2836TIP3   OH2 8471   0.581   2.133   4.142
 2836TIP3    H1 8472   0.674   2.111   4.146
 2836TIP3    H2 8473   0.578   2.228   4.154
 2837TIP3   OH2 8474   3.026   3.668   4.515
 2837TIP3    H1 8475   2.952   3.611   4.532
 2837TIP3    H2 8476   3.007   3.749   4.562
 2838TIP3   OH2 8477   6.470   4.471   5.864
 2838TIP3    H1 8478   6.412   4.466   5.940
 2838TIP3    H2 8479   6.444   4.398   5.808
 2839TIP3   OH2 8480   0.894   0.568   5.012
 2839TIP3    H1 8481   0.810   0.523   5.003
 2839TIP3    H2 8482   0.954   0.500   5.042
 2840TIP3   OH2 8483   5.896   3.751   1.723
 2840TIP3    H1 8484   5.830   3.768   1.655
 2840TIP3    H2 8485   5.935   3.667   1.699
 2841TIP3   OH2 8486   4.832   1.091   4.707
 2841TIP3    H1 8487   4.834   1.001   4.675
 2841TIP3    H2 8488   4.740   1.116   4.704
 2842TIP3   OH2 8489   7.253   6.077   0.301
 2842TIP3    H1 8490   7.179   6.138   0.296
 2842TIP3    H2 8491   7.217   6.000   0.345
 2843TIP3   OH2 8492   5.825   0.668   4.282
 2843TIP3    H1 8493   5.803   0.580   4.313
 2843TIP3    H2 8494   5.805   0.725   4.357
 2844TIP3   OH2 8495   1.253   2.664   5.029
 2844TIP3    H1 8496   1.213   2.685   4.945
 2844TIP3    H2 8497   1.286   2.748   5.061
 2845TIP3   OH2 8498   3.655   5.854   1.799
 2845TIP3    H1 8499   3.698   5.816   1.722
 2845TIP3    H2 8500   3.614   5.934   1.765
 2846TIP3   OH2 8501   6.148   3.908   0.910
 2846TIP3    H1 8502   6.135   3.836   0.972
 2846TIP3    H2 8503   6.174   3.865   0.829
 2847TIP3   OH2 8504   0.548   5.273   2.987
 2847TIP3    H1 8505   0.516   5.187   2.960
 2847TIP3    H2 8506   0.636   5.278   2.949
 2848TIP3   OH2 8507   0.076   4.128   3.821
 2848TIP3    H1 8508   0.047   4.040   3.796
 2848TIP3    H2 8509   0.087   4.124   3.916
 2849TIP3   OH2 8510   0.258   4.236   2.076
 2849TIP3    H1 8511   0.217   4.276   2.153
 2849TIP3    H2 8512   0.298   4.310   2.029
 2850TIP3   OH2 8513   2.438   5.727   2.617
 2850TIP3    H1 8514   2.450   5.810   2.663
 2850TIP3    H2 8515   2.524   5.685   2.622
 2851TIP3   OH2 8516   1.380   5.777   4.092
 2851TIP3    H1 8517   1.311   5.763   4.026
 2851TIP3    H2 8518   1.434   5.847   4.055
 2852TIP3   OH2 8519   0.200   6.306   2.156
 2852TIP3    H1 8520   0.118   6.256   2.159
 2852TIP3    H2 8521   0.175   6.392   2.122
 2853TIP3   OH2 8522   0.873   1.226   4.372
 2853TIP3    H1 8523   0.895   1.185   4.456
 2853TIP3    H2 8524   0.814   1.163   4.330
 2854TIP3   OH2 8525   3.999   4.554   3.990
 2854TIP3    H1 8526   4.022   4.614   3.920
 2854TIP3    H2 8527   3.936   4.602   4.044
 2855TIP3   OH2 8528   6.658   5.210   3.994
 2855TIP3    H1 8529   6.638   5.125   3.954
 2855TIP3    H2 8530   6.754   5.215   3.993
 2856TIP3   OH2 8531   0.477   2.322   5.640
 2856TIP3    H1 8532   0.506   2.239   5.677
 2856TIP3    H2 8533   0.555   2.378   5.641
 2857TIP3   OH2 8534   6.477   5.461   2.600
 2857TIP3    H1 8535   6.488   5.367   2.584
 2857TIP3    H2 8536   6.553   5.501   2.558
 2858TIP3   OH2 8537   6.001   0.942   0.148
 2858TIP3    H1 8538   5.915   0.918   0.182
 2858TIP3    H2 8539   5.983   1.014   0.087
 2859TIP3   OH2 8540   6.877   0.738   1.393
 2859TIP3    H1 8541   6.834   0.823   1.383
 2859TIP3    H2 8542   6.844   0.704   1.476
 2860TIP3   OH2 8543   5.192   0.387   0.549
 2860TIP3    H1 8544   5.226   0.476   0.542
 2860TIP3    H2 8545   5.101   0.398   0.575
 2861TIP3   OH2 8546   2.298   1.908   4.051
 2861TIP3    H1 8547   2.308   1.976   3.984
 2861TIP3    H2 8548   2.284   1.827   4.001
 2862TIP3   OH2 8549   2.836   3.777   3.001
 2862TIP3    H1 8550   2.920   3.776   2.956
 2862TIP3    H2 8551   2.826   3.688   3.036
 2863TIP3   OH2 8552   1.058   2.341   0.517
 2863TIP3    H1 8553   1.127   2.279   0.542
 2863TIP3    H2 8554   1.095   2.427   0.537
 2864TIP3   OH2 8555   1.708   3.760   4.478
 2864TIP3    H1 8556   1.669   3.675   4.501
 2864TIP3    H2 8557   1.636   3.822   4.483
 2865TIP3   OH2 8558   4.044   5.469   2.826
 2865TIP3    H1 8559   3.995   5.521   2.890
 2865TIP3    H2 8560   4.130   5.457   2.865
 2866TIP3   OH2 8561   0.897   4.513   3.944
 2866TIP3    H1 8562   0.858   4.599   3.956
 2866TIP3    H2 8563   0.964   4.527   3.877
 2867TIP3   OH2 8564   1.244   5.804   4.347
 2867TIP3    H1 8565   1.303   5.805   4.422
 2867TIP3    H2 8566   1.302   5.808   4.271
 2868TIP3   OH2 8567   4.939   3.174   3.526
 2868TIP3    H1 8568   5.029   3.200   3.543
 2868TIP3    H2 8569   4.901   3.163   3.614
 2869TIP3   OH2 8570   7.060   6.242   1.224
 2869TIP3    H1 8571   7.021   6.222   1.139
 2869TIP3    H2 8572   7.022   6.176   1.283
 2870TIP3   OH2 8573   5.703   0.241   2.297
 2870TIP3    H1 8574   5.752   0.278   2.223
 2870TIP3    H2 8575   5.752   0.163   2.321
 2871TIP3   OH2 8576   0.675   0.066   1.618
 2871TIP3    H1 8577   0.763   0.094   1.593
 2871TIP3    H2 8578   0.658  -0.010   1.562
 2872TIP3   OH2 8579   6.495   2.698   4.688
 2872TIP3    H1 8580   6.541   2.659   4.763
 2872TIP3    H2 8581   6.404   2.702   4.717
 2873TIP3   OH2 8582   3.060   5.828   5.018
 2873TIP3    H1 8583   3.110   5.910   5.025
 2873TIP3    H2 8584   3.095   5.773   5.088
 2874TIP3   OH2 8585   0.225   4.036   0.262
 2874TIP3    H1 8586   0.310   4.064   0.229
 2874TIP3    H2 8587   0.179   4.118   0.283
 2875TIP3   OH2 8588   1.778   0.785   1.554
 2875TIP3    H1 8589   1.749   0.875   1.540
 2875TIP3    H2 8590   1.707   0.731   1.517
 2876TIP3   OH2 8591   5.078   0.209   0.352
 2876TIP3    H1 8592   5.062   0.146   0.422
 2876TIP3    H2 8593   5.149   0.265   0.385
 2877TIP3   OH2 8594   6.681   5.012   4.636
 2877TIP3    H1 8595   6.701   5.067   4.559
 2877TIP3    H2 8596   6.680   5.074   4.709
 2878TIP3   OH2 8597   6.328   4.511   2.944
 2878TIP3    H1 8598   6.253   4.540   2.995
 2878TIP3    H2 8599   6.397   4.575   2.965
 2879TIP3   OH2 8600   2.311   1.906   5.329
 2879TIP3    H1 8601   2.394   1.877   5.289
 2879TIP3    H2 8602   2.319   2.001   5.334
 2880TIP3   OH2 8603   5.476   2.391   5.707
 2880TIP3    H1 8604   5.385   2.379   5.681
 2880TIP3    H2 8605   5.527   2.369   5.629
 2881TIP3   OH2 8606   3.599   4.999   5.677
 2881TIP3    H1 8607   3.543   4.942   5.624
 2881TIP3    H2 8608   3.687   4.963   5.666
 2882TIP3   OH2 8609   0.917   1.237   2.356
 2882TIP3    H1 8610   0.967   1.157   2.346
 2882TIP3    H2 8611   0.982   1.306   2.369
 2883TIP3   OH2 8612   2.858   4.104   4.903
 2883TIP3    H1 8613   2.822   4.028   4.948
 2883TIP3    H2 8614   2.896   4.158   4.972
 2884TIP3   OH2 8615   2.594   5.924   3.546
 2884TIP3    H1 8616   2.504   5.911   3.575
 2884TIP3    H2 8617   2.646   5.871   3.606
 2885TIP3   OH2 8618   5.539   5.263   1.655
 2885TIP3    H1 8619   5.490   5.218   1.586
 2885TIP3    H2 8620   5.631   5.253   1.629
 2886TIP3   OH2 8621   3.616   0.225   3.392
 2886TIP3    H1 8622   3.597   0.131   3.398
 2886TIP3    H2 8623   3.700   0.235   3.436
 2887TIP3   OH2 8624   0.075   4.118   1.113
 2887TIP3    H1 8625   0.116   4.041   1.152
 2887TIP3    H2 8626   0.072   4.182   1.184
 2888TIP3   OH2 8627   4.748   1.927   4.219
 2888TIP3    H1 8628   4.698   1.979   4.157
 2888TIP3    H2 8629   4.685   1.906   4.289
 2889TIP3   OH2 8630   2.124   5.682   2.325
 2889TIP3    H1 8631   2.194   5.745   2.343
 2889TIP3    H2 8632   2.048   5.717   2.372
 2890TIP3   OH2 8633   3.301   2.404   5.306
 2890TIP3    H1 8634   3.240   2.370   5.241
 2890TIP3    H2 8635   3.256   2.480   5.343
 2891TIP3   OH2 8636   5.048   3.845   0.719
 2891TIP3    H1 8637   5.089   3.917   0.767
 2891TIP3    H2 8638   5.021   3.783   0.786
 2892TIP3   OH2 8639   6.615   0.648   0.632
 2892TIP3    H1 8640   6.632   0.664   0.725
 2892TIP3    H2 8641   6.590   0.734   0.598
 2893TIP3   OH2 8642   6.945   4.738   2.582
 2893TIP3    H1 8643   6.863   4.687   2.583
 2893TIP3    H2 8644   7.002   4.689   2.523
 2894TIP3   OH2 8645   5.646   2.056   1.820
 2894TIP3    H1 8646   5.625   2.142   1.858
 2894TIP3    H2 8647   5.634   2.068   1.726
 2895TIP3   OH2 8648   5.338   1.599   0.934
 2895TIP3    H1 8649   5.414   1.627   0.884
 2895TIP3    H2 8650   5.368   1.523   0.984
 2896TIP3   OH2 8651   2.674   5.355   3.698
 2896TIP3    H1 8652   2.650   5.434   3.650
 2896TIP3    H2 8653   2.620   5.357   3.777
 2897TIP3   OH2 8654   3.259   3.921   0.184
 2897TIP3    H1 8655   3.311   3.851   0.222
 2897TIP3    H2 8656   3.297   3.935   0.097
 2898TIP3   OH2 8657   5.156   3.907   5.471
 2898TIP3    H1 8658   5.193   3.905   5.383
 2898TIP3    H2 8659   5.189   3.988   5.509
 2899TIP3   OH2 8660   1.610   2.306   4.026
 2899TIP3    H1 8661   1.623   2.279   3.935
 2899TIP3    H2 8662   1.542   2.247   4.058
 2900TIP3   OH2 8663   2.033   4.385   3.483
 2900TIP3    H1 8664   2.129   4.386   3.481
 2900TIP3    H2 8665   2.007   4.392   3.391
 2901TIP3   OH2 8666   1.528   5.757   3.135
 2901TIP3    H1 8667   1.568   5.775   3.220
 2901TIP3    H2 8668   1.526   5.842   3.091
 2902TIP3   OH2 8669   2.870   4.116   0.376
 2902TIP3    H1 8670   2.848   4.128   0.283
 2902TIP3    H2 8671   2.904   4.200   0.404
 2903TIP3   OH2 8672   6.008   4.307   1.748
 2903TIP3    H1 8673   5.986   4.317   1.656
 2903TIP3    H2 8674   6.072   4.376   1.766
 2904TIP3   OH2 8675   3.075   1.342   2.459
 2904TIP3    H1 8676   3.026   1.365   2.380
 2904TIP3    H2 8677   3.146   1.285   2.427
 2905TIP3   OH2 8678   0.899   2.910   1.729
 2905TIP3    H1 8679   0.847   2.991   1.731
 2905TIP3    H2 8680   0.982   2.934   1.770
 2906TIP3   OH2 8681   1.717   2.034   2.919
 2906TIP3    H1 8682   1.710   1.941   2.896
 2906TIP3    H2 8683   1.812   2.050   2.921
 2907TIP3   OH2 8684   4.793   4.893   2.163
 2907TIP3    H1 8685   4.706   4.895   2.124
 2907TIP3    H2 8686   4.781   4.928   2.252
 2908TIP3   OH2 8687   6.394   5.224   4.036
 2908TIP3    H1 8688   6.395   5.148   3.977
 2908TIP3    H2 8689   6.487   5.247   4.047
 2909TIP3   OH2 8690   0.361   0.262   5.607
 2909TIP3    H1 8691   0.297   0.191   5.618
 2909TIP3    H2 8692   0.398   0.274   5.695
 2910TIP3   OH2 8693   0.230   2.839   1.722
 2910TIP3    H1 8694   0.146   2.884   1.728
 2910TIP3    H2 8695   0.234   2.785   1.801
 2911TIP3   OH2 8696   0.312   2.605   3.478
 2911TIP3    H1 8697   0.349   2.688   3.451
 2911TIP3    H2 8698   0.293   2.559   3.397
 2912TIP3   OH2 8699   2.057   3.568   3.900
 2912TIP3    H1 8700   2.145   3.604   3.915
 2912TIP3    H2 8701   2.072   3.481   3.862
 2913TIP3   OH2 8702   6.596   0.130   0.205
 2913TIP3    H1 8703   6.686   0.154   0.180
 2913TIP3    H2 8704   6.588   0.159   0.295
 2914TIP3   OH2 8705   3.618   1.744   1.238
 2914TIP3    H1 8706   3.675   1.749   1.161
 2914TIP3    H2 8707   3.679   1.743   1.313
 2915TIP3   OH2 8708   5.662   1.824   3.689
 2915TIP3    H1 8709   5.684   1.750   3.632
 2915TIP3    H2 8710   5.567   1.817   3.703
 2916TIP3   OH2 8711   1.181   0.784   0.282
 2916TIP3    H1 8712   1.236   0.706   0.289
 2916TIP3    H2 8713   1.093   0.750   0.266
 2917TIP3   OH2 8714   4.800   2.376   5.297
 2917TIP3    H1 8715   4.728   2.345   5.352
 2917TIP3    H2 8716   4.788   2.331   5.214
 2918TIP3   OH2 8717   5.061   6.749   5.179
 2918TIP3    H1 8718   5.109   6.685   5.232
 2918TIP3    H2 8719   5.119   6.769   5.106
 2919TIP3   OH2 8720   0.060   0.601   3.115
 2919TIP3    H1 8721   0.099   0.517   3.137
 2919TIP3    H2 8722   0.089   0.618   3.025
 2920TIP3   OH2 8723   2.162   1.582   5.246
 2920TIP3    H1 8724   2.097   1.652   5.249
 2920TIP3    H2 8725   2.216   1.597   5.324
 2921TIP3   OH2 8726   3.609   4.287   4.302
 2921TIP3    H1 8727   3.522   4.254   4.320
 2921TIP3    H2 8728   3.632   4.339   4.380
 2922TIP3   OH2 8729   1.592   6.051   4.402
 2922TIP3    H1 8730   1.603   6.087   4.490
 2922TIP3    H2 8731   1.638   6.113   4.345
 2923TIP3   OH2 8732   6.586   1.201   0.083
 2923TIP3    H1 8733   6.540   1.127   0.123
 2923TIP3    H2 8734   6.529   1.228   0.011
 2924TIP3   OH2 8735   2.352   4.217   0.256
 2924TIP3    H1 8736   2.298   4.296   0.261
 2924TIP3    H2 8737   2.350   4.181   0.345
 2925TIP3   OH2 8738   5.535   0.994   1.574
 2925TIP3    H1 8739   5.464   1.020   1.633
 2925TIP3    H2 8740   5.607   0.971   1.632
 2926TIP3   OH2 8741   3.223   5.530   1.651
 2926TIP3    H1 8742   3.134   5.525   1.684
 2926TIP3    H2 8743   3.215   5.573   1.566
 2927TIP3   OH2 8744   6.513   0.805   2.275
 2927TIP3    H1 8745   6.555   0.885   2.246
 2927TIP3    H2 8746   6.459   0.778   2.201
 2928TIP3   OH2 8747   4.739   0.234   4.571
 2928TIP3    H1 8748   4.723   0.163   4.508
 2928TIP3    H2 8749   4.832   0.254   4.560
 2929TIP3   OH2 8750   4.409   0.432   2.149
 2929TIP3    H1 8751   4.313   0.432   2.148
 2929TIP3    H2 8752   4.432   0.525   2.148
 2930TIP3   OH2 8753   3.551   0.692   4.821
 2930TIP3    H1 8754   3.645   0.684   4.803
 2930TIP3    H2 8755   3.513   0.721   4.738
 2931TIP3   OH2 8756   2.165   1.574   4.212
 2931TIP3    H1 8757   2.088   1.545   4.162
 2931TIP3    H2 8758   2.228   1.502   4.201
 2932TIP3   OH2 8759   4.201   6.546   2.752
 2932TIP3    H1 8760   4.232   6.506   2.671
 2932TIP3    H2 8761   4.280   6.574   2.797
 2933TIP3   OH2 8762   3.362   2.443   1.248
 2933TIP3    H1 8763   3.373   2.477   1.337
 2933TIP3    H2 8764   3.269   2.451   1.230
 2934TIP3   OH2 8765   0.939   0.157   0.835
 2934TIP3    H1 8766   0.852   0.174   0.872
 2934TIP3    H2 8767   0.948   0.062   0.836
 2935TIP3   OH2 8768   3.292   1.244   0.562
 2935TIP3    H1 8769   3.271   1.213   0.650
 2935TIP3    H2 8770   3.206   1.257   0.520
 2936TIP3   OH2 8771   3.963   4.580   0.998
 2936TIP3    H1 8772   3.912   4.661   1.000
 2936TIP3    H2 8773   4.052   4.607   1.022
 2937TIP3   OH2 8774   6.686   2.096   5.184
 2937TIP3    H1 8775   6.751   2.149   5.138
 2937TIP3    H2 8776   6.641   2.158   5.241
 2938TIP3   OH2 8777   0.202   2.937   0.931
 2938TIP3    H1 8778   0.271   2.914   0.867
 2938TIP3    H2 8779   0.229   2.893   1.012
 2939TIP3   OH2 8780   3.066   4.472   2.557
 2939TIP3    H1 8781   3.025   4.441   2.638
 2939TIP3    H2 8782   3.159   4.470   2.576
 2940TIP3   OH2 8783   5.424   2.382   0.102
 2940TIP3    H1 8784   5.485   2.443   0.144
 2940TIP3    H2 8785   5.458   2.370   0.014
 2941TIP3   OH2 8786   0.728   4.726   4.652
 2941TIP3    H1 8787   0.796   4.672   4.693
 2941TIP3    H2 8788   0.648   4.706   4.701
 2942TIP3   OH2 8789   1.506   4.639   4.080
 2942TIP3    H1 8790   1.487   4.732   4.096
 2942TIP3    H2 8791   1.567   4.615   4.149
 2943TIP3   OH2 8792   1.585   1.609   4.113
 2943TIP3    H1 8793   1.642   1.665   4.165
 2943TIP3    H2 8794   1.643   1.568   4.049
 2944TIP3   OH2 8795   0.747   3.302   1.386
 2944TIP3    H1 8796   0.694   3.332   1.459
 2944TIP3    H2 8797   0.697   3.326   1.308
 2945TIP3   OH2 8798   3.006   2.073   4.001
 2945TIP3    H1 8799   2.927   2.038   4.042
 2945TIP3    H2 8800   2.974   2.134   3.935
 2946TIP3   OH2 8801   5.538   3.131   0.320
 2946TIP3    H1 8802   5.545   3.106   0.228
 2946TIP3    H2 8803   5.524   3.048   0.366
 2947TIP3   OH2 8804   3.219   0.062   2.842
 2947TIP3    H1 8805   3.157  -0.009   2.825
 2947TIP3    H2 8806   3.201   0.090   2.931
 2948TIP3   OH2 8807   1.511   0.193   0.706
 2948TIP3    H1 8808   1.458   0.257   0.658
 2948TIP3    H2 8809   1.489   0.207   0.798
 2949TIP3   OH2 8810   2.501   6.587   5.338
 2949TIP3    H1 8811   2.476   6.591   5.430
 2949TIP3    H2 8812   2.550   6.667   5.323
 2950TIP3   OH2 8813   6.389   0.493   4.810
 2950TIP3    H1 8814   6.329   0.465   4.878
 2950TIP3    H2 8815   6.378   0.429   4.740
 2951TIP3   OH2 8816   5.272   6.425   3.805
 2951TIP3    H1 8817   5.285   6.443   3.898
 2951TIP3    H2 8818   5.201   6.361   3.802
 2952TIP3   OH2 8819   4.098   2.172   3.387
 2952TIP3    H1 8820   4.148   2.095   3.415
 2952TIP3    H2 8821   4.130   2.191   3.299
 2953TIP3   OH2 8822   3.512   2.082   5.601
 2953TIP3    H1 8823   3.507   2.028   5.680
 2953TIP3    H2 8824   3.420   2.092   5.574
 2954TIP3   OH2 8825   5.086   2.572   2.633
 2954TIP3    H1 8826   5.132   2.545   2.553
 2954TIP3    H2 8827   5.107   2.664   2.643
 2955TIP3   OH2 8828   2.468   3.556   0.772
 2955TIP3    H1 8829   2.511   3.595   0.848
 2955TIP3    H2 8830   2.515   3.474   0.757
 2956TIP3   OH2 8831   4.231   5.577   3.117
 2956TIP3    H1 8832   4.177   5.656   3.116
 2956TIP3    H2 8833   4.173   5.510   3.154
 2957TIP3   OH2 8834   6.633   2.601   1.173
 2957TIP3    H1 8835   6.582   2.603   1.092
 2957TIP3    H2 8836   6.724   2.590   1.144
 2958TIP3   OH2 8837   4.448   1.365   5.859
 2958TIP3    H1 8838   4.468   1.432   5.924
 2958TIP3    H2 8839   4.356   1.379   5.838
 2959TIP3   OH2 8840   4.294   2.671   5.005
 2959TIP3    H1 8841   4.219   2.614   4.988
 2959TIP3    H2 8842   4.360   2.612   5.043
 2960TIP3   OH2 8843   5.239   3.391   4.735
 2960TIP3    H1 8844   5.160   3.349   4.702
 2960TIP3    H2 8845   5.305   3.376   4.668
 2961TIP3   OH2 8846   3.715   1.362   1.174
 2961TIP3    H1 8847   3.751   1.292   1.228
 2961TIP3    H2 8848   3.779   1.371   1.102
 2962TIP3   OH2 8849   6.871   5.723   2.365
 2962TIP3    H1 8850   6.899   5.660   2.299
 2962TIP3    H2 8851   6.952   5.759   2.400
 2963TIP3   OH2 8852   3.699   2.429   5.291
 2963TIP3    H1 8853   3.795   2.434   5.288
 2963TIP3    H2 8854   3.680   2.372   5.365
 2964TIP3   OH2 8855   1.310   4.348   3.992
 2964TIP3    H1 8856   1.339   4.315   3.907
 2964TIP3    H2 8857   1.387   4.339   4.049
 2965TIP3   OH2 8858   2.835   1.657   1.984
 2965TIP3    H1 8859   2.841   1.749   2.009
 2965TIP3    H2 8860   2.925   1.626   1.985
 2966TIP3   OH2 8861   2.255   6.373   5.297
 2966TIP3    H1 8862   2.213   6.287   5.300
 2966TIP3    H2 8863   2.217   6.416   5.220
 2967TIP3   OH2 8864   1.976   3.926   3.954
 2967TIP3    H1 8865   1.887   3.894   3.934
 2967TIP3    H2 8866   2.027   3.846   3.969
 2968TIP3   OH2 8867   7.174   1.405   5.485
 2968TIP3    H1 8868   7.116   1.467   5.440
 2968TIP3    H2 8869   7.143   1.319   5.458
 2969TIP3   OH2 8870   5.855   0.312   5.656
 2969TIP3    H1 8871   5.881   0.349   5.740
 2969TIP3    H2 8872   5.835   0.388   5.601
 2970TIP3   OH2 8873   0.232   1.314   5.547
 2970TIP3    H1 8874   0.148   1.352   5.576
 2970TIP3    H2 8875   0.208   1.233   5.503
 2971TIP3   OH2 8876   1.100   4.634   2.634
 2971TIP3    H1 8877   1.067   4.711   2.680
 2971TIP3    H2 8878   1.145   4.669   2.557
 2972TIP3   OH2 8879   7.162   0.900   5.204
 2972TIP3    H1 8880   7.093   0.953   5.163
 2972TIP3    H2 8881   7.115   0.846   5.268
 2973TIP3   OH2 8882   5.171   4.594   4.150
 2973TIP3    H1 8883   5.191   4.682   4.117
 2973TIP3    H2 8884   5.126   4.610   4.233
 2974TIP3   OH2 8885   2.840   6.560   1.098
 2974TIP3    H1 8886   2.888   6.538   1.178
 2974TIP3    H2 8887   2.897   6.623   1.053
 2975TIP3   OH2 8888   1.441   4.953   2.030
 2975TIP3    H1 8889   1.415   4.861   2.025
 2975TIP3    H2 8890   1.517   4.960   1.972
 2976TIP3   OH2 8891   0.243   2.488   1.932
 2976TIP3    H1 8892   0.280   2.464   1.847
 2976TIP3    H2 8893   0.152   2.460   1.928
 2977TIP3   OH2 8894   3.239   4.595   5.343
 2977TIP3    H1 8895   3.330   4.587   5.314
 2977TIP3    H2 8896   3.211   4.680   5.310
 2978TIP3   OH2 8897   1.869   4.452   1.250
 2978TIP3    H1 8898   1.858   4.525   1.190
 2978TIP3    H2 8899   1.875   4.375   1.194
 2979TIP3   OH2 8900   6.919   0.297   3.741
 2979TIP3    H1 8901   6.864   0.371   3.765
 2979TIP3    H2 8902   7.001   0.336   3.712
 2980TIP3   OH2 8903   6.065   2.000   3.770
 2980TIP3    H1 8904   6.090   2.091   3.786
 2980TIP3    H2 8905   6.008   1.978   3.844
 2981TIP3   OH2 8906   6.377   3.913   0.052
 2981TIP3    H1 8907   6.322   3.836   0.069
 2981TIP3    H2 8908   6.389   3.953   0.139
 2982TIP3   OH2 8909   7.173   2.605   0.048
 2982TIP3    H1 8910   7.245   2.658   0.014
 2982TIP3    H2 8911   7.124   2.665   0.105
 2983TIP3   OH2 8912   2.343   2.919   1.967
 2983TIP3    H1 8913   2.413   2.855   1.981
 2983TIP3    H2 8914   2.263   2.874   1.993
 2984TIP3   OH2 8915   0.541   4.466   3.751
 2984TIP3    H1 8916   0.476   4.456   3.681
 2984TIP3    H2 8917   0.580   4.379   3.760
 2985TIP3   OH2 8918   5.298   4.810   1.477
 2985TIP3    H1 8919   5.239   4.746   1.436
 2985TIP3    H2 8920   5.306   4.881   1.414
 2986TIP3   OH2 8921   3.092   5.788   1.012
 2986TIP3    H1 8922   3.150   5.857   1.045
 2986TIP3    H2 8923   3.032   5.833   0.953
 2987TIP3   OH2 8924   2.447   3.985   2.503
 2987TIP3    H1 8925   2.355   4.011   2.507
 2987TIP3    H2 8926   2.446   3.901   2.457
 2988TIP3   OH2 8927   2.002   4.316   1.456
 2988TIP3    H1 8928   1.992   4.348   1.546
 2988TIP3    H2 8929   1.951   4.378   1.403
 2989TIP3   OH2 8930   0.590   0.993   2.788
 2989TIP3    H1 8931   0.549   0.916   2.750
 2989TIP3    H2 8932   0.564   1.065   2.731
 2990TIP3   OH2 8933   0.855   4.096   0.910
 2990TIP3    H1 8934   0.888   4.007   0.919
 2990TIP3    H2 8935   0.845   4.109   0.816
 2991TIP3   OH2 8936   3.059   3.499   1.515
 2991TIP3    H1 8937   3.138   3.478   1.467
 2991TIP3    H2 8938   2.993   3.516   1.448
 2992TIP3   OH2 8939   3.032   4.281   1.585
 2992TIP3    H1 8940   2.962   4.243   1.638
 2992TIP3    H2 8941   3.010   4.255   1.495
 2993TIP3   OH2 8942   3.195   5.511   2.352
 2993TIP3    H1 8943   3.195   5.494   2.446
 2993TIP3    H2 8944   3.119   5.463   2.319
 2994TIP3   OH2 8945   0.301   2.506   0.910
 2994TIP3    H1 8946   0.394   2.486   0.898
 2994TIP3    H2 8947   0.257   2.423   0.895
 2995TIP3   OH2 8948   2.054   6.786   3.220
 2995TIP3    H1 8949   2.125   6.733   3.256
 2995TIP3    H2 8950   2.098   6.863   3.182
 2996TIP3   OH2 8951   0.488   0.767   2.001
 2996TIP3    H1 8952   0.435   0.758   1.922
 2996TIP3    H2 8953   0.424   0.764   2.073
 2997TIP3   OH2 8954   2.771   4.981   3.155
 2997TIP3    H1 8955   2.773   4.901   3.207
 2997TIP3    H2 8956   2.768   4.952   3.064
 2998TIP3   OH2 8957   2.861   4.766   2.140
 2998TIP3    H1 8958   2.890   4.723   2.060
 2998TIP3    H2 8959   2.880   4.703   2.209
 2999TIP3   OH2 8960   0.999   3.843   1.213
 2999TIP3    H1 8961   1.006   3.749   1.231
 2999TIP3    H2 8962   0.905   3.858   1.198
 3000TIP3   OH2 8963   5.521   0.608   4.784
 3000TIP3    H1 8964   5.582   0.543   4.818
 3000TIP3    H2 8965   5.553   0.628   4.696
 3001TIP3   OH2 8966   5.563   1.353   3.340
 3001TIP3    H1 8967   5.497   1.315   3.283
 3001TIP3    H2 8968   5.529   1.338   3.429
 3002TIP3   OH2 8969   3.856   1.899   1.125
 3002TIP3    H1 8970   3.909   1.976   1.106
 3002TIP3    H2 8971   3.854   1.849   1.043
 3003TIP3   OH2 8972   0.734   6.231   3.519
 3003TIP3    H1 8973   0.713   6.180   3.596
 3003TIP3    H2 8974   0.652   6.273   3.494
 3004TIP3   OH2 8975   4.859   4.554   5.327
 3004TIP3    H1 8976   4.888   4.476   5.280
 3004TIP3    H2 8977   4.764   4.542   5.337
 3005TIP3   OH2 8978   2.904   2.086   4.687
 3005TIP3    H1 8979   2.892   2.010   4.743
 3005TIP3    H2 8980   2.958   2.146   4.739
 3006TIP3   OH2 8981   1.225   4.452   1.194
 3006TIP3    H1 8982   1.139   4.460   1.153
 3006TIP3    H2 8983   1.222   4.368   1.241
 3007TIP3   OH2 8984   3.526   1.451   1.743
 3007TIP3    H1 8985   3.592   1.453   1.812
 3007TIP3    H2 8986   3.456   1.509   1.774
 3008TIP3   OH2 8987   4.177   5.985   1.101
 3008TIP3    H1 8988   4.137   5.913   1.052
 3008TIP3    H2 8989   4.207   6.046   1.033
 3009TIP3   OH2 8990   2.549   0.857   2.263
 3009TIP3    H1 8991   2.507   0.834   2.180
 3009TIP3    H2 8992   2.594   0.777   2.291
 3010TIP3   OH2 8993   2.017   2.736   5.073
 3010TIP3    H1 8994   1.935   2.735   5.025
 3010TIP3    H2 8995   2.047   2.827   5.067
 3011TIP3   OH2 8996   0.880   1.458   0.362
 3011TIP3    H1 8997   0.975   1.463   0.367
 3011TIP3    H2 8998   0.853   1.548   0.342
 3012TIP3   OH2 8999   3.822   5.213   5.293
 3012TIP3    H1 9000   3.850   5.190   5.381
 3012TIP3    H2 9001   3.791   5.131   5.255
 3013TIP3   OH2 9002   4.653   2.848   2.923
 3013TIP3    H1 9003   4.691   2.860   2.836
 3013TIP3    H2 9004   4.686   2.762   2.952
 3014TIP3   OH2 9005   3.289   0.398   5.038
 3014TIP3    H1 9006   3.284   0.303   5.048
 3014TIP3    H2 9007   3.305   0.412   4.945
 3015TIP3   OH2 9008   7.036   4.131   5.019
 3015TIP3    H1 9009   6.977   4.056   5.026
 3015TIP3    H2 9010   7.033   4.172   5.106
 3016TIP3   OH2 9011   5.373   0.834   2.222
 3016TIP3    H1 9012   5.458   0.825   2.265
 3016TIP3    H2 9013   5.389   0.889   2.146
 3017TIP3   OH2 9014   6.205   3.032   1.741
 3017TIP3    H1 9015   6.284   3.084   1.755
 3017TIP3    H2 9016   6.194   2.983   1.822
 3018TIP3   OH2 9017   3.707   5.993   4.352
 3018TIP3    H1 9018   3.720   6.045   4.431
 3018TIP3    H2 9019   3.634   5.935   4.372
 3019TIP3   OH2 9020   6.210   6.750   2.640
 3019TIP3    H1 9021   6.197   6.661   2.607
 3019TIP3    H2 9022   6.286   6.782   2.592
 3020TIP3   OH2 9023   1.763   0.279   2.606
 3020TIP3    H1 9024   1.838   0.330   2.576
 3020TIP3    H2 9025   1.770   0.278   2.701
 3021TIP3   OH2 9026   3.685   4.481   0.876
 3021TIP3    H1 9027   3.751   4.494   0.944
 3021TIP3    H2 9028   3.658   4.389   0.886
 3022TIP3   OH2 9029   3.547   0.078   5.360
 3022TIP3    H1 9030   3.468   0.117   5.322
 3022TIP3    H2 9031   3.547   0.108   5.451
 3023TIP3   OH2 9032   2.394   0.886   0.263
 3023TIP3    H1 9033   2.337   0.958   0.289
 3023TIP3    H2 9034   2.340   0.808   0.273
 3024TIP3   OH2 9035   6.303   0.199   0.195
 3024TIP3    H1 9036   6.385   0.164   0.229
 3024TIP3    H2 9037   6.310   0.293   0.208
 3025TIP3   OH2 9038   1.211   3.142   5.600
 3025TIP3    H1 9039   1.300   3.138   5.632
 3025TIP3    H2 9040   1.162   3.189   5.668
 3026TIP3   OH2 9041   3.296   4.726   1.325
 3026TIP3    H1 9042   3.282   4.669   1.400
 3026TIP3    H2 9043   3.378   4.696   1.285
 3027TIP3   OH2 9044   3.662   5.080   2.168
 3027TIP3    H1 9045   3.662   4.990   2.135
 3027TIP3    H2 9046   3.572   5.094   2.197
 3028TIP3   OH2 9047   4.885   4.340   5.164
 3028TIP3    H1 9048   4.852   4.350   5.075
 3028TIP3    H2 9049   4.925   4.254   5.166
 3029TIP3   OH2 9050   2.180   5.230   1.502
 3029TIP3    H1 9051   2.102   5.194   1.543
 3029TIP3    H2 9052   2.249   5.221   1.567
 3030TIP3   OH2 9053   3.924   2.320   4.506
 3030TIP3    H1 9054   3.847   2.377   4.508
 3030TIP3    H2 9055   3.948   2.315   4.413
 3031TIP3   OH2 9056   5.421   1.074   0.508
 3031TIP3    H1 9057   5.383   1.003   0.457
 3031TIP3    H2 9058   5.404   1.050   0.599
 3032TIP3   OH2 9059   1.242   5.111   1.109
 3032TIP3    H1 9060   1.297   5.177   1.068
 3032TIP3    H2 9061   1.180   5.160   1.163
 3033TIP3   OH2 9062   0.989   1.771   4.356
 3033TIP3    H1 9063   0.921   1.835   4.376
 3033TIP3    H2 9064   0.949   1.686   4.377
 3034TIP3   OH2 9065   4.872   1.688   1.111
 3034TIP3    H1 9066   4.942   1.665   1.049
 3034TIP3    H2 9067   4.842   1.604   1.145
 3035TIP3   OH2 9068   1.977   0.939  -0.028
 3035TIP3    H1 9069   1.929   1.018  -0.003
 3035TIP3    H2 9070   2.069   0.962  -0.015
 3036TIP3   OH2 9071   6.912   5.928   2.952
 3036TIP3    H1 9072   6.910   5.833   2.962
 3036TIP3    H2 9073   7.006   5.949   2.948
 3037TIP3   OH2 9074   3.609   5.903   1.034
 3037TIP3    H1 9075   3.659   5.981   1.013
 3037TIP3    H2 9076   3.642   5.836   0.974
 3038TIP3   OH2 9077   2.051   0.532   1.082
 3038TIP3    H1 9078   2.031   0.472   1.154
 3038TIP3    H2 9079   1.966   0.553   1.044
 3039TIP3   OH2 9080   1.313   2.820   1.048
 3039TIP3    H1 9081   1.254   2.835   0.974
 3039TIP3    H2 9082   1.398   2.805   1.008
 3040TIP3   OH2 9083   0.524   1.336   2.432
 3040TIP3    H1 9084   0.585   1.264   2.422
 3040TIP3    H2 9085   0.571   1.413   2.401
 3041TIP3   OH2 9086   1.875   3.056   5.205
 3041TIP3    H1 9087   1.951   3.053   5.147
 3041TIP3    H2 9088   1.911   3.058   5.293
 3042TIP3   OH2 9089   4.953   0.041   2.882
 3042TIP3    H1 9090   4.965  -0.015   2.805
 3042TIP3    H2 9091   4.869   0.013   2.919
 3043TIP3   OH2 9092   2.883   1.164   4.320
 3043TIP3    H1 9093   2.822   1.105   4.365
 3043TIP3    H2 9094   2.926   1.109   4.255
 3044TIP3   OH2 9095   0.229   6.659   5.676
 3044TIP3    H1 9096   0.171   6.685   5.604
 3044TIP3    H2 9097   0.224   6.732   5.738
 3045TIP3   OH2 9098   1.283   3.483   1.894
 3045TIP3    H1 9099   1.218   3.413   1.891
 3045TIP3    H2 9100   1.367   3.438   1.904
 3046TIP3   OH2 9101   6.642   1.560   4.589
 3046TIP3    H1 9102   6.595   1.616   4.651
 3046TIP3    H2 9103   6.679   1.621   4.526
 3047TIP3   OH2 9104   0.899   5.519   5.523
 3047TIP3    H1 9105   0.901   5.587   5.456
 3047TIP3    H2 9106   0.877   5.439   5.475
 3048TIP3   OH2 9107   2.676   0.441   3.334
 3048TIP3    H1 9108   2.589   0.466   3.305
 3048TIP3    H2 9109   2.663   0.403   3.421
 3049TIP3   OH2 9110   2.631   0.853   3.667
 3049TIP3    H1 9111   2.606   0.793   3.737
 3049TIP3    H2 9112   2.659   0.796   3.595
 3050TIP3   OH2 9113   5.401   4.573   5.888
 3050TIP3    H1 9114   5.397   4.530   5.803
 3050TIP3    H2 9115   5.321   4.545   5.933
 3051TIP3   OH2 9116   1.762   6.194   0.380
 3051TIP3    H1 9117   1.801   6.137   0.447
 3051TIP3    H2 9118   1.686   6.232   0.424
 3052TIP3   OH2 9119   6.380   4.279   1.180
 3052TIP3    H1 9120   6.363   4.208   1.242
 3052TIP3    H2 9121   6.454   4.248   1.128
 3053TIP3   OH2 9122   6.556   3.661   1.359
 3053TIP3    H1 9123   6.607   3.605   1.301
 3053TIP3    H2 9124   6.606   3.743   1.363
 3054TIP3   OH2 9125   4.704   2.043   4.873
 3054TIP3    H1 9126   4.722   1.951   4.894
 3054TIP3    H2 9127   4.664   2.041   4.786
 3055TIP3   OH2 9128   3.926   2.118   3.983
 3055TIP3    H1 9129   3.868   2.042   3.973
 3055TIP3    H2 9130   3.977   2.120   3.902
 3056TIP3   OH2 9131   0.376   2.713   2.016
 3056TIP3    H1 9132   0.434   2.673   2.081
 3056TIP3    H2 9133   0.333   2.638   1.974
 3057TIP3   OH2 9134   2.417   5.539   4.462
 3057TIP3    H1 9135   2.400   5.619   4.413
 3057TIP3    H2 9136   2.346   5.533   4.525
 3058TIP3   OH2 9137   0.956   1.322   4.895
 3058TIP3    H1 9138   1.033   1.284   4.853
 3058TIP3    H2 9139   0.992   1.391   4.952
 3059TIP3   OH2 9140   1.717   1.649   2.250
 3059TIP3    H1 9141   1.805   1.611   2.244
 3059TIP3    H2 9142   1.674   1.600   2.320
 3060TIP3   OH2 9143   0.916   2.819   2.028
 3060TIP3    H1 9144   0.860   2.840   1.953
 3060TIP3    H2 9145   0.905   2.725   2.040
 3061TIP3   OH2 9146   3.316   4.269   3.709
 3061TIP3    H1 9147   3.358   4.333   3.651
 3061TIP3    H2 9148   3.224   4.292   3.706
 3062TIP3   OH2 9149   0.881   2.544   1.959
 3062TIP3    H1 9150   0.957   2.496   1.992
 3062TIP3    H2 9151   0.900   2.557   1.866
 3063TIP3   OH2 9152   3.041   2.415   0.894
 3063TIP3    H1 9153   3.136   2.399   0.902
 3063TIP3    H2 9154   3.012   2.348   0.832
 3064TIP3   OH2 9155   6.092   1.859   0.508
 3064TIP3    H1 9156   6.115   1.902   0.591
 3064TIP3    H2 9157   6.037   1.922   0.463
 3065TIP3   OH2 9158   6.544   1.162   0.784
 3065TIP3    H1 9159   6.616   1.099   0.788
 3065TIP3    H2 9160   6.498   1.151   0.867
 3066TIP3   OH2 9161   6.563   3.997   5.888
 3066TIP3    H1 9162   6.501   3.953   5.946
 3066TIP3    H2 9163   6.510   4.030   5.816
 3067TIP3   OH2 9164   4.264   5.695   4.758
 3067TIP3    H1 9165   4.356   5.686   4.733
 3067TIP3    H2 9166   4.262   5.674   4.851
 3068TIP3   OH2 9167   0.026   3.402   1.747
 3068TIP3    H1 9168  -0.044   3.342   1.774
 3068TIP3    H2 9169   0.086   3.405   1.822
 3069TIP3   OH2 9170   0.101   6.283   0.502
 3069TIP3    H1 9171   0.106   6.195   0.467
 3069TIP3    H2 9172   0.174   6.288   0.564
 3070TIP3   OH2 9173   0.875   1.333   0.029
 3070TIP3    H1 9174   0.815   1.265   0.061
 3070TIP3    H2 9175   0.827   1.375  -0.042
 3071TIP3   OH2 9176   5.945   6.736   0.102
 3071TIP3    H1 9177   5.857   6.770   0.117
 3071TIP3    H2 9178   5.948   6.654   0.152
 3072TIP3   OH2 9179   3.667   6.388   2.905
 3072TIP3    H1 9180   3.644   6.380   2.997
 3072TIP3    H2 9181   3.715   6.308   2.885
 3073TIP3   OH2 9182   2.741   0.426   0.608
 3073TIP3    H1 9183   2.769   0.517   0.620
 3073TIP3    H2 9184   2.649   0.425   0.636
 3074TIP3   OH2 9185   2.847   3.134   3.294
 3074TIP3    H1 9186   2.757   3.147   3.265
 3074TIP3    H2 9187   2.878   3.221   3.317
 3075TIP3   OH2 9188   6.085   0.166   1.995
 3075TIP3    H1 9189   6.107   0.218   2.072
 3075TIP3    H2 9190   6.145   0.092   1.998
 3076TIP3   OH2 9191   0.485   3.927   4.549
 3076TIP3    H1 9192   0.547   3.965   4.486
 3076TIP3    H2 9193   0.503   3.974   4.630
 3077TIP3   OH2 9194   1.255   6.554   1.460
 3077TIP3    H1 9195   1.222   6.553   1.550
 3077TIP3    H2 9196   1.331   6.495   1.463
 3078TIP3   OH2 9197   1.290   4.669   4.901
 3078TIP3    H1 9198   1.370   4.712   4.931
 3078TIP3    H2 9199   1.230   4.674   4.976
 3079TIP3   OH2 9200   4.324   4.118   1.318
 3079TIP3    H1 9201   4.382   4.044   1.305
 3079TIP3    H2 9202   4.237   4.079   1.328
 3080TIP3   OH2 9203   5.346   3.163   4.895
 3080TIP3    H1 9204   5.355   3.216   4.974
 3080TIP3    H2 9205   5.434   3.132   4.876
 3081TIP3   OH2 9206   3.379   5.723   3.727
 3081TIP3    H1 9207   3.320   5.711   3.653
 3081TIP3    H2 9208   3.464   5.743   3.687
 3082TIP3   OH2 9209   5.284   3.408   3.056
 3082TIP3    H1 9210   5.225   3.482   3.066
 3082TIP3    H2 9211   5.233   3.344   3.005
 3083TIP3   OH2 9212   1.906   1.721   5.223
 3083TIP3    H1 9213   1.812   1.710   5.237
 3083TIP3    H2 9214   1.914   1.808   5.182
 3084TIP3   OH2 9215   1.522   4.135   2.383
 3084TIP3    H1 9216   1.469   4.064   2.417
 3084TIP3    H2 9217   1.574   4.096   2.314
 3085TIP3   OH2 9218   0.372   3.149   1.576
 3085TIP3    H1 9219   0.281   3.130   1.599
 3085TIP3    H2 9220   0.423   3.083   1.624
 3086TIP3   OH2 9221   4.559   0.767   4.650
 3086TIP3    H1 9222   4.521   0.709   4.716
 3086TIP3    H2 9223   4.634   0.718   4.616
 3087TIP3   OH2 9224   4.279   2.544   1.307
 3087TIP3    H1 9225   4.292   2.487   1.383
 3087TIP3    H2 9226   4.185   2.561   1.306
 3088TIP3   OH2 9227   4.829   2.397   3.263
 3088TIP3    H1 9228   4.820   2.490   3.285
 3088TIP3    H2 9229   4.776   2.385   3.184
 3089TIP3   OH2 9230   4.710   1.453   1.976
 3089TIP3    H1 9231   4.749   1.503   1.904
 3089TIP3    H2 9232   4.623   1.430   1.944
 3090TIP3   OH2 9233   4.511   2.683   3.221
 3090TIP3    H1 9234   4.487   2.776   3.220
 3090TIP3    H2 9235   4.600   2.680   3.256
 3091TIP3   OH2 9236   6.103   2.970   5.589
 3091TIP3    H1 9237   6.031   2.923   5.548
 3091TIP3    H2 9238   6.062   3.018   5.661
 3092TIP3   OH2 9239   1.149   0.439   2.253
 3092TIP3    H1 9240   1.056   0.440   2.228
 3092TIP3    H2 9241   1.157   0.511   2.316
 3093TIP3   OH2 9242   1.628   3.617   0.609
 3093TIP3    H1 9243   1.607   3.701   0.650
 3093TIP3    H2 9244   1.713   3.632   0.566
 3094TIP3   OH2 9245   0.180   5.318   0.323
 3094TIP3    H1 9246   0.210   5.306   0.233
 3094TIP3    H2 9247   0.248   5.279   0.377
 3095TIP3   OH2 9248   6.191   4.933   0.358
 3095TIP3    H1 9249   6.153   4.858   0.405
 3095TIP3    H2 9250   6.198   5.002   0.424
 3096TIP3   OH2 9251   5.309   3.619   5.300
 3096TIP3    H1 9252   5.399   3.637   5.274
 3096TIP3    H2 9253   5.259   3.694   5.267
 3097TIP3   OH2 9254   3.270   1.443   2.227
 3097TIP3    H1 9255   3.234   1.373   2.172
 3097TIP3    H2 9256   3.319   1.396   2.295
 3098TIP3   OH2 9257   2.069   1.501   1.547
 3098TIP3    H1 9258   2.096   1.416   1.581
 3098TIP3    H2 9259   2.000   1.530   1.607
 3099TIP3   OH2 9260   2.791   2.054   1.001
 3099TIP3    H1 9261   2.723   1.992   0.977
 3099TIP3    H2 9262   2.763   2.137   0.961
 3100TIP3   OH2 9263   6.503   3.661   4.049
 3100TIP3    H1 9264   6.447   3.737   4.036
 3100TIP3    H2 9265   6.551   3.679   4.129
 3101TIP3   OH2 9266   2.542   1.952   0.938
 3101TIP3    H1 9267   2.460   1.941   0.889
 3101TIP3    H2 9268   2.514   1.966   1.028
 3102TIP3   OH2 9269   1.557   0.461   2.059
 3102TIP3    H1 9270   1.467   0.466   2.027
 3102TIP3    H2 9271   1.549   0.420   2.146
 3103TIP3   OH2 9272   5.698   0.026   0.345
 3103TIP3    H1 9273   5.635   0.025   0.273
 3103TIP3    H2 9274   5.668  -0.042   0.404
 3104TIP3   OH2 9275   5.341   0.173   1.077
 3104TIP3    H1 9276   5.247   0.187   1.067
 3104TIP3    H2 9277   5.362   0.106   1.012
 3105TIP3   OH2 9278   6.900   6.576   1.971
 3105TIP3    H1 9279   6.870   6.608   1.886
 3105TIP3    H2 9280   6.848   6.625   2.034
 3106TIP3   OH2 9281   5.964   6.474   1.860
 3106TIP3    H1 9282   5.902   6.414   1.902
 3106TIP3    H2 9283   6.044   6.422   1.849
 3107TIP3   OH2 9284   3.434   4.798   5.540
 3107TIP3    H1 9285   3.391   4.715   5.559
 3107TIP3    H2 9286   3.363   4.863   5.545
 3108TIP3   OH2 9287   2.270   5.166   4.755
 3108TIP3    H1 9288   2.190   5.163   4.702
 3108TIP3    H2 9289   2.318   5.088   4.730
 3109TIP3   OH2 9290   3.908   5.912   1.182
 3109TIP3    H1 9291   3.908   5.817   1.194
 3109TIP3    H2 9292   3.980   5.929   1.122
 3110TIP3   OH2 9293   2.573   1.006   1.885
 3110TIP3    H1 9294   2.650   1.041   1.841
 3110TIP3    H2 9295   2.573   0.913   1.863
 3111TIP3   OH2 9296   4.358   0.618   4.762
 3111TIP3    H1 9297   4.345   0.707   4.793
 3111TIP3    H2 9298   4.405   0.574   4.833
 3112TIP3   OH2 9299   3.317   4.010   1.277
 3112TIP3    H1 9300   3.342   4.093   1.316
 3112TIP3    H2 9301   3.226   3.996   1.305
 3113TIP3   OH2 9302   7.117   0.434   2.838
 3113TIP3    H1 9303   7.127   0.350   2.793
 3113TIP3    H2 9304   7.052   0.416   2.906
 3114TIP3   OH2 9305   1.708   5.439   1.397
 3114TIP3    H1 9306   1.773   5.473   1.459
 3114TIP3    H2 9307   1.722   5.345   1.398
 3115TIP3   OH2 9308   2.682   4.323   2.889
 3115TIP3    H1 9309   2.616   4.260   2.918
 3115TIP3    H2 9310   2.763   4.272   2.880
 3116TIP3   OH2 9311   7.040   6.600   3.801
 3116TIP3    H1 9312   7.049   6.552   3.883
 3116TIP3    H2 9313   7.081   6.685   3.818
 3117TIP3   OH2 9314   5.640   4.603   3.368
 3117TIP3    H1 9315   5.564   4.611   3.311
 3117TIP3    H2 9316   5.619   4.531   3.427
 3118TIP3   OH2 9317   2.305   6.725   0.575
 3118TIP3    H1 9318   2.246   6.799   0.567
 3118TIP3    H2 9319   2.370   6.752   0.640
 3119TIP3   OH2 9320   5.243   2.180   0.446
 3119TIP3    H1 9321   5.203   2.230   0.374
 3119TIP3    H2 9322   5.173   2.121   0.475
 3120TIP3   OH2 9323   2.144   1.000   5.173
 3120TIP3    H1 9324   2.192   1.077   5.204
 3120TIP3    H2 9325   2.210   0.946   5.130
 3121TIP3   OH2 9326   6.366   5.154   5.638
 3121TIP3    H1 9327   6.353   5.248   5.648
 3121TIP3    H2 9328   6.398   5.143   5.548
 3122TIP3   OH2 9329   1.374   2.066   5.535
 3122TIP3    H1 9330   1.292   2.088   5.491
 3122TIP3    H2 9331   1.354   1.988   5.586
 3123TIP3   OH2 9332   1.759   4.295   3.052
 3123TIP3    H1 9333   1.673   4.327   3.077
 3123TIP3    H2 9334   1.762   4.306   2.957
 3124TIP3   OH2 9335   2.031   0.299   4.153
 3124TIP3    H1 9336   1.953   0.298   4.208
 3124TIP3    H2 9337   1.999   0.272   4.066
 3125TIP3   OH2 9338   3.843   1.824   2.701
 3125TIP3    H1 9339   3.920   1.872   2.731
 3125TIP3    H2 9340   3.772   1.888   2.706
 3126TIP3   OH2 9341   5.552   1.772   1.178
 3126TIP3    H1 9342   5.589   1.857   1.155
 3126TIP3    H2 9343   5.619   1.709   1.151
 3127TIP3   OH2 9344   5.236   1.270   1.481
 3127TIP3    H1 9345   5.277   1.238   1.400
 3127TIP3    H2 9346   5.245   1.365   1.475
 3128TIP3   OH2 9347   3.853   6.045   2.449
 3128TIP3    H1 9348   3.802   6.020   2.525
 3128TIP3    H2 9349   3.790   6.084   2.389
 3129TIP3   OH2 9350   3.057   4.378   4.011
 3129TIP3    H1 9351   3.073   4.296   4.058
 3129TIP3    H2 9352   3.094   4.363   3.924
 3130TIP3   OH2 9353   2.245   1.278   5.193
 3130TIP3    H1 9354   2.159   1.303   5.227
 3130TIP3    H2 9355   2.303   1.348   5.220
 3131TIP3   OH2 9356   5.011   3.751   5.875
 3131TIP3    H1 9357   4.925   3.794   5.869
 3131TIP3    H2 9358   5.057   3.799   5.944
 3132TIP3   OH2 9359   4.774   4.892   4.497
 3132TIP3    H1 9360   4.814   4.821   4.546
 3132TIP3    H2 9361   4.685   4.861   4.478
 3133TIP3   OH2 9362   2.821   4.815   3.950
 3133TIP3    H1 9363   2.768   4.886   3.912
 3133TIP3    H2 9364   2.887   4.860   4.002
 3134TIP3   OH2 9365   4.580   2.562   5.568
 3134TIP3    H1 9366   4.671   2.593   5.567
 3134TIP3    H2 9367   4.529   2.640   5.589
 3135TIP3   OH2 9368   0.330   0.990   3.437
 3135TIP3    H1 9369   0.298   0.993   3.527
 3135TIP3    H2 9370   0.404   0.929   3.440
 3136TIP3   OH2 9371   6.669   6.587   0.182
 3136TIP3    H1 9372   6.638   6.507   0.224
 3136TIP3    H2 9373   6.754   6.564   0.145
 3137TIP3   OH2 9374   2.559   3.749   2.456
 3137TIP3    H1 9375   2.600   3.741   2.543
 3137TIP3    H2 9376   2.600   3.679   2.405
 3138TIP3   OH2 9377   6.415   4.164   5.386
 3138TIP3    H1 9378   6.332   4.120   5.368
 3138TIP3    H2 9379   6.474   4.094   5.413
 3139TIP3   OH2 9380   0.481   6.342   1.807
 3139TIP3    H1 9381   0.563   6.362   1.761
 3139TIP3    H2 9382   0.484   6.397   1.885
 3140TIP3   OH2 9383   6.256   5.684   5.350
 3140TIP3    H1 9384   6.294   5.677   5.437
 3140TIP3    H2 9385   6.233   5.594   5.327
 3141TIP3   OH2 9386   0.137   0.860   1.366
 3141TIP3    H1 9387   0.180   0.857   1.452
 3141TIP3    H2 9388   0.156   0.775   1.327
 3142TIP3   OH2 9389   3.659   5.555   2.962
 3142TIP3    H1 9390   3.716   5.590   3.031
 3142TIP3    H2 9391   3.600   5.496   3.008
 3143TIP3   OH2 9392   5.187   1.549   1.515
 3143TIP3    H1 9393   5.234   1.627   1.546
 3143TIP3    H2 9394   5.097   1.578   1.504
 3144TIP3   OH2 9395   0.139   0.593   1.249
 3144TIP3    H1 9396   0.129   0.507   1.289
 3144TIP3    H2 9397   0.226   0.591   1.209
 3145TIP3   OH2 9398   3.202   0.531   5.242
 3145TIP3    H1 9399   3.219   0.503   5.152
 3145TIP3    H2 9400   3.249   0.614   5.250
 3146TIP3   OH2 9401   6.094   0.441   5.850
 3146TIP3    H1 9402   6.145   0.379   5.798
 3146TIP3    H2 9403   6.025   0.388   5.890
 3147TIP3   OH2 9404   6.862   5.357   5.101
 3147TIP3    H1 9405   6.871   5.421   5.030
 3147TIP3    H2 9406   6.950   5.350   5.138
 3148TIP3   OH2 9407   1.925   1.539   5.437
 3148TIP3    H1 9408   2.010   1.546   5.482
 3148TIP3    H2 9409   1.923   1.613   5.377
 3149TIP3   OH2 9410   5.644   2.786   1.296
 3149TIP3    H1 9411   5.687   2.701   1.281
 3149TIP3    H2 9412   5.593   2.773   1.376
 3150TIP3   OH2 9413   6.124   3.444   4.261
 3150TIP3    H1 9414   6.111   3.444   4.166
 3150TIP3    H2 9415   6.120   3.536   4.285
 3151TIP3   OH2 9416   0.275   4.874   1.365
 3151TIP3    H1 9417   0.280   4.903   1.273
 3151TIP3    H2 9418   0.242   4.785   1.361
 3152TIP3   OH2 9419   6.059   6.540   4.846
 3152TIP3    H1 9420   6.086   6.479   4.778
 3152TIP3    H2 9421   5.996   6.491   4.899
 3153TIP3   OH2 9422   3.875   6.161   2.992
 3153TIP3    H1 9423   3.893   6.252   3.017
 3153TIP3    H2 9424   3.961   6.124   2.975
 3154TIP3   OH2 9425   0.454   4.030   1.591
 3154TIP3    H1 9426   0.526   4.092   1.574
 3154TIP3    H2 9427   0.375   4.078   1.565
 3155TIP3   OH2 9428   6.102   6.120   3.862
 3155TIP3    H1 9429   6.081   6.154   3.775
 3155TIP3    H2 9430   6.063   6.033   3.864
 3156TIP3   OH2 9431   5.006   5.855   4.665
 3156TIP3    H1 9432   4.950   5.844   4.588
 3156TIP3    H2 9433   5.043   5.768   4.680
 3157TIP3   OH2 9434   3.995   2.507   1.996
 3157TIP3    H1 9435   3.967   2.439   2.058
 3157TIP3    H2 9436   4.041   2.571   2.050
 3158TIP3   OH2 9437   7.041   2.440   0.704
 3158TIP3    H1 9438   7.125   2.484   0.710
 3158TIP3    H2 9439   6.985   2.500   0.656
 3159TIP3   OH2 9440   5.048   2.112   2.264
 3159TIP3    H1 9441   5.081   2.158   2.341
 3159TIP3    H2 9442   5.098   2.030   2.262
 3160TIP3   OH2 9443   5.713   6.381   4.337
 3160TIP3    H1 9444   5.684   6.366   4.427
 3160TIP3    H2 9445   5.676   6.465   4.313
 3161TIP3   OH2 9446   1.786   2.413   3.005
 3161TIP3    H1 9447   1.790   2.433   2.911
 3161TIP3    H2 9448   1.741   2.329   3.010
 3162TIP3   OH2 9449   1.713   3.736   1.328
 3162TIP3    H1 9450   1.711   3.698   1.240
 3162TIP3    H2 9451   1.775   3.809   1.321
 3163TIP3   OH2 9452   7.201   5.930   4.797
 3163TIP3    H1 9453   7.201   5.911   4.890
 3163TIP3    H2 9454   7.121   5.980   4.782
 3164TIP3   OH2 9455   6.347   1.554   5.448
 3164TIP3    H1 9456   6.381   1.594   5.528
 3164TIP3    H2 9457   6.416   1.569   5.382
 3165TIP3   OH2 9458   6.354   4.539   1.086
 3165TIP3    H1 9459   6.416   4.602   1.122
 3165TIP3    H2 9460   6.386   4.454   1.117
 3166TIP3   OH2 9461   0.579   0.830   0.397
 3166TIP3    H1 9462   0.660   0.877   0.417
 3166TIP3    H2 9463   0.528   0.891   0.344
 3167TIP3   OH2 9464   6.882   5.102   1.182
 3167TIP3    H1 9465   6.794   5.140   1.173
 3167TIP3    H2 9466   6.917   5.103   1.093
 3168TIP3   OH2 9467   2.103   5.438   4.923
 3168TIP3    H1 9468   2.089   5.360   4.976
 3168TIP3    H2 9469   2.098   5.510   4.986
 3169TIP3   OH2 9470   1.558   3.438   0.340
 3169TIP3    H1 9471   1.488   3.400   0.392
 3169TIP3    H2 9472   1.627   3.459   0.403
 3170TIP3   OH2 9473   5.461   1.525   1.319
 3170TIP3    H1 9474   5.420   1.530   1.405
 3170TIP3    H2 9475   5.488   1.615   1.300
 3171TIP3   OH2 9476   5.927   3.531   3.038
 3171TIP3    H1 9477   6.001   3.491   2.991
 3171TIP3    H2 9478   5.929   3.622   3.010
 3172TIP3   OH2 9479   0.726   2.623   3.612
 3172TIP3    H1 9480   0.805   2.625   3.665
 3172TIP3    H2 9481   0.746   2.560   3.543
 3173TIP3   OH2 9482   6.220   5.139   0.542
 3173TIP3    H1 9483   6.298   5.194   0.545
 3173TIP3    H2 9484   6.147   5.199   0.556
 3174TIP3   OH2 9485   6.381   0.129   4.035
 3174TIP3    H1 9486   6.331   0.210   4.027
 3174TIP3    H2 9487   6.396   0.119   4.129
 3175TIP3   OH2 9488   3.933   6.544   4.194
 3175TIP3    H1 9489   3.860   6.507   4.145
 3175TIP3    H2 9490   3.900   6.552   4.284
 3176TIP3   OH2 9491   1.593   6.781   2.607
 3176TIP3    H1 9492   1.593   6.705   2.665
 3176TIP3    H2 9493   1.587   6.857   2.665
 3177TIP3   OH2 9494   3.637   4.277   2.405
 3177TIP3    H1 9495   3.582   4.292   2.328
 3177TIP3    H2 9496   3.617   4.351   2.463
 3178TIP3   OH2 9497   4.358   1.711   1.689
 3178TIP3    H1 9498   4.367   1.760   1.771
 3178TIP3    H2 9499   4.399   1.627   1.707
 3179TIP3   OH2 9500   3.344   5.897   3.102
 3179TIP3    H1 9501   3.296   5.975   3.128
 3179TIP3    H2 9502   3.435   5.927   3.092
 3180TIP3   OH2 9503   3.559   3.739   5.332
 3180TIP3    H1 9504   3.594   3.802   5.394
 3180TIP3    H2 9505   3.466   3.761   5.325
 3181TIP3   OH2 9506   0.586   3.252   2.434
 3181TIP3    H1 9507   0.576   3.159   2.417
 3181TIP3    H2 9508   0.501   3.290   2.411
 3182TIP3   OH2 9509   0.121   3.444   3.764
 3182TIP3    H1 9510   0.109   3.356   3.729
 3182TIP3    H2 9511   0.212   3.466   3.742
 3183TIP3   OH2 9512   0.703   1.252   0.360
 3183TIP3    H1 9513   0.763   1.326   0.356
 3183TIP3    H2 9514   0.676   1.248   0.452
 3184TIP3   OH2 9515   6.828   4.855   1.609
 3184TIP3    H1 9516   6.900   4.809   1.652
 3184TIP3    H2 9517   6.861   4.942   1.591
 3185TIP3   OH2 9518   5.883   1.071   3.589
 3185TIP3    H1 9519   5.848   1.118   3.513
 3185TIP3    H2 9520   5.917   1.140   3.646
 3186TIP3   OH2 9521   2.253   0.929   0.002
 3186TIP3    H1 9522   2.266   0.970   0.088
 3186TIP3    H2 9523   2.255   0.835   0.020
 3187TIP3   OH2 9524   0.455   2.390   4.835
 3187TIP3    H1 9525   0.476   2.297   4.830
 3187TIP3    H2 9526   0.397   2.406   4.761
 3188TIP3   OH2 9527   5.594   0.368   5.725
 3188TIP3    H1 9528   5.646   0.290   5.707
 3188TIP3    H2 9529   5.632   0.436   5.670
 3189TIP3   OH2 9530   0.121   5.068   0.407
 3189TIP3    H1 9531   0.207   5.089   0.443
 3189TIP3    H2 9532   0.075   5.022   0.477
 3190TIP3   OH2 9533   3.980   2.616   4.007
 3190TIP3    H1 9534   4.005   2.588   4.095
 3190TIP3    H2 9535   4.019   2.703   3.997
 3191TIP3   OH2 9536   7.090   2.942   2.213
 3191TIP3    H1 9537   7.089   2.909   2.303
 3191TIP3    H2 9538   7.176   2.917   2.180
 3192TIP3   OH2 9539   6.209   1.325   4.338
 3192TIP3    H1 9540   6.120   1.349   4.365
 3192TIP3    H2 9541   6.263   1.400   4.365
 3193TIP3   OH2 9542   4.896   0.498   5.847
 3193TIP3    H1 9543   4.913   0.405   5.862
 3193TIP3    H2 9544   4.813   0.515   5.891
 3194TIP3   OH2 9545   6.516   2.326   0.926
 3194TIP3    H1 9546   6.576   2.330   0.851
 3194TIP3    H2 9547   6.555   2.263   0.986
 3195TIP3   OH2 9548   6.056   1.107   0.935
 3195TIP3    H1 9549   6.001   1.125   1.010
 3195TIP3    H2 9550   6.074   1.013   0.940
 3196TIP3   OH2 9551   3.844   0.364   4.284
 3196TIP3    H1 9552   3.904   0.410   4.225
 3196TIP3    H2 9553   3.842   0.419   4.362
 3197TIP3   OH2 9554   4.367   2.840   2.039
 3197TIP3    H1 9555   4.418   2.792   2.104
 3197TIP3    H2 9556   4.296   2.881   2.088
 3198TIP3   OH2 9557   2.700  -0.015   5.243
 3198TIP3    H1 9558   2.738   0.033   5.170
 3198TIP3    H2 9559   2.639   0.047   5.284
 3199TIP3   OH2 9560   2.719   5.198   1.968
 3199TIP3    H1 9561   2.724   5.211   1.873
 3199TIP3    H2 9562   2.724   5.287   2.004
 3200TIP3   OH2 9563   4.255   6.657   0.447
 3200TIP3    H1 9564   4.187   6.681   0.509
 3200TIP3    H2 9565   4.258   6.561   0.450
 3201TIP3   OH2 9566   4.423   4.122   5.044
 3201TIP3    H1 9567   4.343   4.076   5.069
 3201TIP3    H2 9568   4.456   4.072   4.969
 3202TIP3   OH2 9569   5.051   1.121   1.835
 3202TIP3    H1 9570   4.980   1.085   1.782
 3202TIP3    H2 9571   5.032   1.091   1.924
 3203TIP3   OH2 9572   3.683   5.683   3.809
 3203TIP3    H1 9573   3.652   5.735   3.735
 3203TIP3    H2 9574   3.653   5.731   3.886
 3204TIP3   OH2 9575   0.819   4.072   1.519
 3204TIP3    H1 9576   0.907   4.070   1.558
 3204TIP3    H2 9577   0.835   4.091   1.426
 3205TIP3   OH2 9578   3.003   4.595   3.625
 3205TIP3    H1 9579   3.034   4.684   3.643
 3205TIP3    H2 9580   2.910   4.605   3.605
 3206TIP3   OH2 9581   4.424   5.497   3.800
 3206TIP3    H1 9582   4.475   5.475   3.877
 3206TIP3    H2 9583   4.489   5.519   3.733
 3207TIP3   OH2 9584   5.077   4.902   1.237
 3207TIP3    H1 9585   5.074   4.968   1.307
 3207TIP3    H2 9586   5.170   4.892   1.218
 3208TIP3   OH2 9587   3.685   2.955   1.272
 3208TIP3    H1 9588   3.711   2.915   1.355
 3208TIP3    H2 9589   3.608   2.905   1.244
 3209TIP3   OH2 9590   2.251   0.975   2.253
 3209TIP3    H1 9591   2.314   0.905   2.271
 3209TIP3    H2 9592   2.264   0.996   2.161
 3210TIP3   OH2 9593   2.208   3.690   1.257
 3210TIP3    H1 9594   2.297   3.721   1.269
 3210TIP3    H2 9595   2.212   3.632   1.181
 3211TIP3   OH2 9596   6.752   0.936  -0.029
 3211TIP3    H1 9597   6.818   0.910   0.035
 3211TIP3    H2 9598   6.714   1.016   0.006
 3212TIP3   OH2 9599   3.753   1.300   1.551
 3212TIP3    H1 9600   3.718   1.379   1.591
 3212TIP3    H2 9601   3.825   1.273   1.607
 3213TIP3   OH2 9602   6.782   2.705   1.697
 3213TIP3    H1 9603   6.743   2.664   1.619
 3213TIP3    H2 9604   6.754   2.797   1.691
 3214TIP3   OH2 9605   3.423   4.147   5.129
 3214TIP3    H1 9606   3.397   4.157   5.037
 3214TIP3    H2 9607   3.500   4.089   5.126
 3215TIP3   OH2 9608   7.170   3.714   4.035
 3215TIP3    H1 9609   7.169   3.774   4.109
 3215TIP3    H2 9610   7.229   3.643   4.062
 3216TIP3   OH2 9611   5.990   5.681   0.289
 3216TIP3    H1 9612   6.081   5.704   0.275
 3216TIP3    H2 9613   5.974   5.704   0.381
 3217TIP3   OH2 9614   4.993   6.499   1.178
 3217TIP3    H1 9615   5.014   6.407   1.166
 3217TIP3    H2 9616   5.077   6.544   1.168
 3218TIP3   OH2 9617   3.337   2.063   4.390
 3218TIP3    H1 9618   3.252   2.037   4.425
 3218TIP3    H2 9619   3.329   2.158   4.377
 3219TIP3   OH2 9620   3.524   3.549   2.129
 3219TIP3    H1 9621   3.472   3.530   2.207
 3219TIP3    H2 9622   3.601   3.492   2.138
 3220TIP3   OH2 9623   5.270   5.893   4.933
 3220TIP3    H1 9624   5.305   5.858   4.850
 3220TIP3    H2 9625   5.183   5.855   4.940
 3221TIP3   OH2 9626  -0.007   2.279   4.259
 3221TIP3    H1 9627   0.019   2.367   4.285
 3221TIP3    H2 9628   0.073   2.227   4.264
 3222TIP3   OH2 9629   5.067   4.951   2.157
 3222TIP3    H1 9630   4.983   4.905   2.163
 3222TIP3    H2 9631   5.126   4.900   2.213
 3223TIP3   OH2 9632   1.123   0.272   5.553
 3223TIP3    H1 9633   1.121   0.210   5.480
 3223TIP3    H2 9634   1.192   0.239   5.610
 3224TIP3   OH2 9635   4.815   6.608   3.847
 3224TIP3    H1 9636   4.849   6.676   3.904
 3224TIP3    H2 9637   4.874   6.606   3.772
 3225TIP3   OH2 9638   5.891   4.566   3.220
 3225TIP3    H1 9639   5.851   4.653   3.224
 3225TIP3    H2 9640   5.844   4.514   3.285
 3226TIP3   OH2 9641   6.128   3.018   0.953
 3226TIP3    H1 9642   6.211   3.026   0.907
 3226TIP3    H2 9643   6.148   3.043   1.044
 3227TIP3   OH2 9644   1.341   0.092   0.220
 3227TIP3    H1 9645   1.334   0.158   0.152
 3227TIP3    H2 9646   1.283   0.021   0.190
 3228TIP3   OH2 9647   2.616   5.607   0.968
 3228TIP3    H1 9648   2.573   5.564   1.042
 3228TIP3    H2 9649   2.636   5.695   1.000
 3229TIP3   OH2 9650   1.869   3.653   0.489
 3229TIP3    H1 9651   1.888   3.716   0.420
 3229TIP3    H2 9652   1.917   3.686   0.565
 3230TIP3   OH2 9653   6.787   1.313   1.372
 3230TIP3    H1 9654   6.834   1.397   1.375
 3230TIP3    H2 9655   6.718   1.322   1.438
 3231TIP3   OH2 9656   5.095   5.506   0.273
 3231TIP3    H1 9657   5.157   5.434   0.282
 3231TIP3    H2 9658   5.074   5.532   0.362
 3232TIP3   OH2 9659   2.423   3.323   1.322
 3232TIP3    H1 9660   2.454   3.410   1.346
 3232TIP3    H2 9661   2.466   3.264   1.384
 3233TIP3   OH2 9662   1.739   5.890   4.748
 3233TIP3    H1 9663   1.710   5.980   4.733
 3233TIP3    H2 9664   1.692   5.838   4.682
 3234TIP3   OH2 9665   5.622   1.375   4.747
 3234TIP3    H1 9666   5.548   1.332   4.789
 3234TIP3    H2 9667   5.688   1.382   4.816
 3235TIP3   OH2 9668   5.613   2.098   4.731
 3235TIP3    H1 9669   5.661   2.165   4.682
 3235TIP3    H2 9670   5.633   2.016   4.687
 3236TIP3   OH2 9671   5.036   5.958   3.196
 3236TIP3    H1 9672   5.068   6.034   3.149
 3236TIP3    H2 9673   5.063   5.971   3.286
 3237TIP3   OH2 9674   3.233   2.769   2.574
 3237TIP3    H1 9675   3.149   2.809   2.551
 3237TIP3    H2 9676   3.221   2.676   2.557
 3238TIP3   OH2 9677   4.272   1.767   3.268
 3238TIP3    H1 9678   4.343   1.704   3.257
 3238TIP3    H2 9679   4.237   1.778   3.180
 3239TIP3   OH2 9680   1.383   5.717   3.380
 3239TIP3    H1 9681   1.430   5.710   3.297
 3239TIP3    H2 9682   1.305   5.663   3.367
 3240TIP3   OH2 9683   3.357   4.499   4.343
 3240TIP3    H1 9684   3.262   4.511   4.346
 3240TIP3    H2 9685   3.369   4.407   4.320
 3241TIP3   OH2 9686   3.950   3.143   5.604
 3241TIP3    H1 9687   3.973   3.050   5.604
 3241TIP3    H2 9688   4.030   3.187   5.635
 3242TIP3   OH2 9689   4.745   3.391   0.869
 3242TIP3    H1 9690   4.825   3.348   0.840
 3242TIP3    H2 9691   4.768   3.434   0.951
 3243TIP3   OH2 9692   0.637   5.944   0.862
 3243TIP3    H1 9693   0.708   5.880   0.870
 3243TIP3    H2 9694   0.661   6.014   0.922
 3244TIP3   OH2 9695   2.460   4.044   1.915
 3244TIP3    H1 9696   2.480   4.034   1.822
 3244TIP3    H2 9697   2.365   4.060   1.918
 3245TIP3   OH2 9698   1.660   3.178   3.307
 3245TIP3    H1 9699   1.635   3.105   3.364
 3245TIP3    H2 9700   1.717   3.138   3.241
 3246TIP3   OH2 9701   4.107   4.944   3.604
 3246TIP3    H1 9702   4.181   4.955   3.664
 3246TIP3    H2 9703   4.126   4.861   3.559
 3247TIP3   OH2 9704   5.711   1.158   0.145
 3247TIP3    H1 9705   5.734   1.251   0.134
 3247TIP3    H2 9706   5.733   1.119   0.060
 3248TIP3   OH2 9707   2.847   5.854   5.342
 3248TIP3    H1 9708   2.801   5.791   5.287
 3248TIP3    H2 9709   2.809   5.938   5.320
 3249TIP3   OH2 9710   4.304   2.800   0.660
 3249TIP3    H1 9711   4.391   2.816   0.698
 3249TIP3    H2 9712   4.266   2.888   0.651
 3250TIP3   OH2 9713   5.768   2.214   5.690
 3250TIP3    H1 9714   5.735   2.141   5.638
 3250TIP3    H2 9715   5.739   2.292   5.643
 3251TIP3   OH2 9716   6.755   5.165   0.582
 3251TIP3    H1 9717   6.728   5.172   0.674
 3251TIP3    H2 9718   6.674   5.150   0.534
 3252TIP3   OH2 9719   5.336   3.241   0.817
 3252TIP3    H1 9720   5.413   3.192   0.843
 3252TIP3    H2 9721   5.344   3.250   0.722
 3253TIP3   OH2 9722   5.299   6.246   1.489
 3253TIP3    H1 9723   5.208   6.271   1.503
 3253TIP3    H2 9724   5.294   6.159   1.450
 3254TIP3   OH2 9725   5.906   3.717   5.753
 3254TIP3    H1 9726   5.984   3.663   5.746
 3254TIP3    H2 9727   5.880   3.735   5.663
 3255TIP3   OH2 9728   6.870   2.330   5.305
 3255TIP3    H1 9729   6.887   2.299   5.216
 3255TIP3    H2 9730   6.864   2.251   5.357
 3256TIP3   OH2 9731   5.185   6.651   0.697
 3256TIP3    H1 9732   5.199   6.734   0.742
 3256TIP3    H2 9733   5.208   6.584   0.761
 3257TIP3   OH2 9734   6.437   2.001   3.453
 3257TIP3    H1 9735   6.354   1.993   3.406
 3257TIP3    H2 9736   6.476   1.914   3.447
 3258TIP3   OH2 9737   2.497   0.424   1.396
 3258TIP3    H1 9738   2.482   0.373   1.316
 3258TIP3    H2 9739   2.519   0.359   1.462
 3259TIP3   OH2 9740   3.683   1.879   4.355
 3259TIP3    H1 9741   3.647   1.943   4.417
 3259TIP3    H2 9742   3.740   1.931   4.299
 3260TIP3   OH2 9743   6.341   6.626   2.919
 3260TIP3    H1 9744   6.408   6.599   2.856
 3260TIP3    H2 9745   6.346   6.561   2.989
 3261TIP3   OH2 9746   5.297   4.839   2.285
 3261TIP3    H1 9747   5.231   4.857   2.352
 3261TIP3    H2 9748   5.343   4.762   2.317
 3262TIP3   OH2 9749   6.354   3.563   2.238
 3262TIP3    H1 9750   6.435   3.611   2.258
 3262TIP3    H2 9751   6.291   3.631   2.217
 3263TIP3   OH2 9752   4.181   5.700   5.375
 3263TIP3    H1 9753   4.275   5.710   5.363
 3263TIP3    H2 9754   4.143   5.763   5.314
 3264TIP3   OH2 9755   4.884   0.678   1.481
 3264TIP3    H1 9756   4.906   0.638   1.565
 3264TIP3    H2 9757   4.952   0.743   1.467
 3265TIP3   OH2 9758   3.905   0.104   3.277
 3265TIP3    H1 9759   3.836   0.051   3.237
 3265TIP3    H2 9760   3.936   0.051   3.350
 3266TIP3   OH2 9761   0.757   3.039   4.134
 3266TIP3    H1 9762   0.685   3.081   4.087
 3266TIP3    H2 9763   0.764   3.088   4.216
 3267TIP3   OH2 9764   3.115   6.665   3.284
 3267TIP3    H1 9765   3.061   6.723   3.337
 3267TIP3    H2 9766   3.079   6.673   3.195
 3268TIP3   OH2 9767   6.497   2.412   2.044
 3268TIP3    H1 9768   6.578   2.459   2.023
 3268TIP3    H2 9769   6.510   2.325   2.008
 3269TIP3   OH2 9770   1.230   6.422   5.188
 3269TIP3    H1 9771   1.179   6.413   5.107
 3269TIP3    H2 9772   1.293   6.350   5.184
 3270TIP3   OH2 9773   4.201   5.987   5.664
 3270TIP3    H1 9774   4.296   5.983   5.654
 3270TIP3    H2 9775   4.187   5.971   5.758
 3271TIP3   OH2 9776   2.612   4.339   5.699
 3271TIP3    H1 9777   2.622   4.275   5.628
 3271TIP3    H2 9778   2.547   4.401   5.665
 3272TIP3   OH2 9779   5.757   4.316   3.717
 3272TIP3    H1 9780   5.760   4.280   3.806
 3272TIP3    H2 9781   5.801   4.251   3.663
 3273TIP3   OH2 9782   3.020   1.937   1.698
 3273TIP3    H1 9783   3.019   1.873   1.627
 3273TIP3    H2 9784   2.934   1.929   1.739
 3274TIP3   OH2 9785   3.232   5.612   5.722
 3274TIP3    H1 9786   3.253   5.552   5.650
 3274TIP3    H2 9787   3.151   5.578   5.760
 3275TIP3   OH2 9788   2.576   0.231   5.325
 3275TIP3    H1 9789   2.640   0.299   5.346
 3275TIP3    H2 9790   2.492   0.277   5.323
 3276TIP3   OH2 9791   4.569   4.277   1.138
 3276TIP3    H1 9792   4.559   4.316   1.225
 3276TIP3    H2 9793   4.647   4.222   1.145
 3277TIP3   OH2 9794   2.816   5.363   1.050
 3277TIP3    H1 9795   2.820   5.447   1.096
 3277TIP3    H2 9796   2.723   5.348   1.036
 3278TIP3   OH2 9797   1.866   3.306   2.939
 3278TIP3    H1 9798   1.913   3.274   3.016
 3278TIP3    H2 9799   1.871   3.401   2.945
 3279TIP3   OH2 9800   0.856   3.385   3.363
 3279TIP3    H1 9801   0.775   3.435   3.373
 3279TIP3    H2 9802   0.918   3.426   3.423
 3280TIP3   OH2 9803   6.979   1.723   1.975
 3280TIP3    H1 9804   7.048   1.719   2.040
 3280TIP3    H2 9805   6.923   1.648   1.995
 3281TIP3   OH2 9806   5.967   4.211   3.558
 3281TIP3    H1 9807   5.948   4.124   3.524
 3281TIP3    H2 9808   6.062   4.210   3.573
 3282TIP3   OH2 9809   1.863   1.907   3.669
 3282TIP3    H1 9810   1.877   1.998   3.695
 3282TIP3    H2 9811   1.794   1.876   3.727
 3283TIP3   OH2 9812   0.753   3.893   5.044
 3283TIP3    H1 9813   0.757   3.978   5.087
 3283TIP3    H2 9814   0.703   3.838   5.104
 3284TIP3   OH2 9815   2.263   2.911   4.248
 3284TIP3    H1 9816   2.170   2.922   4.267
 3284TIP3    H2 9817   2.304   2.990   4.284
 3285TIP3   OH2 9818   7.173   2.317   4.977
 3285TIP3    H1 9819   7.170   2.392   5.037
 3285TIP3    H2 9820   7.246   2.337   4.918
 3286TIP3   OH2 9821   7.066   5.612   4.634
 3286TIP3    H1 9822   7.062   5.680   4.566
 3286TIP3    H2 9823   7.022   5.536   4.595
 3287TIP3   OH2 9824   4.583   2.892   4.436
 3287TIP3    H1 9825   4.588   2.940   4.353
 3287TIP3    H2 9826   4.649   2.934   4.491
 3288TIP3   OH2 9827   4.995   5.401   4.975
 3288TIP3    H1 9828   5.013   5.423   5.067
 3288TIP3    H2 9829   4.988   5.306   4.974
 3289TIP3   OH2 9830   3.262   0.788   4.296
 3289TIP3    H1 9831   3.327   0.721   4.317
 3289TIP3    H2 9832   3.262   0.793   4.200
 3290TIP3   OH2 9833   4.842   1.973   0.308
 3290TIP3    H1 9834   4.755   2.013   0.311
 3290TIP3    H2 9835   4.825   1.881   0.287
 3291TIP3   OH2 9836   1.633   5.056   3.010
 3291TIP3    H1 9837   1.577   5.037   2.934
 3291TIP3    H2 9838   1.633   5.151   3.017
 3292TIP3   OH2 9839   1.687   4.037   4.248
 3292TIP3    H1 9840   1.663   3.948   4.220
 3292TIP3    H2 9841   1.650   4.093   4.180
 3293TIP3   OH2 9842   5.211   6.200   4.976
 3293TIP3    H1 9843   5.180   6.128   5.031
 3293TIP3    H2 9844   5.175   6.182   4.890
 3294TIP3   OH2 9845   6.080   0.271   1.218
 3294TIP3    H1 9846   6.027   0.302   1.291
 3294TIP3    H2 9847   6.037   0.191   1.190
 3295TIP3   OH2 9848   2.566   0.135   5.585
 3295TIP3    H1 9849   2.661   0.125   5.575
 3295TIP3    H2 9850   2.537   0.175   5.503
 3296TIP3   OH2 9851   3.738   5.758   1.542
 3296TIP3    H1 9852   3.833   5.747   1.539
 3296TIP3    H2 9853   3.724   5.850   1.518
 3297TIP3   OH2 9854   3.212   1.524   5.146
 3297TIP3    H1 9855   3.174   1.578   5.216
 3297TIP3    H2 9856   3.241   1.587   5.080
 3298TIP3   OH2 9857   1.625   5.965   0.727
 3298TIP3    H1 9858   1.694   6.011   0.680
 3298TIP3    H2 9859   1.645   5.872   0.716
 3299TIP3   OH2 9860   3.772   1.581   1.720
 3299TIP3    H1 9861   3.697   1.602   1.665
 3299TIP3    H2 9862   3.775   1.651   1.785
 3300TIP3   OH2 9863   2.639   6.447   4.695
 3300TIP3    H1 9864   2.673   6.363   4.661
 3300TIP3    H2 9865   2.566   6.469   4.637
 3301TIP3   OH2 9866   4.640   6.364   0.888
 3301TIP3    H1 9867   4.647   6.417   0.809
 3301TIP3    H2 9868   4.624   6.275   0.856
 3302TIP3   OH2 9869   4.616   3.485   3.652
 3302TIP3    H1 9870   4.555   3.558   3.665
 3302TIP3    H2 9871   4.655   3.503   3.567
 3303TIP3   OH2 9872   4.590   0.283   5.265
 3303TIP3    H1 9873   4.622   0.360   5.217
 3303TIP3    H2 9874   4.496   0.281   5.246
 3304TIP3   OH2 9875   5.776   2.623   1.590
 3304TIP3    H1 9876   5.819   2.539   1.605
 3304TIP3    H2 9877   5.689   2.599   1.557
 3305TIP3   OH2 9878   4.820   0.626   3.035
 3305TIP3    H1 9879   4.781   0.700   2.988
 3305TIP3    H2 9880   4.869   0.666   3.106
 3306TIP3   OH2 9881   5.465   3.853   5.837
 3306TIP3    H1 9882   5.430   3.819   5.755
 3306TIP3    H2 9883   5.508   3.778   5.878
 3307TIP3   OH2 9884   3.593   5.907   0.198
 3307TIP3    H1 9885   3.621   5.896   0.107
 3307TIP3    H2 9886   3.505   5.945   0.192
 3308TIP3   OH2 9887   0.044   0.317   5.397
 3308TIP3    H1 9888   0.097   0.369   5.335
 3308TIP3    H2 9889   0.057   0.227   5.369
 3309TIP3   OH2 9890   3.265   3.322   0.535
 3309TIP3    H1 9891   3.221   3.397   0.575
 3309TIP3    H2 9892   3.313   3.358   0.461
 3310TIP3   OH2 9893   1.374   4.662   2.093
 3310TIP3    H1 9894   1.375   4.567   2.082
 3310TIP3    H2 9895   1.283   4.687   2.076
 3311TIP3   OH2 9896   0.372   5.177   3.595
 3311TIP3    H1 9897   0.298   5.145   3.647
 3311TIP3    H2 9898   0.448   5.162   3.651
 3312TIP3   OH2 9899   6.371   3.409   3.612
 3312TIP3    H1 9900   6.380   3.451   3.697
 3312TIP3    H2 9901   6.376   3.480   3.548
 3313TIP3   OH2 9902   3.821   0.959   5.087
 3313TIP3    H1 9903   3.780   0.880   5.053
 3313TIP3    H2 9904   3.880   0.928   5.156
 3314TIP3   OH2 9905   1.078   4.349   0.745
 3314TIP3    H1 9906   1.008   4.292   0.712
 3314TIP3    H2 9907   1.046   4.438   0.727
 3315TIP3   OH2 9908   6.829   5.478   1.894
 3315TIP3    H1 9909   6.806   5.558   1.848
 3315TIP3    H2 9910   6.792   5.408   1.840
 3316TIP3   OH2 9911   6.355   3.412   1.998
 3316TIP3    H1 9912   6.315   3.456   2.074
 3316TIP3    H2 9913   6.433   3.370   2.034
 3317TIP3   OH2 9914   2.400   2.146   5.831
 3317TIP3    H1 9915   2.362   2.059   5.817
 3317TIP3    H2 9916   2.330   2.207   5.809
 3318TIP3   OH2 9917   6.029   0.122   2.532
 3318TIP3    H1 9918   6.010   0.211   2.560
 3318TIP3    H2 9919   6.123   0.121   2.514
 3319TIP3   OH2 9920   2.435   6.193   2.385
 3319TIP3    H1 9921   2.406   6.242   2.462
 3319TIP3    H2 9922   2.355   6.154   2.350
 3320TIP3   OH2 9923   6.969   5.469   4.085
 3320TIP3    H1 9924   7.057   5.508   4.084
 3320TIP3    H2 9925   6.931   5.498   4.168
 3321TIP3   OH2 9926   2.725   4.883   1.613
 3321TIP3    H1 9927   2.801   4.941   1.617
 3321TIP3    H2 9928   2.734   4.827   1.690
 3322TIP3   OH2 9929   4.122   1.412   4.227
 3322TIP3    H1 9930   4.209   1.424   4.265
 3322TIP3    H2 9931   4.069   1.480   4.268
 3323TIP3   OH2 9932   2.716   5.860   1.382
 3323TIP3    H1 9933   2.799   5.906   1.394
 3323TIP3    H2 9934   2.653   5.929   1.363
 3324TIP3   OH2 9935   2.270   2.632   5.496
 3324TIP3    H1 9936   2.224   2.670   5.571
 3324TIP3    H2 9937   2.200   2.602   5.438
 3325TIP3   OH2 9938   5.266   3.635   4.475
 3325TIP3    H1 9939   5.210   3.560   4.454
 3325TIP3    H2 9940   5.244   3.656   4.566
 3326TIP3   OH2 9941   3.469   5.956   3.429
 3326TIP3    H1 9942   3.504   5.923   3.346
 3326TIP3    H2 9943   3.445   6.046   3.410
 3327TIP3   OH2 9944   3.552   2.613   1.103
 3327TIP3    H1 9945   3.570   2.553   1.030
 3327TIP3    H2 9946   3.497   2.563   1.162
 3328TIP3   OH2 9947   3.476   1.676   2.627
 3328TIP3    H1 9948   3.558   1.671   2.676
 3328TIP3    H2 9949   3.493   1.740   2.558
 3329TIP3   OH2 9950  -0.040   1.533   3.079
 3329TIP3    H1 9951   0.020   1.484   3.022
 3329TIP3    H2 9952  -0.037   1.488   3.163
 3330TIP3   OH2 9953   3.439   6.755   4.399
 3330TIP3    H1 9954   3.346   6.772   4.415
 3330TIP3    H2 9955   3.485   6.804   4.467
 3331TIP3   OH2 9956   4.008   0.519   4.145
 3331TIP3    H1 9957   4.015   0.584   4.076
 3331TIP3    H2 9958   4.099   0.497   4.167
 3332TIP3   OH2 9959   1.830   2.728   3.372
 3332TIP3    H1 9960   1.848   2.635   3.386
 3332TIP3    H2 9961   1.766   2.730   3.301
 3333TIP3   OH2 9962   4.697   6.146   3.397
 3333TIP3    H1 9963   4.775   6.179   3.442
 3333TIP3    H2 9964   4.731   6.105   3.317
 3334TIP3   OH2 9965   2.173   2.996   1.760
 3334TIP3    H1 9966   2.218   2.981   1.844
 3334TIP3    H2 9967   2.182   2.914   1.712
 3335TIP3   OH2 9968   1.692   6.440   5.305
 3335TIP3    H1 9969   1.720   6.365   5.253
 3335TIP3    H2 9970   1.716   6.418   5.395
 3336TIP3   OH2 9971   6.088   2.682   1.564
 3336TIP3    H1 9972   6.018   2.735   1.527
 3336TIP3    H2 9973   6.164   2.740   1.566
 3337TIP3   OH2 9974   0.115   6.677   4.021
 3337TIP3    H1 9975   0.130   6.766   4.052
 3337TIP3    H2 9976   0.027   6.655   4.053
 3338TIP3   OH2 9977   1.971   3.185   2.283
 3338TIP3    H1 9978   1.995   3.144   2.366
 3338TIP3    H2 9979   2.043   3.245   2.264
 3339TIP3   OH2 9980   6.847   1.554   2.338
 3339TIP3    H1 9981   6.775   1.507   2.382
 3339TIP3    H2 9982   6.848   1.518   2.249
 3340TIP3   OH2 9983   5.603   4.919   4.104
 3340TIP3    H1 9984   5.668   4.949   4.167
 3340TIP3    H2 9985   5.522   4.961   4.131
 3341TIP3   OH2 9986   1.171   3.517   5.189
 3341TIP3    H1 9987   1.104   3.462   5.230
 3341TIP3    H2 9988   1.250   3.463   5.191
 3342TIP3   OH2 9989   1.615   3.992   2.809
 3342TIP3    H1 9990   1.659   4.007   2.726
 3342TIP3    H2 9991   1.531   4.037   2.800
 3343TIP3   OH2 9992   4.240   1.918  -0.025
 3343TIP3    H1 9993   4.278   2.005  -0.040
 3343TIP3    H2 9994   4.201   1.925   0.062
 3344TIP3   OH2 9995   5.949   3.242   3.287
 3344TIP3    H1 9996   5.903   3.321   3.317
 3344TIP3    H2 9997   6.028   3.275   3.245
 3345TIP3   OH2 9998   3.454   2.000   4.142
 3345TIP3    H1 9999   3.439   2.069   4.077
 3345TIP3    H210000   3.398   2.023   4.216
 3346TIP3   OH210001   3.917   3.482   3.880
 3346TIP3    H110002   3.844   3.427   3.851
 3346TIP3    H210003   3.993   3.425   3.876
 3347TIP3   OH210004   4.268   3.352   1.374
 3347TIP3    H110005   4.190   3.391   1.415
 3347TIP3    H210006   4.237   3.319   1.290
 3348TIP3   OH210007   4.097   5.657   3.978
 3348TIP3    H110008   4.147   5.722   4.027
 3348TIP3    H210009   4.133   5.662   3.889
 3349TIP3   OH210010   4.871   2.269   2.153
 3349TIP3    H110011   4.929   2.336   2.118
 3349TIP3    H210012   4.930   2.206   2.195
 3350TIP3   OH210013   3.773   6.310   1.872
 3350TIP3    H110014   3.865   6.338   1.868
 3350TIP3    H210015   3.729   6.364   1.806
 3351TIP3   OH210016   1.568   6.116   4.692
 3351TIP3    H110017   1.575   6.175   4.766
 3351TIP3    H210018   1.477   6.126   4.662
 3352TIP3   OH210019   3.698   5.270   2.630
 3352TIP3    H110020   3.761   5.289   2.700
 3352TIP3    H210021   3.635   5.341   2.634
 3353TIP3   OH210022   2.538   2.715   2.027
 3353TIP3    H110023   2.515   2.642   2.084
 3353TIP3    H210024   2.574   2.781   2.087
 3354TIP3   OH210025   3.664   2.285   1.532
 3354TIP3    H110026   3.737   2.229   1.557
 3354TIP3    H210027   3.659   2.277   1.437
 3355TIP3   OH210028   2.253   2.872   1.001
 3355TIP3    H110029   2.280   2.956   1.039
 3355TIP3    H210030   2.334   2.835   0.966
 3356TIP3   OH210031   1.944   5.146   0.461
 3356TIP3    H110032   1.857   5.180   0.486
 3356TIP3    H210033   1.999   5.161   0.537
 3357TIP3   OH210034   4.418   1.495   4.306
 3357TIP3    H110035   4.453   1.557   4.242
 3357TIP3    H210036   4.388   1.550   4.378
 3358TIP3   OH210037   5.587   3.638   0.093
 3358TIP3    H110038   5.503   3.595   0.078
 3358TIP3    H210039   5.641   3.612   0.017
 3359TIP3   OH210040   1.046   5.762   2.892
 3359TIP3    H110041   1.081   5.826   2.830
 3359TIP3    H210042   1.117   5.747   2.954
 3360TIP3   OH210043   3.286   4.825   4.614
 3360TIP3    H110044   3.354   4.886   4.585
 3360TIP3    H210045   3.332   4.742   4.624
 3361TIP3   OH210046   2.757   4.735   3.295
 3361TIP3    H110047   2.828   4.676   3.272
 3361TIP3    H210048   2.680   4.699   3.251
 3362TIP3   OH210049   1.389   5.040   3.350
 3362TIP3    H110050   1.294   5.039   3.360
 3362TIP3    H210051   1.406   4.993   3.268
 3363TIP3   OH210052   2.680   2.364   3.445
 3363TIP3    H110053   2.704   2.308   3.371
 3363TIP3    H210054   2.606   2.319   3.486
 3364TIP3   OH210055   2.900   5.047   0.966
 3364TIP3    H110056   2.815   5.033   1.007
 3364TIP3    H210057   2.905   5.141   0.950
 3365TIP3   OH210058   1.241   4.929   5.863
 3365TIP3    H110059   1.194   4.912   5.781
 3365TIP3    H210060   1.215   5.018   5.887
 3366TIP3   OH210061   6.852   5.828   4.302
 3366TIP3    H110062   6.814   5.910   4.334
 3366TIP3    H210063   6.841   5.832   4.207
 3367TIP3   OH210064   6.737   5.440   4.695
 3367TIP3    H110065   6.787   5.450   4.614
 3367TIP3    H210066   6.648   5.466   4.671
 3368TIP3   OH210067   1.336   5.481   1.713
 3368TIP3    H110068   1.396   5.416   1.751
 3368TIP3    H210069   1.249   5.442   1.722
 3369TIP3   OH210070   1.334   5.171   4.179
 3369TIP3    H110071   1.291   5.171   4.264
 3369TIP3    H210072   1.396   5.097   4.183
 3370TIP3   OH210073   2.853   0.586   4.378
 3370TIP3    H110074   2.773   0.633   4.354
 3370TIP3    H210075   2.914   0.605   4.307
 3371TIP3   OH210076   0.184   5.019   5.417
 3371TIP3    H110077   0.194   5.026   5.512
 3371TIP3    H210078   0.230   5.094   5.381
 3372TIP3   OH210079   3.774   3.417   2.072
 3372TIP3    H110080   3.818   3.333   2.066
 3372TIP3    H210081   3.844   3.480   2.089
 3373TIP3   OH210082   7.114   6.212   5.738
 3373TIP3    H110083   7.197   6.218   5.691
 3373TIP3    H210084   7.048   6.220   5.669
 3374TIP3   OH210085   1.144   4.469   2.073
 3374TIP3    H110086   1.119   4.380   2.047
 3374TIP3    H210087   1.149   4.466   2.168
 3375TIP3   OH210088   2.571   3.116   2.985
 3375TIP3    H110089   2.622   3.041   3.014
 3375TIP3    H210090   2.591   3.123   2.891
 3376TIP3   OH210091   6.604   0.625   1.284
 3376TIP3    H110092   6.683   0.637   1.337
 3376TIP3    H210093   6.538   0.681   1.326
 3377TIP3   OH210094   0.291   4.627   3.900
 3377TIP3    H110095   0.207   4.649   3.859
 3377TIP3    H210096   0.294   4.531   3.899
 3378TIP3   OH210097   5.268   1.563   2.710
 3378TIP3    H110098   5.321   1.628   2.665
 3378TIP3    H210099   5.331   1.501   2.746
 3379TIP3   OH210100   2.830   6.125   2.581
 3379TIP3    H110101   2.885   6.057   2.621
 3379TIP3    H210102   2.766   6.076   2.528
 3380TIP3   OH210103   6.756   3.199   4.877
 3380TIP3    H110104   6.712   3.210   4.961
 3380TIP3    H210105   6.824   3.267   4.877
 3381TIP3   OH210106   3.198   6.540   1.662
 3381TIP3    H110107   3.245   6.474   1.612
 3381TIP3    H210108   3.198   6.506   1.752
 3382TIP3   OH210109   2.004   4.675   2.465
 3382TIP3    H110110   2.024   4.584   2.446
 3382TIP3    H210111   1.970   4.674   2.555
 3383TIP3   OH210112   2.606   1.625   2.097
 3383TIP3    H110113   2.692   1.618   2.057
 3383TIP3    H210114   2.555   1.678   2.036
 3384TIP3   OH210115   5.074   3.943   3.452
 3384TIP3    H110116   5.154   3.891   3.445
 3384TIP3    H210117   5.081   4.007   3.381
 3385TIP3   OH210118   1.309   1.650   0.187
 3385TIP3    H110119   1.229   1.685   0.148
 3385TIP3    H210120   1.281   1.569   0.229
 3386TIP3   OH210121   2.590   3.365   2.598
 3386TIP3    H110122   2.672   3.389   2.641
 3386TIP3    H210123   2.600   3.396   2.508
 3387TIP3   OH210124   7.121   0.229   1.999
 3387TIP3    H110125   7.073   0.196   1.923
 3387TIP3    H210126   7.176   0.155   2.026
 3388TIP3   OH210127   6.151   4.303   5.862
 3388TIP3    H110128   6.149   4.346   5.948
 3388TIP3    H210129   6.060   4.275   5.847
 3389TIP3   OH210130   3.425   0.411   3.381
 3389TIP3    H110131   3.345   0.404   3.329
 3389TIP3    H210132   3.440   0.322   3.413
 3390TIP3   OH210133   6.454   0.730   3.453
 3390TIP3    H110134   6.510   0.766   3.385
 3390TIP3    H210135   6.394   0.801   3.476
 3391TIP3   OH210136   6.223   4.393   0.876
 3391TIP3    H110137   6.261   4.461   0.931
 3391TIP3    H210138   6.289   4.323   0.875
 3392TIP3   OH210139   4.387   3.666   5.030
 3392TIP3    H110140   4.414   3.723   4.958
 3392TIP3    H210141   4.418   3.711   5.108
 3393TIP3   OH210142   2.622   2.766   2.554
 3393TIP3    H110143   2.606   2.844   2.501
 3393TIP3    H210144   2.535   2.735   2.579
 3394TIP3   OH210145   5.482   5.727   4.800
 3394TIP3    H110146   5.515   5.768   4.720
 3394TIP3    H210147   5.492   5.633   4.786
 3395TIP3   OH210148   1.284   4.372   5.266
 3395TIP3    H110149   1.369   4.357   5.306
 3395TIP3    H210150   1.300   4.364   5.172
 3396TIP3   OH210151   1.367   5.566   5.066
 3396TIP3    H110152   1.430   5.503   5.102
 3396TIP3    H210153   1.300   5.574   5.135
 3397TIP3   OH210154   5.814   3.740   4.613
 3397TIP3    H110155   5.899   3.784   4.614
 3397TIP3    H210156   5.769   3.777   4.537
 3398TIP3   OH210157   0.053   1.197   2.267
 3398TIP3    H110158  -0.024   1.141   2.257
 3398TIP3    H210159   0.017   1.286   2.264
 3399TIP3   OH210160   6.740   5.694   1.732
 3399TIP3    H110161   6.795   5.730   1.662
 3399TIP3    H210162   6.670   5.647   1.687
 3400TIP3   OH210163   0.120   4.828   5.228
 3400TIP3    H110164   0.124   4.894   5.297
 3400TIP3    H210165   0.187   4.856   5.165
 3401TIP3   OH210166   6.680   6.179   4.716
 3401TIP3    H110167   6.664   6.198   4.623
 3401TIP3    H210168   6.775   6.165   4.721
 3402TIP3   OH210169   0.585   3.717   5.155
 3402TIP3    H110170   0.569   3.762   5.238
 3402TIP3    H210171   0.498   3.698   5.120
 3403TIP3   OH210172   4.108   4.660   3.459
 3403TIP3    H110173   4.152   4.608   3.392
 3403TIP3    H210174   4.046   4.601   3.499
 3404TIP3   OH210175   4.940   5.170   0.073
 3404TIP3    H110176   5.029   5.181   0.041
 3404TIP3    H210177   4.934   5.078   0.098
 3405TIP3   OH210178   7.025   5.582   2.772
 3405TIP3    H110179   7.020   5.488   2.785
 3405TIP3    H210180   6.971   5.619   2.842
 3406TIP3   OH210181   5.378   6.248   3.542
 3406TIP3    H110182   5.420   6.329   3.572
 3406TIP3    H210183   5.313   6.277   3.478
 3407TIP3   OH210184   3.135   5.836   0.741
 3407TIP3    H110185   3.134   5.928   0.768
 3407TIP3    H210186   3.198   5.795   0.801
 3408TIP3   OH210187   2.630   5.403   4.514
 3408TIP3    H110188   2.557   5.460   4.490
 3408TIP3    H210189   2.611   5.377   4.605
 3409TIP3   OH210190   3.341   6.141   0.848
 3409TIP3    H110191   3.416   6.190   0.813
 3409TIP3    H210192   3.272   6.153   0.782
 3410TIP3   OH210193   7.056   2.095   2.467
 3410TIP3    H110194   7.118   2.032   2.504
 3410TIP3    H210195   6.971   2.053   2.478
 3411TIP3   OH210196   6.663   1.616   3.763
 3411TIP3    H110197   6.589   1.558   3.743
 3411TIP3    H210198   6.651   1.691   3.706
 3412TIP3   OH210199   1.921   6.022   3.826
 3412TIP3    H110200   2.011   6.053   3.832
 3412TIP3    H210201   1.928   5.931   3.795
 3413TIP3   OH210202   5.755   4.804   1.732
 3413TIP3    H110203   5.670   4.813   1.774
 3413TIP3    H210204   5.790   4.721   1.764
 3414TIP3   OH210205   0.454   6.398   4.792
 3414TIP3    H110206   0.384   6.442   4.839
 3414TIP3    H210207   0.409   6.341   4.729
 3415TIP3   OH210208   0.954   4.182   3.738
 3415TIP3    H110209   1.024   4.154   3.679
 3415TIP3    H210210   0.936   4.273   3.714
 3416TIP3   OH210211   1.834   5.933   5.012
 3416TIP3    H110212   1.813   5.920   4.919
 3416TIP3    H210213   1.760   5.985   5.045
 3417TIP3   OH210214   2.263   0.126   0.076
 3417TIP3    H110215   2.262   0.040   0.035
 3417TIP3    H210216   2.227   0.185   0.009
 3418TIP3   OH210217   5.058   2.342   0.634
 3418TIP3    H110218   5.038   2.307   0.547
 3418TIP3    H210219   5.088   2.266   0.684
 3419TIP3   OH210220   0.737   6.067   0.424
 3419TIP3    H110221   0.782   6.011   0.361
 3419TIP3    H210222   0.708   6.008   0.493
 3420TIP3   OH210223   5.044   4.817   2.456
 3420TIP3    H110224   5.080   4.731   2.479
 3420TIP3    H210225   4.952   4.812   2.481
 3421TIP3   OH210226   2.927   6.076   1.418
 3421TIP3    H110227   2.987   6.004   1.436
 3421TIP3    H210228   2.965   6.119   1.340
 3422TIP3   OH210229   5.676   0.043   1.968
 3422TIP3    H110230   5.611   0.097   1.924
 3422TIP3    H210231   5.731   0.106   2.016
 3423TIP3   OH210232   1.492   5.981   1.874
 3423TIP3    H110233   1.575   5.988   1.828
 3423TIP3    H210234   1.473   6.071   1.903
 3424TIP3   OH210235   5.784   4.977   3.888
 3424TIP3    H110236   5.719   4.940   3.947
 3424TIP3    H210237   5.837   4.902   3.860
 3425TIP3   OH210238   6.016   6.558   3.169
 3425TIP3    H110239   5.975   6.524   3.089
 3425TIP3    H210240   6.078   6.624   3.137
 3426TIP3   OH210241   6.080   3.292   5.166
 3426TIP3    H110242   6.017   3.364   5.167
 3426TIP3    H210243   6.054   3.237   5.240
 3427TIP3   OH210244   6.232   0.172   3.520
 3427TIP3    H110245   6.310   0.119   3.537
 3427TIP3    H210246   6.258   0.261   3.540
 3428TIP3   OH210247   4.491   0.818   0.771
 3428TIP3    H110248   4.458   0.761   0.841
 3428TIP3    H210249   4.460   0.905   0.795
 3429TIP3   OH210250   7.023   6.615   3.358
 3429TIP3    H110251   7.083   6.686   3.383
 3429TIP3    H210252   7.010   6.565   3.438
 3430TIP3   OH210253   5.430   2.383   2.149
 3430TIP3    H110254   5.518   2.347   2.156
 3430TIP3    H210255   5.427   2.454   2.214
 3431TIP3   OH210256   6.445   4.611   0.135
 3431TIP3    H110257   6.350   4.611   0.125
 3431TIP3    H210258   6.464   4.533   0.188
 3432TIP3   OH210259   5.328   3.821   1.593
 3432TIP3    H110260   5.258   3.789   1.650
 3432TIP3    H210261   5.347   3.747   1.535
 3433TIP3   OH210262   4.237   3.933   0.371
 3433TIP3    H110263   4.308   3.902   0.428
 3433TIP3    H210264   4.220   4.023   0.400
 3434TIP3   OH210265   2.263   0.374   5.688
 3434TIP3    H110266   2.236   0.307   5.751
 3434TIP3    H210267   2.289   0.449   5.742
 3435TIP3   OH210268   3.411   0.460   2.128
 3435TIP3    H110269   3.362   0.430   2.204
 3435TIP3    H210270   3.445   0.380   2.088
 3436TIP3   OH210271   4.691   0.915   0.124
 3436TIP3    H110272   4.756   0.914   0.194
 3436TIP3    H210273   4.674   0.822   0.107
 3437TIP3   OH210274   3.926   5.271   1.701
 3437TIP3    H110275   3.991   5.341   1.704
 3437TIP3    H210276   3.842   5.316   1.715
 3438TIP3   OH210277   4.565   3.710   2.565
 3438TIP3    H110278   4.577   3.617   2.582
 3438TIP3    H210279   4.647   3.738   2.523
 3439TIP3   OH210280   5.437   6.744   0.324
 3439TIP3    H110281   5.443   6.787   0.410
 3439TIP3    H210282   5.370   6.677   0.335
 3440TIP3   OH210283   3.133   5.938   5.841
 3440TIP3    H110284   3.131   5.931   5.746
 3440TIP3    H210285   3.071   5.873   5.872
 3441TIP3   OH210286   6.001   4.970   1.736
 3441TIP3    H110287   5.983   5.063   1.726
 3441TIP3    H210288   5.914   4.929   1.740
 3442TIP3   OH210289   5.628   0.500   2.938
 3442TIP3    H110290   5.623   0.596   2.939
 3442TIP3    H210291   5.642   0.476   3.030
 3443TIP3   OH210292   2.738   6.254   1.548
 3443TIP3    H110293   2.764   6.165   1.524
 3443TIP3    H210294   2.819   6.304   1.547
 3444TIP3   OH210295   0.575   6.556   0.304
 3444TIP3    H110296   0.497   6.610   0.291
 3444TIP3    H210297   0.550   6.494   0.373
 3445TIP3   OH210298   4.088   2.631   0.691
 3445TIP3    H110299   4.137   2.549   0.700
 3445TIP3    H210300   4.154   2.700   0.700
 3446TIP3   OH210301   2.667   2.563   0.876
 3446TIP3    H110302   2.577   2.581   0.901
 3446TIP3    H210303   2.663   2.542   0.782
 3447TIP3   OH210304   0.964   1.329   1.711
 3447TIP3    H110305   0.927   1.240   1.711
 3447TIP3    H210306   1.007   1.337   1.796
 3448TIP3   OH210307   6.584   0.845   4.696
 3448TIP3    H110308   6.644   0.899   4.644
 3448TIP3    H210309   6.498   0.863   4.659
 3449TIP3   OH210310   5.545   2.937   0.756
 3449TIP3    H110311   5.450   2.925   0.752
 3449TIP3    H210312   5.558   3.021   0.801
 3450TIP3   OH210313   1.385   2.946   1.283
 3450TIP3    H110314   1.434   2.867   1.304
 3450TIP3    H210315   1.351   2.931   1.195
 3451TIP3   OH210316   2.319   1.414   0.997
 3451TIP3    H110317   2.287   1.490   0.949
 3451TIP3    H210318   2.390   1.380   0.944
 3452TIP3   OH210319   5.929   4.505   2.675
 3452TIP3    H110320   5.842   4.530   2.643
 3452TIP3    H210321   5.912   4.453   2.754
 3453TIP3   OH210322   6.388   4.911   4.618
 3453TIP3    H110323   6.312   4.934   4.565
 3453TIP3    H210324   6.442   4.990   4.620
 3454TIP3   OH210325   0.617   6.764   0.030
 3454TIP3    H110326   0.639   6.675   0.004
 3454TIP3    H210327   0.531   6.780  -0.009
 3455TIP3   OH210328   5.783   1.552   3.972
 3455TIP3    H110329   5.864   1.531   4.019
 3455TIP3    H210330   5.723   1.583   4.040
 3456TIP3   OH210331   1.498   0.043   2.013
 3456TIP3    H110332   1.550   0.119   2.037
 3456TIP3    H210333   1.408   0.075   2.007
 3457TIP3   OH210334   4.434   0.652   0.005
 3457TIP3    H110335   4.375   0.611  -0.058
 3457TIP3    H210336   4.389   0.733   0.030
 3458TIP3   OH210337   4.196   2.414   4.581
 3458TIP3    H110338   4.123   2.409   4.520
 3458TIP3    H210339   4.165   2.369   4.660
 3459TIP3   OH210340   0.412   3.386   3.432
 3459TIP3    H110341   0.454   3.317   3.483
 3459TIP3    H210342   0.481   3.451   3.419
 3460TIP3   OH210343   3.764   5.026   3.136
 3460TIP3    H110344   3.700   4.964   3.101
 3460TIP3    H210345   3.713   5.089   3.186
 3461TIP3   OH210346   4.018   0.402   3.772
 3461TIP3    H110347   4.101   0.355   3.774
 3461TIP3    H210348   3.957   0.344   3.818
 3462TIP3   OH210349   6.666   2.880   3.295
 3462TIP3    H110350   6.583   2.852   3.257
 3462TIP3    H210351   6.706   2.800   3.329
 3463TIP3   OH210352   1.554   2.407   0.503
 3463TIP3    H110353   1.490   2.339   0.480
 3463TIP3    H210354   1.516   2.488   0.468
 3464TIP3   OH210355   2.356   0.959   4.332
 3464TIP3    H110356   2.307   0.953   4.250
 3464TIP3    H210357   2.414   1.035   4.319
 3465TIP3   OH210358   1.710   5.229   4.570
 3465TIP3    H110359   1.742   5.228   4.480
 3465TIP3    H210360   1.779   5.273   4.620
 3466TIP3   OH210361   4.817   1.080   3.152
 3466TIP3    H110362   4.732   1.037   3.151
 3466TIP3    H210363   4.840   1.084   3.245
 3467TIP3   OH210364   3.433   5.230   2.506
 3467TIP3    H110365   3.440   5.325   2.504
 3467TIP3    H210366   3.360   5.212   2.564
 3468TIP3   OH210367   1.512   1.436   3.687
 3468TIP3    H110368   1.419   1.436   3.665
 3468TIP3    H210369   1.545   1.352   3.657
 3469TIP3   OH210370   0.946   4.953   5.759
 3469TIP3    H110371   0.931   5.043   5.728
 3469TIP3    H210372   0.865   4.907   5.739
 3470TIP3   OH210373   1.023   3.294   1.362
 3470TIP3    H110374   0.934   3.294   1.397
 3470TIP3    H210375   1.040   3.386   1.340
 3471TIP3   OH210376   0.723   1.306   3.602
 3471TIP3    H110377   0.648   1.295   3.660
 3471TIP3    H210378   0.790   1.248   3.638
 3472TIP3   OH210379   2.460   1.140   1.593
 3472TIP3    H110380   2.543   1.127   1.546
 3472TIP3    H210381   2.409   1.061   1.572
 3473TIP3   OH210382   7.113   1.540   1.078
 3473TIP3    H110383   7.085   1.463   1.127
 3473TIP3    H210384   7.047   1.606   1.096
 3474TIP3   OH210385   5.714   6.433   5.207
 3474TIP3    H110386   5.793   6.393   5.171
 3474TIP3    H210387   5.642   6.377   5.177
 3475TIP3   OH210388   5.850   0.900   4.439
 3475TIP3    H110389   5.910   0.875   4.510
 3475TIP3    H210390   5.905   0.948   4.377
 3476TIP3   OH210391   4.633   2.511   0.731
 3476TIP3    H110392   4.713   2.557   0.706
 3476TIP3    H210393   4.576   2.518   0.655
 3477TIP3   OH210394   5.536   2.626   0.715
 3477TIP3    H110395   5.543   2.531   0.726
 3477TIP3    H210396   5.536   2.639   0.620
 3478TIP3   OH210397   3.218   4.287   1.792
 3478TIP3    H110398   3.152   4.270   1.725
 3478TIP3    H210399   3.188   4.237   1.868
 3479TIP3   OH210400   4.020   4.899   4.382
 3479TIP3    H110401   3.946   4.947   4.344
 3479TIP3    H210402   4.029   4.934   4.471
 3480TIP3   OH210403   0.299   5.786   0.994
 3480TIP3    H110404   0.265   5.762   0.908
 3480TIP3    H210405   0.342   5.706   1.026
 3481TIP3   OH210406   0.761   3.822   0.116
 3481TIP3    H110407   0.758   3.781   0.029
 3481TIP3    H210408   0.734   3.912   0.100
 3482TIP3   OH210409   1.826   0.224   2.910
 3482TIP3    H110410   1.830   0.277   2.989
 3482TIP3    H210411   1.891   0.155   2.923
 3483TIP3   OH210412   4.551   4.691   4.602
 3483TIP3    H110413   4.494   4.765   4.580
 3483TIP3    H210414   4.510   4.652   4.679
 3484TIP3   OH210415   0.432   3.067   4.719
 3484TIP3    H110416   0.406   2.981   4.750
 3484TIP3    H210417   0.510   3.050   4.665
 3485TIP3   OH210418   3.305   0.237   1.251
 3485TIP3    H110419   3.328   0.154   1.295
 3485TIP3    H210420   3.336   0.225   1.161
 3486TIP3   OH210421   5.634   5.902   1.713
 3486TIP3    H110422   5.699   5.945   1.658
 3486TIP3    H210423   5.683   5.875   1.791
 3487TIP3   OH210424   6.828   5.728   0.184
 3487TIP3    H110425   6.879   5.659   0.142
 3487TIP3    H210426   6.882   5.807   0.177
 3488TIP3   OH210427   4.001   5.376   1.161
 3488TIP3    H110428   4.064   5.387   1.089
 3488TIP3    H210429   4.055   5.365   1.239
 3489TIP3   OH210430   4.237   1.105   0.239
 3489TIP3    H110431   4.175   1.071   0.174
 3489TIP3    H210432   4.290   1.029   0.264
 3490TIP3   OH210433   3.704   0.002   2.152
 3490TIP3    H110434   3.707  -0.089   2.184
 3490TIP3    H210435   3.672   0.053   2.226
 3491TIP3   OH210436   4.089   0.055   0.368
 3491TIP3    H110437   4.116   0.142   0.339
 3491TIP3    H210438   4.057   0.068   0.458
 3492TIP3   OH210439   1.725   4.017   1.180
 3492TIP3    H110440   1.695   4.073   1.251
 3492TIP3    H210441   1.652   4.015   1.118
 3493TIP3   OH210442   2.602   6.328   1.324
 3493TIP3    H110443   2.637   6.306   1.410
 3493TIP3    H210444   2.562   6.414   1.335
 3494TIP3   OH210445   3.465   0.853   3.393
 3494TIP3    H110446   3.419   0.825   3.314
 3494TIP3    H210447   3.534   0.787   3.405
 3495TIP3   OH210448   3.680  -0.029   4.965
 3495TIP3    H110449   3.699  -0.037   5.059
 3495TIP3    H210450   3.762   0.001   4.927
 3496TIP3   OH210451   4.884   3.224   3.260
 3496TIP3    H110452   4.902   3.215   3.354
 3496TIP3    H210453   4.796   3.189   3.250
 3497TIP3   OH210454   6.911   3.579   1.670
 3497TIP3    H110455   6.965   3.575   1.591
 3497TIP3    H210456   6.951   3.648   1.722
 3498TIP3   OH210457   6.133   4.842   1.340
 3498TIP3    H110458   6.080   4.775   1.383
 3498TIP3    H210459   6.204   4.859   1.403
 3499TIP3   OH210460   1.265   2.257   2.515
 3499TIP3    H110461   1.262   2.167   2.547
 3499TIP3    H210462   1.207   2.258   2.439
 3500TIP3   OH210463   0.403   5.447   3.155
 3500TIP3    H110464   0.483   5.421   3.200
 3500TIP3    H210465   0.427   5.449   3.063
 3501TIP3   OH210466   6.147   4.533   5.366
 3501TIP3    H110467   6.222   4.486   5.402
 3501TIP3    H210468   6.092   4.554   5.441
 3502TIP3   OH210469   4.621   1.018   3.723
 3502TIP3    H110470   4.590   1.078   3.654
 3502TIP3    H210471   4.542   0.973   3.752
 3503TIP3   OH210472   3.478   4.521   3.998
 3503TIP3    H110473   3.550   4.516   4.061
 3503TIP3    H210474   3.442   4.433   3.994
 3504TIP3   OH210475   2.198   2.683   3.920
 3504TIP3    H110476   2.167   2.682   3.829
 3504TIP3    H210477   2.123   2.713   3.971
 3505TIP3   OH210478   3.801   1.456   5.020
 3505TIP3    H110479   3.773   1.365   5.016
 3505TIP3    H210480   3.847   1.470   4.937
 3506TIP3   OH210481   0.480   2.632   3.149
 3506TIP3    H110482   0.574   2.631   3.128
 3506TIP3    H210483   0.474   2.690   3.225
 3507TIP3   OH210484   6.478   4.781   4.852
 3507TIP3    H110485   6.552   4.835   4.878
 3507TIP3    H210486   6.427   4.836   4.792
 3508TIP3   OH210487   0.759   2.537   2.521
 3508TIP3    H110488   0.714   2.619   2.540
 3508TIP3    H210489   0.703   2.469   2.559
 3509TIP3   OH210490   1.534   1.794   2.411
 3509TIP3    H110491   1.544   1.754   2.325
 3509TIP3    H210492   1.557   1.725   2.473
 3510TIP3   OH210493   3.756   2.870   4.117
 3510TIP3    H110494   3.829   2.866   4.056
 3510TIP3    H210495   3.785   2.929   4.186
 3511TIP3   OH210496   3.884   6.246   5.702
 3511TIP3    H110497   3.854   6.195   5.777
 3511TIP3    H210498   3.813   6.308   5.685
 3512TIP3   OH210499   0.521   4.324   2.354
 3512TIP3    H110500   0.452   4.325   2.420
 3512TIP3    H210501   0.525   4.414   2.322
 3513TIP3   OH210502   4.653   0.636   5.695
 3513TIP3    H110503   4.637   0.623   5.789
 3513TIP3    H210504   4.664   0.731   5.686
 3514TIP3   OH210505   3.652   4.260   4.878
 3514TIP3    H110506   3.665   4.355   4.874
 3514TIP3    H210507   3.582   4.243   4.816
 3515TIP3   OH210508   1.599   0.830   4.723
 3515TIP3    H110509   1.579   0.750   4.771
 3515TIP3    H210510   1.574   0.812   4.633
 3516TIP3   OH210511   5.941   5.850   5.102
 3516TIP3    H110512   5.972   5.859   5.192
 3516TIP3    H210513   5.900   5.764   5.099
 3517TIP3   OH210514   7.182   5.480   5.577
 3517TIP3    H110515   7.271   5.515   5.566
 3517TIP3    H210516   7.136   5.505   5.498
 3518TIP3   OH210517   5.880   3.205   0.557
 3518TIP3    H110518   5.811   3.239   0.614
 3518TIP3    H210519   5.900   3.277   0.498
 3519TIP3   OH210520   4.973   6.109   2.609
 3519TIP3    H110521   5.026   6.146   2.538
 3519TIP3    H210522   5.037   6.069   2.669
 3520TIP3   OH210523   3.737   0.104   4.346
 3520TIP3    H110524   3.764   0.194   4.329
 3520TIP3    H210525   3.685   0.109   4.426
 3521TIP3   OH210526   0.571   2.390   4.173
 3521TIP3    H110527   0.568   2.444   4.095
 3521TIP3    H210528   0.615   2.444   4.238
 3522TIP3   OH210529   7.063   3.184   3.607
 3522TIP3    H110530   7.085   3.179   3.700
 3522TIP3    H210531   6.976   3.143   3.601
 3523TIP3   OH210532   1.523   2.687   3.495
 3523TIP3    H110533   1.456   2.664   3.558
 3523TIP3    H210534   1.481   2.674   3.409
 3524TIP3   OH210535   5.109   1.589   5.275
 3524TIP3    H110536   5.015   1.599   5.293
 3524TIP3    H210537   5.149   1.592   5.362
 3525TIP3   OH210538   4.711   0.820   0.611
 3525TIP3    H110539   4.625   0.825   0.653
 3525TIP3    H210540   4.771   0.799   0.683
 3526TIP3   OH210541   2.829   6.524   2.956
 3526TIP3    H110542   2.861   6.567   2.877
 3526TIP3    H210543   2.758   6.468   2.926
 3527TIP3   OH210544   3.817   5.476   4.323
 3527TIP3    H110545   3.755   5.497   4.393
 3527TIP3    H210546   3.888   5.539   4.335
 3528TIP3   OH210547   0.465   6.317   3.416
 3528TIP3    H110548   0.486   6.237   3.368
 3528TIP3    H210549   0.415   6.370   3.354
 3529TIP3   OH210550   3.327   3.099   5.816
 3529TIP3    H110551   3.307   3.148   5.896
 3529TIP3    H210552   3.374   3.162   5.760
 3530TIP3   OH210553   3.954   0.787   3.391
 3530TIP3    H110554   3.979   0.784   3.299
 3530TIP3    H210555   3.990   0.707   3.429
 3531TIP3   OH210556   0.294   3.043   3.422
 3531TIP3    H110557   0.259   3.098   3.352
 3531TIP3    H210558   0.216   3.003   3.461
 3532TIP3   OH210559   6.892   3.898   5.010
 3532TIP3    H110560   6.797   3.886   5.020
 3532TIP3    H210561   6.926   3.809   5.000
 3533TIP3   OH210562   6.744   0.231   4.907
 3533TIP3    H110563   6.680   0.189   4.849
 3533TIP3    H210564   6.763   0.164   4.973
 3534TIP3   OH210565   4.368   3.362   5.410
 3534TIP3    H110566   4.297   3.386   5.469
 3534TIP3    H210567   4.327   3.359   5.323
 3535TIP3   OH210568   4.744   4.782   5.219
 3535TIP3    H110569   4.697   4.811   5.297
 3535TIP3    H210570   4.786   4.700   5.245
 3536TIP3   OH210571   6.424   4.798   4.173
 3536TIP3    H110572   6.483   4.818   4.246
 3536TIP3    H210573   6.415   4.703   4.174
 3537TIP3   OH210574   5.293   2.414   1.902
 3537TIP3    H110575   5.321   2.425   1.993
 3537TIP3    H210576   5.257   2.326   1.899
 3538TIP3   OH210577   5.383   3.767   5.582
 3538TIP3    H110578   5.402   3.807   5.498
 3538TIP3    H210579   5.308   3.709   5.565
 3539TIP3   OH210580   1.028   6.729   2.670
 3539TIP3    H110581   0.951   6.750   2.723
 3539TIP3    H210582   1.026   6.634   2.660
 3540TIP3   OH210583   5.718   6.267   1.904
 3540TIP3    H110584   5.752   6.190   1.951
 3540TIP3    H210585   5.626   6.270   1.928
 3541TIP3   OH210586   4.272   1.607   5.450
 3541TIP3    H110587   4.206   1.546   5.482
 3541TIP3    H210588   4.353   1.556   5.446
 3542TIP3   OH210589   5.817   4.679   0.672
 3542TIP3    H110590   5.725   4.674   0.699
 3542TIP3    H210591   5.865   4.679   0.754
 3543TIP3   OH210592   0.914   3.795   3.826
 3543TIP3    H110593   0.860   3.845   3.887
 3543TIP3    H210594   1.003   3.806   3.858
 3544TIP3   OH210595   0.229   1.414   3.160
 3544TIP3    H110596   0.274   1.442   3.080
 3544TIP3    H210597   0.267   1.328   3.179
 3545TIP3   OH210598   1.129   5.868   3.199
 3545TIP3    H110599   1.034   5.867   3.215
 3545TIP3    H210600   1.155   5.777   3.211
 3546TIP3   OH210601   1.954   2.825   2.778
 3546TIP3    H110602   1.863   2.805   2.800
 3546TIP3    H210603   1.968   2.913   2.814
 3547TIP3   OH210604   4.981   0.794   4.731
 3547TIP3    H110605   4.968   0.830   4.819
 3547TIP3    H210606   5.070   0.760   4.731
 3548TIP3   OH210607   5.725   3.976   5.109
 3548TIP3    H110608   5.752   3.912   5.043
 3548TIP3    H210609   5.765   4.058   5.079
 3549TIP3   OH210610   2.185   5.777   2.727
 3549TIP3    H110611   2.278   5.790   2.708
 3549TIP3    H210612   2.140   5.801   2.646
 3550TIP3   OH210613   2.226   0.330   1.030
 3550TIP3    H110614   2.175   0.411   1.028
 3550TIP3    H210615   2.165   0.264   1.064
 3551TIP3   OH210616   0.836   0.690   4.267
 3551TIP3    H110617   0.776   0.755   4.231
 3551TIP3    H210618   0.819   0.611   4.216
 3552TIP3   OH210619   4.440   5.126   2.417
 3552TIP3    H110620   4.418   5.045   2.464
 3552TIP3    H210621   4.460   5.097   2.328
 3553TIP3   OH210622   5.184   2.343   0.250
 3553TIP3    H110623   5.247   2.379   0.188
 3553TIP3    H210624   5.099   2.352   0.207
 3554TIP3   OH210625   1.889   6.159   5.753
 3554TIP3    H110626   1.894   6.216   5.830
 3554TIP3    H210627   1.796   6.139   5.744
 3555TIP3   OH210628   3.456   6.534   4.817
 3555TIP3    H110629   3.426   6.476   4.747
 3555TIP3    H210630   3.438   6.622   4.784
 3556TIP3   OH210631   5.102   4.621   2.212
 3556TIP3    H110632   5.065   4.593   2.296
 3556TIP3    H210633   5.046   4.581   2.146
 3557TIP3   OH210634   5.109   0.346   4.526
 3557TIP3    H110635   5.079   0.306   4.444
 3557TIP3    H210636   5.150   0.429   4.498
 3558TIP3   OH210637   2.936   2.980   2.792
 3558TIP3    H110638   2.982   2.958   2.873
 3558TIP3    H210639   2.859   2.923   2.791
 3559TIP3   OH210640   5.549   4.511   0.746
 3559TIP3    H110641   5.569   4.516   0.652
 3559TIP3    H210642   5.462   4.471   0.750
 3560TIP3   OH210643   1.683   3.328   4.128
 3560TIP3    H110644   1.626   3.394   4.166
 3560TIP3    H210645   1.757   3.378   4.093
 3561TIP3   OH210646   0.326   1.035   1.045
 3561TIP3    H110647   0.252   1.052   1.103
 3561TIP3    H210648   0.402   1.066   1.093
 3562TIP3   OH210649   0.583   2.919   5.216
 3562TIP3    H110650   0.651   2.884   5.273
 3562TIP3    H210651   0.541   2.841   5.180
 3563TIP3   OH210652   2.264   3.942   3.330
 3563TIP3    H110653   2.251   3.879   3.401
 3563TIP3    H210654   2.250   3.891   3.250
 3564TIP3   OH210655   5.221   1.155   3.926
 3564TIP3    H110656   5.263   1.071   3.948
 3564TIP3    H210657   5.244   1.170   3.835
 3565TIP3   OH210658   3.571   3.697   4.586
 3565TIP3    H110659   3.480   3.726   4.588
 3565TIP3    H210660   3.583   3.660   4.499
 3566TIP3   OH210661   5.672   3.912   0.747
 3566TIP3    H110662   5.704   3.995   0.783
 3566TIP3    H210663   5.629   3.869   0.821
 3567TIP3   OH210664   7.173   0.161   5.109
 3567TIP3    H110665   7.202   0.107   5.183
 3567TIP3    H210666   7.095   0.206   5.142
 3568TIP3   OH210667   6.090   3.666   2.357
 3568TIP3    H110668   6.002   3.679   2.391
 3568TIP3    H210669   6.088   3.706   2.270
 3569TIP3   OH210670   7.121   1.734   2.843
 3569TIP3    H110671   7.033   1.741   2.879
 3569TIP3    H210672   7.170   1.684   2.908
 3570TIP3   OH210673   0.990   0.380   4.296
 3570TIP3    H110674   0.996   0.364   4.390
 3570TIP3    H210675   1.004   0.475   4.286
 3571TIP3   OH210676   0.298   6.525   2.900
 3571TIP3    H110677   0.261   6.546   2.986
 3571TIP3    H210678   0.365   6.459   2.918
 3572TIP3   OH210679   1.479   4.876   3.156
 3572TIP3    H110680   1.492   4.786   3.127
 3572TIP3    H210681   1.543   4.927   3.105
 3573TIP3   OH210682   5.440   1.680   4.184
 3573TIP3    H110683   5.512   1.734   4.214
 3573TIP3    H210684   5.362   1.721   4.220
 3574TIP3   OH210685   2.967   0.151   3.362
 3574TIP3    H110686   2.902   0.186   3.422
 3574TIP3    H210687   3.023   0.226   3.341
 3575TIP3   OH210688   0.216   0.812   2.107
 3575TIP3    H110689   0.205   0.793   2.200
 3575TIP3    H210690   0.137   0.861   2.083
 3576TIP3   OH210691   5.204   2.041   4.300
 3576TIP3    H110692   5.166   2.044   4.388
 3576TIP3    H210693   5.136   2.075   4.242
 3577TIP3   OH210694   6.294   1.885   1.591
 3577TIP3    H110695   6.370   1.828   1.604
 3577TIP3    H210696   6.330   1.974   1.593
 3578TIP3   OH210697   5.526   1.464   0.198
 3578TIP3    H110698   5.607   1.497   0.160
 3578TIP3    H210699   5.469   1.541   0.205
 3579TIP3   OH210700   3.504   3.104   4.797
 3579TIP3    H110701   3.547   3.163   4.735
 3579TIP3    H210702   3.495   3.021   4.751
 3580TIP3   OH210703   3.882   4.550   5.579
 3580TIP3    H110704   3.936   4.488   5.628
 3580TIP3    H210705   3.945   4.604   5.530
 3581TIP3   OH210706   3.125   5.435   2.595
 3581TIP3    H110707   3.157   5.500   2.657
 3581TIP3    H210708   3.160   5.351   2.627
 3582TIP3   OH210709   5.918   3.298   2.000
 3582TIP3    H110710   5.900   3.389   1.978
 3582TIP3    H210711   5.926   3.297   2.095
 3583TIP3   OH210712   3.310   3.806   0.572
 3583TIP3    H110713   3.277   3.895   0.577
 3583TIP3    H210714   3.400   3.815   0.540
 3584TIP3   OH210715   5.946   5.339   4.327
 3584TIP3    H110716   6.005   5.390   4.383
 3584TIP3    H210717   5.971   5.248   4.341
 3585TIP3   OH210718   5.820   3.464   3.481
 3585TIP3    H110719   5.915   3.454   3.484
 3585TIP3    H210720   5.806   3.544   3.430
 3586TIP3   OH210721   6.286   3.415   1.728
 3586TIP3    H110722   6.346   3.483   1.698
 3586TIP3    H210723   6.298   3.413   1.823
 3587TIP3   OH210724   6.635   2.014   3.257
 3587TIP3    H110725   6.638   1.919   3.241
 3587TIP3    H210726   6.553   2.028   3.306
 3588TIP3   OH210727   5.496   3.997   0.280
 3588TIP3    H110728   5.533   4.035   0.360
 3588TIP3    H210729   5.560   3.931   0.253
 3589TIP3   OH210730   3.326   3.430   3.360
 3589TIP3    H110731   3.274   3.485   3.418
 3589TIP3    H210732   3.337   3.348   3.408
 3590TIP3   OH210733   7.087   0.688   2.247
 3590TIP3    H110734   7.025   0.760   2.236
 3590TIP3    H210735   7.063   0.625   2.180
 3591TIP3   OH210736   6.101   0.766   2.614
 3591TIP3    H110737   6.035   0.702   2.643
 3591TIP3    H210738   6.153   0.783   2.692
 3592TIP3   OH210739   0.970   3.602   3.519
 3592TIP3    H110740   0.956   3.656   3.596
 3592TIP3    H210741   1.064   3.583   3.521
 3593TIP3   OH210742   0.765   5.189   5.186
 3593TIP3    H110743   0.780   5.095   5.171
 3593TIP3    H210744   0.770   5.228   5.098
 3594TIP3   OH210745   3.330   0.031   0.399
 3594TIP3    H110746   3.276   0.102   0.365
 3594TIP3    H210747   3.298  -0.047   0.355
 3595TIP3   OH210748   2.051   0.209   4.739
 3595TIP3    H110749   2.076   0.252   4.820
 3595TIP3    H210750   2.112   0.243   4.673
 3596TIP3   OH210751   4.382   4.692   3.550
 3596TIP3    H110752   4.407   4.599   3.547
 3596TIP3    H210753   4.288   4.692   3.529
 3597TIP3   OH210754   7.215   1.166   4.190
 3597TIP3    H110755   7.131   1.123   4.206
 3597TIP3    H210756   7.194   1.241   4.134
 3598TIP3   OH210757   4.506   5.584   5.361
 3598TIP3    H110758   4.513   5.533   5.280
 3598TIP3    H210759   4.466   5.524   5.424
 3599TIP3   OH210760   2.502   1.123   3.975
 3599TIP3    H110761   2.514   1.158   4.064
 3599TIP3    H210762   2.411   1.145   3.953
 3600TIP3   OH210763   0.918   6.622   1.008
 3600TIP3    H110764   1.002   6.655   1.040
 3600TIP3    H210765   0.941   6.567   0.933
 3601TIP3   OH210766   0.165   1.953   4.119
 3601TIP3    H110767   0.105   1.906   4.177
 3601TIP3    H210768   0.245   1.964   4.171
 3602TIP3   OH210769   3.170   1.397   3.461
 3602TIP3    H110770   3.154   1.485   3.495
 3602TIP3    H210771   3.101   1.343   3.501
 3603TIP3   OH210772   7.091   5.261   0.354
 3603TIP3    H110773   7.064   5.226   0.439
 3603TIP3    H210774   7.181   5.231   0.343
 3604TIP3   OH210775   2.319   0.576   1.225
 3604TIP3    H110776   2.278   0.498   1.187
 3604TIP3    H210777   2.376   0.542   1.294
 3605TIP3   OH210778   5.692   1.992   2.483
 3605TIP3    H110779   5.628   1.983   2.412
 3605TIP3    H210780   5.725   1.903   2.497
 3606TIP3   OH210781   2.773   2.832   2.214
 3606TIP3    H110782   2.820   2.913   2.234
 3606TIP3    H210783   2.696   2.834   2.270
 3607TIP3   OH210784   1.906   0.184   3.428
 3607TIP3    H110785   1.935   0.230   3.507
 3607TIP3    H210786   1.973   0.202   3.363
 3608TIP3   OH210787   4.056   0.025   0.017
 3608TIP3    H110788   3.973   0.008   0.061
 3608TIP3    H210789   4.058   0.120   0.004
 3609TIP3   OH210790   6.700   6.327   0.904
 3609TIP3    H110791   6.710   6.405   0.959
 3609TIP3    H210792   6.771   6.269   0.933
 3610TIP3   OH210793   6.884   3.864   2.054
 3610TIP3    H110794   6.923   3.781   2.081
 3610TIP3    H210795   6.833   3.892   2.130
 3611TIP3   OH210796   0.583   6.052   2.600
 3611TIP3    H110797   0.488   6.043   2.603
 3611TIP3    H210798   0.599   6.136   2.557
 3612TIP3   OH210799   4.693   1.749   1.687
 3612TIP3    H110800   4.748   1.826   1.669
 3612TIP3    H210801   4.617   1.760   1.630
 3613TIP3   OH210802   4.592   1.876   5.821
 3613TIP3    H110803   4.536   1.857   5.896
 3613TIP3    H210804   4.641   1.954   5.847
 3614TIP3   OH210805   2.373   6.123   3.662
 3614TIP3    H110806   2.428   6.185   3.710
 3614TIP3    H210807   2.328   6.073   3.731
 3615TIP3   OH210808   4.327   2.417   0.753
 3615TIP3    H110809   4.374   2.334   0.765
 3615TIP3    H210810   4.395   2.479   0.725
 3616TIP3   OH210811   4.900   0.996   3.689
 3616TIP3    H110812   4.806   0.981   3.682
 3616TIP3    H210813   4.910   1.047   3.770
 3617TIP3   OH210814   5.782   4.374   0.666
 3617TIP3    H110815   5.780   4.435   0.740
 3617TIP3    H210816   5.728   4.416   0.599
 3618TIP3   OH210817   0.579   0.563   1.249
 3618TIP3    H110818   0.633   0.489   1.276
 3618TIP3    H210819   0.507   0.565   1.312
 3619TIP3   OH210820   6.151   6.078   2.325
 3619TIP3    H110821   6.216   6.062   2.256
 3619TIP3    H210822   6.067   6.059   2.283
 3620TIP3   OH210823   3.397   6.809   3.877
 3620TIP3    H110824   3.410   6.835   3.968
 3620TIP3    H210825   3.476   6.758   3.856
 3621TIP3   OH210826   1.834   5.580   2.540
 3621TIP3    H110827   1.854   5.661   2.492
 3621TIP3    H210828   1.786   5.610   2.618
 3622TIP3   OH210829   4.903   3.779   5.504
 3622TIP3    H110830   4.981   3.835   5.505
 3622TIP3    H210831   4.864   3.794   5.418
 3623TIP3   OH210832   1.813   2.690   1.301
 3623TIP3    H110833   1.893   2.651   1.335
 3623TIP3    H210834   1.821   2.680   1.206
 3624TIP3   OH210835   1.226   4.836   0.715
 3624TIP3    H110836   1.176   4.869   0.640
 3624TIP3    H210837   1.190   4.749   0.733
 3625TIP3   OH210838   5.760   2.579   5.749
 3625TIP3    H110839   5.818   2.610   5.819
 3625TIP3    H210840   5.731   2.493   5.778
 3626TIP3   OH210841   0.672   6.734   5.519
 3626TIP3    H110842   0.695   6.810   5.466
 3626TIP3    H210843   0.584   6.711   5.492
 3627TIP3   OH210844   5.381   1.490   5.239
 3627TIP3    H110845   5.288   1.486   5.215
 3627TIP3    H210846   5.397   1.582   5.256
 3628TIP3   OH210847   3.526   1.874   2.441
 3628TIP3    H110848   3.501   1.958   2.402
 3628TIP3    H210849   3.564   1.825   2.369
 3629TIP3   OH210850   0.270   3.968   1.256
 3629TIP3    H110851   0.363   3.961   1.235
 3629TIP3    H210852   0.269   3.994   1.349
 3630TIP3   OH210853   1.747   6.206   3.402
 3630TIP3    H110854   1.695   6.250   3.469
 3630TIP3    H210855   1.695   6.214   3.322
 3631TIP3   OH210856   4.984   5.523   3.548
 3631TIP3    H110857   4.920   5.463   3.509
 3631TIP3    H210858   5.044   5.467   3.596
 3632TIP3   OH210859   1.638   6.381   3.586
 3632TIP3    H110860   1.563   6.416   3.538
 3632TIP3    H210861   1.624   6.407   3.677
 3633TIP3   OH210862   1.054   1.136   0.568
 3633TIP3    H110863   1.045   1.110   0.477
 3633TIP3    H210864   1.115   1.073   0.606
 3634TIP3   OH210865   1.933   0.662   0.339
 3634TIP3    H110866   1.863   0.726   0.353
 3634TIP3    H210867   1.949   0.626   0.426
 3635TIP3   OH210868   6.044   0.195   5.484
 3635TIP3    H110869   6.105   0.160   5.548
 3635TIP3    H210870   5.977   0.239   5.536
 3636TIP3   OH210871   0.773   0.291   5.678
 3636TIP3    H110872   0.764   0.215   5.736
 3636TIP3    H210873   0.767   0.254   5.590
 3637TIP3   OH210874   1.179   5.956   0.753
 3637TIP3    H110875   1.193   5.867   0.784
 3637TIP3    H210876   1.105   5.988   0.804
 3638TIP3   OH210877   3.652   2.305   5.529
 3638TIP3    H110878   3.737   2.287   5.570
 3638TIP3    H210879   3.604   2.223   5.538
 3639TIP3   OH210880   3.482   0.117   0.957
 3639TIP3    H110881   3.525   0.032   0.960
 3639TIP3    H210882   3.421   0.111   0.883
 3640TIP3   OH210883   0.162   0.510   4.426
 3640TIP3    H110884   0.133   0.462   4.348
 3640TIP3    H210885   0.126   0.459   4.499
 3641TIP3   OH210886   7.022   2.819   4.228
 3641TIP3    H110887   6.958   2.854   4.166
 3641TIP3    H210888   7.107   2.850   4.194
 3642TIP3   OH210889   4.314   0.877   4.862
 3642TIP3    H110890   4.273   0.906   4.943
 3642TIP3    H210891   4.323   0.956   4.809
 3643TIP3   OH210892   0.841   3.527   1.086
 3643TIP3    H110893   0.750   3.557   1.079
 3643TIP3    H210894   0.834   3.437   1.119
 3644TIP3   OH210895   7.188   3.850   4.303
 3644TIP3    H110896   7.203   3.882   4.392
 3644TIP3    H210897   7.131   3.774   4.315
 3645TIP3   OH210898   6.680   6.295   1.672
 3645TIP3    H110899   6.646   6.328   1.755
 3645TIP3    H210900   6.740   6.363   1.642
 3646TIP3   OH210901   1.176   2.489   2.313
 3646TIP3    H110902   1.259   2.466   2.272
 3646TIP3    H210903   1.190   2.577   2.348
 3647TIP3   OH210904   6.892   0.709   0.551
 3647TIP3    H110905   6.797   0.718   0.556
 3647TIP3    H210906   6.913   0.729   0.460
 3648TIP3   OH210907   5.687   6.414   2.566
 3648TIP3    H110908   5.748   6.361   2.617
 3648TIP3    H210909   5.624   6.447   2.629
 3649TIP3   OH210910   4.701   5.955   5.902
 3649TIP3    H110911   4.740   6.042   5.899
 3649TIP3    H210912   4.742   5.907   5.830
 3650TIP3   OH210913   0.344   5.625   1.743
 3650TIP3    H110914   0.327   5.707   1.697
 3650TIP3    H210915   0.424   5.643   1.793
 3651TIP3   OH210916   3.173   4.131   2.427
 3651TIP3    H110917   3.168   4.073   2.351
 3651TIP3    H210918   3.227   4.205   2.398
 3652TIP3   OH210919   2.957   4.203   1.320
 3652TIP3    H110920   2.976   4.119   1.277
 3652TIP3    H210921   2.863   4.199   1.337
 3653TIP3   OH210922   2.684   4.833   5.608
 3653TIP3    H110923   2.729   4.912   5.639
 3653TIP3    H210924   2.622   4.864   5.543
 3654TIP3   OH210925   3.641   0.600   2.138
 3654TIP3    H110926   3.553   0.562   2.129
 3654TIP3    H210927   3.694   0.530   2.177
 3655TIP3   OH210928   0.745   2.689   3.061
 3655TIP3    H110929   0.771   2.739   3.138
 3655TIP3    H210930   0.814   2.706   2.997
 3656TIP3   OH210931   5.614   2.730   5.585
 3656TIP3    H110932   5.657   2.675   5.651
 3656TIP3    H210933   5.521   2.723   5.605
 3657TIP3   OH210934   6.724   1.741   0.290
 3657TIP3    H110935   6.687   1.719   0.376
 3657TIP3    H210936   6.670   1.695   0.227
 3658TIP3   OH210937   7.005   3.282   1.543
 3658TIP3    H110938   6.925   3.319   1.580
 3658TIP3    H210939   7.012   3.195   1.584
 3659TIP3   OH210940   2.316   4.029   3.725
 3659TIP3    H110941   2.290   3.968   3.656
 3659TIP3    H210942   2.403   4.000   3.751
 3660TIP3   OH210943   3.530   4.373   3.001
 3660TIP3    H110944   3.444   4.415   3.003
 3660TIP3    H210945   3.534   4.323   3.083
 3661TIP3   OH210946   6.479   3.578   0.659
 3661TIP3    H110947   6.435   3.617   0.734
 3661TIP3    H210948   6.457   3.485   0.664
 3662TIP3   OH210949   5.731   3.377   5.574
 3662TIP3    H110950   5.651   3.387   5.522
 3662TIP3    H210951   5.715   3.299   5.628
 3663TIP3   OH210952   1.186   3.503   4.251
 3663TIP3    H110953   1.157   3.434   4.192
 3663TIP3    H210954   1.117   3.509   4.317
 3664TIP3   OH210955   0.115   1.896   0.591
 3664TIP3    H110956   0.045   1.946   0.550
 3664TIP3    H210957   0.195   1.924   0.546
 3665TIP3   OH210958   4.590   4.362   1.389
 3665TIP3    H110959   4.576   4.456   1.385
 3665TIP3    H210960   4.677   4.352   1.428
 3666TIP3   OH210961   7.104   3.156   4.618
 3666TIP3    H110962   7.168   3.086   4.635
 3666TIP3    H210963   7.056   3.127   4.541
 3667TIP3   OH210964   2.302   4.171   2.162
 3667TIP3    H110965   2.257   4.092   2.131
 3667TIP3    H210966   2.381   4.176   2.108
 3668TIP3   OH210967   3.376   5.533   0.060
 3668TIP3    H110968   3.446   5.554   0.123
 3668TIP3    H210969   3.369   5.438   0.062
 3669TIP3   OH210970   3.721   1.863   0.860
 3669TIP3    H110971   3.673   1.781   0.869
 3669TIP3    H210972   3.659   1.930   0.888
 3670TIP3   OH210973   2.676   5.124   0.335
 3670TIP3    H110974   2.674   5.201   0.277
 3670TIP3    H210975   2.604   5.138   0.396
 3671TIP3   OH210976   7.208   3.258   0.997
 3671TIP3    H110977   7.181   3.215   1.078
 3671TIP3    H210978   7.136   3.243   0.937
 3672TIP3   OH210979   0.655   0.870   3.164
 3672TIP3    H110980   0.652   0.957   3.125
 3672TIP3    H210981   0.731   0.872   3.222
 3673TIP3   OH210982   4.110   2.475   0.235
 3673TIP3    H110983   4.117   2.570   0.240
 3673TIP3    H210984   4.027   2.460   0.190
 3674TIP3   OH210985   4.351   6.724   2.061
 3674TIP3    H110986   4.377   6.679   2.141
 3674TIP3    H210987   4.390   6.811   2.069
 3675TIP3   OH210988   4.986   5.512   1.932
 3675TIP3    H110989   4.987   5.588   1.990
 3675TIP3    H210990   5.057   5.457   1.963
 3676TIP3   OH210991   4.022   4.780   2.759
 3676TIP3    H110992   4.034   4.708   2.822
 3676TIP3    H210993   3.927   4.784   2.747
 3677TIP3   OH210994   6.049   6.180   1.309
 3677TIP3    H110995   6.087   6.178   1.221
 3677TIP3    H210996   5.965   6.135   1.300
 3678TIP3   OH210997   5.678   2.938   1.732
 3678TIP3    H110998   5.746   2.958   1.797
 3678TIP3    H210999   5.606   2.997   1.754
 3679TIP3   OH211000   3.106   4.118   0.067
 3679TIP3    H111001   3.014   4.096   0.078
 3679TIP3    H211002   3.153   4.054   0.121
 3680TIP3   OH211003   0.661   5.711   0.149
 3680TIP3    H111004   0.614   5.635   0.113
 3680TIP3    H211005   0.660   5.697   0.244
 3681TIP3   OH211006   5.924   2.901   3.197
 3681TIP3    H111007   5.859   2.949   3.248
 3681TIP3    H211008   5.998   2.961   3.188
 3682TIP3   OH211009   6.227   6.380   1.696
 3682TIP3    H111010   6.286   6.456   1.700
 3682TIP3    H211011   6.261   6.319   1.762
 3683TIP3   OH211012   5.243   4.007   2.549
 3683TIP3    H111013   5.152   4.036   2.552
 3683TIP3    H211014   5.286   4.069   2.490
 3684TIP3   OH211015   6.836   2.333   2.104
 3684TIP3    H111016   6.885   2.266   2.056
 3684TIP3    H211017   6.888   2.413   2.093
 3685TIP3   OH211018   0.009   4.634   0.778
 3685TIP3    H111019  -0.045   4.560   0.806
 3685TIP3    H211020   0.093   4.595   0.754
 3686TIP3   OH211021   4.525   4.704   0.951
 3686TIP3    H111022   4.554   4.761   0.880
 3686TIP3    H211023   4.595   4.640   0.961
 3687TIP3   OH211024   6.017   6.672   3.417
 3687TIP3    H111025   6.062   6.755   3.402
 3687TIP3    H211026   6.003   6.636   3.330
 3688TIP3   OH211027   2.609   5.469   1.243
 3688TIP3    H111028   2.526   5.497   1.282
 3688TIP3    H211029   2.616   5.376   1.264
 3689TIP3   OH211030   3.351   5.824   1.674
 3689TIP3    H111031   3.325   5.768   1.601
 3689TIP3    H211032   3.378   5.764   1.743
 3690TIP3   OH211033   3.103   0.518   4.729
 3690TIP3    H111034   3.151   0.590   4.768
 3690TIP3    H211035   3.148   0.439   4.759
 3691TIP3   OH211036   0.375   1.430   4.673
 3691TIP3    H111037   0.343   1.402   4.759
 3691TIP3    H211038   0.296   1.437   4.619
 3692TIP3   OH211039   5.481   3.961   4.036
 3692TIP3    H111040   5.487   4.034   4.097
 3692TIP3    H211041   5.417   3.902   4.075
 3693TIP3   OH211042   4.861   1.473   3.574
 3693TIP3    H111043   4.835   1.382   3.559
 3693TIP3    H211044   4.920   1.494   3.502
 3694TIP3   OH211045   0.133   5.842   3.722
 3694TIP3    H111046   0.149   5.829   3.628
 3694TIP3    H211047   0.171   5.928   3.740
 3695TIP3   OH211048   2.565   6.618   4.982
 3695TIP3    H111049   2.499   6.644   4.917
 3695TIP3    H211050   2.617   6.698   4.996
 3696TIP3   OH211051   0.067   5.091   0.710
 3696TIP3    H111052   0.137   5.134   0.758
 3696TIP3    H211053   0.020   5.162   0.666
 3697TIP3   OH211054   4.210   3.332   1.686
 3697TIP3    H111055   4.302   3.344   1.662
 3697TIP3    H211056   4.169   3.416   1.664
 3698TIP3   OH211057   1.696   5.914   0.066
 3698TIP3    H111058   1.667   6.004   0.082
 3698TIP3    H211059   1.646   5.886  -0.011
 3699TIP3   OH211060   6.792   0.093   1.817
 3699TIP3    H111061   6.718   0.091   1.757
 3699TIP3    H211062   6.806   0.186   1.835
 3700TIP3   OH211063   2.040   0.830   4.571
 3700TIP3    H111064   1.972   0.860   4.632
 3700TIP3    H211065   2.080   0.755   4.617
 3701TIP3   OH211066   0.106   6.643   2.079
 3701TIP3    H111067   0.056   6.724   2.073
 3701TIP3    H211068   0.059   6.580   2.024
 3702TIP3   OH211069   0.732   1.805   1.218
 3702TIP3    H111070   0.642   1.834   1.205
 3702TIP3    H211071   0.736   1.778   1.309
 3703TIP3   OH211072   4.669   3.668   4.512
 3703TIP3    H111073   4.723   3.665   4.433
 3703TIP3    H211074   4.610   3.743   4.498
 3704TIP3   OH211075   1.187   2.566   5.290
 3704TIP3    H111076   1.154   2.625   5.223
 3704TIP3    H211077   1.276   2.597   5.308
 3705TIP3   OH211078   0.030   3.218   4.302
 3705TIP3    H111079  -0.059   3.183   4.307
 3705TIP3    H211080   0.085   3.141   4.283
 3706TIP3   OH211081   0.471   3.127   4.313
 3706TIP3    H111082   0.488   3.173   4.395
 3706TIP3    H211083   0.492   3.191   4.245
 3707TIP3   OH211084   0.541   3.481   2.915
 3707TIP3    H111085   0.618   3.537   2.926
 3707TIP3    H211086   0.564   3.424   2.841
 3708TIP3   OH211087   4.796   6.081   3.144
 3708TIP3    H111088   4.840   6.165   3.128
 3708TIP3    H211089   4.864   6.015   3.130
 3709TIP3   OH211090   1.017   1.780   2.504
 3709TIP3    H111091   1.112   1.771   2.491
 3709TIP3    H211092   0.995   1.863   2.462
 3710TIP3   OH211093   5.824   3.039   0.330
 3710TIP3    H111094   5.769   3.101   0.281
 3710TIP3    H211095   5.843   3.084   0.412
 3711TIP3   OH211096   0.232   3.173   5.759
 3711TIP3    H111097   0.147   3.134   5.778
 3711TIP3    H211098   0.217   3.229   5.683
 3712TIP3   OH211099   2.064   1.029   4.872
 3712TIP3    H111100   1.988   1.010   4.817
 3712TIP3    H211101   2.082   0.947   4.917
 3713TIP3   OH211102   6.751   4.025   2.241
 3713TIP3    H111103   6.660   4.054   2.233
 3713TIP3    H211104   6.769   4.027   2.335
 3714TIP3   OH211105   3.407   2.115   3.236
 3714TIP3    H111106   3.482   2.060   3.258
 3714TIP3    H211107   3.351   2.111   3.314
 3715TIP3   OH211108   4.336   5.402   2.855
 3715TIP3    H111109   4.372   5.342   2.920
 3715TIP3    H211110   4.330   5.349   2.775
 3716TIP3   OH211111   0.152   2.465   3.635
 3716TIP3    H111112   0.136   2.522   3.710
 3716TIP3    H211113   0.200   2.520   3.573
 3717TIP3   OH211114   3.196   3.616   4.007
 3717TIP3    H111115   3.134   3.611   4.080
 3717TIP3    H211116   3.186   3.533   3.961
 3718TIP3   OH211117   1.614   1.582   3.134
 3718TIP3    H111118   1.523   1.553   3.137
 3718TIP3    H211119   1.623   1.639   3.210
 3719TIP3   OH211120   0.359   3.380   5.069
 3719TIP3    H111121   0.390   3.420   4.987
 3719TIP3    H211122   0.387   3.289   5.063
 3720TIP3   OH211123   1.016   6.382   0.825
 3720TIP3    H111124   1.000   6.297   0.782
 3720TIP3    H211125   1.112   6.389   0.828
 3721TIP3   OH211126   6.146   4.551   3.133
 3721TIP3    H111127   6.067   4.531   3.182
 3721TIP3    H211128   6.183   4.627   3.177
 3722TIP3   OH211129   0.412   3.503   3.706
 3722TIP3    H111130   0.465   3.424   3.715
 3722TIP3    H211131   0.423   3.529   3.614
 3723TIP3   OH211132   3.727   5.712   0.597
 3723TIP3    H111133   3.660   5.686   0.533
 3723TIP3    H211134   3.712   5.805   0.612
 3724TIP3   OH211135   6.708   0.752   0.887
 3724TIP3    H111136   6.774   0.690   0.917
 3724TIP3    H211137   6.745   0.838   0.907
 3725TIP3   OH211138   1.175   4.575   4.081
 3725TIP3    H111139   1.208   4.512   4.017
 3725TIP3    H211140   1.167   4.525   4.163
 3726TIP3   OH211141   3.373   4.253   1.054
 3726TIP3    H111142   3.281   4.279   1.062
 3726TIP3    H211143   3.376   4.163   1.085
 3727TIP3   OH211144   4.726   6.297   4.290
 3727TIP3    H111145   4.801   6.356   4.300
 3727TIP3    H211146   4.743   6.225   4.350
 3728TIP3   OH211147   0.723   2.167   5.034
 3728TIP3    H111148   0.680   2.085   5.008
 3728TIP3    H211149   0.651   2.224   5.062
 3729TIP3   OH211150   6.016   5.284   3.208
 3729TIP3    H111151   5.994   5.373   3.180
 3729TIP3    H211152   6.009   5.286   3.303
 3730TIP3   OH211153   6.340   2.538   3.012
 3730TIP3    H111154   6.265   2.490   2.977
 3730TIP3    H211155   6.359   2.496   3.095
 3731TIP3   OH211156   6.617   0.165   5.189
 3731TIP3    H111157   6.686   0.104   5.163
 3731TIP3    H211158   6.658   0.251   5.180
 3732TIP3   OH211159   6.944   6.500   0.422
 3732TIP3    H111160   6.850   6.498   0.438
 3732TIP3    H211161   6.983   6.524   0.506
 3733TIP3   OH211162   0.356   4.749   2.243
 3733TIP3    H111163   0.384   4.741   2.152
 3733TIP3    H211164   0.348   4.843   2.258
 3734TIP3   OH211165   6.765   3.602   0.623
 3734TIP3    H111166   6.800   3.513   0.616
 3734TIP3    H211167   6.671   3.591   0.613
 3735TIP3   OH211168   3.623   2.715   0.777
 3735TIP3    H111169   3.600   2.675   0.861
 3735TIP3    H211170   3.593   2.806   0.784
 3736TIP3   OH211171   4.614   5.032   0.042
 3736TIP3    H111172   4.575   4.965  -0.014
 3736TIP3    H211173   4.540   5.084   0.072
 3737TIP3   OH211174   4.207   2.022   0.425
 3737TIP3    H111175   4.225   2.115   0.435
 3737TIP3    H211176   4.286   1.987   0.384
 3738TIP3   OH211177   5.403   2.852   4.049
 3738TIP3    H111178   5.442   2.809   4.126
 3738TIP3    H211179   5.371   2.936   4.082
 3739TIP3   OH211180   7.111   4.877   5.062
 3739TIP3    H111181   7.165   4.867   5.140
 3739TIP3    H211182   7.146   4.953   5.017
 3740TIP3   OH211183   7.118   4.824   1.704
 3740TIP3    H111184   7.206   4.816   1.666
 3740TIP3    H211185   7.092   4.734   1.725
 3741TIP3   OH211186   0.063   1.172   0.696
 3741TIP3    H111187   0.084   1.264   0.713
 3741TIP3    H211188   0.079   1.128   0.780
 3742TIP3   OH211189   1.266   1.634   3.299
 3742TIP3    H111190   1.183   1.616   3.345
 3742TIP3    H211191   1.270   1.730   3.296
 3743TIP3   OH211192   6.952   1.329   4.456
 3743TIP3    H111193   7.002   1.249   4.472
 3743TIP3    H211194   7.009   1.382   4.400
 3744TIP3   OH211195   2.934   0.450   5.154
 3744TIP3    H111196   3.008   0.500   5.188
 3744TIP3    H211197   2.901   0.502   5.081
 3745TIP3   OH211198   0.861   4.655   3.278
 3745TIP3    H111199   0.809   4.709   3.219
 3745TIP3    H211200   0.844   4.565   3.249
 3746TIP3   OH211201   4.992   5.869   3.991
 3746TIP3    H111202   5.020   5.960   3.986
 3746TIP3    H211203   5.009   5.843   4.082
 3747TIP3   OH211204   3.028   1.968   3.560
 3747TIP3    H111205   3.060   1.991   3.472
 3747TIP3    H211206   3.077   2.026   3.619
 3748TIP3   OH211207   4.048   1.287   4.561
 3748TIP3    H111208   3.984   1.231   4.605
 3748TIP3    H211209   4.095   1.229   4.502
 3749TIP3   OH211210   3.061   5.580   0.643
 3749TIP3    H111211   3.083   5.672   0.631
 3749TIP3    H211212   2.983   5.581   0.699
 3750TIP3   OH211213   0.771   6.374   4.746
 3750TIP3    H111214   0.703   6.401   4.685
 3750TIP3    H211215   0.795   6.455   4.792
 3751TIP3   OH211216   4.185   0.375   0.397
 3751TIP3    H111217   4.262   0.348   0.447
 3751TIP3    H211218   4.191   0.327   0.315
 3752TIP3   OH211219   3.987   1.553   2.929
 3752TIP3    H111220   3.949   1.638   2.951
 3752TIP3    H211221   4.069   1.573   2.885
 3753TIP3   OH211222   4.562   2.852   0.796
 3753TIP3    H111223   4.612   2.930   0.819
 3753TIP3    H211224   4.600   2.782   0.850
 3754TIP3   OH211225   6.121   1.850   4.927
 3754TIP3    H111226   6.159   1.764   4.908
 3754TIP3    H211227   6.195   1.903   4.958
 3755TIP3   OH211228   2.997   5.245   5.239
 3755TIP3    H111229   3.030   5.295   5.314
 3755TIP3    H211230   3.055   5.170   5.232
 3756TIP3   OH211231   2.267   1.456   4.967
 3756TIP3    H111232   2.262   1.361   4.956
 3756TIP3    H211233   2.206   1.476   5.037
 3757TIP3   OH211234   4.417   5.880   0.927
 3757TIP3    H111235   4.468   5.810   0.886
 3757TIP3    H211236   4.385   5.841   1.009
 3758TIP3   OH211237   0.200   3.699   3.222
 3758TIP3    H111238   0.155   3.782   3.211
 3758TIP3    H211239   0.175   3.669   3.310
 3759TIP3   OH211240   4.218   5.400   1.662
 3759TIP3    H111241   4.161   5.428   1.590
 3759TIP3    H211242   4.279   5.338   1.621
 3760TIP3   OH211243   6.418   6.581   3.763
 3760TIP3    H111244   6.446   6.570   3.854
 3760TIP3    H211245   6.446   6.670   3.740
 3761TIP3   OH211246   5.664   6.320   5.456
 3761TIP3    H111247   5.683   6.388   5.391
 3761TIP3    H211248   5.575   6.340   5.486
 3762TIP3   OH211249   0.243   4.049   4.512
 3762TIP3    H111250   0.274   4.137   4.490
 3762TIP3    H211251   0.323   3.997   4.522
 3763TIP3   OH211252   1.638   3.027   4.412
 3763TIP3    H111253   1.653   2.952   4.470
 3763TIP3    H211254   1.563   3.071   4.451
 3764TIP3   OH211255   3.554   1.230   4.618
 3764TIP3    H111256   3.560   1.136   4.637
 3764TIP3    H211257   3.503   1.234   4.537
 3765TIP3   OH211258   0.180   0.556   0.626
 3765TIP3    H111259   0.170   0.650   0.642
 3765TIP3    H211260   0.098   0.518   0.656
 3766TIP3   OH211261   2.205   4.902   1.623
 3766TIP3    H111262   2.156   4.892   1.704
 3766TIP3    H211263   2.290   4.937   1.650
 3767TIP3   OH211264   2.902   4.561   0.761
 3767TIP3    H111265   2.990   4.581   0.731
 3767TIP3    H211266   2.853   4.540   0.681
 3768TIP3   OH211267   5.992   2.245   5.550
 3768TIP3    H111268   5.915   2.212   5.596
 3768TIP3    H211269   5.960   2.319   5.499
 3769TIP3   OH211270   4.964   5.255   5.559
 3769TIP3    H111271   5.001   5.168   5.549
 3769TIP3    H211272   4.896   5.244   5.626
 3770TIP3   OH211273   4.803   1.763   5.446
 3770TIP3    H111274   4.806   1.750   5.541
 3770TIP3    H211275   4.797   1.675   5.410
 3771TIP3   OH211276   2.175   2.411   0.828
 3771TIP3    H111277   2.086   2.441   0.810
 3771TIP3    H211278   2.231   2.487   0.810
 3772TIP3   OH211279   6.827   1.861   5.239
 3772TIP3    H111280   6.907   1.905   5.269
 3772TIP3    H211281   6.762   1.931   5.233
 3773TIP3   OH211282   1.492   1.836   5.735
 3773TIP3    H111283   1.466   1.746   5.757
 3773TIP3    H211284   1.578   1.827   5.694
 3774TIP3   OH211285   7.161   0.266   4.853
 3774TIP3    H111286   7.145   0.346   4.904
 3774TIP3    H211287   7.176   0.199   4.920
 3775TIP3   OH211288   4.585   3.404   0.177
 3775TIP3    H111289   4.614   3.408   0.268
 3775TIP3    H211290   4.651   3.350   0.133
 3776TIP3   OH211291   1.660   3.053   1.101
 3776TIP3    H111292   1.597   3.054   1.030
 3776TIP3    H211293   1.700   3.140   1.099
 3777TIP3   OH211294   3.883   2.468   1.040
 3777TIP3    H111295   3.954   2.414   1.008
 3777TIP3    H211296   3.896   2.553   0.997
 3778TIP3   OH211297   6.777   4.554   4.320
 3778TIP3    H111298   6.871   4.544   4.334
 3778TIP3    H211299   6.747   4.605   4.395
 3779TIP3   OH211300   2.794   1.377   2.609
 3779TIP3    H111301   2.706   1.411   2.592
 3779TIP3    H211302   2.792   1.288   2.575
 3780TIP3   OH211303   3.350   2.620   4.103
 3780TIP3    H111304   3.395   2.597   4.022
 3780TIP3    H211305   3.281   2.681   4.075
 3781TIP3   OH211306   0.660   0.228   2.517
 3781TIP3    H111307   0.632   0.158   2.576
 3781TIP3    H211308   0.611   0.305   2.547
 3782TIP3   OH211309   3.695   3.224   5.670
 3782TIP3    H111310   3.781   3.186   5.649
 3782TIP3    H211311   3.716   3.297   5.728
 3783TIP3   OH211312   6.390   0.261   5.041
 3783TIP3    H111313   6.369   0.188   4.982
 3783TIP3    H211314   6.458   0.227   5.099
 3784TIP3   OH211315   0.444   6.145   2.051
 3784TIP3    H111316   0.436   6.184   1.964
 3784TIP3    H211317   0.398   6.206   2.108
 3785TIP3   OH211318   4.428   6.548   1.591
 3785TIP3    H111319   4.505   6.495   1.612
 3785TIP3    H211320   4.377   6.548   1.672
 3786TIP3   OH211321   2.191   1.459   5.655
 3786TIP3    H111322   2.176   1.369   5.626
 3786TIP3    H211323   2.270   1.485   5.609
 3787TIP3   OH211324   5.070   4.941   5.202
 3787TIP3    H111325   5.076   4.958   5.296
 3787TIP3    H211326   5.157   4.961   5.168
 3788TIP3   OH211327   2.528   2.123   3.137
 3788TIP3    H111328   2.553   2.081   3.055
 3788TIP3    H211329   2.444   2.165   3.118
 3789TIP3   OH211330   4.071   0.625   1.915
 3789TIP3    H111331   4.136   0.604   1.849
 3789TIP3    H211332   3.987   0.602   1.875
 3790TIP3   OH211333   7.029   5.314   2.859
 3790TIP3    H111334   7.076   5.240   2.823
 3790TIP3    H211335   7.077   5.338   2.938
 3791TIP3   OH211336   3.462   6.180   4.206
 3791TIP3    H111337   3.513   6.112   4.161
 3791TIP3    H211338   3.522   6.254   4.215
 3792TIP3   OH211339   4.457   1.413   5.565
 3792TIP3    H111340   4.461   1.404   5.661
 3792TIP3    H211341   4.536   1.368   5.534
 3793TIP3   OH211342   4.349   0.097   3.463
 3793TIP3    H111343   4.381   0.070   3.376
 3793TIP3    H211344   4.307   0.182   3.448
 3794TIP3   OH211345   1.000   5.672   4.289
 3794TIP3    H111346   1.061   5.746   4.285
 3794TIP3    H211347   1.023   5.626   4.370
 3795TIP3   OH211348   0.855   3.343   0.102
 3795TIP3    H111349   0.789   3.286   0.062
 3795TIP3    H211350   0.895   3.389   0.028
 3796TIP3   OH211351   2.313   1.272   3.645
 3796TIP3    H111352   2.325   1.177   3.656
 3796TIP3    H211353   2.241   1.294   3.704
 3797TIP3   OH211354   4.335   2.488   2.055
 3797TIP3    H111355   4.286   2.542   2.117
 3797TIP3    H211356   4.321   2.531   1.970
 3798TIP3   OH211357   0.983   1.769   5.221
 3798TIP3    H111358   0.901   1.750   5.267
 3798TIP3    H211359   1.050   1.763   5.289
 3799TIP3   OH211360   1.974   1.959   4.554
 3799TIP3    H111361   1.927   2.039   4.531
 3799TIP3    H211362   1.905   1.892   4.559
 3800TIP3   OH211363   1.150   3.172   4.845
 3800TIP3    H111364   1.136   3.193   4.752
 3800TIP3    H211365   1.244   3.156   4.851
 3801TIP3   OH211366   0.921   6.191   5.813
 3801TIP3    H111367   0.888   6.145   5.736
 3801TIP3    H211368   0.851   6.251   5.837
 3802TIP3   OH211369   1.010   2.665   2.942
 3802TIP3    H111370   1.017   2.570   2.945
 3802TIP3    H211371   1.082   2.696   2.998
 3803TIP3   OH211372   3.193   5.688   2.138
 3803TIP3    H111373   3.116   5.666   2.086
 3803TIP3    H211374   3.184   5.635   2.217
 3804TIP3   OH211375   2.957   0.164   4.826
 3804TIP3    H111376   3.053   0.160   4.823
 3804TIP3    H211377   2.937   0.257   4.816
 3805TIP3   OH211378   3.738   3.497   1.744
 3805TIP3    H111379   3.695   3.412   1.739
 3805TIP3    H211380   3.766   3.516   1.654
 3806TIP3   OH211381   5.665   0.974   2.082
 3806TIP3    H111382   5.586   0.946   2.037
 3806TIP3    H211383   5.721   1.009   2.013
 3807TIP3   OH211384   1.224   3.646   2.816
 3807TIP3    H111385   1.228   3.741   2.805
 3807TIP3    H211386   1.148   3.631   2.872
 3808TIP3   OH211387   0.134   0.371   5.113
 3808TIP3    H111388   0.068   0.301   5.107
 3808TIP3    H211389   0.083   0.452   5.114
 3809TIP3   OH211390   7.017   3.526   1.399
 3809TIP3    H111391   7.049   3.454   1.453
 3809TIP3    H211392   7.084   3.537   1.331
 3810TIP3   OH211393   5.537   4.410   3.556
 3810TIP3    H111394   5.610   4.387   3.613
 3810TIP3    H211395   5.469   4.346   3.577
 3811TIP3   OH211396   1.570   6.749   4.669
 3811TIP3    H111397   1.480   6.782   4.663
 3811TIP3    H211398   1.620   6.806   4.610
 3812TIP3   OH211399   1.367   2.573   1.159
 3812TIP3    H111400   1.330   2.660   1.142
 3812TIP3    H211401   1.343   2.521   1.082
 3813TIP3   OH211402   4.145   0.673   4.483
 3813TIP3    H111403   4.121   0.599   4.539
 3813TIP3    H211404   4.240   0.663   4.470
 3814TIP3   OH211405   4.741   2.902   0.529
 3814TIP3    H111406   4.686   2.861   0.595
 3814TIP3    H211407   4.740   2.995   0.551
 3815TIP3   OH211408   3.606   1.373   4.090
 3815TIP3    H111409   3.536   1.321   4.052
 3815TIP3    H211410   3.584   1.463   4.068
 3816TIP3   OH211411   6.749   3.179   0.851
 3816TIP3    H111412   6.701   3.134   0.781
 3816TIP3    H211413   6.682   3.201   0.916
 3817TIP3   OH211414   0.664   3.476   4.356
 3817TIP3    H111415   0.598   3.540   4.329
 3817TIP3    H211416   0.632   3.443   4.440
 3818TIP3   OH211417   0.974   4.872   4.937
 3818TIP3    H111418   1.049   4.890   4.880
 3818TIP3    H211419   0.946   4.784   4.911
 3819TIP3   OH211420   4.337   6.307   2.249
 3819TIP3    H111421   4.382   6.335   2.169
 3819TIP3    H211422   4.264   6.255   2.218
 3820TIP3   OH211423   3.510   0.879   1.414
 3820TIP3    H111424   3.422   0.842   1.416
 3820TIP3    H211425   3.517   0.921   1.328
 3821TIP3   OH211426   2.452   0.438   3.530
 3821TIP3    H111427   2.370   0.393   3.513
 3821TIP3    H211428   2.451   0.513   3.470
 3822TIP3   OH211429   1.928   5.123   1.959
 3822TIP3    H111430   1.878   5.189   2.008
 3822TIP3    H211431   2.019   5.140   1.983
 3823TIP3   OH211432   5.505   6.584   4.626
 3823TIP3    H111433   5.445   6.532   4.678
 3823TIP3    H211434   5.496   6.674   4.659
 3824TIP3   OH211435   4.858   5.296   3.756
 3824TIP3    H111436   4.918   5.256   3.693
 3824TIP3    H211437   4.772   5.261   3.733
 3825TIP3   OH211438   6.420   3.107   4.691
 3825TIP3    H111439   6.502   3.117   4.644
 3825TIP3    H211440   6.386   3.196   4.698
 3826TIP3   OH211441   6.893   4.497   4.743
 3826TIP3    H111442   6.974   4.548   4.738
 3826TIP3    H211443   6.917   4.410   4.712
 3827TIP3   OH211444   5.351   4.748   2.629
 3827TIP3    H111445   5.283   4.689   2.596
 3827TIP3    H211446   5.384   4.704   2.708
 3828TIP3   OH211447   2.887   5.436   4.360
 3828TIP3    H111448   2.801   5.397   4.375
 3828TIP3    H211449   2.872   5.499   4.289
 3829TIP3   OH211450   4.337   5.197   3.660
 3829TIP3    H111451   4.347   5.270   3.599
 3829TIP3    H211452   4.243   5.190   3.674
 3830TIP3   OH211453   5.413   5.372   4.954
 3830TIP3    H111454   5.501   5.348   4.983
 3830TIP3    H211455   5.368   5.398   5.034
 3831TIP3   OH211456   5.955   1.926   4.413
 3831TIP3    H111457   5.974   2.017   4.394
 3831TIP3    H211458   5.971   1.880   4.330
 3832TIP3   OH211459   4.144   6.266   0.234
 3832TIP3    H111460   4.181   6.299   0.316
 3832TIP3    H211461   4.084   6.196   0.261
 3833TIP3   OH211462   1.648   1.880   3.873
 3833TIP3    H111463   1.586   1.898   3.944
 3833TIP3    H211464   1.651   1.784   3.868
 3834TIP3   OH211465   3.005   5.611   1.484
 3834TIP3    H111466   2.987   5.531   1.533
 3834TIP3    H211467   2.928   5.624   1.430
 3835TIP3   OH211468   4.358   5.670   1.098
 3835TIP3    H111469   4.322   5.591   1.058
 3835TIP3    H211470   4.295   5.693   1.165
 3836TIP3   OH211471   6.889   6.618   5.348
 3836TIP3    H111472   6.969   6.655   5.386
 3836TIP3    H211473   6.839   6.694   5.319
 3837TIP3   OH211474   2.614   0.521   4.848
 3837TIP3    H111475   2.602   0.513   4.943
 3837TIP3    H211476   2.575   0.605   4.826
 3838TIP3   OH211477   3.112   5.038   4.562
 3838TIP3    H111478   3.170   4.963   4.574
 3838TIP3    H211479   3.028   5.000   4.535
 3839TIP3   OH211480   7.016   0.340   4.383
 3839TIP3    H111481   7.002   0.338   4.478
 3839TIP3    H211482   6.942   0.291   4.347
 3840TIP3   OH211483   6.811   0.316   0.686
 3840TIP3    H111484   6.789   0.341   0.596
 3840TIP3    H211485   6.878   0.249   0.676
 3841TIP3   OH211486   4.717   2.244   0.658
 3841TIP3    H111487   4.707   2.337   0.680
 3841TIP3    H211488   4.763   2.245   0.573
 3842TIP3   OH211489   3.529   0.866   2.163
 3842TIP3    H111490   3.482   0.866   2.245
 3842TIP3    H211491   3.582   0.786   2.165
 3843TIP3   OH211492   4.820   3.748   0.456
 3843TIP3    H111493   4.897   3.802   0.440
 3843TIP3    H211494   4.855   3.665   0.488
 3844TIP3   OH211495   6.547   4.369   0.571
 3844TIP3    H111496   6.639   4.386   0.593
 3844TIP3    H211497   6.517   4.451   0.531
 3845TIP3   OH211498   6.507   4.893   3.193
 3845TIP3    H111499   6.589   4.918   3.237
 3845TIP3    H211500   6.462   4.976   3.178
 3846TIP3   OH211501   6.271   3.414   5.309
 3846TIP3    H111502   6.195   3.379   5.262
 3846TIP3    H211503   6.340   3.349   5.294
 3847TIP3   OH211504   7.114   0.077   3.117
 3847TIP3    H111505   7.061   0.038   3.186
 3847TIP3    H211506   7.078   0.041   3.036
 3848TIP3   OH211507   2.725   1.726   0.928
 3848TIP3    H111508   2.673   1.788   0.979
 3848TIP3    H211509   2.668   1.699   0.857
 3849TIP3   OH211510   1.809   1.703   0.583
 3849TIP3    H111511   1.895   1.679   0.619
 3849TIP3    H211512   1.746   1.660   0.641
 3850TIP3   OH211513   4.458   2.414   5.779
 3850TIP3    H111514   4.391   2.354   5.744
 3850TIP3    H211515   4.484   2.467   5.703
 3851TIP3   OH211516   6.514   2.524   2.821
 3851TIP3    H111517   6.462   2.517   2.902
 3851TIP3    H211518   6.455   2.492   2.752
 3852TIP3   OH211519   1.526   5.154   3.621
 3852TIP3    H111520   1.516   5.205   3.541
 3852TIP3    H211521   1.560   5.070   3.592
 3853TIP3   OH211522   0.746   4.566   3.012
 3853TIP3    H111523   0.748   4.472   3.026
 3853TIP3    H211524   0.654   4.586   2.994
 3854TIP3   OH211525   6.974   0.307   3.038
 3854TIP3    H111526   6.880   0.290   3.036
 3854TIP3    H211527   7.011   0.230   3.082
 3855TIP3   OH211528   4.330   0.070   1.440
 3855TIP3    H111529   4.278   0.114   1.372
 3855TIP3    H211530   4.270   0.005   1.477
 3856TIP3   OH211531   6.704   1.039   1.823
 3856TIP3    H111532   6.702   1.076   1.911
 3856TIP3    H211533   6.797   1.029   1.803
 3857TIP3   OH211534   4.568   3.135   1.453
 3857TIP3    H111535   4.522   3.180   1.382
 3857TIP3    H211536   4.502   3.121   1.520
 3858TIP3   OH211537   1.205   1.824   1.949
 3858TIP3    H111538   1.165   1.748   1.906
 3858TIP3    H211539   1.134   1.887   1.958
 3859TIP3   OH211540   2.152   5.923   4.443
 3859TIP3    H111541   2.240   5.960   4.453
 3859TIP3    H211542   2.105   5.951   4.522
 3860TIP3   OH211543   3.376   0.885   0.438
 3860TIP3    H111544   3.411   0.838   0.362
 3860TIP3    H211545   3.427   0.851   0.512
 3861TIP3   OH211546   5.135   1.023   0.842
 3861TIP3    H111547   5.058   0.987   0.886
 3861TIP3    H211548   5.138   0.979   0.757
 3862TIP3   OH211549   3.969   4.798   0.201
 3862TIP3    H111550   3.890   4.825   0.248
 3862TIP3    H211551   3.938   4.768   0.116
 3863TIP3   OH211552   0.591   4.953   4.570
 3863TIP3    H111553   0.661   4.897   4.602
 3863TIP3    H211554   0.566   4.915   4.486
 3864TIP3   OH211555   6.421   4.966   3.942
 3864TIP3    H111556   6.508   4.956   3.904
 3864TIP3    H211557   6.411   4.889   3.999
 3865TIP3   OH211558   3.957   4.093   2.771
 3865TIP3    H111559   3.939   4.088   2.865
 3865TIP3    H211560   3.928   4.009   2.737
 3866TIP3   OH211561   3.440   2.821   1.223
 3866TIP3    H111562   3.469   2.730   1.216
 3866TIP3    H211563   3.393   2.838   1.142
 3867TIP3   OH211564   5.239   2.316   4.564
 3867TIP3    H111565   5.164   2.317   4.503
 3867TIP3    H211566   5.315   2.304   4.508
 3868TIP3   OH211567   4.976   3.679   0.914
 3868TIP3    H111568   4.885   3.656   0.933
 3868TIP3    H211569   5.015   3.693   1.000
 3869TIP3   OH211570   1.263   4.992   5.370
 3869TIP3    H111571   1.310   4.910   5.387
 3869TIP3    H211572   1.184   4.986   5.423
 3870TIP3   OH211573   2.437   5.564   1.814
 3870TIP3    H111574   2.456   5.658   1.820
 3870TIP3    H211575   2.396   5.544   1.899
 3871TIP3   OH211576   4.725   3.408   5.211
 3871TIP3    H111577   4.690   3.458   5.138
 3871TIP3    H211578   4.798   3.460   5.244
 3872TIP3   OH211579   0.860   0.315   0.078
 3872TIP3    H111580   0.934   0.376   0.073
 3872TIP3    H211581   0.850   0.297   0.171
 3873TIP3   OH211582   5.229   2.451   2.433
 3873TIP3    H111583   5.322   2.430   2.425
 3873TIP3    H211584   5.193   2.434   2.346
 3874TIP3   OH211585   2.944   1.262   1.229
 3874TIP3    H111586   3.031   1.226   1.249
 3874TIP3    H211587   2.960   1.354   1.208
 3875TIP3   OH211588   3.408   3.081   1.804
 3875TIP3    H111589   3.318   3.058   1.825
 3875TIP3    H211590   3.461   3.016   1.849
 3876TIP3   OH211591   5.164   2.295   1.401
 3876TIP3    H111592   5.104   2.298   1.476
 3876TIP3    H211593   5.243   2.253   1.434
 3877TIP3   OH211594   0.336   4.466   1.911
 3877TIP3    H111595   0.281   4.498   1.840
 3877TIP3    H211596   0.383   4.543   1.943
 3878TIP3   OH211597   0.035   5.576   1.575
 3878TIP3    H111598   0.021   5.662   1.615
 3878TIP3    H211599   0.108   5.589   1.515
 3879TIP3   OH211600   2.398   4.219   4.353
 3879TIP3    H111601   2.346   4.139   4.367
 3879TIP3    H211602   2.473   4.190   4.301
 3880TIP3   OH211603   5.773   5.630   0.021
 3880TIP3    H111604   5.863   5.661   0.024
 3880TIP3    H211605   5.721   5.709   0.006
 3881TIP3   OH211606   6.835   3.506   5.606
 3881TIP3    H111607   6.771   3.466   5.547
 3881TIP3    H211608   6.908   3.445   5.608
 3882TIP3   OH211609   1.937   5.332   2.463
 3882TIP3    H111610   1.903   5.418   2.491
 3882TIP3    H211611   2.023   5.351   2.426
 3883TIP3   OH211612   6.621   1.965   4.580
 3883TIP3    H111613   6.625   2.019   4.501
 3883TIP3    H211614   6.665   2.017   4.647
 3884TIP3   OH211615   2.208   6.488   5.871
 3884TIP3    H111616   2.123   6.500   5.830
 3884TIP3    H211617   2.241   6.578   5.882
 3885TIP3   OH211618   5.910   2.755   0.112
 3885TIP3    H111619   5.823   2.742   0.075
 3885TIP3    H211620   5.894   2.799   0.196
 3886TIP3   OH211621   5.370   0.663   3.278
 3886TIP3    H111622   5.466   0.663   3.277
 3886TIP3    H211623   5.346   0.647   3.369
 3887TIP3   OH211624   5.715   1.595   3.498
 3887TIP3    H111625   5.645   1.530   3.505
 3887TIP3    H211626   5.789   1.555   3.542
 3888TIP3   OH211627   4.220   4.849   2.196
 3888TIP3    H111628   4.146   4.797   2.227
 3888TIP3    H211629   4.233   4.821   2.105
 3889TIP3   OH211630   1.704   5.334   3.021
 3889TIP3    H111631   1.786   5.341   2.973
 3889TIP3    H211632   1.673   5.425   3.030
 3890TIP3   OH211633   1.090   4.344   0.058
 3890TIP3    H111634   1.038   4.352  -0.022
 3890TIP3    H211635   1.025   4.334   0.128
 3891TIP3   OH211636   6.718   1.117   5.266
 3891TIP3    H111637   6.742   1.193   5.212
 3891TIP3    H211638   6.633   1.089   5.230
 3892TIP3   OH211639   2.836   1.438   3.932
 3892TIP3    H111640   2.814   1.353   3.894
 3892TIP3    H211641   2.854   1.419   4.024
 3893TIP3   OH211642   1.892   0.153   3.941
 3893TIP3    H111643   1.817   0.208   3.915
 3893TIP3    H211644   1.896   0.085   3.874
 3894TIP3   OH211645   6.533   3.546   0.253
 3894TIP3    H111646   6.473   3.606   0.298
 3894TIP3    H211647   6.508   3.459   0.284
 3895TIP3   OH211648   2.170   6.631   4.121
 3895TIP3    H111649   2.188   6.707   4.175
 3895TIP3    H211650   2.170   6.664   4.032
 3896TIP3   OH211651   5.697   6.170   5.071
 3896TIP3    H111652   5.626   6.217   5.026
 3896TIP3    H211653   5.699   6.084   5.030
 3897TIP3   OH211654   0.106   2.746   5.144
 3897TIP3    H111655   0.071   2.806   5.078
 3897TIP3    H211656   0.056   2.665   5.132
 3898TIP3   OH211657   5.761   3.756   4.921
 3898TIP3    H111658   5.777   3.769   4.827
 3898TIP3    H211659   5.826   3.691   4.947
 3899TIP3   OH211660   1.126   4.550   3.752
 3899TIP3    H111661   1.217   4.529   3.774
 3899TIP3    H211662   1.129   4.578   3.661
 3900TIP3   OH211663   1.933   3.147   2.682
 3900TIP3    H111664   1.929   3.214   2.750
 3900TIP3    H211665   2.007   3.173   2.627
 3901TIP3   OH211666   3.635   0.313   3.711
 3901TIP3    H111667   3.698   0.287   3.644
 3901TIP3    H211668   3.668   0.396   3.744
 3902TIP3   OH211669   3.393   0.460   4.786
 3902TIP3    H111670   3.450   0.536   4.783
 3902TIP3    H211671   3.406   0.417   4.701
 3903TIP3   OH211672   2.175   6.193   4.138
 3903TIP3    H111673   2.248   6.238   4.182
 3903TIP3    H211674   2.098   6.214   4.191
 3904TIP3   OH211675   3.139   3.627   3.480
 3904TIP3    H111676   3.093   3.692   3.426
 3904TIP3    H211677   3.156   3.672   3.563
 3905TIP3   OH211678   0.042   6.677   4.728
 3905TIP3    H111679   0.030   6.583   4.722
 3905TIP3    H211680  -0.018   6.713   4.662
 3906TIP3   OH211681   6.466   5.278   2.985
 3906TIP3    H111682   6.440   5.311   3.070
 3906TIP3    H211683   6.440   5.347   2.923
 3907TIP3   OH211684   3.050   5.352   0.463
 3907TIP3    H111685   3.043   5.441   0.495
 3907TIP3    H211686   3.140   5.344   0.432
 3908TIP3   OH211687   0.790   4.680   3.714
 3908TIP3    H111688   0.816   4.589   3.700
 3908TIP3    H211689   0.704   4.674   3.757
 3909TIP3   OH211690   4.743   6.613   2.172
 3909TIP3    H111691   4.658   6.643   2.207
 3909TIP3    H211692   4.781   6.691   2.132
 3910TIP3   OH211693   1.768   3.340   0.988
 3910TIP3    H111694   1.827   3.390   1.045
 3910TIP3    H211695   1.824   3.273   0.949
 3911TIP3   OH211696   0.342   6.526   2.011
 3911TIP3    H111697   0.413   6.588   2.025
 3911TIP3    H211698   0.262   6.579   2.016
 3912TIP3   OH211699   2.716   1.100   3.569
 3912TIP3    H111700   2.644   1.111   3.506
 3912TIP3    H211701   2.692   1.021   3.617
 3913TIP3   OH211702   6.217   5.460   3.821
 3913TIP3    H111703   6.283   5.528   3.814
 3913TIP3    H211704   6.153   5.480   3.752
 3914TIP3   OH211705   4.350   1.278   1.488
 3914TIP3    H111706   4.388   1.365   1.499
 3914TIP3    H211707   4.297   1.284   1.408
 3915TIP3   OH211708   6.128   6.192   1.987
 3915TIP3    H111709   6.079   6.193   2.069
 3915TIP3    H211710   6.206   6.244   2.006
 3916TIP3   OH211711   6.841   3.546   3.226
 3916TIP3    H111712   6.883   3.518   3.145
 3916TIP3    H211713   6.899   3.515   3.295
 3917TIP3   OH211714   7.020   6.378   5.300
 3917TIP3    H111715   7.012   6.320   5.225
 3917TIP3    H211716   6.955   6.447   5.285
 3918TIP3   OH211717   5.836   2.669   5.312
 3918TIP3    H111718   5.837   2.743   5.372
 3918TIP3    H211719   5.857   2.707   5.227
 3919TIP3   OH211720   6.267   0.903   3.591
 3919TIP3    H111721   6.225   0.822   3.620
 3919TIP3    H211722   6.262   0.961   3.667
 3920TIP3   OH211723   2.490   5.881   0.197
 3920TIP3    H111724   2.474   5.971   0.168
 3920TIP3    H211725   2.423   5.865   0.264
 3921TIP3   OH211726   1.912   2.389   2.053
 3921TIP3    H111727   1.954   2.472   2.076
 3921TIP3    H211728   1.949   2.366   1.968
 3922TIP3   OH211729   6.888   3.900   1.199
 3922TIP3    H111730   6.933   3.975   1.160
 3922TIP3    H211731   6.958   3.848   1.239
 3923TIP3   OH211732   1.525   3.024   0.683
 3923TIP3    H111733   1.504   3.080   0.758
 3923TIP3    H211734   1.586   2.959   0.717
 3924TIP3   OH211735   5.230   2.748   5.857
 3924TIP3    H111736   5.296   2.707   5.913
 3924TIP3    H211737   5.152   2.754   5.912
 3925TIP3   OH211738   6.545   2.006   2.101
 3925TIP3    H111739   6.639   1.999   2.085
 3925TIP3    H211740   6.505   2.007   2.014
 3926TIP3   OH211741   0.775   5.163   1.489
 3926TIP3    H111742   0.785   5.214   1.409
 3926TIP3    H211743   0.768   5.229   1.558
 3927TIP3   OH211744   5.926   5.682   2.415
 3927TIP3    H111745   5.833   5.661   2.416
 3927TIP3    H211746   5.941   5.730   2.497
 3928TIP3   OH211747   7.055   5.862   3.739
 3928TIP3    H111748   7.150   5.860   3.728
 3928TIP3    H211749   7.032   5.774   3.770
 3929TIP3   OH211750   6.071   2.514   0.099
 3929TIP3    H111751   6.136   2.545   0.161
 3929TIP3    H211752   6.009   2.587   0.091
 3930TIP3   OH211753   5.814   1.533   1.809
 3930TIP3    H111754   5.868   1.599   1.767
 3930TIP3    H211755   5.777   1.578   1.885
 3931TIP3   OH211756   3.733   6.335   3.795
 3931TIP3    H111757   3.723   6.240   3.792
 3931TIP3    H211758   3.684   6.361   3.873
 3932TIP3   OH211759   5.985   1.311   4.081
 3932TIP3    H111760   6.008   1.397   4.117
 3932TIP3    H211761   5.920   1.276   4.142
 3933TIP3   OH211762   2.011   5.693   5.187
 3933TIP3    H111763   2.039   5.768   5.135
 3933TIP3    H211764   1.996   5.728   5.274
 3934TIP3   OH211765   2.287   3.786   4.619
 3934TIP3    H111766   2.253   3.851   4.680
 3934TIP3    H211767   2.339   3.727   4.673
 3935TIP3   OH211768   1.383   1.465   3.111
 3935TIP3    H111769   1.327   1.514   3.172
 3935TIP3    H211770   1.323   1.404   3.067
 3936TIP3   OH211771   2.812   4.031   3.093
 3936TIP3    H111772   2.837   3.944   3.061
 3936TIP3    H211773   2.783   4.078   3.014
 3937TIP3   OH211774   7.021   6.000   3.969
 3937TIP3    H111775   6.945   5.965   4.017
 3937TIP3    H211776   7.035   5.938   3.898
 3938TIP3   OH211777   5.246   3.805   4.737
 3938TIP3    H111778   5.276   3.872   4.677
 3938TIP3    H211779   5.320   3.789   4.795
 3939TIP3   OH211780   2.793   0.928   4.774
 3939TIP3    H111781   2.827   0.868   4.707
 3939TIP3    H211782   2.747   0.871   4.836
 3940TIP3   OH211783   1.767   4.338   3.392
 3940TIP3    H111784   1.707   4.411   3.408
 3940TIP3    H211785   1.729   4.290   3.319
 3941TIP3   OH211786   6.381   6.765   1.080
 3941TIP3    H111787   6.341   6.843   1.042
 3941TIP3    H211788   6.428   6.724   1.007
 3942TIP3   OH211789   4.626   6.255   5.048
 3942TIP3    H111790   4.545   6.300   5.026
 3942TIP3    H211791   4.621   6.241   5.142
 3943TIP3   OH211792   6.225   4.740   4.365
 3943TIP3    H111793   6.198   4.658   4.325
 3943TIP3    H211794   6.261   4.792   4.292
 3944TIP3   OH211795   6.806   6.135   0.120
 3944TIP3    H111796   6.746   6.197   0.079
 3944TIP3    H211797   6.768   6.049   0.103
 3945TIP3   OH211798   2.648   4.534   1.599
 3945TIP3    H111799   2.617   4.444   1.598
 3945TIP3    H211800   2.607   4.574   1.522
 3946TIP3   OH211801   3.300   4.689   2.949
 3946TIP3    H111802   3.287   4.597   2.972
 3946TIP3    H211803   3.391   4.693   2.918
 3947TIP3   OH211804   1.303   1.471   0.867
 3947TIP3    H111805   1.246   1.419   0.924
 3947TIP3    H211806   1.322   1.413   0.793
 3948TIP3   OH211807   1.698   1.334   3.441
 3948TIP3    H111808   1.655   1.300   3.363
 3948TIP3    H211809   1.779   1.373   3.409
 3949TIP3   OH211810   6.408   6.253   1.838
 3949TIP3    H111811   6.430   6.163   1.814
 3949TIP3    H211812   6.493   6.296   1.849
 3950TIP3   OH211813   2.973   2.713   5.003
 3950TIP3    H111814   2.906   2.674   5.059
 3950TIP3    H211815   2.935   2.797   4.976
 3951TIP3   OH211816   4.937   4.270   5.835
 3951TIP3    H111817   4.853   4.225   5.844
 3951TIP3    H211818   4.914   4.362   5.820
 3952TIP3   OH211819   5.866   6.157   3.287
 3952TIP3    H111820   5.954   6.193   3.275
 3952TIP3    H211821   5.818   6.226   3.333
 3953TIP3   OH211822   6.543   2.800   0.808
 3953TIP3    H111823   6.551   2.878   0.754
 3953TIP3    H211824   6.449   2.788   0.821
 3954TIP3   OH211825   3.171   2.303   4.048
 3954TIP3    H111826   3.125   2.219   4.040
 3954TIP3    H211827   3.113   2.357   4.101
 3955TIP3   OH211828   5.387   3.463   0.042
 3955TIP3    H111829   5.401   3.461   0.137
 3955TIP3    H211830   5.295   3.439   0.031
 3956TIP3   OH211831   7.066   6.633   4.350
 3956TIP3    H111832   7.062   6.554   4.404
 3956TIP3    H211833   7.045   6.704   4.411
 3957TIP3   OH211834   4.676   6.318   2.151
 3957TIP3    H111835   4.596   6.342   2.105
 3957TIP3    H211836   4.713   6.402   2.181
 3958TIP3   OH211837   2.559   4.207   0.092
 3958TIP3    H111838   2.520   4.193   0.006
 3958TIP3    H211839   2.485   4.229   0.148
 3959TIP3   OH211840   0.456   4.259   0.856
 3959TIP3    H111841   0.511   4.184   0.835
 3959TIP3    H211842   0.368   4.233   0.828
 3960TIP3   OH211843   6.796   0.395   2.290
 3960TIP3    H111844   6.878   0.392   2.339
 3960TIP3    H211845   6.773   0.488   2.289
 3961TIP3   OH211846   5.200   2.767   1.898
 3961TIP3    H111847   5.127   2.824   1.925
 3961TIP3    H211848   5.230   2.805   1.815
 3962TIP3   OH211849   3.889   0.910   2.804
 3962TIP3    H111850   3.976   0.944   2.822
 3962TIP3    H211851   3.899   0.815   2.804
 3963TIP3   OH211852   0.600   0.942   1.068
 3963TIP3    H111853   0.601   0.944   1.164
 3963TIP3    H211854   0.678   0.990   1.042
 3964TIP3   OH211855   6.903   3.807   0.506
 3964TIP3    H111856   6.854   3.758   0.572
 3964TIP3    H211857   6.945   3.877   0.555
 3965TIP3   OH211858   4.266   4.660   5.635
 3965TIP3    H111859   4.295   4.751   5.630
 3965TIP3    H211860   4.338   4.614   5.679
 3966TIP3   OH211861   2.623   0.743   2.827
 3966TIP3    H111862   2.689   0.731   2.895
 3966TIP3    H211863   2.581   0.826   2.849
 3967TIP3   OH211864   2.723   0.099   2.635
 3967TIP3    H111865   2.653   0.127   2.576
 3967TIP3    H211866   2.796   0.159   2.617
 3968TIP3   OH211867   3.386   6.680   5.070
 3968TIP3    H111868   3.424   6.647   4.988
 3968TIP3    H211869   3.442   6.642   5.139
 3969TIP3   OH211870   5.740   1.143   4.915
 3969TIP3    H111871   5.821   1.170   4.958
 3969TIP3    H211872   5.757   1.156   4.822
 3970TIP3   OH211873   3.398   2.582   0.153
 3970TIP3    H111874   3.351   2.555   0.074
 3970TIP3    H211875   3.338   2.643   0.197
 3971TIP3   OH211876   6.737   0.824   5.211
 3971TIP3    H111877   6.718   0.819   5.117
 3971TIP3    H211878   6.712   0.913   5.237
 3972TIP3   OH211879   4.117   3.554   1.569
 3972TIP3    H111880   4.027   3.568   1.540
 3972TIP3    H211881   4.167   3.621   1.522
 3973TIP3   OH211882   3.011   3.261   5.820
 3973TIP3    H111883   2.922   3.293   5.829
 3973TIP3    H211884   3.065   3.340   5.823
 3974TIP3   OH211885   3.456   6.610   5.601
 3974TIP3    H111886   3.535   6.613   5.655
 3974TIP3    H211887   3.385   6.594   5.663
 3975TIP3   OH211888   5.044   3.546   3.962
 3975TIP3    H111889   5.085   3.490   4.029
 3975TIP3    H211890   5.056   3.635   3.995
 3976TIP3   OH211891   2.610   0.222   4.988
 3976TIP3    H111892   2.675   0.180   4.933
 3976TIP3    H211893   2.547   0.152   5.009
 3977TIP3   OH211894   6.309   4.640   4.630
 3977TIP3    H111895   6.335   4.727   4.657
 3977TIP3    H211896   6.270   4.653   4.543
 3978TIP3   OH211897   0.451   2.023   5.786
 3978TIP3    H111898   0.481   1.945   5.833
 3978TIP3    H211899   0.435   2.087   5.855
 3979TIP3   OH211900   2.328   5.284   1.114
 3979TIP3    H111901   2.292   5.281   1.025
 3979TIP3    H211902   2.340   5.192   1.139
 3980TIP3   OH211903   2.371   6.061   4.549
 3980TIP3    H111904   2.440   6.122   4.520
 3980TIP3    H211905   2.419   5.990   4.592
 3981TIP3   OH211906   1.362   3.406   0.065
 3981TIP3    H111907   1.313   3.466   0.122
 3981TIP3    H211908   1.417   3.355   0.124
 3982TIP3   OH211909   0.045   5.379   4.590
 3982TIP3    H111910   0.081   5.431   4.518
 3982TIP3    H211911  -0.030   5.333   4.552
 3983TIP3   OH211912   3.810   2.855   2.970
 3983TIP3    H111913   3.784   2.819   2.886
 3983TIP3    H211914   3.906   2.850   2.969
 3984TIP3   OH211915   3.190   3.051   1.255
 3984TIP3    H111916   3.186   3.099   1.172
 3984TIP3    H211917   3.242   3.108   1.313
 3985TIP3   OH211918   2.521   0.592   0.221
 3985TIP3    H111919   2.599   0.550   0.183
 3985TIP3    H211920   2.556   0.661   0.277
 3986TIP3   OH211921   0.821   5.418   1.625
 3986TIP3    H111922   0.758   5.489   1.613
 3986TIP3    H211923   0.832   5.411   1.720
 3987TIP3   OH211924   3.895   1.370   5.379
 3987TIP3    H111925   3.820   1.386   5.323
 3987TIP3    H211926   3.963   1.337   5.320
 3988TIP3   OH211927   5.350   5.013   4.470
 3988TIP3    H111928   5.310   4.927   4.485
 3988TIP3    H211929   5.428   5.014   4.527
 3989TIP3   OH211930   2.943   6.395   3.162
 3989TIP3    H111931   2.911   6.457   3.096
 3989TIP3    H211932   2.952   6.312   3.115
 3990TIP3   OH211933   6.191   1.763   3.759
 3990TIP3    H111934   6.167   1.852   3.733
 3990TIP3    H211935   6.108   1.720   3.776
 3991TIP3   OH211936   2.506   0.661   4.030
 3991TIP3    H111937   2.599   0.682   4.028
 3991TIP3    H211938   2.494   0.599   3.958
 3992TIP3   OH211939   2.492   1.209   4.756
 3992TIP3    H111940   2.527   1.293   4.787
 3992TIP3    H211941   2.415   1.194   4.810
 3993TIP3   OH211942   2.246   5.439   3.846
 3993TIP3    H111943   2.231   5.486   3.928
 3993TIP3    H211944   2.226   5.347   3.867
 3994TIP3   OH211945   5.204   2.327   3.652
 3994TIP3    H111946   5.230   2.354   3.740
 3994TIP3    H211947   5.125   2.276   3.665
 3995TIP3   OH211948   1.874   6.606   4.581
 3995TIP3    H111949   1.903   6.646   4.499
 3995TIP3    H211950   1.796   6.655   4.605
 3996TIP3   OH211951   1.579   4.110   3.921
 3996TIP3    H111952   1.623   4.178   3.870
 3996TIP3    H211953   1.648   4.049   3.945
 3997TIP3   OH211954   5.543   0.408   0.115
 3997TIP3    H111955   5.528   0.500   0.090
 3997TIP3    H211956   5.596   0.413   0.195
 3998TIP3   OH211957   2.066   0.259   3.662
 3998TIP3    H111958   2.148   0.233   3.619
 3998TIP3    H211959   2.036   0.179   3.706
 3999TIP3   OH211960   5.041   2.020   0.548
 3999TIP3    H111961   5.093   1.943   0.525
 3999TIP3    H211962   4.956   2.005   0.507
 4000TIP3   OH211963   0.651   2.083   2.487
 4000TIP3    H111964   0.669   1.990   2.469
 4000TIP3    H211965   0.586   2.107   2.421
 4001TIP3   OH211966   3.961   2.950   0.321
 4001TIP3    H111967   3.965   3.002   0.401
 4001TIP3    H211968   4.050   2.953   0.287
 4002TIP3   OH211969   1.122   5.338   1.790
 4002TIP3    H111970   1.167   5.262   1.827
 4002TIP3    H211971   1.035   5.336   1.829
 4003TIP3   OH211972   4.432   0.159   5.879
 4003TIP3    H111973   4.374   0.218   5.927
 4003TIP3    H211974   4.465   0.213   5.807
 4004TIP3   OH211975   0.975   2.159   4.638
 4004TIP3    H111976   0.978   2.109   4.720
 4004TIP3    H211977   0.883   2.182   4.627
 4005TIP3   OH211978   2.045   1.247   2.083
 4005TIP3    H111979   2.115   1.248   2.148
 4005TIP3    H211980   2.083   1.289   2.005
 4006TIP3   OH211981   4.184   3.687   4.729
 4006TIP3    H111982   4.250   3.620   4.749
 4006TIP3    H211983   4.161   3.725   4.814
 4007TIP3   OH211984   6.372   0.045   3.775
 4007TIP3    H111985   6.413   0.056   3.861
 4007TIP3    H211986   6.378  -0.048   3.756
 4008TIP3   OH211987   1.954   4.463   0.914
 4008TIP3    H111988   1.929   4.543   0.868
 4008TIP3    H211989   2.049   4.466   0.919
 4009TIP3   OH211990   4.526   6.770   2.653
 4009TIP3    H111991   4.569   6.692   2.618
 4009TIP3    H211992   4.491   6.815   2.577
 4010TIP3   OH211993   1.390   3.966   4.658
 4010TIP3    H111994   1.380   3.875   4.684
 4010TIP3    H211995   1.446   3.964   4.581
 4011TIP3   OH211996   5.463   5.810   1.471
 4011TIP3    H111997   5.485   5.761   1.550
 4011TIP3    H211998   5.440   5.743   1.407
 4012TIP3   OH211999   5.273   2.441   5.516
 4012TIP3    H112000   5.217   2.513   5.545
 4012TIP3    H212001   5.217   2.388   5.460
 4013TIP3   OH212002   0.047   6.552   2.790
 4013TIP3    H112003   0.063   6.613   2.719
 4013TIP3    H212004   0.135   6.524   2.818
 4014TIP3   OH212005   2.045   1.064   2.418
 4014TIP3    H112006   2.127   1.039   2.375
 4014TIP3    H212007   2.066   1.147   2.462
 4015TIP3   OH212008   0.273   6.487   4.972
 4015TIP3    H112009   0.316   6.478   5.057
 4015TIP3    H212010   0.213   6.561   4.983
 4016TIP3   OH212011   3.193   6.117   3.121
 4016TIP3    H112012   3.141   6.164   3.056
 4016TIP3    H212013   3.136   6.112   3.198
 4017TIP3   OH212014   3.810   5.535   5.627
 4017TIP3    H112015   3.841   5.569   5.543
 4017TIP3    H212016   3.820   5.608   5.688
 4018TIP3   OH212017   6.397   2.534   1.064
 4018TIP3    H112018   6.305   2.536   1.036
 4018TIP3    H212019   6.439   2.470   1.007
 4019TIP3   OH212020   4.142   3.538   5.771
 4019TIP3    H112021   4.173   3.629   5.765
 4019TIP3    H212022   4.109   3.530   5.860
 4020TIP3   OH212023   1.346   0.341   0.527
 4020TIP3    H112024   1.365   0.431   0.554
 4020TIP3    H212025   1.257   0.324   0.559
 4021TIP3   OH212026   5.774   3.273   3.747
 4021TIP3    H112027   5.834   3.235   3.683
 4021TIP3    H212028   5.759   3.362   3.715
 4022TIP3   OH212029   6.310   3.846   4.360
 4022TIP3    H112030   6.336   3.938   4.365
 4022TIP3    H212031   6.393   3.798   4.355
 4023TIP3   OH212032   3.093   4.174   4.201
 4023TIP3    H112033   3.074   4.080   4.202
 4023TIP3    H212034   3.026   4.212   4.259
 4024TIP3   OH212035   5.728   6.556   0.646
 4024TIP3    H112036   5.779   6.587   0.721
 4024TIP3    H212037   5.643   6.597   0.656
 4025TIP3   OH212038   0.464   1.188   4.345
 4025TIP3    H112039   0.379   1.229   4.333
 4025TIP3    H212040   0.500   1.180   4.256
 4026TIP3   OH212041   4.035   3.843   2.643
 4026TIP3    H112042   3.948   3.806   2.660
 4026TIP3    H212043   4.095   3.780   2.684
 4027TIP3   OH212044   4.061   2.774   1.759
 4027TIP3    H112045   4.036   2.856   1.802
 4027TIP3    H212046   3.979   2.724   1.755
 4028TIP3   OH212047   3.035   0.284   1.179
 4028TIP3    H112048   3.129   0.277   1.197
 4028TIP3    H212049   3.018   0.217   1.113
 4029TIP3   OH212050   7.168   1.426   2.154
 4029TIP3    H112051   7.207   1.509   2.130
 4029TIP3    H212052   7.105   1.408   2.084
 4030TIP3   OH212053   2.069   1.003   4.052
 4030TIP3    H112054   2.032   0.986   4.139
 4030TIP3    H212055   2.121   0.925   4.033
 4031TIP3   OH212056   3.760   1.286   4.286
 4031TIP3    H112057   3.686   1.325   4.240
 4031TIP3    H212058   3.748   1.312   4.377
 4032TIP3   OH212059   1.499   3.449   4.458
 4032TIP3    H112060   1.471   3.471   4.369
 4032TIP3    H212061   1.590   3.419   4.447
 4033TIP3   OH212062   2.637   4.930   1.347
 4033TIP3    H112063   2.648   4.883   1.430
 4033TIP3    H212064   2.664   4.867   1.280
 4034TIP3   OH212065   3.260   2.296   2.776
 4034TIP3    H112066   3.198   2.342   2.718
 4034TIP3    H212067   3.315   2.366   2.812
 4035TIP3   OH212068   7.001   5.242   0.627
 4035TIP3    H112069   6.915   5.204   0.610
 4035TIP3    H212070   7.003   5.252   0.723
 4036TIP3   OH212071   0.680   5.178   5.742
 4036TIP3    H112072   0.662   5.149   5.832
 4036TIP3    H212073   0.659   5.271   5.743
 4037TIP3   OH212074   1.372   5.994   5.397
 4037TIP3    H112075   1.289   6.013   5.352
 4037TIP3    H212076   1.415   5.929   5.342
 4038TIP3   OH212077   3.746   4.436   4.561
 4038TIP3    H112078   3.768   4.343   4.573
 4038TIP3    H212079   3.746   4.472   4.650
 4039TIP3   OH212080   2.099   5.896   5.033
 4039TIP3    H112081   2.011   5.927   5.015
 4039TIP3    H212082   2.141   5.968   5.080
 4040TIP3   OH212083   1.030   6.365   4.548
 4040TIP3    H112084   1.044   6.409   4.464
 4040TIP3    H212085   0.989   6.282   4.525
 4041TIP3   OH212086   0.828   3.210   1.885
 4041TIP3    H112087   0.814   3.239   1.975
 4041TIP3    H212088   0.752   3.155   1.866
 4042TIP3   OH212089   4.849   1.296   3.936
 4042TIP3    H112090   4.774   1.248   3.972
 4042TIP3    H212091   4.814   1.383   3.916
 4043TIP3   OH212092   4.255   5.344   1.273
 4043TIP3    H112093   4.276   5.277   1.339
 4043TIP3    H212094   4.312   5.417   1.296
 4044TIP3   OH212095   6.707   0.243   3.025
 4044TIP3    H112096   6.650   0.209   3.093
 4044TIP3    H212097   6.708   0.175   2.958
 4045TIP3   OH212098   6.341   1.981   5.035
 4045TIP3    H112099   6.410   1.942   5.089
 4045TIP3    H212100   6.381   2.060   5.000
 4046TIP3   OH212101   0.416   0.401   0.952
 4046TIP3    H112102   0.396   0.487   0.988
 4046TIP3    H212103   0.496   0.374   0.997
 4047TIP3   OH212104   6.704   1.319   4.323
 4047TIP3    H112105   6.791   1.306   4.360
 4047TIP3    H212106   6.643   1.292   4.392
 4048TIP3   OH212107   2.096   2.638   3.362
 4048TIP3    H112108   2.184   2.626   3.327
 4048TIP3    H212109   2.041   2.579   3.311
 4049TIP3   OH212110   0.491   4.636   2.983
 4049TIP3    H112111   0.427   4.648   3.052
 4049TIP3    H212112   0.515   4.725   2.957
 4050TIP3   OH212113   4.468   3.254   5.711
 4050TIP3    H112114   4.560   3.277   5.725
 4050TIP3    H212115   4.430   3.331   5.668
 4051TIP3   OH212116   3.559   6.297   2.221
 4051TIP3    H112117   3.649   6.268   2.207
 4051TIP3    H212118   3.555   6.384   2.182
 4052TIP3   OH212119   4.867   5.355   3.052
 4052TIP3    H112120   4.813   5.397   2.985
 4052TIP3    H212121   4.955   5.391   3.040
 4053TIP3   OH212122   0.418   0.118   0.831
 4053TIP3    H112123   0.369   0.090   0.908
 4053TIP3    H212124   0.382   0.204   0.809
 4054TIP3   OH212125   4.326   3.205   4.631
 4054TIP3    H112126   4.241   3.162   4.640
 4054TIP3    H212127   4.327   3.240   4.542
 4055TIP3   OH212128   1.650   2.140   2.627
 4055TIP3    H112129   1.715   2.189   2.679
 4055TIP3    H212130   1.596   2.096   2.691
 4056TIP3   OH212131   0.791   0.747   1.611
 4056TIP3    H112132   0.745   0.673   1.652
 4056TIP3    H212133   0.870   0.758   1.663
 4057TIP3   OH212134   1.459   4.142   0.730
 4057TIP3    H112135   1.448   4.236   0.716
 4057TIP3    H212136   1.370   4.108   0.743
 4058TIP3   OH212137   0.130   3.050   4.758
 4058TIP3    H112138   0.114   2.986   4.827
 4058TIP3    H212139   0.166   3.126   4.803
 4059TIP3   OH212140   6.717   6.373   5.250
 4059TIP3    H112141   6.624   6.395   5.253
 4059TIP3    H212142   6.733   6.349   5.159
 4060TIP3   OH212143   2.463   0.987   0.892
 4060TIP3    H112144   2.386   0.954   0.938
 4060TIP3    H212145   2.479   0.921   0.824
 4061TIP3   OH212146   0.525   3.705   2.157
 4061TIP3    H112147   0.512   3.761   2.081
 4061TIP3    H212148   0.612   3.666   2.144
 4062TIP3   OH212149   5.879   3.513   3.994
 4062TIP3    H112150   5.897   3.582   4.057
 4062TIP3    H212151   5.794   3.477   4.021
 4063TIP3   OH212152   4.002   3.874   2.354
 4063TIP3    H112153   4.034   3.897   2.440
 4063TIP3    H212154   3.909   3.897   2.356
 4064TIP3   OH212155   3.659   3.336   4.965
 4064TIP3    H112156   3.737   3.349   4.910
 4064TIP3    H212157   3.597   3.401   4.934
 4065TIP3   OH212158   6.423   1.134   1.037
 4065TIP3    H112159   6.341   1.107   1.077
 4065TIP3    H212160   6.450   1.212   1.087
 4066TIP3   OH212161   6.337   5.654   1.927
 4066TIP3    H112162   6.324   5.609   1.844
 4066TIP3    H212163   6.428   5.683   1.926
 4067TIP3   OH212164   6.151   5.877   5.757
 4067TIP3    H112165   6.082   5.811   5.762
 4067TIP3    H212166   6.104   5.961   5.753
 4068TIP3   OH212167   0.771   4.992   0.250
 4068TIP3    H112168   0.760   5.048   0.173
 4068TIP3    H212169   0.783   5.053   0.323
 4069TIP3   OH212170   5.383   1.661   2.487
 4069TIP3    H112171   5.298   1.619   2.474
 4069TIP3    H212172   5.446   1.601   2.448
 4070TIP3   OH212173   2.173   2.066   5.145
 4070TIP3    H112174   2.211   1.992   5.192
 4070TIP3    H212175   2.106   2.027   5.088
 4071TIP3   OH212176   2.136   6.192   5.634
 4071TIP3    H112177   2.119   6.174   5.727
 4071TIP3    H212178   2.120   6.286   5.625
 4072TIP3   OH212179   1.454   4.130   1.792
 4072TIP3    H112180   1.380   4.083   1.830
 4072TIP3    H212181   1.436   4.222   1.809
 4073TIP3   OH212182   6.817   0.213   4.041
 4073TIP3    H112183   6.911   0.202   4.053
 4073TIP3    H212184   6.800   0.305   4.061
 4074TIP3   OH212185   3.092   3.230   1.625
 4074TIP3    H112186   3.167   3.279   1.660
 4074TIP3    H212187   3.058   3.285   1.555
 4075TIP3   OH212188   3.737   6.076   5.315
 4075TIP3    H112189   3.755   6.135   5.388
 4075TIP3    H212190   3.768   5.991   5.346
 4076TIP3   OH212191   6.006   3.199   2.497
 4076TIP3    H112192   6.092   3.159   2.484
 4076TIP3    H212193   5.947   3.125   2.506
 4077TIP3   OH212194   1.313   2.726   2.518
 4077TIP3    H112195   1.368   2.714   2.595
 4077TIP3    H212196   1.373   2.753   2.449
 4078TIP3   OH212197   1.550   3.845   0.319
 4078TIP3    H112198   1.459   3.832   0.292
 4078TIP3    H212199   1.547   3.843   0.415
 4079TIP3   OH212200   6.429   3.349   5.011
 4079TIP3    H112201   6.365   3.340   4.940
 4079TIP3    H212202   6.397   3.289   5.079
 4080TIP3   OH212203   1.618   6.183   0.103
 4080TIP3    H112204   1.623   6.192   0.198
 4080TIP3    H212205   1.530   6.214   0.080
 4081TIP3   OH212206   4.372   1.015   1.562
 4081TIP3    H112207   4.461   0.999   1.529
 4081TIP3    H212208   4.351   1.103   1.533
 4082TIP3   OH212209   3.446   3.594   0.118
 4082TIP3    H112210   3.489   3.545   0.049
 4082TIP3    H212211   3.427   3.679   0.079
 4083TIP3   OH212212   5.632   2.346   0.780
 4083TIP3    H112213   5.548   2.314   0.749
 4083TIP3    H212214   5.628   2.336   0.875
 4084TIP3   OH212215   5.492   1.146   4.484
 4084TIP3    H112216   5.486   1.232   4.443
 4084TIP3    H212217   5.407   1.134   4.527
 4085TIP3   OH212218   4.846   1.658   0.632
 4085TIP3    H112219   4.790   1.705   0.571
 4085TIP3    H212220   4.902   1.604   0.577
 4086TIP3   OH212221   0.034   5.640   2.363
 4086TIP3    H112222   0.100   5.594   2.415
 4086TIP3    H212223   0.001   5.708   2.421
 4087TIP3   OH212224   5.248   3.368   1.377
 4087TIP3    H112225   5.295   3.448   1.400
 4087TIP3    H212226   5.316   3.300   1.379
 4088TIP3   OH212227   4.069   1.275   5.209
 4088TIP3    H112228   4.163   1.273   5.230
 4088TIP3    H212229   4.065   1.310   5.120
 4089TIP3   OH212230   6.209   4.325   2.354
 4089TIP3    H112231   6.218   4.326   2.450
 4089TIP3    H212232   6.299   4.329   2.322
 4090TIP3   OH212233   0.474   2.366   3.891
 4090TIP3    H112234   0.391   2.377   3.937
 4090TIP3    H212235   0.474   2.433   3.823
 4091TIP3   OH212236   0.369   2.329   0.641
 4091TIP3    H112237   0.384   2.301   0.550
 4091TIP3    H212238   0.316   2.409   0.632
 4092TIP3   OH212239   2.417   2.724   4.374
 4092TIP3    H112240   2.376   2.780   4.307
 4092TIP3    H212241   2.394   2.635   4.348
 4093TIP3   OH212242   5.891   3.914   1.982
 4093TIP3    H112243   5.878   3.859   1.905
 4093TIP3    H212244   5.887   4.004   1.949
 4094TIP3   OH212245   7.053   1.610   2.604
 4094TIP3    H112246   6.964   1.575   2.611
 4094TIP3    H212247   7.077   1.631   2.695
 4095TIP3   OH212248   4.612   2.044   4.020
 4095TIP3    H112249   4.538   2.013   3.969
 4095TIP3    H212250   4.667   2.090   3.957
 4096TIP3   OH212251   6.876   3.656   3.589
 4096TIP3    H112252   6.896   3.725   3.653
 4096TIP3    H212253   6.961   3.617   3.569
 4097TIP3   OH212254   3.987   3.076   1.797
 4097TIP3    H112255   3.896   3.087   1.767
 4097TIP3    H212256   3.986   3.115   1.885
 4098TIP3   OH212257   2.641   6.285   5.460
 4098TIP3    H112258   2.549   6.271   5.484
 4098TIP3    H212259   2.686   6.292   5.544
 4099TIP3   OH212260   2.609   3.697   4.943
 4099TIP3    H112261   2.551   3.772   4.943
 4099TIP3    H212262   2.559   3.628   4.898
 4100TIP3   OH212263   5.263   2.380   3.403
 4100TIP3    H112264   5.200   2.343   3.341
 4100TIP3    H212265   5.221   2.372   3.488
 4101TIP3   OH212266   2.114   0.265   3.260
 4101TIP3    H112267   2.086   0.350   3.226
 4101TIP3    H212268   2.103   0.205   3.187
 4102TIP3   OH212269   2.946   3.464   3.588
 4102TIP3    H112270   2.940   3.420   3.503
 4102TIP3    H212271   3.000   3.541   3.571
 4103TIP3   OH212272   4.171   4.148   2.317
 4103TIP3    H112273   4.241   4.210   2.337
 4103TIP3    H212274   4.094   4.183   2.360
 4104TIP3   OH212275   5.344   2.716   5.611
 4104TIP3    H112276   5.277   2.679   5.553
 4104TIP3    H212277   5.297   2.737   5.691
 4105TIP3   OH212278   4.543   6.042   2.182
 4105TIP3    H112279   4.505   6.073   2.100
 4105TIP3    H212280   4.490   5.967   2.207
 4106TIP3   OH212281   1.700   1.636   3.657
 4106TIP3    H112282   1.631   1.572   3.674
 4106TIP3    H212283   1.673   1.681   3.577
 4107TIP3   OH212284   6.194   3.759   3.064
 4107TIP3    H112285   6.255   3.783   2.994
 4107TIP3    H212286   6.109   3.752   3.020
 4108TIP3   OH212287   1.502   3.517   4.180
 4108TIP3    H112288   1.518   3.547   4.091
 4108TIP3    H212289   1.407   3.518   4.190
 4109TIP3   OH212290   5.508   6.133   2.359
 4109TIP3    H112291   5.506   6.133   2.455
 4109TIP3    H212292   5.540   6.046   2.336
 4110TIP3   OH212293   3.946   1.290   4.055
 4110TIP3    H112294   4.014   1.337   4.102
 4110TIP3    H212295   3.873   1.284   4.117
 4111TIP3   OH212296   5.539   4.941   2.283
 4111TIP3    H112297   5.457   4.911   2.244
 4111TIP3    H212298   5.599   4.867   2.274
 4112TIP3   OH212299   0.085   0.332   3.099
 4112TIP3    H112300   0.012   0.275   3.076
 4112TIP3    H212301   0.151   0.314   3.031
 4113TIP3   OH212302   2.088   4.850   0.693
 4113TIP3    H112303   2.024   4.813   0.753
 4113TIP3    H212304   2.073   4.804   0.611
 4114TIP3   OH212305   0.013   5.819   1.685
 4114TIP3    H112306  -0.029   5.872   1.753
 4114TIP3    H212307   0.072   5.880   1.641
 4115TIP3   OH212308   3.210   4.176   3.418
 4115TIP3    H112309   3.123   4.200   3.448
 4115TIP3    H212310   3.227   4.091   3.458
 4116TIP3   OH212311   0.250   5.418   3.539
 4116TIP3    H112312   0.289   5.331   3.534
 4116TIP3    H212313   0.247   5.439   3.632
 4117TIP3   OH212314   3.602   3.311   0.216
 4117TIP3    H112315   3.686   3.356   0.221
 4117TIP3    H212316   3.623   3.219   0.232
 4118TIP3   OH212317   6.715   2.371   4.811
 4118TIP3    H112318   6.643   2.344   4.754
 4118TIP3    H212319   6.686   2.453   4.850
 4119TIP3   OH212320   6.546   4.927   3.639
 4119TIP3    H112321   6.486   4.853   3.651
 4119TIP3    H212322   6.496   4.990   3.588
 4120TIP3   OH212323   4.716   2.675   4.577
 4120TIP3    H112324   4.678   2.736   4.514
 4120TIP3    H212325   4.698   2.715   4.662
 4121TIP3   OH212326   0.230   0.207   2.920
 4121TIP3    H112327   0.210   0.168   2.835
 4121TIP3    H212328   0.207   0.140   2.984
 4122TIP3   OH212329   1.766   2.274   3.690
 4122TIP3    H112330   1.801   2.265   3.602
 4122TIP3    H212331   1.812   2.207   3.741
 4123TIP3   OH212332   5.927   6.427   2.954
 4123TIP3    H112333   5.937   6.399   2.862
 4123TIP3    H212334   5.837   6.404   2.976
 4124TIP3   OH212335   6.759   4.541   2.495
 4124TIP3    H112336   6.722   4.578   2.415
 4124TIP3    H212337   6.794   4.456   2.468
 4125TIP3   OH212338   7.079   2.443   0.373
 4125TIP3    H112339   7.169   2.468   0.396
 4125TIP3    H212340   7.025   2.495   0.433
 4126TIP3   OH212341   3.851   0.506   1.827
 4126TIP3    H112342   3.872   0.428   1.879
 4126TIP3    H212343   3.860   0.478   1.736
 4127TIP3   OH212344   0.403   1.953   2.611
 4127TIP3    H112345   0.442   1.940   2.698
 4127TIP3    H212346   0.429   1.875   2.562
 4128TIP3   OH212347   2.458   5.970   2.732
 4128TIP3    H112348   2.426   6.055   2.703
 4128TIP3    H212349   2.538   5.989   2.781
 4129TIP3   OH212350   2.231   4.960   5.548
 4129TIP3    H112351   2.199   4.898   5.483
 4129TIP3    H212352   2.218   5.046   5.507
 4130TIP3   OH212353   1.370   6.073   3.917
 4130TIP3    H112354   1.327   6.038   3.840
 4130TIP3    H212355   1.342   6.164   3.921
 4131TIP3   OH212356   3.989   1.060   4.915
 4131TIP3    H112357   3.941   1.078   4.834
 4131TIP3    H212358   3.926   1.016   4.972
 4132TIP3   OH212359   3.054   2.971   1.626
 4132TIP3    H112360   3.023   2.945   1.539
 4132TIP3    H212361   3.065   3.066   1.621
 4133TIP3   OH212362   5.584   1.058   3.472
 4133TIP3    H112363   5.508   1.087   3.422
 4133TIP3    H212364   5.613   1.136   3.519
 4134TIP3   OH212365   4.105   2.459   5.032
 4134TIP3    H112366   4.182   2.435   5.083
 4134TIP3    H212367   4.111   2.407   4.952
 4135TIP3   OH212368   4.065   6.306   1.291
 4135TIP3    H112369   4.042   6.213   1.289
 4135TIP3    H212370   4.160   6.308   1.287
 4136TIP3   OH212371   1.656   1.218   3.916
 4136TIP3    H112372   1.586   1.251   3.973
 4136TIP3    H212373   1.617   1.215   3.829
 4137TIP3   OH212374   0.340   4.438   3.586
 4137TIP3    H112375   0.322   4.504   3.519
 4137TIP3    H212376   0.323   4.354   3.542
 4138TIP3   OH212377   0.402   2.244   2.520
 4138TIP3    H112378   0.444   2.161   2.542
 4138TIP3    H212379   0.323   2.219   2.473
 4139TIP3   OH212380   4.310   1.938   1.403
 4139TIP3    H112381   4.399   1.958   1.431
 4139TIP3    H212382   4.257   2.011   1.438
 4140TIP3   OH212383   3.595   1.022   1.163
 4140TIP3    H112384   3.551   1.081   1.224
 4140TIP3    H212385   3.688   1.034   1.180
 4141TIP3   OH212386   2.042   1.429   2.890
 4141TIP3    H112387   2.056   1.512   2.936
 4141TIP3    H212388   2.092   1.365   2.941
 4142TIP3   OH212389   3.859   2.323   5.025
 4142TIP3    H112390   3.911   2.373   5.088
 4142TIP3    H212391   3.810   2.390   4.976
 4143TIP3   OH212392   4.334   6.285   1.456
 4143TIP3    H112393   4.355   6.193   1.436
 4143TIP3    H212394   4.419   6.327   1.467
 4144TIP3   OH212395   5.778   6.237   2.754
 4144TIP3    H112396   5.772   6.175   2.826
 4144TIP3    H212397   5.866   6.223   2.718
 4145TIP3   OH212398   0.077   0.308   1.382
 4145TIP3    H112399   0.048   0.217   1.376
 4145TIP3    H212400   0.172   0.303   1.391
 4146TIP3   OH212401   1.977   0.529   0.632
 4146TIP3    H112402   1.896   0.495   0.670
 4146TIP3    H212403   2.044   0.467   0.657
 4147TIP3   OH212404   6.767   6.445   3.067
 4147TIP3    H112405   6.717   6.387   3.124
 4147TIP3    H212406   6.856   6.410   3.069
 4148TIP3   OH212407   1.395   1.446   0.429
 4148TIP3    H112408   1.306   1.447   0.462
 4148TIP3    H212409   1.450   1.433   0.506
 4149TIP3   OH212410   6.056   0.550   1.476
 4149TIP3    H112411   6.013   0.465   1.465
 4149TIP3    H212412   6.050   0.569   1.569
 4150TIP3   OH212413   7.113   0.544   2.543
 4150TIP3    H112414   7.096   0.635   2.569
 4150TIP3    H212415   7.123   0.496   2.625
 4151TIP3   OH212416   6.569   5.401   1.677
 4151TIP3    H112417   6.590   5.384   1.769
 4151TIP3    H212418   6.479   5.434   1.679
 4152TIP3   OH212419   5.846   2.359   0.296
 4152TIP3    H112420   5.837   2.305   0.375
 4152TIP3    H212421   5.908   2.428   0.321
 4153TIP3   OH212422   1.051   3.724   1.688
 4153TIP3    H112423   0.994   3.733   1.765
 4153TIP3    H212424   1.062   3.629   1.677
 4154TIP3   OH212425   6.084   4.947   5.871
 4154TIP3    H112426   6.130   4.910   5.795
 4154TIP3    H212427   6.003   4.896   5.877
 4155TIP3   OH212428   0.287   4.209   4.762
 4155TIP3    H112429   0.305   4.164   4.679
 4155TIP3    H212430   0.192   4.206   4.771
 4156TIP3   OH212431   0.217   5.232   0.879
 4156TIP3    H112432   0.178   5.264   0.960
 4156TIP3    H212433   0.292   5.179   0.909
 4157TIP3   OH212434   0.828   5.443   0.611
 4157TIP3    H112435   0.741   5.466   0.644
 4157TIP3    H212436   0.868   5.394   0.683
 4158TIP3   OH212437   6.988   4.764   5.559
 4158TIP3    H112438   6.965   4.672   5.571
 4158TIP3    H212439   7.081   4.762   5.537
 4159TIP3   OH212440   5.346   0.775   1.036
 4159TIP3    H112441   5.268   0.779   1.092
 4159TIP3    H212442   5.419   0.769   1.098
 4160TIP3   OH212443   0.841   1.045   0.976
 4160TIP3    H112444   0.824   1.095   0.896
 4160TIP3    H212445   0.912   0.985   0.952
 4161TIP3   OH212446   5.895   6.011   2.277
 4161TIP3    H112447   5.837   5.949   2.320
 4161TIP3    H212448   5.844   6.046   2.205
 4162TIP3   OH212449   2.255   2.588   3.148
 4162TIP3    H112450   2.183   2.589   3.084
 4162TIP3    H212451   2.312   2.517   3.119
 4163TIP3   OH212452   5.494   2.274   5.220
 4163TIP3    H112453   5.501   2.233   5.134
 4163TIP3    H212454   5.566   2.338   5.222
 4164TIP3   OH212455   1.111   5.517   0.617
 4164TIP3    H112456   1.130   5.424   0.608
 4164TIP3    H212457   1.015   5.522   0.615
 4165TIP3   OH212458   3.119   6.487   0.238
 4165TIP3    H112459   3.181   6.527   0.177
 4165TIP3    H212460   3.124   6.393   0.218
 4166TIP3   OH212461   2.304   5.868   2.220
 4166TIP3    H112462   2.390   5.845   2.185
 4166TIP3    H212463   2.263   5.919   2.150
 4167TIP3   OH212464   1.164   5.106   4.378
 4167TIP3    H112465   1.096   5.150   4.430
 4167TIP3    H212466   1.189   5.031   4.431
 4168TIP3   OH212467   2.735   1.841   1.752
 4168TIP3    H112468   2.639   1.845   1.752
 4168TIP3    H212469   2.757   1.762   1.703
 4169TIP3   OH212470   1.522   2.061   2.367
 4169TIP3    H112471   1.599   2.076   2.422
 4169TIP3    H212472   1.508   1.967   2.370
 4170TIP3   OH212473   6.116   3.873   3.564
 4170TIP3    H112474   6.204   3.907   3.547
 4170TIP3    H212475   6.076   3.865   3.477
 4171TIP3   OH212476   1.376   0.734   2.822
 4171TIP3    H112477   1.282   0.715   2.820
 4171TIP3    H212478   1.414   0.673   2.759
 4172TIP3   OH212479   6.050   0.817   0.841
 4172TIP3    H112480   5.975   0.786   0.891
 4172TIP3    H212481   6.120   0.826   0.906
 4173TIP3   OH212482   4.305   1.161   1.833
 4173TIP3    H112483   4.336   1.173   1.743
 4173TIP3    H212484   4.342   1.235   1.881
 4174TIP3   OH212485   0.689   5.273   2.444
 4174TIP3    H112486   0.636   5.224   2.507
 4174TIP3    H212487   0.671   5.365   2.463
 4175TIP3   OH212488   2.138   1.162   3.453
 4175TIP3    H112489   2.220   1.202   3.481
 4175TIP3    H212490   2.071   1.229   3.468
 4176TIP3   OH212491   6.706   2.689   3.007
 4176TIP3    H112492   6.712   2.608   2.956
 4176TIP3    H212493   6.772   2.679   3.075
 4177TIP3   OH212494   6.646   5.081   5.740
 4177TIP3    H112495   6.636   5.159   5.795
 4177TIP3    H212496   6.594   5.100   5.662
 4178TIP3   OH212497   6.571   6.198   2.302
 4178TIP3    H112498   6.568   6.292   2.283
 4178TIP3    H212499   6.507   6.186   2.373
 4179TIP3   OH212500   3.155   5.879   3.919
 4179TIP3    H112501   3.251   5.884   3.922
 4179TIP3    H212502   3.126   5.967   3.940
 4180TIP3   OH212503   3.976   0.085   2.137
 4180TIP3    H112504   3.978   0.117   2.227
 4180TIP3    H212505   3.884   0.066   2.119
 4181TIP3   OH212506   5.633   2.572   0.211
 4181TIP3    H112507   5.624   2.521   0.292
 4181TIP3    H212508   5.685   2.648   0.236
 4182TIP3   OH212509   6.222   4.229   4.030
 4182TIP3    H112510   6.222   4.147   3.981
 4182TIP3    H212511   6.280   4.212   4.105
 4183TIP3   OH212512   5.740   3.377   0.220
 4183TIP3    H112513   5.769   3.421   0.140
 4183TIP3    H212514   5.757   3.284   0.203
 4184TIP3   OH212515   4.057   5.624   0.192
 4184TIP3    H112516   4.011   5.558   0.140
 4184TIP3    H212517   4.048   5.595   0.283
 4185TIP3   OH212518   6.749   4.928   3.355
 4185TIP3    H112519   6.833   4.883   3.348
 4185TIP3    H212520   6.715   4.901   3.441
 4186TIP3   OH212521   5.448   6.656   4.342
 4186TIP3    H112522   5.480   6.674   4.430
 4186TIP3    H212523   5.434   6.561   4.341
 4187TIP3   OH212524   5.023   5.057   5.850
 4187TIP3    H112525   5.113   5.048   5.818
 4187TIP3    H212526   5.016   4.992   5.919
 4188TIP3   OH212527   1.889   0.997   2.997
 4188TIP3    H112528   1.885   1.018   3.090
 4188TIP3    H212529   1.922   1.077   2.956
 4189TIP3   OH212530   0.433   4.490   1.167
 4189TIP3    H112531   0.427   4.397   1.188
 4189TIP3    H212532   0.450   4.532   1.252
 4190TIP3   OH212533   4.121   0.991   2.901
 4190TIP3    H112534   4.115   1.062   2.966
 4190TIP3    H212535   4.171   1.029   2.829
 4191TIP3   OH212536   0.930  -0.020   1.262
 4191TIP3    H112537   0.942   0.066   1.303
 4191TIP3    H212538   0.988  -0.078   1.311
 4192TIP3   OH212539   0.801   6.635   0.563
 4192TIP3    H112540   0.841   6.701   0.620
 4192TIP3    H212541   0.867   6.618   0.496
 4193TIP3   OH212542   1.656   6.088   5.261
 4193TIP3    H112543   1.728   6.110   5.320
 4193TIP3    H212544   1.639   5.995   5.278
 4194TIP3   OH212545   5.332   3.478   2.711
 4194TIP3    H112546   5.259   3.427   2.746
 4194TIP3    H212547   5.410   3.426   2.732
 4195TIP3   OH212548   1.943   4.674   3.634
 4195TIP3    H112549   1.905   4.588   3.617
 4195TIP3    H212550   1.880   4.717   3.692
 4196TIP3   OH212551   2.404   2.615   2.677
 4196TIP3    H112552   2.313   2.585   2.681
 4196TIP3    H212553   2.452   2.542   2.640
 4197TIP3   OH212554   6.008   6.166   2.597
 4197TIP3    H112555   6.096   6.130   2.606
 4197TIP3    H212556   5.964   6.108   2.534
 4198TIP3   OH212557   6.551   1.751   1.343
 4198TIP3    H112558   6.585   1.679   1.397
 4198TIP3    H212559   6.620   1.817   1.347
 4199TIP3   OH212560   0.204   3.181   0.794
 4199TIP3    H112561   0.226   3.101   0.841
 4199TIP3    H212562   0.136   3.223   0.847
 4200TIP3   OH212563   2.423   1.723   5.160
 4200TIP3    H112564   2.421   1.629   5.178
 4200TIP3    H212565   2.340   1.741   5.116
 4201TIP3   OH212566   5.997   0.447   4.399
 4201TIP3    H112567   5.957   0.463   4.485
 4201TIP3    H212568   6.085   0.416   4.419
 4202TIP3   OH212569   3.472   4.610   2.206
 4202TIP3    H112570   3.451   4.658   2.286
 4202TIP3    H212571   3.506   4.526   2.237
 4203TIP3   OH212572   5.050   3.844   4.408
 4203TIP3    H112573   5.138   3.811   4.427
 4203TIP3    H212574   5.016   3.871   4.493
 4204TIP3   OH212575   0.611   1.108   4.562
 4204TIP3    H112576   0.557   1.155   4.498
 4204TIP3    H212577   0.655   1.041   4.510
 4205TIP3   OH212578   0.543   3.330   1.207
 4205TIP3    H112579   0.477   3.268   1.238
 4205TIP3    H212580   0.496   3.414   1.200
 4206TIP3   OH212581   0.861   6.168   4.451
 4206TIP3    H112582   0.769   6.147   4.432
 4206TIP3    H212583   0.902   6.083   4.468
 4207TIP3   OH212584   6.556   5.972   1.327
 4207TIP3    H112585   6.470   5.984   1.285
 4207TIP3    H212586   6.534   5.947   1.417
 4208TIP3   OH212587   6.674   5.747   2.022
 4208TIP3    H112588   6.759   5.783   2.047
 4208TIP3    H212589   6.687   5.716   1.932
 4209TIP3   OH212590   2.178   3.834   0.506
 4209TIP3    H112591   2.108   3.825   0.571
 4209TIP3    H212592   2.132   3.847   0.423
 4210TIP3   OH212593   2.330   0.639   5.559
 4210TIP3    H112594   2.424   0.649   5.545
 4210TIP3    H212595   2.311   0.549   5.530
 4211TIP3   OH212596   5.580   6.757   5.072
 4211TIP3    H112597   5.493   6.728   5.099
 4211TIP3    H212598   5.579   6.852   5.083
 4212TIP3   OH212599   6.381   3.676   0.889
 4212TIP3    H112600   6.415   3.757   0.927
 4212TIP3    H212601   6.443   3.609   0.916
 4213TIP3   OH212602   6.364   2.991   3.787
 4213TIP3    H112603   6.287   2.947   3.751
 4213TIP3    H212604   6.369   3.073   3.739
 4214TIP3   OH212605   6.125   0.310   5.220
 4214TIP3    H112606   6.077   0.270   5.292
 4214TIP3    H212607   6.208   0.262   5.216
 4215TIP3   OH212608   6.743   5.293   0.829
 4215TIP3    H112609   6.798   5.354   0.879
 4215TIP3    H212610   6.672   5.270   0.889
 4216TIP3   OH212611   3.090   1.544   1.953
 4216TIP3    H112612   3.114   1.453   1.968
 4216TIP3    H212613   3.108   1.588   2.036
 4217TIP3   OH212614   4.895   4.104   4.584
 4217TIP3    H112615   4.866   4.177   4.529
 4217TIP3    H212616   4.951   4.145   4.650
 4218TIP3   OH212617   1.682   5.801   0.318
 4218TIP3    H112618   1.596   5.759   0.319
 4218TIP3    H212619   1.697   5.823   0.226
 4219TIP3   OH212620   2.752   3.380   4.888
 4219TIP3    H112621   2.707   3.298   4.908
 4219TIP3    H212622   2.695   3.423   4.825
 4220TIP3   OH212623   6.204   3.395   1.306
 4220TIP3    H112624   6.115   3.368   1.325
 4220TIP3    H212625   6.259   3.328   1.347
 4221TIP3   OH212626   3.678   4.529   3.392
 4221TIP3    H112627   3.645   4.553   3.479
 4221TIP3    H212628   3.704   4.613   3.353
 4222TIP3   OH212629   4.835   5.791   1.549
 4222TIP3    H112630   4.857   5.796   1.456
 4222TIP3    H212631   4.905   5.740   1.588
 4223TIP3   OH212632   2.605   0.466   5.119
 4223TIP3    H112633   2.643   0.456   5.206
 4223TIP3    H212634   2.624   0.383   5.075
 4224TIP3   OH212635   3.569   6.003   2.899
 4224TIP3    H112636   3.579   6.095   2.872
 4224TIP3    H212637   3.659   5.971   2.907
 4225TIP3   OH212638   3.496   2.585   3.859
 4225TIP3    H112639   3.573   2.532   3.839
 4225TIP3    H212640   3.429   2.554   3.798
 4226TIP3   OH212641   3.341   3.814   4.123
 4226TIP3    H112642   3.319   3.727   4.088
 4226TIP3    H212643   3.259   3.863   4.121
 4227TIP3   OH212644   1.273   3.853   0.313
 4227TIP3    H112645   1.203   3.791   0.293
 4227TIP3    H212646   1.247   3.934   0.269
 4228TIP3   OH212647   5.523   3.573   4.211
 4228TIP3    H112648   5.531   3.641   4.144
 4228TIP3    H212649   5.586   3.506   4.185
 4229TIP3   OH212650   4.144   0.568   5.734
 4229TIP3    H112651   4.085   0.594   5.805
 4229TIP3    H212652   4.087   0.529   5.668
 4230TIP3   OH212653   4.532   5.439   0.671
 4230TIP3    H112654   4.598   5.393   0.618
 4230TIP3    H212655   4.449   5.398   0.646
 4231TIP3   OH212656   5.646   4.895   5.459
 4231TIP3    H112657   5.727   4.930   5.423
 4231TIP3    H212658   5.594   4.870   5.383
 4232TIP3   OH212659   5.308   2.862   4.831
 4232TIP3    H112660   5.352   2.817   4.903
 4232TIP3    H212661   5.215   2.858   4.853
 4233TIP3   OH212662   7.107   4.337   4.173
 4233TIP3    H112663   7.100   4.388   4.254
 4233TIP3    H212664   7.023   4.292   4.166
 4234TIP3   OH212665   6.892   0.546   1.640
 4234TIP3    H112666   6.976   0.557   1.685
 4234TIP3    H212667   6.914   0.502   1.558
 4235TIP3   OH212668   1.231   0.931   3.337
 4235TIP3    H112669   1.141   0.917   3.308
 4235TIP3    H212670   1.237   0.885   3.421
 4236TIP3   OH212671   5.729   1.584   5.179
 4236TIP3    H112672   5.648   1.537   5.200
 4236TIP3    H212673   5.766   1.606   5.265
 4237TIP3   OH212674   1.941   4.410   5.580
 4237TIP3    H112675   1.986   4.389   5.662
 4237TIP3    H212676   1.952   4.332   5.526
 4238TIP3   OH212677   1.722   2.829   0.747
 4238TIP3    H112678   1.754   2.791   0.665
 4238TIP3    H212679   1.793   2.887   0.776
 4239TIP3   OH212680   7.174   0.986   0.213
 4239TIP3    H112681   7.252   0.930   0.211
 4239TIP3    H212682   7.101   0.925   0.223
 4240TIP3   OH212683   7.089   4.432   0.932
 4240TIP3    H112684   6.996   4.444   0.919
 4240TIP3    H212685   7.102   4.337   0.929
 4241TIP3   OH212686   0.061   0.054   5.345
 4241TIP3    H112687   0.021  -0.020   5.391
 4241TIP3    H212688   0.143   0.019   5.310
 4242TIP3   OH212689   3.937   3.699   1.269
 4242TIP3    H112690   3.895   3.777   1.232
 4242TIP3    H212691   4.029   3.724   1.278
 4243TIP3   OH212692   5.592   0.045   0.709
 4243TIP3    H112693   5.632   0.131   0.700
 4243TIP3    H212694   5.571   0.019   0.619
 4244TIP3   OH212695   4.145   1.837   1.997
 4244TIP3    H112696   4.186   1.767   2.047
 4244TIP3    H212697   4.159   1.916   2.051
 4245TIP3   OH212698   5.936   4.944   0.906
 4245TIP3    H112699   5.960   4.954   0.814
 4245TIP3    H212700   5.978   5.018   0.950
 4246TIP3   OH212701   2.193   6.689   1.850
 4246TIP3    H112702   2.221   6.615   1.904
 4246TIP3    H212703   2.253   6.689   1.775
 4247TIP3   OH212704   1.949   1.188   2.823
 4247TIP3    H112705   1.964   1.266   2.875
 4247TIP3    H212706   2.034   1.170   2.782
 4248TIP3   OH212707   4.776   3.996   4.206
 4248TIP3    H112708   4.797   3.961   4.120
 4248TIP3    H212709   4.786   4.091   4.197
 4249TIP3   OH212710   0.108   3.921   5.026
 4249TIP3    H112711   0.156   3.999   5.056
 4249TIP3    H212712   0.069   3.885   5.105
 4250TIP3   OH212713   6.029   3.457   0.520
 4250TIP3    H112714   6.080   3.483   0.444
 4250TIP3    H212715   6.082   3.482   0.595
 4251TIP3   OH212716   0.749   4.959   3.856
 4251TIP3    H112717   0.812   4.939   3.924
 4251TIP3    H212718   0.718   4.874   3.826
 4252TIP3   OH212719   1.533   1.353   0.642
 4252TIP3    H112720   1.477   1.293   0.693
 4252TIP3    H212721   1.554   1.423   0.704
 4253TIP3   OH212722   0.490   5.359   0.296
 4253TIP3    H112723   0.454   5.446   0.308
 4253TIP3    H212724   0.519   5.357   0.204
 4254TIP3   OH212725   5.266   6.547   1.149
 4254TIP3    H112726   5.331   6.494   1.196
 4254TIP3    H212727   5.304   6.560   1.062
 4255TIP3   OH212728   0.533   2.158   3.664
 4255TIP3    H112729   0.508   2.158   3.756
 4255TIP3    H212730   0.566   2.070   3.649
 4256TIP3   OH212731   5.842   1.229   5.823
 4256TIP3    H112732   5.799   1.273   5.897
 4256TIP3    H212733   5.925   1.198   5.858
 4257TIP3   OH212734   2.238   5.907   0.375
 4257TIP3    H112735   2.222   5.814   0.363
 4257TIP3    H212736   2.187   5.950   0.306
 4258TIP3   OH212737   2.786   4.742   5.177
 4258TIP3    H112738   2.848   4.693   5.123
 4258TIP3    H212739   2.703   4.695   5.167
 4259TIP3   OH212740   3.025   1.748   5.329
 4259TIP3    H112741   3.038   1.797   5.247
 4259TIP3    H212742   3.107   1.757   5.376
 4260TIP3   OH212743   2.406   6.069   5.597
 4260TIP3    H112744   2.448   6.122   5.664
 4260TIP3    H212745   2.315   6.101   5.595
 4261TIP3   OH212746   6.902   3.441   2.840
 4261TIP3    H112747   6.850   3.365   2.865
 4261TIP3    H212748   6.864   3.514   2.889
 4262TIP3   OH212749   6.090   2.652   2.776
 4262TIP3    H112750   6.090   2.580   2.839
 4262TIP3    H212751   6.147   2.622   2.705
 4263TIP3   OH212752   6.611   4.952   2.236
 4263TIP3    H112753   6.585   4.894   2.165
 4263TIP3    H212754   6.632   4.894   2.309
 4264TIP3   OH212755   0.563   5.868   1.355
 4264TIP3    H112756   0.618   5.936   1.315
 4264TIP3    H212757   0.562   5.891   1.448
 4265TIP3   OH212758   0.258   3.534   2.885
 4265TIP3    H112759   0.344   3.508   2.916
 4265TIP3    H212760   0.198   3.507   2.954
 4266TIP3   OH212761   6.162   2.831   5.108
 4266TIP3    H112762   6.234   2.768   5.113
 4266TIP3    H212763   6.185   2.888   5.035
 4267TIP3   OH212764   5.295   5.023   4.783
 4267TIP3    H112765   5.207   4.987   4.794
 4267TIP3    H212766   5.353   4.950   4.805
 4268TIP3   OH212767   4.442   2.180   0.249
 4268TIP3    H112768   4.354   2.167   0.214
 4268TIP3    H212769   4.459   2.273   0.236
 4269TIP3   OH212770   0.194   0.840   5.151
 4269TIP3    H112771   0.241   0.923   5.159
 4269TIP3    H212772   0.104   0.865   5.132
 4270TIP3   OH212773   3.224   0.026   5.090
 4270TIP3    H112774   3.162   0.091   5.121
 4270TIP3    H212775   3.257  -0.016   5.170
 4271TIP3   OH212776   1.212   5.943   5.651
 4271TIP3    H112777   1.287   5.965   5.595
 4271TIP3    H212778   1.145   6.007   5.626
 4272TIP3   OH212779   0.626   6.557   1.955
 4272TIP3    H112780   0.598   6.648   1.964
 4272TIP3    H212781   0.718   6.562   1.932
 4273TIP3   OH212782   6.314   4.231   4.824
 4273TIP3    H112783   6.392   4.265   4.779
 4273TIP3    H212784   6.243   4.241   4.760
 4274TIP3   OH212785   6.497   1.424   2.054
 4274TIP3    H112786   6.492   1.462   2.142
 4274TIP3    H212787   6.439   1.348   2.058
 4275TIP3   OH212788   4.655   1.269   2.473
 4275TIP3    H112789   4.723   1.238   2.414
 4275TIP3    H212790   4.603   1.192   2.493
 4276TIP3   OH212791   5.965   5.152   5.411
 4276TIP3    H112792   5.968   5.168   5.317
 4276TIP3    H212793   5.971   5.057   5.420
 4277TIP3   OH212794   4.330   5.296   0.551
 4277TIP3    H112795   4.389   5.224   0.527
 4277TIP3    H212796   4.247   5.273   0.510
 4278TIP3   OH212797   1.856   6.460   0.594
 4278TIP3    H112798   1.837   6.501   0.509
 4278TIP3    H212799   1.933   6.405   0.577
 4279TIP3   OH212800   2.632   6.156   4.070
 4279TIP3    H112801   2.562   6.211   4.037
 4279TIP3    H212802   2.712   6.206   4.053
 4280TIP3   OH212803   0.960   4.369   2.646
 4280TIP3    H112804   0.879   4.388   2.693
 4280TIP3    H212805   0.994   4.454   2.621
 4281TIP3   OH212806   1.706   3.962   5.615
 4281TIP3    H112807   1.796   3.985   5.638
 4281TIP3    H212808   1.656   4.042   5.632
 4282TIP3   OH212809   7.177   1.064   3.202
 4282TIP3    H112810   7.138   0.983   3.169
 4282TIP3    H212811   7.242   1.088   3.137
 4283TIP3   OH212812   5.799   6.073   4.726
 4283TIP3    H112813   5.810   5.978   4.720
 4283TIP3    H212814   5.888   6.108   4.717
 4284TIP3   OH212815   0.836   5.010   2.591
 4284TIP3    H112816   0.779   5.054   2.655
 4284TIP3    H212817   0.860   4.928   2.634
 4285TIP3   OH212818   6.440   6.720   2.521
 4285TIP3    H112819   6.515   6.766   2.482
 4285TIP3    H212820   6.477   6.673   2.596
 4286TIP3   OH212821   4.690   5.737   2.183
 4286TIP3    H112822   4.770   5.788   2.196
 4286TIP3    H212823   4.692   5.714   2.090
 4287TIP3   OH212824   2.074   5.640   2.030
 4287TIP3    H112825   2.059   5.644   2.124
 4287TIP3    H212826   1.990   5.663   1.991
 4288TIP3   OH212827   3.086   4.833   0.955
 4288TIP3    H112828   3.159   4.843   0.894
 4288TIP3    H212829   3.022   4.898   0.927
 4289TIP3   OH212830   6.269   2.875   1.986
 4289TIP3    H112831   6.250   2.793   2.032
 4289TIP3    H212832   6.211   2.939   2.026
 4290TIP3   OH212833   2.148   5.457   0.710
 4290TIP3    H112834   2.061   5.497   0.710
 4290TIP3    H212835   2.208   5.531   0.712
 4291TIP3   OH212836   3.698   0.654   4.224
 4291TIP3    H112837   3.773   0.712   4.221
 4291TIP3    H212838   3.663   0.656   4.134
 4292TIP3   OH212839   6.715   2.554   5.200
 4292TIP3    H112840   6.762   2.495   5.259
 4292TIP3    H212841   6.761   2.638   5.208
 4293TIP3   OH212842   3.509   4.170   5.849
 4293TIP3    H112843   3.588   4.212   5.882
 4293TIP3    H212844   3.438   4.230   5.871
 4294TIP3   OH212845   4.007   2.030   4.504
 4294TIP3    H112846   4.011   2.122   4.478
 4294TIP3    H212847   3.942   2.028   4.574
 4295TIP3   OH212848   4.629   0.683   0.234
 4295TIP3    H112849   4.643   0.642   0.319
 4295TIP3    H212850   4.540   0.658   0.209
 4296TIP3   OH212851   5.912   1.695   3.797
 4296TIP3    H112852   5.867   1.779   3.787
 4296TIP3    H212853   5.860   1.647   3.861
 4297TIP3   OH212854   6.621   4.380   2.776
 4297TIP3    H112855   6.629   4.400   2.869
 4297TIP3    H212856   6.607   4.465   2.734
 4298TIP3   OH212857   2.499   1.741   3.307
 4298TIP3    H112858   2.485   1.740   3.402
 4298TIP3    H212859   2.477   1.652   3.279
 4299TIP3   OH212860   0.070   6.029   2.537
 4299TIP3    H112861   0.101   5.943   2.566
 4299TIP3    H212862   0.148   6.076   2.510
 4300TIP3   OH212863   5.588   0.727   0.768
 4300TIP3    H112864   5.577   0.758   0.858
 4300TIP3    H212865   5.649   0.790   0.728
 4301TIP3   OH212866   6.548   0.319   1.600
 4301TIP3    H112867   6.640   0.346   1.602
 4301TIP3    H212868   6.512   0.363   1.523
 4302TIP3   OH212869   0.937   1.725   4.937
 4302TIP3    H112870   0.961   1.700   5.026
 4302TIP3    H212871   0.858   1.675   4.918
 4303TIP3   OH212872   4.900   6.421   5.296
 4303TIP3    H112873   4.895   6.330   5.325
 4303TIP3    H212874   4.851   6.470   5.362
 4304TIP3   OH212875   5.516   1.609   3.036
 4304TIP3    H112876   5.603   1.636   3.066
 4304TIP3    H212877   5.458   1.628   3.111
 4305TIP3   OH212878   2.979   1.069   1.501
 4305TIP3    H112879   2.975   1.036   1.591
 4305TIP3    H212880   3.066   1.044   1.470
 4306TIP3   OH212881   6.754   6.275   5.003
 4306TIP3    H112882   6.814   6.210   4.967
 4306TIP3    H212883   6.718   6.320   4.927
 4307TIP3   OH212884   4.331   1.469   0.000
 4307TIP3    H112885   4.308   1.496   0.089
 4307TIP3    H212886   4.306   1.544  -0.055
 4308TIP3   OH212887   5.738   6.695   2.444
 4308TIP3    H112888   5.804   6.702   2.375
 4308TIP3    H212889   5.660   6.663   2.399
 4309TIP3   OH212890   3.098   4.553   4.346
 4309TIP3    H112891   3.034   4.512   4.288
 4309TIP3    H212892   3.071   4.644   4.351
 4310TIP3   OH212893   2.412   4.617   4.120
 4310TIP3    H112894   2.473   4.598   4.192
 4310TIP3    H212895   2.373   4.701   4.143
 4311TIP3   OH212896   1.040   2.244   3.141
 4311TIP3    H112897   1.083   2.315   3.190
 4311TIP3    H212898   1.002   2.287   3.065
 4312TIP3   OH212899   2.128   3.876   5.174
 4312TIP3    H112900   2.060   3.892   5.109
 4312TIP3    H212901   2.093   3.804   5.228
 4313TIP3   OH212902   0.271   1.749   3.205
 4313TIP3    H112903   0.210   1.698   3.259
 4313TIP3    H212904   0.237   1.739   3.116
 4314TIP3   OH212905   0.912   4.159   4.000
 4314TIP3    H112906   0.877   4.238   4.041
 4314TIP3    H212907   0.917   4.180   3.907
 4315TIP3   OH212908   0.724   2.630   0.475
 4315TIP3    H112909   0.732   2.535   0.487
 4315TIP3    H212910   0.743   2.644   0.383
 4316TIP3   OH212911   5.681   1.873   3.328
 4316TIP3    H112912   5.633   1.913   3.401
 4316TIP3    H212913   5.702   1.785   3.358
 4317TIP3   OH212914   5.663   0.540   1.615
 4317TIP3    H112915   5.685   0.576   1.530
 4317TIP3    H212916   5.582   0.490   1.600
 4318TIP3   OH212917   0.996   1.718   5.692
 4318TIP3    H112918   1.033   1.724   5.604
 4318TIP3    H212919   0.904   1.741   5.681
 4319TIP3   OH212920   4.662   0.583   3.262
 4319TIP3    H112921   4.580   0.626   3.237
 4319TIP3    H212922   4.697   0.550   3.179
 4320TIP3   OH212923   3.652   2.009   2.807
 4320TIP3    H112924   3.561   2.038   2.799
 4320TIP3    H212925   3.652   1.954   2.886
 4321TIP3   OH212926   3.144   1.442   3.178
 4321TIP3    H112927   3.136   1.359   3.131
 4321TIP3    H212928   3.152   1.417   3.270
 4322TIP3   OH212929   7.089   4.157   3.382
 4322TIP3    H112930   7.035   4.224   3.422
 4322TIP3    H212931   7.108   4.190   3.294
 4323TIP3   OH212932   3.107   4.933   0.520
 4323TIP3    H112933   3.012   4.927   0.532
 4323TIP3    H212934   3.126   4.872   0.449
 4324TIP3   OH212935   4.154   2.839   4.511
 4324TIP3    H112936   4.121   2.789   4.586
 4324TIP3    H212937   4.230   2.789   4.480
 4325TIP3   OH212938   0.176   0.345   2.344
 4325TIP3    H112939   0.185   0.421   2.287
 4325TIP3    H212940   0.132   0.279   2.291
 4326TIP3   OH212941   3.925   1.386   0.125
 4326TIP3    H112942   3.854   1.357   0.068
 4326TIP3    H212943   3.969   1.455   0.076
 4327TIP3   OH212944   3.999   3.575   0.766
 4327TIP3    H112945   4.062   3.600   0.834
 4327TIP3    H212946   3.996   3.650   0.707
 4328TIP3   OH212947   1.214   5.784   2.489
 4328TIP3    H112948   1.175   5.865   2.522
 4328TIP3    H212949   1.185   5.717   2.550
 4329TIP3   OH212950   6.247   0.625   4.365
 4329TIP3    H112951   6.221   0.572   4.440
 4329TIP3    H212952   6.342   0.615   4.361
 4330TIP3   OH212953   4.228   4.070   2.789
 4330TIP3    H112954   4.141   4.105   2.769
 4330TIP3    H212955   4.245   4.007   2.719
 4331TIP3   OH212956   2.424   5.683   5.327
 4331TIP3    H112957   2.455   5.760   5.374
 4331TIP3    H212958   2.418   5.711   5.235
 4332TIP3   OH212959   3.289   2.905   1.009
 4332TIP3    H112960   3.242   2.985   1.032
 4332TIP3    H212961   3.232   2.834   1.038
 4333TIP3   OH212962   1.725   1.221   4.711
 4333TIP3    H112963   1.680   1.223   4.795
 4333TIP3    H212964   1.656   1.210   4.646
 4334TIP3   OH212965   3.303   5.968   4.753
 4334TIP3    H112966   3.378   6.025   4.770
 4334TIP3    H212967   3.304   5.955   4.659
 4335TIP3   OH212968   0.309   3.944   3.973
 4335TIP3    H112969   0.352   4.027   3.991
 4335TIP3    H212970   0.221   3.954   4.008
 4336TIP3   OH212971   1.350   1.795   5.233
 4336TIP3    H112972   1.350   1.713   5.283
 4336TIP3    H212973   1.260   1.827   5.241
 4337TIP3   OH212974   3.637   0.629   3.961
 4337TIP3    H112975   3.548   0.622   3.925
 4337TIP3    H212976   3.694   0.616   3.885
 4338TIP3   OH212977   0.965   4.963   1.409
 4338TIP3    H112978   0.933   4.912   1.335
 4338TIP3    H212979   0.889   5.017   1.435
 4339TIP3   OH212980   5.128   5.230   0.809
 4339TIP3    H112981   5.034   5.248   0.806
 4339TIP3    H212982   5.134   5.135   0.808
 4340TIP3   OH212983   2.833   6.441   4.302
 4340TIP3    H112984   2.763   6.498   4.270
 4340TIP3    H212985   2.897   6.501   4.341
 4341TIP3   OH212986   5.682   2.692   1.857
 4341TIP3    H112987   5.719   2.645   1.783
 4341TIP3    H212988   5.661   2.778   1.823
 4342TIP3   OH212989   2.897   0.295   4.081
 4342TIP3    H112990   2.858   0.241   4.012
 4342TIP3    H212991   2.825   0.350   4.111
 4343TIP3   OH212992   0.944   0.155   2.538
 4343TIP3    H112993   0.851   0.178   2.530
 4343TIP3    H212994   0.945   0.059   2.536
 4344TIP3   OH212995   4.436   5.255   4.017
 4344TIP3    H112996   4.429   5.182   3.955
 4344TIP3    H212997   4.504   5.311   3.980
 4345TIP3   OH212998   6.547   3.983   1.930
 4345TIP3    H112999   6.570   4.074   1.947
 4345TIP3    H213000   6.630   3.941   1.909
 4346TIP3   OH213001   1.849   2.210   5.357
 4346TIP3    H113002   1.809   2.242   5.437
 4346TIP3    H213003   1.799   2.131   5.335
 4347TIP3   OH213004   1.821   5.710   1.963
 4347TIP3    H113005   1.805   5.804   1.974
 4347TIP3    H213006   1.741   5.678   1.920
 4348TIP3   OH213007   5.698   4.315   1.641
 4348TIP3    H113008   5.730   4.234   1.601
 4348TIP3    H213009   5.642   4.355   1.574
 4349TIP3   OH213010   0.732   1.792   5.353
 4349TIP3    H113011   0.779   1.876   5.356
 4349TIP3    H213012   0.710   1.774   5.444
 4350TIP3   OH213013   1.812   0.992   3.722
 4350TIP3    H113014   1.815   1.088   3.728
 4350TIP3    H213015   1.723   0.970   3.750
 4351TIP3   OH213016   3.268   1.327   5.466
 4351TIP3    H113017   3.341   1.389   5.454
 4351TIP3    H213018   3.189   1.380   5.458
 4352TIP3   OH213019   0.968   6.665   0.072
 4352TIP3    H113020   0.897   6.714   0.031
 4352TIP3    H213021   0.925   6.609   0.136
 4353TIP3   OH213022   3.867   6.275   0.523
 4353TIP3    H113023   3.806   6.284   0.596
 4353TIP3    H213024   3.812   6.268   0.445
 4354TIP3   OH213025   4.991   1.034   2.085
 4354TIP3    H113026   4.911   1.004   2.042
 4354TIP3    H213027   5.035   0.954   2.113
 4355TIP3   OH213028   6.490   3.706   1.899
 4355TIP3    H113029   6.469   3.799   1.904
 4355TIP3    H213030   6.405   3.662   1.902
 4356TIP3   OH213031   6.555   3.412   3.197
 4356TIP3    H113032   6.480   3.467   3.216
 4356TIP3    H213033   6.613   3.424   3.272
 4357TIP3   OH213034   4.211   2.182   4.307
 4357TIP3    H113035   4.191   2.220   4.222
 4357TIP3    H213036   4.229   2.090   4.288
 4358TIP3   OH213037   3.916   5.156   2.120
 4358TIP3    H113038   3.929   5.236   2.171
 4358TIP3    H213039   3.822   5.137   2.129
 4359TIP3   OH213040   0.439   2.807   3.362
 4359TIP3    H113041   0.384   2.882   3.342
 4359TIP3    H213042   0.522   2.845   3.393
 4360TIP3   OH213043   7.123   1.922   3.298
 4360TIP3    H113044   7.077   1.985   3.353
 4360TIP3    H213045   7.159   1.974   3.227
 4361TIP3   OH213046   1.434   4.713   5.692
 4361TIP3    H113047   1.352   4.665   5.697
 4361TIP3    H213048   1.501   4.649   5.714
 4362TIP3   OH213049   3.181   1.228   0.204
 4362TIP3    H113050   3.253   1.168   0.223
 4362TIP3    H213051   3.142   1.194   0.124
 4363TIP3   OH213052   4.801   0.256   0.447
 4363TIP3    H113053   4.892   0.286   0.445
 4363TIP3    H213054   4.753   0.320   0.395
 4364TIP3   OH213055   5.494   6.101   4.820
 4364TIP3    H113056   5.459   6.040   4.886
 4364TIP3    H213057   5.581   6.067   4.800
 4365TIP3   OH213058   1.727   1.002   1.049
 4365TIP3    H113059   1.787   1.076   1.059
 4365TIP3    H213060   1.640   1.042   1.049
 4366TIP3   OH213061   0.620   0.828   3.733
 4366TIP3    H113062   0.614   0.917   3.769
 4366TIP3    H213063   0.709   0.800   3.752
 4367TIP3   OH213064   4.573   3.640   0.482
 4367TIP3    H113065   4.593   3.547   0.493
 4367TIP3    H213066   4.656   3.684   0.497
 4368TIP3   OH213067   5.849   1.990   0.201
 4368TIP3    H113068   5.859   2.008   0.295
 4368TIP3    H213069   5.762   2.023   0.179
 4369TIP3   OH213070   3.007   2.867   2.426
 4369TIP3    H113071   2.934   2.915   2.464
 4369TIP3    H213072   3.046   2.929   2.364
 4370TIP3   OH213073   6.069   5.499   5.039
 4370TIP3    H113074   6.093   5.515   5.131
 4370TIP3    H213075   6.150   5.511   4.991
 4371TIP3   OH213076   6.706   2.712   2.677
 4371TIP3    H113077   6.650   2.654   2.729
 4371TIP3    H213078   6.712   2.668   2.592
 4372TIP3   OH213079   2.320   0.554   2.807
 4372TIP3    H113080   2.370   0.547   2.726
 4372TIP3    H213081   2.252   0.618   2.788
 4373TIP3   OH213082   5.418   5.734   0.972
 4373TIP3    H113083   5.474   5.754   1.047
 4373TIP3    H213084   5.460   5.660   0.929
 4374TIP3   OH213085   3.274   2.328   4.392
 4374TIP3    H113086   3.184   2.357   4.406
 4374TIP3    H213087   3.306   2.382   4.319
 4375TIP3   OH213088   3.983   4.454   3.582
 4375TIP3    H113089   4.051   4.428   3.645
 4375TIP3    H213090   3.903   4.413   3.614
 4376TIP3   OH213091   6.006   0.168   4.527
 4376TIP3    H113092   5.959   0.246   4.555
 4376TIP3    H213093   6.099   0.192   4.534
 4377TIP3   OH213094   4.602   4.180   3.548
 4377TIP3    H113095   4.692   4.175   3.580
 4377TIP3    H213096   4.551   4.133   3.613
 4378TIP3   OH213097   3.360   2.537   2.851
 4378TIP3    H113098   3.294   2.574   2.910
 4378TIP3    H213099   3.440   2.535   2.903
 4379TIP3   OH213100   5.574   1.937   3.047
 4379TIP3    H113101   5.616   1.911   3.129
 4379TIP3    H213102   5.645   1.974   2.994
 4380TIP3   OH213103   5.484   4.848   3.701
 4380TIP3    H113104   5.499   4.896   3.620
 4380TIP3    H213105   5.565   4.799   3.715
 4381TIP3   OH213106   4.182   1.211   2.621
 4381TIP3    H113107   4.238   1.220   2.698
 4381TIP3    H213108   4.234   1.159   2.559
 4382TIP3   OH213109   3.687   2.157   4.199
 4382TIP3    H113110   3.629   2.083   4.219
 4382TIP3    H213111   3.661   2.184   4.111
 4383TIP3   OH213112   0.715   1.783   5.686
 4383TIP3    H113113   0.720   1.860   5.743
 4383TIP3    H213114   0.637   1.736   5.716
 4384TIP3   OH213115   5.662   6.365   1.635
 4384TIP3    H113116   5.661   6.299   1.565
 4384TIP3    H213117   5.699   6.319   1.710
 4385TIP3   OH213118   3.392   6.108   3.813
 4385TIP3    H113119   3.307   6.151   3.802
 4385TIP3    H213120   3.452   6.156   3.757
 4386TIP3   OH213121   6.073   0.438   2.480
 4386TIP3    H113122   6.021   0.487   2.416
 4386TIP3    H213123   6.026   0.447   2.562
 4387TIP3   OH213124   5.127   2.491   4.073
 4387TIP3    H113125   5.105   2.570   4.024
 4387TIP3    H213126   5.171   2.523   4.152
 4388TIP3   OH213127   2.994   6.789   0.885
 4388TIP3    H113128   3.072   6.821   0.839
 4388TIP3    H213129   2.940   6.752   0.816
 4389TIP3   OH213130   3.610   5.923   3.181
 4389TIP3    H113131   3.624   5.892   3.092
 4389TIP3    H213132   3.696   5.952   3.210
 4390TIP3   OH213133   5.125   4.968   0.837
 4390TIP3    H113134   5.160   4.934   0.919
 4390TIP3    H213135   5.146   4.901   0.772
 4391TIP3   OH213136   3.970   3.666   4.545
 4391TIP3    H113137   4.052   3.677   4.593
 4391TIP3    H213138   3.924   3.596   4.590
 4392TIP3   OH213139   1.446   6.379   4.427
 4392TIP3    H113140   1.507   6.315   4.392
 4392TIP3    H213141   1.457   6.456   4.372
 4393TIP3   OH213142   5.404   1.987   2.142
 4393TIP3    H113143   5.378   2.019   2.229
 4393TIP3    H213144   5.498   1.970   2.150
 4394TIP3   OH213145   4.778   3.540   3.869
 4394TIP3    H113146   4.868   3.509   3.878
 4394TIP3    H213147   4.748   3.504   3.786
 4395TIP3   OH213148   0.898   3.366   4.150
 4395TIP3    H113149   0.874   3.308   4.223
 4395TIP3    H213150   0.973   3.323   4.109
 4396TIP3   OH213151   3.292   5.300   1.983
 4396TIP3    H113152   3.213   5.250   2.003
 4396TIP3    H213153   3.352   5.279   2.054
 4397TIP3   OH213154   6.397   0.930   0.108
 4397TIP3    H113155   6.340   0.957   0.181
 4397TIP3    H213156   6.369   0.841   0.088
 4398TIP3   OH213157   6.965   5.028   5.322
 4398TIP3    H113158   6.945   4.935   5.308
 4398TIP3    H213159   6.969   5.037   5.417
 4399TIP3   OH213160   6.685   2.190   2.289
 4399TIP3    H113161   6.754   2.232   2.236
 4399TIP3    H213162   6.626   2.150   2.225
 4400TIP3   OH213163   7.201   3.324   3.345
 4400TIP3    H113164   7.147   3.396   3.314
 4400TIP3    H213165   7.148   3.282   3.413
 4401TIP3   OH213166   6.821   2.406   2.543
 4401TIP3    H113167   6.905   2.449   2.558
 4401TIP3    H213168   6.788   2.443   2.461
 4402TIP3   OH213169   6.608   1.868   2.866
 4402TIP3    H113170   6.690   1.831   2.834
 4402TIP3    H213171   6.620   1.963   2.858
 4403TIP3   OH213172   2.564   5.319   0.169
 4403TIP3    H113173   2.601   5.404   0.144
 4403TIP3    H213174   2.548   5.275   0.085
 4404TIP3   OH213175   3.895   1.485   4.753
 4404TIP3    H113176   3.833   1.470   4.682
 4404TIP3    H213177   3.979   1.456   4.718
 4405TIP3   OH213178   1.249   0.526   1.982
 4405TIP3    H113179   1.261   0.613   2.020
 4405TIP3    H213180   1.195   0.478   2.045
 4406TIP3   OH213181   3.238   1.862   2.621
 4406TIP3    H113182   3.215   1.930   2.558
 4406TIP3    H213183   3.313   1.817   2.581
 4407TIP3   OH213184   7.200   3.412   4.540
 4407TIP3    H113185   7.222   3.393   4.449
 4407TIP3    H213186   7.182   3.327   4.579
 4408TIP3   OH213187   0.355   1.908   1.606
 4408TIP3    H113188   0.279   1.858   1.574
 4408TIP3    H213189   0.403   1.846   1.661
 4409TIP3   OH213190   7.130   1.677   5.574
 4409TIP3    H113191   7.191   1.603   5.573
 4409TIP3    H213192   7.044   1.637   5.571
 4410TIP3   OH213193   6.861   1.776   2.892
 4410TIP3    H113194   6.833   1.685   2.907
 4410TIP3    H213195   6.899   1.804   2.975
 4411TIP3   OH213196   6.427   6.577   1.689
 4411TIP3    H113197   6.365   6.648   1.704
 4411TIP3    H213198   6.495   6.616   1.633
 4412TIP3   OH213199   1.062   0.268   0.596
 4412TIP3    H113200   1.010   0.216   0.534
 4412TIP3    H213201   1.045   0.228   0.681
 4413TIP3   OH213202   0.916   2.208   2.607
 4413TIP3    H113203   0.827   2.231   2.581
 4413TIP3    H213204   0.949   2.285   2.653
 4414TIP3   OH213205   0.354   5.417   5.637
 4414TIP3    H113206   0.446   5.419   5.662
 4414TIP3    H213207   0.351   5.361   5.560
 4415TIP3   OH213208   0.831   2.413   2.998
 4415TIP3    H113209   0.823   2.503   3.032
 4415TIP3    H213210   0.837   2.425   2.903
 4416TIP3   OH213211   1.789   5.744   4.062
 4416TIP3    H113212   1.755   5.833   4.051
 4416TIP3    H213213   1.782   5.728   4.157
 4417TIP3   OH213214   6.927   2.130   2.974
 4417TIP3    H113215   6.956   2.174   2.894
 4417TIP3    H213216   7.007   2.093   3.011
 4418TIP3   OH213217   2.198   2.356   3.766
 4418TIP3    H113218   2.177   2.382   3.676
 4418TIP3    H213219   2.133   2.400   3.820
 4419TIP3   OH213220   1.949   5.307   2.873
 4419TIP3    H113221   1.968   5.395   2.839
 4419TIP3    H213222   1.970   5.248   2.800
 4420TIP3   OH213223   3.499   2.550   3.296
 4420TIP3    H113224   3.440   2.515   3.229
 4420TIP3    H213225   3.539   2.627   3.255
 4421TIP3   OH213226   6.452   3.073   4.351
 4421TIP3    H113227   6.467   3.001   4.412
 4421TIP3    H213228   6.453   3.151   4.406
 4422TIP3   OH213229   1.562   2.768   1.798
 4422TIP3    H113230   1.536   2.693   1.744
 4422TIP3    H213231   1.645   2.742   1.837
 4423TIP3   OH213232   3.142   2.744   1.350
 4423TIP3    H113233   3.105   2.674   1.296
 4423TIP3    H213234   3.126   2.824   1.300
 4424TIP3   OH213235   3.933   2.922   4.392
 4424TIP3    H113236   3.877   2.844   4.398
 4424TIP3    H213237   4.009   2.901   4.446
 4425TIP3   OH213238   3.224   3.916   3.566
 4425TIP3    H113239   3.160   3.892   3.500
 4425TIP3    H213240   3.201   3.862   3.642
 4426TIP3   OH213241   2.034   4.587   2.781
 4426TIP3    H113242   2.110   4.617   2.830
 4426TIP3    H213243   2.068   4.520   2.721
 4427TIP3   OH213244   4.549   4.995   5.320
 4427TIP3    H113245   4.562   5.006   5.226
 4427TIP3    H213246   4.504   4.911   5.329
 4428TIP3   OH213247   0.335   2.389   5.137
 4428TIP3    H113248   0.271   2.400   5.207
 4428TIP3    H213249   0.412   2.438   5.166
 4429TIP3   OH213250   6.177   2.465   4.347
 4429TIP3    H113251   6.139   2.412   4.278
 4429TIP3    H213252   6.110   2.531   4.366
 4430TIP3   OH213253   6.378   0.868   3.171
 4430TIP3    H113254   6.298   0.849   3.122
 4430TIP3    H213255   6.386   0.963   3.168
 4431TIP3   OH213256   1.143   3.105   0.325
 4431TIP3    H113257   1.193   3.074   0.250
 4431TIP3    H213258   1.178   3.057   0.399
 4432TIP3   OH213259   5.510   4.712   4.276
 4432TIP3    H113260   5.567   4.693   4.202
 4432TIP3    H213261   5.440   4.767   4.240
 4433TIP3   OH213262   2.976   0.183   2.447
 4433TIP3    H113263   2.914   0.255   2.435
 4433TIP3    H213264   3.033   0.212   2.519
 4434TIP3   OH213265   6.419   5.780   5.120
 4434TIP3    H113266   6.393   5.687   5.118
 4434TIP3    H213267   6.469   5.789   5.200
 4435TIP3   OH213268   0.410   0.918   5.736
 4435TIP3    H113269   0.451   0.905   5.650
 4435TIP3    H213270   0.330   0.865   5.733
 4436TIP3   OH213271   2.174   2.096   0.103
 4436TIP3    H113272   2.176   2.092   0.199
 4436TIP3    H213273   2.141   2.184   0.084
 4437TIP3   OH213274   4.846   4.424   3.153
 4437TIP3    H113275   4.904   4.455   3.223
 4437TIP3    H213276   4.828   4.333   3.175
 4438TIP3   OH213277   4.519   3.172   5.306
 4438TIP3    H113278   4.473   3.247   5.343
 4438TIP3    H213279   4.603   3.207   5.276
 4439TIP3   OH213280   0.607   1.766   0.175
 4439TIP3    H113281   0.514   1.789   0.176
 4439TIP3    H213282   0.651   1.844   0.209
 4440TIP3   OH213283   3.661   1.967   0.582
 4440TIP3    H113284   3.693   1.918   0.658
 4440TIP3    H213285   3.739   2.007   0.544
 4441TIP3   OH213286   5.821   0.666   0.199
 4441TIP3    H113287   5.825   0.573   0.176
 4441TIP3    H213288   5.910   0.686   0.230
 4442TIP3   OH213289   6.718   6.505   5.546
 4442TIP3    H113290   6.777   6.475   5.477
 4442TIP3    H213291   6.771   6.504   5.625
 4443TIP3   OH213292   5.885   2.928   3.801
 4443TIP3    H113293   5.794   2.898   3.798
 4443TIP3    H213294   5.882   3.008   3.853
 4444TIP3   OH213295   4.107   0.311   2.586
 4444TIP3    H113296   4.191   0.335   2.624
 4444TIP3    H213297   4.058   0.272   2.658
 4445TIP3   OH213298   3.768   3.315   4.145
 4445TIP3    H113299   3.724   3.341   4.064
 4445TIP3    H213300   3.701   3.267   4.194
 4446TIP3   OH213301   6.502   4.295   2.443
 4446TIP3    H113302   6.592   4.304   2.474
 4446TIP3    H213303   6.503   4.338   2.357
 4447TIP3   OH213304   6.487   0.634   0.376
 4447TIP3    H113305   6.526   0.689   0.309
 4447TIP3    H213306   6.453   0.696   0.441
 4448TIP3   OH213307   0.490   0.578   5.759
 4448TIP3    H113308   0.490   0.488   5.789
 4448TIP3    H213309   0.575   0.589   5.715
 4449TIP3   OH213310   0.511   3.415   5.324
 4449TIP3    H113311   0.436   3.407   5.265
 4449TIP3    H213312   0.520   3.328   5.364
 4450TIP3   OH213313   0.183   6.799   2.315
 4450TIP3    H113314   0.108   6.772   2.367
 4450TIP3    H213315   0.193   6.730   2.249
 4451TIP3   OH213316   0.725   2.529   4.350
 4451TIP3    H113317   0.718   2.548   4.444
 4451TIP3    H213318   0.737   2.614   4.309
 4452TIP3   OH213319   6.890   1.472   3.811
 4452TIP3    H113320   6.802   1.511   3.801
 4452TIP3    H213321   6.883   1.386   3.769
 4453TIP3   OH213322   5.299   3.801   2.707
 4453TIP3    H113323   5.228   3.743   2.676
 4453TIP3    H213324   5.302   3.871   2.642
 4454TIP3   OH213325   6.319   4.954   2.336
 4454TIP3    H113326   6.400   4.904   2.325
 4454TIP3    H213327   6.250   4.891   2.320
 4455TIP3   OH213328   4.451   1.600   0.556
 4455TIP3    H113329   4.545   1.617   0.567
 4455TIP3    H213330   4.447   1.532   0.489
 4456TIP3   OH213331   2.940   2.663   0.802
 4456TIP3    H113332   2.986   2.594   0.850
 4456TIP3    H213333   2.847   2.642   0.813
 4457TIP3   OH213334   5.147   6.170   4.316
 4457TIP3    H113335   5.215   6.151   4.251
 4457TIP3    H213336   5.092   6.092   4.315
 4458TIP3   OH213337   6.312   5.552   1.683
 4458TIP3    H113338   6.270   5.470   1.655
 4458TIP3    H213339   6.249   5.620   1.659
 4459TIP3   OH213340   4.626   3.524   4.978
 4459TIP3    H113341   4.541   3.568   4.985
 4459TIP3    H213342   4.633   3.500   4.886
 4460TIP3   OH213343   4.718   6.606   5.381
 4460TIP3    H113344   4.742   6.620   5.473
 4460TIP3    H213345   4.633   6.649   5.372
 4461TIP3   OH213346   2.295   2.165   1.984
 4461TIP3    H113347   2.353   2.116   2.043
 4461TIP3    H213348   2.253   2.097   1.931
 4462TIP3   OH213349   0.042   5.619   4.820
 4462TIP3    H113350   0.090   5.701   4.810
 4462TIP3    H213351  -0.016   5.617   4.743
 4463TIP3   OH213352   1.523   6.221   2.113
 4463TIP3    H113353   1.469   6.225   2.192
 4463TIP3    H213354   1.480   6.280   2.051
 4464TIP3   OH213355   1.764   5.731   0.919
 4464TIP3    H113356   1.825   5.804   0.909
 4464TIP3    H213357   1.821   5.654   0.931
 4465TIP3   OH213358   0.389   5.188   0.473
 4465TIP3    H113359   0.433   5.243   0.409
 4465TIP3    H213360   0.425   5.101   0.460
 4466TIP3   OH213361   0.255   2.480   2.233
 4466TIP3    H113362   0.173   2.514   2.268
 4466TIP3    H213363   0.244   2.483   2.138
 4467TIP3   OH213364   4.349   4.941   2.617
 4467TIP3    H113365   4.428   4.892   2.640
 4467TIP3    H213366   4.316   4.974   2.701
 4468TIP3   OH213367   5.246   2.020   3.810
 4468TIP3    H113368   5.228   2.103   3.853
 4468TIP3    H213369   5.177   1.962   3.841
 4469TIP3   OH213370   1.620   5.814   4.517
 4469TIP3    H113371   1.543   5.763   4.543
 4469TIP3    H213372   1.586   5.882   4.460
 4470TIP3   OH213373   2.516   2.681   5.785
 4470TIP3    H113374   2.483   2.708   5.871
 4470TIP3    H213375   2.497   2.588   5.781
 4471TIP3   OH213376   4.520   6.130   2.739
 4471TIP3    H113377   4.523   6.175   2.654
 4471TIP3    H213378   4.602   6.152   2.781
 4472TIP3   OH213379   4.134   3.333   2.823
 4472TIP3    H113380   4.120   3.317   2.729
 4472TIP3    H213381   4.229   3.345   2.831
 4473TIP3   OH213382   4.501   0.946   1.917
 4473TIP3    H113383   4.467   1.020   1.868
 4473TIP3    H213384   4.443   0.873   1.893
 4474TIP3   OH213385   4.178   6.680   5.461
 4474TIP3    H113386   4.178   6.775   5.454
 4474TIP3    H213387   4.220   6.662   5.545
 4475TIP3   OH213388   1.546   2.219   3.033
 4475TIP3    H113389   1.490   2.160   3.084
 4475TIP3    H213390   1.592   2.162   2.972
 4476TIP3   OH213391   6.662   1.430   0.755
 4476TIP3    H113392   6.634   1.347   0.794
 4476TIP3    H213393   6.588   1.458   0.701
 4477TIP3   OH213394   6.389   5.679   3.808
 4477TIP3    H113395   6.357   5.737   3.877
 4477TIP3    H213396   6.389   5.734   3.729
 4478TIP3   OH213397   1.368   3.972   3.823
 4478TIP3    H113398   1.429   4.033   3.864
 4478TIP3    H213399   1.423   3.901   3.789
 4479TIP3   OH213400   2.913   6.689   1.685
 4479TIP3    H113401   2.943   6.773   1.651
 4479TIP3    H213402   2.993   6.640   1.703
 4480TIP3   OH213403   4.314   1.013   3.635
 4480TIP3    H113404   4.241   1.062   3.597
 4480TIP3    H213405   4.273   0.958   3.702
 4481TIP3   OH213406   6.688   1.084   5.812
 4481TIP3    H113407   6.755   1.130   5.863
 4481TIP3    H213408   6.610   1.138   5.823
 4482TIP3   OH213409   0.593   1.707   4.273
 4482TIP3    H113410   0.617   1.657   4.195
 4482TIP3    H213411   0.591   1.642   4.343
 4483TIP3   OH213412   2.755   4.717   0.351
 4483TIP3    H113413   2.720   4.744   0.435
 4483TIP3    H213414   2.715   4.777   0.288
 4484TIP3   OH213415   7.175   3.588   0.862
 4484TIP3    H113416   7.170   3.552   0.774
 4484TIP3    H213417   7.085   3.609   0.886
 4485TIP3   OH213418   5.075   1.098   4.372
 4485TIP3    H113419   5.024   1.121   4.294
 4485TIP3    H213420   5.013   1.055   4.430
 4486TIP3   OH213421   0.473   2.844   1.614
 4486TIP3    H113422   0.381   2.861   1.633
 4486TIP3    H213423   0.472   2.809   1.524
 4487TIP3   OH213424   1.266   0.396   1.094
 4487TIP3    H113425   1.217   0.333   1.146
 4487TIP3    H213426   1.306   0.454   1.159
 4488TIP3   OH213427   3.255   5.158   3.188
 4488TIP3    H113428   3.267   5.121   3.101
 4488TIP3    H213429   3.161   5.153   3.204
 4489TIP3   OH213430   3.784   4.498   1.328
 4489TIP3    H113431   3.735   4.483   1.408
 4489TIP3    H213432   3.844   4.569   1.349
 4490TIP3   OH213433   6.862   2.271   0.805
 4490TIP3    H113434   6.924   2.256   0.876
 4490TIP3    H213435   6.903   2.341   0.753
 4491TIP3   OH213436   0.748   5.801   5.286
 4491TIP3    H113437   0.833   5.786   5.246
 4491TIP3    H213438   0.753   5.888   5.324
 4492TIP3   OH213439   1.803   5.386   5.309
 4492TIP3    H113440   1.749   5.410   5.234
 4492TIP3    H213441   1.872   5.330   5.272
 4493TIP3   OH213442   5.265   5.864   4.515
 4493TIP3    H113443   5.260   5.850   4.420
 4493TIP3    H213444   5.177   5.895   4.539
 4494TIP3   OH213445   5.211   4.650   3.044
 4494TIP3    H113446   5.140   4.592   3.020
 4494TIP3    H213447   5.168   4.726   3.083
 4495TIP3   OH213448   5.690   4.831   0.476
 4495TIP3    H113449   5.739   4.759   0.515
 4495TIP3    H213450   5.686   4.897   0.545
 4496TIP3   OH213451   2.529   3.354   2.098
 4496TIP3    H113452   2.600   3.401   2.141
 4496TIP3    H213453   2.456   3.416   2.098
 4497TIP3   OH213454   3.969   3.722   4.282
 4497TIP3    H113455   3.998   3.810   4.259
 4497TIP3    H213456   3.982   3.717   4.377
 4498TIP3   OH213457   1.716   2.818   5.101
 4498TIP3    H113458   1.732   2.872   5.178
 4498TIP3    H213459   1.711   2.729   5.134
 4499TIP3   OH213460   1.002   4.965   5.452
 4499TIP3    H113461   0.963   4.935   5.370
 4499TIP3    H213462   0.928   4.981   5.510
 4500TIP3   OH213463   5.768   1.234   2.553
 4500TIP3    H113464   5.774   1.304   2.617
 4500TIP3    H213465   5.828   1.167   2.584
 4501TIP3   OH213466   2.880   5.996   3.163
 4501TIP3    H113467   2.898   5.911   3.123
 4501TIP3    H213468   2.914   6.059   3.101
 4502TIP3   OH213469   2.851   2.633   2.464
 4502TIP3    H113470   2.782   2.674   2.515
 4502TIP3    H213471   2.917   2.702   2.452
 4503TIP3   OH213472   1.854   4.935   4.674
 4503TIP3    H113473   1.855   4.849   4.632
 4503TIP3    H213474   1.773   4.935   4.725
 4504TIP3   OH213475   5.922   6.639   1.447
 4504TIP3    H113476   5.955   6.691   1.520
 4504TIP3    H213477   5.982   6.565   1.441
 4505TIP3   OH213478   2.016   3.775   3.332
 4505TIP3    H113479   2.003   3.681   3.318
 4505TIP3    H213480   2.050   3.807   3.249
 4506TIP3   OH213481   3.183   4.083   0.566
 4506TIP3    H113482   3.126   4.090   0.643
 4506TIP3    H213483   3.146   4.145   0.504
 4507TIP3   OH213484   4.249   5.652   0.427
 4507TIP3    H113485   4.235   5.733   0.378
 4507TIP3    H213486   4.212   5.669   0.513
 4508TIP3   OH213487   3.813   6.634   2.276
 4508TIP3    H113488   3.831   6.614   2.368
 4508TIP3    H213489   3.727   6.595   2.260
 4509TIP3   OH213490   1.329   5.262   4.662
 4509TIP3    H113491   1.240   5.279   4.633
 4509TIP3    H213492   1.357   5.344   4.704
 4510TIP3   OH213493   4.605   6.440   4.579
 4510TIP3    H113494   4.595   6.535   4.585
 4510TIP3    H213495   4.515   6.407   4.588
 4511TIP3   OH213496   7.137   3.967   2.589
 4511TIP3    H113497   7.123   3.888   2.641
 4511TIP3    H213498   7.232   3.969   2.574
 4512TIP3   OH213499   3.284   0.705   0.123
 4512TIP3    H113500   3.280   0.663   0.037
 4512TIP3    H213501   3.335   0.785   0.108
 4513TIP3   OH213502   6.441   3.163   1.760
 4513TIP3    H113503   6.387   3.243   1.761
 4513TIP3    H213504   6.514   3.185   1.702
 4514TIP3   OH213505   0.521   5.685   4.342
 4514TIP3    H113506   0.572   5.729   4.274
 4514TIP3    H213507   0.572   5.607   4.364
 4515TIP3   OH213508   1.589   5.601   5.416
 4515TIP3    H113509   1.514   5.543   5.432
 4515TIP3    H213510   1.652   5.546   5.370
 4516TIP3   OH213511   0.938   6.209   0.624
 4516TIP3    H113512   1.005   6.197   0.556
 4516TIP3    H213513   0.865   6.153   0.596
 4517TIP3   OH213514   5.592   1.785   5.911
 4517TIP3    H113515   5.584   1.879   5.894
 4517TIP3    H213516   5.567   1.744   5.828
 4518TIP3   OH213517   0.402   3.166   2.800
 4518TIP3    H113518   0.491   3.198   2.815
 4518TIP3    H213519   0.362   3.232   2.744
 4519TIP3   OH213520   1.144   5.005   3.306
 4519TIP3    H113521   1.130   5.058   3.228
 4519TIP3    H213522   1.158   4.916   3.274
 4520TIP3   OH213523   2.214   5.041   0.346
 4520TIP3    H113524   2.222   4.990   0.266
 4520TIP3    H213525   2.245   5.129   0.322
 4521TIP3   OH213526   3.487   6.323   0.108
 4521TIP3    H113527   3.507   6.268   0.032
 4521TIP3    H213528   3.441   6.264   0.168
 4522TIP3   OH213529   6.264   4.746   3.255
 4522TIP3    H113530   6.215   4.785   3.328
 4522TIP3    H213531   6.342   4.800   3.246
 4523TIP3   OH213532   2.493   1.460   5.232
 4523TIP3    H113533   2.537   1.376   5.222
 4523TIP3    H213534   2.555   1.514   5.282
 4524TIP3   OH213535   4.578   5.758  -0.026
 4524TIP3    H113536   4.582   5.812   0.054
 4524TIP3    H213537   4.526   5.682  -0.001
 4525TIP3   OH213538   2.488   0.408   0.664
 4525TIP3    H113539   2.440   0.486   0.691
 4525TIP3    H213540   2.482   0.408   0.569
 4526TIP3   OH213541   7.137   6.784   2.858
 4526TIP3    H113542   7.175   6.697   2.861
 4526TIP3    H213543   7.211   6.843   2.874
 4527TIP3   OH213544   3.056   6.601   5.818
 4527TIP3    H113545   2.983   6.570   5.871
 4527TIP3    H213546   3.096   6.520   5.784
 4528TIP3   OH213547   3.726   2.273   3.279
 4528TIP3    H113548   3.664   2.293   3.208
 4528TIP3    H213549   3.700   2.186   3.309
 4529TIP3   OH213550   3.293   4.890   2.591
 4529TIP3    H113551   3.222   4.830   2.610
 4529TIP3    H213552   3.279   4.965   2.649
 4530TIP3   OH213553   4.586   5.779   3.309
 4530TIP3    H113554   4.675   5.774   3.275
 4530TIP3    H213555   4.542   5.702   3.272
 4531TIP3   OH213556   0.997   2.384   5.321
 4531TIP3    H113557   1.062   2.445   5.286
 4531TIP3    H213558   0.922   2.392   5.262
 4532TIP3   OH213559   5.813   1.460   0.142
 4532TIP3    H113560   5.811   1.512   0.062
 4532TIP3    H213561   5.905   1.454   0.165
 4533TIP3   OH213562   4.846   0.259   5.387
 4533TIP3    H113563   4.821   0.302   5.469
 4533TIP3    H213564   4.776   0.282   5.326
 4534TIP3   OH213565   1.425   1.499   1.792
 4534TIP3    H113566   1.475   1.537   1.865
 4534TIP3    H213567   1.435   1.404   1.804
 4535TIP3   OH213568   2.176   6.203   3.485
 4535TIP3    H113569   2.257   6.172   3.525
 4535TIP3    H213570   2.119   6.224   3.559
 4536TIP3   OH213571   0.619   2.438   1.871
 4536TIP3    H113572   0.628   2.377   1.797
 4536TIP3    H213573   0.632   2.525   1.832
 4537TIP3   OH213574   6.754   3.107   5.279
 4537TIP3    H113575   6.725   3.075   5.364
 4537TIP3    H213576   6.800   3.033   5.239
 4538TIP3   OH213577   2.986   0.574   5.444
 4538TIP3    H113578   3.060   0.538   5.395
 4538TIP3    H213579   2.999   0.669   5.441
 4539TIP3   OH213580   3.340   4.286   2.318
 4539TIP3    H113581   3.263   4.320   2.273
 4539TIP3    H213582   3.353   4.199   2.281
 4540TIP3   OH213583   0.386   3.441   0.128
 4540TIP3    H113584   0.293   3.452   0.149
 4540TIP3    H213585   0.432   3.472   0.207
 4541TIP3   OH213586   2.546   1.970   2.917
 4541TIP3    H113587   2.523   1.883   2.947
 4541TIP3    H213588   2.518   1.972   2.826
 4542TIP3   OH213589   3.647   5.496   4.567
 4542TIP3    H113590   3.647   5.416   4.619
 4542TIP3    H213591   3.609   5.562   4.626
 4543TIP3   OH213592   5.176   0.543   1.309
 4543TIP3    H113593   5.177   0.529   1.215
 4543TIP3    H213594   5.181   0.638   1.319
 4544TIP3   OH213595   5.891   1.107   0.706
 4544TIP3    H113596   5.934   1.127   0.789
 4544TIP3    H213597   5.910   1.014   0.691
 4545TIP3   OH213598   6.193   5.095   1.235
 4545TIP3    H113599   6.287   5.079   1.227
 4545TIP3    H213600   6.160   5.018   1.281
 4546TIP3   OH213601   2.672   1.659   5.368
 4546TIP3    H113602   2.586   1.701   5.371
 4546TIP3    H213603   2.729   1.719   5.416
 4547TIP3   OH213604   3.349   3.283   0.893
 4547TIP3    H113605   3.353   3.364   0.843
 4547TIP3    H213606   3.435   3.243   0.881
 4548TIP3   OH213607   6.328   0.339   2.549
 4548TIP3    H113608   6.253   0.392   2.525
 4548TIP3    H213609   6.395   0.360   2.483
 4549TIP3   OH213610   2.863   6.610   0.394
 4549TIP3    H113611   2.882   6.662   0.316
 4549TIP3    H213612   2.768   6.605   0.397
 4550TIP3   OH213613   5.605   3.604   0.867
 4550TIP3    H113614   5.592   3.691   0.906
 4550TIP3    H213615   5.699   3.589   0.875
 4551TIP3   OH213616   2.162   2.202   3.986
 4551TIP3    H113617   2.229   2.196   4.054
 4551TIP3    H213618   2.202   2.253   3.916
 4552TIP3   OH213619   6.528   4.352   1.778
 4552TIP3    H113620   6.579   4.433   1.780
 4552TIP3    H213621   6.559   4.302   1.854
 4553TIP3   OH213622   4.791   4.673   3.818
 4553TIP3    H113623   4.802   4.583   3.846
 4553TIP3    H213624   4.699   4.693   3.836
 4554TIP3   OH213625   6.371   5.957   3.755
 4554TIP3    H113626   6.396   6.049   3.752
 4554TIP3    H213627   6.316   5.949   3.833
 4555TIP3   OH213628   2.101   2.575   1.845
 4555TIP3    H113629   2.056   2.503   1.800
 4555TIP3    H213630   2.171   2.533   1.894
 4556TIP3   OH213631   0.105   3.683   0.494
 4556TIP3    H113632   0.048   3.655   0.565
 4556TIP3    H213633   0.182   3.718   0.538
 4557TIP3   OH213634   2.256   6.076   5.179
 4557TIP3    H113635   2.248   6.036   5.266
 4557TIP3    H213636   2.340   6.122   5.182
 4558TIP3   OH213637   6.969   5.601   1.201
 4558TIP3    H113638   7.063   5.601   1.187
 4558TIP3    H213639   6.948   5.691   1.226
 4559TIP3   OH213640   7.115   1.333   4.780
 4559TIP3    H113641   7.066   1.401   4.735
 4559TIP3    H213642   7.186   1.311   4.720
 4560TIP3   OH213643   0.868   1.735   0.295
 4560TIP3    H113644   0.783   1.729   0.250
 4560TIP3    H213645   0.930   1.756   0.225
 4561TIP3   OH213646   3.016   4.717   0.301
 4561TIP3    H113647   3.015   4.624   0.277
 4561TIP3    H213648   2.923   4.741   0.308
 4562TIP3   OH213649   4.494   6.225   2.447
 4562TIP3    H113650   4.436   6.255   2.377
 4562TIP3    H213651   4.565   6.180   2.402
 4563TIP3   OH213652   4.556   3.580   1.222
 4563TIP3    H113653   4.607   3.599   1.143
 4563TIP3    H213654   4.610   3.610   1.294
 4564TIP3   OH213655   6.361   5.167   3.244
 4564TIP3    H113656   6.326   5.256   3.239
 4564TIP3    H213657   6.285   5.110   3.249
 4565TIP3   OH213658   2.300   2.421   2.366
 4565TIP3    H113659   2.242   2.419   2.290
 4565TIP3    H213660   2.288   2.336   2.408
 4566TIP3   OH213661   3.638   2.252   1.810
 4566TIP3    H113662   3.546   2.229   1.803
 4566TIP3    H213663   3.669   2.255   1.720
 4567TIP3   OH213664   2.471   4.769   3.671
 4567TIP3    H113665   2.389   4.756   3.623
 4567TIP3    H213666   2.476   4.863   3.683
 4568TIP3   OH213667   1.784   4.714   3.854
 4568TIP3    H113668   1.842   4.643   3.880
 4568TIP3    H213669   1.756   4.754   3.936
 4569TIP3   OH213670   5.238   3.681   0.382
 4569TIP3    H113671   5.242   3.597   0.338
 4569TIP3    H213672   5.311   3.679   0.445
 4570TIP3   OH213673   4.529   4.033   2.826
 4570TIP3    H113674   4.547   3.940   2.840
 4570TIP3    H213675   4.436   4.035   2.802
 4571TIP3   OH213676   5.095   6.392   1.617
 4571TIP3    H113677   5.039   6.351   1.682
 4571TIP3    H213678   5.182   6.395   1.658
 4572TIP3   OH213679   4.954   0.901   4.989
 4572TIP3    H113680   4.952   0.857   5.074
 4572TIP3    H213681   4.893   0.975   4.998
 4573TIP3   OH213682   0.668   3.881   4.277
 4573TIP3    H113683   0.625   3.796   4.274
 4573TIP3    H213684   0.761   3.861   4.287
 4574TIP3   OH213685   3.081   4.835   4.954
 4574TIP3    H113686   3.016   4.876   4.898
 4574TIP3    H213687   3.051   4.744   4.964
 4575TIP3   OH213688   5.898   6.189   5.519
 4575TIP3    H113689   5.902   6.139   5.438
 4575TIP3    H213690   5.816   6.238   5.513
 4576TIP3   OH213691   1.006   1.437   0.997
 4576TIP3    H113692   1.014   1.368   1.064
 4576TIP3    H213693   0.926   1.483   1.020
 4577TIP3   OH213694   6.193   0.184   0.454
 4577TIP3    H113695   6.197   0.091   0.477
 4577TIP3    H213696   6.229   0.189   0.366
 4578TIP3   OH213697   4.796   4.590   0.773
 4578TIP3    H113698   4.732   4.591   0.702
 4578TIP3    H213699   4.782   4.507   0.818
 4579TIP3   OH213700   6.046   1.288   4.624
 4579TIP3    H113701   5.952   1.268   4.619
 4579TIP3    H213702   6.088   1.203   4.635
 4580TIP3   OH213703   5.840   2.943   2.912
 4580TIP3    H113704   5.819   2.908   2.998
 4580TIP3    H213705   5.931   2.971   2.919
 4581TIP3   OH213706   2.529   1.469   3.195
 4581TIP3    H113707   2.600   1.480   3.131
 4581TIP3    H213708   2.571   1.429   3.271
 4582TIP3   OH213709   2.056   1.907   0.631
 4582TIP3    H113710   1.991   1.889   0.563
 4582TIP3    H213711   2.099   1.988   0.602
 4583TIP3   OH213712   2.940   3.003   4.107
 4583TIP3    H113713   3.011   3.037   4.162
 4583TIP3    H213714   2.888   2.948   4.167
 4584TIP3   OH213715   1.978   4.816   5.577
 4584TIP3    H113716   1.989   4.881   5.646
 4584TIP3    H213717   2.063   4.772   5.572
 4585TIP3   OH213718   1.497   1.089   0.381
 4585TIP3    H113719   1.564   1.157   0.387
 4585TIP3    H213720   1.418   1.130   0.414
 4586TIP3   OH213721   1.613   0.645   5.502
 4586TIP3    H113722   1.570   0.726   5.476
 4586TIP3    H213723   1.670   0.670   5.575
 4587TIP3   OH213724   5.589   0.056   4.911
 4587TIP3    H113725   5.601   0.017   4.998
 4587TIP3    H213726   5.513   0.010   4.875
 4588TIP3   OH213727   1.236   4.764   0.216
 4588TIP3    H113728   1.244   4.680   0.171
 4588TIP3    H213729   1.323   4.780   0.253
 4589TIP3   OH213730   1.309   3.974   3.145
 4589TIP3    H113731   1.265   3.889   3.157
 4589TIP3    H213732   1.398   3.951   3.118
 4590TIP3   OH213733   5.865   6.447   1.088
 4590TIP3    H113734   5.860   6.443   1.184
 4590TIP3    H213735   5.936   6.509   1.071
 4591TIP3   OH213736   4.948   0.494   0.608
 4591TIP3    H113737   4.973   0.578   0.646
 4591TIP3    H213738   4.876   0.515   0.548
 4592TIP3   OH213739   5.668   0.443   0.377
 4592TIP3    H113740   5.659   0.458   0.472
 4592TIP3    H213741   5.743   0.384   0.369
 4593TIP3   OH213742   3.856   0.729   0.172
 4593TIP3    H113743   3.867   0.778   0.090
 4593TIP3    H213744   3.877   0.793   0.241
 4594TIP3   OH213745   6.089   1.362   3.134
 4594TIP3    H113746   6.123   1.421   3.201
 4594TIP3    H213747   6.111   1.274   3.165
 4595TIP3   OH213748   1.979   0.023   5.116
 4595TIP3    H113749   1.901  -0.007   5.069
 4595TIP3    H213750   1.951   0.102   5.161
 4596TIP3   OH213751   3.833   6.776   5.058
 4596TIP3    H113752   3.815   6.691   5.097
 4596TIP3    H213753   3.753   6.797   5.008
 4597TIP3   OH213754   3.552   4.904   5.218
 4597TIP3    H113755   3.506   4.820   5.207
 4597TIP3    H213756   3.511   4.944   5.294
 4598TIP3   OH213757   0.116   6.714   4.406
 4598TIP3    H113758   0.033   6.699   4.362
 4598TIP3    H213759   0.138   6.804   4.386
 4599TIP3   OH213760   2.389   6.323   4.922
 4599TIP3    H113761   2.381   6.240   4.876
 4599TIP3    H213762   2.311   6.373   4.896
 4600TIP3   OH213763   2.743   5.591   4.168
 4600TIP3    H113764   2.734   5.598   4.073
 4600TIP3    H213765   2.780   5.674   4.195
 4601TIP3   OH213766   6.334   5.570   5.816
 4601TIP3    H113767   6.303   5.539   5.901
 4601TIP3    H213768   6.258   5.564   5.758
 4602TIP3   OH213769   6.079   6.251   4.093
 4602TIP3    H113770   5.994   6.212   4.115
 4602TIP3    H213771   6.105   6.208   4.012
 4603TIP3   OH213772   4.386   2.230   4.835
 4603TIP3    H113773   4.427   2.307   4.796
 4603TIP3    H213774   4.454   2.190   4.888
 4604TIP3   OH213775   0.796   6.077   3.292
 4604TIP3    H113776   0.789   5.987   3.324
 4604TIP3    H213777   0.734   6.127   3.346
 4605TIP3   OH213778   5.195   6.491   5.531
 4605TIP3    H113779   5.233   6.525   5.450
 4605TIP3    H213780   5.227   6.402   5.537
 4606TIP3   OH213781   0.461   4.994   3.405
 4606TIP3    H113782   0.438   5.075   3.450
 4606TIP3    H213783   0.484   4.933   3.475
 4607TIP3   OH213784   4.118   2.270   4.794
 4607TIP3    H113785   4.067   2.214   4.852
 4607TIP3    H213786   4.209   2.255   4.821
 4608TIP3   OH213787   3.584   0.564   0.971
 4608TIP3    H113788   3.614   0.512   1.045
 4608TIP3    H213789   3.572   0.652   1.006
 4609TIP3   OH213790   5.802   1.141   1.877
 4609TIP3    H113791   5.854   1.182   1.808
 4609TIP3    H213792   5.738   1.208   1.902
 4610TIP3   OH213793   3.926   2.896   5.793
 4610TIP3    H113794   3.879   2.852   5.723
 4610TIP3    H213795   3.956   2.826   5.850
 4611TIP3   OH213796   2.142   0.783   3.211
 4611TIP3    H113797   2.229   0.745   3.228
 4611TIP3    H213798   2.109   0.808   3.297
 4612TIP3   OH213799   6.657   0.328   4.419
 4612TIP3    H113800   6.600   0.357   4.348
 4612TIP3    H213801   6.718   0.267   4.377
 4613TIP3   OH213802   5.019   2.296   1.650
 4613TIP3    H113803   4.966   2.261   1.721
 4613TIP3    H213804   5.045   2.383   1.679
 4614TIP3   OH213805   1.535   2.145   0.213
 4614TIP3    H113806   1.479   2.110   0.144
 4614TIP3    H213807   1.545   2.073   0.275
 4615TIP3   OH213808   1.113   6.237   2.443
 4615TIP3    H113809   1.049   6.261   2.376
 4615TIP3    H213810   1.072   6.165   2.491
 4616TIP3   OH213811   4.810   0.415   4.122
 4616TIP3    H113812   4.847   0.388   4.206
 4616TIP3    H213813   4.736   0.357   4.108
 4617TIP3   OH213814   1.743   4.952   4.358
 4617TIP3    H113815   1.800   4.901   4.415
 4617TIP3    H213816   1.661   4.904   4.356
 4618TIP3   OH213817   0.220   1.629   2.320
 4618TIP3    H113818   0.246   1.540   2.344
 4618TIP3    H213819   0.146   1.618   2.261
 4619TIP3   OH213820   2.077   1.328   3.715
 4619TIP3    H113821   2.031   1.291   3.790
 4619TIP3    H213822   2.042   1.417   3.707
 4620TIP3   OH213823   4.530   5.702   0.739
 4620TIP3    H113824   4.532   5.750   0.656
 4620TIP3    H213825   4.553   5.612   0.716
 4621TIP3   OH213826   4.778   0.614   4.557
 4621TIP3    H113827   4.813   0.574   4.636
 4621TIP3    H213828   4.809   0.559   4.486
 4622TIP3   OH213829   2.098   3.014   4.588
 4622TIP3    H113830   2.137   3.099   4.568
 4622TIP3    H213831   2.097   2.967   4.505
 4623TIP3   OH213832   0.360   2.216   2.890
 4623TIP3    H113833   0.378   2.131   2.931
 4623TIP3    H213834   0.294   2.197   2.823
 4624TIP3   OH213835   1.169   3.331   0.913
 4624TIP3    H113836   1.080   3.320   0.945
 4624TIP3    H213837   1.224   3.286   0.977
 4625TIP3   OH213838   0.110   5.202   3.110
 4625TIP3    H113839   0.194   5.158   3.128
 4625TIP3    H213840   0.111   5.279   3.166
 4626TIP3   OH213841   1.910   3.813   1.105
 4626TIP3    H113842   1.848   3.885   1.111
 4626TIP3    H213843   1.993   3.854   1.080
 4627TIP3   OH213844   2.287   0.253   3.475
 4627TIP3    H113845   2.318   0.164   3.495
 4627TIP3    H213846   2.232   0.241   3.398
 4628TIP3   OH213847   0.645   4.683   5.871
 4628TIP3    H113848   0.664   4.732   5.951
 4628TIP3    H213849   0.659   4.746   5.800
 4629TIP3   OH213850   2.868   1.678   2.984
 4629TIP3    H113851   2.847   1.724   2.903
 4629TIP3    H213852   2.842   1.738   3.054
 4630TIP3   OH213853   6.906   0.013   5.373
 4630TIP3    H113854   6.944   0.096   5.403
 4630TIP3    H213855   6.876  -0.029   5.454
 4631TIP3   OH213856   1.647   2.802   0.321
 4631TIP3    H113857   1.589   2.872   0.292
 4631TIP3    H213858   1.587   2.732   0.348
 4632TIP3   OH213859   1.940   3.686   5.308
 4632TIP3    H113860   1.998   3.628   5.358
 4632TIP3    H213861   1.853   3.666   5.340
 4633TIP3   OH213862   0.446   2.984   2.039
 4633TIP3    H113863   0.400   2.908   2.003
 4633TIP3    H213864   0.404   3.000   2.124
 4634TIP3   OH213865   6.315   0.655   0.804
 4634TIP3    H113866   6.330   0.748   0.818
 4634TIP3    H213867   6.233   0.650   0.756
 4635TIP3   OH213868   2.864   0.424   4.825
 4635TIP3    H113869   2.781   0.470   4.830
 4635TIP3    H213870   2.925   0.489   4.789
 4636TIP3   OH213871   4.209   4.210   0.493
 4636TIP3    H113872   4.167   4.295   0.505
 4636TIP3    H213873   4.194   4.164   0.576
 4637TIP3   OH213874   4.992   0.648   5.261
 4637TIP3    H113875   5.038   0.612   5.337
 4637TIP3    H213876   4.946   0.725   5.295
 4638TIP3   OH213877   4.747   6.770   4.855
 4638TIP3    H113878   4.674   6.709   4.855
 4638TIP3    H213879   4.771   6.778   4.947
 4639TIP3   OH213880   3.314   3.227   2.799
 4639TIP3    H113881   3.240   3.207   2.743
 4639TIP3    H213882   3.277   3.234   2.887
 4640TIP3   OH213883   4.148   1.506   2.620
 4640TIP3    H113884   4.146   1.419   2.659
 4640TIP3    H213885   4.202   1.495   2.541
 4641TIP3   OH213886   5.236   5.758   3.010
 4641TIP3    H113887   5.156   5.775   3.059
 4641TIP3    H213888   5.305   5.761   3.076
 4642TIP3   OH213889   6.348   5.678   2.466
 4642TIP3    H113890   6.408   5.745   2.433
 4642TIP3    H213891   6.404   5.606   2.493
 4643TIP3   OH213892   6.760   5.681   3.491
 4643TIP3    H113893   6.795   5.768   3.504
 4643TIP3    H213894   6.836   5.623   3.498
 4644TIP3   OH213895   5.299   5.770   0.344
 4644TIP3    H113896   5.317   5.682   0.378
 4644TIP3    H213897   5.236   5.756   0.273
 4645TIP3   OH213898   4.883   2.670   5.018
 4645TIP3    H113899   4.940   2.592   5.015
 4645TIP3    H213900   4.936   2.740   4.981
 4646TIP3   OH213901   2.274   6.727   2.324
 4646TIP3    H113902   2.292   6.646   2.371
 4646TIP3    H213903   2.181   6.723   2.304
 4647TIP3   OH213904   2.748   5.611   1.423
 4647TIP3    H113905   2.686   5.557   1.372
 4647TIP3    H213906   2.733   5.700   1.391
 4648TIP3   OH213907   7.187   4.591   5.201
 4648TIP3    H113908   7.218   4.680   5.216
 4648TIP3    H213909   7.127   4.599   5.126
 4649TIP3   OH213910   6.096   0.565   2.982
 4649TIP3    H113911   6.020   0.529   2.936
 4649TIP3    H213912   6.061   0.638   3.033
 4650TIP3   OH213913   4.806   5.819   0.847
 4650TIP3    H113914   4.869   5.888   0.828
 4650TIP3    H213915   4.754   5.811   0.768
 4651TIP3   OH213916   0.229   1.623   5.849
 4651TIP3    H113917   0.171   1.697   5.836
 4651TIP3    H213918   0.174   1.546   5.836
 4652TIP3   OH213919   4.423   6.450   3.264
 4652TIP3    H113920   4.394   6.402   3.342
 4652TIP3    H213921   4.372   6.412   3.193
 4653TIP3   OH213922   6.005   6.148   3.595
 4653TIP3    H113923   5.976   6.233   3.560
 4653TIP3    H213924   5.957   6.083   3.544
 4654TIP3   OH213925   7.108   2.065   0.200
 4654TIP3    H113926   7.043   2.124   0.238
 4654TIP3    H213927   7.093   1.981   0.243
 4655TIP3   OH213928   3.504   5.847   2.564
 4655TIP3    H113929   3.461   5.824   2.646
 4655TIP3    H213930   3.438   5.830   2.496
 4656TIP3   OH213931   6.984   2.706   5.422
 4656TIP3    H113932   6.898   2.729   5.455
 4656TIP3    H213933   7.036   2.688   5.500
 4657TIP3   OH213934   0.269   2.206   3.624
 4657TIP3    H113935   0.276   2.289   3.672
 4657TIP3    H213936   0.348   2.157   3.649
 4658TIP3   OH213937   3.829   6.716   0.507
 4658TIP3    H113938   3.751   6.661   0.514
 4658TIP3    H213939   3.879   6.678   0.435
 4659TIP3   OH213940   3.506   6.144   2.455
 4659TIP3    H113941   3.538   6.069   2.404
 4659TIP3    H213942   3.510   6.218   2.395
 4660TIP3   OH213943   0.396   3.165   0.055
 4660TIP3    H113944   0.390   3.116   0.136
 4660TIP3    H213945   0.382   3.256   0.081
 4661TIP3   OH213946   4.602   1.181   3.966
 4661TIP3    H113947   4.648   1.132   3.898
 4661TIP3    H213948   4.529   1.223   3.920
 4662TIP3   OH213949   4.728   4.935   2.416
 4662TIP3    H113950   4.747   5.026   2.439
 4662TIP3    H213951   4.665   4.906   2.482
 4663TIP3   OH213952   2.148   5.943   1.510
 4663TIP3    H113953   2.240   5.963   1.524
 4663TIP3    H213954   2.131   5.866   1.565
 4664TIP3   OH213955   5.539   4.291   1.870
 4664TIP3    H113956   5.578   4.308   1.784
 4664TIP3    H213957   5.445   4.290   1.854
 4665TIP3   OH213958   4.262   3.399   4.020
 4665TIP3    H113959   4.240   3.388   3.928
 4665TIP3    H213960   4.204   3.337   4.066
 4666TIP3   OH213961   6.119   3.546   5.800
 4666TIP3    H113962   6.129   3.492   5.878
 4666TIP3    H213963   6.174   3.623   5.817
 4667TIP3   OH213964   0.440   2.145   1.525
 4667TIP3    H113965   0.445   2.157   1.430
 4667TIP3    H213966   0.382   2.070   1.536
 4668TIP3   OH213967   4.596   5.491   3.477
 4668TIP3    H113968   4.666   5.467   3.417
 4668TIP3    H213969   4.534   5.418   3.473
 4669TIP3   OH213970   2.683   2.483   4.182
 4669TIP3    H113971   2.648   2.490   4.271
 4669TIP3    H213972   2.656   2.396   4.152
 4670TIP3   OH213973   1.809   6.316   5.541
 4670TIP3    H113974   1.834   6.250   5.605
 4670TIP3    H213975   1.866   6.390   5.560
 4671TIP3   OH213976   1.237   3.954   1.828
 4671TIP3    H113977   1.292   3.883   1.861
 4671TIP3    H213978   1.150   3.935   1.864
 4672TIP3   OH213979   6.791   3.629   4.217
 4672TIP3    H113980   6.775   3.688   4.291
 4672TIP3    H213981   6.830   3.686   4.150
 4673TIP3   OH213982   4.327   5.473   4.265
 4673TIP3    H113983   4.398   5.415   4.238
 4673TIP3    H213984   4.360   5.515   4.345
 4674TIP3   OH213985   2.073   1.585   4.623
 4674TIP3    H113986   2.100   1.645   4.553
 4674TIP3    H213987   1.978   1.588   4.622
 4675TIP3   OH213988   0.643   2.897   0.830
 4675TIP3    H113989   0.656   2.915   0.737
 4675TIP3    H213990   0.630   2.984   0.869
 4676TIP3   OH213991   2.702   0.993   1.047
 4676TIP3    H113992   2.631   0.941   1.009
 4676TIP3    H213993   2.701   0.971   1.140
 4677TIP3   OH213994   6.244   5.845   0.202
 4677TIP3    H113995   6.250   5.876   0.111
 4677TIP3    H213996   6.287   5.913   0.253
 4678TIP3   OH213997   1.897   6.311   5.110
 4678TIP3    H113998   1.922   6.257   5.185
 4678TIP3    H213999   1.949   6.390   5.118
 4679TIP3   OH214000   1.082   6.500   0.521
 4679TIP3    H114001   1.033   6.481   0.601
 4679TIP3    H214002   1.159   6.443   0.526
 4680TIP3   OH214003   2.853   3.793   0.322
 4680TIP3    H114004   2.907   3.735   0.269
 4680TIP3    H214005   2.915   3.855   0.361
 4681TIP3   OH214006   5.448   0.641   5.399
 4681TIP3    H114007   5.439   0.695   5.321
 4681TIP3    H214008   5.465   0.553   5.366
 4682TIP3   OH214009   2.236   1.500   3.318
 4682TIP3    H114010   2.261   1.413   3.288
 4682TIP3    H214011   2.276   1.507   3.405
 4683TIP3   OH214012   6.258   5.938   1.223
 4683TIP3    H114013   6.262   6.033   1.209
 4683TIP3    H214014   6.233   5.903   1.137
 4684TIP3   OH214015   5.436   2.790   2.541
 4684TIP3    H114016   5.388   2.749   2.470
 4684TIP3    H214017   5.528   2.777   2.519
 4685TIP3   OH214018   1.704   2.017   0.824
 4685TIP3    H114019   1.620   1.973   0.839
 4685TIP3    H214020   1.683   2.087   0.762
 4686TIP3   OH214021   5.218   4.162   3.306
 4686TIP3    H114022   5.238   4.240   3.254
 4686TIP3    H214023   5.300   4.113   3.310
 4687TIP3   OH214024   6.143  -0.004   3.991
 4687TIP3    H114025   6.135   0.044   4.074
 4687TIP3    H214026   6.229   0.021   3.958
 4688TIP3   OH214027   6.143   0.788   2.348
 4688TIP3    H114028   6.058   0.790   2.303
 4688TIP3    H214029   6.123   0.756   2.436
 4689TIP3   OH214030   1.171   1.320   2.974
 4689TIP3    H114031   1.182   1.245   2.915
 4689TIP3    H214032   1.167   1.396   2.915
 4690TIP3   OH214033   5.961   1.667   1.601
 4690TIP3    H114034   6.040   1.614   1.603
 4690TIP3    H214035   5.905   1.624   1.536
 4691TIP3   OH214036   4.744   6.122   4.852
 4691TIP3    H114037   4.710   6.172   4.926
 4691TIP3    H214038   4.835   6.104   4.874
 4692TIP3   OH214039   3.221   0.828   1.446
 4692TIP3    H114040   3.138   0.782   1.462
 4692TIP3    H214041   3.238   0.816   1.353
 4693TIP3   OH214042   3.393   2.075   5.238
 4693TIP3    H114043   3.440   2.139   5.185
 4693TIP3    H214044   3.356   2.125   5.311
 4694TIP3   OH214045   4.460   2.397   3.518
 4694TIP3    H114046   4.435   2.403   3.610
 4694TIP3    H214047   4.554   2.380   3.519
 4695TIP3   OH214048   3.436   3.083   2.535
 4695TIP3    H114049   3.493   3.159   2.527
 4695TIP3    H214050   3.347   3.117   2.526
 4696TIP3   OH214051   1.594   5.891   1.230
 4696TIP3    H114052   1.569   5.919   1.319
 4696TIP3    H214053   1.588   5.795   1.234
 4697TIP3   OH214054   4.050   4.169   4.497
 4697TIP3    H114055   4.136   4.141   4.529
 4697TIP3    H214056   4.070   4.224   4.421
 4698TIP3   OH214057   0.379   2.727   5.154
 4698TIP3    H114058   0.284   2.725   5.147
 4698TIP3    H214059   0.399   2.660   5.220
 4699TIP3   OH214060   6.576   1.548   5.295
 4699TIP3    H114061   6.646   1.611   5.276
 4699TIP3    H214062   6.621   1.474   5.337
 4700TIP3   OH214063   1.503   6.527   2.695
 4700TIP3    H114064   1.445   6.466   2.649
 4700TIP3    H214065   1.531   6.478   2.773
 4701TIP3   OH214066   6.981   3.673   5.781
 4701TIP3    H114067   6.930   3.607   5.734
 4701TIP3    H214068   7.049   3.622   5.826
 4702TIP3   OH214069   7.136   5.000   4.812
 4702TIP3    H114070   7.103   5.089   4.797
 4702TIP3    H214071   7.058   4.944   4.802
 4703TIP3   OH214072   3.844   3.334   5.184
 4703TIP3    H114073   3.793   3.380   5.250
 4703TIP3    H214074   3.801   3.356   5.101
 4704TIP3   OH214075   3.033   6.447   1.266
 4704TIP3    H114076   3.030   6.353   1.251
 4704TIP3    H214077   3.094   6.480   1.200
 4705TIP3   OH214078   3.071   0.566   2.257
 4705TIP3    H114079   2.985   0.533   2.228
 4705TIP3    H214080   3.116   0.489   2.291
 4706TIP3   OH214081   4.265   0.080   5.264
 4706TIP3    H114082   4.286   0.140   5.193
 4706TIP3    H214083   4.184   0.037   5.236
 4707TIP3   OH214084   2.911   2.877   5.280
 4707TIP3    H114085   2.862   2.799   5.306
 4707TIP3    H214086   2.858   2.917   5.212
 4708TIP3   OH214087   6.216   2.853   2.943
 4708TIP3    H114088   6.271   2.776   2.954
 4708TIP3    H214089   6.126   2.819   2.944
 4709TIP3   OH214090   2.598   4.544   2.656
 4709TIP3    H114091   2.592   4.636   2.685
 4709TIP3    H214092   2.621   4.496   2.735
 4710TIP3   OH214093   6.272   6.418   4.987
 4710TIP3    H114094   6.193   6.463   4.955
 4710TIP3    H214095   6.340   6.441   4.923
 4711TIP3   OH214096   1.408   3.904   4.996
 4711TIP3    H114097   1.365   3.874   4.916
 4711TIP3    H214098   1.440   3.992   4.974
 4712TIP3   OH214099   4.065   0.036   3.793
 4712TIP3    H114100   4.148   0.084   3.791
 4712TIP3    H214101   4.044   0.021   3.701
 4713TIP3   OH214102   7.176   5.505   3.095
 4713TIP3    H114103   7.247   5.552   3.052
 4713TIP3    H214104   7.216   5.468   3.174
 4714TIP3   OH214105   5.398   3.590   1.447
 4714TIP3    H114106   5.487   3.564   1.469
 4714TIP3    H214107   5.408   3.647   1.370
 4715TIP3   OH214108   4.597   3.740   3.142
 4715TIP3    H114109   4.571   3.767   3.054
 4715TIP3    H214110   4.577   3.816   3.197
 4716TIP3   OH214111   6.306   6.397   2.059
 4716TIP3    H114112   6.364   6.447   2.116
 4716TIP3    H214113   6.362   6.370   1.986
 4717TIP3   OH214114   3.876   5.657   5.376
 4717TIP3    H114115   3.856   5.594   5.307
 4717TIP3    H214116   3.971   5.668   5.371
 4718TIP3   OH214117   3.725   5.954   4.722
 4718TIP3    H114118   3.801   5.948   4.665
 4718TIP3    H214119   3.749   6.017   4.789
 4719TIP3   OH214120   0.981   5.428   3.661
 4719TIP3    H114121   0.907   5.386   3.705
 4719TIP3    H214122   0.972   5.403   3.569
 4720TIP3   OH214123   2.203   1.349   1.875
 4720TIP3    H114124   2.189   1.340   1.781
 4720TIP3    H214125   2.290   1.387   1.884
 4721TIP3   OH214126   1.302   6.226   3.585
 4721TIP3    H114127   1.306   6.229   3.490
 4721TIP3    H214128   1.255   6.144   3.604
 4722TIP3   OH214129   5.256   3.194   1.677
 4722TIP3    H114130   5.324   3.154   1.623
 4722TIP3    H214131   5.190   3.125   1.687
 4723TIP3   OH214132   1.785   1.532   4.430
 4723TIP3    H114133   1.767   1.608   4.376
 4723TIP3    H214134   1.725   1.539   4.504
 4724TIP3   OH214135   5.716   3.354   3.096
 4724TIP3    H114136   5.792   3.393   3.055
 4724TIP3    H214137   5.746   3.268   3.127
 4725TIP3   OH214138   3.020   4.759   0.018
 4725TIP3    H114139   3.030   4.705   0.097
 4725TIP3    H214140   2.948   4.819   0.040
 4726TIP3   OH214141   0.218   6.009   1.112
 4726TIP3    H114142   0.258   5.933   1.070
 4726TIP3    H214143   0.192   6.065   1.039
 4727TIP3   OH214144   2.860   0.414   2.524
 4727TIP3    H114145   2.951   0.409   2.552
 4727TIP3    H214146   2.821   0.479   2.582
 4728TIP3   OH214147   5.344   2.101   3.206
 4728TIP3    H114148   5.397   2.025   3.182
 4728TIP3    H214149   5.383   2.173   3.157
 4729TIP3   OH214150   5.931   6.631   0.811
 4729TIP3    H114151   5.996   6.633   0.881
 4729TIP3    H214152   5.980   6.648   0.731
 4730TIP3   OH214153   0.637   4.391   0.504
 4730TIP3    H114154   0.720   4.404   0.459
 4730TIP3    H214155   0.641   4.451   0.579
 4731TIP3   OH214156   5.302   5.289   2.501
 4731TIP3    H114157   5.365   5.218   2.491
 4731TIP3    H214158   5.218   5.245   2.514
 4732TIP3   OH214159   6.597   6.460   1.889
 4732TIP3    H114160   6.543   6.499   1.821
 4732TIP3    H214161   6.596   6.523   1.961
 4733TIP3   OH214162   7.005   5.893   5.503
 4733TIP3    H114163   7.010   5.940   5.420
 4733TIP3    H214164   7.050   5.949   5.566
 4734TIP3   OH214165   6.357   0.117   2.197
 4734TIP3    H114166   6.357   0.048   2.130
 4734TIP3    H214167   6.447   0.118   2.230
 4735TIP3   OH214168   1.155   1.150   5.143
 4735TIP3    H114169   1.120   1.201   5.069
 4735TIP3    H214170   1.159   1.060   5.111
 4736TIP3   OH214171   5.079   6.776   3.777
 4736TIP3    H114172   5.110   6.776   3.686
 4736TIP3    H214173   5.144   6.723   3.823
 4737TIP3   OH214174   4.794   5.094   3.053
 4737TIP3    H114175   4.759   5.084   2.965
 4737TIP3    H214176   4.834   5.181   3.053
 4738TIP3   OH214177   3.025   0.620   4.134
 4738TIP3    H114178   3.045   0.639   4.042
 4738TIP3    H214179   3.069   0.537   4.151
 4739TIP3   OH214180   6.407   5.507   2.865
 4739TIP3    H114181   6.473   5.570   2.893
 4739TIP3    H214182   6.426   5.492   2.773
 4740TIP3   OH214183   5.357   3.047   2.713
 4740TIP3    H114184   5.397   3.039   2.800
 4740TIP3    H214185   5.431   3.042   2.652
 4741TIP3   OH214186   0.287   3.502   4.450
 4741TIP3    H114187   0.302   3.579   4.506
 4741TIP3    H214188   0.289   3.428   4.510
 4742TIP3   OH214189   6.966   0.493   0.326
 4742TIP3    H114190   6.904   0.437   0.372
 4742TIP3    H214191   6.914   0.568   0.298
 4743TIP3   OH214192   1.061   0.923   3.007
 4743TIP3    H114193   1.038   0.855   2.944
 4743TIP3    H214194   1.104   0.991   2.954
 4744TIP3   OH214195   3.886   4.320   0.548
 4744TIP3    H114196   3.814   4.281   0.499
 4744TIP3    H214197   3.902   4.404   0.505
 4745TIP3   OH214198   4.981   0.461   3.915
 4745TIP3    H114199   4.992   0.369   3.893
 4745TIP3    H214200   4.926   0.460   3.994
 4746TIP3   OH214201   5.007   5.204   3.504
 4746TIP3    H114202   5.068   5.251   3.561
 4746TIP3    H214203   5.034   5.228   3.415
 4747TIP3   OH214204   0.758   1.678   2.517
 4747TIP3    H114205   0.727   1.658   2.605
 4747TIP3    H214206   0.839   1.726   2.529
 4748TIP3   OH214207   4.876   5.161   1.338
 4748TIP3    H114208   4.848   5.117   1.257
 4748TIP3    H214209   4.903   5.089   1.396
 4749TIP3   OH214210   4.889   6.780   2.454
 4749TIP3    H114211   4.915   6.689   2.439
 4749TIP3    H214212   4.960   6.831   2.415
 4750TIP3   OH214213   6.807   2.492   4.480
 4750TIP3    H114214   6.715   2.504   4.502
 4750TIP3    H214215   6.832   2.574   4.438
 4751TIP3   OH214216   2.181   1.071   0.242
 4751TIP3    H114217   2.094   1.047   0.272
 4751TIP3    H214218   2.166   1.144   0.181
 4752TIP3   OH214219   0.389   0.179   0.396
 4752TIP3    H114220   0.472   0.224   0.411
 4752TIP3    H214221   0.341   0.235   0.336
 4753TIP3   OH214222   4.839   1.656   4.675
 4753TIP3    H114223   4.772   1.644   4.608
 4753TIP3    H214224   4.792   1.693   4.750
 4754TIP3   OH214225   3.867   5.613   1.184
 4754TIP3    H114226   3.881   5.519   1.182
 4754TIP3    H214227   3.775   5.625   1.161
 4755TIP3   OH214228   3.122   2.081   0.866
 4755TIP3    H114229   3.116   2.122   0.780
 4755TIP3    H214230   3.034   2.049   0.884
 4756TIP3   OH214231   2.482   1.368   1.745
 4756TIP3    H114232   2.491   1.288   1.694
 4756TIP3    H214233   2.484   1.339   1.837
 4757TIP3   OH214234   2.876   1.854   2.746
 4757TIP3    H114235   2.903   1.938   2.709
 4757TIP3    H214236   2.784   1.846   2.722
 4758TIP3   OH214237   3.198   4.304   5.543
 4758TIP3    H114238   3.188   4.281   5.450
 4758TIP3    H214239   3.119   4.270   5.584
 4759TIP3   OH214240   2.766   3.561   0.141
 4759TIP3    H114241   2.803   3.508   0.212
 4759TIP3    H214242   2.672   3.561   0.158
 4760TIP3   OH214243   5.386   4.699   0.984
 4760TIP3    H114244   5.377   4.682   0.890
 4760TIP3    H214245   5.315   4.648   1.024
 4761TIP3   OH214246   1.011   2.589   3.686
 4761TIP3    H114247   0.973   2.587   3.773
 4761TIP3    H214248   1.092   2.539   3.693
 4762TIP3   OH214249   5.175   1.105   3.629
 4762TIP3    H114250   5.159   1.169   3.560
 4762TIP3    H214251   5.110   1.037   3.614
 4763TIP3   OH214252   3.347   4.488   0.461
 4763TIP3    H114253   3.312   4.577   0.460
 4763TIP3    H214254   3.270   4.432   0.458
 4764TIP3   OH214255   6.742   5.157   3.606
 4764TIP3    H114256   6.691   5.077   3.601
 4764TIP3    H214257   6.721   5.204   3.526
 4765TIP3   OH214258   0.688   0.013   3.061
 4765TIP3    H114259   0.597   0.013   3.089
 4765TIP3    H214260   0.704   0.101   3.027
 4766TIP3   OH214261   4.768   6.245   1.157
 4766TIP3    H114262   4.863   6.249   1.161
 4766TIP3    H214263   4.748   6.178   1.092
 4767TIP3   OH214264   2.152   3.146   1.377
 4767TIP3    H114265   2.157   3.176   1.468
 4767TIP3    H214266   2.096   3.210   1.333
 4768TIP3   OH214267   4.634   2.467   2.079
 4768TIP3    H114268   4.644   2.405   2.006
 4768TIP3    H214269   4.650   2.414   2.157
 4769TIP3   OH214270   4.797   3.203   1.610
 4769TIP3    H114271   4.716   3.205   1.558
 4769TIP3    H214272   4.863   3.168   1.550
 4770TIP3   OH214273   0.061   5.101   1.569
 4770TIP3    H114274   0.012   5.183   1.579
 4770TIP3    H214275   0.029   5.065   1.486
 4771TIP3   OH214276   3.807   1.977   4.758
 4771TIP3    H114277   3.714   1.991   4.743
 4771TIP3    H214278   3.817   1.882   4.760
 4772TIP3   OH214279   2.933   6.754   3.067
 4772TIP3    H114280   2.901   6.803   2.992
 4772TIP3    H214281   2.921   6.662   3.043
 4773TIP3   OH214282   3.285   1.443   2.704
 4773TIP3    H114283   3.364   1.497   2.713
 4773TIP3    H214284   3.312   1.370   2.648
 4774TIP3   OH214285   7.116   0.066   2.824
 4774TIP3    H114286   7.193   0.022   2.787
 4774TIP3    H214287   7.042   0.031   2.775
 4775TIP3   OH214288   1.664   5.002   5.576
 4775TIP3    H114289   1.609   5.057   5.519
 4775TIP3    H214290   1.615   4.996   5.658
 4776TIP3   OH214291   4.595   2.372   0.988
 4776TIP3    H114292   4.603   2.377   0.893
 4776TIP3    H214293   4.539   2.446   1.011
 4777TIP3   OH214294   5.030   3.073   5.491
 4777TIP3    H114295   5.005   3.158   5.456
 4777TIP3    H214296   5.122   3.083   5.516
 4778TIP3   OH214297   5.091   2.566   1.723
 4778TIP3    H114298   5.136   2.626   1.783
 4778TIP3    H214299   5.058   2.622   1.653
 4779TIP3   OH214300   5.776   2.767   0.377
 4779TIP3    H114301   5.807   2.733   0.461
 4779TIP3    H214302   5.769   2.862   0.391
 4780TIP3   OH214303   4.676   5.874   4.756
 4780TIP3    H114304   4.717   5.956   4.783
 4780TIP3    H214305   4.706   5.860   4.666
 4781TIP3   OH214306   1.559   4.145   5.058
 4781TIP3    H114307   1.593   4.157   4.969
 4781TIP3    H214308   1.510   4.226   5.076
 4782TIP3   OH214309   6.616   5.745   2.727
 4782TIP3    H114310   6.526   5.778   2.730
 4782TIP3    H214311   6.649   5.772   2.642
 4783TIP3   OH214312   5.968   0.284   2.782
 4783TIP3    H114313   5.896   0.222   2.773
 4783TIP3    H214314   5.934   0.354   2.837
 4784TIP3   OH214315   4.431   2.654   4.728
 4784TIP3    H114316   4.499   2.713   4.762
 4784TIP3    H214317   4.479   2.578   4.696
 4785TIP3   OH214318   3.656   4.002   0.772
 4785TIP3    H114319   3.651   4.060   0.848
 4785TIP3    H214320   3.592   4.039   0.711
 4786TIP3   OH214321   0.811   4.496   4.388
 4786TIP3    H114322   0.869   4.568   4.414
 4786TIP3    H214323   0.725   4.537   4.377
 4787TIP3   OH214324   6.824   4.746   2.040
 4787TIP3    H114325   6.881   4.818   2.067
 4787TIP3    H214326   6.762   4.785   1.979
 4788TIP3   OH214327   5.099   2.700   4.357
 4788TIP3    H114328   5.103   2.774   4.418
 4788TIP3    H214329   5.185   2.660   4.362
 4789TIP3   OH214330   6.827   0.199   5.861
 4789TIP3    H114331   6.774   0.279   5.860
 4789TIP3    H214332   6.857   0.189   5.771
 4790TIP3   OH214333   0.133   0.821   0.412
 4790TIP3    H114334   0.156   0.835   0.504
 4790TIP3    H214335   0.051   0.772   0.415
 4791TIP3   OH214336   0.744   0.028   3.536
 4791TIP3    H114337   0.735  -0.019   3.453
 4791TIP3    H214338   0.727   0.120   3.514
 4792TIP3   OH214339   3.209   0.861   2.567
 4792TIP3    H114340   3.287   0.914   2.585
 4792TIP3    H214341   3.227   0.819   2.483
 4793TIP3   OH214342   1.061   4.832   1.693
 4793TIP3    H114343   1.118   4.893   1.647
 4793TIP3    H214344   0.973   4.852   1.661
 4794TIP3   OH214345   6.729   3.065   4.329
 4794TIP3    H114346   6.664   3.016   4.380
 4794TIP3    H214347   6.678   3.109   4.261
 4795TIP3   OH214348   5.645   3.627   5.558
 4795TIP3    H114349   5.551   3.634   5.577
 4795TIP3    H214350   5.669   3.540   5.588
 4796TIP3   OH214351   2.748   1.228   2.878
 4796TIP3    H114352   2.727   1.136   2.898
 4796TIP3    H214353   2.816   1.223   2.811
 4797TIP3   OH214354   2.624   6.771   4.451
 4797TIP3    H114355   2.623   6.786   4.545
 4797TIP3    H214356   2.533   6.755   4.428
 4798TIP3   OH214357   4.766   5.055   1.089
 4798TIP3    H114358   4.798   5.022   1.006
 4798TIP3    H214359   4.696   5.117   1.065
 4799TIP3   OH214360   1.301   3.920   2.326
 4799TIP3    H114361   1.248   3.899   2.403
 4799TIP3    H214362   1.307   3.837   2.278
 4800TIP3   OH214363   2.399   4.530   3.167
 4800TIP3    H114364   2.354   4.614   3.174
 4800TIP3    H214365   2.462   4.543   3.096
 4801TIP3   OH214366   4.404   0.458   5.759
 4801TIP3    H114367   4.308   0.466   5.755
 4801TIP3    H214368   4.436   0.538   5.718
 4802TIP3   OH214369   6.041   4.212   0.176
 4802TIP3    H114370   6.067   4.296   0.215
 4802TIP3    H214371   5.954   4.196   0.211
 4803TIP3   OH214372   6.317   4.394   1.621
 4803TIP3    H114373   6.400   4.381   1.668
 4803TIP3    H214374   6.260   4.436   1.686
 4804TIP3   OH214375   7.027   2.666   5.723
 4804TIP3    H114376   6.992   2.577   5.722
 4804TIP3    H214377   7.047   2.682   5.816
 4805TIP3   OH214378   4.987   3.260   0.827
 4805TIP3    H114379   5.044   3.332   0.798
 4805TIP3    H214380   5.024   3.233   0.911
 4806TIP3   OH214381   6.938   5.549   2.118
 4806TIP3    H114382   7.021   5.583   2.086
 4806TIP3    H214383   6.889   5.527   2.039
 4807TIP3   OH214384   4.881   3.818   3.185
 4807TIP3    H114385   4.820   3.758   3.142
 4807TIP3    H214386   4.928   3.763   3.248
 4808TIP3   OH214387   5.065   4.483   0.707
 4808TIP3    H114388   5.073   4.451   0.617
 4808TIP3    H214389   4.975   4.515   0.713
 4809TIP3   OH214390   3.905   2.681   0.901
 4809TIP3    H114391   3.820   2.718   0.875
 4809TIP3    H214392   3.945   2.653   0.819
 4810TIP3   OH214393   1.670   5.159   0.223
 4810TIP3    H114394   1.711   5.085   0.178
 4810TIP3    H214395   1.600   5.120   0.276
 4811TIP3   OH214396   2.199   1.168   0.761
 4811TIP3    H114397   2.207   1.103   0.691
 4811TIP3    H214398   2.287   1.176   0.796
 4812TIP3   OH214399   6.411   3.603   1.593
 4812TIP3    H114400   6.347   3.664   1.556
 4812TIP3    H214401   6.487   3.608   1.534
 4813TIP3   OH214402   5.556   3.979   2.585
 4813TIP3    H114403   5.628   4.011   2.529
 4813TIP3    H214404   5.477   4.016   2.546
 4814TIP3   OH214405   1.228   4.371   2.650
 4814TIP3    H114406   1.190   4.308   2.589
 4814TIP3    H214407   1.164   4.442   2.653
 4815TIP3   OH214408   2.171   4.159   1.231
 4815TIP3    H114409   2.166   4.241   1.279
 4815TIP3    H214410   2.102   4.165   1.165
 4816TIP3   OH214411   3.661   3.860   1.675
 4816TIP3    H114412   3.597   3.872   1.746
 4816TIP3    H214413   3.741   3.833   1.720
 4817TIP3   OH214414   2.596   6.739   4.725
 4817TIP3    H114415   2.504   6.715   4.727
 4817TIP3    H214416   2.643   6.657   4.742
 4818TIP3   OH214417   3.111   2.450   2.584
 4818TIP3    H114418   3.046   2.487   2.644
 4818TIP3    H214419   3.061   2.391   2.528
 4819TIP3   OH214420   4.277   3.738   0.178
 4819TIP3    H114421   4.272   3.809   0.242
 4819TIP3    H214422   4.270   3.658   0.230
 4820TIP3   OH214423   4.078   6.326   2.139
 4820TIP3    H114424   4.085   6.349   2.047
 4820TIP3    H214425   4.108   6.403   2.186
 4821TIP3   OH214426   6.982   4.010   4.226
 4821TIP3    H114427   6.968   4.019   4.131
 4821TIP3    H214428   7.070   3.973   4.234
 4822TIP3   OH214429   0.399   3.629   3.956
 4822TIP3    H114430   0.335   3.700   3.961
 4822TIP3    H214431   0.400   3.604   3.864
 4823TIP3   OH214432   2.902   1.339   1.513
 4823TIP3    H114433   2.991   1.374   1.507
 4823TIP3    H214434   2.885   1.302   1.427
 4824TIP3   OH214435   5.120   0.091   4.960
 4824TIP3    H114436   5.146   0.157   5.024
 4824TIP3    H214437   5.064   0.138   4.898
 4825TIP3   OH214438   5.345   2.091   1.514
 4825TIP3    H114439   5.434   2.116   1.536
 4825TIP3    H214440   5.352   2.046   1.430
 4826TIP3   OH214441   0.930   3.666   3.132
 4826TIP3    H114442   0.918   3.572   3.148
 4826TIP3    H214443   0.883   3.710   3.202
 4827TIP3   OH214444   4.804   2.349   5.716
 4827TIP3    H114445   4.722   2.397   5.701
 4827TIP3    H214446   4.866   2.417   5.743
 4828TIP3   OH214447   4.703   5.107   3.629
 4828TIP3    H114448   4.773   5.110   3.563
 4828TIP3    H214449   4.649   5.032   3.602
 4829TIP3   OH214450   7.074   3.614   4.362
 4829TIP3    H114451   7.103   3.600   4.452
 4829TIP3    H214452   7.139   3.569   4.308
 4830TIP3   OH214453   1.153   2.782   2.307
 4830TIP3    H114454   1.059   2.762   2.311
 4830TIP3    H214455   1.185   2.767   2.396
 4831TIP3   OH214456   0.799   6.611   4.910
 4831TIP3    H114457   0.786   6.693   4.956
 4831TIP3    H214458   0.796   6.544   4.978
 4832TIP3   OH214459   0.137   4.858   3.711
 4832TIP3    H114460   0.224   4.824   3.734
 4832TIP3    H214461   0.140   4.950   3.736
 4833TIP3   OH214462   5.933   1.979   1.181
 4833TIP3    H114463   5.966   1.902   1.134
 4833TIP3    H214464   5.966   1.968   1.271
 4834TIP3   OH214465   3.040   4.565   1.003
 4834TIP3    H114466   3.012   4.544   0.914
 4834TIP3    H214467   3.042   4.661   1.005
 4835TIP3   OH214468   5.085   0.048   2.082
 4835TIP3    H114469   5.020  -0.016   2.054
 4835TIP3    H214470   5.147   0.052   2.010
 4836TIP3   OH214471   2.723   2.687   5.601
 4836TIP3    H114472   2.655   2.687   5.668
 4836TIP3    H214473   2.688   2.633   5.530
 4837TIP3   OH214474  -0.026   0.722   3.579
 4837TIP3    H114475   0.062   0.742   3.612
 4837TIP3    H214476  -0.019   0.735   3.484
 4838TIP3   OH214477   4.993   6.005   4.898
 4838TIP3    H114478   4.992   5.938   4.829
 4838TIP3    H214479   5.016   6.086   4.852
 4839TIP3   OH214480   6.095   3.396   3.735
 4839TIP3    H114481   6.091   3.376   3.829
 4839TIP3    H214482   6.151   3.327   3.698
 4840TIP3   OH214483   4.301   3.725   1.224
 4840TIP3    H114484   4.350   3.807   1.217
 4840TIP3    H214485   4.368   3.660   1.248
 4841TIP3   OH214486   2.199   1.256   1.605
 4841TIP3    H114487   2.294   1.269   1.603
 4841TIP3    H214488   2.181   1.198   1.531
 4842TIP3   OH214489   6.974   0.898   3.059
 4842TIP3    H114490   6.942   0.823   3.008
 4842TIP3    H214491   6.895   0.932   3.102
 4843TIP3   OH214492   3.534   4.179   4.640
 4843TIP3    H114493   3.516   4.086   4.651
 4843TIP3    H214494   3.608   4.182   4.580
 4844TIP3   OH214495   4.362   4.419   0.715
 4844TIP3    H114496   4.327   4.471   0.643
 4844TIP3    H214497   4.286   4.401   0.770
 4845TIP3   OH214498   5.196   5.385   2.081
 4845TIP3    H114499   5.283   5.382   2.041
 4845TIP3    H214500   5.210   5.428   2.165
 4846TIP3   OH214501   2.913   2.506   2.766
 4846TIP3    H114502   2.834   2.556   2.787
 4846TIP3    H214503   2.882   2.417   2.750
 4847TIP3   OH214504   3.523   3.103   2.922
 4847TIP3    H114505   3.450   3.160   2.897
 4847TIP3    H214506   3.505   3.020   2.879
 4848TIP3   OH214507   4.774   4.515   1.770
 4848TIP3    H114508   4.764   4.565   1.690
 4848TIP3    H214509   4.851   4.552   1.813
 4849TIP3   OH214510   6.329   0.470   0.220
 4849TIP3    H114511   6.375   0.503   0.297
 4849TIP3    H214512   6.263   0.536   0.201
 4850TIP3   OH214513   1.467   0.284   2.564
 4850TIP3    H114514   1.404   0.239   2.621
 4850TIP3    H214515   1.551   0.243   2.585
 4851TIP3   OH214516   6.466   0.753   1.048
 4851TIP3    H114517   6.506   0.805   1.117
 4851TIP3    H214518   6.539   0.714   1.001
 4852TIP3   OH214519   7.034   5.490   0.215
 4852TIP3    H114520   7.046   5.401   0.247
 4852TIP3    H214521   7.105   5.503   0.153
 4853TIP3   OH214522   3.894   6.787   3.033
 4853TIP3    H114523   3.814   6.782   3.086
 4853TIP3    H214524   3.963   6.807   3.095
 4854TIP3   OH214525   6.948   4.491   5.408
 4854TIP3    H114526   6.864   4.527   5.379
 4854TIP3    H214527   7.008   4.508   5.336
 4855TIP3   OH214528   2.655   2.076   2.666
 4855TIP3    H114529   2.713   2.024   2.610
 4855TIP3    H214530   2.597   2.121   2.605
 4856TIP3   OH214531   0.203   3.022   4.283
 4856TIP3    H114532   0.253   3.054   4.358
 4856TIP3    H214533   0.252   2.946   4.252
 4857TIP3   OH214534   3.977   3.511   3.438
 4857TIP3    H114535   3.964   3.539   3.348
 4857TIP3    H214536   3.913   3.442   3.451
 4858TIP3   OH214537   0.943   1.030   0.010
 4858TIP3    H114538   0.983   1.007   0.094
 4858TIP3    H214539   0.852   1.051   0.033
 4859TIP3   OH214540   5.549   6.279   0.533
 4859TIP3    H114541   5.543   6.186   0.513
 4859TIP3    H214542   5.603   6.315   0.462
 4860TIP3   OH214543   2.784   2.862   4.288
 4860TIP3    H114544   2.724   2.903   4.350
 4860TIP3    H214545   2.812   2.781   4.332
 4861TIP3   OH214546   3.359   3.184   3.492
 4861TIP3    H114547   3.425   3.127   3.531
 4861TIP3    H214548   3.291   3.123   3.461
 4862TIP3   OH214549   3.794   4.898   2.588
 4862TIP3    H114550   3.719   4.843   2.562
 4862TIP3    H214551   3.843   4.911   2.507
 4863TIP3   OH214552   2.088   3.424   5.849
 4863TIP3    H114553   2.100   3.484   5.923
 4863TIP3    H214554   2.066   3.481   5.775
 4864TIP3   OH214555   1.858   1.063   2.215
 4864TIP3    H114556   1.906   1.064   2.298
 4864TIP3    H214557   1.907   1.122   2.158
 4865TIP3   OH214558   3.773   4.040   4.296
 4865TIP3    H114559   3.757   4.078   4.383
 4865TIP3    H214560   3.865   4.016   4.297
 4866TIP3   OH214561   6.299   4.109   1.605
 4866TIP3    H114562   6.240   4.071   1.670
 4866TIP3    H214563   6.292   4.204   1.619
 4867TIP3   OH214564   2.608   2.503   1.310
 4867TIP3    H114565   2.535   2.455   1.349
 4867TIP3    H214566   2.636   2.449   1.237
 4868TIP3   OH214567   3.186   3.911   3.029
 4868TIP3    H114568   3.163   3.835   2.975
 4868TIP3    H214569   3.282   3.911   3.031
 4869TIP3   OH214570   4.956   5.081   0.570
 4869TIP3    H114571   5.004   5.151   0.525
 4869TIP3    H214572   4.966   5.101   0.663
 4870TIP3   OH214573   7.062   3.132   4.962
 4870TIP3    H114574   7.030   3.183   5.036
 4870TIP3    H214575   7.013   3.167   4.887
 4871TIP3   OH214576   0.558   1.306   5.272
 4871TIP3    H114577   0.608   1.297   5.192
 4871TIP3    H214578   0.564   1.399   5.294
 4872TIP3   OH214579   1.699   2.487   4.479
 4872TIP3    H114580   1.772   2.429   4.501
 4872TIP3    H214581   1.621   2.433   4.491
 4873TIP3   OH214582   1.318   2.982   0.523
 4873TIP3    H114583   1.389   3.007   0.582
 4873TIP3    H214584   1.362   2.950   0.444
 4874TIP3   OH214585   4.769   5.091   4.310
 4874TIP3    H114586   4.787   5.025   4.376
 4874TIP3    H214587   4.771   5.043   4.227
 4875TIP3   OH214588   0.464   6.198   0.368
 4875TIP3    H114589   0.486   6.271   0.426
 4875TIP3    H214590   0.548   6.155   0.351
 4876TIP3   OH214591   4.468   5.893   2.900
 4876TIP3    H114592   4.503   5.947   2.829
 4876TIP3    H214593   4.478   5.946   2.978
 4877TIP3   OH214594   3.069   5.277   4.126
 4877TIP3    H114595   3.023   5.197   4.149
 4877TIP3    H214596   3.005   5.329   4.078
 4878TIP3   OH214597   2.506   1.775   3.580
 4878TIP3    H114598   2.430   1.829   3.601
 4878TIP3    H214599   2.574   1.804   3.641
 4879TIP3   OH214600   6.579   2.213   5.640
 4879TIP3    H114601   6.531   2.130   5.637
 4879TIP3    H214602   6.586   2.233   5.733
 4880TIP3   OH214603   4.745   0.225   0.879
 4880TIP3    H114604   4.693   0.264   0.809
 4880TIP3    H214605   4.780   0.300   0.928
 4881TIP3   OH214606   6.834   0.147   4.310
 4881TIP3    H114607   6.856   0.101   4.229
 4881TIP3    H214608   6.780   0.085   4.358
 4882TIP3   OH214609   0.829   6.399   5.106
 4882TIP3    H114610   0.901   6.350   5.066
 4882TIP3    H214611   0.750   6.355   5.076
 4883TIP3   OH214612   2.929   5.757   3.011
 4883TIP3    H114613   2.857   5.732   2.952
 4883TIP3    H214614   2.930   5.688   3.077
 4884TIP3   OH214615   5.776   2.918   4.143
 4884TIP3    H114616   5.794   3.001   4.099
 4884TIP3    H214617   5.861   2.890   4.176
 4885TIP3   OH214618   5.169   4.006   1.829
 4885TIP3    H114619   5.262   4.010   1.808
 4885TIP3    H214620   5.158   3.924   1.877
 4886TIP3   OH214621   2.061   1.940   2.519
 4886TIP3    H114622   1.976   1.896   2.524
 4886TIP3    H214623   2.083   1.940   2.426
 4887TIP3   OH214624   3.711   5.555   2.696
 4887TIP3    H114625   3.682   5.575   2.785
 4887TIP3    H214626   3.698   5.636   2.647
 4888TIP3   OH214627   0.815   4.757   1.929
 4888TIP3    H114628   0.807   4.851   1.940
 4888TIP3    H214629   0.909   4.740   1.939
 4889TIP3   OH214630   1.049   1.541   0.725
 4889TIP3    H114631   0.955   1.526   0.738
 4889TIP3    H214632   1.089   1.520   0.809
 4890TIP3   OH214633   1.765   1.043   5.201
 4890TIP3    H114634   1.692   1.006   5.151
 4890TIP3    H214635   1.811   0.966   5.234
 4891TIP3   OH214636   5.874   3.242   4.272
 4891TIP3    H114637   5.953   3.288   4.301
 4891TIP3    H214638   5.906   3.175   4.212
 4892TIP3   OH214639   5.064   1.604   0.039
 4892TIP3    H114640   5.051   1.524   0.090
 4892TIP3    H214641   4.976   1.631   0.014
 4893TIP3   OH214642   4.605   6.070   4.031
 4893TIP3    H114643   4.605   6.165   4.044
 4893TIP3    H214644   4.516   6.050   4.001
 4894TIP3   OH214645   5.512   3.520   4.835
 4894TIP3    H114646   5.487   3.448   4.892
 4894TIP3    H214647   5.525   3.480   4.749
 4895TIP3   OH214648   4.131   3.224   5.015
 4895TIP3    H114649   4.046   3.184   4.996
 4895TIP3    H214650   4.185   3.151   5.044
 4896TIP3   OH214651   6.348   0.401   3.772
 4896TIP3    H114652   6.348   0.429   3.680
 4896TIP3    H214653   6.426   0.346   3.780
 4897TIP3   OH214654   4.802   4.780   1.170
 4897TIP3    H114655   4.786   4.814   1.082
 4897TIP3    H214656   4.891   4.809   1.190
 4898TIP3   OH214657   4.232   3.248   1.953
 4898TIP3    H114658   4.241   3.271   1.861
 4898TIP3    H214659   4.159   3.185   1.955
 4899TIP3   OH214660   7.041   1.934   3.613
 4899TIP3    H114661   7.117   1.950   3.668
 4899TIP3    H214662   7.039   2.007   3.551
 4900TIP3   OH214663   1.298   3.511   5.652
 4900TIP3    H114664   1.328   3.482   5.738
 4900TIP3    H214665   1.378   3.523   5.601
 4901TIP3   OH214666   5.684   5.920   5.812
 4901TIP3    H114667   5.622   5.848   5.806
 4901TIP3    H214668   5.638   5.995   5.772
 4902TIP3   OH214669   0.408   3.107   1.264
 4902TIP3    H114670   0.354   3.097   1.342
 4902TIP3    H214671   0.453   3.023   1.254
 4903TIP3   OH214672   1.678   1.418   5.604
 4903TIP3    H114673   1.728   1.480   5.551
 4903TIP3    H214674   1.725   1.334   5.593
 4904TIP3   OH214675   6.155   4.879   3.512
 4904TIP3    H114676   6.064   4.850   3.506
 4904TIP3    H214677   6.156   4.942   3.584
 4905TIP3   OH214678   4.335   1.273   5.315
 4905TIP3    H114679   4.420   1.259   5.275
 4905TIP3    H214680   4.354   1.296   5.406
 4906TIP3   OH214681   1.677   0.575   4.517
 4906TIP3    H114682   1.718   0.656   4.486
 4906TIP3    H214683   1.583   0.593   4.512
 4907TIP3   OH214684   1.179   5.626   1.954
 4907TIP3    H114685   1.236   5.582   2.017
 4907TIP3    H214686   1.159   5.559   1.889
 4908TIP3   OH214687   2.994   3.368   4.757
 4908TIP3    H114688   3.042   3.438   4.713
 4908TIP3    H214689   2.913   3.409   4.787
 4909TIP3   OH214690   1.095   2.316   1.940
 4909TIP3    H114691   1.108   2.223   1.955
 4909TIP3    H214692   1.161   2.340   1.876
 4910TIP3   OH214693   3.537   2.067   0.911
 4910TIP3    H114694   3.607   2.114   0.957
 4910TIP3    H214695   3.524   2.116   0.830
 4911TIP3   OH214696   2.975   3.104   0.020
 4911TIP3    H114697   3.019   3.154   0.088
 4911TIP3    H214698   2.904   3.058   0.065
 4912TIP3   OH214699   0.238   4.558   0.954
 4912TIP3    H114700   0.315   4.614   0.946
 4912TIP3    H214701   0.258   4.501   1.028
 4913TIP3   OH214702   2.424   5.206   4.451
 4913TIP3    H114703   2.508   5.248   4.471
 4913TIP3    H214704   2.424   5.126   4.504
 4914TIP3   OH214705   3.472   5.724   2.823
 4914TIP3    H114706   3.472   5.796   2.887
 4914TIP3    H214707   3.536   5.662   2.857
 4915TIP3   OH214708   5.686   3.372   4.120
 4915TIP3    H114709   5.744   3.322   4.178
 4915TIP3    H214710   5.630   3.306   4.079
 4916TIP3   OH214711   4.624   5.090   1.596
 4916TIP3    H114712   4.584   5.139   1.668
 4916TIP3    H214713   4.718   5.107   1.605
 4917TIP3   OH214714   0.697   1.272   4.997
 4917TIP3    H114715   0.790   1.274   4.974
 4917TIP3    H214716   0.656   1.330   4.933
 4918TIP3   OH214717   5.742   5.113   1.140
 4918TIP3    H114718   5.768   5.164   1.217
 4918TIP3    H214719   5.816   5.122   1.080
 4919TIP3   OH214720   3.959   4.633   4.917
 4919TIP3    H114721   3.993   4.651   5.005
 4919TIP3    H214722   4.026   4.669   4.858
 4920TIP3   OH214723   1.599   4.372   0.976
 4920TIP3    H114724   1.511   4.393   0.944
 4920TIP3    H214725   1.600   4.405   1.066
 4921TIP3   OH214726   6.078   5.423   5.387
 4921TIP3    H114727   5.995   5.433   5.341
 4921TIP3    H214728   6.071   5.338   5.431
 4922TIP3   OH214729   6.073   4.118   5.388
 4922TIP3    H114730   6.115   4.042   5.428
 4922TIP3    H214731   5.980   4.098   5.389
 4923TIP3   OH214732   2.991   2.443   0.267
 4923TIP3    H114733   3.003   2.350   0.248
 4923TIP3    H214734   3.065   2.465   0.325
 4924TIP3   OH214735   5.540   3.869   5.368
 4924TIP3    H114736   5.594   3.798   5.332
 4924TIP3    H214737   5.603   3.929   5.408
 4925TIP3   OH214738   5.603   5.860   2.385
 4925TIP3    H114739   5.648   5.781   2.358
 4925TIP3    H214740   5.657   5.896   2.456
 4926TIP3   OH214741   6.528   6.061   2.858
 4926TIP3    H114742   6.541   5.966   2.862
 4926TIP3    H214743   6.600   6.093   2.804
 4927TIP3   OH214744   5.693   5.904   4.988
 4927TIP3    H114745   5.786   5.911   5.011
 4927TIP3    H214746   5.661   5.830   5.040
 4928TIP3   OH214747   2.292   4.879   0.896
 4928TIP3    H114748   2.239   4.855   0.820
 4928TIP3    H214749   2.283   4.805   0.956
 4929TIP3   OH214750   3.083   2.755   0.568
 4929TIP3    H114751   3.074   2.794   0.655
 4929TIP3    H214752   2.993   2.744   0.537
 4930TIP3   OH214753   2.047   0.452   2.120
 4930TIP3    H114754   2.113   0.513   2.153
 4930TIP3    H214755   2.056   0.375   2.176
 4931TIP3   OH214756   3.997   3.151   1.382
 4931TIP3    H114757   4.056   3.175   1.310
 4931TIP3    H214758   4.055   3.125   1.453
 4932TIP3   OH214759   2.840   5.500   3.116
 4932TIP3    H114760   2.753   5.539   3.118
 4932TIP3    H214761   2.847   5.454   3.200
 4933TIP3   OH214762   5.990   5.623   0.910
 4933TIP3    H114763   5.922   5.568   0.949
 4933TIP3    H214764   5.959   5.642   0.822
 4934TIP3   OH214765   6.971   3.410   3.897
 4934TIP3    H114766   7.057   3.450   3.906
 4934TIP3    H214767   6.981   3.321   3.929
 4935TIP3   OH214768   6.598   3.225   3.833
 4935TIP3    H114769   6.679   3.257   3.793
 4935TIP3    H214770   6.617   3.221   3.927
 4936TIP3   OH214771   2.256   0.831   5.779
 4936TIP3    H114772   2.273   0.769   5.708
 4936TIP3    H214773   2.173   0.801   5.817
 4937TIP3   OH214774   2.027   6.482   5.583
 4937TIP3    H114775   2.023   6.568   5.625
 4937TIP3    H214776   2.016   6.500   5.490
 4938TIP3   OH214777   4.829   4.864   4.111
 4938TIP3    H114778   4.781   4.878   4.029
 4938TIP3    H214779   4.792   4.784   4.148
 4939TIP3   OH214780   5.678   4.934   3.473
 4939TIP3    H114781   5.628   4.882   3.410
 4939TIP3    H214782   5.741   4.872   3.510
 4940TIP3   OH214783   6.526   0.882   0.542
 4940TIP3    H114784   6.539   0.971   0.507
 4940TIP3    H214785   6.456   0.892   0.606
 4941TIP3   OH214786   3.934   5.123   3.504
 4941TIP3    H114787   3.855   5.094   3.550
 4941TIP3    H214788   4.003   5.065   3.536
 4942TIP3   OH214789   2.896   5.657   2.547
 4942TIP3    H114790   2.960   5.586   2.535
 4942TIP3    H214791   2.943   5.724   2.596
 4943TIP3   OH214792   3.946   3.200   3.811
 4943TIP3    H114793   3.938   3.108   3.786
 4943TIP3    H214794   3.971   3.198   3.903
 4944TIP3   OH214795   2.313   0.139   4.956
 4944TIP3    H114796   2.305   0.185   4.872
 4944TIP3    H214797   2.244   0.073   4.953
 4945TIP3   OH214798   2.357   4.578   4.455
 4945TIP3    H114799   2.374   4.516   4.526
 4945TIP3    H214800   2.413   4.548   4.383
 4946TIP3   OH214801   6.551   0.918   4.955
 4946TIP3    H114802   6.578   0.867   4.879
 4946TIP3    H214803   6.570   1.009   4.931
 4947TIP3   OH214804   5.041   6.242   3.776
 4947TIP3    H114805   5.001   6.197   3.701
 4947TIP3    H214806   5.100   6.177   3.814
 4948TIP3   OH214807   1.776   6.298   1.259
 4948TIP3    H114808   1.796   6.237   1.330
 4948TIP3    H214809   1.703   6.351   1.293
 4949TIP3   OH214810   1.331   4.706   2.407
 4949TIP3    H114811   1.339   4.747   2.321
 4949TIP3    H214812   1.334   4.612   2.390
 4950TIP3   OH214813   5.719   0.040   5.701
 4950TIP3    H114814   5.798   0.086   5.674
 4950TIP3    H214815   5.693  -0.011   5.625
 4951TIP3   OH214816   6.476   2.929   5.687
 4951TIP3    H114817   6.421   2.850   5.687
 4951TIP3    H214818   6.415   2.999   5.712
 4952TIP3   OH214819   5.005   2.614   2.917
 4952TIP3    H114820   4.915   2.581   2.921
 4952TIP3    H214821   5.036   2.586   2.831
 4953TIP3   OH214822   6.428   4.290   3.784
 4953TIP3    H114823   6.458   4.199   3.795
 4953TIP3    H214824   6.500   4.333   3.737
 4954TIP3   OH214825   4.467   3.385   4.211
 4954TIP3    H114826   4.547   3.428   4.182
 4954TIP3    H214827   4.406   3.396   4.138
 4955TIP3   OH214828   1.529   2.400   0.134
 4955TIP3    H114829   1.546   2.308   0.151
 4955TIP3    H214830   1.440   2.415   0.166
 4956TIP3   OH214831   6.105   4.622   5.881
 4956TIP3    H114832   6.035   4.613   5.816
 4956TIP3    H214833   6.060   4.622   5.965
 4957TIP3   OH214834   3.123   3.145   5.579
 4957TIP3    H114835   3.100   3.157   5.671
 4957TIP3    H214836   3.214   3.113   5.581
 4958TIP3   OH214837   4.847   4.384   0.549
 4958TIP3    H114838   4.767   4.335   0.566
 4958TIP3    H214839   4.886   4.339   0.473
 4959TIP3   OH214840   5.045   4.892   4.751
 4959TIP3    H114841   5.010   4.980   4.733
 4959TIP3    H214842   4.992   4.860   4.824
 4960TIP3   OH214843   3.851   0.801   0.667
 4960TIP3    H114844   3.821   0.712   0.680
 4960TIP3    H214845   3.920   0.814   0.733
 4961TIP3   OH214846   4.805   6.324   3.915
 4961TIP3    H114847   4.830   6.379   3.842
 4961TIP3    H214848   4.859   6.245   3.906
 4962TIP3   OH214849   2.727   3.385   0.518
 4962TIP3    H114850   2.798   3.393   0.455
 4962TIP3    H214851   2.756   3.434   0.594
 4963TIP3   OH214852   1.988   3.342   0.753
 4963TIP3    H114853   2.026   3.278   0.814
 4963TIP3    H214854   2.050   3.414   0.752
 4964TIP3   OH214855   2.917   3.719  -0.049
 4964TIP3    H114856   2.887   3.654   0.015
 4964TIP3    H214857   2.998   3.681  -0.083
 4965TIP3   OH214858   1.157   3.768   5.448
 4965TIP3    H114859   1.200   3.794   5.367
 4965TIP3    H214860   1.073   3.814   5.447
 4966TIP3   OH214861   5.202   1.246   5.085
 4966TIP3    H114862   5.253   1.246   5.166
 4966TIP3    H214863   5.160   1.160   5.084
 4967TIP3   OH214864   4.475   3.316   1.204
 4967TIP3    H114865   4.515   3.403   1.200
 4967TIP3    H214866   4.410   3.322   1.274
 4968TIP3   OH214867   4.970   2.376   3.838
 4968TIP3    H114868   5.003   2.371   3.928
 4968TIP3    H214869   4.961   2.470   3.821
 4969TIP3   OH214870   0.905   2.686   5.297
 4969TIP3    H114871   0.959   2.667   5.374
 4969TIP3    H214872   0.875   2.776   5.311
 4970TIP3   OH214873   0.817   3.818   0.393
 4970TIP3    H114874   0.895   3.866   0.365
 4970TIP3    H214875   0.758   3.823   0.318
 4971TIP3   OH214876   5.199   1.640   5.820
 4971TIP3    H114877   5.283   1.678   5.797
 4971TIP3    H214878   5.220   1.556   5.861
 4972TIP3   OH214879   2.456   2.237   5.435
 4972TIP3    H114880   2.362   2.239   5.418
 4972TIP3    H214881   2.466   2.173   5.505
 4973TIP3   OH214882   0.268   5.301   5.382
 4973TIP3    H114883   0.218   5.378   5.356
 4973TIP3    H214884   0.333   5.290   5.312
 4974TIP3   OH214885   1.323   2.673   0.670
 4974TIP3    H114886   1.244   2.655   0.720
 4974TIP3    H214887   1.291   2.707   0.586
 4975TIP3   OH214888   0.665   6.447   4.456
 4975TIP3    H114889   0.689   6.537   4.477
 4975TIP3    H214890   0.747   6.398   4.467
 4976TIP3   OH214891   5.917   4.748   3.521
 4976TIP3    H114892   5.948   4.769   3.433
 4976TIP3    H214893   5.927   4.653   3.529
 4977TIP3   OH214894   3.893   2.165   2.760
 4977TIP3    H114895   3.982   2.143   2.734
 4977TIP3    H214896   3.838   2.120   2.697
 4978TIP3   OH214897   3.486   3.198   0.645
 4978TIP3    H114898   3.403   3.245   0.650
 4978TIP3    H214899   3.465   3.109   0.672
 4979TIP3   OH214900   1.024   3.682   5.718
 4979TIP3    H114901   1.067   3.645   5.641
 4979TIP3    H214902   0.961   3.745   5.683
 4980TIP3   OH214903   3.121   6.712   2.442
 4980TIP3    H114904   3.074   6.788   2.409
 4980TIP3    H214905   3.099   6.642   2.380
 4981TIP3   OH214906   1.226   0.106   1.048
 4981TIP3    H114907   1.199   0.097   1.139
 4981TIP3    H214908   1.145   0.101   0.997
 4982TIP3   OH214909   4.127   2.147   1.485
 4982TIP3    H114910   4.034   2.125   1.493
 4982TIP3    H214911   4.129   2.243   1.484
 4983TIP3   OH214912   5.027   5.470   4.606
 4983TIP3    H114913   5.062   5.419   4.679
 4983TIP3    H214914   4.946   5.425   4.582
 4984TIP3   OH214915   6.338   1.316   4.733
 4984TIP3    H114916   6.351   1.385   4.798
 4984TIP3    H214917   6.268   1.349   4.676
 4985TIP3   OH214918   5.681   4.596   2.520
 4985TIP3    H114919   5.609   4.610   2.458
 4985TIP3    H214920   5.705   4.504   2.509
 4986TIP3   OH214921   4.460   0.493   0.493
 4986TIP3    H114922   4.417   0.538   0.566
 4986TIP3    H214923   4.412   0.523   0.415
 4987TIP3   OH214924   1.790   3.687   2.245
 4987TIP3    H114925   1.806   3.604   2.290
 4987TIP3    H214926   1.720   3.729   2.296
 4988TIP3   OH214927   6.460   2.353   1.270
 4988TIP3    H114928   6.544   2.398   1.282
 4988TIP3    H214929   6.412   2.411   1.211
 4989TIP3   OH214930   2.992   1.153   0.971
 4989TIP3    H114931   3.037   1.100   1.037
 4989TIP3    H214932   2.922   1.197   1.020
 4990TIP3   OH214933   6.522   3.268   5.684
 4990TIP3    H114934   6.430   3.268   5.659
 4990TIP3    H214935   6.529   3.330   5.756
 4991TIP3   OH214936   7.122   0.448   0.932
 4991TIP3    H114937   7.212   0.421   0.952
 4991TIP3    H214938   7.119   0.452   0.836
 4992TIP3   OH214939   0.763   5.589   1.125
 4992TIP3    H114940   0.764   5.521   1.059
 4992TIP3    H214941   0.747   5.670   1.076
 4993TIP3   OH214942   0.289   3.817   2.930
 4993TIP3    H114943   0.376   3.836   2.895
 4993TIP3    H214944   0.271   3.727   2.902
 4994TIP3   OH214945   6.313   3.716   5.865
 4994TIP3    H114946   6.308   3.764   5.948
 4994TIP3    H214947   6.381   3.760   5.815
 4995TIP3   OH214948   3.090   5.032   0.199
 4995TIP3    H114949   3.167   4.996   0.154
 4995TIP3    H214950   3.027   4.961   0.198
 4996TIP3   OH214951   4.449   2.614   1.070
 4996TIP3    H114952   4.425   2.621   1.162
 4996TIP3    H214953   4.385   2.669   1.025
 4997TIP3   OH214954   3.120   4.821   3.720
 4997TIP3    H114955   3.170   4.902   3.708
 4997TIP3    H214956   3.186   4.755   3.742
 4998TIP3   OH214957   1.226   0.767   1.520
 4998TIP3    H114958   1.150   0.823   1.505
 4998TIP3    H214959   1.204   0.717   1.599
 4999TIP3   OH214960   3.330   1.442   3.989
 4999TIP3    H114961   3.308   1.481   3.904
 4999TIP3    H214962   3.361   1.354   3.967
 5000TIP3   OH214963   3.888   1.538   5.778
 5000TIP3    H114964   3.821   1.548   5.846
 5000TIP3    H214965   3.966   1.578   5.815
 5001TIP3   OH214966   2.244   4.189   2.886
 5001TIP3    H114967   2.285   4.272   2.862
 5001TIP3    H214968   2.262   4.180   2.980
 5002TIP3   OH214969   1.439   6.226   5.094
 5002TIP3    H114970   1.481   6.279   5.027
 5002TIP3    H214971   1.509   6.203   5.155
 5003TIP3   OH214972   2.968   5.478   2.034
 5003TIP3    H114973   2.906   5.499   2.104
 5003TIP3    H214974   2.974   5.383   2.035
 5004TIP3   OH214975   2.806   5.300   4.019
 5004TIP3    H114976   2.822   5.345   3.937
 5004TIP3    H214977   2.754   5.362   4.071
 5005TIP3   OH214978   5.640   6.625   1.560
 5005TIP3    H114979   5.624   6.533   1.584
 5005TIP3    H214980   5.734   6.635   1.568
 5006TIP3   OH214981   3.552   0.122   0.565
 5006TIP3    H114982   3.533   0.080   0.482
 5006TIP3    H214983   3.487   0.192   0.573
 5007TIP3   OH214984   3.020   2.003   1.194
 5007TIP3    H114985   2.946   2.009   1.133
 5007TIP3    H214986   3.020   2.086   1.241
 5008TIP3   OH214987   1.480   3.252   5.796
 5008TIP3    H114988   1.419   3.311   5.839
 5008TIP3    H214989   1.546   3.310   5.757
 5009TIP3   OH214990   4.583   3.405   2.272
 5009TIP3    H114991   4.659   3.411   2.213
 5009TIP3    H214992   4.508   3.423   2.216
 5010TIP3   OH214993   3.981   6.108   0.038
 5010TIP3    H114994   4.052   6.155  -0.005
 5010TIP3    H214995   3.944   6.172   0.100
 5011TIP3   OH214996   5.213   0.112   1.837
 5011TIP3    H114997   5.295   0.150   1.868
 5011TIP3    H214998   5.240   0.040   1.780
 5012TIP3   OH214999   3.515   1.365   0.707
 5012TIP3    H115000   3.524   1.329   0.795
 5012TIP3    H215001   3.424   1.346   0.682
 5013TIP3   OH215002   1.302   1.634   2.643
 5013TIP3    H115003   1.364   1.646   2.714
 5013TIP3    H215004   1.323   1.548   2.607
 5014TIP3   OH215005   3.107   5.991   5.364
 5014TIP3    H115006   3.021   5.950   5.349
 5014TIP3    H215007   3.156   5.925   5.413
 5015TIP3   OH215008   1.380   2.203   0.450
 5015TIP3    H115009   1.321   2.159   0.511
 5015TIP3    H215010   1.354   2.170   0.364
 5016TIP3   OH215011   5.125   0.950   0.589
 5016TIP3    H115012   5.066   1.024   0.575
 5016TIP3    H215013   5.171   0.940   0.505
 5017TIP3   OH215014   1.917   3.542   3.256
 5017TIP3    H115015   1.962   3.551   3.172
 5017TIP3    H215016   1.916   3.447   3.272
 5018TIP3   OH215017   5.413   4.568   2.852
 5018TIP3    H115018   5.496   4.577   2.899
 5018TIP3    H215019   5.346   4.580   2.919
 5019TIP3   OH215020   2.125   0.197   2.464
 5019TIP3    H115021   2.176   0.275   2.484
 5019TIP3    H215022   2.105   0.158   2.549
 5020TIP3   OH215023   5.969   2.854   2.047
 5020TIP3    H115024   5.963   2.892   2.135
 5020TIP3    H215025   5.903   2.785   2.045
 5021TIP3   OH215026   1.813   4.556   5.332
 5021TIP3    H115027   1.727   4.595   5.320
 5021TIP3    H215028   1.815   4.529   5.424
 5022TIP3   OH215029   4.879   3.586   0.229
 5022TIP3    H115030   4.930   3.556   0.303
 5022TIP3    H215031   4.822   3.655   0.265
 5023TIP3   OH215032   4.288   3.141   3.013
 5023TIP3    H115033   4.240   3.182   2.941
 5023TIP3    H215034   4.338   3.213   3.052
 5024TIP3   OH215035   4.181   3.421   3.767
 5024TIP3    H115036   4.182   3.354   3.698
 5024TIP3    H215037   4.161   3.503   3.721
 5025TIP3   OH215038   0.029   3.435   5.124
 5025TIP3    H115039   0.079   3.444   5.042
 5025TIP3    H215040   0.025   3.340   5.139
 5026TIP3   OH215041   5.212   6.107   3.942
 5026TIP3    H115042   5.274   6.177   3.922
 5026TIP3    H215043   5.259   6.050   4.002
 5027TIP3   OH215044   3.884   5.403   3.441
 5027TIP3    H115045   3.921   5.414   3.528
 5027TIP3    H215046   3.868   5.309   3.433
 5028TIP3   OH215047   0.600   6.759   3.938
 5028TIP3    H115048   0.516   6.719   3.964
 5028TIP3    H215049   0.653   6.755   4.017
 5029TIP3   OH215050   0.389   3.836   2.414
 5029TIP3    H115051   0.462   3.812   2.356
 5029TIP3    H215052   0.430   3.885   2.485
 5030TIP3   OH215053   6.894   5.571   4.346
 5030TIP3    H115054   6.805   5.539   4.331
 5030TIP3    H215055   6.889   5.665   4.328
 5031TIP3   OH215056   1.735   4.158   5.388
 5031TIP3    H115057   1.730   4.069   5.354
 5031TIP3    H215058   1.828   4.176   5.394
 5032TIP3   OH215059   3.052   5.243   2.908
 5032TIP3    H115060   2.962   5.226   2.881
 5032TIP3    H215061   3.047   5.261   3.002
 5033TIP3   OH215062   2.510   6.829   3.647
 5033TIP3    H115063   2.445   6.764   3.673
 5033TIP3    H215064   2.520   6.818   3.553
 5034TIP3   OH215065   4.610   2.342   2.477
 5034TIP3    H115066   4.564   2.353   2.394
 5034TIP3    H215067   4.694   2.303   2.454
 5035TIP3   OH215068   5.730   2.762   2.422
 5035TIP3    H115069   5.766   2.673   2.422
 5035TIP3    H215070   5.784   2.810   2.360
 5036TIP3   OH215071   6.914   6.151   4.463
 5036TIP3    H115072   6.989   6.147   4.404
 5036TIP3    H215073   6.950   6.182   4.546
 5037TIP3   OH215074   4.759   2.087   1.225
 5037TIP3    H115075   4.798   2.103   1.311
 5037TIP3    H215076   4.824   2.035   1.178
 5038TIP3   OH215077   3.324   2.142   2.488
 5038TIP3    H115078   3.357   2.220   2.532
 5038TIP3    H215079   3.400   2.085   2.479
 5039TIP3   OH215080   1.733   0.829   0.429
 5039TIP3    H115081   1.765   0.838   0.519
 5039TIP3    H215082   1.653   0.881   0.426
 5040TIP3   OH215083   5.325   0.878   5.757
 5040TIP3    H115084   5.240   0.862   5.716
 5040TIP3    H215085   5.305   0.928   5.836
 5041TIP3   OH215086   3.916   2.928   1.119
 5041TIP3    H115087   3.845   2.971   1.167
 5041TIP3    H215088   3.909   2.836   1.143
 5042TIP3   OH215089   6.755   2.902   0.093
 5042TIP3    H115090   6.813   2.842   0.140
 5042TIP3    H215091   6.716   2.957   0.161
 5043TIP3   OH215092   2.009   1.884   5.025
 5043TIP3    H115093   1.934   1.887   4.966
 5043TIP3    H215094   2.072   1.827   4.981
 5044TIP3   OH215095   4.578   5.301   2.065
 5044TIP3    H115096   4.567   5.214   2.104
 5044TIP3    H215097   4.537   5.361   2.128
 5045TIP3   OH215098   1.834   5.465   0.732
 5045TIP3    H115099   1.796   5.399   0.674
 5045TIP3    H215100   1.762   5.525   0.751
 5046TIP3   OH215101   6.517   0.373   2.342
 5046TIP3    H115102   6.597   0.426   2.343
 5046TIP3    H215103   6.548   0.283   2.344
 5047TIP3   OH215104   5.313   0.707   0.779
 5047TIP3    H115105   5.404   0.697   0.751
 5047TIP3    H215106   5.319   0.743   0.867
 5048TIP3   OH215107   3.789   5.457   0.737
 5048TIP3    H115108   3.698   5.471   0.709
 5048TIP3    H215109   3.838   5.451   0.655
 5049TIP3   OH215110   2.207   5.162   2.467
 5049TIP3    H115111   2.193   5.215   2.546
 5049TIP3    H215112   2.218   5.227   2.397
 5050TIP3   OH215113   3.633   0.359   4.095
 5050TIP3    H115114   3.689   0.406   4.157
 5050TIP3    H215115   3.611   0.424   4.028
 5051TIP3   OH215116   5.810   2.722   0.656
 5051TIP3    H115117   5.824   2.629   0.641
 5051TIP3    H215118   5.897   2.761   0.653
 5052TIP3   OH215119   5.671   1.202   5.363
 5052TIP3    H115120   5.663   1.298   5.364
 5052TIP3    H215121   5.662   1.177   5.455
 5053TIP3   OH215122   5.245   4.956   5.721
 5053TIP3    H115123   5.255   4.864   5.699
 5053TIP3    H215124   5.333   4.993   5.712
 5054TIP3   OH215125   2.852   5.469   5.394
 5054TIP3    H115126   2.863   5.379   5.363
 5054TIP3    H215127   2.758   5.478   5.410
 5055TIP3   OH215128   0.013   2.315   3.000
 5055TIP3    H115129   0.021   2.276   2.913
 5055TIP3    H215130   0.073   2.389   2.999
 5056TIP3   OH215131   6.580   4.290   4.737
 5056TIP3    H115132   6.600   4.273   4.645
 5056TIP3    H215133   6.578   4.385   4.744
 5057TIP3   OH215134   3.893   3.024   0.845
 5057TIP3    H115135   3.798   3.020   0.838
 5057TIP3    H215136   3.913   2.977   0.926
 5058TIP3   OH215137   0.522   5.487   0.039
 5058TIP3    H115138   0.551   5.470  -0.051
 5058TIP3    H215139   0.434   5.525   0.028
 5059TIP3   OH215140   0.443   2.537   5.346
 5059TIP3    H115141   0.399   2.488   5.416
 5059TIP3    H215142   0.528   2.560   5.382
 5060TIP3   OH215143   5.306   6.761   5.890
 5060TIP3    H115144   5.291   6.671   5.862
 5060TIP3    H215145   5.219   6.799   5.900
 5061TIP3   OH215146   7.118   3.880   0.893
 5061TIP3    H115147   7.043   3.828   0.863
 5061TIP3    H215148   7.187   3.863   0.829
 5062TIP3   OH215149   0.964   4.754   0.995
 5062TIP3    H115150   1.003   4.835   0.962
 5062TIP3    H215151   1.030   4.719   1.056
 5063TIP3   OH215152   5.380   6.616   5.206
 5063TIP3    H115153   5.291   6.580   5.208
 5063TIP3    H215154   5.436   6.541   5.183
 5064TIP3   OH215155   1.692   1.328   5.239
 5064TIP3    H115156   1.690   1.233   5.241
 5064TIP3    H215157   1.757   1.352   5.306
 5065TIP3   OH215158   3.218   6.449   4.228
 5065TIP3    H115159   3.154   6.517   4.209
 5065TIP3    H215160   3.289   6.465   4.166
 5066TIP3   OH215161   2.176   0.715   2.442
 5066TIP3    H115162   2.174   0.695   2.536
 5066TIP3    H215163   2.094   0.762   2.427
 5067TIP3   OH215164   0.239   5.677   3.925
 5067TIP3    H115165   0.313   5.737   3.923
 5067TIP3    H215166   0.202   5.682   3.836
 5068TIP3   OH215167   1.094   3.458   1.657
 5068TIP3    H115168   1.188   3.447   1.653
 5068TIP3    H215169   1.064   3.395   1.722
 5069TIP3   OH215170   2.615   6.388   5.187
 5069TIP3    H115171   2.606   6.320   5.253
 5069TIP3    H215172   2.566   6.462   5.222
 5070TIP3   OH215173   1.581   4.306   4.246
 5070TIP3    H115174   1.650   4.298   4.312
 5070TIP3    H215175   1.550   4.396   4.253
 5071TIP3   OH215176   2.263   3.201   5.139
 5071TIP3    H115177   2.279   3.191   5.232
 5071TIP3    H215178   2.274   3.295   5.123
 5072TIP3   OH215179   6.560   2.974   1.348
 5072TIP3    H115180   6.510   2.897   1.319
 5072TIP3    H215181   6.629   2.984   1.282
 5073TIP3   OH215182   3.813   6.411   3.540
 5073TIP3    H115183   3.851   6.328   3.511
 5073TIP3    H215184   3.802   6.400   3.635
 5074TIP3   OH215185   2.473   2.556   0.215
 5074TIP3    H115186   2.507   2.638   0.179
 5074TIP3    H215187   2.396   2.537   0.162
 5075TIP3   OH215188   1.471   2.669   5.378
 5075TIP3    H115189   1.495   2.581   5.347
 5075TIP3    H215190   1.527   2.683   5.454
 5076TIP3   OH215191   3.558   5.131   3.902
 5076TIP3    H115192   3.590   5.200   3.844
 5076TIP3    H215193   3.508   5.178   3.969
 5077TIP3   OH215194   3.066   4.407   4.621
 5077TIP3    H115195   3.052   4.493   4.659
 5077TIP3    H215196   3.071   4.423   4.527
 5078TIP3   OH215197   0.203   0.136   0.606
 5078TIP3    H115198   0.166   0.203   0.548
 5078TIP3    H215199   0.296   0.134   0.584
 5079TIP3   OH215200   0.268   2.134   1.801
 5079TIP3    H115201   0.172   2.136   1.798
 5079TIP3    H215202   0.292   2.063   1.740
 5080TIP3   OH215203   3.725   2.797   1.514
 5080TIP3    H115204   3.732   2.798   1.610
 5080TIP3    H215205   3.717   2.705   1.492
 5081TIP3   OH215206   6.919   6.681   2.610
 5081TIP3    H115207   6.912   6.596   2.565
 5081TIP3    H215208   6.888   6.663   2.699
 5082TIP3   OH215209   1.021   1.875   3.617
 5082TIP3    H115210   1.080   1.879   3.541
 5082TIP3    H215211   1.041   1.955   3.666
 5083TIP3   OH215212   5.523   2.767   1.555
 5083TIP3    H115213   5.499   2.696   1.614
 5083TIP3    H215214   5.544   2.840   1.613
 5084TIP3   OH215215   2.330   5.688   1.527
 5084TIP3    H115216   2.382   5.765   1.503
 5084TIP3    H215217   2.315   5.697   1.621
 5085TIP3   OH215218   6.820   4.968   4.218
 5085TIP3    H115219   6.786   4.922   4.141
 5085TIP3    H215220   6.779   4.923   4.293
 5086TIP3   OH215221   2.300   6.764   2.883
 5086TIP3    H115222   2.265   6.762   2.794
 5086TIP3    H215223   2.250   6.696   2.929
 5087TIP3   OH215224   6.538   1.864   5.200
 5087TIP3    H115225   6.607   1.924   5.170
 5087TIP3    H215226   6.518   1.894   5.289
 5088TIP3   OH215227   5.322   3.016   5.526
 5088TIP3    H115228   5.384   3.060   5.469
 5088TIP3    H215229   5.351   2.925   5.527
 5089TIP3   OH215230   2.140   5.632   3.577
 5089TIP3    H115231   2.072   5.645   3.510
 5089TIP3    H215232   2.121   5.697   3.644
 5090TIP3   OH215233   5.737   2.083   3.583
 5090TIP3    H115234   5.748   2.015   3.650
 5090TIP3    H215235   5.642   2.091   3.574
 5091TIP3   OH215236   2.591   4.608   5.738
 5091TIP3    H115237   2.637   4.675   5.687
 5091TIP3    H215238   2.633   4.610   5.824
 5092TIP3   OH215239   0.412   4.713   1.649
 5092TIP3    H115240   0.407   4.789   1.706
 5092TIP3    H215241   0.492   4.668   1.675
 5093TIP3   OH215242   2.392   2.830   3.748
 5093TIP3    H115243   2.326   2.818   3.680
 5093TIP3    H215244   2.342   2.834   3.830
 5094TIP3   OH215245   0.587   4.015   0.827
 5094TIP3    H115246   0.560   3.959   0.754
 5094TIP3    H215247   0.667   4.056   0.797
 5095TIP3   OH215248   6.254   5.150   4.270
 5095TIP3    H115249   6.303   5.190   4.198
 5095TIP3    H215250   6.192   5.092   4.227
 5096TIP3   OH215251   2.335   0.105   0.854
 5096TIP3    H115252   2.334   0.112   0.758
 5096TIP3    H215253   2.320   0.195   0.884
 5097TIP3   OH215254   0.299   5.380   1.368
 5097TIP3    H115255   0.260   5.345   1.448
 5097TIP3    H215256   0.321   5.471   1.390
 5098TIP3   OH215257   0.484   4.703   2.648
 5098TIP3    H115258   0.534   4.773   2.689
 5098TIP3    H215259   0.394   4.737   2.645
 5099TIP3   OH215260   6.910   2.297   3.747
 5099TIP3    H115261   6.981   2.346   3.705
 5099TIP3    H215262   6.953   2.248   3.817
 5100TIP3   OH215263   3.055   2.564   3.012
 5100TIP3    H115264   3.127   2.625   3.027
 5100TIP3    H215265   3.032   2.575   2.920
 5101TIP3   OH215266   2.374   5.145   2.991
 5101TIP3    H115267   2.403   5.196   2.915
 5101TIP3    H215268   2.442   5.158   3.057
 5102TIP3   OH215269   3.247   2.194   5.508
 5102TIP3    H115270   3.196   2.214   5.430
 5102TIP3    H215271   3.234   2.270   5.565
 5103TIP3   OH215272   3.871   2.740   4.870
 5103TIP3    H115273   3.822   2.814   4.836
 5103TIP3    H215274   3.951   2.738   4.818
 5104TIP3   OH215275   2.141   1.199   5.481
 5104TIP3    H115276   2.065   1.211   5.424
 5104TIP3    H215277   2.124   1.118   5.528
 5105TIP3   OH215278   1.256   0.284   1.504
 5105TIP3    H115279   1.233   0.324   1.588
 5105TIP3    H215280   1.349   0.305   1.493
 5106TIP3   OH215281   2.861   5.214   0.638
 5106TIP3    H115282   2.867   5.121   0.658
 5106TIP3    H215283   2.909   5.225   0.556
 5107TIP3   OH215284   3.535   1.776   4.011
 5107TIP3    H115285   3.517   1.829   4.089
 5107TIP3    H215286   3.461   1.794   3.952
 5108TIP3   OH215287   1.640   1.049   2.955
 5108TIP3    H115288   1.626   1.136   2.918
 5108TIP3    H215289   1.735   1.039   2.958
 5109TIP3   OH215290   5.001   0.735   0.735
 5109TIP3    H115291   5.023   0.785   0.814
 5109TIP3    H215292   5.051   0.779   0.665
 5110TIP3   OH215293   4.342   0.551   0.250
 5110TIP3    H115294   4.351   0.558   0.155
 5110TIP3    H215295   4.272   0.487   0.262
 5111TIP3   OH215296   0.564   6.335   4.220
 5111TIP3    H115297   0.625   6.264   4.240
 5111TIP3    H215298   0.574   6.397   4.292
 5112TIP3   OH215299   0.497   5.299   2.234
 5112TIP3    H115300   0.593   5.303   2.244
 5112TIP3    H215301   0.469   5.390   2.241
 5113TIP3   OH215302   6.597   3.245   1.560
 5113TIP3    H115303   6.656   3.262   1.487
 5113TIP3    H215304   6.601   3.325   1.613
 5114TIP3   OH215305   3.938   0.970   5.804
 5114TIP3    H115306   3.999   0.969   5.878
 5114TIP3    H215307   3.993   0.984   5.727
 5115TIP3   OH215308   4.299   3.560   3.149
 5115TIP3    H115309   4.362   3.587   3.216
 5115TIP3    H215310   4.234   3.629   3.149
 5116TIP3   OH215311   5.792   3.783   4.140
 5116TIP3    H115312   5.789   3.779   4.235
 5116TIP3    H215313   5.838   3.864   4.120
 5117TIP3   OH215314   1.243   5.964   1.196
 5117TIP3    H115315   1.299   5.979   1.273
 5117TIP3    H215316   1.303   5.937   1.127
 5118TIP3   OH215317   1.056   5.283   3.043
 5118TIP3    H115318   0.989   5.351   3.045
 5118TIP3    H215319   1.137   5.329   3.066
 5119TIP3   OH215320   2.638   3.161   5.035
 5119TIP3    H115321   2.712   3.155   5.095
 5119TIP3    H215322   2.564   3.125   5.084
 5120TIP3   OH215323   4.621   5.457   4.012
 5120TIP3    H115324   4.601   5.536   4.062
 5120TIP3    H215325   4.703   5.477   3.967
 5121TIP3   OH215326   4.089   5.079   1.799
 5121TIP3    H115327   4.038   5.158   1.779
 5121TIP3    H215328   4.129   5.097   1.884
 5122TIP3   OH215329   1.128   2.979   2.034
 5122TIP3    H115330   1.184   2.970   1.957
 5122TIP3    H215331   1.051   2.926   2.013
 5123TIP3   OH215332   0.783   6.071   5.608
 5123TIP3    H115333   0.752   6.075   5.518
 5123TIP3    H215334   0.837   5.992   5.611
 5124TIP3   OH215335   4.177   1.756   4.156
 5124TIP3    H115336   4.125   1.753   4.076
 5124TIP3    H215337   4.113   1.747   4.227
 5125TIP3   OH215338   0.238   6.373   1.472
 5125TIP3    H115339   0.217   6.456   1.429
 5125TIP3    H215340   0.174   6.366   1.543
 5126TIP3   OH215341   2.664   3.245   1.868
 5126TIP3    H115342   2.759   3.249   1.884
 5126TIP3    H215343   2.625   3.273   1.951
 5127TIP3   OH215344   2.908   1.509   0.686
 5127TIP3    H115345   2.969   1.499   0.613
 5127TIP3    H215346   2.956   1.560   0.751
 5128TIP3   OH215347   0.336   4.660   5.381
 5128TIP3    H115348   0.388   4.733   5.349
 5128TIP3    H215349   0.263   4.653   5.319
 5129TIP3   OH215350   4.498   1.920   2.260
 5129TIP3    H115351   4.575   1.970   2.233
 5129TIP3    H215352   4.505   1.914   2.355
 5130TIP3   OH215353   4.742   5.083   0.273
 5130TIP3    H115354   4.700   5.085   0.187
 5130TIP3    H215355   4.831   5.115   0.257
 5131TIP3   OH215356   5.411   0.280   4.233
 5131TIP3    H115357   5.370   0.338   4.168
 5131TIP3    H215358   5.348   0.209   4.245
 5132TIP3   OH215359   3.931   5.853   3.858
 5132TIP3    H115360   3.977   5.788   3.912
 5132TIP3    H215361   3.865   5.803   3.810
 5133TIP3   OH215362   2.554   6.562   3.464
 5133TIP3    H115363   2.566   6.496   3.532
 5133TIP3    H215364   2.632   6.554   3.409
 5134TIP3   OH215365   5.020   1.663   2.107
 5134TIP3    H115366   4.998   1.657   2.014
 5134TIP3    H215367   4.941   1.633   2.152
 5135TIP3   OH215368   3.383   1.181   2.881
 5135TIP3    H115369   3.387   1.130   2.962
 5135TIP3    H215370   3.396   1.272   2.908
 5136TIP3   OH215371   1.640   4.350   2.805
 5136TIP3    H115372   1.587   4.331   2.728
 5136TIP3    H215373   1.625   4.443   2.822
 5137TIP3   OH215374   3.353   1.756   5.699
 5137TIP3    H115375   3.304   1.834   5.725
 5137TIP3    H215376   3.425   1.750   5.761
 5138TIP3   OH215377   3.399   2.598   5.007
 5138TIP3    H115378   3.337   2.671   5.010
 5138TIP3    H215379   3.347   2.522   5.035
 5139TIP3   OH215380   1.889   1.231   5.044
 5139TIP3    H115381   1.952   1.202   4.978
 5139TIP3    H215382   1.864   1.152   5.091
 5140TIP3   OH215383   3.563   2.273   2.568
 5140TIP3    H115384   3.601   2.358   2.589
 5140TIP3    H215385   3.617   2.210   2.616
 5141TIP3   OH215386   6.874   2.181   1.627
 5141TIP3    H115387   6.931   2.152   1.556
 5141TIP3    H215388   6.923   2.160   1.707
 5142TIP3   OH215389   4.983   6.662   4.587
 5142TIP3    H115390   5.067   6.630   4.553
 5142TIP3    H215391   4.990   6.757   4.582
 5143TIP3   OH215392   3.839   2.709   5.582
 5143TIP3    H115393   3.831   2.664   5.498
 5143TIP3    H215394   3.930   2.697   5.607
 5144TIP3   OH215395   2.950   3.111   3.563
 5144TIP3    H115396   2.890   3.178   3.529
 5144TIP3    H215397   2.898   3.064   3.629
 5145TIP3   OH215398   4.719   2.203   2.812
 5145TIP3    H115399   4.781   2.164   2.750
 5145TIP3    H215400   4.633   2.182   2.776
 5146TIP3   OH215401   4.527   0.999   5.537
 5146TIP3    H115402   4.461   0.930   5.542
 5146TIP3    H215403   4.571   0.997   5.622
 5147TIP3   OH215404   0.388   5.821   5.766
 5147TIP3    H115405   0.474   5.799   5.801
 5147TIP3    H215406   0.385   5.916   5.768
 5148TIP3   OH215407   0.484   5.127   3.845
 5148TIP3    H115408   0.426   5.052   3.860
 5148TIP3    H215409   0.565   5.088   3.812
 5149TIP3   OH215410   5.659   5.800   0.756
 5149TIP3    H115411   5.730   5.758   0.707
 5149TIP3    H215412   5.593   5.732   0.765
 5150TIP3   OH215413   2.535   0.608   2.451
 5150TIP3    H115414   2.614   0.619   2.505
 5150TIP3    H215415   2.568   0.596   2.362
 5151TIP3   OH215416   7.124   5.023   1.343
 5151TIP3    H115417   7.121   4.928   1.356
 5151TIP3    H215418   7.061   5.040   1.273
 5152TIP3   OH215419   0.617   0.478   4.975
 5152TIP3    H115420   0.548   0.451   5.036
 5152TIP3    H215421   0.579   0.552   4.928
 5153TIP3   OH215422   6.383   1.121   2.040
 5153TIP3    H115423   6.474   1.105   2.064
 5153TIP3    H215424   6.355   1.041   1.995
 5154TIP3   OH215425   0.176   3.633   1.375
 5154TIP3    H115426   0.140   3.639   1.463
 5154TIP3    H215427   0.171   3.540   1.354
 5155TIP3   OH215428   6.632   6.017   3.987
 5155TIP3    H115429   6.598   6.071   3.915
 5155TIP3    H215430   6.565   6.024   4.055
 5156TIP3   OH215431   2.090   3.776   1.506
 5156TIP3    H115432   2.013   3.832   1.494
 5156TIP3    H215433   2.119   3.755   1.418
 5157TIP3   OH215434   1.007   0.556   3.940
 5157TIP3    H115435   1.074   0.489   3.939
 5157TIP3    H215436   0.926   0.510   3.916
 5158TIP3   OH215437   6.972   1.933   1.726
 5158TIP3    H115438   6.975   2.003   1.792
 5158TIP3    H215439   7.051   1.882   1.742
 5159TIP3   OH215440   5.889   0.813   2.175
 5159TIP3    H115441   5.896   0.904   2.147
 5159TIP3    H215442   5.815   0.778   2.125
 5160TIP3   OH215443   1.370   3.737   1.915
 5160TIP3    H115444   1.462   3.750   1.895
 5160TIP3    H215445   1.352   3.647   1.889
 5161TIP3   OH215446   0.955   1.034   5.779
 5161TIP3    H115447   0.936   1.084   5.700
 5161TIP3    H215448   0.874   0.984   5.795
 5162TIP3   OH215449   0.254   1.085   2.778
 5162TIP3    H115450   0.293   1.089   2.691
 5162TIP3    H215451   0.312   1.137   2.833
 5163TIP3   OH215452   1.021   5.267   1.213
 5163TIP3    H115453   1.093   5.326   1.236
 5163TIP3    H215454   0.943   5.309   1.249
 5164TIP3   OH215455   3.583   6.612   2.143
 5164TIP3    H115456   3.521   6.659   2.199
 5164TIP3    H215457   3.560   6.639   2.054
 5165TIP3   OH215458   5.471   5.667   5.092
 5165TIP3    H115459   5.398   5.607   5.105
 5165TIP3    H215460   5.471   5.686   4.998
 5166TIP3   OH215461   1.329   5.749   5.786
 5166TIP3    H115462   1.333   5.773   5.879
 5166TIP3    H215463   1.279   5.819   5.745
 5167TIP3   OH215464   0.992   0.402   5.853
 5167TIP3    H115465   0.933   0.363   5.789
 5167TIP3    H215466   1.019   0.485   5.814
 5168TIP3   OH215467   5.478   2.069   5.418
 5168TIP3    H115468   5.488   2.145   5.361
 5168TIP3    H215469   5.384   2.057   5.426
 5169TIP3   OH215470   3.544   2.067   2.259
 5169TIP3    H115471   3.545   2.161   2.241
 5169TIP3    H215472   3.631   2.037   2.235
 5170TIP3   OH215473   0.912   6.647   4.070
 5170TIP3    H115474   0.846   6.680   4.132
 5170TIP3    H215475   0.862   6.627   3.991
 5171TIP3   OH215476   4.560   2.125   1.441
 5171TIP3    H115477   4.482   2.135   1.495
 5171TIP3    H215478   4.626   2.088   1.500
 5172TIP3   OH215479   6.124   6.327   4.680
 5172TIP3    H115480   6.117   6.259   4.747
 5172TIP3    H215481   6.092   6.286   4.600
 5173TIP3   OH215482   0.716   6.763   4.230
 5173TIP3    H115483   0.706   6.858   4.240
 5173TIP3    H215484   0.633   6.727   4.259
 5174TIP3   OH215485   1.209   3.631   0.576
 5174TIP3    H115486   1.184   3.541   0.597
 5174TIP3    H215487   1.283   3.649   0.634
 5175TIP3   OH215488   6.847   5.135   1.500
 5175TIP3    H115489   6.874   5.213   1.450
 5175TIP3    H215490   6.780   5.094   1.445
 5176TIP3   OH215491   6.191   0.914   5.258
 5176TIP3    H115492   6.162   0.941   5.171
 5176TIP3    H215493   6.247   0.839   5.243
 5177TIP3   OH215494   3.291   1.961   1.710
 5177TIP3    H115495   3.196   1.950   1.712
 5177TIP3    H215496   3.326   1.872   1.706
 5178TIP3   OH215497   1.812   5.702   5.845
 5178TIP3    H115498   1.736   5.687   5.789
 5178TIP3    H215499   1.862   5.770   5.799
 5179TIP3   OH215500   4.516   5.467   5.629
 5179TIP3    H115501   4.583   5.432   5.687
 5179TIP3    H215502   4.438   5.415   5.647
 5180TIP3   OH215503   5.581   5.954   0.524
 5180TIP3    H115504   5.574   5.894   0.599
 5180TIP3    H215505   5.609   5.898   0.451
 5181TIP3   OH215506   3.554   3.656   2.734
 5181TIP3    H115507   3.464   3.677   2.761
 5181TIP3    H215508   3.560   3.561   2.742
 5182TIP3   OH215509   4.429   1.320   2.210
 5182TIP3    H115510   4.339   1.352   2.206
 5182TIP3    H215511   4.479   1.383   2.158
 5183TIP3   OH215512   4.033   0.799   2.438
 5183TIP3    H115513   4.031   0.782   2.344
 5183TIP3    H215514   4.034   0.894   2.446
 5184TIP3   OH215515   3.321   5.875   0.179
 5184TIP3    H115516   3.352   5.784   0.179
 5184TIP3    H215517   3.238   5.873   0.133
 5185TIP3   OH215518   6.436   4.472   4.002
 5185TIP3    H115519   6.436   4.407   3.932
 5185TIP3    H215520   6.354   4.458   4.048
 5186TIP3   OH215521   5.764   5.511   0.356
 5186TIP3    H115522   5.812   5.565   0.294
 5186TIP3    H215523   5.788   5.546   0.442
 5187TIP3   OH215524   5.031   1.335   0.773
 5187TIP3    H115525   5.024   1.301   0.684
 5187TIP3    H215526   5.008   1.260   0.829
 5188TIP3   OH215527   6.681   4.940   3.872
 5188TIP3    H115528   6.649   4.900   3.791
 5188TIP3    H215529   6.774   4.957   3.855
 5189TIP3   OH215530   2.539   3.682   5.411
 5189TIP3    H115531   2.521   3.639   5.327
 5189TIP3    H215532   2.542   3.611   5.474
 5190TIP3   OH215533   6.049   0.294   0.916
 5190TIP3    H115534   6.031   0.220   0.974
 5190TIP3    H215535   6.113   0.260   0.853
 5191TIP3   OH215536   0.765   6.790   3.283
 5191TIP3    H115537   0.711   6.857   3.324
 5191TIP3    H215538   0.753   6.713   3.338
 5192TIP3   OH215539   5.959   6.524   4.393
 5192TIP3    H115540   5.881   6.557   4.436
 5192TIP3    H215541   5.955   6.429   4.405
 5193TIP3   OH215542   1.014   5.333   2.723
 5193TIP3    H115543   0.996   5.318   2.630
 5193TIP3    H215544   1.073   5.263   2.748
 5194TIP3   OH215545   0.483   3.732   3.311
 5194TIP3    H115546   0.441   3.705   3.229
 5194TIP3    H215547   0.411   3.739   3.374
 5195TIP3   OH215548   6.521   0.665   2.810
 5195TIP3    H115549   6.581   0.599   2.776
 5195TIP3    H215550   6.484   0.706   2.732
 5196TIP3   OH215551   4.171   4.084   0.099
 5196TIP3    H115552   4.137   3.994   0.100
 5196TIP3    H215553   4.266   4.073   0.103
 5197TIP3   OH215554   1.754   2.670   4.771
 5197TIP3    H115555   1.693   2.740   4.796
 5197TIP3    H215556   1.748   2.665   4.676
 5198TIP3   OH215557   4.731   2.725   1.291
 5198TIP3    H115558   4.710   2.658   1.356
 5198TIP3    H215559   4.736   2.806   1.342
 5199TIP3   OH215560   6.448   0.309   2.841
 5199TIP3    H115561   6.368   0.319   2.894
 5199TIP3    H215562   6.487   0.396   2.839
 5200TIP3   OH215563   5.839   2.376   4.481
 5200TIP3    H115564   5.857   2.327   4.560
 5200TIP3    H215565   5.870   2.320   4.410
 5201TIP3   OH215566   5.668   4.938   2.969
 5201TIP3    H115567   5.712   4.968   3.048
 5201TIP3    H215568   5.714   4.859   2.943
 5202TIP3   OH215569   6.505   5.062   0.450
 5202TIP3    H115570   6.493   5.078   0.544
 5202TIP3    H215571   6.423   5.091   0.410
 5203TIP3   OH215572   1.293   4.664   1.022
 5203TIP3    H115573   1.274   4.604   1.094
 5203TIP3    H215574   1.360   4.723   1.057
 5204TIP3   OH215575   2.247   3.219   2.049
 5204TIP3    H115576   2.274   3.278   1.979
 5204TIP3    H215577   2.214   3.142   2.004
 5205TIP3   OH215578   3.621   4.417   1.523
 5205TIP3    H115579   3.541   4.423   1.574
 5205TIP3    H215580   3.631   4.323   1.504
 5206TIP3   OH215581   1.438   2.622   0.375
 5206TIP3    H115582   1.438   2.576   0.290
 5206TIP3    H215583   1.351   2.662   0.380
 5207TIP3   OH215584   5.645   3.375   5.237
 5207TIP3    H115585   5.566   3.322   5.240
 5207TIP3    H215586   5.706   3.324   5.182
 5208TIP3   OH215587   5.111   1.266   3.396
 5208TIP3    H115588   5.107   1.361   3.412
 5208TIP3    H215589   5.024   1.244   3.360
 5209TIP3   OH215590   0.984   3.916   4.129
 5209TIP3    H115591   0.974   3.914   4.224
 5209TIP3    H215592   0.969   4.007   4.105
 5210TIP3   OH215593   6.367   0.133   1.008
 5210TIP3    H115594   6.325   0.055   0.972
 5210TIP3    H215595   6.449   0.142   0.959
 5211TIP3   OH215596   3.329   4.043   2.196
 5211TIP3    H115597   3.373   3.962   2.220
 5211TIP3    H215598   3.349   4.054   2.103
 5212TIP3   OH215599   2.833   2.886   0.455
 5212TIP3    H115600   2.906   2.948   0.463
 5212TIP3    H215601   2.772   2.912   0.523
 5213TIP3   OH215602   4.590   4.369   5.227
 5213TIP3    H115603   4.632   4.284   5.233
 5213TIP3    H215604   4.505   4.357   5.269
 5214TIP3   OH215605   1.013   0.808   2.755
 5214TIP3    H115606   1.022   0.888   2.704
 5214TIP3    H215607   1.072   0.746   2.713
 5215TIP3   OH215608   6.211   5.806   4.014
 5215TIP3    H115609   6.136   5.802   3.954
 5215TIP3    H215610   6.180   5.763   4.094
 5216TIP3   OH215611   1.201   2.062   5.778
 5216TIP3    H115612   1.225   2.151   5.803
 5216TIP3    H215613   1.138   2.034   5.845
 5217TIP3   OH215614   0.393   6.027   0.732
 5217TIP3    H115615   0.473   6.018   0.785
 5217TIP3    H215616   0.350   5.942   0.740
 5218TIP3   OH215617   6.378   2.790   1.231
 5218TIP3    H115618   6.387   2.758   1.321
 5218TIP3    H215619   6.371   2.710   1.179
 5219TIP3   OH215620   6.668   6.744   4.365
 5219TIP3    H115621   6.661   6.722   4.458
 5219TIP3    H215622   6.600   6.692   4.322
 5220TIP3   OH215623   4.466   4.424   3.245
 5220TIP3    H115624   4.538   4.465   3.198
 5220TIP3    H215625   4.397   4.491   3.247
 5221TIP3   OH215626   2.607   2.415   5.025
 5221TIP3    H115627   2.550   2.366   5.085
 5221TIP3    H215628   2.572   2.504   5.028
 5222TIP3   OH215629   4.845   3.128   5.157
 5222TIP3    H115630   4.904   3.058   5.184
 5222TIP3    H215631   4.856   3.197   5.222
 5223TIP3   OH215632   2.483   6.461   5.812
 5223TIP3    H115633   2.389   6.460   5.793
 5223TIP3    H215634   2.525   6.473   5.727
 5224TIP3   OH215635   0.995   2.021   2.784
 5224TIP3    H115636   0.944   2.102   2.781
 5224TIP3    H215637   0.943   1.959   2.733
 5225TIP3   OH215638   1.861   6.743   1.165
 5225TIP3    H115639   1.925   6.673   1.149
 5225TIP3    H215640   1.778   6.696   1.177
 5226TIP3   OH215641   5.388   4.190   3.016
 5226TIP3    H115642   5.402   4.096   3.020
 5226TIP3    H215643   5.298   4.200   2.983
 5227TIP3   OH215644   3.004   0.865   1.102
 5227TIP3    H115645   2.951   0.831   1.174
 5227TIP3    H215646   3.092   0.870   1.138
 5228TIP3   OH215647   1.846   2.866   1.115
 5228TIP3    H115648   1.766   2.917   1.114
 5228TIP3    H215649   1.890   2.891   1.196
 5229TIP3   OH215650   3.673   1.216   4.954
 5229TIP3    H115651   3.711   1.135   4.988
 5229TIP3    H215652   3.579   1.199   4.952
 5230TIP3   OH215653   4.114   4.972   5.418
 5230TIP3    H115654   4.180   5.036   5.447
 5230TIP3    H215655   4.033   5.002   5.460
 5231TIP3   OH215656   5.111   3.508   4.946
 5231TIP3    H115657   5.035   3.454   4.965
 5231TIP3    H215658   5.162   3.458   4.882
 5232TIP3   OH215659   1.201   2.151   4.876
 5232TIP3    H115660   1.115   2.113   4.859
 5232TIP3    H215661   1.182   2.243   4.896
 5233TIP3   OH215662   4.377   4.342   2.346
 5233TIP3    H115663   4.379   4.437   2.335
 5233TIP3    H215664   4.385   4.328   2.440
 5234TIP3   OH215665   6.279   1.595   4.883
 5234TIP3    H115666   6.249   1.611   4.793
 5234TIP3    H215667   6.373   1.615   4.880
 5235TIP3   OH215668   0.672   4.769   0.390
 5235TIP3    H115669   0.746   4.753   0.448
 5235TIP3    H215670   0.699   4.842   0.334
 5236TIP3   OH215671   5.554   1.120   3.845
 5236TIP3    H115672   5.501   1.076   3.912
 5236TIP3    H215673   5.524   1.211   3.846
 5237TIP3   OH215674   0.908   3.577   5.005
 5237TIP3    H115675   0.850   3.528   5.063
 5237TIP3    H215676   0.944   3.647   5.060
 5238TIP3   OH215677   1.432   2.410   2.268
 5238TIP3    H115678   1.399   2.326   2.236
 5238TIP3    H215679   1.459   2.393   2.358
 5239TIP3   OH215680   6.281   1.266   5.171
 5239TIP3    H115681   6.237   1.331   5.115
 5239TIP3    H215682   6.226   1.260   5.249
 5240TIP3   OH215683   4.660   2.562   2.674
 5240TIP3    H115684   4.707   2.485   2.641
 5240TIP3    H215685   4.576   2.560   2.629
 5241TIP3   OH215686   7.166   1.535   3.774
 5241TIP3    H115687   7.164   1.547   3.679
 5241TIP3    H215688   7.074   1.537   3.800
 5242TIP3   OH215689   6.780   2.991   1.931
 5242TIP3    H115690   6.809   2.910   1.974
 5242TIP3    H215691   6.802   3.060   1.993
 5243TIP3   OH215692   3.711   4.810   5.483
 5243TIP3    H115693   3.750   4.840   5.401
 5243TIP3    H215694   3.624   4.780   5.458
 5244TIP3   OH215695   0.599   5.479   0.780
 5244TIP3    H115696   0.549   5.490   0.699
 5244TIP3    H215697   0.562   5.401   0.821
 5245TIP3   OH215698   0.294   5.511   1.990
 5245TIP3    H115699   0.294   5.530   1.896
 5245TIP3    H215700   0.376   5.549   2.022
 5246TIP3   OH215701   1.998   4.520   3.941
 5246TIP3    H115702   2.080   4.493   3.982
 5246TIP3    H215703   1.930   4.493   4.004
 5247TIP3   OH215704   4.029   0.553   1.371
 5247TIP3    H115705   4.111   0.518   1.407
 5247TIP3    H215706   4.010   0.630   1.424
 5248TIP3   OH215707   0.648   3.161   5.338
 5248TIP3    H115708   0.619   3.082   5.292
 5248TIP3    H215709   0.738   3.142   5.364
 5249TIP3   OH215710   6.223   1.696   2.277
 5249TIP3    H115711   6.295   1.758   2.266
 5249TIP3    H215712   6.149   1.750   2.305
 5250TIP3   OH215713   6.529   0.057   3.495
 5250TIP3    H115714   6.606   0.070   3.551
 5250TIP3    H215715   6.497  -0.030   3.518
 5251TIP3   OH215716   6.359   5.054   1.729
 5251TIP3    H115717   6.315   5.023   1.808
 5251TIP3    H215718   6.447   5.079   1.757
 5252TIP3   OH215719   0.280   1.843   3.893
 5252TIP3    H115720   0.369   1.869   3.916
 5252TIP3    H215721   0.228   1.864   3.970
 5253TIP3   OH215722   2.729   1.565   3.350
 5253TIP3    H115723   2.736   1.598   3.261
 5253TIP3    H215724   2.763   1.635   3.405
 5254TIP3   OH215725   4.883   1.340   5.781
 5254TIP3    H115726   4.936   1.280   5.728
 5254TIP3    H215727   4.831   1.389   5.717
 5255TIP3   OH215728   3.955   0.400   0.926
 5255TIP3    H115729   3.926   0.393   1.017
 5255TIP3    H215730   3.884   0.360   0.875
 5256TIP3   OH215731   6.456   1.981   3.963
 5256TIP3    H115732   6.541   2.025   3.962
 5256TIP3    H215733   6.399   2.040   3.913
 5257TIP3   OH215734   3.864   6.730   0.825
 5257TIP3    H115735   3.781   6.706   0.866
 5257TIP3    H215736   3.844   6.809   0.775
 5258TIP3   OH215737   5.851   1.262   3.826
 5258TIP3    H115738   5.761   1.255   3.859
 5258TIP3    H215739   5.904   1.280   3.903
 5259TIP3   OH215740   1.688   5.727   2.752
 5259TIP3    H115741   1.680   5.822   2.755
 5259TIP3    H215742   1.606   5.698   2.711
 5260TIP3   OH215743   2.601   6.370   0.261
 5260TIP3    H115744   2.608   6.391   0.354
 5260TIP3    H215745   2.512   6.337   0.250
 5261TIP3   OH215746   6.514   5.114   0.796
 5261TIP3    H115747   6.427   5.074   0.802
 5261TIP3    H215748   6.498   5.207   0.811
 5262TIP3   OH215749   5.967   5.692   5.754
 5262TIP3    H115750   5.947   5.603   5.784
 5262TIP3    H215751   5.911   5.705   5.677
 5263TIP3   OH215752   7.054   6.614   1.059
 5263TIP3    H115753   7.108   6.691   1.079
 5263TIP3    H215754   7.116   6.543   1.049
 5264TIP3   OH215755   0.334   2.396   1.697
 5264TIP3    H115756   0.408   2.334   1.693
 5264TIP3    H215757   0.257   2.340   1.701
 5265TIP3   OH215758   4.645   5.338   1.354
 5265TIP3    H115759   4.718   5.276   1.357
 5265TIP3    H215760   4.684   5.420   1.326
 5266TIP3   OH215761   1.834   3.645   0.873
 5266TIP3    H115762   1.863   3.563   0.913
 5266TIP3    H215763   1.815   3.702   0.948
 5267TIP3   OH215764   6.562   5.676   3.054
 5267TIP3    H115765   6.515   5.743   3.103
 5267TIP3    H215766   6.620   5.635   3.118
 5268TIP3   OH215767   2.292   5.285   0.243
 5268TIP3    H115768   2.384   5.282   0.215
 5268TIP3    H215769   2.291   5.351   0.312
 5269TIP3   OH215770   4.365   5.941   3.938
 5269TIP3    H115771   4.273   5.950   3.914
 5269TIP3    H215772   4.366   5.871   4.003
 5270TIP3   OH215773   3.849   4.123   3.069
 5270TIP3    H115774   3.787   4.175   3.119
 5270TIP3    H215775   3.798   4.093   2.993
 5271TIP3   OH215776   4.357   5.590   2.053
 5271TIP3    H115777   4.306   5.540   2.117
 5271TIP3    H215778   4.369   5.676   2.094
 5272TIP3   OH215779   2.887   4.177   4.395
 5272TIP3    H115780   2.873   4.085   4.416
 5272TIP3    H215781   2.864   4.224   4.475
 5273TIP3   OH215782   3.864   4.017   5.248
 5273TIP3    H115783   3.871   4.074   5.171
 5273TIP3    H215784   3.893   4.072   5.321
 5274TIP3   OH215785   3.231   3.794   2.340
 5274TIP3    H115786   3.223   3.746   2.257
 5274TIP3    H215787   3.149   3.844   2.346
 5275TIP3   OH215788   6.121   4.925   0.105
 5275TIP3    H115789   6.042   4.977   0.090
 5275TIP3    H215790   6.138   4.935   0.199
 5276TIP3   OH215791   0.162   0.774   4.270
 5276TIP3    H115792   0.086   0.754   4.215
 5276TIP3    H215793   0.157   0.709   4.340
 5277TIP3   OH215794   2.710   5.793   4.490
 5277TIP3    H115795   2.745   5.723   4.546
 5277TIP3    H215796   2.625   5.814   4.529
 5278TIP3   OH215797   3.098   2.437   3.275
 5278TIP3    H115798   3.065   2.505   3.216
 5278TIP3    H215799   3.187   2.419   3.243
 5279TIP3   OH215800   1.000   2.680   1.235
 5279TIP3    H115801   1.031   2.722   1.315
 5279TIP3    H215802   1.012   2.747   1.167
 5280TIP3   OH215803   0.739   1.320   2.705
 5280TIP3    H115804   0.774   1.310   2.794
 5280TIP3    H215805   0.816   1.338   2.651
 5281TIP3   OH215806   5.056   5.658   0.650
 5281TIP3    H115807   4.992   5.612   0.595
 5281TIP3    H215808   5.035   5.751   0.637
 5282TIP3   OH215809   0.908   0.601   2.502
 5282TIP3    H115810   0.813   0.607   2.514
 5282TIP3    H215811   0.920   0.588   2.408
 5283TIP3   OH215812   4.292   5.663   5.016
 5283TIP3    H115813   4.271   5.580   5.060
 5283TIP3    H215814   4.268   5.729   5.080
 5284TIP3   OH215815   1.942   2.526   0.734
 5284TIP3    H115816   1.900   2.570   0.661
 5284TIP3    H215817   1.968   2.596   0.793
 5285TIP3   OH215818   2.598   2.243   1.683
 5285TIP3    H115819   2.519   2.202   1.649
 5285TIP3    H215820   2.622   2.188   1.758
 5286TIP3   OH215821   6.849   2.789   4.459
 5286TIP3    H115822   6.905   2.811   4.384
 5286TIP3    H215823   6.911   2.763   4.527
 5287TIP3   OH215824   4.584   2.199   5.098
 5287TIP3    H115825   4.544   2.169   5.179
 5287TIP3    H215826   4.656   2.138   5.082
 5288TIP3   OH215827   6.705   2.401   1.574
 5288TIP3    H115828   6.764   2.332   1.605
 5288TIP3    H215829   6.737   2.422   1.486
 5289TIP3   OH215830   4.064   3.844   1.782
 5289TIP3    H115831   4.066   3.893   1.864
 5289TIP3    H215832   4.020   3.762   1.804
 5290TIP3   OH215833   2.662   0.425   4.163
 5290TIP3    H115834   2.578   0.452   4.126
 5290TIP3    H215835   2.644   0.409   4.256
 5291TIP3   OH215836   6.186   4.860   5.613
 5291TIP3    H115837   6.238   4.785   5.645
 5291TIP3    H215838   6.238   4.896   5.542
 5292TIP3   OH215839   6.306   3.110   2.643
 5292TIP3    H115840   6.277   3.093   2.554
 5292TIP3    H215841   6.332   3.202   2.643
 5293TIP3   OH215842   1.969   6.549   1.801
 5293TIP3    H115843   2.005   6.490   1.735
 5293TIP3    H215844   2.035   6.617   1.812
 5294TIP3   OH215845   5.033   0.273   3.023
 5294TIP3    H115846   4.991   0.196   2.986
 5294TIP3    H215847   5.036   0.335   2.950
 5295TIP3   OH215848   3.095   6.018   2.288
 5295TIP3    H115849   3.111   6.042   2.379
 5295TIP3    H215850   3.135   6.089   2.237
 5296TIP3   OH215851   0.612   5.345   1.938
 5296TIP3    H115852   0.572   5.313   1.858
 5296TIP3    H215853   0.569   5.296   2.008
 5297TIP3   OH215854   1.263   3.559   2.445
 5297TIP3    H115855   1.349   3.539   2.481
 5297TIP3    H215856   1.277   3.566   2.350
 5298TIP3   OH215857   4.336   6.206   4.785
 5298TIP3    H115858   4.373   6.242   4.865
 5298TIP3    H215859   4.344   6.276   4.720
 5299TIP3   OH215860   6.717   2.027   4.296
 5299TIP3    H115861   6.800   2.070   4.313
 5299TIP3    H215862   6.700   2.043   4.203
 5300TIP3   OH215863   6.599   1.960   0.550
 5300TIP3    H115864   6.518   1.940   0.503
 5300TIP3    H215865   6.642   1.875   0.562
 5301TIP3   OH215866   6.862   3.541   5.234
 5301TIP3    H115867   6.817   3.541   5.319
 5301TIP3    H215868   6.796   3.509   5.172
 5302TIP3   OH215869   1.006   6.297   1.557
 5302TIP3    H115870   1.000   6.393   1.564
 5302TIP3    H215871   0.970   6.277   1.471
 5303TIP3   OH215872   6.456   6.522   1.370
 5303TIP3    H115873   6.523   6.566   1.422
 5303TIP3    H215874   6.464   6.430   1.392
 5304TIP3   OH215875   4.240   2.926   5.806
 5304TIP3    H115876   4.153   2.901   5.836
 5304TIP3    H215877   4.233   3.019   5.786
 5305TIP3   OH215878   6.070   5.409   0.177
 5305TIP3    H115879   6.025   5.491   0.198
 5305TIP3    H215880   6.144   5.434   0.122
 5306TIP3   OH215881   6.360   4.135   2.055
 5306TIP3    H115882   6.274   4.132   2.014
 5306TIP3    H215883   6.405   4.057   2.021
 5307TIP3   OH215884   2.675   5.214   1.374
 5307TIP3    H115885   2.762   5.243   1.350
 5307TIP3    H215886   2.681   5.118   1.376
 5308TIP3   OH215887   5.830   6.156   0.093
 5308TIP3    H115888   5.886   6.207   0.151
 5308TIP3    H215889   5.827   6.069   0.132
 5309TIP3   OH215890   7.100   2.553   5.171
 5309TIP3    H115891   7.051   2.599   5.103
 5309TIP3    H215892   7.062   2.585   5.253
 5310TIP3   OH215893   2.931   6.019   3.720
 5310TIP3    H115894   2.987   5.949   3.685
 5310TIP3    H215895   2.888   5.979   3.795
 5311TIP3   OH215896   1.417   6.322   0.464
 5311TIP3    H115897   1.424   6.275   0.548
 5311TIP3    H215898   1.454   6.408   0.481
 5312TIP3   OH215899   2.256   6.128   4.799
 5312TIP3    H115900   2.240   6.089   4.712
 5312TIP3    H215901   2.170   6.127   4.841
 5313TIP3   OH215902   6.092   6.117   4.831
 5313TIP3    H115903   6.150   6.113   4.907
 5313TIP3    H215904   6.077   6.026   4.807
 5314TIP3   OH215905   1.265   5.704   1.314
 5314TIP3    H115906   1.290   5.725   1.404
 5314TIP3    H215907   1.240   5.788   1.276
 5315TIP3   OH215908   5.808   2.580   4.248
 5315TIP3    H115909   5.843   2.631   4.322
 5315TIP3    H215910   5.715   2.570   4.268
 5316TIP3   OH215911   6.314   0.058   2.466
 5316TIP3    H115912   6.255  -0.017   2.477
 5316TIP3    H215913   6.374   0.031   2.397
 5317TIP3   OH215914   5.537   3.668   2.615
 5317TIP3    H115915   5.486   3.748   2.632
 5317TIP3    H215916   5.476   3.597   2.632
 5318TIP3   OH215917   2.411   1.626   2.775
 5318TIP3    H115918   2.398   1.718   2.751
 5318TIP3    H215919   2.373   1.619   2.863
 5319TIP3   OH215920   6.709   2.785   2.255
 5319TIP3    H115921   6.740   2.874   2.271
 5319TIP3    H215922   6.677   2.787   2.165
 5320TIP3   OH215923   1.177   2.735   1.625
 5320TIP3    H115924   1.264   2.773   1.622
 5320TIP3    H215925   1.125   2.789   1.565
 5321TIP3   OH215926   3.731   1.347   2.964
 5321TIP3    H115927   3.766   1.432   2.990
 5321TIP3    H215928   3.655   1.335   3.020
 5322TIP3   OH215929   5.846   3.059   1.900
 5322TIP3    H115930   5.927   3.011   1.916
 5322TIP3    H215931   5.866   3.149   1.927
 5323TIP3   OH215932   5.285   5.301   3.057
 5323TIP3    H115933   5.336   5.220   3.049
 5323TIP3    H215934   5.351   5.368   3.075
 5324TIP3   OH215935   2.796   1.891   2.177
 5324TIP3    H115936   2.799   1.824   2.245
 5324TIP3    H215937   2.703   1.901   2.158
 5325TIP3   OH215938   3.297   5.304   5.755
 5325TIP3    H115939   3.249   5.377   5.795
 5325TIP3    H215940   3.229   5.241   5.732
 5326TIP3   OH215941   5.756   6.701   0.416
 5326TIP3    H115942   5.712   6.780   0.447
 5326TIP3    H215943   5.739   6.636   0.485
 5327TIP3   OH215944   4.436   5.034   3.871
 5327TIP3    H115945   4.363   4.973   3.883
 5327TIP3    H215946   4.419   5.075   3.786
 5328TIP3   OH215947   4.114   0.133   4.514
 5328TIP3    H115948   4.102   0.160   4.423
 5328TIP3    H215949   4.208   0.117   4.523
 5329TIP3   OH215950   1.379   6.510   4.899
 5329TIP3    H115951   1.294   6.554   4.907
 5329TIP3    H215952   1.367   6.449   4.826
 5330TIP3   OH215953   3.900   5.465   0.035
 5330TIP3    H115954   3.872   5.373   0.029
 5330TIP3    H215955   3.946   5.482  -0.047
 5331TIP3   OH215956   1.975   4.089   4.667
 5331TIP3    H115957   1.964   4.061   4.576
 5331TIP3    H215958   1.984   4.184   4.662
 5332TIP3   OH215959   4.919   1.609   2.447
 5332TIP3    H115960   4.874   1.569   2.521
 5332TIP3    H215961   4.879   1.570   2.370
 5333TIP3   OH215962   5.601   2.441   0.445
 5333TIP3    H115963   5.689   2.433   0.482
 5333TIP3    H215964   5.567   2.351   0.444
 5334TIP3   OH215965   2.758   2.289   1.487
 5334TIP3    H115966   2.702   2.245   1.551
 5334TIP3    H215967   2.733   2.381   1.493
 5335TIP3   OH215968   3.360   3.387   0.290
 5335TIP3    H115969   3.355   3.482   0.279
 5335TIP3    H215970   3.442   3.362   0.248
 5336TIP3   OH215971   1.302   6.271   1.434
 5336TIP3    H115972   1.298   6.231   1.521
 5336TIP3    H215973   1.243   6.218   1.381
 5337TIP3   OH215974   2.068   3.473   2.247
 5337TIP3    H115975   1.976   3.461   2.272
 5337TIP3    H215976   2.069   3.456   2.152
 5338TIP3   OH215977   2.296   2.308   1.039
 5338TIP3    H115978   2.254   2.342   0.960
 5338TIP3    H215979   2.236   2.331   1.110
 5339TIP3   OH215980   1.907   5.113   3.072
 5339TIP3    H115981   1.912   5.200   3.031
 5339TIP3    H215982   1.815   5.088   3.066
 5340TIP3   OH215983   4.154   2.400   0.973
 5340TIP3    H115984   4.170   2.474   1.031
 5340TIP3    H215985   4.221   2.407   0.905
 5341TIP3   OH215986   4.523   1.480   0.985
 5341TIP3    H115987   4.604   1.512   0.946
 5341TIP3    H215988   4.531   1.385   0.981
 5342TIP3   OH215989   5.104   1.007   2.799
 5342TIP3    H115990   5.091   0.993   2.893
 5342TIP3    H215991   5.198   1.025   2.791
 5343TIP3   OH215992   2.253   2.290   1.740
 5343TIP3    H115993   2.298   2.269   1.822
 5343TIP3    H215994   2.161   2.300   1.765
 5344TIP3   OH215995   1.474   2.546   4.758
 5344TIP3    H115996   1.518   2.574   4.838
 5344TIP3    H215997   1.534   2.484   4.717
 5345TIP3   OH215998   5.761   5.627   5.074
 5345TIP3    H115999   5.779   5.560   5.007
 5345TIP3    H216000   5.667   5.617   5.092
 5346TIP3   OH216001   4.212   5.884   3.185
 5346TIP3    H116002   4.220   5.905   3.092
 5346TIP3    H216003   4.125   5.915   3.209
 5347TIP3   OH216004   1.372   5.408   5.428
 5347TIP3    H116005   1.304   5.426   5.363
 5347TIP3    H216006   1.328   5.354   5.494
 5348TIP3   OH216007   2.847   5.675   3.416
 5348TIP3    H116008   2.777   5.611   3.403
 5348TIP3    H216009   2.928   5.623   3.415
 5349TIP3   OH216010   5.672   0.671   1.335
 5349TIP3    H116011   5.587   0.716   1.341
 5349TIP3    H216012   5.736   0.742   1.332
 5350TIP3   OH216013   3.482   5.936   1.274
 5350TIP3    H116014   3.513   5.994   1.343
 5350TIP3    H216015   3.558   5.924   1.216
 5351TIP3   OH216016   0.790   2.930   4.807
 5351TIP3    H116017   0.871   2.947   4.759
 5351TIP3    H216018   0.797   2.984   4.886
 5352TIP3   OH216019   1.576   0.982   3.337
 5352TIP3    H116020   1.517   0.938   3.398
 5352TIP3    H216021   1.525   0.989   3.256
 5353TIP3   OH216022   4.004   0.453   5.532
 5353TIP3    H116023   3.916   0.418   5.537
 5353TIP3    H216024   4.055   0.384   5.489
 5354TIP3   OH216025   4.082   2.201   3.762
 5354TIP3    H116026   4.059   2.292   3.742
 5354TIP3    H216027   4.173   2.192   3.733
 5355TIP3   OH216028   1.291   2.752   0.016
 5355TIP3    H116029   1.217   2.811   0.026
 5355TIP3    H216030   1.252   2.665   0.011
 5356TIP3   OH216031   4.294   3.665   3.976
 5356TIP3    H116032   4.287   3.572   3.997
 5356TIP3    H216033   4.204   3.698   3.984
 5357TIP3   OH216034   3.282   3.816   5.332
 5357TIP3    H116035   3.250   3.907   5.332
 5357TIP3    H216036   3.206   3.764   5.309
 5358TIP3   OH216037   0.435   0.864   0.822
 5358TIP3    H116038   0.439   0.883   0.915
 5358TIP3    H216039   0.508   0.914   0.784
 5359TIP3   OH216040   4.796   5.311   4.563
 5359TIP3    H116041   4.739   5.337   4.491
 5359TIP3    H216042   4.741   5.317   4.641
 5360TIP3   OH216043   5.965   2.244   1.100
 5360TIP3    H116044   5.869   2.251   1.102
 5360TIP3    H216045   5.983   2.151   1.110
 5361TIP3   OH216046   4.797   6.494   1.385
 5361TIP3    H116047   4.868   6.515   1.323
 5361TIP3    H216048   4.801   6.564   1.449
 5362TIP3   OH216049   6.444   3.263   0.372
 5362TIP3    H116050   6.482   3.250   0.458
 5362TIP3    H216051   6.484   3.196   0.317
 5363TIP3   OH216052   2.890   0.720   5.074
 5363TIP3    H116053   2.822   0.719   5.141
 5363TIP3    H216054   2.904   0.813   5.056
 5364TIP3   OH216055   5.799   5.739   4.497
 5364TIP3    H116056   5.706   5.724   4.512
 5364TIP3    H216057   5.835   5.760   4.583
 5365TIP3   OH216058   5.416   1.034   0.845
 5365TIP3    H116059   5.327   1.032   0.880
 5365TIP3    H216060   5.459   0.957   0.882
 5366TIP3   OH216061   0.035   3.471   2.466
 5366TIP3    H116062   0.125   3.503   2.471
 5366TIP3    H216063   0.022   3.423   2.548
 5367TIP3   OH216064   3.685   1.892   5.064
 5367TIP3    H116065   3.628   1.819   5.088
 5367TIP3    H216066   3.635   1.942   5.000
 5368TIP3   OH216067   4.760   2.664   0.311
 5368TIP3    H116068   4.772   2.669   0.216
 5368TIP3    H216069   4.701   2.737   0.331
 5369TIP3   OH216070   6.182   0.929   1.972
 5369TIP3    H116071   6.171   0.846   2.019
 5369TIP3    H216072   6.116   0.987   2.009
 5370TIP3   OH216073   6.333   1.433   2.274
 5370TIP3    H116074   6.294   1.520   2.260
 5370TIP3    H216075   6.266   1.372   2.245
 5371TIP3   OH216076   2.097   5.231   5.483
 5371TIP3    H116077   2.046   5.260   5.407
 5371TIP3    H216078   2.033   5.193   5.543
 5372TIP3   OH216079   3.094   4.336   0.774
 5372TIP3    H116080   3.073   4.355   0.683
 5372TIP3    H216081   3.189   4.332   0.777
 5373TIP3   OH216082   5.618   1.507   2.409
 5373TIP3    H116083   5.696   1.451   2.411
 5373TIP3    H216084   5.641   1.577   2.348
 5374TIP3   OH216085   2.894   2.242   3.815
 5374TIP3    H116086   2.844   2.186   3.756
 5374TIP3    H216087   2.835   2.314   3.836
 5375TIP3   OH216088   0.851   1.354   2.947
 5375TIP3    H116089   0.835   1.447   2.962
 5375TIP3    H216090   0.922   1.331   3.007
 5376TIP3   OH216091   0.878   3.821   0.867
 5376TIP3    H116092   0.950   3.766   0.896
 5376TIP3    H216093   0.849   3.781   0.785
 5377TIP3   OH216094   2.791   0.429   3.761
 5377TIP3    H116095   2.809   0.515   3.797
 5377TIP3    H216096   2.874   0.382   3.766
 5378TIP3   OH216097   4.400   0.695   2.430
 5378TIP3    H116098   4.487   0.715   2.464
 5378TIP3    H216099   4.412   0.691   2.335
 5379TIP3   OH216100   4.560   1.643   2.597
 5379TIP3    H116101   4.600   1.730   2.592
 5379TIP3    H216102   4.634   1.584   2.610
 5380TIP3   OH216103   3.242   2.732   1.823
 5380TIP3    H116104   3.238   2.691   1.909
 5380TIP3    H216105   3.232   2.826   1.840
 5381TIP3   OH216106   0.775   1.516   1.683
 5381TIP3    H116107   0.757   1.546   1.594
 5381TIP3    H216108   0.830   1.439   1.672
 5382TIP3   OH216109   0.076   4.030   2.071
 5382TIP3    H116110   0.006   4.044   2.135
 5382TIP3    H216111   0.142   4.095   2.095
 5383TIP3   OH216112   1.609   2.962   3.520
 5383TIP3    H116113   1.575   2.872   3.512
 5383TIP3    H216114   1.703   2.950   3.536
 5384TIP3   OH216115   0.750   1.564   3.314
 5384TIP3    H116116   0.807   1.622   3.366
 5384TIP3    H216117   0.662   1.588   3.340
 5385TIP3   OH216118   1.955   2.162   1.051
 5385TIP3    H116119   1.921   2.182   0.964
 5385TIP3    H216120   2.003   2.079   1.039
 5386TIP3   OH216121   4.261   3.413   2.568
 5386TIP3    H116122   4.219   3.411   2.482
 5386TIP3    H216123   4.350   3.382   2.553
 5387TIP3   OH216124   5.749   0.814   2.595
 5387TIP3    H116125   5.788   0.898   2.617
 5387TIP3    H216126   5.709   0.827   2.510
 5388TIP3   OH216127   7.121   1.332   4.018
 5388TIP3    H116128   7.138   1.364   3.930
 5388TIP3    H216129   7.040   1.375   4.044
 5389TIP3   OH216130   2.175   6.374   3.864
 5389TIP3    H116131   2.112   6.352   3.933
 5389TIP3    H216132   2.123   6.374   3.784
 5390TIP3   OH216133   5.605   0.989   1.220
 5390TIP3    H116134   5.591   1.073   1.264
 5390TIP3    H216135   5.603   0.924   1.290
 5391TIP3   OH216136   1.499   0.048   4.456
 5391TIP3    H116137   1.515  -0.018   4.524
 5391TIP3    H216138   1.585   0.060   4.415
 5392TIP3   OH216139   5.369   2.728   2.268
 5392TIP3    H116140   5.284   2.768   2.248
 5392TIP3    H216141   5.410   2.714   2.182
 5393TIP3   OH216142   1.679   5.818   3.341
 5393TIP3    H116143   1.716   5.906   3.328
 5393TIP3    H216144   1.628   5.826   3.422
 5394TIP3   OH216145   6.796   6.167   3.464
 5394TIP3    H116146   6.707   6.145   3.434
 5394TIP3    H216147   6.831   6.085   3.497
 5395TIP3   OH216148   5.777   4.968   0.251
 5395TIP3    H116149   5.859   5.015   0.268
 5395TIP3    H216150   5.755   4.926   0.334
 5396TIP3   OH216151   3.388   2.504   2.497
 5396TIP3    H116152   3.295   2.484   2.485
 5396TIP3    H216153   3.397   2.519   2.592
 5397TIP3   OH216154   0.065   3.672   1.633
 5397TIP3    H116155   0.057   3.750   1.687
 5397TIP3    H216156   0.008   3.607   1.675
 5398TIP3   OH216157   6.940   6.255   5.528
 5398TIP3    H116158   6.964   6.314   5.457
 5398TIP3    H216159   6.848   6.233   5.511
 5399TIP3   OH216160   0.124   2.263   2.450
 5399TIP3    H116161   0.164   2.314   2.379
 5399TIP3    H216162   0.032   2.256   2.425
 5400TIP3   OH216163   1.306   6.731   4.671
 5400TIP3    H116164   1.235   6.674   4.699
 5400TIP3    H216165   1.378   6.671   4.651
 5401TIP3   OH216166   6.418   6.651   3.465
 5401TIP3    H116167   6.421   6.746   3.470
 5401TIP3    H216168   6.375   6.624   3.546
 5402TIP3   OH216169   4.926   5.146   5.075
 5402TIP3    H116170   4.883   5.196   5.143
 5402TIP3    H216171   4.952   5.064   5.118
 5403TIP3   OH216172   2.819   1.398   4.771
 5403TIP3    H116173   2.854   1.326   4.824
 5403TIP3    H216174   2.725   1.399   4.789
 5404TIP3   OH216175   1.524   5.002   5.197
 5404TIP3    H116176   1.432   4.981   5.180
 5404TIP3    H216177   1.522   5.062   5.271
 5405TIP3   OH216178   5.397   5.539   3.523
 5405TIP3    H116179   5.404   5.479   3.448
 5405TIP3    H216180   5.470   5.515   3.580
 5406TIP3   OH216181   4.004   2.133   1.060
 5406TIP3    H116182   4.028   2.212   1.109
 5406TIP3    H216183   4.063   2.132   0.984
 5407TIP3   OH216184   1.345   4.879   3.641
 5407TIP3    H116185   1.282   4.825   3.594
 5407TIP3    H216186   1.367   4.949   3.579
 5408TIP3   OH216187   4.505   4.461   1.924
 5408TIP3    H116188   4.558   4.474   1.846
 5408TIP3    H216189   4.566   4.472   1.997
 5409TIP3   OH216190   4.715   5.239   2.450
 5409TIP3    H116191   4.628   5.251   2.413
 5409TIP3    H216192   4.706   5.264   2.542
 5410TIP3   OH216193   1.236   4.233   3.034
 5410TIP3    H116194   1.158   4.278   3.065
 5410TIP3    H216195   1.256   4.168   3.102
 5411TIP3   OH216196   6.801   4.015   1.606
 5411TIP3    H116197   6.790   3.955   1.680
 5411TIP3    H216198   6.893   4.042   1.611
 5412TIP3   OH216199   0.886   1.787   1.561
 5412TIP3    H116200   0.902   1.879   1.581
 5412TIP3    H216201   0.793   1.783   1.540
 5413TIP3   OH216202   2.915   0.608   3.349
 5413TIP3    H116203   2.993   0.554   3.337
 5413TIP3    H216204   2.842   0.546   3.340
 5414TIP3   OH216205   0.359   1.215   1.477
 5414TIP3    H116206   0.315   1.293   1.510
 5414TIP3    H216207   0.338   1.146   1.540
 5415TIP3   OH216208   0.271   0.419   4.853
 5415TIP3    H116209   0.348   0.393   4.904
 5415TIP3    H216210   0.214   0.463   4.916
 5416TIP3   OH216211   5.626   0.924   4.082
 5416TIP3    H116212   5.623   0.848   4.024
 5416TIP3    H216213   5.625   0.887   4.170
 5417TIP3   OH216214   1.116   4.780   2.033
 5417TIP3    H116215   1.126   4.876   2.034
 5417TIP3    H216216   1.040   4.763   2.088
 5418TIP3   OH216217   2.565   5.897   5.492
 5418TIP3    H116218   2.504   5.967   5.515
 5418TIP3    H216219   2.561   5.836   5.566
 5419TIP3   OH216220   4.100   2.504   3.404
 5419TIP3    H116221   4.038   2.455   3.351
 5419TIP3    H216222   4.166   2.439   3.430
 5420TIP3   OH216223   1.276   4.213   4.766
 5420TIP3    H116224   1.191   4.168   4.761
 5420TIP3    H216225   1.340   4.143   4.758
 5421TIP3   OH216226   3.549   0.043   3.731
 5421TIP3    H116227   3.580   0.027   3.820
 5421TIP3    H216228   3.588   0.127   3.707
 5422TIP3   OH216229   5.355   3.390   5.073
 5422TIP3    H116230   5.271   3.427   5.047
 5422TIP3    H216231   5.349   3.382   5.169
 5423TIP3   OH216232   1.083   2.799   4.307
 5423TIP3    H116233   1.115   2.714   4.279
 5423TIP3    H216234   1.151   2.832   4.366
 5424TIP3   OH216235   4.012   2.335   1.754
 5424TIP3    H116236   4.000   2.242   1.772
 5424TIP3    H216237   3.998   2.378   1.838
 5425TIP3   OH216238   2.633   0.098   3.325
 5425TIP3    H116239   2.649   0.172   3.266
 5425TIP3    H216240   2.549   0.118   3.367
 5426TIP3   OH216241   6.628   4.498   3.010
 5426TIP3    H116242   6.650   4.586   3.040
 5426TIP3    H216243   6.632   4.444   3.089
 5427TIP3   OH216244   4.040   0.203   1.384
 5427TIP3    H116245   4.022   0.283   1.334
 5427TIP3    H216246   3.970   0.142   1.358
 5428TIP3   OH216247   4.129   1.415   5.594
 5428TIP3    H116248   4.041   1.381   5.581
 5428TIP3    H216249   4.148   1.399   5.686
 5429TIP3   OH216250   5.532   3.612   1.773
 5429TIP3    H116251   5.476   3.686   1.795
 5429TIP3    H216252   5.479   3.535   1.794
 5430TIP3   OH216253   2.807   2.339   0.023
 5430TIP3    H116254   2.717   2.340  -0.010
 5430TIP3    H216255   2.811   2.263   0.080
 5431TIP3   OH216256   1.294   6.684   0.610
 5431TIP3    H116257   1.248   6.768   0.606
 5431TIP3    H216258   1.301   6.657   0.518
 5432TIP3   OH216259   0.725   0.442   3.512
 5432TIP3    H116260   0.677   0.523   3.531
 5432TIP3    H216261   0.699   0.383   3.583
 5433TIP3   OH216262   1.755   1.605   4.734
 5433TIP3    H116263   1.704   1.537   4.779
 5433TIP3    H216264   1.825   1.627   4.795
 5434TIP3   OH216265   2.413   2.281   0.640
 5434TIP3    H116266   2.329   2.276   0.686
 5434TIP3    H216267   2.443   2.371   0.655
 5435TIP3   OH216268   3.512   5.020   0.435
 5435TIP3    H116269   3.436   5.076   0.416
 5435TIP3    H216270   3.574   5.040   0.365
 5436TIP3   OH216271   3.965   1.819   5.096
 5436TIP3    H116272   3.870   1.820   5.087
 5436TIP3    H216273   3.991   1.911   5.095
 5437TIP3   OH216274   2.778   2.218   3.239
 5437TIP3    H116275   2.707   2.168   3.198
 5437TIP3    H216276   2.791   2.294   3.181
 5438TIP3   OH216277   3.778   2.871   3.452
 5438TIP3    H116278   3.844   2.867   3.382
 5438TIP3    H216279   3.748   2.781   3.461
 5439TIP3   OH216280   4.297   1.615   5.176
 5439TIP3    H116281   4.287   1.598   5.270
 5439TIP3    H216282   4.209   1.608   5.140
 5440TIP3   OH216283   0.291   0.188   2.524
 5440TIP3    H116284   0.239   0.240   2.463
 5440TIP3    H216285   0.349   0.251   2.566
 5441TIP3   OH216286   6.416   2.242   3.839
 5441TIP3    H116287   6.506   2.225   3.813
 5441TIP3    H216288   6.423   2.291   3.921
 5442TIP3   OH216289   5.712   5.221   5.474
 5442TIP3    H116290   5.801   5.205   5.443
 5442TIP3    H216291   5.708   5.179   5.560
 5443TIP3   OH216292   1.266   6.501   0.795
 5443TIP3    H116293   1.282   6.573   0.733
 5443TIP3    H216294   1.353   6.477   0.827
 5444TIP3   OH216295   7.159   2.160   0.612
 5444TIP3    H116296   7.226   2.178   0.678
 5444TIP3    H216297   7.107   2.241   0.608
 5445TIP3   OH216298   0.427   0.014   3.113
 5445TIP3    H116299   0.438   0.039   3.204
 5445TIP3    H216300   0.333   0.003   3.102
 5446TIP3   OH216301   0.464   0.197   1.727
 5446TIP3    H116302   0.545   0.151   1.706
 5446TIP3    H216303   0.395   0.137   1.701
 5447TIP3   OH216304   4.866   0.554   4.817
 5447TIP3    H116305   4.908   0.544   4.902
 5447TIP3    H216306   4.900   0.636   4.783
 5448TIP3   OH216307   4.783   3.851   5.739
 5448TIP3    H116308   4.709   3.791   5.737
 5448TIP3    H216309   4.825   3.842   5.653
 5449TIP3   OH216310   0.243   4.103   3.284
 5449TIP3    H116311   0.206   4.048   3.215
 5449TIP3    H216312   0.249   4.190   3.245
 5450TIP3   OH216313   5.073   4.134   5.089
 5450TIP3    H116314   5.135   4.094   5.028
 5450TIP3    H216315   5.029   4.060   5.130
 5451TIP3   OH216316   5.769   2.168   2.147
 5451TIP3    H116317   5.761   2.243   2.088
 5451TIP3    H216318   5.858   2.173   2.180
 5452TIP3   OH216319   1.325   4.993   3.910
 5452TIP3    H116320   1.330   4.960   3.820
 5452TIP3    H216321   1.261   4.936   3.953
 5453TIP3   OH216322   5.358   4.173   0.110
 5453TIP3    H116323   5.394   4.162   0.022
 5453TIP3    H216324   5.403   4.108   0.163
 5454TIP3   OH216325   1.996   5.792   5.455
 5454TIP3    H116326   1.994   5.698   5.474
 5454TIP3    H216327   1.990   5.834   5.541
 5455TIP3   OH216328   0.542   0.951   4.773
 5455TIP3    H116329   0.447   0.962   4.780
 5455TIP3    H216330   0.571   1.026   4.722
 5456TIP3   OH216331   6.236   5.293   1.648
 5456TIP3    H116332   6.287   5.215   1.624
 5456TIP3    H216333   6.200   5.273   1.734
 5457TIP3   OH216334   5.451   1.226   3.015
 5457TIP3    H116335   5.479   1.304   2.968
 5457TIP3    H216336   5.409   1.172   2.948
 5458TIP3   OH216337   7.044   2.973   3.236
 5458TIP3    H116338   6.991   3.045   3.200
 5458TIP3    H216339   7.127   2.979   3.189
 5459TIP3   OH216340   3.568   4.343   5.274
 5459TIP3    H116341   3.519   4.274   5.231
 5459TIP3    H216342   3.549   4.332   5.368
 5460TIP3   OH216343   4.112   4.847   4.679
 5460TIP3    H116344   4.164   4.877   4.754
 5460TIP3    H216345   4.025   4.883   4.695
 5461TIP3   OH216346   0.698   5.121   3.613
 5461TIP3    H116347   0.743   5.099   3.531
 5461TIP3    H216348   0.766   5.116   3.680
 5462TIP3   OH216349   5.557   2.002   0.610
 5462TIP3    H116350   5.533   2.035   0.697
 5462TIP3    H216351   5.513   1.917   0.604
 5463TIP3   OH216352   1.051   1.708   1.765
 5463TIP3    H116353   0.986   1.710   1.835
 5463TIP3    H216354   1.001   1.728   1.685
 5464TIP3   OH216355   1.019   6.583   4.711
 5464TIP3    H116356   0.939   6.585   4.763
 5464TIP3    H216357   1.020   6.496   4.671
 5465TIP3   OH216358   2.509   0.625   1.596
 5465TIP3    H116359   2.470   0.580   1.521
 5465TIP3    H216360   2.583   0.570   1.621
 5466TIP3   OH216361   0.479   0.459   3.957
 5466TIP3    H116362   0.423   0.473   4.034
 5466TIP3    H216363   0.487   0.364   3.950
 5467TIP3   OH216364   0.885   0.282   3.924
 5467TIP3    H116365   0.980   0.288   3.936
 5467TIP3    H216366   0.850   0.286   4.013
 5468TIP3   OH216367   0.038   1.038   1.158
 5468TIP3    H116368  -0.056   1.018   1.151
 5468TIP3    H216369   0.071   0.974   1.221
 5469TIP3   OH216370   6.143   3.406   2.870
 5469TIP3    H116371   6.103   3.440   2.789
 5469TIP3    H216372   6.234   3.390   2.846
 5470TIP3   OH216373   6.590   3.768   5.222
 5470TIP3    H116374   6.584   3.790   5.129
 5470TIP3    H216375   6.678   3.796   5.248
 5471TIP3   OH216376   1.995   6.739   5.710
 5471TIP3    H116377   2.025   6.804   5.773
 5471TIP3    H216378   1.900   6.748   5.708
 5472TIP3   OH216379   0.126   1.182   0.336
 5472TIP3    H116380   0.045   1.148   0.298
 5472TIP3    H216381   0.190   1.179   0.264
 5473TIP3   OH216382   2.025   3.013   4.318
 5473TIP3    H116383   1.972   2.939   4.289
 5473TIP3    H216384   1.973   3.090   4.298
 5474TIP3   OH216385   5.298   6.005   1.368
 5474TIP3    H116386   5.361   5.936   1.389
 5474TIP3    H216387   5.229   5.959   1.319
 5475TIP3   OH216388   2.622   1.084   0.217
 5475TIP3    H116389   2.675   1.019   0.170
 5475TIP3    H216390   2.531   1.058   0.199
 5476TIP3   OH216391   4.970   1.962   1.984
 5476TIP3    H116392   5.008   1.885   1.942
 5476TIP3    H216393   5.046   2.011   2.017
 5477TIP3   OH216394   5.075   6.311   5.807
 5477TIP3    H116395   5.105   6.261   5.730
 5477TIP3    H216396   5.155   6.326   5.858
 5478TIP3   OH216397   1.661   4.484   1.442
 5478TIP3    H116398   1.725   4.460   1.375
 5478TIP3    H216399   1.713   4.496   1.521
 5479TIP3   OH216400   6.951   1.524   4.662
 5479TIP3    H116401   6.905   1.468   4.598
 5479TIP3    H216402   6.883   1.582   4.695
 5480TIP3   OH216403   6.104   4.164   3.112
 5480TIP3    H116404   6.167   4.206   3.170
 5480TIP3    H216405   6.156   4.135   3.037
 5481TIP3   OH216406   4.081   4.426   1.692
 5481TIP3    H116407   4.151   4.479   1.730
 5481TIP3    H216408   4.001   4.476   1.708
 5482TIP3   OH216409   4.347   5.026   1.710
 5482TIP3    H116410   4.260   5.052   1.742
 5482TIP3    H216411   4.354   5.067   1.624
 5483TIP3   OH216412   2.184   4.598   1.586
 5483TIP3    H116413   2.211   4.611   1.495
 5483TIP3    H216414   2.169   4.687   1.619
 5484TIP3   OH216415   6.910   1.472   0.703
 5484TIP3    H116416   6.952   1.389   0.728
 5484TIP3    H216417   6.816   1.455   0.713
 5485TIP3   OH216418   6.738   4.653   5.340
 5485TIP3    H116419   6.676   4.718   5.305
 5485TIP3    H216420   6.819   4.668   5.291
 5486TIP3   OH216421   0.017   3.378   2.186
 5486TIP3    H116422  -0.029   3.359   2.268
 5486TIP3    H216423   0.070   3.455   2.205
 5487TIP3   OH216424   1.735   2.768   4.498
 5487TIP3    H116425   1.730   2.681   4.459
 5487TIP3    H216426   1.827   2.794   4.489
 5488TIP3   OH216427   2.644   5.993   2.443
 5488TIP3    H116428   2.560   6.040   2.435
 5488TIP3    H216429   2.645   5.934   2.368
 5489TIP3   OH216430   4.407   0.640   0.986
 5489TIP3    H116431   4.477   0.595   1.034
 5489TIP3    H216432   4.326   0.598   1.017
 5490TIP3   OH216433   0.708   4.317   1.982
 5490TIP3    H116434   0.716   4.388   1.918
 5490TIP3    H216435   0.680   4.241   1.931
 5491TIP3   OH216436   4.125   0.669   1.118
 5491TIP3    H116437   4.078   0.707   1.192
 5491TIP3    H216438   4.135   0.576   1.140
 5492TIP3   OH216439   0.286   1.311   4.908
 5492TIP3    H116440   0.286   1.302   5.003
 5492TIP3    H216441   0.302   1.222   4.876
 5493TIP3   OH216442   0.167   0.866   3.942
 5493TIP3    H116443   0.074   0.885   3.938
 5493TIP3    H216444   0.195   0.895   4.028
 5494TIP3   OH216445   2.728   6.577   5.657
 5494TIP3    H116446   2.774   6.582   5.573
 5494TIP3    H216447   2.767   6.502   5.702
 5495TIP3   OH216448   6.280   0.486   3.500
 5495TIP3    H116449   6.351   0.550   3.493
 5495TIP3    H216450   6.205   0.528   3.457
 5496TIP3   OH216451   2.205   3.554   2.475
 5496TIP3    H116452   2.194   3.649   2.470
 5496TIP3    H216453   2.182   3.523   2.387
 5497TIP3   OH216454   5.155   3.034   5.815
 5497TIP3    H116455   5.192   3.087   5.745
 5497TIP3    H216456   5.230   3.000   5.864
 5498TIP3   OH216457   3.817   5.722   3.159
 5498TIP3    H116458   3.781   5.678   3.236
 5498TIP3    H216459   3.872   5.792   3.196
 5499TIP3   OH216460   5.323   3.821   3.492
 5499TIP3    H116461   5.387   3.844   3.425
 5499TIP3    H216462   5.375   3.800   3.569
 5500TIP3   OH216463   3.097   0.706   0.713
 5500TIP3    H116464   3.122   0.657   0.791
 5500TIP3    H216465   3.001   0.703   0.712
 5501TIP3   OH216466   1.421   1.160   5.132
 5501TIP3    H116467   1.326   1.169   5.133
 5501TIP3    H216468   1.436   1.065   5.129
 5502TIP3   OH216469   5.842   4.205   5.715
 5502TIP3    H116470   5.775   4.143   5.686
 5502TIP3    H216471   5.793   4.276   5.755
 5503TIP3   OH216472   4.068   4.393   5.307
 5503TIP3    H116473   4.106   4.481   5.303
 5503TIP3    H216474   3.974   4.408   5.298
 5504TIP3   OH216475   1.186   0.200   5.149
 5504TIP3    H116476   1.269   0.183   5.103
 5504TIP3    H216477   1.184   0.136   5.219
 5505TIP3   OH216478   3.071   0.276   1.460
 5505TIP3    H116479   3.052   0.277   1.366
 5505TIP3    H216480   2.996   0.234   1.500
 5506TIP3   OH216481   5.753   5.064   5.811
 5506TIP3    H116482   5.777   4.981   5.850
 5506TIP3    H216483   5.828   5.122   5.828
 5507TIP3   OH216484   0.355   4.542   4.450
 5507TIP3    H116485   0.316   4.576   4.370
 5507TIP3    H216486   0.327   4.603   4.518
 5508TIP3   OH216487   0.283   3.772   3.523
 5508TIP3    H116488   0.217   3.825   3.479
 5508TIP3    H216489   0.239   3.689   3.541
 5509TIP3   OH216490   2.570   6.626   1.356
 5509TIP3    H116491   2.660   6.617   1.386
 5509TIP3    H216492   2.550   6.719   1.366
 5510TIP3   OH216493   5.227   0.130   2.862
 5510TIP3    H116494   5.271   0.089   2.787
 5510TIP3    H216495   5.137   0.096   2.858
 5511TIP3   OH216496   4.018   4.902   3.147
 5511TIP3    H116497   4.096   4.957   3.157
 5511TIP3    H216498   3.946   4.965   3.138
 5512TIP3   OH216499   1.404   6.513   3.591
 5512TIP3    H116500   1.349   6.435   3.592
 5512TIP3    H216501   1.423   6.530   3.684
 5513TIP3   OH216502   6.261   2.980   4.171
 5513TIP3    H116503   6.318   3.001   4.245
 5513TIP3    H216504   6.254   2.884   4.173
 5514TIP3   OH216505   6.306   3.594   5.564
 5514TIP3    H116506   6.367   3.662   5.592
 5514TIP3    H216507   6.284   3.547   5.645
 5515TIP3   OH216508   1.750   6.068   1.726
 5515TIP3    H116509   1.741   5.988   1.675
 5515TIP3    H216510   1.839   6.098   1.709
 5516TIP3   OH216511   1.517   4.404   0.617
 5516TIP3    H116512   1.493   4.477   0.674
 5516TIP3    H216513   1.475   4.423   0.533
 5517TIP3   OH216514   3.789   1.750   0.107
 5517TIP3    H116515   3.734   1.828   0.118
 5517TIP3    H216516   3.733   1.687   0.064
 5518TIP3   OH216517   0.981   2.002   1.931
 5518TIP3    H116518   0.985   2.026   1.838
 5518TIP3    H216519   0.894   2.029   1.959
 5519TIP3   OH216520   6.698   1.394   5.502
 5519TIP3    H116521   6.613   1.373   5.540
 5519TIP3    H216522   6.751   1.316   5.519
 5520TIP3   OH216523   6.869   1.345   3.191
 5520TIP3    H116524   6.943   1.300   3.233
 5520TIP3    H216525   6.807   1.360   3.263
 5521TIP3   OH216526   3.850   2.493   0.574
 5521TIP3    H116527   3.923   2.552   0.594
 5521TIP3    H216528   3.880   2.407   0.605
 5522TIP3   OH216529   5.476   5.272   5.372
 5522TIP3    H116530   5.554   5.244   5.421
 5522TIP3    H216531   5.409   5.284   5.440
 5523TIP3   OH216532   0.643   1.078   3.845
 5523TIP3    H116533   0.594   1.160   3.835
 5523TIP3    H216534   0.715   1.086   3.783
 5524TIP3   OH216535   3.730   4.878   0.306
 5524TIP3    H116536   3.727   4.827   0.387
 5524TIP3    H216537   3.762   4.964   0.333
 5525TIP3   OH216538   1.873   1.216   5.618
 5525TIP3    H116539   1.894   1.231   5.710
 5525TIP3    H216540   1.931   1.145   5.590
 5526TIP3   OH216541   5.522   3.654   0.453
 5526TIP3    H116542   5.498   3.733   0.501
 5526TIP3    H216543   5.618   3.650   0.459
 5527TIP3   OH216544   4.230   1.123   4.429
 5527TIP3    H116545   4.213   1.045   4.376
 5527TIP3    H216546   4.285   1.178   4.373
 5528TIP3   OH216547   3.313   6.642   0.825
 5528TIP3    H116548   3.305   6.568   0.765
 5528TIP3    H216549   3.258   6.711   0.787
 5529TIP3   OH216550   1.283   3.416   4.714
 5529TIP3    H116551   1.282   3.443   4.806
 5529TIP3    H216552   1.292   3.321   4.717
 5530TIP3   OH216553   6.159   3.129   3.946
 5530TIP3    H116554   6.182   3.073   4.019
 5530TIP3    H216555   6.216   3.100   3.874
 5531TIP3   OH216556   5.919   1.112   2.893
 5531TIP3    H116557   5.836   1.144   2.856
 5531TIP3    H216558   5.902   1.105   2.987
 5532TIP3   OH216559   4.171   1.354   2.141
 5532TIP3    H116560   4.103   1.323   2.201
 5532TIP3    H216561   4.122   1.385   2.064
 5533TIP3   OH216562   1.370   1.224   3.451
 5533TIP3    H116563   1.419   1.212   3.370
 5533TIP3    H216564   1.283   1.252   3.423
 5534TIP3   OH216565   4.293   1.808   0.637
 5534TIP3    H116566   4.217   1.815   0.580
 5534TIP3    H216567   4.361   1.769   0.583
 5535TIP3   OH216568   1.762   0.554   1.055
 5535TIP3    H116569   1.754   0.639   1.098
 5535TIP3    H216570   1.712   0.564   0.974
 5536TIP3   OH216571   0.561   4.292   3.995
 5536TIP3    H116572   0.504   4.354   3.949
 5536TIP3    H216573   0.619   4.347   4.047
 5537TIP3   OH216574   4.422   6.816   5.063
 5537TIP3    H116575   4.406   6.722   5.055
 5537TIP3    H216576   4.480   6.825   5.138
 5538TIP3   OH216577   1.157   1.764   4.139
 5538TIP3    H116578   1.119   1.771   4.226
 5538TIP3    H216579   1.084   1.742   4.082
 5539TIP3   OH216580   2.082   6.638   4.775
 5539TIP3    H116581   2.026   6.574   4.731
 5539TIP3    H216582   2.032   6.664   4.852
 5540TIP3   OH216583   4.722   6.415   2.717
 5540TIP3    H116584   4.744   6.341   2.774
 5540TIP3    H216585   4.806   6.446   2.683
 5541TIP3   OH216586   3.546   4.960   0.695
 5541TIP3    H116587   3.638   4.948   0.716
 5541TIP3    H216588   3.546   5.000   0.608
 5542TIP3   OH216589   1.656   3.554   3.349
 5542TIP3    H116590   1.594   3.526   3.283
 5542TIP3    H216591   1.740   3.561   3.303
 5543TIP3   OH216592   0.678   5.836   1.844
 5543TIP3    H116593   0.699   5.930   1.853
 5543TIP3    H216594   0.762   5.796   1.822
 5544TIP3   OH216595   0.668   2.197   3.017
 5544TIP3    H116596   0.610   2.236   3.083
 5544TIP3    H216597   0.737   2.261   3.005
 5545TIP3   OH216598   1.026   2.618   0.213
 5545TIP3    H116599   1.027   2.563   0.135
 5545TIP3    H216600   0.936   2.649   0.219
 5546TIP3   OH216601   4.541   6.194   0.394
 5546TIP3    H116602   4.538   6.290   0.391
 5546TIP3    H216603   4.584   6.169   0.312
 5547TIP3   OH216604   1.887   2.121   3.856
 5547TIP3    H116605   1.966   2.151   3.903
 5547TIP3    H216606   1.837   2.074   3.922
 5548TIP3   OH216607   1.820   0.387   1.675
 5548TIP3    H116608   1.884   0.413   1.742
 5548TIP3    H216609   1.857   0.420   1.593
 5549TIP3   OH216610   5.437   3.874   2.952
 5549TIP3    H116611   5.517   3.830   2.922
 5549TIP3    H216612   5.372   3.854   2.884
 5550TIP3   OH216613   5.621   5.778   5.319
 5550TIP3    H116614   5.601   5.871   5.315
 5550TIP3    H216615   5.568   5.738   5.250
 5551TIP3   OH216616   0.668   1.523   2.310
 5551TIP3    H116617   0.656   1.586   2.238
 5551TIP3    H216618   0.710   1.574   2.379
 5552TIP3   OH216619   5.087   0.575   0.144
 5552TIP3    H116620   5.128   0.488   0.141
 5552TIP3    H216621   5.147   0.632   0.096
 5553TIP3   OH216622   0.307   2.782   4.195
 5553TIP3    H116623   0.384   2.798   4.251
 5553TIP3    H216624   0.340   2.727   4.125
 5554TIP3   OH216625   3.016   0.974   1.781
 5554TIP3    H116626   3.031   0.880   1.794
 5554TIP3    H216627   3.104   1.012   1.777
 5555TIP3   OH216628   2.614   0.795   0.390
 5555TIP3    H116629   2.552   0.849   0.340
 5555TIP3    H216630   2.688   0.853   0.406
 5556TIP3   OH216631   2.736   4.800   0.867
 5556TIP3    H116632   2.809   4.856   0.895
 5556TIP3    H216633   2.779   4.725   0.825
 5557TIP3   OH216634   5.352   1.223   2.055
 5557TIP3    H116635   5.317   1.199   2.141
 5557TIP3    H216636   5.359   1.319   2.059
 5558TIP3   OH216637   3.513   6.819   0.174
 5558TIP3    H116638   3.495   6.735   0.216
 5558TIP3    H216639   3.438   6.873   0.197
 5559TIP3   OH216640   5.218   4.639   5.272
 5559TIP3    H116641   5.129   4.670   5.288
 5559TIP3    H216642   5.211   4.544   5.269
 5560TIP3   OH216643   0.276   0.582   0.230
 5560TIP3    H116644   0.206   0.596   0.293
 5560TIP3    H216645   0.292   0.669   0.192
 5561TIP3   OH216646   5.303   1.788   2.939
 5561TIP3    H116647   5.375   1.851   2.940
 5561TIP3    H216648   5.344   1.706   2.966
 5562TIP3   OH216649   6.927   5.137   5.718
 5562TIP3    H116650   6.835   5.114   5.707
 5562TIP3    H216651   6.936   5.222   5.674
 5563TIP3   OH216652   3.014   1.650   2.610
 5563TIP3    H116653   3.097   1.682   2.574
 5563TIP3    H216654   2.995   1.709   2.682
 5564TIP3   OH216655   0.945   2.279   5.727
 5564TIP3    H116656   0.938   2.219   5.801
 5564TIP3    H216657   0.914   2.228   5.652
 5565TIP3   OH216658   0.160   5.926   2.902
 5565TIP3    H116659   0.211   6.007   2.908
 5565TIP3    H216660   0.079   5.952   2.859
 5566TIP3   OH216661   0.599   5.235   3.253
 5566TIP3    H116662   0.672   5.173   3.260
 5566TIP3    H216663   0.582   5.242   3.159
 5567TIP3   OH216664   7.175   5.651   0.867
 5567TIP3    H116665   7.162   5.681   0.957
 5567TIP3    H216666   7.092   5.669   0.823
 5568TIP3   OH216667   2.329   5.907   3.315
 5568TIP3    H116668   2.239   5.931   3.293
 5568TIP3    H216669   2.380   5.927   3.237
 5569TIP3   OH216670   3.649   2.089   4.527
 5569TIP3    H116671   3.563   2.132   4.524
 5569TIP3    H216672   3.710   2.159   4.549
 5570TIP3   OH216673   3.758   6.027   0.359
 5570TIP3    H116674   3.716   5.989   0.281
 5570TIP3    H216675   3.685   6.051   0.416
 5571TIP3   OH216676   1.363   2.476   1.932
 5571TIP3    H116677   1.301   2.532   1.980
 5571TIP3    H216678   1.445   2.484   1.981
 5572TIP3   OH216679   3.996   0.003   4.115
 5572TIP3    H116680   3.934   0.075   4.129
 5572TIP3    H216681   4.004  -0.004   4.020
 5573TIP3   OH216682   5.539   0.994   3.133
 5573TIP3    H116683   5.526   1.077   3.088
 5573TIP3    H216684   5.505   1.010   3.222
 5574TIP3   OH216685   2.827   4.304   0.925
 5574TIP3    H116686   2.782   4.282   0.843
 5574TIP3    H216687   2.900   4.360   0.898
 5575TIP3   OH216688   0.474   2.755   0.362
 5575TIP3    H116689   0.422   2.716   0.432
 5575TIP3    H216690   0.494   2.683   0.303
 5576TIP3   OH216691   1.970   6.156   1.440
 5576TIP3    H116692   1.996   6.085   1.498
 5576TIP3    H216693   2.019   6.140   1.359
 5577TIP3   OH216694   6.406   5.805   5.620
 5577TIP3    H116695   6.418   5.730   5.679
 5577TIP3    H216696   6.312   5.818   5.616
 5578TIP3   OH216697   0.582   6.084   4.756
 5578TIP3    H116698   0.635   6.144   4.704
 5578TIP3    H216699   0.492   6.102   4.730
 5579TIP3   OH216700   2.649   3.910   0.161
 5579TIP3    H116701   2.692   3.995   0.155
 5579TIP3    H216702   2.708   3.857   0.215
 5580TIP3   OH216703   2.833   4.291   2.178
 5580TIP3    H116704   2.814   4.233   2.105
 5580TIP3    H216705   2.802   4.377   2.150
 5581TIP3   OH216706   1.160   4.884   4.561
 5581TIP3    H116707   1.175   4.921   4.647
 5581TIP3    H216708   1.204   4.798   4.564
 5582TIP3   OH216709   2.447   6.313   3.230
 5582TIP3    H116710   2.453   6.277   3.318
 5582TIP3    H216711   2.503   6.391   3.232
 5583TIP3   OH216712   4.372   1.654   1.387
 5583TIP3    H116713   4.386   1.670   1.480
 5583TIP3    H216714   4.359   1.741   1.349
 5584TIP3   OH216715   5.746   2.097   2.926
 5584TIP3    H116716   5.789   2.162   2.980
 5584TIP3    H216717   5.709   2.147   2.853
 5585TIP3   OH216718   0.127   2.613   5.826
 5585TIP3    H116719   0.054   2.652   5.873
 5585TIP3    H216720   0.087   2.570   5.750
 5586TIP3   OH216721   0.194   1.475   1.518
 5586TIP3    H116722   0.144   1.448   1.595
 5586TIP3    H216723   0.131   1.472   1.446
 5587TIP3   OH216724   2.436  -0.032   1.201
 5587TIP3    H116725   2.499  -0.055   1.132
 5587TIP3    H216726   2.450   0.061   1.218
 5588TIP3   OH216727   5.890   2.175   2.520
 5588TIP3    H116728   5.825   2.108   2.501
 5588TIP3    H216729   5.946   2.137   2.588
 5589TIP3   OH216730   1.822   0.589   4.802
 5589TIP3    H116731   1.853   0.656   4.864
 5589TIP3    H216732   1.729   0.579   4.823
 5590TIP3   OH216733   2.912   5.621   1.162
 5590TIP3    H116734   2.993   5.664   1.135
 5590TIP3    H216735   2.847   5.692   1.162
 5591TIP3   OH216736   6.027   2.256   3.870
 5591TIP3    H116737   5.977   2.338   3.866
 5591TIP3    H216738   6.060   2.252   3.960
 5592TIP3   OH216739   4.339   5.744   4.144
 5592TIP3    H116740   4.339   5.780   4.233
 5592TIP3    H216741   4.332   5.649   4.157
 5593TIP3   OH216742   3.448   1.148   3.978
 5593TIP3    H116743   3.427   1.108   3.894
 5593TIP3    H216744   3.393   1.101   4.041
 5594TIP3   OH216745   5.490   5.504   3.113
 5594TIP3    H116746   5.544   5.547   3.180
 5594TIP3    H216747   5.552   5.477   3.046
 5595TIP3   OH216748   0.875   4.908   4.462
 5595TIP3    H116749   0.970   4.898   4.468
 5595TIP3    H216750   0.844   4.889   4.550
 5596TIP3   OH216751   1.330   6.255   0.173
 5596TIP3    H116752   1.236   6.264   0.187
 5596TIP3    H216753   1.368   6.253   0.261
 5597TIP3   OH216754   0.914   0.763   0.639
 5597TIP3    H116755   0.969   0.710   0.581
 5597TIP3    H216756   0.958   0.848   0.642
 5598TIP3   OH216757   1.581   1.054   2.143
 5598TIP3    H116758   1.664   1.097   2.163
 5598TIP3    H216759   1.566   0.995   2.216
 5599TIP3   OH216760   0.186   6.108   3.766
 5599TIP3    H116761   0.150   6.165   3.698
 5599TIP3    H216762   0.275   6.140   3.781
 5600TIP3   OH216763   0.378   2.173   2.035
 5600TIP3    H116764   0.325   2.113   2.088
 5600TIP3    H216765   0.333   2.176   1.950
 5601TIP3   OH216766   6.145   1.578   0.389
 5601TIP3    H116767   6.117   1.660   0.430
 5601TIP3    H216768   6.206   1.605   0.321
 5602TIP3   OH216769   6.287   0.998   3.891
 5602TIP3    H116770   6.262   1.072   3.946
 5602TIP3    H216771   6.281   0.922   3.950
 5603TIP3   OH216772   3.452   0.836   1.890
 5603TIP3    H116773   3.457   0.750   1.849
 5603TIP3    H216774   3.497   0.825   1.974
 5604TIP3   OH216775   3.414   3.340   5.685
 5604TIP3    H116776   3.383   3.425   5.653
 5604TIP3    H216777   3.466   3.361   5.762
 5605TIP3   OH216778   2.861   3.573   0.721
 5605TIP3    H116779   2.904   3.590   0.805
 5605TIP3    H216780   2.809   3.652   0.704
 5606TIP3   OH216781   1.257   2.326   5.850
 5606TIP3    H116782   1.176   2.353   5.807
 5606TIP3    H216783   1.322   2.325   5.780
 5607TIP3   OH216784   3.111   1.250   4.930
 5607TIP3    H116785   3.136   1.284   4.844
 5607TIP3    H216786   3.026   1.209   4.916
 5608TIP3   OH216787   3.627   0.684   1.261
 5608TIP3    H116788   3.613   0.753   1.325
 5608TIP3    H216789   3.596   0.604   1.304
 5609TIP3   OH216790   0.377   6.635   2.664
 5609TIP3    H116791   0.358   6.727   2.685
 5609TIP3    H216792   0.359   6.588   2.746
 5610TIP3   OH216793   4.593   4.817   0.232
 5610TIP3    H116794   4.506   4.834   0.269
 5610TIP3    H216795   4.608   4.891   0.173
 5611TIP3   OH216796   5.818   0.097   4.126
 5611TIP3    H116797   5.848   0.057   4.208
 5611TIP3    H216798   5.823   0.191   4.143
 5612TIP3   OH216799   0.795   3.418   0.492
 5612TIP3    H116800   0.883   3.399   0.462
 5612TIP3    H216801   0.800   3.506   0.530
 5613TIP3   OH216802   4.971   3.585   3.354
 5613TIP3    H116803   5.023   3.513   3.318
 5613TIP3    H216804   5.031   3.628   3.415
 5614TIP3   OH216805   1.379   5.647   2.320
 5614TIP3    H116806   1.350   5.721   2.372
 5614TIP3    H216807   1.392   5.683   2.232
 5615TIP3   OH216808   2.289   2.967   3.452
 5615TIP3    H116809   2.338   2.918   3.386
 5615TIP3    H216810   2.242   2.900   3.501
 5616TIP3   OH216811   1.681   0.338   5.006
 5616TIP3    H116812   1.728   0.305   5.083
 5616TIP3    H216813   1.658   0.428   5.028
 5617TIP3   OH216814   5.854   2.037   0.467
 5617TIP3    H116815   5.795   2.017   0.540
 5617TIP3    H216816   5.919   2.096   0.504
 5618TIP3   OH216817   3.979   4.917   1.180
 5618TIP3    H116818   3.997   4.859   1.255
 5618TIP3    H216819   3.938   4.994   1.220
 5619TIP3   OH216820   6.636   5.818   2.465
 5619TIP3    H116821   6.579   5.821   2.388
 5619TIP3    H216822   6.718   5.781   2.433
 5620TIP3   OH216823   5.795   4.049   5.363
 5620TIP3    H116824   5.763   4.032   5.274
 5620TIP3    H216825   5.810   3.962   5.400
 5621TIP3   OH216826   4.263   4.829   3.957
 5621TIP3    H116827   4.268   4.843   4.052
 5621TIP3    H216828   4.172   4.801   3.942
 5622TIP3   OH216829   6.063   2.868   2.578
 5622TIP3    H116830   6.101   2.819   2.651
 5622TIP3    H216831   5.987   2.913   2.616
 5623TIP3   OH216832   0.557   3.569   0.885
 5623TIP3    H116833   0.647   3.600   0.875
 5623TIP3    H216834   0.526   3.611   0.965
 5624TIP3   OH216835   5.795   5.292   1.350
 5624TIP3    H116836   5.755   5.379   1.347
 5624TIP3    H216837   5.879   5.305   1.393
 5625TIP3   OH216838   2.318   3.403   2.663
 5625TIP3    H116839   2.285   3.448   2.585
 5625TIP3    H216840   2.409   3.382   2.642
 5626TIP3   OH216841   5.490   4.875   3.254
 5626TIP3    H116842   5.482   4.783   3.230
 5626TIP3    H216843   5.482   4.922   3.171
 5627TIP3   OH216844   4.999   3.417   2.716
 5627TIP3    H116845   4.939   3.417   2.791
 5627TIP3    H216846   5.070   3.359   2.742
 5628TIP3   OH216847   4.334   5.847   4.405
 5628TIP3    H116848   4.295   5.931   4.429
 5628TIP3    H216849   4.290   5.783   4.460
 5629TIP3   OH216850   2.390   0.526   4.675
 5629TIP3    H116851   2.376   0.602   4.618
 5629TIP3    H216852   2.479   0.497   4.655
 5630TIP3   OH216853   3.257   6.415   1.885
 5630TIP3    H116854   3.330   6.357   1.907
 5630TIP3    H216855   3.184   6.383   1.938
 5631TIP3   OH216856   3.631   2.744   3.150
 5631TIP3    H116857   3.670   2.743   3.063
 5631TIP3    H216858   3.662   2.824   3.190
 5632TIP3   OH216859   6.141   1.461   5.080
 5632TIP3    H116860   6.124   1.546   5.120
 5632TIP3    H216861   6.184   1.483   4.997
 5633TIP3   OH216862   3.705   3.484   3.032
 5633TIP3    H116863   3.696   3.468   3.126
 5633TIP3    H216864   3.722   3.578   3.025
 5634TIP3   OH216865   2.329   0.749   2.056
 5634TIP3    H116866   2.342   0.700   1.974
 5634TIP3    H216867   2.318   0.840   2.028
 5635TIP3   OH216868   4.736   5.054   2.775
 5635TIP3    H116869   4.828   5.034   2.788
 5635TIP3    H216870   4.734   5.148   2.758
 5636TIP3   OH216871   2.892   1.690   2.373
 5636TIP3    H116872   2.978   1.679   2.331
 5636TIP3    H216873   2.907   1.667   2.465
 5637TIP3   OH216874   5.377   2.262   0.696
 5637TIP3    H116875   5.323   2.190   0.728
 5637TIP3    H216876   5.344   2.279   0.608
 5638TIP3   OH216877   6.939   3.234   5.824
 5638TIP3    H116878   6.856   3.225   5.778
 5638TIP3    H216879   6.998   3.275   5.760
 5639TIP3   OH216880   1.188   2.498   4.333
 5639TIP3    H116881   1.111   2.476   4.385
 5639TIP3    H216882   1.262   2.484   4.393
 5640TIP3   OH216883   1.285   6.618   5.550
 5640TIP3    H116884   1.314   6.529   5.530
 5640TIP3    H216885   1.351   6.652   5.611
 5641TIP3   OH216886   6.240   3.046   2.376
 5641TIP3    H116887   6.253   3.056   2.281
 5641TIP3    H216888   6.296   2.973   2.400
 5642TIP3   OH216889   6.930   2.065   5.445
 5642TIP3    H116890   7.001   2.008   5.473
 5642TIP3    H216891   6.851   2.012   5.459
 5643TIP3   OH216892   2.513   1.248   0.853
 5643TIP3    H116893   2.602   1.249   0.819
 5643TIP3    H216894   2.493   1.155   0.868
 5644TIP3   OH216895   1.764   2.839   2.378
 5644TIP3    H116896   1.744   2.882   2.460
 5644TIP3    H216897   1.685   2.789   2.357
 5645TIP3   OH216898   1.616   5.968   4.014
 5645TIP3    H116899   1.662   6.048   4.040
 5645TIP3    H216900   1.524   5.994   4.005
 5646TIP3   OH216901   0.328   5.687   3.256
 5646TIP3    H116902   0.352   5.597   3.235
 5646TIP3    H216903   0.328   5.732   3.171
 5647TIP3   OH216904   4.682   4.518   5.002
 5647TIP3    H116905   4.665   4.474   5.085
 5647TIP3    H216906   4.605   4.575   4.990
 5648TIP3   OH216907   4.840   5.729   3.210
 5648TIP3    H116908   4.927   5.752   3.242
 5648TIP3    H216909   4.837   5.765   3.122
 5649TIP3   OH216910   6.030   0.558   1.990
 5649TIP3    H116911   5.950   0.549   2.042
 5649TIP3    H216912   6.093   0.597   2.050
 5650TIP3   OH216913   4.567   0.693   5.417
 5650TIP3    H116914   4.581   0.682   5.511
 5650TIP3    H216915   4.514   0.617   5.392
 5651TIP3   OH216916   4.426   4.069   1.012
 5651TIP3    H116917   4.457   4.049   0.923
 5651TIP3    H216918   4.486   4.136   1.044
 5652TIP3   OH216919   3.254   2.421   4.799
 5652TIP3    H116920   3.176   2.465   4.765
 5652TIP3    H216921   3.241   2.420   4.894
 5653TIP3   OH216922   2.617   5.922   4.995
 5653TIP3    H116923   2.663   5.957   5.071
 5653TIP3    H216924   2.673   5.849   4.966
 5654TIP3   OH216925   3.977   1.878   5.882
 5654TIP3    H116926   3.919   1.938   5.835
 5654TIP3    H216927   4.031   1.838   5.815
 5655TIP3   OH216928   5.827   6.389   3.681
 5655TIP3    H116929   5.734   6.368   3.686
 5655TIP3    H216930   5.858   6.385   3.772
 5656TIP3   OH216931   3.936   2.906   5.089
 5656TIP3    H116932   4.009   2.891   5.148
 5656TIP3    H216933   3.900   2.819   5.072
 5657TIP3   OH216934   1.458   4.822   1.368
 5657TIP3    H116935   1.365   4.807   1.348
 5657TIP3    H216936   1.487   4.883   1.300
 5658TIP3   OH216937   1.240   4.623   5.874
 5658TIP3    H116938   1.283   4.655   5.953
 5658TIP3    H216939   1.169   4.685   5.859
 5659TIP3   OH216940   7.153   2.893   0.128
 5659TIP3    H116941   7.109   2.957   0.073
 5659TIP3    H216942   7.226   2.941   0.168
 5660TIP3   OH216943   1.358   0.434   2.960
 5660TIP3    H116944   1.437   0.487   2.968
 5660TIP3    H216945   1.314   0.442   3.044
 5661TIP3   OH216946   2.749   0.453   0.186
 5661TIP3    H116947   2.769   0.412   0.270
 5661TIP3    H216948   2.835   0.471   0.147
 5662TIP3   OH216949   5.090   4.176   1.045
 5662TIP3    H116950   5.060   4.161   1.134
 5662TIP3    H216951   5.061   4.265   1.024
 5663TIP3   OH216952   6.655   4.962   2.666
 5663TIP3    H116953   6.716   4.909   2.718
 5663TIP3    H216954   6.598   5.003   2.731
 5664TIP3   OH216955   6.227   2.726   4.767
 5664TIP3    H116956   6.207   2.646   4.816
 5664TIP3    H216957   6.144   2.774   4.767
 5665TIP3   OH216958   6.441   0.734   1.458
 5665TIP3    H116959   6.495   0.685   1.520
 5665TIP3    H216960   6.369   0.769   1.511
 5666TIP3   OH216961   5.738   4.023   3.576
 5666TIP3    H116962   5.738   3.928   3.589
 5666TIP3    H216963   5.766   4.059   3.660
 5667TIP3   OH216964   0.237   0.028   1.059
 5667TIP3    H116965   0.264   0.046   1.149
 5667TIP3    H216966   0.177  -0.046   1.066
 5668TIP3   OH216967   2.968   2.310   5.262
 5668TIP3    H116968   2.880   2.297   5.297
 5668TIP3    H216969   2.984   2.233   5.208
 5669TIP3   OH216970   5.859   2.319   4.110
 5669TIP3    H116971   5.783   2.298   4.055
 5669TIP3    H216972   5.830   2.394   4.162
 5670TIP3   OH216973   4.475   1.278   3.283
 5670TIP3    H116974   4.445   1.257   3.195
 5670TIP3    H216975   4.394   1.295   3.332
 5671TIP3   OH216976   3.156   2.958   1.898
 5671TIP3    H116977   3.141   3.014   1.974
 5671TIP3    H216978   3.084   2.979   1.839
 5672TIP3   OH216979   6.870   2.441   2.908
 5672TIP3    H116980   6.935   2.390   2.859
 5672TIP3    H216981   6.792   2.440   2.853
 5673TIP3   OH216982   4.192   6.111   4.395
 5673TIP3    H116983   4.146   6.187   4.431
 5673TIP3    H216984   4.234   6.144   4.315
 5674TIP3   OH216985   3.105   1.163   3.909
 5674TIP3    H116986   3.019   1.126   3.927
 5674TIP3    H216987   3.150   1.163   3.994
 5675TIP3   OH216988   1.621   2.012   4.285
 5675TIP3    H116989   1.585   2.024   4.373
 5675TIP3    H216990   1.564   2.065   4.229
 5676TIP3   OH216991   6.408   3.370   2.769
 5676TIP3    H116992   6.407   3.457   2.728
 5676TIP3    H216993   6.485   3.327   2.733
 5677TIP3   OH216994   7.015   1.933   0.616
 5677TIP3    H116995   7.067   2.013   0.616
 5677TIP3    H216996   6.968   1.935   0.533
 5678TIP3   OH216997   6.744   0.674   2.203
 5678TIP3    H116998   6.805   0.732   2.157
 5678TIP3    H216999   6.687   0.734   2.252
 5679TIP3   OH217000   4.442   3.693   1.498
 5679TIP3    H117001   4.485   3.772   1.466
 5679TIP3    H217002   4.356   3.722   1.528
 5680TIP3   OH217003   3.348   4.789   0.406
 5680TIP3    H117004   3.392   4.861   0.451
 5680TIP3    H217005   3.324   4.825   0.320
 5681TIP3   OH217006   6.077   3.502   3.398
 5681TIP3    H117007   6.128   3.568   3.445
 5681TIP3    H217008   6.142   3.439   3.367
 5682TIP3   OH217009   4.924   0.241   4.338
 5682TIP3    H117010   4.990   0.237   4.269
 5682TIP3    H217011   4.871   0.162   4.324
 5683TIP3   OH217012   5.609   5.331   5.123
 5683TIP3    H117013   5.554   5.325   5.201
 5683TIP3    H217014   5.627   5.240   5.099
 5684TIP3   OH217015   2.569   3.078   3.289
 5684TIP3    H117016   2.566   3.161   3.336
 5684TIP3    H217017   2.570   3.012   3.358
 5685TIP3   OH217018   5.444   4.616   3.177
 5685TIP3    H117019   5.358   4.625   3.137
 5685TIP3    H217020   5.450   4.524   3.202
 5686TIP3   OH217021   3.962   0.992   0.250
 5686TIP3    H117022   4.040   0.936   0.245
 5686TIP3    H217023   3.955   1.015   0.343
 5687TIP3   OH217024   0.266   3.939   0.915
 5687TIP3    H117025   0.352   3.981   0.913
 5687TIP3    H217026   0.265   3.892   0.998
 5688TIP3   OH217027   4.427   4.384   2.897
 5688TIP3    H117028   4.501   4.428   2.938
 5688TIP3    H217029   4.398   4.320   2.963
 5689TIP3   OH217030   5.307   1.519   2.057
 5689TIP3    H117031   5.330   1.604   2.020
 5689TIP3    H217032   5.219   1.532   2.093
 5690TIP3   OH217033   2.916   1.873   0.012
 5690TIP3    H117034   2.920   1.954   0.064
 5690TIP3    H217035   2.887   1.806   0.074
 5691TIP3   OH217036   1.093   2.955   3.841
 5691TIP3    H117037   1.072   2.984   3.929
 5691TIP3    H217038   1.152   2.881   3.853
 5692TIP3   OH217039   1.340   1.917   3.996
 5692TIP3    H117040   1.361   1.852   3.929
 5692TIP3    H217041   1.278   1.873   4.054
 5693TIP3   OH217042   0.768   2.358   0.526
 5693TIP3    H117043   0.733   2.328   0.610
 5693TIP3    H217044   0.860   2.333   0.528
 5694TIP3   OH217045   6.514   6.258   1.455
 5694TIP3    H117046   6.558   6.259   1.540
 5694TIP3    H217047   6.445   6.192   1.465
 5695TIP3   OH217048   5.278   5.190   0.207
 5695TIP3    H117049   5.262   5.194   0.113
 5695TIP3    H217050   5.299   5.099   0.224
 5696TIP3   OH217051   4.851   4.904   0.878
 5696TIP3    H117052   4.860   4.812   0.851
 5696TIP3    H217053   4.930   4.946   0.845
 5697TIP3   OH217054   4.165   0.046   5.830
 5697TIP3    H117055   4.132   0.020   5.916
 5697TIP3    H217056   4.206   0.131   5.845
 5698TIP3   OH217057   3.896   4.322   4.257
 5698TIP3    H117058   3.856   4.407   4.278
 5698TIP3    H217059   3.828   4.258   4.277
 5699TIP3   OH217060   5.250   0.017   3.914
 5699TIP3    H117061   5.294   0.086   3.863
 5699TIP3    H217062   5.173  -0.006   3.861
 5700TIP3   OH217063   4.125   1.818   3.888
 5700TIP3    H117064   4.031   1.806   3.873
 5700TIP3    H217065   4.162   1.730   3.878
 5701TIP3   OH217066   2.850   0.280   0.388
 5701TIP3    H117067   2.833   0.295   0.481
 5701TIP3    H217068   2.907   0.202   0.387
 5702TIP3   OH217069   6.894   6.444   1.599
 5702TIP3    H117070   6.915   6.460   1.507
 5702TIP3    H217071   6.904   6.530   1.640
 5703TIP3   OH217072   6.274   3.349   2.413
 5703TIP3    H117073   6.299   3.263   2.379
 5703TIP3    H217074   6.310   3.412   2.351
 5704TIP3   OH217075   5.116   0.711   3.849
 5704TIP3    H117076   5.101   0.767   3.925
 5704TIP3    H217077   5.070   0.629   3.869
 5705TIP3   OH217078   1.462   0.001   1.744
 5705TIP3    H117079   1.459   0.027   1.836
 5705TIP3    H217080   1.427   0.076   1.696
 5706TIP3   OH217081   5.454   0.810   5.183
 5706TIP3    H117082   5.526   0.841   5.237
 5706TIP3    H217083   5.483   0.826   5.093
 5707TIP3   OH217084   0.564   5.144   0.681
 5707TIP3    H117085   0.554   5.182   0.768
 5707TIP3    H217086   0.494   5.182   0.629
 5708TIP3   OH217087   3.044   6.573   3.821
 5708TIP3    H117088   3.014   6.620   3.899
 5708TIP3    H217089   2.994   6.612   3.749
 5709TIP3   OH217090   6.501   2.498   4.481
 5709TIP3    H117091   6.516   2.566   4.546
 5709TIP3    H217092   6.504   2.545   4.397
 5710TIP3   OH217093   3.438   5.513   1.849
 5710TIP3    H117094   3.372   5.470   1.903
 5710TIP3    H217095   3.415   5.490   1.760
 5711TIP3   OH217096   7.072   1.658   4.902
 5711TIP3    H117097   7.154   1.619   4.932
 5711TIP3    H217098   7.055   1.616   4.817
 5712TIP3   OH217099   1.789   2.426   4.920
 5712TIP3    H117100   1.771   2.482   4.996
 5712TIP3    H217101   1.805   2.488   4.849
 5713TIP3   OH217102   5.964   5.574   1.781
 5713TIP3    H117103   5.884   5.521   1.774
 5713TIP3    H217104   5.999   5.554   1.867
 5714TIP3   OH217105   0.666   6.647   2.715
 5714TIP3    H117106   0.593   6.653   2.653
 5714TIP3    H217107   0.645   6.571   2.770
 5715TIP3   OH217108   4.741   2.103   5.822
 5715TIP3    H117109   4.745   2.055   5.740
 5715TIP3    H217110   4.768   2.192   5.800
 5716TIP3   OH217111   3.189   6.205   0.638
 5716TIP3    H117112   3.222   6.123   0.601
 5716TIP3    H217113   3.104   6.218   0.597
 5717TIP3   OH217114   0.805   2.090   1.368
 5717TIP3    H117115   0.889   2.088   1.324
 5717TIP3    H217116   0.751   2.026   1.321
 5718TIP3   OH217117   1.495   4.295   5.438
 5718TIP3    H117118   1.510   4.319   5.529
 5718TIP3    H217119   1.573   4.244   5.414
 5719TIP3   OH217120   0.491   6.382   5.635
 5719TIP3    H117121   0.515   6.437   5.709
 5719TIP3    H217122   0.395   6.387   5.632
 5720TIP3   OH217123   0.202   5.800   2.591
 5720TIP3    H117124   0.162   5.776   2.674
 5720TIP3    H217125   0.222   5.716   2.549
 5721TIP3   OH217126   4.975   6.625   1.577
 5721TIP3    H117127   4.912   6.620   1.649
 5721TIP3    H217128   5.030   6.547   1.589
 5722TIP3   OH217129   4.043   1.268   3.578
 5722TIP3    H117130   4.063   1.266   3.671
 5722TIP3    H217131   3.958   1.313   3.573
 5723TIP3   OH217132   2.390   3.101   1.102
 5723TIP3    H117133   2.381   3.139   1.189
 5723TIP3    H217134   2.482   3.076   1.096
 5724TIP3   OH217135   4.606   4.683   5.453
 5724TIP3    H117136   4.525   4.718   5.417
 5724TIP3    H217137   4.581   4.649   5.539
 5725TIP3   OH217138   3.685   3.892   1.412
 5725TIP3    H117139   3.684   3.988   1.407
 5725TIP3    H217140   3.695   3.873   1.505
 5726TIP3   OH217141   2.173   6.326   2.937
 5726TIP3    H117142   2.089   6.334   2.891
 5726TIP3    H217143   2.170   6.238   2.976
 5727TIP3   OH217144   5.751   1.862   5.062
 5727TIP3    H117145   5.790   1.793   5.115
 5727TIP3    H217146   5.687   1.816   5.007
 5728TIP3   OH217147   0.063   2.858   4.094
 5728TIP3    H117148   0.086   2.938   4.047
 5728TIP3    H217149   0.140   2.839   4.148
 5729TIP3   OH217150   2.665   2.943   0.658
 5729TIP3    H117151   2.624   2.865   0.620
 5729TIP3    H217152   2.597   3.011   0.650
 5730TIP3   OH217153   0.540   1.026   5.310
 5730TIP3    H117154   0.549   1.121   5.319
 5730TIP3    H217155   0.584   1.005   5.228
 5731TIP3   OH217156   7.140   0.092   4.582
 5731TIP3    H117157   7.165   0.184   4.574
 5731TIP3    H217158   7.145   0.073   4.675
 5732TIP3   OH217159   5.485   2.104   3.726
 5732TIP3    H117160   5.410   2.061   3.766
 5732TIP3    H217161   5.446   2.168   3.665
 5733TIP3   OH217162   1.243   3.590   3.564
 5733TIP3    H117163   1.336   3.569   3.555
 5733TIP3    H217164   1.238   3.685   3.552
 5734TIP3   OH217165   5.424   0.235   3.827
 5734TIP3    H117166   5.378   0.276   3.900
 5734TIP3    H217167   5.430   0.304   3.761
 5735TIP3   OH217168   0.592   0.504   2.112
 5735TIP3    H117169   0.511   0.453   2.102
 5735TIP3    H217170   0.577   0.584   2.062
 5736TIP3   OH217171   1.968   5.840   2.955
 5736TIP3    H117172   1.990   5.764   3.010
 5736TIP3    H217173   1.961   5.804   2.867
 5737TIP3   OH217174   4.855   1.394   1.332
 5737TIP3    H117175   4.886   1.478   1.365
 5737TIP3    H217176   4.763   1.409   1.311
 5738TIP3   OH217177   0.018   0.530   0.342
 5738TIP3    H117178  -0.077   0.542   0.336
 5738TIP3    H217179   0.030   0.468   0.415
 5739TIP3   OH217180   0.089   0.068   3.961
 5739TIP3    H117181   0.153   0.055   3.891
 5739TIP3    H217182   0.085   0.163   3.972
 5740TIP3   OH217183   3.741   3.573   4.751
 5740TIP3    H117184   3.707   3.582   4.840
 5740TIP3    H217185   3.671   3.608   4.695
 5741TIP3   OH217186   5.837   5.462   4.854
 5741TIP3    H117187   5.840   5.406   4.777
 5741TIP3    H217188   5.922   5.448   4.897
 5742TIP3   OH217189   2.950   1.367   4.507
 5742TIP3    H117190   2.920   1.283   4.471
 5742TIP3    H217191   2.880   1.394   4.566
 5743TIP3   OH217192   4.093   4.134   3.180
 5743TIP3    H117193   4.009   4.124   3.135
 5743TIP3    H217194   4.079   4.205   3.242
 5744TIP3   OH217195   4.382   3.665   3.394
 5744TIP3    H117196   4.463   3.712   3.415
 5744TIP3    H217197   4.323   3.732   3.361
 5745TIP3   OH217198   1.039   4.064   4.850
 5745TIP3    H117199   1.006   4.101   4.931
 5745TIP3    H217200   0.978   4.096   4.782
 5746TIP3   OH217201   3.102   0.135   0.238
 5746TIP3    H117202   3.153   0.176   0.169
 5746TIP3    H217203   3.065   0.057   0.197
 5747TIP3   OH217204   2.340   0.077   3.783
 5747TIP3    H117205   2.397   0.138   3.737
 5747TIP3    H217206   2.339   0.107   3.874
 5748TIP3   OH217207   6.212   2.256   4.531
 5748TIP3    H117208   6.159   2.291   4.602
 5748TIP3    H217209   6.199   2.318   4.459
 5749TIP3   OH217210   5.275   5.580   1.307
 5749TIP3    H117211   5.278   5.545   1.218
 5749TIP3    H217212   5.214   5.653   1.303
 5750TIP3   OH217213   5.036   1.377   0.215
 5750TIP3    H117214   4.983   1.300   0.194
 5750TIP3    H217215   5.124   1.343   0.229
 5751TIP3   OH217216   0.140   0.696   4.906
 5751TIP3    H117217   0.185   0.746   4.973
 5751TIP3    H217218   0.183   0.722   4.824
 5752TIP3   OH217219   3.621   2.998   5.850
 5752TIP3    H117220   3.602   3.084   5.811
 5752TIP3    H217221   3.716   2.993   5.853
 5753TIP3   OH217222   7.033   6.242   1.774
 5753TIP3    H117223   6.988   6.232   1.858
 5753TIP3    H217224   6.975   6.298   1.722
 5754TIP3   OH217225   5.879   0.294   1.405
 5754TIP3    H117226   5.845   0.356   1.341
 5754TIP3    H217227   5.804   0.239   1.429
 5755TIP3   OH217228   2.613   3.994   0.473
 5755TIP3    H117229   2.687   4.026   0.421
 5755TIP3    H217230   2.643   3.910   0.507
 5756TIP3   OH217231   6.178   5.599   5.603
 5756TIP3    H117232   6.137   5.546   5.536
 5756TIP3    H217233   6.106   5.648   5.643
 5757TIP3   OH217234   3.390   1.050   2.633
 5757TIP3    H117235   3.450   0.975   2.636
 5757TIP3    H217236   3.400   1.092   2.718
 5758TIP3   OH217237   4.181   2.235   4.027
 5758TIP3    H117238   4.111   2.243   3.963
 5758TIP3    H217239   4.245   2.177   3.985
 5759TIP3   OH217240   7.056   2.523   2.602
 5759TIP3    H117241   7.150   2.508   2.590
 5759TIP3    H217242   7.051   2.586   2.674
 5760TIP3   OH217243   2.801   2.068   5.619
 5760TIP3    H117244   2.738   2.084   5.689
 5760TIP3    H217245   2.830   2.155   5.592
 5761TIP3   OH217246   1.018   3.048   2.265
 5761TIP3    H117247   1.074   3.033   2.189
 5761TIP3    H217248   0.994   2.960   2.295
 5762TIP3   OH217249   0.858   5.176   4.436
 5762TIP3    H117250   0.815   5.214   4.359
 5762TIP3    H217251   0.818   5.090   4.447
 5763TIP3   OH217252   4.993   4.737   1.863
 5763TIP3    H117253   5.028   4.776   1.783
 5763TIP3    H217254   4.928   4.800   1.894
 5764TIP3   OH217255   6.273   3.933   4.006
 5764TIP3    H117256   6.226   3.873   3.949
 5764TIP3    H217257   6.232   3.923   4.091
 5765TIP3   OH217258   6.081   0.659   4.171
 5765TIP3    H117259   5.989   0.639   4.186
 5765TIP3    H217260   6.123   0.640   4.255
 5766TIP3   OH217261   2.686   2.406   3.867
 5766TIP3    H117262   2.626   2.402   3.941
 5766TIP3    H217263   2.632   2.432   3.793
 5767TIP3   OH217264   2.590   5.611   3.130
 5767TIP3    H117265   2.603   5.693   3.177
 5767TIP3    H217266   2.495   5.598   3.132
 5768TIP3   OH217267   0.096   1.892   5.756
 5768TIP3    H117268   0.049   1.975   5.751
 5768TIP3    H217269   0.148   1.889   5.675
 5769TIP3   OH217270   1.341   2.625   5.812
 5769TIP3    H117271   1.427   2.647   5.848
 5769TIP3    H217272   1.356   2.550   5.756
 5770TIP3   OH217273   5.092   1.702   4.521
 5770TIP3    H117274   5.169   1.669   4.568
 5770TIP3    H217275   5.018   1.671   4.573
 5771TIP3   OH217276   5.557   1.797   4.454
 5771TIP3    H117277   5.513   1.725   4.501
 5771TIP3    H217278   5.618   1.833   4.518
 5772TIP3   OH217279   4.435   1.714   1.968
 5772TIP3    H117280   4.398   1.664   2.041
 5772TIP3    H217281   4.525   1.734   1.996
 5773TIP3   OH217282   1.058   3.257   5.794
 5773TIP3    H117283   1.126   3.287   5.854
 5773TIP3    H217284   1.010   3.337   5.772
 5774TIP3   OH217285   2.664   4.892   2.391
 5774TIP3    H117286   2.581   4.902   2.439
 5774TIP3    H217287   2.688   4.800   2.405
 5775TIP3   OH217288   1.734   0.938   0.765
 5775TIP3    H117289   1.791   0.862   0.769
 5775TIP3    H217290   1.715   0.958   0.857
 5776TIP3   OH217291   4.242   3.635   5.362
 5776TIP3    H117292   4.259   3.551   5.321
 5776TIP3    H217293   4.158   3.663   5.325
 5777TIP3   OH217294   5.185   2.014   3.513
 5777TIP3    H117295   5.146   2.091   3.470
 5777TIP3    H217296   5.164   2.025   3.606
 5778TIP3   OH217297   6.149   6.502   4.151
 5778TIP3    H117298   6.116   6.531   4.236
 5778TIP3    H217299   6.138   6.407   4.153
 5779TIP3   OH217300   4.684   0.356   0.185
 5779TIP3    H117301   4.775   0.371   0.212
 5779TIP3    H217302   4.678   0.400   0.100
 5780TIP3   OH217303   2.336   3.750   2.070
 5780TIP3    H117304   2.336   3.690   2.145
 5780TIP3    H217305   2.381   3.702   2.000
 5781TIP3   OH217306   4.316   0.511   2.827
 5781TIP3    H117307   4.299   0.573   2.897
 5781TIP3    H217308   4.279   0.552   2.749
 5782TIP3   OH217309   3.507   5.632   0.406
 5782TIP3    H117310   3.452   5.554   0.398
 5782TIP3    H217311   3.556   5.635   0.324
 5783TIP3   OH217312   0.172   2.235   0.829
 5783TIP3    H117313   0.226   2.248   0.751
 5783TIP3    H217314   0.188   2.145   0.855
 5784TIP3   OH217315   3.430   4.597   4.610
 5784TIP3    H117316   3.400   4.569   4.524
 5784TIP3    H217317   3.516   4.556   4.620
 5785TIP3   OH217318   5.455   2.984   1.206
 5785TIP3    H117319   5.520   3.051   1.184
 5785TIP3    H217320   5.506   2.916   1.250
 5786TIP3   OH217321   1.388   5.672   4.556
 5786TIP3    H117322   1.342   5.592   4.533
 5786TIP3    H217323   1.331   5.715   4.620
 5787TIP3   OH217324   5.165   3.247   2.800
 5787TIP3    H117325   5.223   3.181   2.760
 5787TIP3    H217326   5.125   3.202   2.874
 5788TIP3   OH217327   7.210   2.164   2.191
 5788TIP3    H117328   7.138   2.172   2.254
 5788TIP3    H217329   7.165   2.153   2.106
 5789TIP3   OH217330   5.666   2.021   1.182
 5789TIP3    H117331   5.642   2.104   1.223
 5789TIP3    H217332   5.752   2.000   1.217
 5790TIP3   OH217333   1.654   5.913   3.673
 5790TIP3    H117334   1.558   5.908   3.673
 5790TIP3    H217335   1.674   5.974   3.744
 5791TIP3   OH217336   0.059   5.563   4.366
 5791TIP3    H117337  -0.003   5.629   4.397
 5791TIP3    H217338   0.145   5.599   4.386
 5792TIP3   OH217339   3.604   3.350   2.486
 5792TIP3    H117340   3.682   3.393   2.451
 5792TIP3    H217341   3.550   3.422   2.518
 5793TIP3   OH217342   6.422   3.886   1.109
 5793TIP3    H117343   6.377   3.810   1.146
 5793TIP3    H217344   6.424   3.949   1.181
 5794TIP3   OH217345   0.725   5.574   4.947
 5794TIP3    H117346   0.638   5.575   4.988
 5794TIP3    H217347   0.777   5.635   4.999
 5795TIP3   OH217348   6.772   4.675   3.179
 5795TIP3    H117349   6.750   4.649   3.269
 5795TIP3    H217350   6.839   4.743   3.190
 5796TIP3   OH217351   5.584   5.263   0.405
 5796TIP3    H117352   5.668   5.263   0.451
 5796TIP3    H217353   5.607   5.269   0.312
 5797TIP3   OH217354   0.417   5.799   2.929
 5797TIP3    H117355   0.410   5.711   2.892
 5797TIP3    H217356   0.339   5.844   2.899
 5798TIP3   OH217357   6.365   4.736   3.597
 5798TIP3    H117358   6.286   4.786   3.577
 5798TIP3    H217359   6.340   4.680   3.671
 5799TIP3   OH217360   1.171   6.188   0.422
 5799TIP3    H117361   1.257   6.225   0.442
 5799TIP3    H217362   1.190   6.101   0.386
 5800TIP3   OH217363   1.441   3.651   4.673
 5800TIP3    H117364   1.427   3.591   4.599
 5800TIP3    H217365   1.402   3.605   4.748
 5801TIP3   OH217366   4.343   2.177   1.093
 5801TIP3    H117367   4.377   2.255   1.138
 5801TIP3    H217368   4.394   2.105   1.128
 5802TIP3   OH217369   1.213   2.014   1.443
 5802TIP3    H117370   1.269   2.054   1.510
 5802TIP3    H217371   1.223   2.071   1.366
 5803TIP3   OH217372   6.645   0.725   0.146
 5803TIP3    H117373   6.606   0.792   0.089
 5803TIP3    H217374   6.726   0.766   0.177
 5804TIP3   OH217375   6.832   3.018   2.420
 5804TIP3    H117376   6.910   2.968   2.445
 5804TIP3    H217377   6.860   3.109   2.423
 5805TIP3   OH217378   6.475   2.961   4.998
 5805TIP3    H117379   6.514   3.046   4.976
 5805TIP3    H217380   6.469   2.916   4.914
 5806TIP3   OH217381   3.077   2.013   4.462
 5806TIP3    H117382   3.073   1.918   4.475
 5806TIP3    H217383   3.017   2.049   4.528
 5807TIP3   OH217384   6.030   5.188   5.081
 5807TIP3    H117385   6.033   5.279   5.052
 5807TIP3    H217386   6.060   5.137   5.005
 5808TIP3   OH217387   0.536   1.422   3.070
 5808TIP3    H117388   0.608   1.392   3.126
 5808TIP3    H217389   0.557   1.513   3.049
 5809TIP3   OH217390   0.521   1.559   0.384
 5809TIP3    H117391   0.522   1.531   0.293
 5809TIP3    H217392   0.458   1.500   0.427
 5810TIP3   OH217393   4.067   2.931   2.842
 5810TIP3    H117394   4.038   3.004   2.788
 5810TIP3    H217395   4.154   2.956   2.872
 5811TIP3   OH217396   1.706   0.425   4.156
 5811TIP3    H117397   1.673   0.378   4.080
 5811TIP3    H217398   1.715   0.358   4.224
 5812TIP3   OH217399   0.494   0.749   4.492
 5812TIP3    H117400   0.588   0.750   4.511
 5812TIP3    H217401   0.487   0.786   4.404
 5813TIP3   OH217402   1.412   5.274   0.944
 5813TIP3    H117403   1.461   5.353   0.965
 5813TIP3    H217404   1.478   5.204   0.946
 5814TIP3   OH217405   5.614   1.471   5.432
 5814TIP3    H117406   5.529   1.477   5.390
 5814TIP3    H217407   5.607   1.528   5.509
 5815TIP3   OH217408   0.207   4.453   2.834
 5815TIP3    H117409   0.162   4.464   2.750
 5815TIP3    H217410   0.300   4.461   2.814
 5816TIP3   OH217411   5.359   2.517   1.186
 5816TIP3    H117412   5.278   2.479   1.153
 5816TIP3    H217413   5.428   2.466   1.144
 5817TIP3   OH217414   1.231   2.242   3.920
 5817TIP3    H117415   1.207   2.200   4.003
 5817TIP3    H217416   1.325   2.226   3.910
 5818TIP3   OH217417   6.912   4.281   0.758
 5818TIP3    H117418   6.885   4.205   0.810
 5818TIP3    H217419   6.842   4.345   0.772
 5819TIP3   OH217420   3.719   1.627   3.742
 5819TIP3    H117421   3.664   1.550   3.730
 5819TIP3    H217422   3.694   1.660   3.829
 5820TIP3   OH217423   5.018   5.534   5.783
 5820TIP3    H117424   4.925   5.541   5.806
 5820TIP3    H217425   5.047   5.454   5.827
 5821TIP3   OH217426   2.699   1.001   4.412
 5821TIP3    H117427   2.711   0.925   4.469
 5821TIP3    H217428   2.605   1.003   4.396
 5822TIP3   OH217429   4.082   1.766   0.433
 5822TIP3    H117430   4.090   1.837   0.368
 5822TIP3    H217431   4.016   1.707   0.395
 5823TIP3   OH217432   4.465   5.743   5.666
 5823TIP3    H117433   4.509   5.676   5.614
 5823TIP3    H217434   4.490   5.825   5.624
 5824TIP3   OH217435   1.851   5.020   1.201
 5824TIP3    H117436   1.922   5.084   1.205
 5824TIP3    H217437   1.833   5.009   1.108
 5825TIP3   OH217438   0.234   6.384   3.636
 5825TIP3    H117439   0.193   6.385   3.722
 5825TIP3    H217440   0.322   6.349   3.651
 5826TIP3   OH217441   3.503   6.048   5.101
 5826TIP3    H117442   3.492   5.953   5.087
 5826TIP3    H217443   3.574   6.055   5.164
 5827TIP3   OH217444   0.337   0.982   0.336
 5827TIP3    H117445   0.253   0.938   0.331
 5827TIP3    H217446   0.345   1.010   0.427
 5828TIP3   OH217447   1.902   5.800   3.610
 5828TIP3    H117448   1.810   5.788   3.631
 5828TIP3    H217449   1.904   5.875   3.552
 5829TIP3   OH217450   0.127   4.515   2.539
 5829TIP3    H117451   0.157   4.601   2.569
 5829TIP3    H217452   0.056   4.534   2.478
 5830TIP3   OH217453   6.875   6.754   2.217
 5830TIP3    H117454   6.822   6.808   2.276
 5830TIP3    H217455   6.945   6.812   2.187
 5831TIP3   OH217456   4.483   5.071   0.597
 5831TIP3    H117457   4.570   5.061   0.636
 5831TIP3    H217458   4.484   5.013   0.520
 5832TIP3   OH217459   2.875   5.603   0.406
 5832TIP3    H117460   2.919   5.674   0.454
 5832TIP3    H217461   2.834   5.550   0.474
 5833TIP3   OH217462   0.900   4.818   3.502
 5833TIP3    H117463   0.883   4.763   3.426
 5833TIP3    H217464   0.830   4.794   3.564
 5834TIP3   OH217465   0.602   2.357   2.658
 5834TIP3    H117466   0.523   2.351   2.604
 5834TIP3    H217467   0.572   2.345   2.747
 5835TIP3   OH217468   6.364   6.401   3.059
 5835TIP3    H117469   6.302   6.375   3.128
 5835TIP3    H217470   6.441   6.434   3.107
 5836TIP3   OH217471   1.551   0.021   4.094
 5836TIP3    H117472   1.620   0.087   4.087
 5836TIP3    H217473   1.587  -0.045   4.153
 5837TIP3   OH217474   0.070   3.312   0.349
 5837TIP3    H117475   0.102   3.394   0.312
 5837TIP3    H217476  -0.022   3.329   0.368
 5838TIP3   OH217477   2.907   5.266   3.592
 5838TIP3    H117478   2.910   5.182   3.637
 5838TIP3    H217479   2.831   5.311   3.631
 5839TIP3   OH217480   6.090   2.498   2.256
 5839TIP3    H117481   6.109   2.528   2.167
 5839TIP3    H217482   6.087   2.403   2.250
 5840TIP3   OH217483   6.182   1.962   0.751
 5840TIP3    H117484   6.216   2.045   0.786
 5840TIP3    H217485   6.109   1.940   0.808
 5841TIP3   OH217486   0.685   1.323   5.641
 5841TIP3    H117487   0.668   1.319   5.735
 5841TIP3    H217488   0.676   1.233   5.611
 5842TIP3   OH217489   7.125   5.058   3.955
 5842TIP3    H117490   7.076   5.122   4.008
 5842TIP3    H217491   7.060   5.020   3.897
 5843TIP3   OH217492   6.786   1.309   5.105
 5843TIP3    H117493   6.859   1.370   5.110
 5843TIP3    H217494   6.718   1.357   5.057
 5844TIP3   OH217495   0.325   4.828   0.664
 5844TIP3    H117496   0.318   4.778   0.582
 5844TIP3    H217497   0.238   4.865   0.677
 5845TIP3   OH217498   5.720   6.570   3.261
 5845TIP3    H117499   5.794   6.560   3.200
 5845TIP3    H217500   5.728   6.660   3.293
 5846TIP3   OH217501   6.625   4.097   4.028
 5846TIP3    H117502   6.555   4.100   4.093
 5846TIP3    H217503   6.580   4.105   3.944
 5847TIP3   OH217504   4.415   0.668   4.425
 5847TIP3    H117505   4.461   0.741   4.467
 5847TIP3    H217506   4.445   0.590   4.473
 5848TIP3   OH217507   6.036   2.500   1.979
 5848TIP3    H117508   6.012   2.466   1.893
 5848TIP3    H217509   6.106   2.563   1.961
 5849TIP3   OH217510   0.895   2.511   5.078
 5849TIP3    H117511   0.894   2.582   5.142
 5849TIP3    H217512   0.806   2.511   5.042
 5850TIP3   OH217513   1.310   6.326   2.282
 5850TIP3    H117514   1.317   6.416   2.315
 5850TIP3    H217515   1.249   6.283   2.342
 5851TIP3   OH217516   3.176   4.057   5.274
 5851TIP3    H117517   3.242   4.125   5.266
 5851TIP3    H217518   3.107   4.096   5.328
 5852TIP3   OH217519   2.471   1.325   2.838
 5852TIP3    H117520   2.559   1.291   2.856
 5852TIP3    H217521   2.484   1.419   2.826
 5853TIP3   OH217522   6.843   5.890   0.526
 5853TIP3    H117523   6.906   5.932   0.585
 5853TIP3    H217524   6.772   5.862   0.584
 5854TIP3   OH217525   2.759   3.360   0.913
 5854TIP3    H117526   2.824   3.413   0.868
 5854TIP3    H217527   2.685   3.358   0.852
 5855TIP3   OH217528   3.183   3.035   4.810
 5855TIP3    H117529   3.092   3.033   4.780
 5855TIP3    H217530   3.233   2.997   4.738
 5856TIP3   OH217531   3.777   1.289   2.012
 5856TIP3    H117532   3.698   1.343   2.004
 5856TIP3    H217533   3.767   1.242   2.095
 5857TIP3   OH217534   0.460   1.524   0.999
 5857TIP3    H117535   0.439   1.500   1.089
 5857TIP3    H217536   0.392   1.483   0.946
 5858TIP3   OH217537   3.768   1.165   3.837
 5858TIP3    H117538   3.822   1.204   3.906
 5858TIP3    H217539   3.697   1.122   3.884
 5859TIP3   OH217540   3.816   4.538   1.672
 5859TIP3    H117541   3.765   4.619   1.669
 5859TIP3    H217542   3.761   4.474   1.627
 5860TIP3   OH217543   3.383   3.423   4.308
 5860TIP3    H117544   3.406   3.515   4.310
 5860TIP3    H217545   3.376   3.397   4.400
 5861TIP3   OH217546   3.724   3.880   3.784
 5861TIP3    H117547   3.631   3.861   3.795
 5861TIP3    H217548   3.758   3.883   3.874
 5862TIP3   OH217549   0.121   0.338   4.656
 5862TIP3    H117550   0.192   0.387   4.695
 5862TIP3    H217551   0.067   0.309   4.730
 5863TIP3   OH217552   1.716   0.730   3.658
 5863TIP3    H117553   1.790   0.672   3.639
 5863TIP3    H217554   1.751   0.818   3.644
 5864TIP3   OH217555   1.126   5.343   0.372
 5864TIP3    H117556   1.112   5.416   0.311
 5864TIP3    H217557   1.082   5.269   0.331
 5865TIP3   OH217558   0.823   3.618   2.901
 5865TIP3    H117559   0.861   3.635   2.987
 5865TIP3    H217560   0.856   3.532   2.876
 5866TIP3   OH217561   3.160   6.313   2.805
 5866TIP3    H117562   3.138   6.314   2.711
 5866TIP3    H217563   3.254   6.296   2.807
 5867TIP3   OH217564   0.312   3.566   2.423
 5867TIP3    H117565   0.345   3.651   2.454
 5867TIP3    H217566   0.287   3.582   2.332
 5868TIP3   OH217567   0.268   5.539   2.481
 5868TIP3    H117568   0.332   5.525   2.411
 5868TIP3    H217569   0.269   5.459   2.533
 5869TIP3   OH217570   3.187   2.141   4.755
 5869TIP3    H117571   3.178   2.233   4.778
 5869TIP3    H217572   3.211   2.141   4.662
 5870TIP3   OH217573   0.913   0.753   2.071
 5870TIP3    H117574   0.831   0.803   2.077
 5870TIP3    H217575   0.974   0.798   2.129
 5871TIP3   OH217576   5.524   5.758   4.541
 5871TIP3    H117577   5.449   5.813   4.520
 5871TIP3    H217578   5.486   5.673   4.562
 5872TIP3   OH217579   6.881   2.642   3.696
 5872TIP3    H117580   6.958   2.599   3.660
 5872TIP3    H217581   6.827   2.665   3.620
 5873TIP3   OH217582   5.710   1.978   5.577
 5873TIP3    H117583   5.747   1.890   5.578
 5873TIP3    H217584   5.653   1.979   5.500
 5874TIP3   OH217585   0.576   5.263   0.935
 5874TIP3    H117586   0.668   5.267   0.961
 5874TIP3    H217587   0.528   5.243   1.016
 5875TIP3   OH217588   0.766   2.904   5.418
 5875TIP3    H117589   0.720   2.904   5.502
 5875TIP3    H217590   0.839   2.964   5.431
 5876TIP3   OH217591   1.829   2.301   5.625
 5876TIP3    H117592   1.835   2.298   5.721
 5876TIP3    H217593   1.918   2.282   5.594
 5877TIP3   OH217594   4.690   1.674   3.461
 5877TIP3    H117595   4.733   1.600   3.504
 5877TIP3    H217596   4.599   1.669   3.491
 5878TIP3   OH217597   3.418   1.281   3.231
 5878TIP3    H117598   3.467   1.203   3.205
 5878TIP3    H217599   3.420   1.337   3.153
 5879TIP3   OH217600   0.486   3.450   4.809
 5879TIP3    H117601   0.522   3.521   4.756
 5879TIP3    H217602   0.559   3.417   4.861
 5880TIP3   OH217603   4.504   2.255   4.151
 5880TIP3    H117604   4.488   2.197   4.225
 5880TIP3    H217605   4.531   2.196   4.080
 5881TIP3   OH217606   1.116   0.531   5.638
 5881TIP3    H117607   1.125   0.437   5.621
 5881TIP3    H217608   1.068   0.565   5.563
 5882TIP3   OH217609   1.553   2.782   0.975
 5882TIP3    H117610   1.547   2.690   0.948
 5882TIP3    H217611   1.619   2.819   0.917
 5883TIP3   OH217612   5.068   2.363   4.343
 5883TIP3    H117613   5.002   2.432   4.331
 5883TIP3    H217614   5.035   2.290   4.290
 5884TIP3   OH217615   1.692   2.041   3.214
 5884TIP3    H117616   1.698   2.041   3.118
 5884TIP3    H217617   1.758   1.978   3.242
 5885TIP3   OH217618   5.511   4.994   5.682
 5885TIP3    H117619   5.553   4.949   5.608
 5885TIP3    H217620   5.584   5.020   5.738
 5886TIP3   OH217621   2.074   0.758   1.870
 5886TIP3    H117622   2.137   0.830   1.867
 5886TIP3    H217623   2.021   0.777   1.948
 5887TIP3   OH217624   3.788   0.573   4.752
 5887TIP3    H117625   3.880   0.597   4.753
 5887TIP3    H217626   3.771   0.545   4.662
 5888TIP3   OH217627   3.271   0.809   1.185
 5888TIP3    H117628   3.259   0.716   1.168
 5888TIP3    H217629   3.298   0.846   1.101
 5889TIP3   OH217630   0.704   5.812   2.629
 5889TIP3    H117631   0.736   5.863   2.555
 5889TIP3    H217632   0.655   5.874   2.682
 5890TIP3   OH217633   3.088   5.824   1.874
 5890TIP3    H117634   3.050   5.737   1.864
 5890TIP3    H217635   3.157   5.813   1.939
 5891TIP3   OH217636   4.470   5.517   0.038
 5891TIP3    H117637   4.505   5.434   0.006
 5891TIP3    H217638   4.425   5.494   0.120
 5892TIP3   OH217639   2.818   6.444   1.789
 5892TIP3    H117640   2.762   6.519   1.769
 5892TIP3    H217641   2.804   6.428   1.882
 5893TIP3   OH217642   4.292   6.433   5.362
 5893TIP3    H117643   4.301   6.493   5.436
 5893TIP3    H217644   4.358   6.461   5.299
 5894TIP3   OH217645   5.881   3.128   3.989
 5894TIP3    H117646   5.972   3.127   3.960
 5894TIP3    H217647   5.846   3.211   3.955
 5895TIP3   OH217648   7.212   4.604   1.932
 5895TIP3    H117649   7.226   4.639   2.020
 5895TIP3    H217650   7.165   4.522   1.946
 5896TIP3   OH217651   1.442   0.221   3.601
 5896TIP3    H117652   1.475   0.290   3.659
 5896TIP3    H217653   1.366   0.186   3.647
 5897TIP3   OH217654   6.746   0.495   3.772
 5897TIP3    H117655   6.678   0.486   3.839
 5897TIP3    H217656   6.700   0.523   3.693
 5898TIP3   OH217657   0.226   0.536   5.766
 5898TIP3    H117658   0.313   0.565   5.740
 5898TIP3    H217659   0.233   0.521   5.860
 5899TIP3   OH217660   3.540   6.620   1.132
 5899TIP3    H117661   3.575   6.591   1.048
 5899TIP3    H217662   3.617   6.635   1.186
 5900TIP3   OH217663   0.358   6.725   0.270
 5900TIP3    H117664   0.322   6.793   0.213
 5900TIP3    H217665   0.286   6.663   0.283
 5901TIP3   OH217666   4.652   5.934   0.625
 5901TIP3    H117667   4.662   6.001   0.557
 5901TIP3    H217668   4.645   5.984   0.706
 5902TIP3   OH217669   3.521   5.078   5.018
 5902TIP3    H117670   3.562   5.025   4.950
 5902TIP3    H217671   3.546   5.035   5.100
 5903TIP3   OH217672   5.008   1.992   3.959
 5903TIP3    H117673   4.974   2.004   4.048
 5903TIP3    H217674   4.974   1.907   3.931
 5904TIP3   OH217675   4.355   4.776   5.325
 5904TIP3    H117676   4.365   4.701   5.266
 5904TIP3    H217677   4.262   4.796   5.324
 5905TIP3   OH217678   6.984   5.730   1.545
 5905TIP3    H117679   7.066   5.778   1.558
 5905TIP3    H217680   7.012   5.642   1.520
 5906TIP3   OH217681   4.707   1.251   2.933
 5906TIP3    H117682   4.757   1.188   2.986
 5906TIP3    H217683   4.725   1.336   2.974
 5907TIP3   OH217684   6.312   2.862   1.526
 5907TIP3    H117685   6.359   2.865   1.610
 5907TIP3    H217686   6.269   2.947   1.520
 5908TIP3   OH217687   1.183   0.904   1.772
 5908TIP3    H117688   1.264   0.895   1.722
 5908TIP3    H217689   1.204   0.967   1.840
 5909TIP3   OH217690   0.862   4.448   3.561
 5909TIP3    H117691   0.806   4.372   3.579
 5909TIP3    H217692   0.947   4.411   3.538
 5910TIP3   OH217693   5.368   4.087   3.812
 5910TIP3    H117694   5.338   4.174   3.841
 5910TIP3    H217695   5.416   4.052   3.887
 5911TIP3   OH217696   4.660   0.432   1.089
 5911TIP3    H117697   4.708   0.363   1.134
 5911TIP3    H217698   4.697   0.513   1.123
 5912TIP3   OH217699   3.742   5.972   0.668
 5912TIP3    H117700   3.703   6.058   0.685
 5912TIP3    H217701   3.821   5.972   0.722
 5913TIP3   OH217702   6.034   0.484   0.268
 5913TIP3    H117703   6.032   0.408   0.326
 5913TIP3    H217704   6.018   0.449   0.181
 5914TIP3   OH217705   2.074   5.372   3.604
 5914TIP3    H117706   2.092   5.343   3.693
 5914TIP3    H217707   2.112   5.460   3.600
 5915TIP3   OH217708   2.817   4.267   5.388
 5915TIP3    H117709   2.846   4.358   5.388
 5915TIP3    H217710   2.726   4.271   5.360
 5916TIP3   OH217711   2.432   3.226   4.842
 5916TIP3    H117712   2.488   3.214   4.918
 5916TIP3    H217713   2.402   3.138   4.820
 5917TIP3   OH217714   0.017   1.803   1.750
 5917TIP3    H117715   0.065   1.798   1.667
 5917TIP3    H217716   0.085   1.821   1.815
 5918TIP3   OH217717   5.910   4.053   3.822
 5918TIP3    H117718   5.952   4.133   3.789
 5918TIP3    H217719   5.978   3.986   3.816
 5919TIP3   OH217720   5.641   0.432   2.507
 5919TIP3    H117721   5.658   0.360   2.446
 5919TIP3    H217722   5.570   0.400   2.562
 5920TIP3   OH217723   3.830   0.228   3.043
 5920TIP3    H117724   3.738   0.238   3.068
 5920TIP3    H217725   3.872   0.189   3.119
 5921TIP3   OH217726   6.568   1.594   0.067
 5921TIP3    H117727   6.558   1.523   0.131
 5921TIP3    H217728   6.490   1.587   0.012
 5922TIP3   OH217729   5.609   2.437   3.536
 5922TIP3    H117730   5.572   2.355   3.504
 5922TIP3    H217731   5.687   2.411   3.585
 5923TIP3   OH217732   3.995   6.148   5.183
 5923TIP3    H117733   4.022   6.213   5.248
 5923TIP3    H217734   3.902   6.134   5.200
 5924TIP3   OH217735   1.848   1.873   3.380
 5924TIP3    H117736   1.835   1.896   3.472
 5924TIP3    H217737   1.916   1.805   3.382
 5925TIP3   OH217738   3.615   5.802   3.590
 5925TIP3    H117739   3.569   5.865   3.534
 5925TIP3    H217740   3.656   5.741   3.529
 5926TIP3   OH217741   1.326   3.282   2.871
 5926TIP3    H117742   1.352   3.199   2.830
 5926TIP3    H217743   1.405   3.311   2.917
 5927TIP3   OH217744   5.469   3.201   1.436
 5927TIP3    H117745   5.542   3.231   1.490
 5927TIP3    H217746   5.508   3.142   1.371
 5928TIP3   OH217747   0.765   4.373   3.254
 5928TIP3    H117748   0.732   4.298   3.204
 5928TIP3    H217749   0.721   4.366   3.339
 5929TIP3   OH217750   5.354   1.966   1.246
 5929TIP3    H117751   5.435   1.914   1.241
 5929TIP3    H217752   5.367   2.036   1.182
 5930TIP3   OH217753   3.064   2.624   5.354
 5930TIP3    H117754   3.095   2.714   5.345
 5930TIP3    H217755   3.044   2.615   5.447
 5931TIP3   OH217756   0.351   4.162   3.518
 5931TIP3    H117757   0.385   4.096   3.578
 5931TIP3    H217758   0.311   4.111   3.447
 5932TIP3   OH217759   1.266   5.014   1.630
 5932TIP3    H117760   1.355   5.040   1.606
 5932TIP3    H217761   1.211   5.085   1.599
 5933TIP3   OH217762   6.189   3.615   0.712
 5933TIP3    H117763   6.246   3.611   0.789
 5933TIP3    H217764   6.195   3.706   0.683
 5934TIP3   OH217765   6.349   6.031   0.006
 5934TIP3    H117766   6.422   6.046   0.066
 5934TIP3    H217767   6.390   6.030  -0.081
 5935TIP3   OH217768   6.683   2.229   2.816
 5935TIP3    H117769   6.766   2.183   2.802
 5935TIP3    H217770   6.678   2.241   2.911
 5936TIP3   OH217771   1.596   2.457   2.053
 5936TIP3    H117772   1.573   2.405   2.130
 5936TIP3    H217773   1.644   2.397   1.997
 5937TIP3   OH217774   0.199   4.264   5.741
 5937TIP3    H117775   0.230   4.338   5.690
 5937TIP3    H217776   0.111   4.247   5.708
 5938TIP3   OH217777   6.728   1.832   2.559
 5938TIP3    H117778   6.815   1.795   2.572
 5938TIP3    H217779   6.742   1.926   2.551
 5939TIP3   OH217780   0.208   4.392   0.264
 5939TIP3    H117781   0.136   4.431   0.214
 5939TIP3    H217782   0.168   4.371   0.349
 5940TIP3   OH217783   3.457   0.933   3.798
 5940TIP3    H117784   3.406   0.957   3.720
 5940TIP3    H217785   3.546   0.922   3.765
 5941TIP3   OH217786   4.311   4.316   5.514
 5941TIP3    H117787   4.259   4.322   5.434
 5941TIP3    H217788   4.328   4.406   5.539
 5942TIP3   OH217789   1.423   4.194   3.288
 5942TIP3    H117790   1.463   4.259   3.229
 5942TIP3    H217791   1.399   4.122   3.230
 5943TIP3   OH217792   4.165   3.204   5.811
 5943TIP3    H117793   4.184   3.297   5.796
 5943TIP3    H217794   4.179   3.192   5.905
 5944TIP3   OH217795   0.357   3.806   0.569
 5944TIP3    H117796   0.441   3.851   0.572
 5944TIP3    H217797   0.378   3.715   0.593
 5945TIP3   OH217798   2.218   4.062   1.770
 5945TIP3    H117799   2.238   4.135   1.711
 5945TIP3    H217800   2.134   4.084   1.809
 5946TIP3   OH217801   3.601   6.554   1.544
 5946TIP3    H117802   3.525   6.496   1.549
 5946TIP3    H217803   3.632   6.562   1.634
 5947TIP3   OH217804   0.232   6.564   0.862
 5947TIP3    H117805   0.218   6.587   0.770
 5947TIP3    H217806   0.212   6.644   0.910
 5948TIP3   OH217807   1.053   3.710   2.583
 5948TIP3    H117808   1.056   3.662   2.666
 5948TIP3    H217809   1.124   3.672   2.531
 5949TIP3   OH217810   7.092   0.373   3.973
 5949TIP3    H117811   7.135   0.444   3.926
 5949TIP3    H217812   7.021   0.345   3.915
 5950TIP3   OH217813   1.466   5.232   0.659
 5950TIP3    H117814   1.412   5.234   0.738
 5950TIP3    H217815   1.411   5.188   0.594
 5951TIP3   OH217816   1.343   4.438   2.355
 5951TIP3    H117817   1.405   4.427   2.283
 5951TIP3    H217818   1.297   4.354   2.360
 5952TIP3   OH217819   0.932   0.335   1.062
 5952TIP3    H117820   0.974   0.259   1.021
 5952TIP3    H217821   0.910   0.393   0.989
 5953TIP3   OH217822   2.040   2.678   0.934
 5953TIP3    H117823   1.966   2.734   0.955
 5953TIP3    H217824   2.108   2.703   0.997
 5954TIP3   OH217825   1.405   2.651   3.735
 5954TIP3    H117826   1.373   2.561   3.736
 5954TIP3    H217827   1.367   2.691   3.813
 5955TIP3   OH217828   0.113   3.761   2.005
 5955TIP3    H117829   0.180   3.780   1.940
 5955TIP3    H217830   0.094   3.845   2.047
 5956TIP3   OH217831   1.933   5.082  -0.035
 5956TIP3    H117832   1.965   5.162   0.007
 5956TIP3    H217833   1.899   5.029   0.037
 5957TIP3   OH217834   1.569   4.648   2.764
 5957TIP3    H117835   1.637   4.712   2.744
 5957TIP3    H217836   1.509   4.652   2.689
 5958TIP3   OH217837   3.057   3.921   1.332
 5958TIP3    H117838   2.977   3.879   1.302
 5958TIP3    H217839   3.063   3.899   1.425
 5959TIP3   OH217840   1.506   0.830   3.077
 5959TIP3    H117841   1.555   0.906   3.048
 5959TIP3    H217842   1.502   0.772   3.001
 5960TIP3   OH217843   3.269   2.714   3.052
 5960TIP3    H117844   3.265   2.755   3.138
 5960TIP3    H217845   3.335   2.765   3.004
 5961TIP3   OH217846   4.789   3.221   0.592
 5961TIP3    H117847   4.772   3.177   0.675
 5961TIP3    H217848   4.866   3.177   0.556
 5962TIP3   OH217849   1.179   3.188   0.684
 5962TIP3    H117850   1.260   3.137   0.690
 5962TIP3    H217851   1.186   3.252   0.755
 5963TIP3   OH217852   2.210   1.731   4.420
 5963TIP3    H117853   2.300   1.758   4.404
 5963TIP3    H217854   2.194   1.662   4.356
 5964TIP3   OH217855   3.959   0.648   2.802
 5964TIP3    H117856   3.894   0.579   2.789
 5964TIP3    H217857   4.042   0.609   2.775
 5965TIP3   OH217858   2.469   4.991   1.654
 5965TIP3    H117859   2.543   4.930   1.650
 5965TIP3    H217860   2.462   5.014   1.747
 5966TIP3   OH217861   4.226   0.245   2.950
 5966TIP3    H117862   4.233   0.295   2.869
 5966TIP3    H217863   4.290   0.285   3.008
 5967TIP3   OH217864   1.455   2.074   4.750
 5967TIP3    H117865   1.391   2.127   4.797
 5967TIP3    H217866   1.465   1.995   4.803
 5968TIP3   OH217867   0.865   1.779   4.055
 5968TIP3    H117868   0.793   1.720   4.076
 5968TIP3    H217869   0.861   1.847   4.123
 5969TIP3   OH217870   1.723   1.751   2.847
 5969TIP3    H117871   1.648   1.697   2.872
 5969TIP3    H217872   1.766   1.702   2.777
 5970TIP3   OH217873   6.731   2.977   5.806
 5970TIP3    H117874   6.641   2.963   5.775
 5970TIP3    H217875   6.746   2.905   5.867
 5971TIP3   OH217876   1.341   3.598   1.130
 5971TIP3    H117877   1.256   3.626   1.098
 5971TIP3    H217878   1.372   3.671   1.185
 5972TIP3   OH217879   5.368   3.229   0.539
 5972TIP3    H117880   5.370   3.312   0.491
 5972TIP3    H217881   5.406   3.166   0.478
 5973TIP3   OH217882   5.600   5.898   3.026
 5973TIP3    H117883   5.669   5.964   3.027
 5973TIP3    H217884   5.621   5.840   3.099
 5974TIP3   OH217885   5.834   0.184   3.183
 5974TIP3    H117886   5.830   0.128   3.261
 5974TIP3    H217887   5.928   0.196   3.168
 5975TIP3   OH217888   5.662   0.073   5.244
 5975TIP3    H117889   5.707   0.026   5.174
 5975TIP3    H217890   5.680   0.021   5.323
 5976TIP3   OH217891   5.550   4.580   2.290
 5976TIP3    H117892   5.482   4.513   2.301
 5976TIP3    H217893   5.585   4.565   2.203
 5977TIP3   OH217894   2.201   4.411   4.089
 5977TIP3    H117895   2.279   4.466   4.097
 5977TIP3    H217896   2.235   4.323   4.070
 5978TIP3   OH217897   3.648   6.746   3.185
 5978TIP3    H117898   3.572   6.701   3.148
 5978TIP3    H217899   3.626   6.757   3.278
 5979TIP3   OH217900   4.249   5.067   1.213
 5979TIP3    H117901   4.216   5.046   1.126
 5979TIP3    H217902   4.331   5.018   1.220
 5980TIP3   OH217903   5.880   1.127   1.168
 5980TIP3    H117904   5.808   1.162   1.116
 5980TIP3    H217905   5.895   1.194   1.235
 5981TIP3   OH217906   6.226   2.478   5.422
 5981TIP3    H117907   6.149   2.474   5.479
 5981TIP3    H217908   6.299   2.453   5.478
 5982TIP3   OH217909   0.158   1.770   0.160
 5982TIP3    H117910   0.073   1.806   0.183
 5982TIP3    H217911   0.211   1.782   0.239
 5983TIP3   OH217912   5.736   6.660   4.508
 5983TIP3    H117913   5.663   6.633   4.563
 5983TIP3    H217914   5.707   6.742   4.467
 5984TIP3   OH217915   2.506   5.190   3.963
 5984TIP3    H117916   2.561   5.260   3.997
 5984TIP3    H217917   2.447   5.169   4.035
 5985TIP3   OH217918   7.122   6.734   5.448
 5985TIP3    H117919   7.108   6.756   5.540
 5985TIP3    H217920   7.103   6.815   5.400
 5986TIP3   OH217921   3.012   3.856   3.362
 5986TIP3    H117922   2.922   3.876   3.387
 5986TIP3    H217923   3.019   3.886   3.271
 5987TIP3   OH217924   1.527   5.124   1.593
 5987TIP3    H117925   1.601   5.170   1.633
 5987TIP3    H217926   1.563   5.040   1.564
 5988TIP3   OH217927   0.416   0.369   5.115
 5988TIP3    H117928   0.446   0.378   5.205
 5988TIP3    H217929   0.322   0.349   5.123
 5989TIP3   OH217930   1.700   3.730   2.933
 5989TIP3    H117931   1.674   3.812   2.890
 5989TIP3    H217932   1.644   3.664   2.892
 5990TIP3   OH217933   2.968   2.716   3.953
 5990TIP3    H117934   2.973   2.810   3.968
 5990TIP3    H217935   2.991   2.705   3.861
 5991TIP3   OH217936   0.075   4.662   5.826
 5991TIP3    H117937   0.021   4.740   5.838
 5991TIP3    H217938   0.036   4.596   5.884
 5992TIP3   OH217939   3.201   2.541   0.429
 5992TIP3    H117940   3.266   2.597   0.387
 5992TIP3    H217941   3.175   2.589   0.507
 5993TIP3   OH217942   4.585   5.782   1.406
 5993TIP3    H117943   4.632   5.767   1.488
 5993TIP3    H217944   4.621   5.864   1.373
 5994TIP3   OH217945   3.022   5.437   5.829
 5994TIP3    H117946   2.930   5.463   5.832
 5994TIP3    H217947   3.020   5.345   5.804
 5995TIP3   OH217948   3.487   4.938   4.458
 5995TIP3    H117949   3.486   4.844   4.437
 5995TIP3    H217950   3.524   4.980   4.380
 5996TIP3   OH217951   4.175   2.812   5.215
 5996TIP3    H117952   4.217   2.898   5.224
 5996TIP3    H217953   4.227   2.767   5.148
 5997TIP3   OH217954   4.381   6.172   0.082
 5997TIP3    H117955   4.348   6.082   0.092
 5997TIP3    H217956   4.311   6.227   0.117
 5998TIP3   OH217957   4.135   4.911   0.682
 5998TIP3    H117958   4.223   4.873   0.682
 5998TIP3    H217959   4.085   4.856   0.621
 5999TIP3   OH217960   3.453   5.026   2.345
 5999TIP3    H117961   3.446   5.101   2.405
 5999TIP3    H217962   3.475   4.952   2.402
 6000TIP3   OH217963   4.654   1.600   4.508
 6000TIP3    H117964   4.576   1.655   4.510
 6000TIP3    H217965   4.627   1.522   4.460
 6001TIP3   OH217966   5.043   0.855   4.100
 6001TIP3    H117967   5.025   0.949   4.111
 6001TIP3    H217968   4.956   0.815   4.094
 6002TIP3   OH217969   5.566   1.757   4.842
 6002TIP3    H117970   5.524   1.681   4.882
 6002TIP3    H217971   5.554   1.743   4.748
 6003TIP3   OH217972   1.421   2.356   3.429
 6003TIP3    H117973   1.470   2.275   3.442
 6003TIP3    H217974   1.463   2.397   3.353
 6004TIP3   OH217975   2.274   5.609   1.068
 6004TIP3    H117976   2.248   5.677   1.130
 6004TIP3    H217977   2.280   5.530   1.122
 6005TIP3   OH217978   0.699   0.001   4.816
 6005TIP3    H117979   0.742  -0.021   4.899
 6005TIP3    H217980   0.624   0.055   4.842
 6006TIP3   OH217981   2.697   1.092   5.418
 6006TIP3    H117982   2.779   1.107   5.466
 6006TIP3    H217983   2.638   1.054   5.483
 6007TIP3   OH217984   7.232   0.995   0.892
 6007TIP3    H117985   7.173   0.920   0.890
 6007TIP3    H217986   7.262   1.001   0.983
 6008TIP3   OH217987   6.974   1.004   1.761
 6008TIP3    H117988   7.024   1.021   1.841
 6008TIP3    H217989   7.020   0.932   1.719
 6009TIP3   OH217990   0.361   1.983   3.056
 6009TIP3    H117991   0.283   1.927   3.056
 6009TIP3    H217992   0.386   1.989   3.148
 6010TIP3   OH217993   0.580   3.637   4.652
 6010TIP3    H117994   0.650   3.688   4.694
 6010TIP3    H217995   0.589   3.657   4.559
 6011TIP3   OH217996   0.084   6.355   1.727
 6011TIP3    H117997   0.047   6.389   1.808
 6011TIP3    H217998   0.010   6.313   1.683
 6012TIP3   OH217999   5.306   3.907   5.240
 6012TIP3    H118000   5.320   3.935   5.149
 6012TIP3    H218001   5.391   3.920   5.282
 6013TIP3   OH218002   0.682   1.109   2.365
 6013TIP3    H118003   0.759   1.165   2.352
 6013TIP3    H218004   0.717   1.032   2.411
 6014TIP3   OH218005   3.706   5.831   5.525
 6014TIP3    H118006   3.775   5.894   5.548
 6014TIP3    H218007   3.754   5.752   5.500
 6015TIP3   OH218008   6.828   5.656   2.948
 6015TIP3    H118009   6.793   5.602   3.019
 6015TIP3    H218010   6.750   5.690   2.903
 6016TIP3   OH218011   5.554   3.334   2.813
 6016TIP3    H118012   5.639   3.341   2.857
 6016TIP3    H218013   5.495   3.301   2.881
 6017TIP3   OH218014   2.770   0.896   0.082
 6017TIP3    H118015   2.812   0.810   0.084
 6017TIP3    H218016   2.687   0.881   0.036
 6018TIP3   OH218017   3.623   5.171   3.311
 6018TIP3    H118018   3.668   5.132   3.386
 6018TIP3    H218019   3.581   5.250   3.346
 6019TIP3   OH218020   0.950   4.816   0.119
 6019TIP3    H118021   1.019   4.876   0.091
 6019TIP3    H218022   0.885   4.873   0.161
 6020TIP3   OH218023   2.266   4.450   2.144
 6020TIP3    H118024   2.246   4.456   2.051
 6020TIP3    H218025   2.264   4.356   2.164
 6021TIP3   OH218026   6.816   1.222   0.993
 6021TIP3    H118027   6.885   1.231   0.928
 6021TIP3    H218028   6.768   1.144   0.966
 6022TIP3   OH218029   7.158   5.669   5.118
 6022TIP3    H118030   7.193   5.644   5.032
 6022TIP3    H218031   7.128   5.759   5.105
 6023TIP3   OH218032   0.210   5.827   5.007
 6023TIP3    H118033   0.248   5.879   5.078
 6023TIP3    H218034   0.221   5.736   5.036
 6024TIP3   OH218035   0.683   1.727   2.771
 6024TIP3    H118036   0.688   1.671   2.848
 6024TIP3    H218037   0.683   1.816   2.806
 6025TIP3   OH218038   6.456   0.475   5.243
 6025TIP3    H118039   6.550   0.461   5.234
 6025TIP3    H218040   6.418   0.422   5.173
 6026TIP3   OH218041   0.259   0.113   1.557
 6026TIP3    H118042   0.290   0.176   1.493
 6026TIP3    H218043   0.297   0.030   1.529
 6027TIP3   OH218044   3.115   3.111   3.344
 6027TIP3    H118045   3.059   3.123   3.267
 6027TIP3    H218046   3.060   3.136   3.418
 6028TIP3   OH218047   5.636   0.681   3.979
 6028TIP3    H118048   5.726   0.652   3.991
 6028TIP3    H218049   5.616   0.662   3.888
 6029TIP3   OH218050   6.354   2.065   4.389
 6029TIP3    H118051   6.310   2.121   4.454
 6029TIP3    H218052   6.436   2.109   4.370
 6030TIP3   OH218053   0.182   3.506   3.453
 6030TIP3    H118054   0.266   3.461   3.444
 6030TIP3    H218055   0.119   3.446   3.415
 6031TIP3   OH218056   4.112   3.206   0.849
 6031TIP3    H118057   4.038   3.147   0.862
 6031TIP3    H218058   4.072   3.292   0.835
 6032TIP3   OH218059   4.031   4.043   5.682
 6032TIP3    H118060   3.951   4.036   5.735
 6032TIP3    H218061   4.045   3.956   5.647
 6033TIP3   OH218062   0.430   4.279   5.399
 6033TIP3    H118063   0.336   4.276   5.378
 6033TIP3    H218064   0.435   4.333   5.478
 6034TIP3   OH218065   1.625   1.773   5.310
 6034TIP3    H118066   1.577   1.693   5.290
 6034TIP3    H218067   1.580   1.841   5.260
 6035TIP3   OH218068   1.658   3.147   2.037
 6035TIP3    H118069   1.563   3.160   2.041
 6035TIP3    H218070   1.683   3.178   1.950
 6036TIP3   OH218071   5.507   4.522   5.361
 6036TIP3    H118072   5.422   4.497   5.324
 6036TIP3    H218073   5.571   4.478   5.305
 6037TIP3   OH218074   6.169   1.305   2.032
 6037TIP3    H118075   6.234   1.235   2.035
 6037TIP3    H218076   6.085   1.260   2.029
 6038TIP3   OH218077   2.988   1.456   2.885
 6038TIP3    H118078   3.036   1.409   2.953
 6038TIP3    H218079   2.976   1.544   2.920
 6039TIP3   OH218080   2.679   0.539   2.236
 6039TIP3    H118081   2.709   0.553   2.146
 6039TIP3    H218082   2.687   0.444   2.250
 6040TIP3   OH218083   7.011   4.942   0.446
 6040TIP3    H118084   6.948   4.968   0.513
 6040TIP3    H218085   7.080   4.897   0.494
 6041TIP3   OH218086   3.107   0.191   5.390
 6041TIP3    H118087   3.197   0.219   5.377
 6041TIP3    H218088   3.071   0.183   5.302
 6042TIP3   OH218089   6.103   3.519   4.903
 6042TIP3    H118090   6.027   3.517   4.961
 6042TIP3    H218091   6.170   3.567   4.953
 6043TIP3   OH218092   6.805   5.818   4.031
 6043TIP3    H118093   6.747   5.894   4.018
 6043TIP3    H218094   6.771   5.752   3.971
 6044TIP3   OH218095   0.441   5.026   1.510
 6044TIP3    H118096   0.509   5.040   1.444
 6044TIP3    H218097   0.373   4.978   1.464
 6045TIP3   OH218098   5.694   3.185   0.017
 6045TIP3    H118099   5.715   3.209  -0.073
 6045TIP3    H218100   5.623   3.121   0.009
 6046TIP3   OH218101   7.146   1.532   4.303
 6046TIP3    H118102   7.106   1.496   4.224
 6046TIP3    H218103   7.093   1.609   4.323
 6047TIP3   OH218104   6.994   5.977   1.807
 6047TIP3    H118105   6.942   5.928   1.743
 6047TIP3    H218106   6.999   6.065   1.770
 6048TIP3   OH218107   3.506   6.094   1.670
 6048TIP3    H118108   3.429   6.038   1.659
 6048TIP3    H218109   3.561   6.075   1.594
 6049TIP3   OH218110   5.013   2.280   2.661
 6049TIP3    H118111   5.070   2.241   2.727
 6049TIP3    H218112   5.040   2.372   2.656
 6050TIP3   OH218113   0.643   1.899   3.072
 6050TIP3    H118114   0.564   1.925   3.025
 6050TIP3    H218115   0.680   1.981   3.106
 6051TIP3   OH218116   2.091   5.417   0.041
 6051TIP3    H118117   2.097   5.357   0.115
 6051TIP3    H218118   2.059   5.499   0.079
 6052TIP3   OH218119   5.047   6.200   3.036
 6052TIP3    H118120   5.074   6.193   2.944
 6052TIP3    H218121   5.112   6.258   3.075
 6053TIP3   OH218122   5.832   1.486   3.268
 6053TIP3    H118123   5.744   1.462   3.242
 6053TIP3    H218124   5.822   1.522   3.357
 6054TIP3   OH218125   5.187   1.257   1.010
 6054TIP3    H118126   5.178   1.209   0.928
 6054TIP3    H218127   5.098   1.281   1.035
 6055TIP3   OH218128   1.905   1.039   0.284
 6055TIP3    H118129   1.856   1.119   0.307
 6055TIP3    H218130   1.841   0.969   0.296
 6056TIP3   OH218131   4.045   4.585   2.046
 6056TIP3    H118132   4.120   4.596   1.989
 6056TIP3    H218133   4.024   4.674   2.075
 6057TIP3   OH218134   7.191   6.035   5.931
 6057TIP3    H118135   7.143   6.094   5.873
 6057TIP3    H218136   7.152   5.949   5.916
 6058TIP3   OH218137   5.242   1.903   0.971
 6058TIP3    H118138   5.283   1.922   1.055
 6058TIP3    H218139   5.257   1.809   0.958
 6059TIP3   OH218140   5.850   2.107   0.813
 6059TIP3    H118141   5.756   2.101   0.796
 6059TIP3    H218142   5.871   2.026   0.859
 6060TIP3   OH218143   1.268   0.155   1.965
 6060TIP3    H118144   1.236   0.239   1.932
 6060TIP3    H218145   1.272   0.167   2.060
 6061TIP3   OH218146   5.328   5.721   2.162
 6061TIP3    H118147   5.343   5.637   2.205
 6061TIP3    H218148   5.314   5.782   2.235
 6062TIP3   OH218149   4.560   4.540   5.709
 6062TIP3    H118150   4.578   4.446   5.712
 6062TIP3    H218151   4.566   4.569   5.800
 6063TIP3   OH218152   2.947   2.082   5.097
 6063TIP3    H118153   3.039   2.055   5.106
 6063TIP3    H218154   2.906   2.011   5.048
 6064TIP3   OH218155   4.937   3.541   4.664
 6064TIP3    H118156   4.895   3.624   4.640
 6064TIP3    H218157   4.973   3.556   4.752
 6065TIP3   OH218158   4.942   1.130   5.306
 6065TIP3    H118159   4.955   1.205   5.248
 6065TIP3    H218160   5.003   1.064   5.275
 6066TIP3   OH218161   5.806   2.545   1.274
 6066TIP3    H118162   5.751   2.471   1.247
 6066TIP3    H218163   5.879   2.505   1.321
 6067TIP3   OH218164   0.731   6.374   1.683
 6067TIP3    H118165   0.690   6.369   1.597
 6067TIP3    H218166   0.802   6.437   1.672
 6068TIP3   OH218167   3.851   4.140   3.450
 6068TIP3    H118168   3.814   4.165   3.535
 6068TIP3    H218169   3.909   4.066   3.471
 6069TIP3   OH218170   4.629   3.059   3.281
 6069TIP3    H118171   4.589   3.121   3.342
 6069TIP3    H218172   4.566   3.051   3.211
 6070TIP3   OH218173   5.141   1.802   3.321
 6070TIP3    H118174   5.130   1.879   3.377
 6070TIP3    H218175   5.095   1.824   3.240
 6071TIP3   OH218176   3.055   3.052   0.431
 6071TIP3    H118177   3.081   3.105   0.356
 6071TIP3    H218178   3.114   3.080   0.502
 6072TIP3   OH218179   6.372   3.947   3.471
 6072TIP3    H118180   6.439   3.945   3.403
 6072TIP3    H218181   6.385   4.032   3.515
 6073TIP3   OH218182   4.780   5.122   5.722
 6073TIP3    H118183   4.737   5.040   5.698
 6073TIP3    H218184   4.861   5.095   5.765
 6074TIP3   OH218185   4.490   4.898   2.921
 6074TIP3    H118186   4.570   4.944   2.899
 6074TIP3    H218187   4.513   4.847   2.999
 6075TIP3   OH218188   2.566   2.516   0.625
 6075TIP3    H118189   2.610   2.495   0.543
 6075TIP3    H218190   2.518   2.596   0.607
 6076TIP3   OH218191   4.494   5.196   1.143
 6076TIP3    H118192   4.532   5.214   1.229
 6076TIP3    H218193   4.403   5.225   1.151
 6077TIP3   OH218194   4.842   3.946   3.947
 6077TIP3    H118195   4.856   3.965   3.854
 6077TIP3    H218196   4.920   3.898   3.975
 6078TIP3   OH218197   7.164   6.070   2.814
 6078TIP3    H118198   7.181   6.080   2.721
 6078TIP3    H218199   7.129   6.155   2.842
 6079TIP3   OH218200   4.809   0.850   5.404
 6079TIP3    H118201   4.730   0.795   5.404
 6079TIP3    H218202   4.798   0.906   5.481
 6080TIP3   OH218203   4.075   1.734   5.649
 6080TIP3    H118204   4.166   1.725   5.620
 6080TIP3    H218205   4.029   1.663   5.605
 6081TIP3   OH218206   1.554   4.216   1.389
 6081TIP3    H118207   1.461   4.232   1.378
 6081TIP3    H218208   1.593   4.302   1.403
 6082TIP3   OH218209   3.765   2.119   5.238
 6082TIP3    H118210   3.774   2.042   5.182
 6082TIP3    H218211   3.670   2.126   5.254
 6083TIP3   OH218212   6.519   3.903   3.250
 6083TIP3    H118213   6.543   3.978   3.195
 6083TIP3    H218214   6.603   3.864   3.275
 6084TIP3   OH218215   6.703   0.842   3.717
 6084TIP3    H118216   6.668   0.764   3.674
 6084TIP3    H218217   6.795   0.845   3.690
 6085TIP3   OH218218   1.084   4.594   5.455
 6085TIP3    H118219   1.021   4.524   5.435
 6085TIP3    H218220   1.169   4.550   5.459
 6086TIP3   OH218221   5.859   2.186   1.662
 6086TIP3    H118222   5.924   2.126   1.698
 6086TIP3    H218223   5.904   2.271   1.659
 6087TIP3   OH218224   3.000   2.699   5.596
 6087TIP3    H118225   3.020   2.763   5.664
 6087TIP3    H218226   2.904   2.700   5.591
 6088TIP3   OH218227   1.359   0.233   4.939
 6088TIP3    H118228   1.318   0.296   4.880
 6088TIP3    H218229   1.444   0.272   4.959
 6089TIP3   OH218230   6.472   1.070   5.175
 6089TIP3    H118231   6.414   1.146   5.185
 6089TIP3    H218232   6.451   1.034   5.089
 6090TIP3   OH218233   1.783   4.637   5.656
 6090TIP3    H118234   1.848   4.575   5.623
 6090TIP3    H218235   1.819   4.723   5.637
 6091TIP3   OH218236   1.127   3.586   4.589
 6091TIP3    H118237   1.200   3.530   4.615
 6091TIP3    H218238   1.056   3.563   4.650
 6092TIP3   OH218239   6.423   5.386   5.150
 6092TIP3    H118240   6.371   5.307   5.163
 6092TIP3    H218241   6.455   5.407   5.238
 6093TIP3   OH218242   0.897   0.571   5.436
 6093TIP3    H118243   0.878   0.630   5.363
 6093TIP3    H218244   0.860   0.487   5.409
 6094TIP3   OH218245   0.644   5.625   4.676
 6094TIP3    H118246   0.615   5.578   4.598
 6094TIP3    H218247   0.727   5.584   4.699
 6095TIP3   OH218248   0.543   1.996   2.179
 6095TIP3    H118249   0.498   2.053   2.116
 6095TIP3    H218250   0.473   1.952   2.226
 6096TIP3   OH218251   0.262   3.357   5.572
 6096TIP3    H118252   0.195   3.423   5.590
 6096TIP3    H218253   0.238   3.321   5.487
 6097TIP3   OH218254   2.418   6.216   1.913
 6097TIP3    H118255   2.500   6.204   1.960
 6097TIP3    H218256   2.445   6.233   1.822
 6098TIP3   OH218257   2.584   2.939   3.895
 6098TIP3    H118258   2.564   2.881   3.821
 6098TIP3    H218259   2.584   2.880   3.971
 6099TIP3   OH218260   7.049   3.663   2.165
 6099TIP3    H118261   7.139   3.696   2.163
 6099TIP3    H218262   7.048   3.592   2.100
 6100TIP3   OH218263   1.629   5.462   4.331
 6100TIP3    H118264   1.582   5.446   4.249
 6100TIP3    H218265   1.680   5.383   4.346
 6101TIP3   OH218266   4.534   5.251   1.785
 6101TIP3    H118267   4.446   5.264   1.820
 6101TIP3    H218268   4.588   5.233   1.862
 6102TIP3   OH218269   1.662   1.717   1.033
 6102TIP3    H118270   1.652   1.750   1.122
 6102TIP3    H218271   1.754   1.733   1.011
 6103TIP3   OH218272   2.906   5.028   3.692
 6103TIP3    H118273   2.864   4.972   3.627
 6103TIP3    H218274   2.959   4.968   3.745
 6104TIP3   OH218275   1.227   3.919   2.717
 6104TIP3    H118276   1.147   3.942   2.670
 6104TIP3    H218277   1.246   3.994   2.773
 6105TIP3   OH218278   3.523   1.459   1.333
 6105TIP3    H118279   3.593   1.442   1.270
 6105TIP3    H218280   3.479   1.537   1.299
 6106TIP3   OH218281   6.000   3.136   5.777
 6106TIP3    H118282   5.934   3.159   5.842
 6106TIP3    H218283   5.997   3.209   5.714
 6107TIP3   OH218284   2.958   1.678   4.647
 6107TIP3    H118285   2.934   1.637   4.730
 6107TIP3    H218286   3.032   1.735   4.668
 6108TIP3   OH218287   5.820   2.633   4.596
 6108TIP3    H118288   5.732   2.628   4.634
 6108TIP3    H218289   5.835   2.545   4.560
 6109TIP3   OH218290   6.107   3.675   1.070
 6109TIP3    H118291   6.182   3.645   1.121
 6109TIP3    H218292   6.076   3.596   1.025
 6110TIP3   OH218293   4.989   5.751   2.768
 6110TIP3    H118294   4.927   5.759   2.696
 6110TIP3    H218295   5.063   5.703   2.731
 6111TIP3   OH218296   3.034   2.639   4.746
 6111TIP3    H118297   2.997   2.710   4.695
 6111TIP3    H218298   3.021   2.665   4.837
 6112TIP3   OH218299   1.389   1.666   3.810
 6112TIP3    H118300   1.466   1.611   3.794
 6112TIP3    H218301   1.318   1.622   3.763
 6113TIP3   OH218302   5.232   0.064   4.321
 6113TIP3    H118303   5.165   0.118   4.278
 6113TIP3    H218304   5.193   0.039   4.404
 6114TIP3   OH218305   7.062   0.462   5.851
 6114TIP3    H118306   7.062   0.476   5.946
 6114TIP3    H218307   7.153   0.475   5.825
 6115TIP3   OH218308   3.956   0.912   1.276
 6115TIP3    H118309   3.933   0.878   1.362
 6115TIP3    H218310   3.921   0.847   1.215
 6116TIP3   OH218311   5.814   6.076   2.993
 6116TIP3    H118312   5.880   6.018   2.956
 6116TIP3    H218313   5.861   6.129   3.057
 6117TIP3   OH218314   5.187   0.837   0.048
 6117TIP3    H118315   5.112   0.836  -0.011
 6117TIP3    H218316   5.259   0.870  -0.005
 6118TIP3   OH218317   3.342   4.278   1.349
 6118TIP3    H118318   3.284   4.298   1.275
 6118TIP3    H218319   3.312   4.335   1.420
 6119TIP3   OH218320   6.940   3.501   1.955
 6119TIP3    H118321   6.851   3.524   1.981
 6119TIP3    H218322   6.969   3.576   1.903
 6120TIP3   OH218323   0.801   2.326   3.396
 6120TIP3    H118324   0.712   2.348   3.421
 6120TIP3    H218325   0.820   2.384   3.322
 6121TIP3   OH218326   4.623   5.583   1.927
 6121TIP3    H118327   4.662   5.506   1.968
 6121TIP3    H218328   4.531   5.579   1.953
 6122TIP3   OH218329   3.846   3.415   2.379
 6122TIP3    H118330   3.858   3.490   2.321
 6122TIP3    H218331   3.924   3.362   2.366
 6123TIP3   OH218332   5.806   3.585   0.407
 6123TIP3    H118333   5.770   3.526   0.341
 6123TIP3    H218334   5.885   3.541   0.438
 6124TIP3   OH218335   5.324   0.616   3.004
 6124TIP3    H118336   5.330   0.521   3.002
 6124TIP3    H218337   5.316   0.638   3.097
 6125TIP3   OH218338   7.094   6.406   4.521
 6125TIP3    H118339   7.145   6.416   4.601
 6125TIP3    H218340   7.134   6.332   4.476
 6126TIP3   OH218341   0.255   2.934   5.387
 6126TIP3    H118342   0.207   3.014   5.410
 6126TIP3    H218343   0.203   2.894   5.318
 6127TIP3   OH218344   0.234   2.741   2.557
 6127TIP3    H118345   0.220   2.657   2.600
 6127TIP3    H218346   0.177   2.802   2.604
 6128TIP3   OH218347   2.372   2.829   5.325
 6128TIP3    H118348   2.301   2.886   5.355
 6128TIP3    H218349   2.336   2.741   5.328
 6129TIP3   OH218350   6.941   5.164   2.281
 6129TIP3    H118351   6.902   5.158   2.368
 6129TIP3    H218352   6.993   5.245   2.285
 6130TIP3   OH218353   4.682   0.761   5.111
 6130TIP3    H118354   4.653   0.817   5.039
 6130TIP3    H218355   4.639   0.799   5.189
 6131TIP3   OH218356   6.847   1.764   3.467
 6131TIP3    H118357   6.933   1.804   3.474
 6131TIP3    H218358   6.792   1.816   3.526
 6132TIP3   OH218359   5.981   2.181   4.296
 6132TIP3    H118360   5.922   2.200   4.223
 6132TIP3    H218361   6.069   2.198   4.262
 6133TIP3   OH218362   4.839   6.454   4.714
 6133TIP3    H118363   4.883   6.519   4.659
 6133TIP3    H218364   4.759   6.432   4.666
 6134TIP3   OH218365   1.965   4.947   4.949
 6134TIP3    H118366   1.882   4.994   4.953
 6134TIP3    H218367   2.032   5.014   4.965
 6135TIP3   OH218368   7.026   5.554   0.572
 6135TIP3    H118369   7.057   5.571   0.483
 6135TIP3    H218370   7.029   5.458   0.581
 6136TIP3   OH218371   6.418   5.482   0.196
 6136TIP3    H118372   6.361   5.447   0.264
 6136TIP3    H218373   6.441   5.406   0.143
 6137TIP3   OH218374   3.812   5.384   4.064
 6137TIP3    H118375   3.902   5.368   4.092
 6137TIP3    H218376   3.777   5.444   4.130
 6138TIP3   OH218377   5.082   0.184   4.125
 6138TIP3    H118378   5.135   0.237   4.065
 6138TIP3    H218379   5.018   0.140   4.068
 6139TIP3   OH218380   3.068   0.174   2.180
 6139TIP3    H118381   3.070   0.187   2.275
 6139TIP3    H218382   3.155   0.199   2.150
 6140TIP3   OH218383   0.448   4.106   2.914
 6140TIP3    H118384   0.506   4.103   2.838
 6140TIP3    H218385   0.360   4.103   2.877
 6141TIP3   OH218386   0.689   3.717   3.676
 6141TIP3    H118387   0.768   3.719   3.730
 6141TIP3    H218388   0.686   3.804   3.635
 6142TIP3   OH218389   3.813   4.066   5.838
 6142TIP3    H118390   3.785   4.157   5.838
 6142TIP3    H218391   3.737   4.017   5.807
 6143TIP3   OH218392   3.558   3.287   1.686
 6143TIP3    H118393   3.513   3.226   1.744
 6143TIP3    H218394   3.635   3.238   1.656
 6144TIP3   OH218395   4.553   6.534   5.774
 6144TIP3    H118396   4.619   6.603   5.780
 6144TIP3    H218397   4.603   6.455   5.753
 6145TIP3   OH218398   4.817   1.558   4.938
 6145TIP3    H118399   4.849   1.475   4.975
 6145TIP3    H218400   4.878   1.577   4.867
 6146TIP3   OH218401   3.916   0.871   4.617
 6146TIP3    H118402   4.004   0.837   4.599
 6146TIP3    H218403   3.929   0.964   4.633
 6147TIP3   OH218404   5.859   0.289   4.836
 6147TIP3    H118405   5.840   0.325   4.749
 6147TIP3    H218406   5.784   0.313   4.889
 6148TIP3   OH218407   6.375   2.769   3.436
 6148TIP3    H118408   6.287   2.789   3.467
 6148TIP3    H218409   6.371   2.784   3.342
 6149TIP3   OH218410   6.328   0.421   1.435
 6149TIP3    H118411   6.333   0.516   1.448
 6149TIP3    H218412   6.241   0.398   1.470
 6150TIP3   OH218413   6.390   5.020   5.876
 6150TIP3    H118414   6.369   5.065   5.794
 6150TIP3    H218415   6.347   5.072   5.943
 6151TIP3   OH218416   6.809   4.794   2.835
 6151TIP3    H118417   6.805   4.752   2.920
 6151TIP3    H218418   6.902   4.793   2.812
 6152TIP3   OH218419   2.035   3.035   2.971
 6152TIP3    H118420   2.103   2.969   2.982
 6152TIP3    H218421   2.071   3.097   2.907
 6153TIP3   OH218422   1.192   5.460   3.931
 6153TIP3    H118423   1.214   5.553   3.922
 6153TIP3    H218424   1.114   5.448   3.876
 6154TIP3   OH218425   5.168   4.592   1.091
 6154TIP3    H118426   5.073   4.602   1.100
 6154TIP3    H218427   5.186   4.501   1.115
 6155TIP3   OH218428   5.952   2.767   4.796
 6155TIP3    H118429   5.907   2.844   4.761
 6155TIP3    H218430   5.929   2.697   4.735
 6156TIP3   OH218431   2.588   0.706   4.378
 6156TIP3    H118432   2.504   0.749   4.394
 6156TIP3    H218433   2.616   0.737   4.292
 6157TIP3   OH218434   6.099   5.134   2.793
 6157TIP3    H118435   6.060   5.209   2.838
 6157TIP3    H218436   6.116   5.166   2.704
 6158TIP3   OH218437   5.942   1.022   2.602
 6158TIP3    H118438   5.985   0.945   2.566
 6158TIP3    H218439   5.990   1.039   2.684
 6159TIP3   OH218440   3.775   0.550   3.742
 6159TIP3    H118441   3.770   0.588   3.654
 6159TIP3    H218442   3.868   0.534   3.756
 6160TIP3   OH218443   6.713   5.537   2.516
 6160TIP3    H118444   6.758   5.575   2.440
 6160TIP3    H218445   6.777   5.545   2.588
 6161TIP3   OH218446   2.214   1.006   3.822
 6161TIP3    H118447   2.144   0.974   3.764
 6161TIP3    H218448   2.167   1.041   3.898
 6162TIP3   OH218449   0.737   1.235   1.294
 6162TIP3    H118450   0.654   1.201   1.327
 6162TIP3    H218451   0.718   1.266   1.206
 6163TIP3   OH218452   6.056   4.163   0.801
 6163TIP3    H118453   6.118   4.236   0.797
 6163TIP3    H218454   6.082   4.114   0.879
 6164TIP3   OH218455   1.361   1.724   0.984
 6164TIP3    H118456   1.380   1.693   1.072
 6164TIP3    H218457   1.356   1.644   0.932
 6165TIP3   OH218458   4.905   4.030   1.914
 6165TIP3    H118459   4.877   3.990   1.996
 6165TIP3    H218460   5.000   4.028   1.917
 6166TIP3   OH218461   4.412   0.281   5.530
 6166TIP3    H118462   4.372   0.313   5.611
 6166TIP3    H218463   4.390   0.347   5.464
 6167TIP3   OH218464   5.325   1.094   3.339
 6167TIP3    H118465   5.280   1.010   3.325
 6167TIP3    H218466   5.255   1.157   3.356
 6168TIP3   OH218467   5.968   5.885   2.829
 6168TIP3    H118468   6.027   5.890   2.905
 6168TIP3    H218469   6.005   5.815   2.775
 6169TIP3   OH218470   3.008   2.615   3.702
 6169TIP3    H118471   3.001   2.537   3.646
 6169TIP3    H218472   3.018   2.687   3.640
 6170TIP3   OH218473   2.478   6.644   2.156
 6170TIP3    H118474   2.406   6.673   2.210
 6170TIP3    H218475   2.440   6.579   2.097
 6171TIP3   OH218476   7.079   2.440   3.586
 6171TIP3    H118477   7.162   2.465   3.626
 6171TIP3    H218478   7.095   2.445   3.492
 6172TIP3   OH218479   7.200   1.720   1.318
 6172TIP3    H118480   7.125   1.761   1.362
 6172TIP3    H218481   7.167   1.635   1.289
 6173TIP3   OH218482   5.268   3.252   3.860
 6173TIP3    H118483   5.312   3.337   3.860
 6173TIP3    H218484   5.175   3.273   3.869
 6174TIP3   OH218485   5.042   5.744   2.078
 6174TIP3    H118486   4.998   5.788   2.151
 6174TIP3    H218487   5.135   5.752   2.098
 6175TIP3   OH218488   5.966   4.360   1.459
 6175TIP3    H118489   5.987   4.343   1.367
 6175TIP3    H218490   5.877   4.395   1.457
 6176TIP3   OH218491   5.404   4.971   0.731
 6176TIP3    H118492   5.432   4.992   0.820
 6176TIP3    H218493   5.377   4.879   0.735
 6177TIP3   OH218494   3.134   4.829   5.244
 6177TIP3    H118495   3.164   4.920   5.239
 6177TIP3    H218496   3.099   4.811   5.157
 6178TIP3   OH218497   1.381   0.600   0.639
 6178TIP3    H118498   1.387   0.687   0.599
 6178TIP3    H218499   1.353   0.617   0.729
 6179TIP3   OH218500   0.300   1.930   5.577
 6179TIP3    H118501   0.357   1.940   5.654
 6179TIP3    H218502   0.331   1.997   5.516
 6180TIP3   OH218503   0.609   6.126   1.504
 6180TIP3    H118504   0.684   6.083   1.546
 6180TIP3    H218505   0.640   6.215   1.485
 6181TIP3   OH218506   2.784   5.901   1.913
 6181TIP3    H118507   2.827   5.985   1.926
 6181TIP3    H218508   2.836   5.858   1.845
 6182TIP3   OH218509   2.331   0.729   4.475
 6182TIP3    H118510   2.285   0.670   4.415
 6182TIP3    H218511   2.326   0.815   4.433
 6183TIP3   OH218512   3.394   1.374   4.399
 6183TIP3    H118513   3.419   1.466   4.397
 6183TIP3    H218514   3.352   1.358   4.315
 6184TIP3   OH218515   2.389   5.782   5.055
 6184TIP3    H118516   2.315   5.840   5.044
 6184TIP3    H218517   2.466   5.837   5.041
 6185TIP3   OH218518   1.418   5.052   2.777
 6185TIP3    H118519   1.477   5.088   2.711
 6185TIP3    H218520   1.359   4.995   2.727
 6186TIP3   OH218521   4.314   2.230   2.563
 6186TIP3    H118522   4.262   2.307   2.542
 6186TIP3    H218523   4.398   2.244   2.519
 6187TIP3   OH218524   3.631   3.783   0.238
 6187TIP3    H118525   3.553   3.745   0.198
 6187TIP3    H218526   3.702   3.724   0.214
 6188TIP3   OH218527   4.426   5.835   5.193
 6188TIP3    H118528   4.504   5.791   5.228
 6188TIP3    H218529   4.460   5.890   5.122
 6189TIP3   OH218530   4.809   0.897   2.941
 6189TIP3    H118531   4.838   0.939   2.860
 6189TIP3    H218532   4.874   0.923   3.007
 6190TIP3   OH218533   1.306   2.921   4.742
 6190TIP3    H118534   1.331   3.011   4.763
 6190TIP3    H218535   1.386   2.882   4.706
 6191TIP3   OH218536   5.107   2.604   0.144
 6191TIP3    H118537   5.053   2.636   0.071
 6191TIP3    H218538   5.105   2.676   0.207
 6192TIP3   OH218539   6.118   4.406   1.212
 6192TIP3    H118540   6.123   4.486   1.160
 6192TIP3    H218541   6.207   4.371   1.211
 6193TIP3   OH218542   4.966   4.706   2.758
 6193TIP3    H118543   4.990   4.641   2.692
 6193TIP3    H218544   4.989   4.665   2.841
 6194TIP3   OH218545   3.880   5.356   0.325
 6194TIP3    H118546   3.890   5.435   0.379
 6194TIP3    H218547   3.957   5.355   0.269
 6195TIP3   OH218548   2.583   0.662   5.427
 6195TIP3    H118549   2.654   0.726   5.418
 6195TIP3    H218550   2.619   0.581   5.391
 6196TIP3   OH218551   6.845   6.691   1.736
 6196TIP3    H118552   6.914   6.747   1.773
 6196TIP3    H218553   6.764   6.727   1.771
 6197TIP3   OH218554   0.598   4.692   5.495
 6197TIP3    H118555   0.508   4.685   5.463
 6197TIP3    H218556   0.596   4.650   5.581
 6198TIP3   OH218557   6.341   5.441   3.221
 6198TIP3    H118558   6.300   5.430   3.307
 6198TIP3    H218559   6.422   5.488   3.238
 6199TIP3   OH218560   6.897   4.772   5.162
 6199TIP3    H118561   6.825   4.748   5.104
 6199TIP3    H218562   6.961   4.814   5.105
 6200TIP3   OH218563   2.252   2.068   0.456
 6200TIP3    H118564   2.184   2.132   0.437
 6200TIP3    H218565   2.315   2.114   0.511
 6201TIP3   OH218566   0.735   2.054   3.344
 6201TIP3    H118567   0.757   2.146   3.361
 6201TIP3    H218568   0.678   2.029   3.416
 6202TIP3   OH218569   2.370   0.815   2.606
 6202TIP3    H118570   2.352   0.762   2.529
 6202TIP3    H218571   2.464   0.833   2.602
 6203TIP3   OH218572   4.267   5.700   0.020
 6203TIP3    H118573   4.189   5.683   0.073
 6203TIP3    H218574   4.340   5.669   0.074
 6204TIP3   OH218575   5.425   5.132   3.655
 6204TIP3    H118576   5.475   5.188   3.714
 6204TIP3    H218577   5.409   5.052   3.705
 6205TIP3   OH218578   6.042   4.003   1.668
 6205TIP3    H118579   6.011   3.918   1.696
 6205TIP3    H218580   5.963   4.048   1.637
 6206TIP3   OH218581   6.957   3.346   4.795
 6206TIP3    H118582   6.964   3.441   4.800
 6206TIP3    H218583   7.036   3.318   4.749
 6207TIP3   OH218584   1.669   5.651   4.904
 6207TIP3    H118585   1.702   5.614   4.822
 6207TIP3    H218586   1.672   5.745   4.890
 6208TIP3   OH218587   6.843   2.570   4.171
 6208TIP3    H118588   6.935   2.594   4.178
 6208TIP3    H218589   6.824   2.576   4.077
 6209TIP3   OH218590   4.244   1.948   3.461
 6209TIP3    H118591   4.206   1.865   3.491
 6209TIP3    H218592   4.293   1.925   3.382
 6210TIP3   OH218593   1.027   4.618   0.746
 6210TIP3    H118594   0.941   4.652   0.719
 6210TIP3    H218595   1.035   4.644   0.838
 6211TIP3   OH218596   5.356   1.568   3.957
 6211TIP3    H118597   5.269   1.570   3.996
 6211TIP3    H218598   5.408   1.626   4.014
 6212TIP3   OH218599   2.234   1.430   0.446
 6212TIP3    H118600   2.295   1.469   0.508
 6212TIP3    H218601   2.168   1.388   0.500
 6213TIP3   OH218602   2.382   2.604   0.840
 6213TIP3    H118603   2.366   2.616   0.933
 6213TIP3    H218604   2.325   2.668   0.797
 6214TIP3   OH218605   1.494   4.946   4.119
 6214TIP3    H118606   1.541   5.002   4.057
 6214TIP3    H218607   1.407   4.937   4.082
 6215TIP3   OH218608   3.971   4.686   5.197
 6215TIP3    H118609   3.905   4.619   5.216
 6215TIP3    H218610   4.016   4.700   5.280
 6216TIP3   OH218611   3.252   0.191   3.089
 6216TIP3    H118612   3.239   0.104   3.127
 6216TIP3    H218613   3.219   0.251   3.155
 6217TIP3   OH218614   6.572   3.236   4.139
 6217TIP3    H118615   6.587   3.319   4.183
 6217TIP3    H218616   6.495   3.199   4.182
 6218TIP3   OH218617   1.447   6.412   3.108
 6218TIP3    H118618   1.501   6.393   3.031
 6218TIP3    H218619   1.427   6.505   3.101
 6219TIP3   OH218620   0.189   4.944   4.373
 6219TIP3    H118621   0.173   5.037   4.386
 6219TIP3    H218622   0.146   4.924   4.290
 6220TIP3   OH218623   3.688   5.699   4.858
 6220TIP3    H118624   3.688   5.777   4.803
 6220TIP3    H218625   3.778   5.692   4.890
 6221TIP3   OH218626   2.797   3.885   0.785
 6221TIP3    H118627   2.883   3.921   0.763
 6221TIP3    H218628   2.758   3.865   0.700
 6222TIP3   OH218629   2.197   3.221   2.833
 6222TIP3    H118630   2.230   3.219   2.923
 6222TIP3    H218631   2.241   3.296   2.793
 6223TIP3   OH218632   5.160   4.190   5.545
 6223TIP3    H118633   5.108   4.270   5.541
 6223TIP3    H218634   5.221   4.197   5.472
 6224TIP3   OH218635   5.568   3.663   2.342
 6224TIP3    H118636   5.636   3.610   2.300
 6224TIP3    H218637   5.588   3.658   2.435
 6225TIP3   OH218638   3.226   4.637   2.098
 6225TIP3    H118639   3.321   4.622   2.105
 6225TIP3    H218640   3.211   4.718   2.147
 6226TIP3   OH218641   4.174   4.484   4.614
 6226TIP3    H118642   4.240   4.553   4.628
 6226TIP3    H218643   4.117   4.519   4.546
 6227TIP3   OH218644   0.569   2.904   2.845
 6227TIP3    H118645   0.497   2.933   2.900
 6227TIP3    H218646   0.631   2.977   2.846
 6228TIP3   OH218647   3.482   1.490   5.541
 6228TIP3    H118648   3.557   1.547   5.563
 6228TIP3    H218649   3.522   1.416   5.494
 6229TIP3   OH218650   1.203   4.437   4.329
 6229TIP3    H118651   1.219   4.494   4.404
 6229TIP3    H218652   1.265   4.365   4.340
 6230TIP3   OH218653   2.024   5.665   0.948
 6230TIP3    H118654   2.052   5.755   0.963
 6230TIP3    H218655   2.105   5.615   0.946
 6231TIP3   OH218656   2.866   4.499   5.726
 6231TIP3    H118657   2.781   4.471   5.691
 6231TIP3    H218658   2.881   4.444   5.802
 6232TIP3   OH218659   5.069   4.988   5.504
 6232TIP3    H118660   5.018   4.907   5.491
 6232TIP3    H218661   5.098   4.983   5.595
 6233TIP3   OH218662   2.763   3.477   4.142
 6233TIP3    H118663   2.767   3.382   4.157
 6233TIP3    H218664   2.680   3.491   4.097
 6234TIP3   OH218665   0.755   1.901   4.416
 6234TIP3    H118666   0.737   1.925   4.506
 6234TIP3    H218667   0.676   1.854   4.388
 6235TIP3   OH218668   6.852   6.765   4.116
 6235TIP3    H118669   6.811   6.836   4.067
 6235TIP3    H218670   6.814   6.770   4.203
 6236TIP3   OH218671   5.271   4.431   1.390
 6236TIP3    H118672   5.256   4.338   1.369
 6236TIP3    H218673   5.327   4.462   1.319
 6237TIP3   OH218674   4.314   2.632   4.435
 6237TIP3    H118675   4.280   2.543   4.449
 6237TIP3    H218676   4.389   2.638   4.494
 6238TIP3   OH218677   3.034   6.157   1.190
 6238TIP3    H118678   3.021   6.188   1.101
 6238TIP3    H218679   3.119   6.113   1.188
 6239TIP3   OH218680   1.894   6.403   3.211
 6239TIP3    H118681   1.987   6.423   3.225
 6239TIP3    H218682   1.890   6.307   3.208
 6240TIP3   OH218683   7.195   2.869   1.186
 6240TIP3    H118684   7.261   2.826   1.131
 6240TIP3    H218685   7.124   2.891   1.126
 6241TIP3   OH218686   2.635   3.973   2.104
 6241TIP3    H118687   2.682   3.907   2.053
 6241TIP3    H218688   2.565   4.004   2.046
 6242TIP3   OH218689   5.018   4.243   3.731
 6242TIP3    H118690   5.060   4.250   3.646
 6242TIP3    H218691   5.035   4.154   3.760
 6243TIP3   OH218692   0.375   4.315   1.673
 6243TIP3    H118693   0.387   4.355   1.758
 6243TIP3    H218694   0.463   4.301   1.639
 6244TIP3   OH218695   6.591   2.567   5.497
 6244TIP3    H118696   6.584   2.588   5.403
 6244TIP3    H218697   6.671   2.612   5.524
 6245TIP3   OH218698   5.739   5.395   4.031
 6245TIP3    H118699   5.810   5.408   3.969
 6245TIP3    H218700   5.724   5.481   4.069
 6246TIP3   OH218701   1.393   1.506   2.283
 6246TIP3    H118702   1.371   1.587   2.236
 6246TIP3    H218703   1.482   1.485   2.254
 6247TIP3   OH218704   4.005   3.323   0.236
 6247TIP3    H118705   3.929   3.363   0.279
 6247TIP3    H218706   3.968   3.250   0.187
 6248TIP3   OH218707   2.714   1.594   5.060
 6248TIP3    H118708   2.690   1.517   5.112
 6248TIP3    H218709   2.700   1.668   5.120
 6249TIP3   OH218710   5.208   6.033   5.744
 6249TIP3    H118711   5.292   5.991   5.732
 6249TIP3    H218712   5.207   6.058   5.837
 6250TIP3   OH218713   0.463   4.245   1.274
 6250TIP3    H118714   0.529   4.186   1.239
 6250TIP3    H218715   0.448   4.213   1.363
 6251TIP3   OH218716   5.405   6.648   2.277
 6251TIP3    H118717   5.386   6.740   2.257
 6251TIP3    H218718   5.491   6.632   2.238
 6252TIP3   OH218719   0.927   6.321   3.202
 6252TIP3    H118720   0.935   6.349   3.111
 6252TIP3    H218721   0.874   6.242   3.199
 6253TIP3   OH218722   1.686   4.966   1.913
 6253TIP3    H118723   1.752   5.031   1.891
 6253TIP3    H218724   1.678   4.912   1.835
 6254TIP3   OH218725   1.214   2.641   4.748
 6254TIP3    H118726   1.292   2.587   4.736
 6254TIP3    H218727   1.219   2.706   4.679
 6255TIP3   OH218728   0.723   2.676   1.405
 6255TIP3    H118729   0.807   2.690   1.360
 6255TIP3    H218730   0.735   2.595   1.453
 6256TIP3   OH218731   2.569   4.061   5.138
 6256TIP3    H118732   2.512   4.101   5.073
 6256TIP3    H218733   2.529   3.975   5.156
 6257TIP3   OH218734   3.020   1.261   0.487
 6257TIP3    H118735   2.988   1.192   0.545
 6257TIP3    H218736   2.966   1.252   0.408
 6258TIP3   OH218737   4.985   5.539   0.888
 6258TIP3    H118738   4.925   5.586   0.946
 6258TIP3    H218739   4.984   5.589   0.807
 6259TIP3   OH218740   2.507   0.704   0.818
 6259TIP3    H118741   2.571   0.661   0.874
 6259TIP3    H218742   2.521   0.667   0.731
 6260TIP3   OH218743   1.200   4.860   4.125
 6260TIP3    H118744   1.115   4.879   4.163
 6260TIP3    H218745   1.217   4.768   4.147
 6261TIP3   OH218746   1.414   0.555   2.593
 6261TIP3    H118747   1.435   0.462   2.598
 6261TIP3    H218748   1.466   0.587   2.519
 6262TIP3   OH218749   4.254   3.353   4.414
 6262TIP3    H118750   4.316   3.344   4.342
 6262TIP3    H218751   4.185   3.410   4.379
 6263TIP3   OH218752   3.356   4.525   3.602
 6263TIP3    H118753   3.333   4.568   3.685
 6263TIP3    H218754   3.372   4.598   3.542
 6264TIP3   OH218755   5.849   5.817   1.874
 6264TIP3    H118756   5.844   5.726   1.845
 6264TIP3    H218757   5.941   5.829   1.898
 6265TIP3   OH218758   2.994   4.558   4.971
 6265TIP3    H118759   3.054   4.503   4.921
 6265TIP3    H218760   2.908   4.518   4.956
 6266TIP3   OH218761   4.253   1.414   4.686
 6266TIP3    H118762   4.282   1.360   4.760
 6266TIP3    H218763   4.182   1.364   4.647
 6267TIP3   OH218764   4.574   4.355   4.052
 6267TIP3    H118765   4.607   4.379   3.965
 6267TIP3    H218766   4.514   4.283   4.036
 6268TIP3   OH218767   2.575   3.207   5.365
 6268TIP3    H118768   2.614   3.122   5.388
 6268TIP3    H218769   2.651   3.264   5.349
 6269TIP3   OH218770   2.876   4.499   1.777
 6269TIP3    H118771   2.832   4.507   1.692
 6269TIP3    H218772   2.805   4.490   1.840
 6270TIP3   OH218773   1.973   5.427   3.317
 6270TIP3    H118774   1.928   5.345   3.299
 6270TIP3    H218775   2.024   5.410   3.396
 6271TIP3   OH218776   5.216   1.977   5.404
 6271TIP3    H118777   5.180   1.927   5.330
 6271TIP3    H218778   5.139   2.013   5.448
 6272TIP3   OH218779   1.897   0.722   5.676
 6272TIP3    H118780   1.869   0.688   5.762
 6272TIP3    H218781   1.927   0.645   5.628
 6273TIP3   OH218782   4.038   1.891   0.177
 6273TIP3    H118783   4.026   1.986   0.165
 6273TIP3    H218784   3.950   1.854   0.172
 6274TIP3   OH218785   6.512   2.371   5.113
 6274TIP3    H118786   6.512   2.342   5.204
 6274TIP3    H218787   6.559   2.454   5.114
 6275TIP3   OH218788   6.623   3.492   5.132
 6275TIP3    H118789   6.579   3.549   5.196
 6275TIP3    H218790   6.552   3.450   5.084
 6276TIP3   OH218791   4.579   6.474   0.405
 6276TIP3    H118792   4.661   6.500   0.364
 6276TIP3    H218793   4.595   6.483   0.499
 6277TIP3   OH218794   5.678   2.401   5.525
 6277TIP3    H118795   5.665   2.494   5.547
 6277TIP3    H218796   5.677   2.399   5.429
 6278TIP3   OH218797   5.434   3.854   0.599
 6278TIP3    H118798   5.495   3.927   0.608
 6278TIP3    H218799   5.384   3.854   0.681
 6279TIP3   OH218800   3.305   0.079   3.570
 6279TIP3    H118801   3.374   0.051   3.630
 6279TIP3    H218802   3.336   0.054   3.483
 6280TIP3   OH218803   3.957   3.897   3.632
 6280TIP3    H118804   4.001   3.969   3.677
 6280TIP3    H218805   3.873   3.888   3.677
 6281TIP3   OH218806   2.143   6.750   2.661
 6281TIP3    H118807   2.133   6.821   2.598
 6281TIP3    H218808   2.053   6.729   2.688
 6282TIP3   OH218809   2.082   0.064   1.373
 6282TIP3    H118810   2.096   0.110   1.455
 6282TIP3    H218811   2.009   0.004   1.391
 6283TIP3   OH218812   1.536   2.708   1.346
 6283TIP3    H118813   1.632   2.705   1.346
 6283TIP3    H218814   1.510   2.673   1.261
 6284TIP3   OH218815   3.591   6.297   4.999
 6284TIP3    H118816   3.595   6.369   5.062
 6284TIP3    H218817   3.557   6.223   5.050
 6285TIP3   OH218818   0.453   3.815   0.093
 6285TIP3    H118819   0.359   3.806   0.107
 6285TIP3    H218820   0.474   3.901   0.129
 6286TIP3   OH218821   4.567   5.088   5.076
 6286TIP3    H118822   4.495   5.149   5.056
 6286TIP3    H218823   4.632   5.105   5.007
 6287TIP3   OH218824   2.306   3.602   3.842
 6287TIP3    H118825   2.300   3.516   3.799
 6287TIP3    H218826   2.364   3.653   3.785
 6288TIP3   OH218827   6.795   0.130   1.002
 6288TIP3    H118828   6.798   0.042   1.041
 6288TIP3    H218829   6.887   0.154   0.990
 6289TIP3   OH218830   5.883   6.073   0.469
 6289TIP3    H118831   5.802   6.022   0.474
 6289TIP3    H218832   5.951   6.013   0.500
 6290TIP3   OH218833   0.945   3.126   5.453
 6290TIP3    H118834   1.020   3.105   5.509
 6290TIP3    H218835   0.909   3.206   5.492
 6291TIP3   OH218836   6.112   4.307   4.663
 6291TIP3    H118837   6.100   4.326   4.571
 6291TIP3    H218838   6.024   4.309   4.700
 6292TIP3   OH218839   0.466   5.263   5.183
 6292TIP3    H118840   0.528   5.197   5.215
 6292TIP3    H218841   0.439   5.231   5.097
 6293TIP3   OH218842   4.061   5.615   3.353
 6293TIP3    H118843   4.014   5.565   3.420
 6293TIP3    H218844   4.150   5.625   3.388
 6294TIP3   OH218845   2.855   5.012   4.436
 6294TIP3    H118846   2.805   5.065   4.375
 6294TIP3    H218847   2.819   5.033   4.522
 6295TIP3   OH218848   0.323   2.463   4.616
 6295TIP3    H118849   0.331   2.401   4.544
 6295TIP3    H218850   0.229   2.472   4.630
 6296TIP3   OH218851   4.049   6.384   4.991
 6296TIP3    H118852   3.987   6.415   5.057
 6296TIP3    H218853   4.059   6.291   5.011
 6297TIP3   OH218854   5.981   5.350   3.498
 6297TIP3    H118855   5.940   5.436   3.495
 6297TIP3    H218856   5.912   5.291   3.526
 6298TIP3   OH218857   6.831   4.533   0.866
 6298TIP3    H118858   6.833   4.599   0.936
 6298TIP3    H218859   6.777   4.572   0.797
 6299TIP3   OH218860   6.755   6.233   0.641
 6299TIP3    H118861   6.745   6.321   0.605
 6299TIP3    H218862   6.742   6.245   0.736
 6300TIP3   OH218863   4.848   6.779   0.749
 6300TIP3    H118864   4.898   6.855   0.718
 6300TIP3    H218865   4.904   6.704   0.730
 6301TIP3   OH218866   6.896   0.383   3.351
 6301TIP3    H118867   6.844   0.448   3.304
 6301TIP3    H218868   6.987   0.404   3.328
 6302TIP3   OH218869   6.031   0.062   4.870
 6302TIP3    H118870   5.969   0.013   4.815
 6302TIP3    H218871   5.996   0.151   4.873
 6303TIP3   OH218872   2.385   2.084   1.620
 6303TIP3    H118873   2.328   2.149   1.661
 6303TIP3    H218874   2.362   2.087   1.527
 6304TIP3   OH218875   3.835   3.152   3.015
 6304TIP3    H118876   3.821   3.065   2.979
 6304TIP3    H218877   3.887   3.137   3.094
 6305TIP3   OH218878   1.702   3.990   1.936
 6305TIP3    H118879   1.672   4.052   1.870
 6305TIP3    H218880   1.790   3.965   1.908
 6306TIP3   OH218881   0.300   6.039   5.431
 6306TIP3    H118882   0.310   5.943   5.432
 6306TIP3    H218883   0.351   6.067   5.355
 6307TIP3   OH218884   5.391   4.222   2.437
 6307TIP3    H118885   5.328   4.280   2.393
 6307TIP3    H218886   5.430   4.276   2.506
 6308TIP3   OH218887   1.970   0.746   5.037
 6308TIP3    H118888   1.977   0.776   5.128
 6308TIP3    H218889   2.059   0.725   5.011
 6309TIP3   OH218890   0.504   5.520   5.088
 6309TIP3    H118891   0.454   5.480   5.017
 6309TIP3    H218892   0.473   5.474   5.167
 6310TIP3   OH218893   4.311   0.514   3.957
 6310TIP3    H118894   4.337   0.492   3.867
 6310TIP3    H218895   4.300   0.429   4.000
 6311TIP3   OH218896   6.968   4.866   4.484
 6311TIP3    H118897   6.903   4.886   4.551
 6311TIP3    H218898   6.967   4.943   4.427
 6312TIP3   OH218899   1.039   4.920   0.538
 6312TIP3    H118900   1.007   4.861   0.469
 6312TIP3    H218901   0.963   4.972   0.564
 6313TIP3   OH218902   3.993   2.093   4.958
 6313TIP3    H118903   3.937   2.164   4.989
 6313TIP3    H218904   3.940   2.045   4.895
 6314TIP3   OH218905   2.003   4.143   3.740
 6314TIP3    H118906   2.096   4.157   3.757
 6314TIP3    H218907   1.971   4.099   3.819
 6315TIP3   OH218908   1.332   6.330   2.615
 6315TIP3    H118909   1.397   6.262   2.599
 6315TIP3    H218910   1.261   6.310   2.553
 6316TIP3   OH218911   2.665   3.201   2.348
 6316TIP3    H118912   2.683   3.282   2.396
 6316TIP3    H218913   2.595   3.225   2.286
 6317TIP3   OH218914   3.326   3.910   2.629
 6317TIP3    H118915   3.319   3.856   2.708
 6317TIP3    H218916   3.244   3.893   2.582
 6318TIP3   OH218917   0.322   1.170   3.252
 6318TIP3    H118918   0.318   1.101   3.318
 6318TIP3    H218919   0.411   1.163   3.215
 6319TIP3   OH218920   3.588   3.468   1.456
 6319TIP3    H118921   3.623   3.382   1.433
 6319TIP3    H218922   3.516   3.450   1.517
 6320TIP3   OH218923   6.123   0.610   4.696
 6320TIP3    H118924   6.141   0.516   4.702
 6320TIP3    H218925   6.173   0.649   4.768
 6321TIP3   OH218926   3.736   4.174   3.705
 6321TIP3    H118927   3.701   4.116   3.773
 6321TIP3    H218928   3.816   4.211   3.743
 6322TIP3   OH218929   4.552   3.903   4.363
 6322TIP3    H118930   4.609   3.966   4.318
 6322TIP3    H218931   4.528   3.840   4.295
 6323TIP3   OH218932   0.847   0.045   3.274
 6323TIP3    H118933   0.831   0.133   3.308
 6323TIP3    H218934   0.783   0.035   3.203
 6324TIP3   OH218935   3.981   5.459   1.504
 6324TIP3    H118936   3.888   5.440   1.518
 6324TIP3    H218937   3.991   5.551   1.527
 6325TIP3   OH218938   0.246   3.721   1.121
 6325TIP3    H118939   0.225   3.780   1.193
 6325TIP3    H218940   0.211   3.636   1.147
 6326TIP3   OH218941   0.742   3.432   1.758
 6326TIP3    H118942   0.767   3.352   1.803
 6326TIP3    H218943   0.678   3.405   1.692
 6327TIP3   OH218944   6.303   4.688   5.205
 6327TIP3    H118945   6.239   4.652   5.267
 6327TIP3    H218946   6.314   4.618   5.140
 6328TIP3   OH218947   6.305   4.257   3.284
 6328TIP3    H118948   6.315   4.345   3.321
 6328TIP3    H218949   6.368   4.255   3.211
 6329TIP3   OH218950   2.080   4.953   3.731
 6329TIP3    H118951   2.043   4.909   3.654
 6329TIP3    H218952   2.170   4.921   3.735
 6330TIP3   OH218953   1.035   2.961   3.555
 6330TIP3    H118954   1.103   2.943   3.489
 6330TIP3    H218955   1.074   2.932   3.637
 6331TIP3   OH218956   1.388   1.612   1.222
 6331TIP3    H118957   1.313   1.628   1.280
 6331TIP3    H218958   1.445   1.688   1.235
 6332TIP3   OH218959   3.841   0.744   1.090
 6332TIP3    H118960   3.868   0.676   1.028
 6332TIP3    H218961   3.771   0.704   1.141
 6333TIP3   OH218962   6.038   5.443   1.205
 6333TIP3    H118963   6.002   5.438   1.294
 6333TIP3    H218964   6.101   5.515   1.210
 6334TIP3   OH218965   3.814   1.140   1.302
 6334TIP3    H118966   3.881   1.078   1.271
 6334TIP3    H218967   3.828   1.145   1.397
 6335TIP3   OH218968   4.584   3.943   1.618
 6335TIP3    H118969   4.592   3.892   1.698
 6335TIP3    H218970   4.516   4.009   1.638
 6336TIP3   OH218971   3.820   6.735   2.025
 6336TIP3    H118972   3.820   6.677   2.101
 6336TIP3    H218973   3.912   6.740   1.999
 6337TIP3   OH218974   6.943   0.341   4.654
 6337TIP3    H118975   6.936   0.299   4.740
 6337TIP3    H218976   6.852   0.352   4.625
 6338TIP3   OH218977   3.413   2.331   0.403
 6338TIP3    H118978   3.350   2.387   0.359
 6338TIP3    H218979   3.470   2.391   0.452
 6339TIP3   OH218980   0.506   0.458   5.365
 6339TIP3    H118981   0.468   0.545   5.359
 6339TIP3    H218982   0.501   0.435   5.458
 6340TIP3   OH218983   1.519   3.203   0.178
 6340TIP3    H118984   1.548   3.271   0.239
 6340TIP3    H218985   1.599   3.174   0.135
 6341TIP3   OH218986   2.472   4.182   0.862
 6341TIP3    H118987   2.552   4.221   0.826
 6341TIP3    H218988   2.504   4.111   0.918
 6342TIP3   OH218989   0.524   1.598   5.239
 6342TIP3    H118990   0.461   1.614   5.310
 6342TIP3    H218991   0.605   1.637   5.270
 6343TIP3   OH218992   7.198   2.030   3.064
 6343TIP3    H118993   7.224   2.120   3.084
 6343TIP3    H218994   7.270   1.995   3.011
 6344TIP3   OH218995   5.251   0.403   3.997
 6344TIP3    H118996   5.182   0.400   3.930
 6344TIP3    H218997   5.291   0.489   3.986
 6345TIP3   OH218998   4.850   3.720   4.291
 6345TIP3    H118999   4.922   3.751   4.347
 6345TIP3    H219000   4.799   3.799   4.273
 6346TIP3   OH219001   6.563   1.478   2.810
 6346TIP3    H119002   6.613   1.398   2.792
 6346TIP3    H219003   6.475   1.458   2.776
 6347TIP3   OH219004   6.430   5.132   3.509
 6347TIP3    H119005   6.413   5.136   3.415
 6347TIP3    H219006   6.469   5.217   3.530
 6348TIP3   OH219007   2.214   4.039   4.435
 6348TIP3    H119008   2.125   4.004   4.435
 6348TIP3    H219009   2.236   4.049   4.528
 6349TIP3   OH219010   3.817   1.719   2.015
 6349TIP3    H119011   3.862   1.760   2.089
 6349TIP3    H219012   3.725   1.717   2.041
 6350TIP3   OH219013   0.320   1.536   4.319
 6350TIP3    H119014   0.403   1.526   4.364
 6350TIP3    H219015   0.264   1.582   4.382
 6351TIP3   OH219016   4.433   0.723   2.148
 6351TIP3    H119017   4.425   0.708   2.054
 6351TIP3    H219018   4.509   0.781   2.156
 6352TIP3   OH219019   5.858   4.946   5.141
 6352TIP3    H119020   5.867   4.916   5.231
 6352TIP3    H219021   5.934   5.001   5.126
 6353TIP3   OH219022   2.833   4.215   4.662
 6353TIP3    H119023   2.888   4.292   4.676
 6353TIP3    H219024   2.837   4.167   4.745
 6354TIP3   OH219025   4.471   3.340   0.846
 6354TIP3    H119026   4.561   3.371   0.837
 6354TIP3    H219027   4.476   3.268   0.908
 6355TIP3   OH219028   1.103   5.574   0.209
 6355TIP3    H119029   1.190   5.610   0.193
 6355TIP3    H219030   1.043   5.635   0.166
 6356TIP3   OH219031   3.431   6.486   4.381
 6356TIP3    H119032   3.426   6.576   4.349
 6356TIP3    H219033   3.360   6.441   4.336
 6357TIP3   OH219034   2.231   5.586   4.646
 6357TIP3    H119035   2.187   5.660   4.686
 6357TIP3    H219036   2.167   5.515   4.649
 6358TIP3   OH219037   4.157   4.323   1.463
 6358TIP3    H119038   4.126   4.395   1.407
 6358TIP3    H219039   4.122   4.344   1.549
 6359TIP3   OH219040   3.502   5.055   2.764
 6359TIP3    H119041   3.571   5.086   2.705
 6359TIP3    H219042   3.544   5.049   2.850
 6360TIP3   OH219043   5.200   2.603   0.636
 6360TIP3    H119044   5.154   2.680   0.602
 6360TIP3    H219045   5.133   2.534   0.636
 6361TIP3   OH219046   4.178   3.053   3.259
 6361TIP3    H119047   4.240   3.055   3.186
 6361TIP3    H219048   4.152   3.144   3.270
 6362TIP3   OH219049   1.347   4.413   0.862
 6362TIP3    H119050   1.328   4.498   0.899
 6362TIP3    H219051   1.261   4.377   0.839
 6363TIP3   OH219052   3.283   5.492   4.232
 6363TIP3    H119053   3.308   5.499   4.140
 6363TIP3    H219054   3.190   5.469   4.230
 6364TIP3   OH219055   4.525   5.596   4.753
 6364TIP3    H119056   4.541   5.504   4.731
 6364TIP3    H219057   4.610   5.629   4.783
 6365TIP3   OH219058   0.543   2.806   1.244
 6365TIP3    H119059   0.608   2.747   1.283
 6365TIP3    H219060   0.461   2.784   1.288
 6366TIP3   OH219061   2.387   0.528   3.078
 6366TIP3    H119062   2.415   0.445   3.038
 6366TIP3    H219063   2.395   0.592   3.008
 6367TIP3   OH219064   2.930   3.857   5.494
 6367TIP3    H119065   2.988   3.799   5.446
 6367TIP3    H219066   2.848   3.854   5.445
 6368TIP3   OH219067   1.957   2.959   1.327
 6368TIP3    H119068   2.039   3.000   1.355
 6368TIP3    H219069   1.937   2.895   1.396
 6369TIP3   OH219070   6.507   3.775   5.616
 6369TIP3    H119071   6.595   3.761   5.579
 6369TIP3    H219072   6.498   3.870   5.621
 6370TIP3   OH219073   6.934   5.457   3.476
 6370TIP3    H119074   6.902   5.375   3.440
 6370TIP3    H219075   7.002   5.431   3.539
 6371TIP3   OH219076   3.047   4.700   1.905
 6371TIP3    H119077   2.987   4.628   1.886
 6371TIP3    H219078   3.110   4.664   1.968
 6372TIP3   OH219079   3.519   1.211   5.841
 6372TIP3    H119080   3.441   1.256   5.873
 6372TIP3    H219081   3.485   1.139   5.787
 6373TIP3   OH219082   0.454   1.046   1.726
 6373TIP3    H119083   0.469   1.063   1.819
 6373TIP3    H219084   0.475   1.129   1.683
 6374TIP3   OH219085   0.793   0.453   2.720
 6374TIP3    H119086   0.832   0.410   2.644
 6374TIP3    H219087   0.751   0.531   2.684
 6375TIP3   OH219088   3.123   5.334   1.094
 6375TIP3    H119089   3.143   5.386   1.172
 6375TIP3    H219090   3.028   5.342   1.084
 6376TIP3   OH219091   5.263   0.621   2.733
 6376TIP3    H119092   5.343   0.671   2.715
 6376TIP3    H219093   5.242   0.642   2.824
 6377TIP3   OH219094   3.547   5.191   1.917
 6377TIP3    H119095   3.479   5.257   1.898
 6377TIP3    H219096   3.611   5.238   1.970
 6378TIP3   OH219097   6.561   6.176   3.772
 6378TIP3    H119098   6.561   6.259   3.724
 6378TIP3    H219099   6.631   6.124   3.730
 6379TIP3   OH219100   0.393   6.591   5.420
 6379TIP3    H119101   0.369   6.599   5.512
 6379TIP3    H219102   0.350   6.666   5.378
 6380TIP3   OH219103   4.362   5.349   3.423
 6380TIP3    H119104   4.389   5.257   3.423
 6380TIP3    H219105   4.309   5.359   3.344
 6381TIP3   OH219106   5.603   2.968   3.813
 6381TIP3    H119107   5.548   2.929   3.881
 6381TIP3    H219108   5.609   3.060   3.837
 6382TIP3   OH219109   4.114   2.456   2.566
 6382TIP3    H119110   4.105   2.551   2.565
 6382TIP3    H219111   4.026   2.422   2.550
 6383TIP3   OH219112   0.058   2.603   0.782
 6383TIP3    H119113   0.152   2.609   0.797
 6383TIP3    H219114   0.033   2.688   0.747
 6384TIP3   OH219115   2.060   1.828   0.001
 6384TIP3    H119116   2.057   1.879   0.082
 6384TIP3    H219117   2.021   1.884  -0.065
 6385TIP3   OH219118   4.023   0.730   5.524
 6385TIP3    H119119   4.009   0.712   5.617
 6385TIP3    H219120   4.056   0.648   5.488
 6386TIP3   OH219121   1.460   2.213   1.039
 6386TIP3    H119122   1.498   2.126   1.050
 6386TIP3    H219123   1.533   2.268   1.009
 6387TIP3   OH219124   6.786   2.479   5.839
 6387TIP3    H119125   6.691   2.472   5.834
 6387TIP3    H219126   6.818   2.432   5.762
 6388TIP3   OH219127   1.681   3.391   2.679
 6388TIP3    H119128   1.683   3.318   2.742
 6388TIP3    H219129   1.771   3.425   2.681
 6389TIP3   OH219130   4.732   3.026   4.639
 6389TIP3    H119131   4.735   3.044   4.733
 6389TIP3    H219132   4.693   3.104   4.600
 6390TIP3   OH219133   4.578   0.148   0.559
 6390TIP3    H119134   4.657   0.194   0.531
 6390TIP3    H219135   4.531   0.129   0.478
 6391TIP3   OH219136   1.248   1.992   2.598
 6391TIP3    H119137   1.253   1.932   2.523
 6391TIP3    H219138   1.168   1.966   2.644
 6392TIP3   OH219139   4.080   0.614   5.257
 6392TIP3    H119140   4.010   0.553   5.279
 6392TIP3    H219141   4.036   0.689   5.217
 6393TIP3   OH219142   0.074   3.913   3.435
 6393TIP3    H119143  -0.020   3.898   3.441
 6393TIP3    H219144   0.081   4.004   3.406
 6394TIP3   OH219145   2.224   3.023   0.144
 6394TIP3    H119146   2.181   2.938   0.155
 6394TIP3    H219147   2.160   3.087   0.177
 6395TIP3   OH219148   0.682   2.981   2.311
 6395TIP3    H119149   0.772   2.959   2.335
 6395TIP3    H219150   0.631   2.961   2.389
 6396TIP3   OH219151   3.328   6.110   1.125
 6396TIP3    H119152   3.381   6.035   1.149
 6396TIP3    H219153   3.346   6.123   1.032
 6397TIP3   OH219154   6.806   0.179   3.499
 6397TIP3    H119155   6.821   0.228   3.580
 6397TIP3    H219156   6.798   0.246   3.431
 6398TIP3   OH219157   0.305   1.953   3.372
 6398TIP3    H119158   0.238   1.937   3.438
 6398TIP3    H219159   0.308   1.872   3.321
 6399TIP3   OH219160   6.641   1.198   4.865
 6399TIP3    H119161   6.735   1.196   4.850
 6399TIP3    H219162   6.603   1.227   4.782
 6400TIP3   OH219163   4.989   2.970   0.923
 6400TIP3    H119164   4.960   2.895   0.871
 6400TIP3    H219165   5.014   2.932   1.007
 6401TIP3   OH219166   0.231   2.225   4.934
 6401TIP3    H119167   0.287   2.148   4.938
 6401TIP3    H219168   0.276   2.290   4.989
 6402TIP3   OH219169   3.301   0.987   0.910
 6402TIP3    H119170   3.287   1.079   0.888
 6402TIP3    H219171   3.394   0.973   0.896
 6403TIP3   OH219172   2.056   6.266   0.697
 6403TIP3    H119173   2.081   6.355   0.723
 6403TIP3    H219174   2.034   6.222   0.779
 6404TIP3   OH219175   4.847   1.495   2.225
 6404TIP3    H119176   4.859   1.407   2.262
 6404TIP3    H219177   4.800   1.479   2.142
 6405TIP3   OH219178   4.344   6.831   2.869
 6405TIP3    H119179   4.426   6.808   2.824
 6405TIP3    H219180   4.340   6.771   2.943
 6406TIP3   OH219181   0.643   5.723   5.690
 6406TIP3    H119182   0.602   5.696   5.608
 6406TIP3    H219183   0.729   5.757   5.664
 6407TIP3   OH219184   5.385   6.394   4.354
 6407TIP3    H119185   5.391   6.307   4.394
 6407TIP3    H219186   5.401   6.380   4.261
 6408TIP3   OH219187   1.759   1.763   4.297
 6408TIP3    H119188   1.727   1.852   4.306
 6408TIP3    H219189   1.849   1.773   4.265
 6409TIP3   OH219190   3.733   2.590   4.151
 6409TIP3    H119191   3.815   2.589   4.102
 6409TIP3    H219192   3.689   2.670   4.123
 6410TIP3   OH219193   3.006   1.153   5.780
 6410TIP3    H119194   3.000   1.242   5.816
 6410TIP3    H219195   2.972   1.097   5.851
 6411TIP3   OH219196   2.313   0.436   2.473
 6411TIP3    H119197   2.281   0.443   2.383
 6411TIP3    H219198   2.390   0.492   2.475
 6412TIP3   OH219199   2.396   4.940   2.526
 6412TIP3    H119200   2.353   4.990   2.456
 6412TIP3    H219201   2.350   4.856   2.527
 6413TIP3   OH219202   0.735   5.377   3.752
 6413TIP3    H119203   0.711   5.355   3.662
 6413TIP3    H219204   0.651   5.389   3.796
 6414TIP3   OH219205   5.264   0.888   0.356
 6414TIP3    H119206   5.227   0.884   0.268
 6414TIP3    H219207   5.333   0.822   0.356
 6415TIP3   OH219208   1.185   5.243   3.708
 6415TIP3    H119209   1.144   5.163   3.675
 6415TIP3    H219210   1.115   5.309   3.702
 6416TIP3   OH219211   4.875   5.184   1.709
 6416TIP3    H119212   4.878   5.251   1.641
 6416TIP3    H219213   4.931   5.218   1.779
 6417TIP3   OH219214   5.073   2.927   3.548
 6417TIP3    H119215   5.093   2.901   3.458
 6417TIP3    H219216   5.158   2.935   3.590
 6418TIP3   OH219217   4.600   6.725   1.892
 6418TIP3    H119218   4.557   6.653   1.938
 6418TIP3    H219219   4.530   6.787   1.873
 6419TIP3   OH219220   5.778   5.384   2.647
 6419TIP3    H119221   5.770   5.433   2.565
 6419TIP3    H219222   5.758   5.293   2.623
 6420TIP3   OH219223   4.603   4.700   0.570
 6420TIP3    H119224   4.553   4.711   0.489
 6420TIP3    H219225   4.655   4.780   0.577
 6421TIP3   OH219226   0.488   2.289   3.214
 6421TIP3    H119227   0.397   2.261   3.208
 6421TIP3    H219228   0.501   2.309   3.307
 6422TIP3   OH219229   0.439   6.236   3.754
 6422TIP3    H119230   0.471   6.297   3.820
 6422TIP3    H219231   0.508   6.171   3.746
 6423TIP3   OH219232   2.999   1.244   5.190
 6423TIP3    H119233   3.036   1.277   5.107
 6423TIP3    H219234   3.001   1.319   5.249
 6424TIP3   OH219235   1.219   5.328   3.378
 6424TIP3    H119236   1.212   5.247   3.429
 6424TIP3    H219237   1.313   5.342   3.368
 6425TIP3   OH219238   4.101   4.366  -0.028
 6425TIP3    H119239   4.098   4.295   0.035
 6425TIP3    H219240   4.157   4.432   0.014
 6426TIP3   OH219241   7.044   6.432   4.862
 6426TIP3    H119242   6.999   6.348   4.867
 6426TIP3    H219243   7.131   6.411   4.829
 6427TIP3   OH219244   5.220   5.104   1.416
 6427TIP3    H119245   5.179   5.190   1.423
 6427TIP3    H219246   5.312   5.120   1.438
 6428TIP3   OH219247   0.117   1.655   4.475
 6428TIP3    H119248   0.055   1.609   4.418
 6428TIP3    H219249   0.094   1.747   4.466
 6429TIP3   OH219250   1.134   6.644   3.096
 6429TIP3    H119251   1.219   6.683   3.077
 6429TIP3    H219252   1.153   6.580   3.166
 6430TIP3   OH219253   5.745   3.760   3.564
 6430TIP3    H119254   5.803   3.764   3.487
 6430TIP3    H219255   5.795   3.710   3.629
 6431TIP3   OH219256   0.160   5.937   4.484
 6431TIP3    H119257   0.079   5.891   4.460
 6431TIP3    H219258   0.180   5.905   4.571
 6432TIP3   OH219259   0.515   1.050   1.322
 6432TIP3    H119260   0.455   1.114   1.360
 6432TIP3    H219261   0.554   1.006   1.397
 6433TIP3   OH219262   2.009   3.742   0.708
 6433TIP3    H119263   1.937   3.697   0.751
 6433TIP3    H219264   2.014   3.827   0.751
 6434TIP3   OH219265   4.516   0.844   2.995
 6434TIP3    H119266   4.452   0.839   2.924
 6434TIP3    H219267   4.591   0.890   2.956
 6435TIP3   OH219268   3.986   5.576   0.890
 6435TIP3    H119269   3.925   5.552   0.820
 6435TIP3    H219270   3.937   5.561   0.971
 6436TIP3   OH219271   6.561   2.560   4.174
 6436TIP3    H119272   6.538   2.652   4.160
 6436TIP3    H219273   6.656   2.559   4.181
 6437TIP3   OH219274   6.982   2.738   4.980
 6437TIP3    H119275   6.960   2.653   4.941
 6437TIP3    H219276   6.942   2.802   4.921
 6438TIP3   OH219277   2.873   5.818   4.252
 6438TIP3    H119278   2.863   5.898   4.201
 6438TIP3    H219279   2.820   5.832   4.330
 6439TIP3   OH219280   5.994   3.361   5.612
 6439TIP3    H119281   6.061   3.419   5.648
 6439TIP3    H219282   5.921   3.419   5.591
 6440TIP3   OH219283   5.077   6.485   2.694
 6440TIP3    H119284   5.118   6.399   2.700
 6440TIP3    H219285   5.118   6.536   2.764
 6441TIP3   OH219286   5.977   4.581   1.986
 6441TIP3    H119287   5.987   4.540   2.072
 6441TIP3    H219288   5.980   4.675   2.004
 6442TIP3   OH219289   3.395   0.107   5.878
 6442TIP3    H119290   3.404   0.041   5.808
 6442TIP3    H219291   3.485   0.128   5.902
 6443TIP3   OH219292   1.790   5.599   4.668
 6443TIP3    H119293   1.829   5.642   4.592
 6443TIP3    H219294   1.827   5.510   4.666
 6444TIP3   OH219295   2.967   3.980   3.827
 6444TIP3    H119296   3.021   3.903   3.808
 6444TIP3    H219297   2.877   3.951   3.810
 6445TIP3   OH219298   6.111   2.382   2.989
 6445TIP3    H119299   6.027   2.354   2.951
 6445TIP3    H219300   6.174   2.318   2.957
 6446TIP3   OH219301   6.376   5.321   1.226
 6446TIP3    H119302   6.362   5.413   1.204
 6446TIP3    H219303   6.292   5.292   1.262
 6447TIP3   OH219304   6.493   6.181   3.423
 6447TIP3    H119305   6.421   6.229   3.465
 6447TIP3    H219306   6.503   6.223   3.338
 6448TIP3   OH219307   1.829   1.956   0.407
 6448TIP3    H119308   1.793   1.921   0.325
 6448TIP3    H219309   1.762   1.935   0.472
 6449TIP3   OH219310   4.009   6.130   0.818
 6449TIP3    H119311   4.083   6.084   0.779
 6449TIP3    H219312   4.048   6.202   0.867
 6450TIP3   OH219313   6.791   5.550   3.232
 6450TIP3    H119314   6.842   5.476   3.200
 6450TIP3    H219315   6.813   5.557   3.325
 6451TIP3   OH219316   5.294   3.088   4.206
 6451TIP3    H119317   5.225   3.154   4.199
 6451TIP3    H219318   5.296   3.066   4.299
 6452TIP3   OH219319   3.157   6.387   5.683
 6452TIP3    H119320   3.164   6.356   5.593
 6452TIP3    H219321   3.174   6.310   5.736
 6453TIP3   OH219322   0.485   6.752   2.107
 6453TIP3    H119323   0.483   6.713   2.194
 6453TIP3    H219324   0.521   6.839   2.120
 6454TIP3   OH219325   1.330   6.016   3.117
 6454TIP3    H119326   1.261   5.957   3.149
 6454TIP3    H219327   1.337   5.994   3.024
 6455TIP3   OH219328   3.899   5.151   4.547
 6455TIP3    H119329   3.966   5.218   4.529
 6455TIP3    H219330   3.857   5.138   4.462
 6456TIP3   OH219331   1.961   0.293   0.376
 6456TIP3    H119332   1.932   0.205   0.351
 6456TIP3    H219333   2.002   0.282   0.461
 6457TIP3   OH219334   4.958   3.454   0.008
 6457TIP3    H119335   4.913   3.503   0.077
 6457TIP3    H219336   5.024   3.515  -0.025
 6458TIP3   OH219337   3.153   0.582   5.805
 6458TIP3    H119338   3.233   0.581   5.857
 6458TIP3    H219339   3.182   0.567   5.715
 6459TIP3   OH219340   2.929   3.114   0.783
 6459TIP3    H119341   2.894   3.058   0.852
 6459TIP3    H219342   2.857   3.172   0.761
 6460TIP3   OH219343   4.625   4.071   5.279
 6460TIP3    H119344   4.564   4.050   5.350
 6460TIP3    H219345   4.583   4.039   5.200
 6461TIP3   OH219346   3.980   6.100   3.726
 6461TIP3    H119347   4.042   6.075   3.657
 6461TIP3    H219348   3.960   6.017   3.770
 6462TIP3   OH219349   2.686   4.796   1.897
 6462TIP3    H119350   2.727   4.878   1.922
 6462TIP3    H219351   2.613   4.786   1.958
 6463TIP3   OH219352   4.062   2.198   2.024
 6463TIP3    H119353   3.997   2.226   2.088
 6463TIP3    H219354   4.139   2.177   2.076
 6464TIP3   OH219355   5.752   4.852   2.499
 6464TIP3    H119356   5.754   4.758   2.516
 6464TIP3    H219357   5.769   4.892   2.584
 6465TIP3   OH219358   0.583   6.395   1.435
 6465TIP3    H119359   0.490   6.398   1.414
 6465TIP3    H219360   0.627   6.419   1.354
 6466TIP3   OH219361   4.463   2.949   3.087
 6466TIP3    H119362   4.547   2.927   3.045
 6466TIP3    H219363   4.418   3.004   3.023
 6467TIP3   OH219364   2.835   0.819   4.207
 6467TIP3    H119365   2.889   0.741   4.191
 6467TIP3    H219366   2.869   0.854   4.289
 6468TIP3   OH219367   3.691   6.573   4.378
 6468TIP3    H119368   3.665   6.665   4.374
 6468TIP3    H219369   3.611   6.526   4.400
 6469TIP3   OH219370   2.076   0.503   1.753
 6469TIP3    H119371   2.050   0.528   1.664
 6469TIP3    H219372   2.074   0.584   1.803
 6470TIP3   OH219373   0.811   3.319   5.616
 6470TIP3    H119374   0.826   3.385   5.549
 6470TIP3    H219375   0.719   3.293   5.604
 6471TIP3   OH219376   0.120   3.565   4.232
 6471TIP3    H119377   0.171   3.646   4.230
 6471TIP3    H219378   0.162   3.512   4.300
 6472TIP3   OH219379   2.231   0.053   0.345
 6472TIP3    H119380   2.140   0.050   0.315
 6472TIP3    H219381   2.278   0.097   0.274
 6473TIP3   OH219382   0.596   3.243   3.139
 6473TIP3    H119383   0.534   3.282   3.077
 6473TIP3    H219384   0.676   3.295   3.130
 6474TIP3   OH219385   6.293   2.051   1.129
 6474TIP3    H119386   6.384   2.060   1.102
 6474TIP3    H219387   6.282   1.957   1.146
 6475TIP3   OH219388   1.826   4.178   2.707
 6475TIP3    H119389   1.829   4.181   2.611
 6475TIP3    H219390   1.763   4.246   2.732
 6476TIP3   OH219391   5.735   0.620   2.007
 6476TIP3    H119392   5.766   0.568   1.932
 6476TIP3    H219393   5.678   0.686   1.968
 6477TIP3   OH219394   0.882   3.160   5.003
 6477TIP3    H119395   0.944   3.101   5.044
 6477TIP3    H219396   0.936   3.227   4.961
 6478TIP3   OH219397   2.670   2.696   3.755
 6478TIP3    H119398   2.745   2.641   3.780
 6478TIP3    H219399   2.594   2.641   3.772
 6479TIP3   OH219400   2.607   0.320   4.645
 6479TIP3    H119401   2.626   0.228   4.665
 6479TIP3    H219402   2.619   0.366   4.728
 6480TIP3   OH219403   3.034   2.780   1.053
 6480TIP3    H119404   2.973   2.835   1.004
 6480TIP3    H219405   2.988   2.697   1.064
 6481TIP3   OH219406   2.528   1.508   1.146
 6481TIP3    H119407   2.609   1.497   1.096
 6481TIP3    H219408   2.463   1.459   1.096
 6482TIP3   OH219409   1.807   2.101   2.393
 6482TIP3    H119410   1.838   2.011   2.404
 6482TIP3    H219411   1.784   2.129   2.482
 6483TIP3   OH219412   2.264   4.798   3.228
 6483TIP3    H119413   2.215   4.750   3.294
 6483TIP3    H219414   2.199   4.858   3.190
 6484TIP3   OH219415   4.837   0.663   4.270
 6484TIP3    H119416   4.792   0.659   4.186
 6484TIP3    H219417   4.905   0.595   4.264
 6485TIP3   OH219418   6.596   6.080   5.087
 6485TIP3    H119419   6.648   6.152   5.052
 6485TIP3    H219420   6.635   6.062   5.173
 6486TIP3   OH219421   0.312   1.219   0.117
 6486TIP3    H119422   0.361   1.300   0.102
 6486TIP3    H219423   0.371   1.164   0.168
 6487TIP3   OH219424   6.843   0.161   2.483
 6487TIP3    H119425   6.914   0.145   2.421
 6487TIP3    H219426   6.854   0.252   2.509
 6488TIP3   OH219427   3.588   5.647   1.150
 6488TIP3    H119428   3.577   5.720   1.088
 6488TIP3    H219429   3.506   5.598   1.144
 6489TIP3   OH219430   1.850   2.234   3.430
 6489TIP3    H119431   1.760   2.205   3.418
 6489TIP3    H219432   1.903   2.164   3.394
 6490TIP3   OH219433   5.025   4.484   1.924
 6490TIP3    H119434   5.119   4.470   1.922
 6490TIP3    H219435   5.014   4.578   1.908
 6491TIP3   OH219436   3.542   1.068   3.114
 6491TIP3    H119437   3.522   0.976   3.132
 6491TIP3    H219438   3.636   1.069   3.099
 6492TIP3   OH219439   5.864  -0.001   2.351
 6492TIP3    H119440   5.927   0.042   2.409
 6492TIP3    H219441   5.817  -0.063   2.407
 6493TIP3   OH219442   4.531   5.156   5.609
 6493TIP3    H119443   4.608   5.127   5.561
 6493TIP3    H219444   4.560   5.161   5.700
 6494TIP3   OH219445   0.403   4.217   2.591
 6494TIP3    H119446   0.390   4.276   2.666
 6494TIP3    H219447   0.483   4.170   2.612
 6495TIP3   OH219448   5.942   6.429   3.924
 6495TIP3    H119449   5.998   6.499   3.890
 6495TIP3    H219450   5.989   6.395   4.000
 6496TIP3   OH219451   6.055   3.050   4.463
 6496TIP3    H119452   6.131   3.005   4.501
 6496TIP3    H219453   6.087   3.138   4.444
 6497TIP3   OH219454   7.123   6.011   4.213
 6497TIP3    H119455   7.215   6.021   4.190
 6497TIP3    H219456   7.078   6.004   4.129
 6498TIP3   OH219457   5.501   5.249   1.119
 6498TIP3    H119458   5.573   5.189   1.138
 6498TIP3    H219459   5.529   5.332   1.157
 6499TIP3   OH219460   6.715   0.744   5.638
 6499TIP3    H119461   6.694   0.774   5.550
 6499TIP3    H219462   6.793   0.690   5.627
 6500TIP3   OH219463   3.541   4.689   5.840
 6500TIP3    H119464   3.549   4.740   5.759
 6500TIP3    H219465   3.457   4.714   5.877
 6501TIP3   OH219466   3.132   2.914   3.757
 6501TIP3    H119467   3.142   3.009   3.760
 6501TIP3    H219468   3.071   2.899   3.685
 6502TIP3   OH219469   6.853   0.207   0.247
 6502TIP3    H119470   6.848   0.111   0.255
 6502TIP3    H219471   6.935   0.230   0.290
 6503TIP3   OH219472   1.715   3.840   3.948
 6503TIP3    H119473   1.697   3.801   3.863
 6503TIP3    H219474   1.632   3.835   3.995
 6504TIP3   OH219475   5.559   1.127   5.108
 6504TIP3    H119476   5.616   1.134   5.031
 6504TIP3    H219477   5.608   1.169   5.179
 6505TIP3   OH219478   3.791   4.782   3.354
 6505TIP3    H119479   3.878   4.782   3.315
 6505TIP3    H219480   3.754   4.867   3.331
 6506TIP3   OH219481   3.724   0.224   0.867
 6506TIP3    H119482   3.639   0.183   0.884
 6506TIP3    H219483   3.719   0.252   0.775
 6507TIP3   OH219484   4.144   6.364   0.498
 6507TIP3    H119485   4.052   6.359   0.522
 6507TIP3    H219486   4.190   6.375   0.581
 6508TIP3   OH219487   0.141   5.121   3.802
 6508TIP3    H119488   0.097   5.095   3.883
 6508TIP3    H219489   0.129   5.216   3.798
 6509TIP3   OH219490   3.489   5.827   4.381
 6509TIP3    H119491   3.475   5.827   4.286
 6509TIP3    H219492   3.425   5.764   4.415
 6510TIP3   OH219493   4.931   6.493   3.030
 6510TIP3    H119494   5.022   6.464   3.026
 6510TIP3    H219495   4.882   6.414   3.053
 6511TIP3   OH219496   1.782   4.787   2.683
 6511TIP3    H119497   1.857   4.827   2.727
 6511TIP3    H219498   1.757   4.850   2.616
 6512TIP3   OH219499   4.591   0.894   5.779
 6512TIP3    H119500   4.619   0.984   5.791
 6512TIP3    H219501   4.530   0.878   5.851
 6513TIP3   OH219502   1.989   2.697   4.503
 6513TIP3    H119503   2.057   2.669   4.443
 6513TIP3    H219504   2.035   2.747   4.571
 6514TIP3   OH219505   2.972   2.847   4.563
 6514TIP3    H119506   2.912   2.916   4.593
 6514TIP3    H219507   2.915   2.783   4.520
 6515TIP3   OH219508   2.134   2.753   2.076
 6515TIP3    H119509   2.072   2.724   2.142
 6515TIP3    H219510   2.124   2.690   2.004
 6516TIP3   OH219511   0.658   2.238   1.690
 6516TIP3    H119512   0.703   2.162   1.727
 6516TIP3    H219513   0.623   2.207   1.606
 6517TIP3   OH219514   4.689   0.494   5.132
 6517TIP3    H119515   4.684   0.590   5.134
 6517TIP3    H219516   4.782   0.475   5.130
 6518TIP3   OH219517   5.688   6.445   3.967
 6518TIP3    H119518   5.781   6.467   3.976
 6518TIP3    H219519   5.688   6.359   3.926
 6519TIP3   OH219520   5.758   2.425   2.045
 6519TIP3    H119521   5.853   2.434   2.036
 6519TIP3    H219522   5.739   2.461   2.131
 6520TIP3   OH219523   4.585   0.164   1.825
 6520TIP3    H119524   4.660   0.193   1.876
 6520TIP3    H219525   4.588   0.069   1.829
 6521TIP3   OH219526   5.093   5.349   1.452
 6521TIP3    H119527   5.003   5.321   1.461
 6521TIP3    H219528   5.088   5.426   1.394
 6522TIP3   OH219529   5.113   4.562   2.549
 6522TIP3    H119530   5.089   4.491   2.490
 6522TIP3    H219531   5.177   4.524   2.608
 6523TIP3   OH219532   1.844   4.709   3.180
 6523TIP3    H119533   1.798   4.692   3.097
 6523TIP3    H219534   1.929   4.666   3.169
 6524TIP3   OH219535   2.370   2.584   4.102
 6524TIP3    H119536   2.306   2.619   4.039
 6524TIP3    H219537   2.441   2.647   4.101
 6525TIP3   OH219538   0.801   0.788   2.912
 6525TIP3    H119539   0.870   0.807   2.848
 6525TIP3    H219540   0.781   0.872   2.951
 6526TIP3   OH219541   4.515   0.265   2.331
 6526TIP3    H119542   4.462   0.327   2.281
 6526TIP3    H219543   4.514   0.185   2.279
 6527TIP3   OH219544   5.940   4.488   3.582
 6527TIP3    H119545   5.945   4.409   3.527
 6527TIP3    H219546   5.900   4.458   3.663
 6528TIP3   OH219547   7.069   1.566   5.279
 6528TIP3    H119548   7.088   1.659   5.293
 6528TIP3    H219549   6.980   1.564   5.245
 6529TIP3   OH219550   5.171   1.500   2.441
 6529TIP3    H119551   5.126   1.417   2.453
 6529TIP3    H219552   5.102   1.561   2.413
 6530TIP3   OH219553   3.374   1.038   3.562
 6530TIP3    H119554   3.423   0.993   3.493
 6530TIP3    H219555   3.282   1.017   3.544
 6531TIP3   OH219556   4.184   1.242   4.887
 6531TIP3    H119557   4.121   1.171   4.898
 6531TIP3    H219558   4.269   1.203   4.907
 6532TIP3   OH219559   0.075   6.741   1.646
 6532TIP3    H119560   0.049   6.682   1.575
 6532TIP3    H219561   0.134   6.687   1.700
 6533TIP3   OH219562   2.823   2.626   4.431
 6533TIP3    H119563   2.901   2.581   4.398
 6533TIP3    H219564   2.758   2.557   4.442
 6534TIP3   OH219565   0.909   5.732   0.038
 6534TIP3    H119566   0.827   5.696   0.072
 6534TIP3    H219567   0.922   5.687  -0.045
 6535TIP3   OH219568   6.258   3.666   5.059
 6535TIP3    H119569   6.271   3.749   5.106
 6535TIP3    H219570   6.304   3.601   5.112
 6536TIP3   OH219571   2.275   6.557   2.538
 6536TIP3    H119572   2.353   6.556   2.593
 6536TIP3    H219573   2.212   6.610   2.587
 6537TIP3   OH219574   4.297   1.170   4.145
 6537TIP3    H119575   4.355   1.210   4.081
 6537TIP3    H219576   4.210   1.172   4.104
 6538TIP3   OH219577   1.115   3.434   5.481
 6538TIP3    H119578   1.132   3.347   5.445
 6538TIP3    H219579   1.192   3.452   5.536
 6539TIP3   OH219580   4.333   0.495   5.341
 6539TIP3    H119581   4.257   0.550   5.326
 6539TIP3    H219582   4.327   0.427   5.274
 6540TIP3   OH219583   6.866   3.337   2.555
 6540TIP3    H119584   6.895   3.374   2.638
 6540TIP3    H219585   6.886   3.405   2.490
 6541TIP3   OH219586   6.126   0.218   1.736
 6541TIP3    H119587   6.123   0.185   1.825
 6541TIP3    H219588   6.136   0.313   1.746
 6542TIP3   OH219589   5.639   5.498   1.194
 6542TIP3    H119590   5.600   5.515   1.279
 6542TIP3    H219591   5.694   5.575   1.176
 6543TIP3   OH219592   0.458   3.561   1.349
 6543TIP3    H119593   0.494   3.513   1.424
 6543TIP3    H219594   0.384   3.609   1.384
 6544TIP3   OH219595   1.853   2.566   2.722
 6544TIP3    H119596   1.791   2.638   2.725
 6544TIP3    H219597   1.939   2.608   2.733
 6545TIP3   OH219598   6.517   2.338   2.585
 6545TIP3    H119599   6.565   2.352   2.667
 6545TIP3    H219600   6.583   2.352   2.516
 6546TIP3   OH219601   0.208   4.776   0.157
 6546TIP3    H119602   0.150   4.767   0.082
 6546TIP3    H219603   0.200   4.868   0.183
 6547TIP3   OH219604   6.611   6.490   3.954
 6547TIP3    H119605   6.646   6.458   4.037
 6547TIP3    H219606   6.669   6.454   3.888
 6548TIP3   OH219607   7.185   3.007   5.819
 6548TIP3    H119608   7.115   3.067   5.790
 6548TIP3    H219609   7.176   3.006   5.914
 6549TIP3   OH219610   6.499   0.621   4.451
 6549TIP3    H119611   6.491   0.704   4.497
 6549TIP3    H219612   6.536   0.561   4.515
 6550TIP3   OH219613   0.476   5.262   4.881
 6550TIP3    H119614   0.395   5.284   4.835
 6550TIP3    H219615   0.478   5.167   4.882
 6551TIP3   OH219616   4.417   1.195   0.029
 6551TIP3    H119617   4.348   1.178   0.093
 6551TIP3    H219618   4.398   1.282  -0.005
 6552TIP3   OH219619   5.522   6.726   0.675
 6552TIP3    H119620   5.496   6.717   0.767
 6552TIP3    H219621   5.535   6.820   0.663
 6553TIP3   OH219622   6.416   0.338   4.249
 6553TIP3    H119623   6.335   0.354   4.201
 6553TIP3    H219624   6.390   0.340   4.341
 6554TIP3   OH219625   4.351   4.909   5.661
 6554TIP3    H119626   4.317   4.973   5.598
 6554TIP3    H219627   4.338   4.950   5.746
 6555TIP3   OH219628   4.166   2.601   3.143
 6555TIP3    H119629   4.240   2.553   3.179
 6555TIP3    H219630   4.089   2.560   3.183
 6556TIP3   OH219631   1.939   6.545   2.540
 6556TIP3    H119632   2.013   6.512   2.489
 6556TIP3    H219633   1.906   6.468   2.586
 6557TIP3   OH219634   1.773   4.042   3.202
 6557TIP3    H119635   1.775   4.113   3.137
 6557TIP3    H219636   1.829   4.073   3.273
 6558TIP3   OH219637   3.865   6.301   2.678
 6558TIP3    H119638   3.926   6.264   2.615
 6558TIP3    H219639   3.916   6.309   2.759
 6559TIP3   OH219640   2.977   1.041   2.577
 6559TIP3    H119641   3.040   0.979   2.539
 6559TIP3    H219642   3.024   1.080   2.651
 6560TIP3   OH219643   0.326   2.906   0.655
 6560TIP3    H119644   0.279   2.977   0.611
 6560TIP3    H219645   0.417   2.915   0.626
 6561TIP3   OH219646   2.246   6.397   1.218
 6561TIP3    H119647   2.245   6.491   1.203
 6561TIP3    H219648   2.295   6.385   1.299
 6562TIP3   OH219649   6.350   5.958   2.124
 6562TIP3    H119650   6.417   6.006   2.075
 6562TIP3    H219651   6.398   5.887   2.167
 6563TIP3   OH219652   4.229   5.461   0.980
 6563TIP3    H119653   4.161   5.514   0.937
 6563TIP3    H219654   4.242   5.387   0.921
 6564TIP3   OH219655   2.700   1.273   5.220
 6564TIP3    H119656   2.787   1.261   5.183
 6564TIP3    H219657   2.693   1.205   5.288
 6565TIP3   OH219658   0.121   2.111   1.229
 6565TIP3    H119659   0.115   2.032   1.175
 6565TIP3    H219660   0.215   2.124   1.241
 6566TIP3   OH219661   6.006   0.117   3.676
 6566TIP3    H119662   6.095   0.124   3.642
 6566TIP3    H219663   6.017   0.089   3.767
 6567TIP3   OH219664   4.649   3.965   0.147
 6567TIP3    H119665   4.726   3.929   0.103
 6567TIP3    H219666   4.599   3.887   0.173
 6568TIP3   OH219667   2.488   3.107   0.161
 6568TIP3    H119668   2.393   3.105   0.147
 6568TIP3    H219669   2.498   3.154   0.244
 6569TIP3   OH219670   3.431   0.551   4.366
 6569TIP3    H119671   3.524   0.556   4.347
 6569TIP3    H219672   3.405   0.464   4.337
 6570TIP3   OH219673   2.759   2.116   0.214
 6570TIP3    H119674   2.740   2.124   0.308
 6570TIP3    H219675   2.715   2.035   0.188
 6571TIP3   OH219676   1.007   5.696   3.660
 6571TIP3    H119677   1.046   5.689   3.573
 6571TIP3    H219678   0.961   5.613   3.673
 6572TIP3   OH219679   5.579   3.049   4.794
 6572TIP3    H119680   5.578   3.003   4.879
 6572TIP3    H219681   5.670   3.042   4.765
 6573TIP3   OH219682   2.818   5.118   2.451
 6573TIP3    H119683   2.782   5.205   2.434
 6573TIP3    H219684   2.748   5.058   2.427
 6574TIP3   OH219685   4.995   4.501   2.944
 6574TIP3    H119686   4.937   4.484   3.018
 6574TIP3    H219687   4.959   4.448   2.873
 6575TIP3   OH219688   6.024   6.712   0.575
 6575TIP3    H119689   5.977   6.759   0.506
 6575TIP3    H219690   6.115   6.712   0.546
 6576TIP3   OH219691   5.658   0.779   2.992
 6576TIP3    H119692   5.594   0.826   3.044
 6576TIP3    H219693   5.732   0.838   2.985
 6577TIP3   OH219694   3.833   1.073   3.129
 6577TIP3    H119695   3.842   1.119   3.213
 6577TIP3    H219696   3.911   1.098   3.079
 6578TIP3   OH219697   3.262   1.030   1.643
 6578TIP3    H119698   3.328   1.091   1.609
 6578TIP3    H219699   3.257   0.960   1.578
 6579TIP3   OH219700   5.220   1.997   1.771
 6579TIP3    H119701   5.240   2.021   1.680
 6579TIP3    H219702   5.213   2.080   1.817
 6580TIP3   OH219703   6.585   3.509   0.969
 6580TIP3    H119704   6.674   3.523   1.002
 6580TIP3    H219705   6.558   3.426   1.006
 6581TIP3   OH219706   6.900   1.887   0.965
 6581TIP3    H119707   6.855   1.937   0.897
 6581TIP3    H219708   6.967   1.838   0.918
 6582TIP3   OH219709   6.804   0.021   3.729
 6582TIP3    H119710   6.796   0.025   3.633
 6582TIP3    H219711   6.822   0.111   3.755
 6583TIP3   OH219712   4.199   5.013   0.120
 6583TIP3    H119713   4.237   4.946   0.062
 6583TIP3    H219714   4.130   4.967   0.168
 6584TIP3   OH219715   6.394   3.650   3.201
 6584TIP3    H119716   6.311   3.670   3.157
 6584TIP3    H219717   6.433   3.736   3.217
 6585TIP3   OH219718   0.125   3.539   0.214
 6585TIP3    H119719   0.089   3.586   0.139
 6585TIP3    H219720   0.109   3.597   0.289
 6586TIP3   OH219721   0.300   5.768   0.706
 6586TIP3    H119722   0.343   5.684   0.694
 6586TIP3    H219723   0.212   5.756   0.670
 6587TIP3   OH219724   3.821   1.189   4.673
 6587TIP3    H119725   3.829   1.241   4.752
 6587TIP3    H219726   3.727   1.189   4.653
 6588TIP3   OH219727   1.337   2.938   4.155
 6588TIP3    H119728   1.336   3.033   4.142
 6588TIP3    H219729   1.326   2.927   4.249
 6589TIP3   OH219730   4.876   5.773   4.458
 6589TIP3    H119731   4.808   5.841   4.459
 6589TIP3    H219732   4.840   5.704   4.402
 6590TIP3   OH219733   6.403   1.076   4.348
 6590TIP3    H119734   6.346   1.142   4.310
 6590TIP3    H219735   6.478   1.071   4.289
 6591TIP3   OH219736   0.342   5.924   0.429
 6591TIP3    H119737   0.293   5.928   0.511
 6591TIP3    H219738   0.370   6.014   0.414
 6592TIP3   OH219739   0.530   4.999   5.488
 6592TIP3    H119740   0.486   4.965   5.410
 6592TIP3    H219741   0.464   4.993   5.558
 6593TIP3   OH219742   6.558   5.383   3.535
 6593TIP3    H119743   6.612   5.425   3.601
 6593TIP3    H219744   6.534   5.453   3.475
 6594TIP3   OH219745   2.908   3.555   5.030
 6594TIP3    H119746   2.843   3.501   4.985
 6594TIP3    H219747   2.972   3.576   4.962
 6595TIP3   OH219748   3.349   3.792   4.960
 6595TIP3    H119749   3.272   3.843   4.984
 6595TIP3    H219750   3.423   3.837   5.001
 6596TIP3   OH219751   6.075   4.455   0.618
 6596TIP3    H119752   5.990   4.448   0.662
 6596TIP3    H219753   6.137   4.475   0.688
 6597TIP3   OH219754   5.475   1.433   2.834
 6597TIP3    H119755   5.490   1.483   2.914
 6597TIP3    H219756   5.551   1.452   2.779
 6598TIP3   OH219757   5.545   2.931   0.076
 6598TIP3    H119758   5.471   2.974   0.033
 6598TIP3    H219759   5.506   2.873   0.141
 6599TIP3   OH219760   6.911   1.421   4.173
 6599TIP3    H119761   6.875   1.509   4.161
 6599TIP3    H219762   6.846   1.375   4.225
 6600TIP3   OH219763   0.367   5.535   1.078
 6600TIP3    H119764   0.302   5.466   1.091
 6600TIP3    H219765   0.447   5.488   1.051
 6601TIP3   OH219766   5.454   5.625   1.681
 6601TIP3    H119767   5.486   5.591   1.764
 6601TIP3    H219768   5.366   5.588   1.673
 6602TIP3   OH219769   4.267   4.575   1.822
 6602TIP3    H119770   4.269   4.667   1.849
 6602TIP3    H219771   4.329   4.532   1.881
 6603TIP3   OH219772   0.909   6.702   5.300
 6603TIP3    H119773   0.892   6.618   5.342
 6603TIP3    H219774   0.996   6.727   5.330
 6604TIP3   OH219775   2.580   0.430   4.402
 6604TIP3    H119776   2.598   0.524   4.409
 6604TIP3    H219777   2.584   0.399   4.492
 6605TIP3   OH219778   6.681   4.238   1.985
 6605TIP3    H119779   6.696   4.254   2.078
 6605TIP3    H219780   6.752   4.180   1.958
 6606TIP3   OH219781   2.334   1.892   4.594
 6606TIP3    H119782   2.269   1.844   4.543
 6606TIP3    H219783   2.387   1.824   4.636
 6607TIP3   OH219784   6.821   5.864   4.876
 6607TIP3    H119785   6.835   5.956   4.852
 6607TIP3    H219786   6.893   5.817   4.833
 6608TIP3   OH219787   2.310   0.514   4.996
 6608TIP3    H119788   2.315   0.570   4.919
 6608TIP3    H219789   2.331   0.427   4.964
 6609TIP3   OH219790   3.439   0.739   4.583
 6609TIP3    H119791   3.352   0.759   4.618
 6609TIP3    H219792   3.422   0.690   4.503
 6610TIP3   OH219793   4.294   3.524   0.753
 6610TIP3    H119794   4.256   3.542   0.839
 6610TIP3    H219795   4.366   3.464   0.771
 6611TIP3   OH219796   0.916   3.895   5.410
 6611TIP3    H119797   0.881   3.874   5.497
 6611TIP3    H219798   0.855   3.959   5.374
 6612TIP3   OH219799   1.735   6.630   2.393
 6612TIP3    H119800   1.806   6.602   2.451
 6612TIP3    H219801   1.675   6.678   2.451
 6613TIP3   OH219802   1.777   5.692   4.325
 6613TIP3    H119803   1.728   5.611   4.310
 6613TIP3    H219804   1.718   5.747   4.376
 6614TIP3   OH219805   5.685   4.176   3.364
 6614TIP3    H119806   5.711   4.136   3.447
 6614TIP3    H219807   5.747   4.140   3.300
 6615TIP3   OH219808   3.584   3.924   2.619
 6615TIP3    H119809   3.491   3.944   2.618
 6615TIP3    H219810   3.589   3.831   2.642
 6616TIP3   OH219811   5.560   1.945   0.921
 6616TIP3    H119812   5.486   1.985   0.967
 6616TIP3    H219813   5.633   1.954   0.982
 6617TIP3   OH219814   4.904   1.345   5.113
 6617TIP3    H119815   4.872   1.259   5.084
 6617TIP3    H219816   4.969   1.369   5.047
 6618TIP3   OH219817   6.351   2.541   3.624
 6618TIP3    H119818   6.365   2.464   3.569
 6618TIP3    H219819   6.431   2.593   3.612
 6619TIP3   OH219820   4.578   0.439   2.755
 6619TIP3    H119821   4.497   0.481   2.781
 6619TIP3    H219822   4.550   0.356   2.715
 6620TIP3   OH219823   6.352   3.807   2.828
 6620TIP3    H119824   6.434   3.848   2.857
 6620TIP3    H219825   6.380   3.739   2.767
 6621TIP3   OH219826   1.432   0.997   1.663
 6621TIP3    H119827   1.496   0.999   1.734
 6621TIP3    H219828   1.483   0.976   1.585
 6622TIP3   OH219829   4.900   1.396   3.275
 6622TIP3    H119830   4.899   1.399   3.180
 6622TIP3    H219831   4.978   1.446   3.300
 6623TIP3   OH219832   5.418   1.602   4.613
 6623TIP3    H119833   5.334   1.558   4.625
 6623TIP3    H219834   5.482   1.542   4.649
 6624TIP3   OH219835   4.798   2.698   5.559
 6624TIP3    H119836   4.878   2.735   5.598
 6624TIP3    H219837   4.809   2.710   5.465
 6625TIP3   OH219838   2.053   5.124   4.600
 6625TIP3    H119839   1.982   5.062   4.609
 6625TIP3    H219840   2.066   5.132   4.505
 6626TIP3   OH219841   4.006   5.836   0.567
 6626TIP3    H119842   4.053   5.904   0.518
 6626TIP3    H219843   3.914   5.861   0.559
 6627TIP3   OH219844   6.923   4.622   1.801
 6627TIP3    H119845   6.838   4.595   1.767
 6627TIP3    H219846   6.902   4.682   1.872
 6628TIP3   OH219847   3.102   2.463   1.181
 6628TIP3    H119848   3.041   2.405   1.226
 6628TIP3    H219849   3.098   2.435   1.089
 6629TIP3   OH219850   7.014   6.099   0.570
 6629TIP3    H119851   6.938   6.147   0.602
 6629TIP3    H219852   7.030   6.135   0.482
 6630TIP3   OH219853   0.929   1.029   1.699
 6630TIP3    H119854   1.018   1.008   1.726
 6630TIP3    H219855   0.874   0.973   1.753
 6631TIP3   OH219856  -0.052   5.961   1.245
 6631TIP3    H119857   0.020   6.020   1.220
 6631TIP3    H219858  -0.009   5.890   1.292
 6632TIP3   OH219859   6.072   6.159   1.718
 6632TIP3    H119860   6.096   6.249   1.698
 6632TIP3    H219861   6.068   6.156   1.814
 6633TIP3   OH219862   2.075   0.333   4.993
 6633TIP3    H119863   2.147   0.388   5.022
 6633TIP3    H219864   2.024   0.316   5.072
 6634TIP3   OH219865   2.173   5.103   4.998
 6634TIP3    H119866   2.224   5.135   4.923
 6634TIP3    H219867   2.238   5.061   5.054
 6635TIP3   OH219868   6.829   1.994   2.080
 6635TIP3    H119869   6.910   2.039   2.055
 6635TIP3    H219870   6.835   1.909   2.036
 6636TIP3   OH219871   3.284   3.338   1.985
 6636TIP3    H119872   3.362   3.284   1.996
 6636TIP3    H219873   3.215   3.293   2.034
 6637TIP3   OH219874   0.702   0.743   0.115
 6637TIP3    H119875   0.672   0.678   0.178
 6637TIP3    H219876   0.729   0.692   0.039
 6638TIP3   OH219877   5.369   1.143   5.299
 6638TIP3    H119878   5.402   1.225   5.334
 6638TIP3    H219879   5.432   1.118   5.231
 6639TIP3   OH219880   6.029   4.580   4.741
 6639TIP3    H119881   5.940   4.554   4.719
 6639TIP3    H219882   6.084   4.532   4.679
 6640TIP3   OH219883   5.878   2.361   5.051
 6640TIP3    H119884   5.947   2.426   5.045
 6640TIP3    H219885   5.924   2.277   5.058
 6641TIP3   OH219886   0.689   5.317   5.407
 6641TIP3    H119887   0.690   5.252   5.337
 6641TIP3    H219888   0.623   5.286   5.469
 6642TIP3   OH219889   0.458   4.905   4.332
 6642TIP3    H119890   0.470   4.998   4.309
 6642TIP3    H219891   0.364   4.896   4.348
 6643TIP3   OH219892   5.946   1.915   5.795
 6643TIP3    H119893   5.902   1.853   5.737
 6643TIP3    H219894   5.878   1.979   5.818
 6644TIP3   OH219895   0.577   5.381   3.522
 6644TIP3    H119896   0.583   5.351   3.432
 6644TIP3    H219897   0.501   5.334   3.558
 6645TIP3   OH219898   1.986   0.641   3.917
 6645TIP3    H119899   2.000   0.564   3.862
 6645TIP3    H219900   2.023   0.618   4.002
 6646TIP3   OH219901   6.830   1.511   2.971
 6646TIP3    H119902   6.862   1.451   2.903
 6646TIP3    H219903   6.836   1.461   3.052
 6647TIP3   OH219904   1.709   5.064   5.001
 6647TIP3    H119905   1.645   5.039   5.067
 6647TIP3    H219906   1.670   5.139   4.957
 6648TIP3   OH219907   6.448   3.483   3.857
 6648TIP3    H119908   6.509   3.412   3.880
 6648TIP3    H219909   6.456   3.545   3.930
 6649TIP3   OH219910   3.322   2.356   3.156
 6649TIP3    H119911   3.389   2.296   3.191
 6649TIP3    H219912   3.287   2.311   3.079
 6650TIP3   OH219913   0.863   2.950   0.203
 6650TIP3    H119914   0.769   2.969   0.208
 6650TIP3    H219915   0.905   3.031   0.231
 6651TIP3   OH219916   6.466   1.831   2.302
 6651TIP3    H119917   6.527   1.889   2.257
 6651TIP3    H219918   6.503   1.820   2.390
 6652TIP3   OH219919   4.084   6.754   1.988
 6652TIP3    H119920   4.169   6.739   2.031
 6652TIP3    H219921   4.107   6.785   1.900
 6653TIP3   OH219922   4.010   4.365   4.833
 6653TIP3    H119923   4.002   4.447   4.883
 6653TIP3    H219924   4.023   4.394   4.743
 6654TIP3   OH219925   1.820   1.098   3.274
 6654TIP3    H119926   1.733   1.113   3.238
 6654TIP3    H219927   1.809   1.110   3.369
 6655TIP3   OH219928   4.904   6.087   3.610
 6655TIP3    H119929   4.923   6.019   3.545
 6655TIP3    H219930   4.846   6.044   3.673
 6656TIP3   OH219931   3.334   4.904   0.144
 6656TIP3    H119932   3.413   4.921   0.092
 6656TIP3    H219933   3.298   4.823   0.107
 6657TIP3   OH219934   0.828   4.159   0.642
 6657TIP3    H119935   0.767   4.201   0.582
 6657TIP3    H219936   0.902   4.132   0.587
 6658TIP3   OH219937   4.945   2.421   1.239
 6658TIP3    H119938   5.011   2.383   1.297
 6658TIP3    H219939   4.951   2.516   1.256
 6659TIP3   OH219940   4.285   5.228   0.842
 6659TIP3    H119941   4.326   5.200   0.761
 6659TIP3    H219942   4.248   5.148   0.880
 6660TIP3   OH219943   1.643   0.286   3.885
 6660TIP3    H119944   1.557   0.287   3.927
 6660TIP3    H219945   1.643   0.365   3.830
 6661TIP3   OH219946   2.439   0.715   5.199
 6661TIP3    H119947   2.473   0.691   5.285
 6661TIP3    H219948   2.422   0.632   5.155
 6662TIP3   OH219949   1.366   3.174   1.994
 6662TIP3    H119950   1.375   3.237   2.065
 6662TIP3    H219951   1.277   3.139   2.004
 6663TIP3   OH219952   6.091   6.625   1.051
 6663TIP3    H119953   6.125   6.711   1.078
 6663TIP3    H219954   6.158   6.563   1.081
 6664TIP3   OH219955   0.361   1.779   0.373
 6664TIP3    H119956   0.411   1.703   0.402
 6664TIP3    H219957   0.421   1.853   0.382
 6665TIP3   OH219958   4.749   0.134   4.845
 6665TIP3    H119959   4.785   0.215   4.808
 6665TIP3    H219960   4.790   0.064   4.794
 6666TIP3   OH219961   2.895   2.646   2.065
 6666TIP3    H119962   2.814   2.594   2.062
 6666TIP3    H219963   2.881   2.708   2.136
 6667TIP3   OH219964   1.219   5.445   1.279
 6667TIP3    H119965   1.218   5.539   1.295
 6667TIP3    H219966   1.305   5.416   1.310
 6668TIP3   OH219967   4.331   4.679   3.197
 6668TIP3    H119968   4.401   4.731   3.158
 6668TIP3    H219969   4.252   4.731   3.181
 6669TIP3   OH219970   3.404   4.456   1.671
 6669TIP3    H119971   3.368   4.387   1.726
 6669TIP3    H219972   3.328   4.498   1.631
 6670TIP3   OH219973   2.983   3.580   0.977
 6670TIP3    H119974   2.984   3.590   1.072
 6670TIP3    H219975   3.071   3.605   0.948
 6671TIP3   OH219976   1.086   1.811   1.018
 6671TIP3    H119977   1.027   1.797   0.944
 6671TIP3    H219978   1.170   1.778   0.988
 6672TIP3   OH219979   6.242   5.050   0.799
 6672TIP3    H119980   6.199   5.051   0.713
 6672TIP3    H219981   6.176   5.084   0.859
 6673TIP3   OH219982   5.194   2.164   5.620
 6673TIP3    H119983   5.257   2.097   5.647
 6673TIP3    H219984   5.150   2.189   5.702
 6674TIP3   OH219985   0.707   4.886   5.685
 6674TIP3    H119986   0.679   4.867   5.595
 6674TIP3    H219987   0.667   4.972   5.704
 6675TIP3   OH219988   4.213   5.978   4.720
 6675TIP3    H119989   4.256   6.055   4.758
 6675TIP3    H219990   4.264   5.904   4.755
 6676TIP3   OH219991   2.790   1.840   3.193
 6676TIP3    H119992   2.851   1.850   3.266
 6676TIP3    H219993   2.704   1.831   3.234
 6677TIP3   OH219994   6.106   6.657   5.526
 6677TIP3    H119995   6.094   6.568   5.560
 6677TIP3    H219996   6.200   6.663   5.509
 6678TIP3   OH219997   1.196   0.374   3.302
 6678TIP3    H119998   1.174   0.462   3.271
 6678TIP3    H219999   1.129   0.317   3.263
 6679TIP3   OH220000   4.773   5.869   2.967
 6679TIP3    H120001   4.682   5.864   2.937
 6679TIP3    H220002   4.821   5.812   2.907
 6680TIP3   OH220003   6.528   5.012   0.144
 6680TIP3    H120004   6.566   4.958   0.214
 6680TIP3    H220005   6.458   5.061   0.187
 6681TIP3   OH220006   6.258   2.716   5.645
 6681TIP3    H120007   6.183   2.712   5.704
 6681TIP3    H220008   6.235   2.784   5.582
 6682TIP3   OH220009   4.175   0.931   3.244
 6682TIP3    H120010   4.209   1.001   3.187
 6682TIP3    H220011   4.109   0.975   3.298
 6683TIP3   OH220012   2.011   5.519   4.377
 6683TIP3    H120013   1.920   5.527   4.351
 6683TIP3    H220014   2.040   5.609   4.394
 6684TIP3   OH220015   2.612   3.850   3.204
 6684TIP3    H120016   2.678   3.899   3.154
 6684TIP3    H220017   2.650   3.763   3.213
 6685TIP3   OH220018   3.009   4.802   4.291
 6685TIP3    H120019   2.979   4.875   4.345
 6685TIP3    H220020   3.037   4.842   4.209
 6686TIP3   OH220021   6.625   0.024   4.151
 6686TIP3    H120022   6.651  -0.023   4.072
 6686TIP3    H220023   6.665   0.110   4.142
 6687TIP3   OH220024   0.048   2.143   3.949
 6687TIP3    H120025   0.087   2.092   4.020
 6687TIP3    H220026   0.063   2.090   3.871
 6688TIP3   OH220027   3.256   6.486   2.543
 6688TIP3    H120028   3.220   6.575   2.537
 6688TIP3    H220029   3.335   6.496   2.597
 6689TIP3   OH220030   4.872   4.370   2.713
 6689TIP3    H120031   4.876   4.276   2.730
 6689TIP3    H220032   4.781   4.387   2.688
 6690TIP3   OH220033   3.331   2.775   3.637
 6690TIP3    H120034   3.249   2.810   3.672
 6690TIP3    H220035   3.303   2.714   3.569
 6691TIP3   OH220036   5.754   6.250   0.892
 6691TIP3    H120037   5.796   6.306   0.957
 6691TIP3    H220038   5.810   6.255   0.815
 6692TIP3   OH220039   3.351   1.870   2.154
 6692TIP3    H120040   3.390   1.826   2.078
 6692TIP3    H220041   3.397   1.954   2.158
 6693TIP3   OH220042   6.999   6.478   2.397
 6693TIP3    H120043   6.978   6.384   2.397
 6693TIP3    H220044   6.966   6.510   2.313
 6694TIP3   OH220045   3.334   1.097   1.932
 6694TIP3    H120046   3.314   1.003   1.924
 6694TIP3    H220047   3.338   1.128   1.841
 6695TIP3   OH220048   6.636   3.688   3.065
 6695TIP3    H120049   6.682   3.679   3.148
 6695TIP3    H220050   6.560   3.630   3.073
 6696TIP3   OH220051   5.244   4.120   0.410
 6696TIP3    H120052   5.185   4.062   0.362
 6696TIP3    H220053   5.316   4.064   0.437
 6697TIP3   OH220054   2.912   5.057   4.108
 6697TIP3    H120055   2.842   5.044   4.173
 6697TIP3    H220056   2.872   5.109   4.039
 6698TIP3   OH220057   5.326   3.001   4.616
 6698TIP3    H120058   5.419   3.006   4.638
 6698TIP3    H220059   5.288   2.945   4.683
 6699TIP3   OH220060   5.470   5.979   2.065
 6699TIP3    H120061   5.432   5.981   1.978
 6699TIP3    H220062   5.429   5.904   2.108
 6700TIP3   OH220063   0.125   5.370   4.906
 6700TIP3    H120064   0.115   5.354   4.812
 6700TIP3    H220065   0.107   5.463   4.918
 6701TIP3   OH220066   2.788   6.044   5.639
 6701TIP3    H120067   2.784   6.014   5.548
 6701TIP3    H220068   2.729   5.985   5.686
 6702TIP3   OH220069   3.052   4.188   1.996
 6702TIP3    H120070   3.065   4.269   2.045
 6702TIP3    H220071   3.040   4.121   2.063
 6703TIP3   OH220072   3.630   4.229   0.934
 6703TIP3    H120073   3.654   4.215   1.026
 6703TIP3    H220074   3.534   4.235   0.935
 6704TIP3   OH220075   6.516   5.443   1.947
 6704TIP3    H120076   6.435   5.484   1.978
 6704TIP3    H220077   6.585   5.481   2.002
 6705TIP3   OH220078   1.115   3.352   3.049
 6705TIP3    H120079   1.173   3.408   3.100
 6705TIP3    H220080   1.171   3.315   2.981
 6706TIP3   OH220081   5.969   1.509   2.930
 6706TIP3    H120082   6.018   1.589   2.945
 6706TIP3    H220083   5.965   1.466   3.016
 6707TIP3   OH220084   1.550   2.463   3.191
 6707TIP3    H120085   1.624   2.514   3.156
 6707TIP3    H220086   1.552   2.381   3.141
 6708TIP3   OH220087   3.546   0.823   2.533
 6708TIP3    H120088   3.592   0.880   2.471
 6708TIP3    H220089   3.550   0.736   2.493
 6709TIP3   OH220090   7.112   4.412   3.867
 6709TIP3    H120091   7.088   4.396   3.958
 6709TIP3    H220092   7.201   4.377   3.859
 6710TIP3   OH220093   0.566   3.557  -0.024
 6710TIP3    H120094   0.488   3.501  -0.021
 6710TIP3    H220095   0.589   3.572   0.067
 6711TIP3   OH220096   3.553   3.872   0.478
 6711TIP3    H120097   3.564   3.840   0.388
 6711TIP3    H220098   3.641   3.902   0.503
 6712TIP3   OH220099   6.035   2.007   1.782
 6712TIP3    H120100   6.082   1.934   1.742
 6712TIP3    H220101   5.973   1.965   1.843
 6713TIP3   OH220102   5.175   0.303   5.155
 6713TIP3    H120103   5.256   0.253   5.166
 6713TIP3    H220104   5.170   0.359   5.232
 6714TIP3   OH220105   0.712   0.294   3.271
 6714TIP3    H120106   0.736   0.340   3.191
 6714TIP3    H220107   0.744   0.349   3.342
 6715TIP3   OH220108   3.242   3.665   1.752
 6715TIP3    H120109   3.334   3.663   1.775
 6715TIP3    H220110   3.229   3.586   1.699
 6716TIP3   OH220111   5.529   2.541   4.284
 6716TIP3    H120112   5.507   2.631   4.304
 6716TIP3    H220113   5.447   2.501   4.254
 6717TIP3   OH220114   1.225   1.170   1.649
 6717TIP3    H120115   1.285   1.099   1.627
 6717TIP3    H220116   1.271   1.220   1.716
 6718TIP3   OH220117   2.232   4.097   5.283
 6718TIP3    H120118   2.211   4.009   5.250
 6718TIP3    H220119   2.294   4.082   5.354
 6719TIP3   OH220120   2.008   0.474   5.584
 6719TIP3    H120121   1.945   0.421   5.633
 6719TIP3    H220122   2.091   0.460   5.629
 6720TIP3   OH220123   4.092   5.879   2.853
 6720TIP3    H120124   4.168   5.825   2.832
 6720TIP3    H220125   4.112   5.964   2.813
 6721TIP3   OH220126   4.530   3.680   0.075
 6721TIP3    H120127   4.547   3.605   0.131
 6721TIP3    H220128   4.448   3.717   0.110
 6722TIP3   OH220129   2.445   5.447   5.865
 6722TIP3    H120130   2.402   5.488   5.789
 6722TIP3    H220131   2.383   5.460   5.937
 6723TIP3   OH220132   0.504   0.696   4.868
 6723TIP3    H120133   0.427   0.707   4.811
 6723TIP3    H220134   0.544   0.783   4.870
 6724TIP3   OH220135   2.757   0.628   0.978
 6724TIP3    H120136   2.735   0.592   1.064
 6724TIP3    H220137   2.838   0.677   0.992
 6725TIP3   OH220138   4.604   6.714   0.845
 6725TIP3    H120139   4.621   6.695   0.937
 6725TIP3    H220140   4.688   6.742   0.810
 6726TIP3   OH220141   1.409   5.944   2.879
 6726TIP3    H120142   1.429   5.861   2.836
 6726TIP3    H220143   1.488   5.996   2.868
 6727TIP3   OH220144   2.247   3.281   0.565
 6727TIP3    H120145   2.259   3.321   0.479
 6727TIP3    H220146   2.220   3.354   0.622
 6728TIP3   OH220147   1.224   5.874   1.866
 6728TIP3    H120148   1.212   5.782   1.890
 6728TIP3    H220149   1.317   5.891   1.881
 6729TIP3   OH220150   6.476   2.191   4.912
 6729TIP3    H120151   6.446   2.240   4.835
 6729TIP3    H220152   6.512   2.258   4.970
 6730TIP3   OH220153   2.672   4.624   2.384
 6730TIP3    H120154   2.640   4.579   2.462
 6730TIP3    H220155   2.634   4.576   2.311
 6731TIP3   OH220156   2.547   2.343   2.561
 6731TIP3    H120157   2.475   2.286   2.532
 6731TIP3    H220158   2.582   2.381   2.480
 6732TIP3   OH220159   5.526   0.938   5.597
 6732TIP3    H120160   5.544   1.029   5.620
 6732TIP3    H220161   5.445   0.917   5.644
 6733TIP3   OH220162   6.735   2.016   0.790
 6733TIP3    H120163   6.785   2.095   0.769
 6733TIP3    H220164   6.697   1.989   0.706
 6734TIP3   OH220165   6.244   5.323   3.448
 6734TIP3    H120166   6.161   5.335   3.493
 6734TIP3    H220167   6.289   5.255   3.498
 6735TIP3   OH220168   0.871   2.795   0.715
 6735TIP3    H120169   0.875   2.797   0.619
 6735TIP3    H220170   0.908   2.880   0.742
 6736TIP3   OH220171   2.203   6.035   3.871
 6736TIP3    H120172   2.184   5.942   3.885
 6736TIP3    H220173   2.217   6.071   3.959
 6737TIP3   OH220174   3.562   0.038   1.909
 6737TIP3    H120175   3.616   0.018   1.985
 6737TIP3    H220176   3.497  -0.032   1.907
 6738TIP3   OH220177   2.508   0.577   3.765
 6738TIP3    H120178   2.424   0.621   3.772
 6738TIP3    H220179   2.500   0.522   3.687
 6739TIP3   OH220180   2.481   5.774   4.314
 6739TIP3    H120181   2.474   5.869   4.309
 6739TIP3    H220182   2.571   5.758   4.343
 6740TIP3   OH220183   5.083   2.821   1.133
 6740TIP3    H120184   5.118   2.768   1.061
 6740TIP3    H220185   5.100   2.768   1.212
 6741TIP3   OH220186   2.578   6.451   0.541
 6741TIP3    H120187   2.638   6.438   0.615
 6741TIP3    H220188   2.491   6.449   0.581
 6742TIP3   OH220189   3.423   2.473   5.559
 6742TIP3    H120190   3.503   2.441   5.599
 6742TIP3    H220191   3.425   2.437   5.470
 6743TIP3   OH220192   4.777   0.103  -0.003
 6743TIP3    H120193   4.838   0.030  -0.016
 6743TIP3    H220194   4.823   0.164   0.055
 6744TIP3   OH220195   0.895   5.666   1.825
 6744TIP3    H120196   0.912   5.667   1.731
 6744TIP3    H220197   0.911   5.576   1.852
 6745TIP3   OH220198   3.325   5.694   1.353
 6745TIP3    H120199   3.384   5.767   1.332
 6745TIP3    H220200   3.305   5.655   1.268
 6746TIP3   OH220201   5.259   4.747   4.625
 6746TIP3    H120202   5.351   4.762   4.650
 6746TIP3    H220203   5.209   4.800   4.687
 6747TIP3   OH220204   3.669   6.513   0.938
 6747TIP3    H120205   3.753   6.468   0.944
 6747TIP3    H220206   3.625   6.471   0.865
 6748TIP3   OH220207   0.953   1.046   3.213
 6748TIP3    H120208   0.891   1.112   3.184
 6748TIP3    H220209   0.982   1.003   3.133
 6749TIP3   OH220210   6.617   0.570   1.991
 6749TIP3    H120211   6.653   0.640   1.935
 6749TIP3    H220212   6.657   0.585   2.077
 6750TIP3   OH220213   1.149   3.193   3.668
 6750TIP3    H120214   1.213   3.216   3.735
 6750TIP3    H220215   1.118   3.106   3.694
 6751TIP3   OH220216   2.918   2.743   3.247
 6751TIP3    H120217   2.934   2.833   3.217
 6751TIP3    H220218   2.827   2.726   3.224
 6752TIP3   OH220219   1.368   1.762   1.736
 6752TIP3    H120220   1.318   1.796   1.811
 6752TIP3    H220221   1.402   1.678   1.767
 6753TIP3   OH220222   7.030   3.873   3.448
 6753TIP3    H120223   7.025   3.965   3.473
 6753TIP3    H220224   6.941   3.840   3.460
 6754TIP3   OH220225   0.241   4.955   2.824
 6754TIP3    H120226   0.299   4.932   2.896
 6754TIP3    H220227   0.300   4.973   2.751
 6755TIP3   OH220228   3.855   6.568   2.540
 6755TIP3    H120229   3.776   6.584   2.592
 6755TIP3    H220230   3.888   6.484   2.571
 6756TIP3   OH220231   3.950   5.898   2.234
 6756TIP3    H120232   3.921   5.964   2.297
 6756TIP3    H220233   3.873   5.879   2.181
 6757TIP3   OH220234   0.582   5.600   5.447
 6757TIP3    H120235   0.624   5.514   5.450
 6757TIP3    H220236   0.625   5.645   5.374
 6758TIP3   OH220237   3.460   3.833   3.753
 6758TIP3    H120238   3.456   3.881   3.671
 6758TIP3    H220239   3.389   3.868   3.806
 6759TIP3   OH220240   3.076   0.484   3.623
 6759TIP3    H120241   3.087   0.479   3.528
 6759TIP3    H220242   3.085   0.393   3.653
 6760TIP3   OH220243   2.157   3.946   2.102
 6760TIP3    H120244   2.111   3.940   2.019
 6760TIP3    H220245   2.219   3.873   2.100
 6761TIP3   OH220246   6.462   5.904   3.479
 6761TIP3    H120247   6.480   5.998   3.475
 6761TIP3    H220248   6.447   5.886   3.572
 6762TIP3   OH220249   2.057   2.402   3.501
 6762TIP3    H120250   2.061   2.472   3.435
 6762TIP3    H220251   1.967   2.369   3.495
 6763TIP3   OH220252   1.738   4.777   4.922
 6763TIP3    H120253   1.798   4.849   4.905
 6763TIP3    H220254   1.732   4.773   5.018
 6764TIP3   OH220255   1.021   4.424   1.009
 6764TIP3    H120256   0.932   4.458   1.002
 6764TIP3    H220257   1.037   4.379   0.927
 6765TIP3   OH220258   5.901   1.456   3.643
 6765TIP3    H120259   5.871   1.385   3.700
 6765TIP3    H220260   5.948   1.515   3.701
 6766TIP3   OH220261   6.819   2.948   1.070
 6766TIP3    H120262   6.779   3.031   1.044
 6766TIP3    H220263   6.838   2.959   1.163
 6767TIP3   OH220264   4.757   2.613   1.854
 6767TIP3    H120265   4.778   2.706   1.848
 6767TIP3    H220266   4.670   2.611   1.895
 6768TIP3   OH220267   4.526   3.771   4.822
 6768TIP3    H120268   4.525   3.683   4.783
 6768TIP3    H220269   4.489   3.828   4.755
 6769TIP3   OH220270   3.296   6.195   2.166
 6769TIP3    H120271   3.383   6.220   2.197
 6769TIP3    H220272   3.312   6.124   2.104
 6770TIP3   OH220273   1.503   3.007   3.811
 6770TIP3    H120274   1.538   3.008   3.722
 6770TIP3    H220275   1.541   2.929   3.851
 6771TIP3   OH220276   5.246   5.268   4.430
 6771TIP3    H120277   5.205   5.274   4.516
 6771TIP3    H220278   5.282   5.179   4.427
 6772TIP3   OH220279   2.275   4.769   1.369
 6772TIP3    H120280   2.187   4.790   1.337
 6772TIP3    H220281   2.294   4.839   1.431
 6773TIP3   OH220282   4.218   0.727   3.000
 6773TIP3    H120283   4.234   0.815   2.965
 6773TIP3    H220284   4.134   0.734   3.045
 6774TIP3   OH220285   2.322   4.085   0.498
 6774TIP3    H120286   2.408   4.095   0.539
 6774TIP3    H220287   2.293   3.998   0.525
 6775TIP3   OH220288   5.597   0.151   1.727
 6775TIP3    H120289   5.660   0.222   1.729
 6775TIP3    H220290   5.647   0.075   1.698
 6776TIP3   OH220291   6.413   0.903   5.770
 6776TIP3    H120292   6.372   0.845   5.705
 6776TIP3    H220293   6.380   0.990   5.749
 6777TIP3   OH220294   1.523   3.581   5.122
 6777TIP3    H120295   1.574   3.650   5.081
 6777TIP3    H220296   1.440   3.581   5.074
 6778TIP3   OH220297   0.369   2.238   0.383
 6778TIP3    H120298   0.440   2.174   0.372
 6778TIP3    H220299   0.289   2.187   0.367
 6779TIP3   OH220300   3.111   3.756   3.775
 6779TIP3    H120301   3.022   3.726   3.795
 6779TIP3    H220302   3.163   3.727   3.850
 6780TIP3   OH220303   1.421   1.128   5.677
 6780TIP3    H120304   1.382   1.056   5.727
 6780TIP3    H220305   1.433   1.091   5.589
 6781TIP3   OH220306   0.545   1.891   3.568
 6781TIP3    H120307   0.573   1.800   3.582
 6781TIP3    H220308   0.476   1.886   3.502
 6782TIP3   OH220309   3.206   0.160   4.733
 6782TIP3    H120310   3.267   0.158   4.807
 6782TIP3    H220311   3.252   0.209   4.665
 6783TIP3   OH220312   1.067   6.766   5.663
 6783TIP3    H120313   0.985   6.725   5.637
 6783TIP3    H220314   1.135   6.720   5.614
 6784TIP3   OH220315   7.117   2.856   2.463
 6784TIP3    H120316   7.052   2.812   2.518
 6784TIP3    H220317   7.156   2.922   2.521
 6785TIP3   OH220318   3.919   5.115   0.694
 6785TIP3    H120319   3.996   5.070   0.729
 6785TIP3    H220320   3.936   5.208   0.710
 6786TIP3   OH220321   6.468   3.085   3.462
 6786TIP3    H120322   6.513   3.001   3.454
 6786TIP3    H220323   6.538   3.150   3.457
 6787TIP3   OH220324   0.550   2.855   4.296
 6787TIP3    H120325   0.537   2.949   4.285
 6787TIP3    H220326   0.636   2.838   4.257
 6788TIP3   OH220327   2.361   2.475   3.424
 6788TIP3    H120328   2.418   2.552   3.427
 6788TIP3    H220329   2.396   2.417   3.492
 6789TIP3   OH220330   6.673   4.146   0.318
 6789TIP3    H120331   6.749   4.165   0.373
 6789TIP3    H220332   6.692   4.062   0.278
 6790TIP3   OH220333   4.987   6.410   0.072
 6790TIP3    H120334   5.021   6.387  -0.015
 6790TIP3    H220335   5.040   6.485   0.099
 6791TIP3   OH220336   5.485   3.783   4.873
 6791TIP3    H120337   5.469   3.689   4.873
 6791TIP3    H220338   5.580   3.792   4.879
 6792TIP3   OH220339   6.157   5.629   2.865
 6792TIP3    H120340   6.158   5.620   2.770
 6792TIP3    H220341   6.245   5.603   2.893
 6793TIP3   OH220342   4.732   0.655   1.252
 6793TIP3    H120343   4.774   0.672   1.336
 6793TIP3    H220344   4.639   0.648   1.273
 6794TIP3   OH220345   2.302   4.405   0.575
 6794TIP3    H120346   2.220   4.370   0.541
 6794TIP3    H220347   2.336   4.459   0.504
 6795TIP3   OH220348   2.953   6.203   2.957
 6795TIP3    H120349   2.877   6.166   2.911
 6795TIP3    H220350   3.021   6.208   2.891
 6796TIP3   OH220351   6.964   0.275   1.272
 6796TIP3    H120352   7.023   0.206   1.242
 6796TIP3    H220353   6.949   0.328   1.194
 6797TIP3   OH220354   3.327   3.388   3.691
 6797TIP3    H120355   3.377   3.325   3.638
 6797TIP3    H220356   3.391   3.457   3.710
 6798TIP3   OH220357   7.224   5.372   3.765
 6798TIP3    H120358   7.186   5.309   3.703
 6798TIP3    H220359   7.155   5.438   3.777
 6799TIP3   OH220360   6.466   2.336   4.686
 6799TIP3    H120361   6.487   2.404   4.622
 6799TIP3    H220362   6.391   2.290   4.649
 6800TIP3   OH220363   0.645   4.189   5.775
 6800TIP3    H120364   0.733   4.164   5.805
 6800TIP3    H220365   0.598   4.106   5.768
 6801TIP3   OH220366   4.975   6.519   2.436
 6801TIP3    H120367   5.042   6.538   2.370
 6801TIP3    H220368   5.023   6.508   2.518
 6802TIP3   OH220369   6.429   6.164   4.822
 6802TIP3    H120370   6.432   6.245   4.873
 6802TIP3    H220371   6.519   6.153   4.790
 6803TIP3   OH220372   1.034   6.050   3.002
 6803TIP3    H120373   1.071   6.007   3.079
 6803TIP3    H220374   1.103   6.111   2.973
 6804TIP3   OH220375   6.993   1.096   5.086
 6804TIP3    H120376   6.897   1.091   5.087
 6804TIP3    H220377   7.013   1.189   5.083
 6805TIP3   OH220378   5.117   5.493   2.966
 6805TIP3    H120379   5.168   5.413   2.979
 6805TIP3    H220380   5.180   5.564   2.978
 6806TIP3   OH220381   2.533   2.941   2.357
 6806TIP3    H120382   2.440   2.918   2.366
 6806TIP3    H220383   2.535   3.035   2.375
 6807TIP3   OH220384   4.812   4.692   0.185
 6807TIP3    H120385   4.727   4.732   0.204
 6807TIP3    H220386   4.819   4.697   0.089
 6808TIP3   OH220387   7.129   2.522   1.051
 6808TIP3    H120388   7.086   2.600   1.085
 6808TIP3    H220389   7.184   2.553   0.980
 6809TIP3   OH220390   0.583   0.864   3.462
 6809TIP3    H120391   0.579   0.867   3.558
 6809TIP3    H220392   0.658   0.808   3.442
 6810TIP3   OH220393   5.975   0.573   5.280
 6810TIP3    H120394   5.892   0.597   5.238
 6810TIP3    H220395   6.025   0.531   5.210
 6811TIP3   OH220396   1.889   1.749   1.979
 6811TIP3    H120397   1.927   1.677   1.930
 6811TIP3    H220398   1.898   1.723   2.071
 6812TIP3   OH220399   0.663   0.823   4.100
 6812TIP3    H120400   0.658   0.862   4.013
 6812TIP3    H220401   0.575   0.834   4.137
 6813TIP3   OH220402   2.010   4.832   1.815
 6813TIP3    H120403   1.917   4.814   1.803
 6813TIP3    H220404   2.018   4.858   1.907
 6814TIP3   OH220405   5.046  -0.025   2.608
 6814TIP3    H120406   4.989   0.005   2.538
 6814TIP3    H220407   5.131   0.013   2.588
 6815TIP3   OH220408   4.716   1.053   1.114
 6815TIP3    H120409   4.769   1.066   1.193
 6815TIP3    H220410   4.627   1.038   1.148
 6816TIP3   OH220411   5.136   0.462   5.417
 6816TIP3    H120412   5.075   0.474   5.489
 6816TIP3    H220413   5.223   0.472   5.458
 6817TIP3   OH220414   6.865   0.996   4.252
 6817TIP3    H120415   6.845   0.904   4.237
 6817TIP3    H220416   6.789   1.043   4.219
 6818TIP3   OH220417   4.586   2.358   1.314
 6818TIP3    H120418   4.564   2.280   1.364
 6818TIP3    H220419   4.592   2.428   1.379
 6819TIP3   OH220420   4.118   4.394   0.857
 6819TIP3    H120421   4.103   4.300   0.870
 6819TIP3    H220422   4.040   4.436   0.894
 6820TIP3   OH220423   6.170   4.646   2.618
 6820TIP3    H120424   6.242   4.594   2.583
 6820TIP3    H220425   6.107   4.582   2.651
 6821TIP3   OH220426   5.603   2.977   4.390
 6821TIP3    H120427   5.628   3.055   4.440
 6821TIP3    H220428   5.668   2.970   4.321
 6822TIP3   OH220429   4.714   3.326   5.790
 6822TIP3    H120430   4.742   3.399   5.734
 6822TIP3    H220431   4.793   3.297   5.834
 6823TIP3   OH220432   2.502   5.839   1.820
 6823TIP3    H120433   2.507   5.914   1.761
 6823TIP3    H220434   2.564   5.858   1.890
 6824TIP3   OH220435   6.765   0.758   4.137
 6824TIP3    H120436   6.698   0.702   4.177
 6824TIP3    H220437   6.719   0.807   4.069
 6825TIP3   OH220438   2.659   3.035   1.100
 6825TIP3    H120439   2.661   2.959   1.158
 6825TIP3    H220440   2.729   3.018   1.037
 6826TIP3   OH220441   6.102   5.943   3.057
 6826TIP3    H120442   6.175   5.884   3.073
 6826TIP3    H220443   6.041   5.926   3.130
 6827TIP3   OH220444   2.925   0.183   1.686
 6827TIP3    H120445   2.988   0.114   1.705
 6827TIP3    H220446   2.852   0.167   1.745
 6828TIP3   OH220447   6.288   2.160   5.409
 6828TIP3    H120448   6.237   2.152   5.328
 6828TIP3    H220449   6.238   2.111   5.474
 6829TIP3   OH220450   7.048   4.153   0.972
 6829TIP3    H120451   7.113   4.138   1.041
 6829TIP3    H220452   7.047   4.071   0.922
 6830TIP3   OH220453   4.089   5.267   4.332
 6830TIP3    H120454   4.109   5.191   4.278
 6830TIP3    H220455   4.067   5.336   4.270
 6831TIP3   OH220456   1.632   2.743   3.133
 6831TIP3    H120457   1.633   2.740   3.037
 6831TIP3    H220458   1.561   2.804   3.155
 6832TIP3   OH220459   0.949   2.781   0.991
 6832TIP3    H120460   0.920   2.689   0.990
 6832TIP3    H220461   0.938   2.810   0.901
 6833TIP3   OH220462   4.502   0.310   4.726
 6833TIP3    H120463   4.583   0.284   4.683
 6833TIP3    H220464   4.526   0.386   4.780
 6834TIP3   OH220465   7.015   4.804   5.827
 6834TIP3    H120466   6.995   4.813   5.734
 6834TIP3    H220467   6.947   4.854   5.872
 6835TIP3   OH220468   6.868   5.899   4.584
 6835TIP3    H120469   6.851   5.979   4.534
 6835TIP3    H220470   6.912   5.929   4.663
 6836TIP3   OH220471   3.336   5.782   5.304
 6836TIP3    H120472   3.389   5.748   5.231
 6836TIP3    H220473   3.248   5.793   5.266
 6837TIP3   OH220474   0.876   6.580   5.636
 6837TIP3    H120475   0.868   6.493   5.595
 6837TIP3    H220476   0.796   6.625   5.612
 6838TIP3   OH220477   2.699   2.646   1.521
 6838TIP3    H120478   2.653   2.629   1.438
 6838TIP3    H220479   2.638   2.618   1.589
 6839TIP3   OH220480   0.615   3.911   0.555
 6839TIP3    H120481   0.689   3.894   0.498
 6839TIP3    H220482   0.592   4.003   0.539
 6840TIP3   OH220483   0.667   2.286   5.340
 6840TIP3    H120484   0.665   2.380   5.356
 6840TIP3    H220485   0.759   2.261   5.352
 6841TIP3   OH220486   4.499   5.961   4.965
 6841TIP3    H120487   4.495   6.053   4.940
 6841TIP3    H220488   4.546   5.919   4.892
 6842TIP3   OH220489   2.721   4.518   1.998
 6842TIP3    H120490   2.660   4.518   2.072
 6842TIP3    H220491   2.706   4.602   1.954
 6843TIP3   OH220492   1.632   0.434   5.321
 6843TIP3    H120493   1.715   0.389   5.338
 6843TIP3    H220494   1.626   0.500   5.390
 6844TIP3   OH220495   3.252   2.800   5.068
 6844TIP3    H120496   3.239   2.816   5.161
 6844TIP3    H220497   3.163   2.795   5.032
 6845TIP3   OH220498   6.790   6.553   1.033
 6845TIP3    H120499   6.735   6.592   1.102
 6845TIP3    H220500   6.879   6.564   1.064
 6846TIP3   OH220501   0.171   1.764   1.500
 6846TIP3    H120502   0.111   1.765   1.425
 6846TIP3    H220503   0.187   1.671   1.516
 6847TIP3   OH220504   6.584   4.168   1.026
 6847TIP3    H120505   6.658   4.185   1.084
 6847TIP3    H220506   6.623   4.141   0.943
 6848TIP3   OH220507   5.892   4.068   1.239
 6848TIP3    H120508   5.887   3.988   1.188
 6848TIP3    H220509   5.971   4.059   1.291
 6849TIP3   OH220510   5.222   1.384   3.124
 6849TIP3    H120511   5.296   1.327   3.101
 6849TIP3    H220512   5.263   1.460   3.164
 6850TIP3   OH220513   5.139   5.090   4.028
 6850TIP3    H120514   5.129   5.005   4.072
 6850TIP3    H220515   5.069   5.144   4.064
 6851TIP3   OH220516   0.504   0.572   3.705
 6851TIP3    H120517   0.506   0.503   3.771
 6851TIP3    H220518   0.534   0.650   3.751
 6852TIP3   OH220519   5.638   1.190   5.630
 6852TIP3    H120520   5.694   1.187   5.708
 6852TIP3    H220521   5.579   1.264   5.646
 6853TIP3   OH220522   4.917   4.073   5.624
 6853TIP3    H120523   4.992   4.132   5.621
 6853TIP3    H220524   4.908   4.051   5.717
 6854TIP3   OH220525   4.898   3.318   4.903
 6854TIP3    H120526   4.947   3.237   4.892
 6854TIP3    H220527   4.824   3.293   4.959
 6855TIP3   OH220528   6.877   4.892   0.212
 6855TIP3    H120529   6.845   4.977   0.181
 6855TIP3    H220530   6.943   4.914   0.278
 6856TIP3   OH220531   5.079   4.163   0.621
 6856TIP3    H120532   5.173   4.148   0.610
 6856TIP3    H220533   5.040   4.129   0.541
 6857TIP3   OH220534   3.582   0.234   5.595
 6857TIP3    H120535   3.670   0.206   5.620
 6857TIP3    H220536   3.525   0.193   5.660
 6858TIP3   OH220537   0.002   3.375   2.741
 6858TIP3    H120538   0.063   3.421   2.799
 6858TIP3    H220539  -0.045   3.314   2.799
 6859TIP3   OH220540   1.091   5.354   5.030
 6859TIP3    H120541   1.186   5.352   5.040
 6859TIP3    H220542   1.061   5.270   5.066
 6860TIP3   OH220543   2.248   0.786   4.068
 6860TIP3    H120544   2.196   0.714   4.104
 6860TIP3    H220545   2.328   0.744   4.036
 6861TIP3   OH220546   6.225   6.178   0.478
 6861TIP3    H120547   6.198   6.270   0.478
 6861TIP3    H220548   6.241   6.157   0.386
 6862TIP3   OH220549   1.781   6.249   2.339
 6862TIP3    H120550   1.801   6.329   2.289
 6862TIP3    H220551   1.686   6.239   2.331
 6863TIP3   OH220552   4.208   0.622   2.601
 6863TIP3    H120553   4.130   0.673   2.575
 6863TIP3    H220554   4.273   0.643   2.534
 6864TIP3   OH220555   3.987   1.834   3.008
 6864TIP3    H120556   3.916   1.897   2.998
 6864TIP3    H220557   4.066   1.887   3.018
 6865TIP3   OH220558   4.056   5.855   0.889
 6865TIP3    H120559   4.024   5.764   0.892
 6865TIP3    H220560   4.080   5.869   0.798
 6866TIP3   OH220561   6.628   5.544   0.646
 6866TIP3    H120562   6.665   5.563   0.560
 6866TIP3    H220563   6.675   5.467   0.676
 6867TIP3   OH220564   3.825   6.424   1.258
 6867TIP3    H120565   3.909   6.441   1.216
 6867TIP3    H220566   3.806   6.332   1.237
 6868TIP3   OH220567   6.696   1.905   1.813
 6868TIP3    H120568   6.775   1.925   1.763
 6868TIP3    H220569   6.684   1.810   1.803
 6869TIP3   OH220570   3.199   5.852   5.587
 6869TIP3    H120571   3.245   5.769   5.602
 6869TIP3    H220572   3.113   5.825   5.552
 6870TIP3   OH220573   6.224   0.358   4.015
 6870TIP3    H120574   6.144   0.410   4.008
 6870TIP3    H220575   6.260   0.356   3.926
 6871TIP3   OH220576   4.504   6.722   4.550
 6871TIP3    H120577   4.429   6.733   4.492
 6871TIP3    H220578   4.571   6.781   4.514
 6872TIP3   OH220579   3.507   3.631   1.853
 6872TIP3    H120580   3.590   3.627   1.806
 6872TIP3    H220581   3.518   3.568   1.925
 6873TIP3   OH220582   1.745   4.707   2.047
 6873TIP3    H120583   1.804   4.780   2.065
 6873TIP3    H220584   1.753   4.650   2.124
 6874TIP3   OH220585   2.928   3.431   0.319
 6874TIP3    H120586   2.979   3.510   0.339
 6874TIP3    H220587   2.987   3.376   0.267
 6875TIP3   OH220588   0.152   0.317   3.845
 6875TIP3    H120589   0.171   0.378   3.915
 6875TIP3    H220590   0.088   0.361   3.790
 6876TIP3   OH220591   2.855   1.211   2.059
 6876TIP3    H120592   2.843   1.202   1.965
 6876TIP3    H220593   2.785   1.157   2.098
 6877TIP3   OH220594   1.629   4.675   0.861
 6877TIP3    H120595   1.636   4.591   0.906
 6877TIP3    H220596   1.597   4.735   0.928
 6878TIP3   OH220597   6.933   5.518   4.894
 6878TIP3    H120598   6.874   5.501   4.821
 6878TIP3    H220599   7.016   5.545   4.853
 6879TIP3   OH220600   1.202   0.739   3.566
 6879TIP3    H120601   1.121   0.762   3.611
 6879TIP3    H220602   1.221   0.649   3.594
 6880TIP3   OH220603   1.143   2.077   4.455
 6880TIP3    H120604   1.092   2.100   4.533
 6880TIP3    H220605   1.140   1.982   4.450
 6881TIP3   OH220606   0.532   3.776   1.620
 6881TIP3    H120607   0.625   3.784   1.601
 6881TIP3    H220608   0.494   3.859   1.591
 6882TIP3   OH220609   1.361   4.757   1.740
 6882TIP3    H120610   1.283   4.717   1.777
 6882TIP3    H220611   1.330   4.832   1.691
 6883TIP3   OH220612   2.174  -0.010   4.572
 6883TIP3    H120613   2.129   0.064   4.531
 6883TIP3    H220614   2.141  -0.011   4.662
 6884TIP3   OH220615   5.511   4.180   5.139
 6884TIP3    H120616   5.552   4.094   5.149
 6884TIP3    H220617   5.518   4.198   5.045
 6885TIP3   OH220618   3.730   0.238   1.339
 6885TIP3    H120619   3.730   0.180   1.415
 6885TIP3    H220620   3.665   0.305   1.360
 6886TIP3   OH220621   6.583   3.037   0.281
 6886TIP3    H120622   6.510   2.986   0.248
 6886TIP3    H220623   6.607   2.995   0.363
 6887TIP3   OH220624   5.083   3.130   4.843
 6887TIP3    H120625   5.176   3.127   4.868
 6887TIP3    H220626   5.084   3.145   4.748
 6888TIP3   OH220627   0.215   0.808   0.078
 6888TIP3    H120628   0.133   0.759   0.075
 6888TIP3    H220629   0.215   0.861  -0.002
 6889TIP3   OH220630   4.840   4.194   4.885
 6889TIP3    H120631   4.935   4.198   4.879
 6889TIP3    H220632   4.822   4.105   4.914
 6890TIP3   OH220633   3.223   6.615   0.473
 6890TIP3    H120634   3.247   6.547   0.536
 6890TIP3    H220635   3.185   6.567   0.399
 6891TIP3   OH220636   1.504   1.196   4.527
 6891TIP3    H120637   1.515   1.247   4.447
 6891TIP3    H220638   1.519   1.106   4.501
 6892TIP3   OH220639   7.170   1.961   5.518
 6892TIP3    H120640   7.177   1.875   5.558
 6892TIP3    H220641   7.166   2.022   5.592
 6893TIP3   OH220642   0.735   0.501   4.086
 6893TIP3    H120643   0.681   0.534   4.014
 6893TIP3    H220644   0.679   0.440   4.133
 6894TIP3   OH220645   6.843   5.002   3.063
 6894TIP3    H120646   6.865   5.029   2.974
 6894TIP3    H220647   6.749   4.987   3.061
 6895TIP3   OH220648   1.591   4.567   4.357
 6895TIP3    H120649   1.678   4.581   4.394
 6895TIP3    H220650   1.536   4.635   4.397
 6896TIP3   OH220651   4.281   6.673   3.926
 6896TIP3    H120652   4.195   6.640   3.899
 6896TIP3    H220653   4.316   6.716   3.848
 6897TIP3   OH220654   6.222   6.083   4.292
 6897TIP3    H120655   6.314   6.107   4.282
 6897TIP3    H220656   6.177   6.130   4.222
 6898TIP3   OH220657   0.657   0.954   1.525
 6898TIP3    H120658   0.685   0.867   1.555
 6898TIP3    H220659   0.672   1.011   1.600
 6899TIP3   OH220660   2.232   6.654   1.135
 6899TIP3    H120661   2.197   6.723   1.078
 6899TIP3    H220662   2.315   6.629   1.094
 6900TIP3   OH220663   5.317   4.397   2.207
 6900TIP3    H120664   5.292   4.356   2.124
 6900TIP3    H220665   5.239   4.446   2.233
 6901TIP3   OH220666   0.693   1.717   1.893
 6901TIP3    H120667   0.753   1.644   1.874
 6901TIP3    H220668   0.673   1.707   1.986
 6902TIP3   OH220669   3.604   0.624   3.433
 6902TIP3    H120670   3.694   0.595   3.416
 6902TIP3    H220671   3.550   0.552   3.402
 6903TIP3   OH220672   2.126   0.050   3.063
 6903TIP3    H120673   2.161   0.004   3.139
 6903TIP3    H220674   2.202   0.066   3.007
 6904TIP3   OH220675   4.206   5.908   2.098
 6904TIP3    H120676   4.129   5.922   2.153
 6904TIP3    H220677   4.280   5.919   2.158
 6905TIP3   OH220678   6.472   3.615   2.614
 6905TIP3    H120679   6.564   3.634   2.598
 6905TIP3    H220680   6.427   3.645   2.534
 6906TIP3   OH220681   1.044   2.949   4.633
 6906TIP3    H120682   1.052   3.042   4.612
 6906TIP3    H220683   1.133   2.922   4.656
 6907TIP3   OH220684   6.391   4.243   3.002
 6907TIP3    H120685   6.345   4.169   2.962
 6907TIP3    H220686   6.349   4.320   2.964
 6908TIP3   OH220687   5.451   6.331   5.097
 6908TIP3    H120688   5.411   6.338   5.010
 6908TIP3    H220689   5.402   6.263   5.141
 6909TIP3   OH220690   1.781   4.069   0.879
 6909TIP3    H120691   1.703   4.083   0.933
 6909TIP3    H220692   1.766   4.123   0.801
 6910TIP3   OH220693   2.023   6.502   0.195
 6910TIP3    H120694   2.077   6.559   0.250
 6910TIP3    H220695   2.073   6.493   0.114
 6911TIP3   OH220696   3.345   4.747   3.437
 6911TIP3    H120697   3.250   4.743   3.424
 6911TIP3    H220698   3.371   4.829   3.395
 6912TIP3   OH220699   3.713   5.414   3.789
 6912TIP3    H120700   3.697   5.508   3.777
 6912TIP3    H220701   3.760   5.408   3.872
 6913TIP3   OH220702   4.372   2.781   1.400
 6913TIP3    H120703   4.289   2.820   1.372
 6913TIP3    H220704   4.377   2.699   1.352
 6914TIP3   OH220705   0.913   3.654   0.608
 6914TIP3    H120706   1.006   3.632   0.597
 6914TIP3    H220707   0.893   3.710   0.533
 6915TIP3   OH220708   3.805   4.933   3.913
 6915TIP3    H120709   3.813   5.028   3.907
 6915TIP3    H220710   3.746   4.918   3.987
 6916TIP3   OH220711   2.893   0.899   0.863
 6916TIP3    H120712   2.954   0.895   0.936
 6916TIP3    H220713   2.816   0.945   0.898
 6917TIP3   OH220714   3.892   3.382   0.610
 6917TIP3    H120715   3.941   3.439   0.670
 6917TIP3    H220716   3.808   3.425   0.600
 6918TIP3   OH220717   2.580   4.047   3.794
 6918TIP3    H120718   2.609   3.960   3.767
 6918TIP3    H220719   2.604   4.053   3.886
 6919TIP3   OH220720   4.974   4.392   0.959
 6919TIP3    H120721   5.005   4.465   0.904
 6919TIP3    H220722   4.935   4.331   0.897
 6920TIP3   OH220723   4.761   3.220   0.003
 6920TIP3    H120724   4.844   3.266  -0.001
 6920TIP3    H220725   4.777   3.145   0.060
 6921TIP3   OH220726   1.318   0.667   3.193
 6921TIP3    H120727   1.378   0.734   3.160
 6921TIP3    H220728   1.231   0.704   3.180
 6922TIP3   OH220729   1.737   3.068   0.071
 6922TIP3    H120730   1.811   3.126   0.050
 6922TIP3    H220731   1.741   3.000   0.003
 6923TIP3   OH220732   0.620   2.706   1.792
 6923TIP3    H120733   0.546   2.736   1.739
 6923TIP3    H220734   0.696   2.752   1.757
 6924TIP3   OH220735   0.855   0.712   3.323
 6924TIP3    H120736   0.799   0.644   3.287
 6924TIP3    H220737   0.936   0.706   3.273
 6925TIP3   OH220738   1.675   6.441   1.596
 6925TIP3    H120739   1.742   6.497   1.557
 6925TIP3    H220740   1.723   6.364   1.627
 6926TIP3   OH220741   2.059   1.419   1.111
 6926TIP3    H120742   2.146   1.382   1.103
 6926TIP3    H220743   2.065   1.478   1.186
 6927TIP3   OH220744   3.170   3.956   5.833
 6927TIP3    H120745   3.190   3.869   5.868
 6927TIP3    H220746   3.243   3.975   5.774
 6928TIP3   OH220747   2.019   3.948   0.876
 6928TIP3    H120748   1.939   4.001   0.873
 6928TIP3    H220749   2.090   4.012   0.867
 6929TIP3   OH220750   3.943   3.173   2.062
 6929TIP3    H120751   3.868   3.149   2.117
 6929TIP3    H220752   4.015   3.119   2.096
 6930TIP3   OH220753   4.350   3.648   4.501
 6930TIP3    H120754   4.294   3.653   4.579
 6930TIP3    H220755   4.367   3.555   4.490
 6931TIP3   OH220756   1.918   1.194   3.911
 6931TIP3    H120757   1.823   1.183   3.911
 6931TIP3    H220758   1.952   1.113   3.950
 6932TIP3   OH220759   0.381   2.633   3.978
 6932TIP3    H120760   0.305   2.647   3.922
 6932TIP3    H220761   0.455   2.670   3.929
 6933TIP3   OH220762   4.895   5.708   2.509
 6933TIP3    H120763   4.835   5.646   2.469
 6933TIP3    H220764   4.982   5.672   2.491
 6934TIP3   OH220765   5.292   6.340   3.068
 6934TIP3    H120766   5.367   6.281   3.059
 6934TIP3    H220767   5.317   6.400   3.138
 6935TIP3   OH220768   2.825   0.950   0.440
 6935TIP3    H120769   2.834   1.022   0.378
 6935TIP3    H220770   2.914   0.924   0.461
 6936TIP3   OH220771   5.909   0.051   0.730
 6936TIP3    H120772   5.843   0.012   0.787
 6936TIP3    H220773   5.924  -0.016   0.663
 6937TIP3   OH220774   3.890   6.443   3.088
 6937TIP3    H120775   3.805   6.416   3.122
 6937TIP3    H220776   3.899   6.535   3.115
 6938TIP3   OH220777   0.729   0.223   5.017
 6938TIP3    H120778   0.688   0.302   4.982
 6938TIP3    H220779   0.822   0.235   5.001
 6939TIP3   OH220780   2.179   6.336   3.248
 6939TIP3    H120781   2.155   6.279   3.321
 6939TIP3    H220782   2.272   6.318   3.234
 6940TIP3   OH220783   6.903   5.926   3.517
 6940TIP3    H120784   6.937   5.932   3.606
 6940TIP3    H220785   6.976   5.891   3.466
 6941TIP3   OH220786   0.908   5.588   4.625
 6941TIP3    H120787   0.901   5.678   4.592
 6941TIP3    H220788   0.986   5.553   4.582
 6942TIP3   OH220789   1.628   0.059   3.705
 6942TIP3    H120790   1.561   0.101   3.651
 6942TIP3    H220791   1.642   0.120   3.778
 6943TIP3   OH220792   4.308   0.463   3.657
 6943TIP3    H120793   4.402   0.482   3.654
 6943TIP3    H220794   4.285   0.443   3.566
 6944TIP3   OH220795   1.555   2.551   0.791
 6944TIP3    H120796   1.467   2.585   0.774
 6944TIP3    H220797   1.591   2.533   0.704
 6945TIP3   OH220798   3.136   1.746   1.114
 6945TIP3    H120799   3.083   1.745   1.034
 6945TIP3    H220800   3.140   1.838   1.139
 6946TIP3   OH220801   3.474   0.762   5.092
 6946TIP3    H120802   3.539   0.750   5.023
 6946TIP3    H220803   3.411   0.824   5.054
 6947TIP3   OH220804   6.930   2.157   5.032
 6947TIP3    H120805   6.960   2.072   5.000
 6947TIP3    H220806   7.001   2.217   5.012
 6948TIP3   OH220807   4.462   0.258   1.598
 6948TIP3    H120808   4.427   0.183   1.550
 6948TIP3    H220809   4.529   0.221   1.655
 6949TIP3   OH220810   4.198   2.024   2.436
 6949TIP3    H120811   4.151   1.975   2.504
 6949TIP3    H220812   4.255   2.084   2.485
 6950TIP3   OH220813   6.622   2.673   4.913
 6950TIP3    H120814   6.633   2.644   5.003
 6950TIP3    H220815   6.692   2.736   4.899
 6951TIP3   OH220816   7.204   5.031   5.858
 6951TIP3    H120817   7.169   5.107   5.811
 6951TIP3    H220818   7.155   4.957   5.824
 6952TIP3   OH220819   6.001   6.534   5.203
 6952TIP3    H120820   6.013   6.625   5.230
 6952TIP3    H220821   5.918   6.535   5.155
 6953TIP3   OH220822   1.249   1.529   3.632
 6953TIP3    H120823   1.177   1.561   3.686
 6953TIP3    H220824   1.208   1.508   3.548
 6954TIP3   OH220825   2.376   4.969   2.226
 6954TIP3    H120826   2.466   4.947   2.202
 6954TIP3    H220827   2.332   4.885   2.238
 6955TIP3   OH220828   6.809   4.767   3.625
 6955TIP3    H120829   6.724   4.772   3.670
 6955TIP3    H220830   6.838   4.677   3.639
 6956TIP3   OH220831   4.058   2.879   4.068
 6956TIP3    H120832   4.060   2.901   4.161
 6956TIP3    H220833   4.117   2.942   4.027
 6957TIP3   OH220834   1.618   3.757   5.750
 6957TIP3    H120835   1.544   3.817   5.754
 6957TIP3    H220836   1.683   3.803   5.697
 6958TIP3   OH220837   4.687   0.144   3.113
 6958TIP3    H120838   4.708   0.090   3.037
 6958TIP3    H220839   4.709   0.233   3.086
 6959TIP3   OH220840   2.956   2.509   4.162
 6959TIP3    H120841   2.979   2.583   4.106
 6959TIP3    H220842   2.860   2.504   4.157
 6960TIP3   OH220843   6.733   3.829   3.779
 6960TIP3    H120844   6.773   3.775   3.848
 6960TIP3    H220845   6.641   3.803   3.780
 6961TIP3   OH220846   5.575   1.427   3.830
 6961TIP3    H120847   5.650   1.454   3.883
 6961TIP3    H220848   5.500   1.469   3.872
 6962TIP3   OH220849   3.487   3.993   3.495
 6962TIP3    H120850   3.488   4.084   3.527
 6962TIP3    H220851   3.397   3.965   3.506
 6963TIP3   OH220852   4.832   1.735   5.749
 6963TIP3    H120853   4.827   1.657   5.804
 6963TIP3    H220854   4.750   1.783   5.766
 6964TIP3   OH220855   6.713   0.925   3.168
 6964TIP3    H120856   6.696   0.988   3.099
 6964TIP3    H220857   6.667   0.846   3.140
 6965TIP3   OH220858   0.693   1.740   0.501
 6965TIP3    H120859   0.633   1.679   0.457
 6965TIP3    H220860   0.771   1.741   0.445
 6966TIP3   OH220861   2.637   6.152   4.846
 6966TIP3    H120862   2.672   6.100   4.773
 6966TIP3    H220863   2.605   6.086   4.908
 6967TIP3   OH220864   3.574   4.277   3.498
 6967TIP3    H120865   3.583   4.373   3.500
 6967TIP3    H220866   3.629   4.246   3.570
 6968TIP3   OH220867   3.904   6.525   1.545
 6968TIP3    H120868   3.862   6.506   1.460
 6968TIP3    H220869   3.830   6.545   1.603
 6969TIP3   OH220870   2.239   2.775   4.582
 6969TIP3    H120871   2.287   2.723   4.646
 6969TIP3    H220872   2.301   2.790   4.511
 6970TIP3   OH220873   0.995   3.900   1.922
 6970TIP3    H120874   0.979   3.811   1.953
 6970TIP3    H220875   0.921   3.919   1.863
 6971TIP3   OH220876   3.228   5.975   2.842
 6971TIP3    H120877   3.300   6.033   2.817
 6971TIP3    H220878   3.246   5.951   2.933
 6972TIP3   OH220879   6.700   6.052   4.322
 6972TIP3    H120880   6.754   6.114   4.372
 6972TIP3    H220881   6.611   6.086   4.330
 6973TIP3   OH220882   1.023   0.171   2.236
 6973TIP3    H120883   0.931   0.171   2.263
 6973TIP3    H220884   1.072   0.164   2.318
 6974TIP3   OH220885   2.804   3.358   5.239
 6974TIP3    H120886   2.849   3.436   5.206
 6974TIP3    H220887   2.869   3.316   5.296
 6975TIP3   OH220888   0.123   3.391   1.498
 6975TIP3    H120889   0.120   3.454   1.570
 6975TIP3    H220890   0.093   3.309   1.536
 6976TIP3   OH220891   0.893   2.810   2.385
 6976TIP3    H120892   0.845   2.736   2.350
 6976TIP3    H220893   0.904   2.789   2.478
 6977TIP3   OH220894   0.844   1.203   0.738
 6977TIP3    H120895   0.932   1.210   0.701
 6977TIP3    H220896   0.808   1.291   0.733
 6978TIP3   OH220897   6.918   3.332   0.619
 6978TIP3    H120898   6.901   3.253   0.569
 6978TIP3    H220899   6.946   3.301   0.705
 6979TIP3   OH220900   4.854   0.882   0.389
 6979TIP3    H120901   4.911   0.807   0.373
 6979TIP3    H220902   4.809   0.860   0.471
 6980TIP3   OH220903   0.958   0.944   3.458
 6980TIP3    H120904   0.952   1.004   3.384
 6980TIP3    H220905   0.887   0.881   3.444
 6981TIP3   OH220906   0.074   3.443   3.066
 6981TIP3    H120907  -0.019   3.419   3.062
 6981TIP3    H220908   0.108   3.395   3.141
 6982TIP3   OH220909   6.953   4.462   3.089
 6982TIP3    H120910   6.908   4.514   3.155
 6982TIP3    H220911   6.965   4.522   3.015
 6983TIP3   OH220912   6.815   1.496   3.429
 6983TIP3    H120913   6.826   1.591   3.437
 6983TIP3    H220914   6.742   1.486   3.368
 6984TIP3   OH220915   6.477   6.471   2.330
 6984TIP3    H120916   6.459   6.498   2.420
 6984TIP3    H220917   6.475   6.553   2.279
 6985TIP3   OH220918   5.273   0.930   4.970
 6985TIP3    H120919   5.248   0.842   4.942
 6985TIP3    H220920   5.367   0.935   4.950
 6986TIP3   OH220921   1.961   1.589   3.729
 6986TIP3    H120922   1.875   1.605   3.690
 6986TIP3    H220923   2.022   1.639   3.674
 6987TIP3   OH220924   1.492   5.039   4.643
 6987TIP3    H120925   1.417   5.098   4.633
 6987TIP3    H220926   1.567   5.092   4.617
 6988TIP3   OH220927   4.484   1.580   2.866
 6988TIP3    H120928   4.503   1.628   2.785
 6988TIP3    H220929   4.569   1.572   2.909
 6989TIP3   OH220930   3.297   3.692   4.600
 6989TIP3    H120931   3.213   3.684   4.554
 6989TIP3    H220932   3.330   3.602   4.605
 6990TIP3   OH220933   1.248   0.965   0.645
 6990TIP3    H120934   1.280   0.932   0.728
 6990TIP3    H220935   1.291   0.910   0.579
 6991TIP3   OH220936   0.814   3.824   5.655
 6991TIP3    H120937   0.785   3.885   5.722
 6991TIP3    H220938   0.748   3.754   5.656
 6992TIP3   OH220939   6.230   4.432   0.254
 6992TIP3    H120940   6.195   4.492   0.188
 6992TIP3    H220941   6.251   4.488   0.329
 6993TIP3   OH220942   3.743   6.142   0.954
 6993TIP3    H120943   3.835   6.150   0.927
 6993TIP3    H220944   3.697   6.206   0.900
 6994TIP3   OH220945   4.884   0.098   2.371
 6994TIP3    H120946   4.931   0.072   2.292
 6994TIP3    H220947   4.802   0.048   2.368
 6995TIP3   OH220948   7.195   4.724   3.263
 6995TIP3    H120949   7.175   4.815   3.242
 6995TIP3    H220950   7.275   4.705   3.213
 6996TIP3   OH220951   3.128   3.615   3.132
 6996TIP3    H120952   3.209   3.662   3.149
 6996TIP3    H220953   3.105   3.637   3.041
 6997TIP3   OH220954   1.112   6.086   0.045
 6997TIP3    H120955   1.167   6.064   0.120
 6997TIP3    H220956   1.058   6.159   0.075
 6998TIP3   OH220957   2.544   1.710   3.022
 6998TIP3    H120958   2.522   1.739   3.110
 6998TIP3    H220959   2.485   1.636   3.006
 6999TIP3   OH220960   2.185   1.295   4.339
 6999TIP3    H120961   2.100   1.328   4.366
 6999TIP3    H220962   2.207   1.228   4.403
 7000TIP3   OH220963   2.428   4.049   3.055
 7000TIP3    H120964   2.476   4.033   2.974
 7000TIP3    H220965   2.452   3.976   3.112
 7001TIP3   OH220966   2.237   3.864   2.854
 7001TIP3    H120967   2.266   3.931   2.792
 7001TIP3    H220968   2.289   3.787   2.832
 7002TIP3   OH220969   2.101   3.467   5.464
 7002TIP3    H120970   2.071   3.495   5.550
 7002TIP3    H220971   2.196   3.457   5.474
 7003TIP3   OH220972   4.893   4.786   5.507
 7003TIP3    H120973   4.887   4.697   5.471
 7003TIP3    H220974   4.824   4.789   5.574
 7004TIP3   OH220975   1.959   3.465   2.614
 7004TIP3    H120976   2.040   3.432   2.576
 7004TIP3    H220977   1.982   3.550   2.651
 7005TIP3   OH220978   5.221   1.791   0.179
 7005TIP3    H120979   5.161   1.862   0.156
 7005TIP3    H220980   5.185   1.714   0.134
 7006TIP3   OH220981   4.064   5.110   4.046
 7006TIP3    H120982   4.012   5.034   4.073
 7006TIP3    H220983   4.029   5.133   3.960
 7007TIP3   OH220984   0.412   1.939   4.265
 7007TIP3    H120985   0.476   2.006   4.239
 7007TIP3    H220986   0.465   1.860   4.275
 7008TIP3   OH220987   6.124   1.551   4.628
 7008TIP3    H120988   6.169   1.568   4.545
 7008TIP3    H220989   6.086   1.463   4.617
 7009TIP3   OH220990   4.414   1.700   4.958
 7009TIP3    H120991   4.369   1.783   4.938
 7009TIP3    H220992   4.361   1.662   5.029
 7010TIP3   OH220993   1.434   5.995   0.961
 7010TIP3    H120994   1.433   5.915   0.909
 7010TIP3    H220995   1.527   6.011   0.977
 7011TIP3   OH220996   5.199   3.287   3.578
 7011TIP3    H120997   5.264   3.272   3.646
 7011TIP3    H220998   5.227   3.368   3.535
 7012TIP3   OH220999   4.280   1.949   4.958
 7012TIP3    H121000   4.206   1.907   4.913
 7012TIP3    H221001   4.240   1.999   5.028
 7013TIP3   OH221002   4.412   3.014   2.722
 7013TIP3    H121003   4.349   2.972   2.663
 7013TIP3    H221004   4.480   2.948   2.735
 7014TIP3   OH221005   2.751   5.847   1.104
 7014TIP3    H121006   2.711   5.866   1.189
 7014TIP3    H221007   2.737   5.926   1.052
 7015TIP3   OH221008   1.782   1.217   1.802
 7015TIP3    H121009   1.779   1.204   1.707
 7015TIP3    H221010   1.715   1.157   1.837
 7016TIP3   OH221011   1.826   4.327   0.165
 7016TIP3    H121012   1.789   4.259   0.221
 7016TIP3    H221013   1.800   4.409   0.207
 7017TIP3   OH221014   2.161   1.921   2.252
 7017TIP3    H121015   2.123   1.935   2.165
 7017TIP3    H221016   2.250   1.893   2.234
 7018TIP3   OH221017   2.762   0.700   3.074
 7018TIP3    H121018   2.771   0.708   3.169
 7018TIP3    H221019   2.850   0.713   3.040
 7019TIP3   OH221020   1.718   5.603   3.014
 7019TIP3    H121021   1.655   5.649   3.069
 7019TIP3    H221022   1.717   5.651   2.931
 7020TIP3   OH221023   6.499   4.079   2.733
 7020TIP3    H121024   6.527   4.037   2.815
 7020TIP3    H221025   6.534   4.167   2.737
 7021TIP3   OH221026   6.926   5.952   2.681
 7021TIP3    H121027   6.914   5.971   2.774
 7021TIP3    H221028   6.964   6.032   2.645
 7022TIP3   OH221029   4.228   5.687   3.748
 7022TIP3    H121030   4.228   5.691   3.652
 7022TIP3    H221031   4.293   5.620   3.769
 7023TIP3   OH221032   3.673   5.109   1.621
 7023TIP3    H121033   3.762   5.140   1.638
 7023TIP3    H221034   3.626   5.126   1.703
 7024TIP3   OH221035   2.827   5.752   3.697
 7024TIP3    H121036   2.887   5.692   3.741
 7024TIP3    H221037   2.842   5.737   3.604
 7025TIP3   OH221038   2.056   1.784   3.065
 7025TIP3    H121039   2.061   1.871   3.027
 7025TIP3    H221040   2.077   1.797   3.158
 7026TIP3   OH221041   4.935   3.479   0.529
 7026TIP3    H121042   4.894   3.394   0.543
 7026TIP3    H221043   5.010   3.480   0.589
 7027TIP3   OH221044   0.174   6.621   0.025
 7027TIP3    H121045   0.111   6.617   0.097
 7027TIP3    H221046   0.191   6.530   0.003
 7028TIP3   OH221047   4.391   4.835   0.425
 7028TIP3    H121048   4.387   4.812   0.518
 7028TIP3    H221049   4.307   4.878   0.407
 7029TIP3   OH221050   5.975   2.533   5.533
 7029TIP3    H121051   5.896   2.564   5.578
 7029TIP3    H221052   5.977   2.583   5.451
 7030TIP3   OH221053   4.385   4.314   3.477
 7030TIP3    H121054   4.442   4.238   3.490
 7030TIP3    H221055   4.414   4.351   3.393
 7031TIP3   OH221056   2.745   2.277   0.856
 7031TIP3    H121057   2.790   2.293   0.773
 7031TIP3    H221058   2.721   2.364   0.887
 7032TIP3   OH221059   6.913   5.582   5.486
 7032TIP3    H121060   6.964   5.565   5.407
 7032TIP3    H221061   6.962   5.649   5.533
 7033TIP3   OH221062   5.322   6.041   0.446
 7033TIP3    H121063   5.249   5.983   0.426
 7033TIP3    H221064   5.394   5.982   0.468
 7034TIP3   OH221065   2.300   4.687   1.082
 7034TIP3    H121066   2.383   4.642   1.066
 7034TIP3    H221067   2.240   4.618   1.111
 7035TIP3   OH221068   4.128   4.546   0.188
 7035TIP3    H121069   4.068   4.613   0.155
 7035TIP3    H221070   4.075   4.495   0.250
 7036TIP3   OH221071   4.595   4.841   2.640
 7036TIP3    H121072   4.668   4.883   2.686
 7036TIP3    H221073   4.576   4.763   2.692
 7037TIP3   OH221074   1.062   5.138   4.014
 7037TIP3    H121075   1.023   5.054   4.037
 7037TIP3    H221076   1.098   5.171   4.096
 7038TIP3   OH221077   0.944   5.711   2.095
 7038TIP3    H121078   1.036   5.685   2.085
 7038TIP3    H221079   0.912   5.721   2.006
 7039TIP3   OH221080   4.893   4.808   3.125
 7039TIP3    H121081   4.950   4.790   3.200
 7039TIP3    H221082   4.919   4.895   3.095
 7040TIP3   OH221083   0.502   4.855   3.632
 7040TIP3    H121084   0.491   4.823   3.722
 7040TIP3    H221085   0.532   4.778   3.583
 7041TIP3   OH221086   4.601   5.390   5.110
 7041TIP3    H121087   4.536   5.337   5.064
 7041TIP3    H221088   4.588   5.479   5.076
 7042TIP3   OH221089   0.729   0.085   4.566
 7042TIP3    H121090   0.684   0.169   4.559
 7042TIP3    H221091   0.726   0.065   4.660
 7043TIP3   OH221092   6.123   6.242   2.915
 7043TIP3    H121093   6.132   6.161   2.964
 7043TIP3    H221094   6.076   6.302   2.973
 7044TIP3   OH221095   5.703   4.652   3.788
 7044TIP3    H121096   5.790   4.676   3.819
 7044TIP3    H221097   5.716   4.569   3.741
 7045TIP3   OH221098   4.922   4.458   4.849
 7045TIP3    H121099   4.855   4.470   4.917
 7045TIP3    H221100   4.905   4.370   4.815
 7046TIP3   OH221101   0.774   2.273   3.912
 7046TIP3    H121102   0.774   2.179   3.894
 7046TIP3    H221103   0.682   2.296   3.923
 7047TIP3   OH221104   2.082   2.427   2.989
 7047TIP3    H121105   2.058   2.334   2.991
 7047TIP3    H221106   2.000   2.473   2.971
 7048TIP3   OH221107   0.316   2.758   1.390
 7048TIP3    H121108   0.293   2.666   1.403
 7048TIP3    H221109   0.235   2.806   1.405
 7049TIP3   OH221110   1.280   4.524   0.099
 7049TIP3    H121111   1.212   4.457   0.092
 7049TIP3    H221112   1.350   4.482   0.149
 7050TIP3   OH221113   3.056   5.186   2.004
 7050TIP3    H121114   3.008   5.142   2.074
 7050TIP3    H221115   3.059   5.122   1.933
 7051TIP3   OH221116   6.280   2.701   4.224
 7051TIP3    H121117   6.284   2.625   4.282
 7051TIP3    H221118   6.286   2.665   4.136
 7052TIP3   OH221119   4.008   4.772   3.834
 7052TIP3    H121120   3.986   4.766   3.741
 7052TIP3    H221121   3.957   4.847   3.865
 7053TIP3   OH221122   0.147   0.559   2.837
 7053TIP3    H121123   0.065   0.511   2.842
 7053TIP3    H221124   0.176   0.549   2.747
 7054TIP3   OH221125   2.446   0.934   4.667
 7054TIP3    H121126   2.446   1.030   4.669
 7054TIP3    H221127   2.377   0.911   4.605
 7055TIP3   OH221128   2.964   5.027   1.622
 7055TIP3    H121129   3.000   5.110   1.591
 7055TIP3    H221130   3.021   5.001   1.694
 7056TIP3   OH221131   4.754   3.840   0.714
 7056TIP3    H121132   4.844   3.808   0.717
 7056TIP3    H221133   4.730   3.836   0.621
 7057TIP3   OH221134   3.364   0.298   5.357
 7057TIP3    H121135   3.374   0.350   5.436
 7057TIP3    H221136   3.335   0.361   5.290
 7058TIP3   OH221137   3.275   1.953   0.320
 7058TIP3    H121138   3.370   1.960   0.334
 7058TIP3    H221139   3.242   1.912   0.400
 7059TIP3   OH221140   0.632   1.010   0.691
 7059TIP3    H121141   0.663   0.952   0.622
 7059TIP3    H221142   0.695   1.083   0.692
 7060TIP3   OH221143   3.226   6.521   1.113
 7060TIP3    H121144   3.307   6.522   1.165
 7060TIP3    H221145   3.243   6.581   1.041
 7061TIP3   OH221146   0.583   6.588   3.044
 7061TIP3    H121147   0.679   6.585   3.043
 7061TIP3    H221148   0.557   6.496   3.034
 7062TIP3   OH221149   6.097   3.899   3.288
 7062TIP3    H121150   6.092   3.988   3.255
 7062TIP3    H221151   6.130   3.848   3.214
 7063TIP3   OH221152   5.117   1.610   4.063
 7063TIP3    H121153   5.049   1.570   4.117
 7063TIP3    H221154   5.173   1.656   4.126
 7064TIP3   OH221155   0.349   6.215   4.637
 7064TIP3    H121156   0.302   6.192   4.557
 7064TIP3    H221157   0.290   6.189   4.708
 7065TIP3   OH221158   5.232   0.821   4.311
 7065TIP3    H121159   5.238   0.911   4.343
 7065TIP3    H221160   5.161   0.823   4.247
 7066TIP3   OH221161   4.983   1.184   0.518
 7066TIP3    H121162   4.985   1.277   0.496
 7066TIP3    H221163   4.895   1.156   0.497
 7067TIP3   OH221164   6.644   6.121   0.405
 7067TIP3    H121165   6.654   6.138   0.498
 7067TIP3    H221166   6.733   6.126   0.370
 7068TIP3   OH221167   2.689   6.240   2.311
 7068TIP3    H121168   2.727   6.234   2.398
 7068TIP3    H221169   2.596   6.223   2.324
 7069TIP3   OH221170   0.237   4.756   4.583
 7069TIP3    H121171   0.150   4.720   4.565
 7069TIP3    H221172   0.238   4.839   4.535
 7070TIP3   OH221173   5.660   0.133   0.008
 7070TIP3    H121174   5.707   0.160  -0.072
 7070TIP3    H221175   5.638   0.215   0.051
 7071TIP3   OH221176   6.981   5.567   3.797
 7071TIP3    H121177   6.973   5.537   3.887
 7071TIP3    H221178   6.891   5.569   3.765
 7072TIP3   OH221179   1.638   0.117   3.410
 7072TIP3    H121180   1.732   0.136   3.410
 7072TIP3    H221181   1.599   0.195   3.450
 7073TIP3   OH221182   6.378   6.133   3.090
 7073TIP3    H121183   6.451   6.101   3.037
 7073TIP3    H221184   6.364   6.222   3.060
 7074TIP3   OH221185   7.041   6.180   2.584
 7074TIP3    H121186   7.123   6.174   2.534
 7074TIP3    H221187   7.063   6.236   2.659
 7075TIP3   OH221188   0.674   4.747   1.489
 7075TIP3    H121189   0.724   4.819   1.527
 7075TIP3    H221190   0.583   4.768   1.509
 7076TIP3   OH221191   0.742   2.644   0.201
 7076TIP3    H121192   0.762   2.595   0.121
 7076TIP3    H221193   0.724   2.733   0.171
 7077TIP3   OH221194   4.720   4.206   3.241
 7077TIP3    H121195   4.648   4.164   3.194
 7077TIP3    H221196   4.708   4.179   3.332
 7078TIP3   OH221197   4.175   4.168   5.909
 7078TIP3    H121198   4.248   4.228   5.891
 7078TIP3    H221199   4.157   4.127   5.825
 7079TIP3   OH221200   5.795   5.794   4.769
 7079TIP3    H121201   5.750   5.827   4.847
 7079TIP3    H221202   5.854   5.726   4.802
 7080TIP3   OH221203   4.775   1.124   5.030
 7080TIP3    H121204   4.692   1.110   5.077
 7080TIP3    H221205   4.752   1.113   4.938
 7081TIP3   OH221206   2.214   1.908   1.939
 7081TIP3    H121207   2.198   1.815   1.927
 7081TIP3    H221208   2.306   1.915   1.962
 7082TIP3   OH221209   0.249   6.142   5.747
 7082TIP3    H121210   0.217   6.223   5.706
 7082TIP3    H221211   0.344   6.148   5.739
 7083TIP3   OH221212   7.171   1.110   5.784
 7083TIP3    H121213   7.253   1.111   5.833
 7083TIP3    H221214   7.197   1.086   5.695
 7084TIP3   OH221215   1.541   6.162   2.593
 7084TIP3    H121216   1.553   6.086   2.535
 7084TIP3    H221217   1.570   6.132   2.679
 7085TIP3   OH221218   4.721   5.977   3.800
 7085TIP3    H121219   4.634   5.948   3.773
 7085TIP3    H221220   4.707   6.021   3.884
 7086TIP3   OH221221   2.561   3.398   1.639
 7086TIP3    H121222   2.573   3.307   1.613
 7086TIP3    H221223   2.650   3.432   1.650
 7087TIP3   OH221224   3.008   5.330   2.257
 7087TIP3    H121225   2.922   5.366   2.279
 7087TIP3    H221226   2.996   5.235   2.260
 7088TIP3   OH221227   3.576   4.641   2.945
 7088TIP3    H121228   3.574   4.556   2.988
 7088TIP3    H221229   3.648   4.636   2.883
 7089TIP3   OH221230   0.424   2.185   1.234
 7089TIP3    H121231   0.467   2.109   1.195
 7089TIP3    H221232   0.434   2.255   1.169
 7090TIP3   OH221233   5.784   0.808   4.743
 7090TIP3    H121234   5.741   0.785   4.660
 7090TIP3    H221235   5.846   0.876   4.718
 7091TIP3   OH221236   1.058   2.637   3.398
 7091TIP3    H121237   1.085   2.729   3.391
 7091TIP3    H221238   1.028   2.628   3.488
 7092TIP3   OH221239   6.136   0.386   4.915
 7092TIP3    H121240   6.041   0.373   4.911
 7092TIP3    H221241   6.163   0.340   4.994
 7093TIP3   OH221242   2.581   2.115   4.711
 7093TIP3    H121243   2.573   2.026   4.679
 7093TIP3    H221244   2.675   2.129   4.724
 7094TIP3   OH221245   1.288   6.106   1.633
 7094TIP3    H121246   1.329   6.122   1.717
 7094TIP3    H221247   1.201   6.070   1.654
 7095TIP3   OH221248   2.991   6.793   5.640
 7095TIP3    H121249   3.007   6.735   5.714
 7095TIP3    H221250   2.972   6.879   5.680
 7096TIP3   OH221251   0.757   4.500   1.043
 7096TIP3    H121252   0.740   4.449   1.122
 7096TIP3    H221253   0.721   4.586   1.062
 7097TIP3   OH221254   5.463   6.411   1.304
 7097TIP3    H121255   5.535   6.349   1.302
 7097TIP3    H221256   5.398   6.372   1.363
 7098TIP3   OH221257   4.446   5.392   2.277
 7098TIP3    H121258   4.438   5.451   2.352
 7098TIP3    H221259   4.357   5.363   2.259
 7099TIP3   OH221260   4.505   6.603   4.264
 7099TIP3    H121261   4.572   6.671   4.257
 7099TIP3    H221262   4.512   6.571   4.354
 7100TIP3   OH221263   1.897   6.039   0.567
 7100TIP3    H121264   1.972   6.088   0.602
 7100TIP3    H221265   1.913   5.949   0.594
 7101TIP3   OH221266   5.957   4.877   2.723
 7101TIP3    H121267   6.017   4.951   2.727
 7101TIP3    H221268   6.012   4.800   2.738
 7102TIP3   OH221269   2.953   5.331   4.769
 7102TIP3    H121270   2.895   5.407   4.775
 7102TIP3    H221271   3.041   5.368   4.779
 7103TIP3   OH221272   3.944   4.836   2.097
 7103TIP3    H121273   3.849   4.834   2.105
 7103TIP3    H221274   3.964   4.926   2.070
 7104TIP3   OH221275   0.209   2.846   5.708
 7104TIP3    H121276   0.135   2.898   5.736
 7104TIP3    H221277   0.190   2.757   5.739
 7105TIP3   OH221278   7.107   3.986   0.539
 7105TIP3    H121279   7.123   3.932   0.461
 7105TIP3    H221280   7.179   3.965   0.598
 7106TIP3   OH221281   0.636   4.566   0.189
 7106TIP3    H121282   0.604   4.650   0.156
 7106TIP3    H221283   0.658   4.582   0.280
 7107TIP3   OH221284   3.687   5.011   3.545
 7107TIP3    H121285   3.597   4.996   3.576
 7107TIP3    H221286   3.737   4.938   3.580
 7108TIP3   OH221287   5.497   6.170   3.089
 7108TIP3    H121288   5.504   6.078   3.064
 7108TIP3    H221289   5.528   6.173   3.180
 7109TIP3   OH221290   0.592   2.644   0.706
 7109TIP3    H121291   0.631   2.653   0.619
 7109TIP3    H221292   0.644   2.702   0.762
 7110TIP3   OH221293   3.291   1.179   2.410
 7110TIP3    H121294   3.334   1.142   2.487
 7110TIP3    H221295   3.352   1.162   2.338
 7111TIP3   OH221296   6.397   3.319   0.681
 7111TIP3    H121297   6.447   3.239   0.664
 7111TIP3    H221298   6.305   3.291   0.677
 7112TIP3   OH221299   4.810   2.127   4.456
 7112TIP3    H121300   4.736   2.073   4.427
 7112TIP3    H221301   4.785   2.217   4.433
 7113TIP3   OH221302   1.723   6.626   1.926
 7113TIP3    H121303   1.744   6.679   2.002
 7113TIP3    H221304   1.805   6.619   1.877
 7114TIP3   OH221305   0.017   0.562   3.813
 7114TIP3    H121306   0.090   0.624   3.809
 7114TIP3    H221307  -0.058   0.611   3.780
 7115TIP3   OH221308   2.342   2.376   5.129
 7115TIP3    H121309   2.285   2.422   5.068
 7115TIP3    H221310   2.283   2.349   5.201
 7116TIP3   OH221311   0.873   5.787   3.200
 7116TIP3    H121312   0.806   5.848   3.169
 7116TIP3    H221313   0.828   5.735   3.266
 7117TIP3   OH221314   2.226   4.570   3.675
 7117TIP3    H121315   2.130   4.571   3.675
 7117TIP3    H221316   2.249   4.503   3.611
 7118TIP3   OH221317   5.308   6.419   0.518
 7118TIP3    H121318   5.389   6.467   0.497
 7118TIP3    H221319   5.338   6.333   0.548
 7119TIP3   OH221320   5.013   2.507   5.777
 7119TIP3    H121321   5.043   2.580   5.722
 7119TIP3    H221322   5.040   2.531   5.866
 7120TIP3   OH221323   4.883   4.178   0.840
 7120TIP3    H121324   4.962   4.165   0.787
 7120TIP3    H221325   4.908   4.148   0.927
 7121TIP3   OH221326   3.241   0.791   5.335
 7121TIP3    H121327   3.257   0.879   5.301
 7121TIP3    H221328   3.328   0.759   5.359
 7122TIP3   OH221329   2.923   2.965   3.097
 7122TIP3    H121330   2.850   2.905   3.084
 7122TIP3    H221331   2.888   3.034   3.153
 7123TIP3   OH221332   6.616   0.097   1.283
 7123TIP3    H121333   6.566   0.175   1.262
 7123TIP3    H221334   6.624   0.050   1.200
 7124TIP3   OH221335   1.559   3.384   3.148
 7124TIP3    H121336   1.571   3.319   3.217
 7124TIP3    H221337   1.602   3.346   3.071
 7125TIP3   OH221338   2.732   3.289   5.614
 7125TIP3    H121339   2.645   3.317   5.583
 7125TIP3    H221340   2.784   3.282   5.534
 7126TIP3   OH221341   1.244   6.134   4.239
 7126TIP3    H121342   1.215   6.226   4.245
 7126TIP3    H221343   1.304   6.132   4.165
 7127TIP3   OH221344   5.541   6.493   5.669
 7127TIP3    H121345   5.490   6.520   5.746
 7127TIP3    H221346   5.498   6.535   5.595
 7128TIP3   OH221347   2.054   1.902   4.230
 7128TIP3    H121348   2.115   1.894   4.157
 7128TIP3    H221349   2.097   1.854   4.302
 7129TIP3   OH221350   6.610   5.958   5.768
 7129TIP3    H121351   6.561   6.038   5.747
 7129TIP3    H221352   6.563   5.889   5.721
 7130TIP3   OH221353   0.447   0.115   4.723
 7130TIP3    H121354   0.413   0.101   4.635
 7130TIP3    H221355   0.504   0.192   4.715
 7131TIP3   OH221356   1.205   4.525   2.962
 7131TIP3    H121357   1.199   4.483   2.876
 7131TIP3    H221358   1.142   4.478   3.016
 7132TIP3   OH221359   2.991   4.574   3.240
 7132TIP3    H121360   2.957   4.500   3.189
 7132TIP3    H221361   3.078   4.545   3.268
 7133TIP3   OH221362   0.034   2.652   3.863
 7133TIP3    H121363  -0.018   2.728   3.836
 7133TIP3    H221364   0.036   2.657   3.959
 7134TIP3   OH221365   4.832   4.649   4.645
 7134TIP3    H121366   4.854   4.598   4.723
 7134TIP3    H221367   4.737   4.654   4.646
 7135TIP3   OH221368   3.959   2.266   0.673
 7135TIP3    H121369   4.010   2.245   0.751
 7135TIP3    H221370   3.911   2.186   0.652
 7136TIP3   OH221371   3.325   4.870   4.165
 7136TIP3    H121372   3.318   4.963   4.143
 7136TIP3    H221373   3.248   4.830   4.124
 7137TIP3   OH221374   2.312   0.402   5.388
 7137TIP3    H121375   2.263   0.328   5.424
 7137TIP3    H221376   2.267   0.422   5.305
 7138TIP3   OH221377   5.176   5.973   2.817
 7138TIP3    H121378   5.192   5.949   2.908
 7138TIP3    H221379   5.127   5.899   2.780
 7139TIP3   OH221380   1.404   0.561   3.994
 7139TIP3    H121381   1.366   0.474   3.984
 7139TIP3    H221382   1.447   0.560   4.080
 7140TIP3   OH221383   1.132   2.411   4.981
 7140TIP3    H121384   1.175   2.496   4.969
 7140TIP3    H221385   1.043   2.434   5.009
 7141TIP3   OH221386   5.274   3.322   5.345
 7141TIP3    H121387   5.291   3.411   5.376
 7141TIP3    H221388   5.182   3.307   5.365
 7142TIP3   OH221389   0.269   6.164   1.745
 7142TIP3    H121390   0.207   6.237   1.737
 7142TIP3    H221391   0.355   6.205   1.735
 7143TIP3   OH221392   6.680   3.909   1.378
 7143TIP3    H121393   6.740   3.902   1.304
 7143TIP3    H221394   6.731   3.953   1.447
 7144TIP3   OH221395   5.530   5.508   1.449
 7144TIP3    H121396   5.526   5.534   1.541
 7144TIP3    H221397   5.443   5.474   1.430
 7145TIP3   OH221398   5.887   2.866   1.523
 7145TIP3    H121399   5.858   2.785   1.564
 7145TIP3    H221400   5.826   2.932   1.555
 7146TIP3   OH221401   4.829   4.299   1.558
 7146TIP3    H121402   4.799   4.245   1.631
 7146TIP3    H221403   4.856   4.382   1.599
 7147TIP3   OH221404   2.358   2.187   2.475
 7147TIP3    H121405   2.387   2.113   2.421
 7147TIP3    H221406   2.319   2.146   2.553
 7148TIP3   OH221407   1.338   3.945   5.571
 7148TIP3    H121408   1.283   3.867   5.561
 7148TIP3    H221409   1.345   3.979   5.482
 7149TIP3   OH221410   3.570   3.930   5.053
 7149TIP3    H121411   3.584   3.868   5.125
 7149TIP3    H221412   3.644   3.915   4.995
 7150TIP3   OH221413   0.604   2.867   3.916
 7150TIP3    H121414   0.684   2.879   3.865
 7150TIP3    H221415   0.538   2.918   3.869
 7151TIP3   OH221416   4.450   5.600   4.493
 7151TIP3    H121417   4.458   5.605   4.588
 7151TIP3    H221418   4.437   5.691   4.465
 7152TIP3   OH221419   0.440   6.107   5.203
 7152TIP3    H121420   0.497   6.158   5.146
 7152TIP3    H221421   0.442   6.019   5.166
 7153TIP3   OH221422   1.845   6.675   3.090
 7153TIP3    H121423   1.921   6.721   3.126
 7153TIP3    H221424   1.815   6.618   3.160
 7154TIP3   OH221425   5.835   5.360   2.309
 7154TIP3    H121426   5.838   5.278   2.358
 7154TIP3    H221427   5.925   5.374   2.281
 7155TIP3   OH221428   1.366   0.831   3.967
 7155TIP3    H121429   1.389   0.738   3.967
 7155TIP3    H221430   1.430   0.871   3.907
 7156TIP3   OH221431   2.824   3.844   1.227
 7156TIP3    H121432   2.746   3.849   1.282
 7156TIP3    H221433   2.808   3.907   1.156
 7157TIP3   OH221434   2.826   2.359   5.646
 7157TIP3    H121435   2.913   2.396   5.637
 7157TIP3    H221436   2.807   2.365   5.740
 7158TIP3   OH221437   6.927   5.869   1.275
 7158TIP3    H121438   6.880   5.945   1.309
 7158TIP3    H221439   7.012   5.903   1.249
 7159TIP3   OH221440   3.403   5.014   3.375
 7159TIP3    H121441   3.342   5.041   3.307
 7159TIP3    H221442   3.484   5.062   3.356
 7160TIP3   OH221443   0.200   1.199   3.883
 7160TIP3    H121444   0.164   1.207   3.795
 7160TIP3    H221445   0.154   1.265   3.935
 7161TIP3   OH221446   5.328   4.153   1.285
 7161TIP3    H121447   5.348   4.067   1.247
 7161TIP3    H221448   5.293   4.133   1.372
 7162TIP3   OH221449   4.068   0.734   4.830
 7162TIP3    H121450   4.020   0.798   4.883
 7162TIP3    H221451   4.160   0.755   4.844
 7163TIP3   OH221452   6.081   6.392   5.567
 7163TIP3    H121453   6.012   6.330   5.545
 7163TIP3    H221454   6.162   6.341   5.563
 7164TIP3   OH221455   3.327   1.647   4.180
 7164TIP3    H121456   3.266   1.720   4.172
 7164TIP3    H221457   3.320   1.600   4.097
 7165TIP3   OH221458   2.659   1.402   3.562
 7165TIP3    H121459   2.671   1.442   3.476
 7165TIP3    H221460   2.610   1.321   3.544
 7166TIP3   OH221461   2.585   2.883   5.491
 7166TIP3    H121462   2.623   2.804   5.530
 7166TIP3    H221463   2.506   2.851   5.446
 7167TIP3   OH221464   1.436   1.882   3.228
 7167TIP3    H121465   1.430   1.870   3.133
 7167TIP3    H221466   1.478   1.967   3.239
 7168TIP3   OH221467   3.161   1.398   4.225
 7168TIP3    H121468   3.205   1.452   4.159
 7168TIP3    H221469   3.068   1.412   4.209
 7169TIP3   OH221470   6.596   0.874   3.966
 7169TIP3    H121471   6.639   0.879   3.880
 7169TIP3    H221472   6.505   0.849   3.945
 7170TIP3   OH221473   2.191   1.637   1.948
 7170TIP3    H121474   2.157   1.553   1.916
 7170TIP3    H221475   2.284   1.621   1.963
 7171TIP3   OH221476   7.032   2.718   1.489
 7171TIP3    H121477   7.067   2.633   1.517
 7171TIP3    H221478   6.953   2.730   1.542
 7172TIP3   OH221479   4.446   0.013   4.410
 7172TIP3    H121480   4.433   0.054   4.496
 7172TIP3    H221481   4.539  -0.009   4.408
 7173TIP3   OH221482   4.747   6.020   1.343
 7173TIP3    H121483   4.719   6.101   1.301
 7173TIP3    H221484   4.833   6.040   1.380
 7174TIP3   OH221485   6.943   3.162   4.007
 7174TIP3    H121486   6.875   3.095   4.011
 7174TIP3    H221487   6.951   3.193   4.097
 7175TIP3   OH221488   0.856   0.532   2.253
 7175TIP3    H121489   0.784   0.469   2.250
 7175TIP3    H221490   0.836   0.595   2.184
 7176TIP3   OH221491   2.365   3.684   2.700
 7176TIP3    H121492   2.344   3.591   2.703
 7176TIP3    H221493   2.414   3.695   2.618
 7177TIP3   OH221494   1.602   6.043   3.164
 7177TIP3    H121495   1.613   6.090   3.081
 7177TIP3    H221496   1.508   6.035   3.176
 7178TIP3   OH221497   6.990   1.287   2.876
 7178TIP3    H121498   6.980   1.196   2.902
 7178TIP3    H221499   7.084   1.298   2.862
 7179TIP3   OH221500   0.198   4.153   2.801
 7179TIP3    H121501   0.113   4.110   2.790
 7179TIP3    H221502   0.178   4.247   2.799
 7180TIP3   OH221503   6.157   5.824   0.966
 7180TIP3    H121504   6.109   5.742   0.958
 7180TIP3    H221505   6.089   5.892   0.957
 7181TIP3   OH221506   5.701   3.068   1.270
 7181TIP3    H121507   5.700   2.974   1.290
 7181TIP3    H221508   5.793   3.093   1.280
 7182TIP3   OH221509   2.145   4.368   4.350
 7182TIP3    H121510   2.198   4.289   4.355
 7182TIP3    H221511   2.181   4.418   4.277
 7183TIP3   OH221512   5.906   1.209   2.311
 7183TIP3    H121513   5.849   1.164   2.373
 7183TIP3    H221514   5.959   1.267   2.366
 7184TIP3   OH221515   5.685   5.562   2.368
 7184TIP3    H121516   5.712   5.474   2.341
 7184TIP3    H221517   5.593   5.569   2.341
 7185TIP3   OH221518   4.258   0.345   3.407
 7185TIP3    H121519   4.320   0.334   3.335
 7185TIP3    H221520   4.180   0.382   3.366
 7186TIP3   OH221521   4.351   5.171   4.588
 7186TIP3    H121522   4.269   5.140   4.625
 7186TIP3    H221523   4.329   5.255   4.548
 7187TIP3   OH221524   0.535   6.137   5.721
 7187TIP3    H121525   0.537   6.219   5.671
 7187TIP3    H221526   0.626   6.106   5.720
 7188TIP3   OH221527   0.530   0.364   0.050
 7188TIP3    H121528   0.478   0.419  -0.008
 7188TIP3    H221529   0.569   0.424   0.113
 7189TIP3   OH221530   5.008   4.532   3.348
 7189TIP3    H121531   5.053   4.616   3.347
 7189TIP3    H221532   5.012   4.504   3.439
 7190TIP3   OH221533   6.935   5.242   3.961
 7190TIP3    H121534   6.964   5.267   3.874
 7190TIP3    H221535   6.952   5.320   4.015
 7191TIP3   OH221536   0.224   3.237   3.247
 7191TIP3    H121537   0.131   3.250   3.265
 7191TIP3    H221538   0.268   3.296   3.308
 7192TIP3   OH221539   4.407   2.752   0.349
 7192TIP3    H121540   4.358   2.728   0.270
 7192TIP3    H221541   4.341   2.759   0.418
 7193TIP3   OH221542   4.046   3.166   5.321
 7193TIP3    H121543   4.008   3.240   5.273
 7193TIP3    H221544   4.016   3.178   5.411
 7194TIP3   OH221545   2.260   1.672   3.900
 7194TIP3    H121546   2.264   1.708   3.812
 7194TIP3    H221547   2.174   1.631   3.906
 7195TIP3   OH221548   6.791   3.365   4.512
 7195TIP3    H121549   6.861   3.330   4.567
 7195TIP3    H221550   6.833   3.384   4.429
 7196TIP3   OH221551   5.176   0.764   2.395
 7196TIP3    H121552   5.249   0.770   2.333
 7196TIP3    H221553   5.171   0.672   2.418
 7197TIP3   OH221554   4.621   5.651   1.187
 7197TIP3    H121555   4.609   5.704   1.267
 7197TIP3    H221556   4.533   5.642   1.151
 7198TIP3   OH221557   3.160   4.603   0.679
 7198TIP3    H121558   3.195   4.653   0.753
 7198TIP3    H221559   3.172   4.660   0.603
 7199TIP3   OH221560   5.167   0.263   3.503
 7199TIP3    H121561   5.259   0.238   3.512
 7199TIP3    H221562   5.135   0.212   3.428
 7200TIP3   OH221563   0.205   5.020   4.785
 7200TIP3    H121564   0.117   4.992   4.759
 7200TIP3    H221565   0.214   5.108   4.747
 7201TIP3   OH221566   6.671   4.765   5.611
 7201TIP3    H121567   6.726   4.823   5.663
 7201TIP3    H221568   6.731   4.723   5.549
 7202TIP3   OH221569   5.898   4.336   1.079
 7202TIP3    H121570   5.986   4.360   1.109
 7202TIP3    H221571   5.900   4.241   1.075
 7203TIP3   OH221572   7.041   4.626   2.888
 7203TIP3    H121573   7.054   4.558   2.821
 7203TIP3    H221574   7.123   4.675   2.888
 7204TIP3   OH221575   4.908   1.553   0.867
 7204TIP3    H121576   4.966   1.483   0.836
 7204TIP3    H221577   4.894   1.608   0.790
 7205TIP3   OH221578   3.441   1.510   4.870
 7205TIP3    H121579   3.458   1.439   4.932
 7205TIP3    H221580   3.361   1.483   4.824
 7206TIP3   OH221581   3.228   2.952   2.163
 7206TIP3    H121582   3.234   2.880   2.100
 7206TIP3    H221583   3.270   2.919   2.242
 7207TIP3   OH221584   2.512   6.033   4.279
 7207TIP3    H121585   2.530   6.113   4.328
 7207TIP3    H221586   2.556   6.047   4.194
 7208TIP3   OH221587   3.858   0.195   0.601
 7208TIP3    H121588   3.821   0.149   0.525
 7208TIP3    H221589   3.933   0.141   0.627
 7209TIP3   OH221590   4.696   5.155   3.311
 7209TIP3    H121591   4.747   5.217   3.362
 7209TIP3    H221592   4.750   5.136   3.234
 7210TIP3   OH221593   1.015   4.418   5.816
 7210TIP3    H121594   1.081   4.396   5.749
 7210TIP3    H221595   0.968   4.335   5.829
 7211TIP3   OH221596   7.152   0.362   3.630
 7211TIP3    H121597   7.193   0.354   3.544
 7211TIP3    H221598   7.160   0.454   3.653
 7212TIP3   OH221599   2.103   0.725   2.738
 7212TIP3    H121600   2.113   0.818   2.756
 7212TIP3    H221601   2.041   0.694   2.805
 7213TIP3   OH221602   6.019   2.436   1.715
 7213TIP3    H121603   6.038   2.525   1.687
 7213TIP3    H221604   6.078   2.381   1.663
 7214TIP3   OH221605   2.073   0.087   1.115
 7214TIP3    H121606   2.101   0.081   1.207
 7214TIP3    H221607   2.081  -0.003   1.083
 7215TIP3   OH221608   2.240   2.433   2.035
 7215TIP3    H121609   2.250   2.339   2.023
 7215TIP3    H221610   2.329   2.465   2.051
 7216TIP3   OH221611   5.910   1.270   1.422
 7216TIP3    H121612   5.816   1.274   1.438
 7216TIP3    H221613   5.950   1.316   1.496
 7217TIP3   OH221614   2.883   0.145   4.521
 7217TIP3    H121615   2.924   0.229   4.501
 7217TIP3    H221616   2.905   0.129   4.613
 7218TIP3   OH221617   1.718   6.537   0.122
 7218TIP3    H121618   1.662   6.601   0.078
 7218TIP3    H221619   1.791   6.523   0.062
 7219TIP3   OH221620   3.333   0.298   0.597
 7219TIP3    H121621   3.344   0.375   0.653
 7219TIP3    H221622   3.253   0.316   0.548
 7220TIP3   OH221623   3.920   5.577   0.476
 7220TIP3    H121624   3.976   5.620   0.542
 7220TIP3    H221625   3.836   5.622   0.484
 7221TIP3   OH221626   1.725   5.368   5.740
 7221TIP3    H121627   1.736   5.386   5.833
 7221TIP3    H221628   1.630   5.357   5.729
 7222TIP3   OH221629   2.025   4.373   3.213
 7222TIP3    H121630   2.105   4.329   3.184
 7222TIP3    H221631   1.962   4.356   3.144
 7223TIP3   OH221632   3.709   4.543   4.810
 7223TIP3    H121633   3.768   4.613   4.837
 7223TIP3    H221634   3.637   4.547   4.874
 7224TIP3   OH221635   6.156   0.747   0.062
 7224TIP3    H121636   6.077   0.802   0.062
 7224TIP3    H221637   6.177   0.734   0.154
 7225TIP3   OH221638   2.313   6.442   4.268
 7225TIP3    H121639   2.363   6.403   4.196
 7225TIP3    H221640   2.266   6.515   4.226
 7226TIP3   OH221641   0.827   2.399   1.545
 7226TIP3    H121642   0.781   2.328   1.591
 7226TIP3    H221643   0.891   2.431   1.608
 7227TIP3   OH221644   4.804   2.336   4.089
 7227TIP3    H121645   4.747   2.341   4.012
 7227TIP3    H221646   4.834   2.426   4.102
 7228TIP3   OH221647   5.061   2.005   4.542
 7228TIP3    H121648   5.050   1.910   4.539
 7228TIP3    H221649   4.974   2.040   4.525
 7229TIP3   OH221650   3.408   4.247   3.967
 7229TIP3    H121651   3.379   4.160   3.994
 7229TIP3    H221652   3.360   4.264   3.885
 7230TIP3   OH221653   0.232   5.414   3.994
 7230TIP3    H121654   0.179   5.408   3.915
 7230TIP3    H221655   0.238   5.508   4.012
 7231TIP3   OH221656   7.096   0.702   1.206
 7231TIP3    H121657   7.183   0.663   1.198
 7231TIP3    H221658   7.057   0.658   1.282
 7232TIP3   OH221659   0.897   5.476   4.128
 7232TIP3    H121660   0.917   5.539   4.197
 7232TIP3    H221661   0.978   5.470   4.078
 7233TIP3   OH221662   7.099   5.867   0.378
 7233TIP3    H121663   7.069   5.888   0.290
 7233TIP3    H221664   7.019   5.861   0.430
 7234TIP3   OH221665   0.767   1.292   3.303
 7234TIP3    H121666   0.737   1.285   3.394
 7234TIP3    H221667   0.765   1.385   3.284
 7235TIP3   OH221668   6.328   4.044   5.020
 7235TIP3    H121669   6.295   4.133   5.004
 7235TIP3    H221670   6.404   4.036   4.962
 7236TIP3   OH221671   0.351   3.308   2.270
 7236TIP3    H121672   0.299   3.388   2.264
 7236TIP3    H221673   0.397   3.303   2.186
 7237TIP3   OH221674   0.210   1.574   3.836
 7237TIP3    H121675   0.216   1.669   3.849
 7237TIP3    H221676   0.121   1.560   3.805
 7238TIP3   OH221677   1.010   0.291   1.340
 7238TIP3    H121678   1.047   0.379   1.344
 7238TIP3    H221679   1.068   0.237   1.394
 7239TIP3   OH221680   4.892   0.910   4.474
 7239TIP3    H121681   4.928   0.870   4.553
 7239TIP3    H221682   4.883   0.837   4.412
 7240TIP3   OH221683   6.093   3.403   0.006
 7240TIP3    H121684   6.048   3.320   0.021
 7240TIP3    H221685   6.169   3.381  -0.047
 7241TIP3   OH221686   5.708   2.477   3.239
 7241TIP3    H121687   5.617   2.506   3.238
 7241TIP3    H221688   5.723   2.448   3.329
 7242TIP3   OH221689   3.437   3.235   5.149
 7242TIP3    H121690   3.463   3.210   5.238
 7242TIP3    H221691   3.454   3.329   5.145
 7243TIP3   OH221692   0.720   5.583   3.423
 7243TIP3    H121693   0.792   5.520   3.412
 7243TIP3    H221694   0.652   5.533   3.469
 7244TIP3   OH221695   6.259   6.450   1.184
 7244TIP3    H121696   6.330   6.513   1.184
 7244TIP3    H221697   6.252   6.420   1.275
 7245TIP3   OH221698   3.967   2.493   5.430
 7245TIP3    H121699   3.978   2.410   5.383
 7245TIP3    H221700   4.056   2.527   5.440
 7246TIP3   OH221701   7.161   1.222   1.568
 7246TIP3    H121702   7.204   1.175   1.639
 7246TIP3    H221703   7.071   1.234   1.598
 7247TIP3   OH221704   2.028   3.695   2.749
 7247TIP3    H121705   2.104   3.727   2.701
 7247TIP3    H221706   1.970   3.770   2.757
 7248TIP3   OH221707   3.009   0.378   4.477
 7248TIP3    H121708   3.050   0.404   4.560
 7248TIP3    H221709   2.966   0.458   4.446
 7249TIP3   OH221710   3.945   6.087   1.677
 7249TIP3    H121711   3.973   6.056   1.764
 7249TIP3    H221712   3.990   6.171   1.666
 7250TIP3   OH221713   4.960   6.049   0.881
 7250TIP3    H121714   4.947   6.116   0.814
 7250TIP3    H221715   5.051   6.022   0.870
 7251TIP3   OH221716   4.220   4.382   3.676
 7251TIP3    H121717   4.292   4.357   3.617
 7251TIP3    H221718   4.263   4.409   3.756
 7252TIP3   OH221719   6.826   3.154   3.122
 7252TIP3    H121720   6.778   3.080   3.160
 7252TIP3    H221721   6.763   3.196   3.063
 7253TIP3   OH221722   7.171   4.685   4.561
 7253TIP3    H121723   7.101   4.741   4.527
 7253TIP3    H221724   7.160   4.688   4.656
 7254TIP3   OH221725   4.048   0.636   0.466
 7254TIP3    H121726   4.110   0.564   0.480
 7254TIP3    H221727   3.981   0.624   0.533
 7255TIP3   OH221728   1.719   0.715   5.174
 7255TIP3    H121729   1.733   0.625   5.204
 7255TIP3    H221730   1.792   0.733   5.114
 7256TIP3   OH221731   4.215   1.011   5.087
 7256TIP3    H121732   4.139   1.069   5.077
 7256TIP3    H221733   4.188   0.950   5.156
 7257TIP3   OH221734   0.735   5.309   4.942
 7257TIP3    H121735   0.747   5.404   4.939
 7257TIP3    H221736   0.642   5.296   4.928
 7258TIP3   OH221737   0.444   0.711   5.310
 7258TIP3    H121738   0.531   0.717   5.270
 7258TIP3    H221739   0.395   0.783   5.272
 7259TIP3   OH221740   4.633   1.211   0.877
 7259TIP3    H121741   4.673   1.125   0.866
 7259TIP3    H221742   4.665   1.262   0.802
 7260TIP3   OH221743   6.299   5.166   0.229
 7260TIP3    H121744   6.290   5.181   0.135
 7260TIP3    H221745   6.231   5.101   0.249
 7261TIP3   OH221746   5.159   2.451   3.091
 7261TIP3    H121747   5.092   2.516   3.069
 7261TIP3    H221748   5.110   2.378   3.131
 7262TIP3   OH221749   3.704   0.834   5.521
 7262TIP3    H121750   3.694   0.832   5.616
 7262TIP3    H221751   3.786   0.786   5.505
 7263TIP3   OH221752   1.177   4.945  -0.018
 7263TIP3    H121753   1.265   4.979  -0.031
 7263TIP3    H221754   1.183   4.889   0.060
 7264TIP3   OH221755   0.303   5.018   3.171
 7264TIP3    H121756   0.357   4.984   3.100
 7264TIP3    H221757   0.362   5.016   3.247
 7265TIP3   OH221758   3.610   2.224   3.040
 7265TIP3    H121759   3.521   2.190   3.045
 7265TIP3    H221760   3.652   2.171   2.972
 7266TIP3   OH221761   3.058   6.652   4.318
 7266TIP3    H121762   3.106   6.731   4.294
 7266TIP3    H221763   3.029   6.669   4.408
 7267TIP3   OH221764   5.065   5.946   1.892
 7267TIP3    H121765   5.051   5.865   1.941
 7267TIP3    H221766   5.122   5.998   1.949
 7268TIP3   OH221767   2.004   4.382   0.579
 7268TIP3    H121768   1.970   4.364   0.666
 7268TIP3    H221769   1.972   4.470   0.558
 7269TIP3   OH221770   1.838   2.805   1.572
 7269TIP3    H121771   1.863   2.819   1.663
 7269TIP3    H221772   1.799   2.718   1.570
 7270TIP3   OH221773   1.976   5.895   5.712
 7270TIP3    H121774   2.008   5.885   5.802
 7270TIP3    H221775   1.949   5.987   5.706
 7271TIP3   OH221776   3.334   2.260   1.513
 7271TIP3    H121777   3.357   2.230   1.425
 7271TIP3    H221778   3.351   2.185   1.570
 7272TIP3   OH221779   5.156   3.605   1.136
 7272TIP3    H121780   5.188   3.518   1.113
 7272TIP3    H221781   5.120   3.594   1.225
 7273TIP3   OH221782   3.983   0.481   0.176
 7273TIP3    H121783   3.935   0.564   0.182
 7273TIP3    H221784   4.024   0.471   0.262
 7274TIP3   OH221785   0.304   0.823   1.614
 7274TIP3    H121786   0.365   0.887   1.652
 7274TIP3    H221787   0.260   0.785   1.690
 7275TIP3   OH221788   1.591   0.951   4.439
 7275TIP3    H121789   1.684   0.935   4.423
 7275TIP3    H221790   1.546   0.914   4.364
 7276TIP3   OH221791   5.653   1.221   1.051
 7276TIP3    H121792   5.581   1.284   1.057
 7276TIP3    H221793   5.616   1.138   1.082
 7277TIP3   OH221794   1.175   5.962   2.704
 7277TIP3    H121795   1.148   6.051   2.726
 7277TIP3    H221796   1.242   5.942   2.769
 7278TIP3   OH221797   6.977   4.242   0.228
 7278TIP3    H121798   6.895   4.255   0.180
 7278TIP3    H221799   6.951   4.237   0.320
 7279TIP3   OH221800   4.243   3.028   3.885
 7279TIP3    H121801   4.242   3.018   3.790
 7279TIP3    H221802   4.227   3.122   3.899
 7280TIP3   OH221803   3.866   2.400   0.137
 7280TIP3    H121804   3.835   2.364   0.054
 7280TIP3    H221805   3.802   2.468   0.158
 7281TIP3   OH221806   1.493   5.377   3.359
 7281TIP3    H121807   1.494   5.324   3.279
 7281TIP3    H221808   1.576   5.425   3.356
 7282TIP3   OH221809   4.525   1.936   2.998
 7282TIP3    H121810   4.570   1.964   3.078
 7282TIP3    H221811   4.592   1.936   2.931
 7283TIP3   OH221812   4.571   2.999   3.610
 7283TIP3    H121813   4.638   3.024   3.673
 7283TIP3    H221814   4.561   3.075   3.553
 7284TIP3   OH221815   1.348   6.747   1.282
 7284TIP3    H121816   1.311   6.829   1.316
 7284TIP3    H221817   1.328   6.682   1.349
 7285TIP3   OH221818   6.683   4.606   2.231
 7285TIP3    H121819   6.599   4.641   2.201
 7285TIP3    H221820   6.747   4.640   2.169
 7286TIP3   OH221821   3.341   0.157   2.060
 7286TIP3    H121822   3.420   0.150   2.005
 7286TIP3    H221823   3.333   0.072   2.102
 7287TIP3   OH221824   5.468   6.157   4.446
 7287TIP3    H121825   5.527   6.089   4.414
 7287TIP3    H221826   5.514   6.195   4.521
 7288TIP3   OH221827   0.730   0.574   3.129
 7288TIP3    H121828   0.634   0.578   3.136
 7288TIP3    H221829   0.751   0.633   3.056
 7289TIP3   OH221830   3.226   0.960   5.052
 7289TIP3    H121831   3.299   0.994   5.000
 7289TIP3    H221832   3.234   1.006   5.136
 7290TIP3   OH221833   4.565   4.845   1.782
 7290TIP3    H121834   4.563   4.905   1.708
 7290TIP3    H221835   4.650   4.860   1.822
 7291TIP3   OH221836   6.633   4.334   4.437
 7291TIP3    H121837   6.550   4.322   4.390
 7291TIP3    H221838   6.671   4.413   4.399
 7292TIP3   OH221839   2.799   5.407   2.862
 7292TIP3    H121840   2.836   5.418   2.949
 7292TIP3    H221841   2.758   5.321   2.864
 7293TIP3   OH221842   1.828   0.222   5.487
 7293TIP3    H121843   1.752   0.248   5.537
 7293TIP3    H221844   1.838   0.128   5.505
 7294TIP3   OH221845   5.295   2.307   3.934
 7294TIP3    H121846   5.234   2.351   3.993
 7294TIP3    H221847   5.373   2.362   3.935
 7295TIP3   OH221848   6.246   0.280   5.704
 7295TIP3    H121849   6.292   0.214   5.755
 7295TIP3    H221850   6.308   0.307   5.637
 7296TIP3   OH221851   4.089   6.657   1.694
 7296TIP3    H121852   4.048   6.599   1.629
 7296TIP3    H221853   4.068   6.746   1.663
 7297TIP3   OH221854   5.476   1.393   5.707
 7297TIP3    H121855   5.466   1.483   5.677
 7297TIP3    H221856   5.503   1.401   5.799
 7298TIP3   OH221857   0.486   6.452   0.521
 7298TIP3    H121858   0.409   6.418   0.566
 7298TIP3    H221859   0.555   6.450   0.587
 7299TIP3   OH221860   1.721   1.853   0.150
 7299TIP3    H121861   1.644   1.829   0.202
 7299TIP3    H221862   1.685   1.887   0.069
 7300TIP3   OH221863   6.108   5.836   4.869
 7300TIP3    H121864   6.103   5.741   4.861
 7300TIP3    H221865   6.071   5.855   4.955
 7301TIP3   OH221866   3.921   0.401   1.589
 7301TIP3    H121867   3.943   0.451   1.510
 7301TIP3    H221868   3.979   0.326   1.588
 7302TIP3   OH221869   5.055   1.966   4.831
 7302TIP3    H121870   4.969   1.924   4.830
 7302TIP3    H221871   5.109   1.910   4.888
 7303TIP3   OH221872   5.391   6.592   0.889
 7303TIP3    H121873   5.413   6.510   0.845
 7303TIP3    H221874   5.466   6.610   0.946
 7304TIP3   OH221875   6.834   3.223   2.114
 7304TIP3    H121876   6.866   3.300   2.067
 7304TIP3    H221877   6.909   3.194   2.166
 7305TIP3   OH221878   5.956   6.278   0.300
 7305TIP3    H121879   5.935   6.218   0.372
 7305TIP3    H221880   6.036   6.243   0.261
 7306TIP3   OH221881   6.486   2.397   3.204
 7306TIP3    H121882   6.559   2.375   3.146
 7306TIP3    H221883   6.527   2.425   3.285
 7307TIP3   OH221884   6.152   3.710   1.493
 7307TIP3    H121885   6.173   3.718   1.400
 7307TIP3    H221886   6.132   3.800   1.521
 7308TIP3   OH221887   5.855   0.867   1.309
 7308TIP3    H121888   5.810   0.948   1.285
 7308TIP3    H221889   5.938   0.896   1.347
 7309TIP3   OH221890   2.751   5.316   5.123
 7309TIP3    H121891   2.819   5.254   5.148
 7309TIP3    H221892   2.783   5.355   5.041
 7310TIP3   OH221893   1.175   1.776   0.670
 7310TIP3    H121894   1.172   1.681   0.683
 7310TIP3    H221895   1.216   1.787   0.584
 7311TIP3   OH221896   2.625   0.111   0.133
 7311TIP3    H121897   2.630   0.182   0.068
 7311TIP3    H221898   2.531   0.091   0.139
 7312TIP3   OH221899   6.852   0.415   2.578
 7312TIP3    H121900   6.940   0.443   2.553
 7312TIP3    H221901   6.799   0.494   2.569
 7313TIP3   OH221902   2.239   0.889   5.451
 7313TIP3    H121903   2.301   0.919   5.384
 7313TIP3    H221904   2.261   0.798   5.465
 7314TIP3   OH221905   3.497   2.178   0.669
 7314TIP3    H121906   3.518   2.092   0.633
 7314TIP3    H221907   3.532   2.240   0.605
 7315TIP3   OH221908   1.648   0.424   3.506
 7315TIP3    H121909   1.572   0.455   3.456
 7315TIP3    H221910   1.635   0.460   3.594
 7316TIP3   OH221911   6.484   3.006   1.028
 7316TIP3    H121912   6.529   2.953   0.963
 7316TIP3    H221913   6.455   2.943   1.094
 7317TIP3   OH221914   4.330   3.798   5.754
 7317TIP3    H121915   4.318   3.821   5.846
 7317TIP3    H221916   4.345   3.881   5.710
 7318TIP3   OH221917   2.312   0.168   4.053
 7318TIP3    H121918   2.265   0.165   4.137
 7318TIP3    H221919   2.404   0.163   4.078
 7319TIP3   OH221920   5.393   2.798   4.371
 7319TIP3    H121921   5.469   2.856   4.376
 7319TIP3    H221922   5.328   2.839   4.429
 7320TIP3   OH221923   4.816   1.529   5.317
 7320TIP3    H121924   4.722   1.533   5.300
 7320TIP3    H221925   4.850   1.476   5.244
 7321TIP3   OH221926   4.925   1.981   1.044
 7321TIP3    H121927   4.880   1.902   1.074
 7321TIP3    H221928   5.018   1.956   1.042
 7322TIP3   OH221929   4.537   1.468   4.846
 7322TIP3    H121930   4.477   1.539   4.868
 7322TIP3    H221931   4.624   1.502   4.869
 7323TIP3   OH221932   6.338   2.650   5.187
 7323TIP3    H121933   6.349   2.597   5.108
 7323TIP3    H221934   6.313   2.587   5.255
 7324TIP3   OH221935   6.587   1.541   2.431
 7324TIP3    H121936   6.503   1.496   2.422
 7324TIP3    H221937   6.590   1.601   2.357
 7325TIP3   OH221938   6.958   3.421   0.207
 7325TIP3    H121939   6.914   3.463   0.133
 7325TIP3    H221940   6.954   3.485   0.278
 7326TIP3   OH221941   1.909   1.564   3.121
 7326TIP3    H121942   1.818   1.588   3.140
 7326TIP3    H221943   1.946   1.639   3.076
 7327TIP3   OH221944   4.868   5.690   1.081
 7327TIP3    H121945   4.783   5.673   1.122
 7327TIP3    H221946   4.847   5.740   1.002
 7328TIP3   OH221947   1.359   3.317   5.165
 7328TIP3    H121948   1.299   3.252   5.127
 7328TIP3    H221949   1.399   3.272   5.239
 7329TIP3   OH221950   1.313   1.067   2.033
 7329TIP3    H121951   1.235   1.062   2.088
 7329TIP3    H221952   1.385   1.070   2.096
 7330TIP3   OH221953   1.884   3.333   1.316
 7330TIP3    H121954   1.850   3.391   1.248
 7330TIP3    H221955   1.975   3.360   1.329
 7331TIP3   OH221956   7.002   1.873   4.676
 7331TIP3    H121957   7.026   1.890   4.767
 7331TIP3    H221958   6.918   1.827   4.681
 7332TIP3   OH221959   6.129   4.104   1.934
 7332TIP3    H121960   6.078   4.183   1.918
 7332TIP3    H221961   6.132   4.060   1.849
 7333TIP3   OH221962   6.983   5.359   4.527
 7333TIP3    H121963   6.958   5.277   4.484
 7333TIP3    H221964   6.964   5.427   4.462
 7334TIP3   OH221965   1.044   1.476   4.044
 7334TIP3    H121966   1.013   1.519   3.964
 7334TIP3    H221967   1.135   1.503   4.052
 7335TIP3   OH221968   5.732   0.520   5.544
 7335TIP3    H121969   5.748   0.612   5.523
 7335TIP3    H221970   5.686   0.486   5.467
 7336TIP3   OH221971   5.092   2.535   2.208
 7336TIP3    H121972   5.043   2.540   2.125
 7336TIP3    H221973   5.118   2.626   2.225
 7337TIP3   OH221974   4.718   4.695   3.387
 7337TIP3    H121975   4.804   4.654   3.389
 7337TIP3    H221976   4.658   4.625   3.415
 7338TIP3   OH221977   1.076   5.567   4.846
 7338TIP3    H121978   0.985   5.563   4.815
 7338TIP3    H221979   1.090   5.482   4.888
 7339TIP3   OH221980   7.196   4.126   2.313
 7339TIP3    H121981   7.275   4.120   2.368
 7339TIP3    H221982   7.125   4.094   2.369
 7340TIP3   OH221983   2.007   5.661   0.181
 7340TIP3    H121984   1.913   5.662   0.163
 7340TIP3    H221985   2.042   5.735   0.132
 7341TIP3   OH221986   0.966   0.215   1.958
 7341TIP3    H121987   0.917   0.133   1.950
 7341TIP3    H221988   0.998   0.215   2.048
 7342TIP3   OH221989   1.856   4.118   2.403
 7342TIP3    H121990   1.886   4.040   2.357
 7342TIP3    H221991   1.777   4.145   2.356
 7343TIP3   OH221992   4.642   0.204   4.124
 7343TIP3    H121993   4.678   0.153   4.196
 7343TIP3    H221994   4.647   0.146   4.048
 7344TIP3   OH221995   1.190   1.248   0.247
 7344TIP3    H121996   1.177   1.270   0.155
 7344TIP3    H221997   1.264   1.302   0.275
 7345TIP3   OH221998   5.868   5.053   3.153
 7345TIP3    H121999   5.818   5.101   3.219
 7345TIP3    H222000   5.951   5.100   3.147
 7346TIP3   OH222001   6.922   5.469   0.958
 7346TIP3    H122002   6.913   5.486   1.052
 7346TIP3    H222003   6.942   5.555   0.920
 7347TIP3   OH222004   4.168   3.609   2.051
 7347TIP3    H122005   4.116   3.599   1.971
 7347TIP3    H222006   4.104   3.613   2.122
 7348TIP3   OH222007   0.703   2.545   5.422
 7348TIP3    H122008   0.744   2.520   5.505
 7348TIP3    H222009   0.774   2.585   5.371
 7349TIP3   OH222010   0.246   2.485   3.209
 7349TIP3    H122011   0.340   2.490   3.192
 7349TIP3    H222012   0.229   2.391   3.223
 7350TIP3   OH222013   6.566   4.806   5.172
 7350TIP3    H122014   6.599   4.863   5.102
 7350TIP3    H222015   6.496   4.756   5.131
 7351TIP3   OH222016   1.029   5.268   4.623
 7351TIP3    H122017   0.960   5.251   4.559
 7351TIP3    H222018   1.006   5.214   4.698
 7352TIP3   OH222019   3.160   0.715   4.937
 7352TIP3    H122020   3.201   0.787   4.985
 7352TIP3    H222021   3.089   0.685   4.994
 7353TIP3   OH222022   5.192   2.703   0.916
 7353TIP3    H122023   5.238   2.641   0.860
 7353TIP3    H222024   5.110   2.720   0.870
 7354TIP3   OH222025   6.948   6.494   5.706
 7354TIP3    H122026   7.018   6.447   5.661
 7354TIP3    H222027   6.993   6.548   5.771
 7355TIP3   OH222028   4.283   6.057   0.755
 7355TIP3    H122029   4.306   6.043   0.663
 7355TIP3    H222030   4.341   5.998   0.803
 7356TIP3   OH222031   7.062   4.330   2.169
 7356TIP3    H122032   7.099   4.324   2.080
 7356TIP3    H222033   7.126   4.285   2.224
 7357TIP3   OH222034   5.287   5.376   5.629
 7357TIP3    H122035   5.280   5.319   5.706
 7357TIP3    H222036   5.337   5.451   5.660
 7358TIP3   OH222037   2.836   4.485   0.045
 7358TIP3    H122038   2.930   4.500   0.054
 7358TIP3    H222039   2.828   4.426  -0.029
 7359TIP3   OH222040   7.017   0.765   2.659
 7359TIP3    H122041   7.037   0.779   2.752
 7359TIP3    H222042   7.046   0.846   2.616
 7360TIP3   OH222043   5.632   0.142   1.385
 7360TIP3    H122044   5.644   0.124   1.291
 7360TIP3    H222045   5.624   0.056   1.425
 7361TIP3   OH222046   3.740   1.541   5.565
 7361TIP3    H122047   3.789   1.495   5.497
 7361TIP3    H222048   3.794   1.534   5.643
 7362TIP3   OH222049   5.773   3.170   2.342
 7362TIP3    H122050   5.759   3.121   2.423
 7362TIP3    H222051   5.764   3.262   2.368
 7363TIP3   OH222052   1.713   0.207   2.316
 7363TIP3    H122053   1.624   0.235   2.295
 7363TIP3    H222054   1.725   0.228   2.408
 7364TIP3   OH222055   1.691   2.442   1.561
 7364TIP3    H122056   1.614   2.489   1.592
 7364TIP3    H222057   1.699   2.366   1.619
 7365TIP3   OH222058   6.684   2.110   4.021
 7365TIP3    H122059   6.765   2.061   4.011
 7365TIP3    H222060   6.709   2.201   4.005
 7366TIP3   OH222061   4.886   3.826   5.203
 7366TIP3    H122062   4.909   3.911   5.239
 7366TIP3    H222063   4.807   3.842   5.152
 7367TIP3   OH222064   1.229   2.200   0.899
 7367TIP3    H122065   1.304   2.224   0.953
 7367TIP3    H222066   1.167   2.272   0.910
 7368TIP3   OH222067   1.374   2.412   1.448
 7368TIP3    H122068   1.439   2.350   1.414
 7368TIP3    H222069   1.365   2.477   1.378
 7369TIP3   OH222070   0.908   5.827   5.639
 7369TIP3    H122071   0.977   5.839   5.704
 7369TIP3    H222072   0.944   5.763   5.577
 7370TIP3   OH222073   5.636   0.633   4.509
 7370TIP3    H122074   5.612   0.561   4.450
 7370TIP3    H222075   5.613   0.712   4.461
 7371TIP3   OH222076   1.255   2.876   3.388
 7371TIP3    H122077   1.315   2.928   3.335
 7371TIP3    H222078   1.287   2.786   3.379
 7372TIP3   OH222079   5.636   4.331   1.125
 7372TIP3    H122080   5.730   4.336   1.108
 7372TIP3    H222081   5.604   4.264   1.064
 7373TIP3   OH222082   5.061   6.210   1.167
 7373TIP3    H122083   5.048   6.166   1.251
 7373TIP3    H222084   5.148   6.183   1.139
 7374TIP3   OH222085   5.562   6.079   3.351
 7374TIP3    H122086   5.552   6.143   3.422
 7374TIP3    H222087   5.627   6.017   3.385
 7375TIP3   OH222088   1.181   2.302   1.660
 7375TIP3    H122089   1.233   2.345   1.592
 7375TIP3    H222090   1.226   2.219   1.676
 7376TIP3   OH222091   0.001   2.368   5.658
 7376TIP3    H122092  -0.008   2.289   5.711
 7376TIP3    H222093   0.091   2.366   5.627
 7377TIP3   OH222094   0.641   3.537   0.247
 7377TIP3    H122095   0.651   3.507   0.337
 7377TIP3    H222096   0.706   3.487   0.197
 7378TIP3   OH222097   3.089   1.656   3.547
 7378TIP3    H122098   3.083   1.735   3.493
 7378TIP3    H222099   3.006   1.652   3.593
 7379TIP3   OH222100   3.625   4.600   0.238
 7379TIP3    H122101   3.645   4.690   0.264
 7379TIP3    H222102   3.536   4.606   0.201
 7380TIP3   OH222103   0.058   2.156   4.724
 7380TIP3    H122104  -0.025   2.178   4.766
 7380TIP3    H222105   0.123   2.160   4.795
 7381TIP3   OH222106   0.389   1.295   2.889
 7381TIP3    H122107   0.440   1.324   2.964
 7381TIP3    H222108   0.421   1.348   2.816
 7382TIP3   OH222109   3.492   2.889   1.979
 7382TIP3    H122110   3.493   2.806   1.933
 7382TIP3    H222111   3.491   2.866   2.071
 7383TIP3   OH222112   3.400   3.194   2.192
 7383TIP3    H122113   3.371   3.235   2.273
 7383TIP3    H222114   3.382   3.101   2.205
 7384TIP3   OH222115   2.338   1.275   3.171
 7384TIP3    H122116   2.360   1.201   3.115
 7384TIP3    H222117   2.420   1.324   3.178
 7385TIP3   OH222118   6.428   3.203   5.257
 7385TIP3    H122119   6.364   3.137   5.282
 7385TIP3    H222120   6.513   3.161   5.272
 7386TIP3   OH222121   1.043   4.394   3.195
 7386TIP3    H122122   1.076   4.369   3.281
 7386TIP3    H222123   0.953   4.423   3.211
 7387TIP3   OH222124   3.725   3.661   4.216
 7387TIP3    H122125   3.728   3.579   4.165
 7387TIP3    H222126   3.817   3.685   4.227
 7388TIP3   OH222127   4.283   5.172   5.449
 7388TIP3    H122128   4.289   5.245   5.388
 7388TIP3    H222129   4.373   5.158   5.479
 7389TIP3   OH222130   3.604   1.675   0.430
 7389TIP3    H122131   3.638   1.751   0.383
 7389TIP3    H222132   3.671   1.655   0.495
 7390TIP3   OH222133   0.588   3.244   3.795
 7390TIP3    H122134   0.583   3.211   3.705
 7390TIP3    H222135   0.681   3.250   3.813
 7391TIP3   OH222136   1.225   0.953   5.484
 7391TIP3    H122137   1.153   0.891   5.470
 7391TIP3    H222138   1.301   0.911   5.445
 7392TIP3   OH222139   6.846   0.155   2.174
 7392TIP3    H122140   6.938   0.136   2.195
 7392TIP3    H222141   6.831   0.242   2.212
 7393TIP3   OH222142   6.743   4.742   4.061
 7393TIP3    H122143   6.663   4.748   4.113
 7393TIP3    H222144   6.715   4.767   3.973
 7394TIP3   OH222145   5.487   0.367   2.731
 7394TIP3    H122146   5.541   0.419   2.791
 7394TIP3    H222147   5.397   0.388   2.755
 7395TIP3   OH222148   4.135   0.162   1.683
 7395TIP3    H122149   4.196   0.212   1.738
 7395TIP3    H222150   4.179   0.154   1.599
 7396TIP3   OH222151   4.948   5.896   0.548
 7396TIP3    H122152   5.005   5.967   0.519
 7396TIP3    H222153   4.882   5.889   0.479
 7397TIP3   OH222154   3.710   2.527   4.937
 7397TIP3    H122155   3.765   2.599   4.908
 7397TIP3    H222156   3.658   2.564   5.008
 7398TIP3   OH222157   4.984   6.461   3.585
 7398TIP3    H122158   5.077   6.466   3.561
 7398TIP3    H222159   4.978   6.387   3.645
 7399TIP3   OH222160   6.597   1.402   3.263
 7399TIP3    H122161   6.552   1.463   3.205
 7399TIP3    H222162   6.530   1.376   3.328
 7400TIP3   OH222163   4.667   0.870   4.309
 7400TIP3    H122164   4.683   0.872   4.403
 7400TIP3    H222165   4.699   0.784   4.281
 7401TIP3   OH222166   3.181   1.126   4.164
 7401TIP3    H122167   3.158   1.063   4.232
 7401TIP3    H222168   3.169   1.212   4.205
 7402TIP3   OH222169   3.215   2.283   0.621
 7402TIP3    H122170   3.165   2.271   0.540
 7402TIP3    H222171   3.303   2.304   0.592
 7403TIP3   OH222172   7.157   0.715   4.122
 7403TIP3    H122173   7.098   0.768   4.069
 7403TIP3    H222174   7.111   0.704   4.206
 7404TIP3   OH222175   5.311   1.112   1.221
 7404TIP3    H122176   5.266   1.144   1.143
 7404TIP3    H222177   5.261   1.036   1.249
 7405TIP3   OH222178   5.367   2.509   5.246
 7405TIP3    H122179   5.326   2.501   5.332
 7405TIP3    H222180   5.408   2.423   5.232
 7406TIP3   OH222181   4.103   2.927   5.497
 7406TIP3    H122182   4.091   2.888   5.410
 7406TIP3    H222183   4.196   2.951   5.499
 7407TIP3   OH222184   5.778   5.806   2.636
 7407TIP3    H122185   5.692   5.818   2.675
 7407TIP3    H222186   5.839   5.837   2.703
 7408TIP3   OH222187   6.458   2.321   4.101
 7408TIP3    H122188   6.508   2.403   4.108
 7408TIP3    H222189   6.482   2.271   4.178
 7409TIP3   OH222190   4.716   3.826   1.402
 7409TIP3    H122191   4.803   3.867   1.408
 7409TIP3    H222192   4.669   3.859   1.479
 7410TIP3   OH222193   2.523   4.594   1.358
 7410TIP3    H122194   2.448   4.651   1.344
 7410TIP3    H222195   2.584   4.616   1.287
 7411TIP3   OH222196   1.575   2.138   5.363
 7411TIP3    H122197   1.492   2.108   5.398
 7411TIP3    H222198   1.576   2.107   5.272
 7412TIP3   OH222199   0.475   6.331   2.971
 7412TIP3    H122200   0.455   6.268   3.041
 7412TIP3    H222201   0.554   6.296   2.929
 7413TIP3   OH222202   2.355   6.445   1.444
 7413TIP3    H122203   2.392   6.533   1.445
 7413TIP3    H222204   2.405   6.397   1.510
 7414TIP3   OH222205   5.636   2.201   3.925
 7414TIP3    H122206   5.579   2.159   3.989
 7414TIP3    H222207   5.602   2.171   3.840
 7415TIP3   OH222208   4.300   4.343   1.161
 7415TIP3    H122209   4.279   4.258   1.200
 7415TIP3    H222210   4.386   4.330   1.121
 7416TIP3   OH222211   3.524   2.899   3.364
 7416TIP3    H122212   3.473   2.841   3.421
 7416TIP3    H222213   3.615   2.885   3.389
 7417TIP3   OH222214   5.172   5.772   0.045
 7417TIP3    H122215   5.227   5.848   0.066
 7417TIP3    H222216   5.085   5.809   0.031
 7418TIP3   OH222217   3.625   0.104   2.591
 7418TIP3    H122218   3.626   0.160   2.669
 7418TIP3    H222219   3.572   0.028   2.617
 7419TIP3   OH222220   4.636   3.445   2.605
 7419TIP3    H122221   4.616   3.369   2.549
 7419TIP3    H222222   4.692   3.409   2.674
 7420TIP3   OH222223   0.944   2.345   0.813
 7420TIP3    H122224   0.935   2.265   0.865
 7420TIP3    H222225   0.888   2.408   0.858
 7421TIP3   OH222226   2.973   0.819   2.789
 7421TIP3    H122227   2.941   0.773   2.711
 7421TIP3    H222228   3.046   0.871   2.757
 7422TIP3   OH222229   1.188   4.045   3.629
 7422TIP3    H122230   1.205   3.964   3.580
 7422TIP3    H222231   1.233   4.031   3.713
 7423TIP3   OH222232   0.454   5.909   4.060
 7423TIP3    H122233   0.514   5.849   4.103
 7423TIP3    H222234   0.497   5.931   3.977
 7424TIP3   OH222235   4.823   4.373   4.560
 7424TIP3    H122236   4.880   4.449   4.550
 7424TIP3    H222237   4.795   4.352   4.471
 7425TIP3   OH222238   1.659   6.289   4.920
 7425TIP3    H122239   1.671   6.377   4.884
 7425TIP3    H222240   1.698   6.294   5.008
 7426TIP3   OH222241   1.583   5.282   4.878
 7426TIP3    H122242   1.525   5.345   4.834
 7426TIP3    H222243   1.616   5.227   4.807
 7427TIP3   OH222244   1.582   3.828   5.404
 7427TIP3    H122245   1.615   3.871   5.483
 7427TIP3    H222246   1.618   3.879   5.332
 7428TIP3   OH222247   3.451   4.085   3.016
 7428TIP3    H122248   3.473   3.993   3.031
 7428TIP3    H222249   3.451   4.124   3.104
 7429TIP3   OH222250   2.041   5.198   1.186
 7429TIP3    H122251   2.020   5.275   1.133
 7429TIP3    H222252   2.081   5.233   1.266
 7430TIP3   OH222253   6.167   2.317   4.122
 7430TIP3    H122254   6.131   2.388   4.069
 7430TIP3    H222255   6.262   2.324   4.110
 7431TIP3   OH222256   2.412   4.195   4.929
 7431TIP3    H122257   2.448   4.157   4.849
 7431TIP3    H222258   2.328   4.232   4.901
 7432TIP3   OH222259   2.412   3.569   2.263
 7432TIP3    H122260   2.369   3.584   2.347
 7432TIP3    H222261   2.501   3.543   2.286
 7433TIP3   OH222262   4.598   2.038   0.429
 7433TIP3    H122263   4.531   2.085   0.381
 7433TIP3    H222264   4.617   2.094   0.505
 7434TIP3   OH222265   1.948   5.400   0.993
 7434TIP3    H122266   1.974   5.487   1.022
 7434TIP3    H222267   1.926   5.410   0.901
 7435TIP3   OH222268   5.903   3.012   4.701
 7435TIP3    H122269   5.960   3.033   4.627
 7435TIP3    H222270   5.939   3.060   4.775
 7436TIP3   OH222271   2.304   5.579   5.665
 7436TIP3    H122272   2.214   5.546   5.669
 7436TIP3    H222273   2.295   5.674   5.668
 7437TIP3   OH222274   1.935   2.269   4.523
 7437TIP3    H122275   1.963   2.270   4.432
 7437TIP3    H222276   2.016   2.279   4.574
 7438TIP3   OH222277   2.388   1.515   3.522
 7438TIP3    H122278   2.462   1.566   3.556
 7438TIP3    H222279   2.386   1.436   3.576
 7439TIP3   OH222280   2.290   3.141   5.441
 7439TIP3    H122281   2.371   3.176   5.403
 7439TIP3    H222282   2.309   3.135   5.535
 7440TIP3   OH222283   2.084   0.940   1.076
 7440TIP3    H122284   2.141   0.896   1.013
 7440TIP3    H222285   2.019   0.986   1.022
 7441TIP3   OH222286   1.435   1.905   0.761
 7441TIP3    H122287   1.458   1.823   0.806
 7441TIP3    H222288   1.339   1.907   0.764
 7442TIP3   OH222289   3.719   6.592   1.777
 7442TIP3    H122290   3.646   6.633   1.823
 7442TIP3    H222291   3.789   6.586   1.842
 7443TIP3   OH222292   1.944   4.955   3.308
 7443TIP3    H122293   1.908   4.872   3.276
 7443TIP3    H222294   1.933   5.016   3.234
 7444TIP3   OH222295   0.280   6.157   2.867
 7444TIP3    H122296   0.323   6.182   2.785
 7444TIP3    H222297   0.341   6.185   2.935
 7445TIP3   OH222298   3.135   2.501   5.093
 7445TIP3    H122299   3.086   2.441   5.149
 7445TIP3    H222300   3.077   2.577   5.082
 7446TIP3   OH222301   6.274   2.197   0.904
 7446TIP3    H122302   6.360   2.237   0.889
 7446TIP3    H222303   6.280   2.162   0.993
 7447TIP3   OH222304   7.093   3.714   1.854
 7447TIP3    H122305   7.107   3.806   1.834
 7447TIP3    H222306   7.161   3.692   1.917
 7448TIP3   OH222307   6.342   6.190   2.466
 7448TIP3    H122308   6.335   6.138   2.546
 7448TIP3    H222309   6.263   6.170   2.416
 7449TIP3   OH222310   0.855   3.247   3.706
 7449TIP3    H122311   0.861   3.334   3.746
 7449TIP3    H222312   0.936   3.238   3.657
 7450TIP3   OH222313   1.593   3.222   2.923
 7450TIP3    H122314   1.681   3.222   2.960
 7450TIP3    H222315   1.587   3.138   2.877
 7451TIP3   OH222316   4.808   5.405   1.578
 7451TIP3    H122317   4.851   5.489   1.593
 7451TIP3    H222318   4.721   5.428   1.547
 7452TIP3   OH222319   4.596   4.475   0.026
 7452TIP3    H122320   4.689   4.495   0.039
 7452TIP3    H222321   4.596   4.396  -0.028
 7453TIP3   OH222322   3.460   1.825   4.600
 7453TIP3    H122323   3.516   1.894   4.564
 7453TIP3    H222324   3.484   1.747   4.551
 7454TIP3   OH222325   1.570   1.513   0.218
 7454TIP3    H122326   1.490   1.565   0.211
 7454TIP3    H222327   1.552   1.453   0.291
 7455TIP3   OH222328   1.014   3.003   1.140
 7455TIP3    H122329   0.937   3.005   1.197
 7455TIP3    H222330   0.990   2.941   1.071
 7456TIP3   OH222331   3.099   3.226   5.002
 7456TIP3    H122332   3.015   3.238   4.957
 7456TIP3    H222333   3.139   3.151   4.958
 7457TIP3   OH222334   6.473   1.072   3.510
 7457TIP3    H122335   6.410   1.003   3.528
 7457TIP3    H222336   6.501   1.104   3.596
 7458TIP3   OH222337   5.488   1.323   4.170
 7458TIP3    H122338   5.451   1.398   4.123
 7458TIP3    H222339   5.423   1.302   4.237
 7459TIP3   OH222340   2.460   2.299   1.387
 7459TIP3    H122341   2.512   2.258   1.318
 7459TIP3    H222342   2.385   2.240   1.399
 7460TIP3   OH222343   6.610   3.705   0.051
 7460TIP3    H122344   6.536   3.765   0.044
 7460TIP3    H222345   6.586   3.646   0.122
 7461TIP3   OH222346   2.839   1.286   5.586
 7461TIP3    H122347   2.885   1.245   5.658
 7461TIP3    H222348   2.770   1.338   5.629
 7462TIP3   OH222349   0.899   5.462   5.242
 7462TIP3    H122350   0.936   5.417   5.166
 7462TIP3    H222351   0.815   5.419   5.257
 7463TIP3   OH222352   4.816   5.517   0.233
 7463TIP3    H122353   4.815   5.536   0.139
 7463TIP3    H222354   4.909   5.509   0.254
 7464TIP3   OH222355   0.303   4.479   5.612
 7464TIP3    H122356   0.318   4.534   5.688
 7464TIP3    H222357   0.293   4.541   5.539
 7465TIP3   OH222358   6.683   2.229   1.869
 7465TIP3    H122359   6.766   2.274   1.884
 7465TIP3    H222360   6.705   2.136   1.876
 7466TIP3   OH222361   2.359   6.638   4.748
 7466TIP3    H122362   2.354   6.581   4.671
 7466TIP3    H222363   2.268   6.650   4.774
 7467TIP3   OH222364   3.116   1.995   2.373
 7467TIP3    H122365   3.151   2.082   2.393
 7467TIP3    H222366   3.108   1.995   2.277
 7468TIP3   OH222367   2.249   4.530   5.043
 7468TIP3    H122368   2.187   4.519   5.115
 7468TIP3    H222369   2.250   4.444   5.000
 7469TIP3   OH222370   2.014   6.719   3.871
 7469TIP3    H122371   1.975   6.655   3.813
 7469TIP3    H222372   1.944   6.742   3.932
 7470TIP3   OH222373   6.084   0.652   3.388
 7470TIP3    H122374   6.060   0.703   3.311
 7470TIP3    H222375   6.007   0.598   3.406
 7471TIP3   OH222376   0.484   4.133   0.477
 7471TIP3    H122377   0.474   4.228   0.477
 7471TIP3    H222378   0.398   4.099   0.453
 7472TIP3   OH222379   3.386   0.469   0.806
 7472TIP3    H122380   3.377   0.551   0.759
 7472TIP3    H222381   3.442   0.489   0.880
 7473TIP3   OH222382   0.025   4.591   1.106
 7473TIP3    H122383  -0.032   4.539   1.049
 7473TIP3    H222384   0.104   4.606   1.053
 7474TIP3   OH222385   2.560   6.180   5.850
 7474TIP3    H122386   2.556   6.273   5.829
 7474TIP3    H222387   2.647   6.167   5.886
 7475TIP3   OH222388   3.122   5.576   3.359
 7475TIP3    H122389   3.160   5.562   3.273
 7475TIP3    H222390   3.173   5.648   3.397
 7476TIP3   OH222391   3.235   6.027   5.023
 7476TIP3    H122392   3.303   5.984   5.075
 7476TIP3    H222393   3.283   6.074   4.955
 7477TIP3   OH222394   5.157   1.852   2.261
 7477TIP3    H122395   5.133   1.775   2.210
 7477TIP3    H222396   5.247   1.872   2.233
 7478TIP3   OH222397   2.571   0.889   1.305
 7478TIP3    H122398   2.576   0.976   1.343
 7478TIP3    H222399   2.485   0.856   1.331
 7479TIP3   OH222400   6.220   6.398   0.869
 7479TIP3    H122401   6.146   6.351   0.829
 7479TIP3    H222402   6.292   6.334   0.867
 7480TIP3   OH222403   2.459   1.986   5.551
 7480TIP3    H122404   2.522   1.972   5.479
 7480TIP3    H222405   2.474   1.911   5.609
 7481TIP3   OH222406   4.679   2.573   2.947
 7481TIP3    H122407   4.623   2.514   2.998
 7481TIP3    H222408   4.660   2.552   2.856
 7482TIP3   OH222409   5.995   1.864   4.140
 7482TIP3    H122410   5.965   1.934   4.081
 7482TIP3    H222411   6.087   1.885   4.156
 7483TIP3   OH222412   6.546   2.809   2.044
 7483TIP3    H122413   6.588   2.749   1.983
 7483TIP3    H222414   6.475   2.850   1.993
 7484TIP3   OH222415   6.011   2.271   0.544
 7484TIP3    H122416   6.076   2.285   0.475
 7484TIP3    H222417   6.062   2.274   0.625
 7485TIP3   OH222418   0.448   6.719   4.348
 7485TIP3    H122419   0.447   6.654   4.418
 7485TIP3    H222420   0.417   6.800   4.390
 7486TIP3   OH222421   0.474   0.405   0.576
 7486TIP3    H122422   0.516   0.488   0.554
 7486TIP3    H222423   0.385   0.429   0.604
 7487TIP3   OH222424   5.607   0.372   5.359
 7487TIP3    H122425   5.633   0.394   5.270
 7487TIP3    H222426   5.650   0.289   5.378
 7488TIP3   OH222427   0.884   6.032   1.583
 7488TIP3    H122428   0.906   6.122   1.559
 7488TIP3    H222429   0.859   6.038   1.675
 7489TIP3   OH222430   5.437   3.468   3.880
 7489TIP3    H122431   5.453   3.560   3.902
 7489TIP3    H222432   5.516   3.440   3.836
 7490TIP3   OH222433   2.613   2.434   4.468
 7490TIP3    H122434   2.550   2.418   4.538
 7490TIP3    H222435   2.654   2.349   4.452
 7491TIP3   OH222436   3.626   5.401   4.925
 7491TIP3    H122437   3.622   5.493   4.897
 7491TIP3    H222438   3.633   5.352   4.843
 7492TIP3   OH222439   6.307   1.218   1.533
 7492TIP3    H122440   6.319   1.149   1.598
 7492TIP3    H222441   6.311   1.174   1.449
 7493TIP3   OH222442   4.928   1.592   1.843
 7493TIP3    H122443   4.882   1.624   1.765
 7493TIP3    H222444   4.975   1.514   1.813
 7494TIP3   OH222445   4.668   6.188   0.670
 7494TIP3    H122446   4.630   6.226   0.591
 7494TIP3    H222447   4.760   6.215   0.668
 7495TIP3   OH222448   3.475   3.455   5.309
 7495TIP3    H122449   3.407   3.473   5.375
 7495TIP3    H222450   3.522   3.537   5.300
 7496TIP3   OH222451   0.183   1.723   4.760
 7496TIP3    H122452   0.139   1.662   4.819
 7496TIP3    H222453   0.128   1.726   4.682
 7497TIP3   OH222454   2.689   4.264   4.233
 7497TIP3    H122455   2.723   4.306   4.154
 7497TIP3    H222456   2.767   4.236   4.281
 7498TIP3   OH222457   4.915   6.278   0.730
 7498TIP3    H122458   4.947   6.323   0.652
 7498TIP3    H222459   4.896   6.347   0.793
 7499TIP3   OH222460   1.081   6.069   2.003
 7499TIP3    H122461   1.118   5.993   1.958
 7499TIP3    H222462   1.077   6.137   1.935
 7500TIP3   OH222463   2.299   4.709   2.260
 7500TIP3    H122464   2.318   4.620   2.231
 7500TIP3    H222465   2.249   4.698   2.341
 7501TIP3   OH222466   5.583   0.900   4.375
 7501TIP3    H122467   5.539   0.972   4.420
 7501TIP3    H222468   5.676   0.918   4.386
 7502TIP3   OH222469   2.659   5.844   5.794
 7502TIP3    H122470   2.736   5.788   5.790
 7502TIP3    H222471   2.598   5.798   5.852
 7503TIP3   OH222472   2.650   6.052   1.709
 7503TIP3    H122473   2.715   5.992   1.745
 7503TIP3    H222474   2.682   6.139   1.731
 7504TIP3   OH222475   1.196   3.301   4.054
 7504TIP3    H122476   1.187   3.343   3.969
 7504TIP3    H222477   1.287   3.273   4.058
 7505TIP3   OH222478   1.883   1.996   1.880
 7505TIP3    H122479   1.964   2.014   1.927
 7505TIP3    H222480   1.880   1.900   1.873
 7506TIP3   OH222481   5.214   0.440   2.525
 7506TIP3    H122482   5.226   0.495   2.602
 7506TIP3    H222483   5.292   0.385   2.523
 7507TIP3   OH222484   7.168   5.752   5.826
 7507TIP3    H122485   7.088   5.699   5.824
 7507TIP3    H222486   7.238   5.690   5.806
 7508TIP3   OH222487   6.555   5.212   1.476
 7508TIP3    H122488   6.515   5.253   1.399
 7508TIP3    H222489   6.568   5.284   1.537
 7509TIP3   OH222490   3.318   5.188   4.070
 7509TIP3    H122491   3.236   5.210   4.114
 7509TIP3    H222492   3.312   5.229   3.984
 7510TIP3   OH222493   2.192   2.284   5.359
 7510TIP3    H122494   2.171   2.203   5.312
 7510TIP3    H222495   2.130   2.287   5.432
 7511TIP3   OH222496   1.087   1.540   2.806
 7511TIP3    H122497   1.148   1.590   2.752
 7511TIP3    H222498   1.031   1.607   2.845
 7512TIP3   OH222499   3.482   5.103   4.695
 7512TIP3    H122500   3.408   5.161   4.713
 7512TIP3    H222501   3.466   5.068   4.608
 7513TIP3   OH222502   6.557   0.116   5.607
 7513TIP3    H122503   6.591   0.205   5.613
 7513TIP3    H222504   6.532   0.093   5.696
 7514TIP3   OH222505   4.899   3.907   0.054
 7514TIP3    H122506   4.941   3.894  -0.031
 7514TIP3    H222507   4.969   3.897   0.118
 7515TIP3   OH222508   1.767   0.183   4.294
 7515TIP3    H122509   1.744   0.207   4.383
 7515TIP3    H222510   1.832   0.114   4.304
 7516TIP3   OH222511   0.149   3.586   5.643
 7516TIP3    H122512   0.150   3.673   5.683
 7516TIP3    H222513   0.078   3.589   5.579
 7517TIP3   OH222514   1.023   6.276   1.100
 7517TIP3    H122515   1.000   6.316   1.017
 7517TIP3    H222516   1.118   6.287   1.107
 7518TIP3   OH222517   1.242   3.783   5.889
 7518TIP3    H122518   1.318   3.766   5.834
 7518TIP3    H222519   1.168   3.746   5.840
 7519TIP3   OH222520   1.459   5.229   1.863
 7519TIP3    H122521   1.439   5.160   1.800
 7519TIP3    H222522   1.551   5.215   1.886
 7520TIP3   OH222523   5.606   3.716   3.967
 7520TIP3    H122524   5.684   3.709   4.022
 7520TIP3    H222525   5.574   3.805   3.981
 7521TIP3   OH222526   2.791   4.215   3.713
 7521TIP3    H122527   2.873   4.166   3.724
 7521TIP3    H222528   2.724   4.160   3.754
 7522TIP3   OH222529   1.031   3.805   5.114
 7522TIP3    H122530   1.073   3.723   5.138
 7522TIP3    H222531   1.005   3.844   5.197
 7523TIP3   OH222532   3.888   2.393   2.467
 7523TIP3    H122533   3.839   2.419   2.545
 7523TIP3    H222534   3.871   2.463   2.404
 7524TIP3   OH222535   1.441   5.084   0.384
 7524TIP3    H122536   1.350   5.106   0.404
 7524TIP3    H222537   1.435   5.008   0.326
 7525TIP3   OH222538   2.724   5.392   2.271
 7525TIP3    H122539   2.661   5.400   2.200
 7525TIP3    H222540   2.674   5.414   2.350
 7526TIP3   OH222541   2.218   5.087   0.595
 7526TIP3    H122542   2.212   5.057   0.504
 7526TIP3    H222543   2.193   5.010   0.646
 7527TIP3   OH222544   3.010   0.658   1.527
 7527TIP3    H122545   2.946   0.679   1.458
 7527TIP3    H222546   3.083   0.617   1.480
 7528TIP3   OH222547   0.141   4.585   1.700
 7528TIP3    H122548   0.168   4.677   1.700
 7528TIP3    H222549   0.088   4.576   1.780
 7529TIP3   OH222550   6.486   6.440   3.311
 7529TIP3    H122551   6.446   6.516   3.353
 7529TIP3    H222552   6.580   6.459   3.312
 7530TIP3   OH222553   6.567   5.606   1.406
 7530TIP3    H122554   6.498   5.673   1.407
 7530TIP3    H222555   6.563   5.567   1.494
 7531TIP3   OH222556   2.871   2.286   0.591
 7531TIP3    H122557   2.866   2.380   0.574
 7531TIP3    H222558   2.936   2.254   0.528
 7532TIP3   OH222559   3.386   6.790   1.611
 7532TIP3    H122560   3.470   6.807   1.567
 7532TIP3    H222561   3.393   6.699   1.639
 7533TIP3   OH222562   2.408   0.654   0.507
 7533TIP3    H122563   2.477   0.709   0.471
 7533TIP3    H222564   2.343   0.648   0.438
 7534TIP3   OH222565   6.407   5.858   0.851
 7534TIP3    H122566   6.371   5.908   0.778
 7534TIP3    H222567   6.334   5.804   0.883
 7535TIP3   OH222568   1.390   2.402   4.490
 7535TIP3    H122569   1.313   2.378   4.542
 7535TIP3    H222570   1.430   2.318   4.467
 7536TIP3   OH222571   5.137   6.435   5.128
 7536TIP3    H122572   5.051   6.428   5.168
 7536TIP3    H222573   5.132   6.381   5.049
 7537TIP3   OH222574   5.640   4.508   2.025
 7537TIP3    H122575   5.565   4.465   1.984
 7537TIP3    H222576   5.703   4.438   2.039
 7538TIP3   OH222577   0.945   4.835   5.221
 7538TIP3    H122578   0.937   4.876   5.135
 7538TIP3    H222579   0.888   4.758   5.217
 7539TIP3   OH222580   0.245   3.598   0.879
 7539TIP3    H122581   0.157   3.560   0.878
 7539TIP3    H222582   0.240   3.670   0.941
 7540TIP3   OH222583   5.230   6.465   4.554
 7540TIP3    H122584   5.299   6.507   4.502
 7540TIP3    H222585   5.265   6.378   4.573
 7541TIP3   OH222586   4.435   6.342   2.012
 7541TIP3    H122587   4.403   6.259   1.976
 7541TIP3    H222588   4.392   6.409   1.958
 7542TIP3   OH222589   3.096   4.827   3.399
 7542TIP3    H122590   3.037   4.768   3.353
 7542TIP3    H222591   3.083   4.912   3.357
 7543TIP3   OH222592   0.999   2.776   2.645
 7543TIP3    H122593   0.985   2.753   2.737
 7543TIP3    H222594   1.088   2.747   2.626
 7544TIP3   OH222595   6.673   1.589   1.524
 7544TIP3    H122596   6.721   1.526   1.469
 7544TIP3    H222597   6.736   1.615   1.591
 7545TIP3   OH222598   4.493   2.635   3.947
 7545TIP3    H122599   4.447   2.693   4.008
 7545TIP3    H222600   4.578   2.619   3.988
 7546TIP3   OH222601   2.574   4.575   5.217
 7546TIP3    H122602   2.499   4.550   5.270
 7546TIP3    H222603   2.587   4.501   5.158
 7547TIP3   OH222604   1.574   4.438   5.711
 7547TIP3    H122605   1.605   4.396   5.792
 7547TIP3    H222606   1.654   4.463   5.665
 7548TIP3   OH222607   4.089   4.048   1.449
 7548TIP3    H122608   4.100   4.143   1.448
 7548TIP3    H222609   4.007   4.034   1.496
 7549TIP3   OH222610   5.415   2.513   3.194
 7549TIP3    H122611   5.358   2.472   3.130
 7549TIP3    H222612   5.374   2.494   3.278
 7550TIP3   OH222613   4.621   4.035   2.405
 7550TIP3    H122614   4.531   4.017   2.431
 7550TIP3    H222615   4.616   4.118   2.359
 7551TIP3   OH222616   1.201   3.725   3.180
 7551TIP3    H122617   1.231   3.634   3.191
 7551TIP3    H222618   1.112   3.717   3.145
 7552TIP3   OH222619   5.254   5.446   0.713
 7552TIP3    H122620   5.221   5.358   0.732
 7552TIP3    H222621   5.175   5.501   0.709
 7553TIP3   OH222622   5.146   4.307   1.730
 7553TIP3    H122623   5.207   4.379   1.745
 7553TIP3    H222624   5.076   4.320   1.793
 7554TIP3   OH222625   4.337   0.330   5.114
 7554TIP3    H122626   4.270   0.360   5.052
 7554TIP3    H222627   4.396   0.277   5.061
 7555TIP3   OH222628   5.536   4.235   4.572
 7555TIP3    H122629   5.490   4.312   4.538
 7555TIP3    H222630   5.583   4.200   4.496
 7556TIP3   OH222631   5.170   3.637   2.532
 7556TIP3    H122632   5.087   3.588   2.532
 7556TIP3    H222633   5.231   3.581   2.579
 7557TIP3   OH222634   4.830   2.989   0.159
 7557TIP3    H122635   4.803   2.919   0.100
 7557TIP3    H222636   4.759   2.996   0.223
 7558TIP3   OH222637   6.813   1.656   4.076
 7558TIP3    H122638   6.732   1.706   4.082
 7558TIP3    H222639   6.803   1.602   3.999
 7559TIP3   OH222640   0.757   0.354   1.269
 7559TIP3    H122641   0.844   0.334   1.304
 7559TIP3    H222642   0.771   0.367   1.175
 7560TIP3   OH222643   0.370   0.185   1.975
 7560TIP3    H122644   0.280   0.196   1.944
 7560TIP3    H222645   0.424   0.219   1.904
 7561TIP3   OH222646   6.527   0.962   1.245
 7561TIP3    H122647   6.467   1.036   1.251
 7561TIP3    H222648   6.547   0.940   1.336
 7562TIP3   OH222649   5.578   2.214   2.701
 7562TIP3    H122650   5.551   2.305   2.692
 7562TIP3    H222651   5.643   2.201   2.632
 7563TIP3   OH222652   4.562   0.704   2.672
 7563TIP3    H122653   4.657   0.715   2.679
 7563TIP3    H222654   4.547   0.610   2.685
 7564TIP3   OH222655   7.063   0.842   4.661
 7564TIP3    H122656   7.077   0.747   4.668
 7564TIP3    H222657   7.060   0.872   4.752
 7565TIP3   OH222658   7.106   5.794   4.397
 7565TIP3    H122659   7.098   5.834   4.310
 7565TIP3    H222660   7.019   5.802   4.435
 7566TIP3   OH222661   5.069   2.344   5.320
 7566TIP3    H122662   5.077   2.404   5.246
 7566TIP3    H222663   4.976   2.346   5.342
 7567TIP3   OH222664   3.160   3.332   4.477
 7567TIP3    H122665   3.232   3.388   4.504
 7567TIP3    H222666   3.199   3.245   4.467
 7568TIP3   OH222667   3.269   5.623   3.139
 7568TIP3    H122668   3.265   5.715   3.110
 7568TIP3    H222669   3.357   5.613   3.175
 7569TIP3   OH222670   6.981   1.751   3.137
 7569TIP3    H122671   7.023   1.795   3.211
 7569TIP3    H222672   7.046   1.689   3.106
 7570TIP3   OH222673   1.631   1.971   1.520
 7570TIP3    H122674   1.715   1.957   1.476
 7570TIP3    H222675   1.645   1.938   1.609
 7571TIP3   OH222676   2.248   0.246   4.337
 7571TIP3    H122677   2.173   0.277   4.286
 7571TIP3    H222678   2.315   0.313   4.325
 7572TIP3   OH222679   4.303   2.441   4.159
 7572TIP3    H122680   4.381   2.389   4.181
 7572TIP3    H222681   4.263   2.393   4.086
 7573TIP3   OH222682   4.382   5.545   1.405
 7573TIP3    H122683   4.443   5.522   1.475
 7573TIP3    H222684   4.423   5.619   1.361
 7574TIP3   OH222685   2.550   1.226   3.362
 7574TIP3    H122686   2.475   1.181   3.401
 7574TIP3    H222687   2.557   1.191   3.274
 7575TIP3   OH222688   6.646   6.229   5.560
 7575TIP3    H122689   6.630   6.321   5.539
 7575TIP3    H222690   6.644   6.226   5.656
 7576TIP3   OH222691   1.523   2.618   5.025
 7576TIP3    H122692   1.551   2.709   5.036
 7576TIP3    H222693   1.427   2.621   5.029
 7577TIP3   OH222694   3.804   2.016   2.230
 7577TIP3    H122695   3.868   1.945   2.237
 7577TIP3    H222696   3.856   2.096   2.244
 7578TIP3   OH222697   0.792   4.710   2.443
 7578TIP3    H122698   0.727   4.641   2.453
 7578TIP3    H222699   0.837   4.689   2.361
 7579TIP3   OH222700   3.903   1.689   3.457
 7579TIP3    H122701   3.861   1.747   3.520
 7579TIP3    H222702   3.907   1.742   3.376
 7580TIP3   OH222703   0.126   4.167   1.760
 7580TIP3    H122704   0.178   4.247   1.769
 7580TIP3    H222705   0.163   4.107   1.824
 7581TIP3   OH222706   0.088   5.871   3.173
 7581TIP3    H122707   0.129   5.863   3.087
 7581TIP3    H222708   0.083   5.965   3.189
 7582TIP3   OH222709   2.323   0.056   2.082
 7582TIP3    H122710   2.368   0.138   2.100
 7582TIP3    H222711   2.282   0.070   1.997
 7583TIP3   OH222712   5.440   5.005   2.551
 7583TIP3    H122713   5.427   4.917   2.586
 7583TIP3    H222714   5.470   4.990   2.461
 7584TIP3   OH222715   4.072   3.869   3.021
 7584TIP3    H122716   4.117   3.877   3.105
 7584TIP3    H222717   4.134   3.902   2.956
 7585TIP3   OH222718   5.096   3.164   0.576
 7585TIP3    H122719   5.179   3.210   0.567
 7585TIP3    H222720   5.061   3.195   0.659
 7586TIP3   OH222721   0.586  -0.003   4.080
 7586TIP3    H122722   0.605  -0.034   4.168
 7586TIP3    H222723   0.527   0.071   4.093
 7587TIP3   OH222724   5.369   3.409   1.813
 7587TIP3    H122725   5.297   3.423   1.874
 7587TIP3    H222726   5.328   3.372   1.735
 7588TIP3   OH222727   6.152   5.657   2.276
 7588TIP3    H122728   6.091   5.687   2.343
 7588TIP3    H222729   6.239   5.683   2.309
 7589TIP3   OH222730   6.497   4.042   2.291
 7589TIP3    H122731   6.485   4.099   2.367
 7589TIP3    H222732   6.420   4.060   2.236
 7590TIP3   OH222733   4.025   0.260   5.167
 7590TIP3    H122734   3.960   0.252   5.237
 7590TIP3    H222735   3.992   0.204   5.097
 7591TIP3   OH222736   6.927   5.046   0.927
 7591TIP3    H122737   6.890   4.996   0.855
 7591TIP3    H222738   7.008   4.999   0.950
 7592TIP3   OH222739   3.731   5.805   2.081
 7592TIP3    H122740   3.687   5.813   1.996
 7592TIP3    H222741   3.760   5.713   2.084
 7593TIP3   OH222742   5.896   0.247   0.382
 7593TIP3    H122743   5.921   0.261   0.474
 7593TIP3    H222744   5.929   0.160   0.361
 7594TIP3   OH222745   6.009   5.403   1.518
 7594TIP3    H122746   6.002   5.483   1.571
 7594TIP3    H222747   6.092   5.364   1.543
 7595TIP3   OH222748   0.943   3.473   4.413
 7595TIP3    H122749   0.863   3.470   4.361
 7595TIP3    H222750   0.914   3.499   4.500
 7596TIP3   OH222751   5.043   0.685   0.377
 7596TIP3    H122752   5.065   0.630   0.301
 7596TIP3    H222753   5.122   0.683   0.432
 7597TIP3   OH222754   4.760   6.741   0.188
 7597TIP3    H122755   4.802   6.665   0.228
 7597TIP3    H222756   4.666   6.725   0.197
 7598TIP3   OH222757   2.551   6.577   1.789
 7598TIP3    H122758   2.483   6.622   1.739
 7598TIP3    H222759   2.514   6.567   1.877
 7599TIP3   OH222760   6.355   4.137   0.538
 7599TIP3    H122761   6.268   4.174   0.550
 7599TIP3    H222762   6.415   4.210   0.553
 7600TIP3   OH222763   2.938   2.908   5.762
 7600TIP3    H122764   2.860   2.924   5.708
 7600TIP3    H222765   2.917   2.949   5.846
 7601TIP3   OH222766   6.440   1.777   4.626
 7601TIP3    H122767   6.505   1.847   4.631
 7601TIP3    H222768   6.362   1.820   4.592
 7602TIP3   OH222769   7.091   5.358   1.935
 7602TIP3    H122770   7.006   5.402   1.942
 7602TIP3    H222771   7.145   5.400   2.001
 7603TIP3   OH222772   0.078   6.199   4.461
 7603TIP3    H122773   0.149   6.253   4.427
 7603TIP3    H222774   0.107   6.109   4.444
 7604TIP3   OH222775   3.937   5.766   4.374
 7604TIP3    H122776   3.903   5.803   4.455
 7604TIP3    H222777   3.910   5.828   4.306
 7605TIP3   OH222778   4.721   5.759   0.310
 7605TIP3    H122779   4.640   5.761   0.362
 7605TIP3    H222780   4.733   5.666   0.289
 7606TIP3   OH222781   6.684   2.229   3.085
 7606TIP3    H122782   6.777   2.216   3.064
 7606TIP3    H222783   6.661   2.155   3.140
 7607TIP3   OH222784   6.747   0.407   5.245
 7607TIP3    H122785   6.818   0.395   5.183
 7607TIP3    H222786   6.790   0.421   5.329
 7608TIP3   OH222787   1.225   1.828   0.365
 7608TIP3    H122788   1.266   1.755   0.318
 7608TIP3    H222789   1.249   1.906   0.316
 7609TIP3   OH222790   6.129   4.261   2.716
 7609TIP3    H122791   6.074   4.317   2.771
 7609TIP3    H222792   6.189   4.321   2.671
 7610TIP3   OH222793   2.413   3.106   4.440
 7610TIP3    H122794   2.329   3.152   4.447
 7610TIP3    H222795   2.461   3.155   4.373
 7611TIP3   OH222796   0.134   1.292   1.133
 7611TIP3    H122797   0.099   1.342   1.207
 7611TIP3    H222798   0.083   1.211   1.131
 7612TIP3   OH222799   1.396   2.094   1.624
 7612TIP3    H122800   1.450   2.061   1.552
 7612TIP3    H222801   1.459   2.111   1.694
 7613TIP3   OH222802   3.368   6.208   3.395
 7613TIP3    H122803   3.369   6.302   3.378
 7613TIP3    H222804   3.279   6.181   3.372
 7614TIP3   OH222805   2.693   6.069   2.907
 7614TIP3    H122806   2.710   5.976   2.924
 7614TIP3    H222807   2.649   6.099   2.987
 7615TIP3   OH222808   2.145   1.613   2.639
 7615TIP3    H122809   2.236   1.621   2.667
 7615TIP3    H222810   2.098   1.676   2.694
 7616TIP3   OH222811   2.304   5.312   1.750
 7616TIP3    H122812   2.313   5.240   1.813
 7616TIP3    H222813   2.387   5.360   1.757
 7617TIP3   OH222814   6.259   2.317   1.679
 7617TIP3    H122815   6.318   2.245   1.658
 7617TIP3    H222816   6.316   2.387   1.710
 7618TIP3   OH222817   2.340   5.160   4.168
 7618TIP3    H122818   2.323   5.251   4.190
 7618TIP3    H222819   2.385   5.125   4.245
 7619TIP3   OH222820   4.602   1.901   0.097
 7619TIP3    H122821   4.548   1.840   0.046
 7619TIP3    H222822   4.648   1.846   0.160
 7620TIP3   OH222823   2.346   4.439   5.363
 7620TIP3    H122824   2.266   4.471   5.321
 7620TIP3    H222825   2.321   4.423   5.454
 7621TIP3   OH222826   3.828   0.566   3.284
 7621TIP3    H122827   3.797   0.562   3.194
 7621TIP3    H222828   3.867   0.653   3.292
 7622TIP3   OH222829   6.461   5.325   0.593
 7622TIP3    H122830   6.458   5.341   0.687
 7622TIP3    H222831   6.467   5.412   0.553
 7623TIP3   OH222832   6.550   2.804   0.468
 7623TIP3    H122833   6.484   2.753   0.514
 7623TIP3    H222834   6.566   2.879   0.525
 7624TIP3   OH222835   7.062   2.729   4.632
 7624TIP3    H122836   7.106   2.644   4.625
 7624TIP3    H222837   7.133   2.791   4.652
 7625TIP3   OH222838   6.043   0.886   4.645
 7625TIP3    H122839   6.116   0.940   4.673
 7625TIP3    H222840   6.064   0.798   4.676
 7626TIP3   OH222841   5.876   0.583   2.627
 7626TIP3    H122842   5.837   0.670   2.616
 7626TIP3    H222843   5.802   0.523   2.628
 7627TIP3   OH222844   3.063   4.962   1.215
 7627TIP3    H122845   3.045   4.988   1.125
 7627TIP3    H222846   3.033   4.871   1.220
 7628TIP3   OH222847   3.975   0.345   3.392
 7628TIP3    H122848   3.965   0.267   3.338
 7628TIP3    H222849   3.914   0.409   3.355
 7629TIP3   OH222850   1.579   0.519   3.756
 7629TIP3    H122851   1.485   0.537   3.767
 7629TIP3    H222852   1.617   0.603   3.731
 7630TIP3   OH222853   0.760   3.833   3.285
 7630TIP3    H122854   0.761   3.872   3.372
 7630TIP3    H222855   0.671   3.800   3.274
 7631TIP3   OH222856   3.401   5.319   2.246
 7631TIP3    H122857   3.419   5.278   2.331
 7631TIP3    H222858   3.323   5.372   2.261
 7632TIP3   OH222859   4.103   5.293   0.159
 7632TIP3    H122860   4.138   5.312   0.072
 7632TIP3    H222861   4.112   5.198   0.168
 7633TIP3   OH222862   3.148   3.195   3.730
 7633TIP3    H122863   3.182   3.283   3.715
 7633TIP3    H222864   3.080   3.183   3.663
 7634TIP3   OH222865   6.021   6.332   5.882
 7634TIP3    H122866   6.055   6.244   5.900
 7634TIP3    H222867   6.034   6.344   5.788
 7635TIP3   OH222868   2.571   6.690   0.412
 7635TIP3    H122869   2.573   6.600   0.445
 7635TIP3    H222870   2.485   6.723   0.436
 7636TIP3   OH222871   5.677   0.945   0.620
 7636TIP3    H122872   5.705   1.018   0.675
 7636TIP3    H222873   5.707   0.968   0.532
 7637TIP3   OH222874   2.311   5.266   5.252
 7637TIP3    H122875   2.246   5.211   5.297
 7637TIP3    H222876   2.263   5.346   5.232
 7638TIP3   OH222877   4.681   6.054   1.001
 7638TIP3    H122878   4.770   6.045   0.965
 7638TIP3    H222879   4.648   5.965   1.006
 7639TIP3   OH222880   4.843   2.863   4.275
 7639TIP3    H122881   4.896   2.791   4.242
 7639TIP3    H222882   4.829   2.919   4.199
 7640TIP3   OH222883   2.298   1.170   4.945
 7640TIP3    H122884   2.213   1.130   4.927
 7640TIP3    H222885   2.289   1.209   5.032
 7641TIP3   OH222886   5.552   0.015   4.087
 7641TIP3    H122887   5.526   0.101   4.055
 7641TIP3    H222888   5.646   0.020   4.100
 7642TIP3   OH222889   2.143   3.408   1.273
 7642TIP3    H122890   2.157   3.469   1.346
 7642TIP3    H222891   2.221   3.351   1.273
 7643TIP3   OH222892   0.370   4.611   5.006
 7643TIP3    H122893   0.296   4.551   5.000
 7643TIP3    H222894   0.432   4.569   5.065
 7644TIP3   OH222895   5.407   1.988   5.688
 7644TIP3    H122896   5.439   2.034   5.610
 7644TIP3    H222897   5.389   1.899   5.658
 7645TIP3   OH222898   3.279   2.783   0.291
 7645TIP3    H122899   3.296   2.810   0.381
 7645TIP3    H222900   3.225   2.853   0.254
 7646TIP3   OH222901   6.678   0.558   4.680
 7646TIP3    H122902   6.635   0.632   4.724
 7646TIP3    H222903   6.665   0.484   4.740
 7647TIP3   OH222904   5.008   4.372   2.389
 7647TIP3    H122905   4.932   4.356   2.446
 7647TIP3    H222906   5.020   4.290   2.342
 7648TIP3   OH222907   5.026   2.853   5.640
 7648TIP3    H122908   5.080   2.887   5.711
 7648TIP3    H222909   4.987   2.931   5.600
 7649TIP3   OH222910   3.548   6.217   3.624
 7649TIP3    H122911   3.622   6.256   3.577
 7649TIP3    H222912   3.476   6.221   3.561
 7650TIP3   OH222913   0.834   6.586   0.291
 7650TIP3    H122914   0.739   6.578   0.288
 7650TIP3    H222915   0.865   6.495   0.286
 7651TIP3   OH222916   3.883   4.211   5.515
 7651TIP3    H122917   3.950   4.176   5.574
 7651TIP3    H222918   3.922   4.291   5.479
 7652TIP3   OH222919   5.740   2.363   4.781
 7652TIP3    H122920   5.719   2.409   4.863
 7652TIP3    H222921   5.681   2.401   4.716
 7653TIP3   OH222922   0.172   3.172   2.027
 7653TIP3    H122923   0.197   3.227   1.953
 7653TIP3    H222924   0.134   3.232   2.090
 7654TIP3   OH222925   3.441   1.185   1.332
 7654TIP3    H122926   3.440   1.186   1.427
 7654TIP3    H222927   3.487   1.265   1.307
 7655TIP3   OH222928   5.635   1.359   0.676
 7655TIP3    H122929   5.645   1.294   0.606
 7655TIP3    H222930   5.550   1.341   0.715
 7656TIP3   OH222931   0.324   4.693   4.211
 7656TIP3    H122932   0.381   4.770   4.210
 7656TIP3    H222933   0.237   4.727   4.186
 7657TIP3   OH222934   6.834   4.500   3.378
 7657TIP3    H122935   6.929   4.501   3.393
 7657TIP3    H222936   6.795   4.501   3.465
 7658TIP3   OH222937   6.078   4.983   4.105
 7658TIP3    H122938   6.101   4.903   4.058
 7658TIP3    H222939   6.081   5.052   4.038
 7659TIP3   OH222940   1.785   2.913   4.214
 7659TIP3    H122941   1.720   2.856   4.172
 7659TIP3    H222942   1.736   2.959   4.282
 7660TIP3   OH222943   2.852   3.858   1.865
 7660TIP3    H122944   2.770   3.819   1.833
 7660TIP3    H222945   2.916   3.787   1.858
 7661TIP3   OH222946   7.069   6.332   2.834
 7661TIP3    H122947   7.087   6.346   2.927
 7661TIP3    H222948   7.099   6.412   2.792
 7662TIP3   OH222949   4.294   2.660   1.847
 7662TIP3    H122950   4.213   2.684   1.802
 7662TIP3    H222951   4.306   2.728   1.913
 7663TIP3   OH222952   6.086   2.548   3.545
 7663TIP3    H122953   6.112   2.476   3.486
 7663TIP3    H222954   6.168   2.574   3.587
 7664TIP3   OH222955   3.305   3.309   2.429
 7664TIP3    H122956   3.337   3.388   2.473
 7664TIP3    H222957   3.209   3.316   2.435
 7665TIP3   OH222958   6.422   3.358   4.484
 7665TIP3    H122959   6.467   3.407   4.415
 7665TIP3    H222960   6.432   3.413   4.562
 7666TIP3   OH222961   1.079   2.869   5.485
 7666TIP3    H122962   1.143   2.939   5.499
 7666TIP3    H222963   1.122   2.790   5.517
 7667TIP3   OH222964   6.003   3.192   1.357
 7667TIP3    H122965   6.041   3.113   1.318
 7667TIP3    H222966   6.018   3.181   1.451
 7668TIP3   OH222967   5.675   4.571   5.081
 7668TIP3    H122968   5.750   4.513   5.070
 7668TIP3    H222969   5.701   4.652   5.037
 7669TIP3   OH222970   3.332   6.136   0.264
 7669TIP3    H122971   3.369   6.143   0.352
 7669TIP3    H222972   3.309   6.044   0.254
 7670TIP3   OH222973   6.459   5.003   1.208
 7670TIP3    H122974   6.479   4.915   1.176
 7670TIP3    H222975   6.524   5.059   1.165
 7671TIP3   OH222976   7.139   3.794   1.153
 7671TIP3    H122977   7.166   3.706   1.130
 7671TIP3    H222978   7.156   3.846   1.075
 7672TIP3   OH222979   6.341   1.544   3.877
 7672TIP3    H122980   6.374   1.482   3.812
 7672TIP3    H222981   6.296   1.611   3.825
 7673TIP3   OH222982   1.939   3.118   1.070
 7673TIP3    H122983   1.913   3.027   1.053
 7673TIP3    H222984   1.908   3.135   1.159
 7674TIP3   OH222985   4.917   3.141   2.502
 7674TIP3    H122986   4.829   3.173   2.523
 7674TIP3    H222987   4.953   3.112   2.585
 7675TIP3   OH222988   1.091   0.669   4.188
 7675TIP3    H122989   1.006   0.694   4.224
 7675TIP3    H222990   1.073   0.647   4.096
 7676TIP3   OH222991   0.523   3.284   4.525
 7676TIP3    H122992   0.593   3.294   4.589
 7676TIP3    H222993   0.443   3.296   4.575
 7677TIP3   OH222994   6.760   2.663   3.928
 7677TIP3    H122995   6.803   2.650   3.843
 7677TIP3    H222996   6.675   2.621   3.919
 7678TIP3   OH222997   6.774   4.652   4.934
 7678TIP3    H122998   6.838   4.586   4.908
 7678TIP3    H222999   6.692   4.604   4.942
 7679TIP3   OH223000   2.400   4.350   4.614
 7679TIP3    H123001   2.469   4.297   4.656
 7679TIP3    H223002   2.389   4.311   4.527
 7680TIP3   OH223003   4.134   5.892   5.169
 7680TIP3    H123004   4.096   5.977   5.144
 7680TIP3    H223005   4.218   5.914   5.209
 7681TIP3   OH223006   4.826   3.502   1.094
 7681TIP3    H123007   4.888   3.568   1.124
 7681TIP3    H223008   4.859   3.420   1.131
 7682TIP3   OH223009   2.459   0.383   0.393
 7682TIP3    H123010   2.367   0.365   0.372
 7682TIP3    H223011   2.487   0.445   0.325
 7683TIP3   OH223012   0.047   6.014   5.584
 7683TIP3    H123013   0.095   6.033   5.665
 7683TIP3    H223014   0.108   6.036   5.514
 7684TIP3   OH223015   4.423   2.621   2.503
 7684TIP3    H123016   4.440   2.714   2.517
 7684TIP3    H223017   4.372   2.594   2.579
 7685TIP3   OH223018   4.535   6.056   3.130
 7685TIP3    H123019   4.630   6.049   3.120
 7685TIP3    H223020   4.516   6.012   3.212
 7686TIP3   OH223021   2.169   5.406   2.337
 7686TIP3    H123022   2.156   5.501   2.331
 7686TIP3    H223023   2.246   5.389   2.282
 7687TIP3   OH223024   4.463   3.783   5.273
 7687TIP3    H123025   4.455   3.863   5.325
 7687TIP3    H223026   4.381   3.736   5.289
 7688TIP3   OH223027   0.230   1.072   5.323
 7688TIP3    H123028   0.250   1.147   5.267
 7688TIP3    H223029   0.315   1.032   5.341
 7689TIP3   OH223030   6.676   4.849   1.838
 7689TIP3    H123031   6.723   4.853   1.755
 7689TIP3    H223032   6.641   4.938   1.849
 7690TIP3   OH223033   4.422   2.761   5.637
 7690TIP3    H123034   4.412   2.840   5.585
 7690TIP3    H223035   4.362   2.773   5.710
 7691TIP3   OH223036   1.417   1.234   4.080
 7691TIP3    H123037   1.439   1.248   4.172
 7691TIP3    H223038   1.322   1.245   4.076
 7692TIP3   OH223039   6.420   1.643   5.724
 7692TIP3    H123040   6.509   1.613   5.744
 7692TIP3    H223041   6.430   1.737   5.707
 7693TIP3   OH223042   7.081   1.030   2.842
 7693TIP3    H123043   7.174   1.018   2.863
 7693TIP3    H223044   7.034   0.997   2.919
 7694TIP3   OH223045   5.736   1.201   4.169
 7694TIP3    H123046   5.657   1.245   4.138
 7694TIP3    H223047   5.725   1.109   4.144
 7695TIP3   OH223048   1.950   1.320   4.454
 7695TIP3    H123049   1.967   1.330   4.548
 7695TIP3    H223050   1.892   1.392   4.432
 7696TIP3   OH223051   5.090   6.561   4.871
 7696TIP3    H123052   5.023   6.500   4.903
 7696TIP3    H223053   5.046   6.611   4.803
 7697TIP3   OH223054   2.654   5.593   3.909
 7697TIP3    H123055   2.582   5.578   3.848
 7697TIP3    H223056   2.722   5.634   3.856
 7698TIP3   OH223057   2.436   3.563   1.472
 7698TIP3    H123058   2.479   3.509   1.538
 7698TIP3    H223059   2.343   3.544   1.482
 7699TIP3   OH223060   2.618   4.830   2.713
 7699TIP3    H123061   2.693   4.889   2.723
 7699TIP3    H223062   2.543   4.888   2.699
 7700TIP3   OH223063   6.005   1.470   0.611
 7700TIP3    H123064   6.054   1.510   0.539
 7700TIP3    H223065   5.947   1.407   0.568
 7701TIP3   OH223066   6.845   6.230   2.354
 7701TIP3    H123067   6.756   6.195   2.348
 7701TIP3    H223068   6.887   6.179   2.423
 7702TIP3   OH223069   5.896   0.558   2.302
 7702TIP3    H123070   5.917   0.638   2.253
 7702TIP3    H223071   5.801   0.550   2.295
 7703TIP3   OH223072   0.570   6.318   5.043
 7703TIP3    H123073   0.534   6.324   4.954
 7703TIP3    H223074   0.550   6.403   5.082
 7704TIP3   OH223075   3.903   6.432   0.164
 7704TIP3    H123076   3.897   6.514   0.213
 7704TIP3    H223077   3.996   6.413   0.160
 7705TIP3   OH223078   6.214   5.176   2.213
 7705TIP3    H123079   6.189   5.146   2.126
 7705TIP3    H223080   6.264   5.103   2.250
 7706TIP3   OH223081   0.197   1.942   0.854
 7706TIP3    H123082   0.154   1.914   0.774
 7706TIP3    H223083   0.174   1.875   0.918
 7707TIP3   OH223084   4.532   5.590   1.640
 7707TIP3    H123085   4.448   5.616   1.678
 7707TIP3    H223086   4.588   5.573   1.716
 7708TIP3   OH223087   2.480   5.866   4.672
 7708TIP3    H123088   2.493   5.880   4.766
 7708TIP3    H223089   2.433   5.783   4.666
 7709TIP3   OH223090   0.581   2.931   0.569
 7709TIP3    H123091   0.611   2.998   0.508
 7709TIP3    H223092   0.572   2.852   0.515
 7710TIP3   OH223093   0.512   2.002   0.444
 7710TIP3    H123094   0.551   2.023   0.529
 7710TIP3    H223095   0.587   1.990   0.386
 7711TIP3   OH223096   6.375   1.870   0.438
 7711TIP3    H123097   6.279   1.870   0.444
 7711TIP3    H223098   6.393   1.919   0.358
 7712TIP3   OH223099   5.042   2.896   4.975
 7712TIP3    H123100   5.020   2.979   4.933
 7712TIP3    H223101   5.068   2.920   5.064
 7713TIP3   OH223102   5.459   0.414   5.108
 7713TIP3    H123103   5.398   0.487   5.118
 7713TIP3    H223104   5.418   0.342   5.156
 7714TIP3   OH223105   1.601   5.402   0.145
 7714TIP3    H123106   1.507   5.407   0.131
 7714TIP3    H223107   1.616   5.313   0.177
 7715TIP3   OH223108   3.418   3.575   0.695
 7715TIP3    H123109   3.463   3.646   0.740
 7715TIP3    H223110   3.371   3.617   0.624
 7716TIP3   OH223111   1.806   6.619   0.374
 7716TIP3    H123112   1.783   6.570   0.295
 7716TIP3    H223113   1.746   6.694   0.374
 7717TIP3   OH223114   3.584   2.868   3.875
 7717TIP3    H123115   3.556   2.779   3.851
 7717TIP3    H223116   3.660   2.854   3.932
 7718TIP3   OH223117   4.667   2.078   3.638
 7718TIP3    H123118   4.736   2.014   3.654
 7718TIP3    H223119   4.695   2.123   3.558
 7719TIP3   OH223120   6.655   5.922   0.041
 7719TIP3    H123121   6.571   5.877   0.030
 7719TIP3    H223122   6.719   5.852   0.052
 7720TIP3   OH223123   3.214   4.861   2.304
 7720TIP3    H123124   3.224   4.895   2.393
 7720TIP3    H223125   3.227   4.937   2.248
 7721TIP3   OH223126   1.209   5.734   3.882
 7721TIP3    H123127   1.120   5.720   3.848
 7721TIP3    H223128   1.259   5.761   3.805
 7722TIP3   OH223129   5.989   0.928   4.029
 7722TIP3    H123130   5.992   0.834   4.048
 7722TIP3    H223131   5.913   0.939   3.972
 7723TIP3   OH223132   1.079   2.721   5.806
 7723TIP3    H123133   1.172   2.706   5.818
 7723TIP3    H223134   1.059   2.682   5.721
 7724TIP3   OH223135   1.573   1.267   1.344
 7724TIP3    H123136   1.578   1.306   1.257
 7724TIP3    H223137   1.628   1.323   1.398
 7725TIP3   OH223138   0.952   4.325   1.377
 7725TIP3    H123139   1.040   4.344   1.410
 7725TIP3    H223140   0.894   4.380   1.428
 7726TIP3   OH223141   1.847   1.212   1.532
 7726TIP3    H123142   1.829   1.302   1.506
 7726TIP3    H223143   1.933   1.193   1.495
 7727TIP3   OH223144   2.867   3.380   3.854
 7727TIP3    H123145   2.863   3.461   3.904
 7727TIP3    H223146   2.899   3.407   3.768
 7728TIP3   OH223147   1.872   0.498   3.649
 7728TIP3    H123148   1.917   0.417   3.672
 7728TIP3    H223149   1.808   0.472   3.583
 7729TIP3   OH223150   6.332   4.417   2.603
 7729TIP3    H123151   6.412   4.389   2.558
 7729TIP3    H223152   6.363   4.457   2.685
 7730TIP3   OH223153   0.537   5.215   4.558
 7730TIP3    H123154   0.543   5.253   4.645
 7730TIP3    H223155   0.560   5.123   4.571
 7731TIP3   OH223156   7.002   1.200   3.367
 7731TIP3    H123157   7.065   1.159   3.308
 7731TIP3    H223158   6.929   1.139   3.371
 7732TIP3   OH223159   6.711   0.370   0.936
 7732TIP3    H123160   6.748   0.371   0.848
 7732TIP3    H223161   6.740   0.287   0.974
 7733TIP3   OH223162   4.627   4.489   3.559
 7733TIP3    H123163   4.721   4.476   3.570
 7733TIP3    H223164   4.593   4.402   3.542
 7734TIP3   OH223165   2.542   3.457   5.547
 7734TIP3    H123166   2.498   3.451   5.631
 7734TIP3    H223167   2.483   3.413   5.486
 7735TIP3   OH223168   7.120   1.512   0.441
 7735TIP3    H123169   7.071   1.452   0.497
 7735TIP3    H223170   7.165   1.571   0.501
 7736TIP3   OH223171   3.859   0.078   1.056
 7736TIP3    H123172   3.807   0.087   1.136
 7736TIP3    H223173   3.816   0.135   0.993
 7737TIP3   OH223174   5.094   2.048   0.137
 7737TIP3    H123175   5.029   2.042   0.208
 7737TIP3    H223176   5.054   2.107   0.074
 7738TIP3   OH223177   0.687   0.726   5.193
 7738TIP3    H123178   0.751   0.688   5.133
 7738TIP3    H223179   0.679   0.817   5.164
 7739TIP3   OH223180   4.542   2.474   0.476
 7739TIP3    H123181   4.481   2.418   0.427
 7739TIP3    H223182   4.559   2.548   0.418
 7740TIP3   OH223183   6.560   1.463   0.304
 7740TIP3    H123184   6.512   1.472   0.386
 7740TIP3    H223185   6.650   1.445   0.331
 7741TIP3   OH223186   0.482   2.130   4.729
 7741TIP3    H123187   0.521   2.044   4.720
 7741TIP3    H223188   0.409   2.130   4.667
 7742TIP3   OH223189   4.368   5.924   1.727
 7742TIP3    H123190   4.323   5.935   1.643
 7742TIP3    H223191   4.347   5.835   1.754
 7743TIP3   OH223192   3.895   2.227   0.369
 7743TIP3    H123193   3.947   2.270   0.437
 7743TIP3    H223194   3.870   2.298   0.309
 7744TIP3   OH223195   2.751   6.027   4.644
 7744TIP3    H123196   2.745   5.957   4.578
 7744TIP3    H223197   2.845   6.035   4.661
 7745TIP3   OH223198   0.597   0.090   2.109
 7745TIP3    H123199   0.540   0.156   2.069
 7745TIP3    H223200   0.654   0.062   2.037
 7746TIP3   OH223201   2.809   4.829   3.543
 7746TIP3    H123202   2.732   4.778   3.570
 7746TIP3    H223203   2.811   4.821   3.448
 7747TIP3   OH223204   1.031   5.032   3.637
 7747TIP3    H123205   1.035   4.993   3.724
 7747TIP3    H223206   1.006   4.960   3.579
 7748TIP3   OH223207   0.907   0.025   4.044
 7748TIP3    H123208   0.819   0.048   4.071
 7748TIP3    H223209   0.962   0.047   4.119
 7749TIP3   OH223210   6.734   1.899   5.657
 7749TIP3    H123211   6.784   1.968   5.701
 7749TIP3    H223212   6.757   1.819   5.705
 7750TIP3   OH223213   2.063   5.475   5.738
 7750TIP3    H123214   2.023   5.434   5.814
 7750TIP3    H223215   1.989   5.507   5.686
 7751TIP3   OH223216   4.948   2.729   0.818
 7751TIP3    H123217   4.867   2.715   0.867
 7751TIP3    H223218   4.935   2.681   0.736
 7752TIP3   OH223219   5.000   3.821   2.650
 7752TIP3    H123220   5.076   3.781   2.609
 7752TIP3    H223221   4.932   3.821   2.582
 7753TIP3   OH223222   5.569   6.036   4.086
 7753TIP3    H123223   5.627   5.960   4.085
 7753TIP3    H223224   5.481   6.000   4.092
 7754TIP3   OH223225   1.011   2.336   0.021
 7754TIP3    H123226   1.022   2.253   0.066
 7754TIP3    H223227   0.946   2.318  -0.047
 7755TIP3   OH223228   4.390   2.732   4.172
 7755TIP3    H123229   4.310   2.680   4.180
 7755TIP3    H223230   4.443   2.706   4.247
 7756TIP3   OH223231   3.622   5.566   0.185
 7756TIP3    H123232   3.703   5.516   0.192
 7756TIP3    H223233   3.641   5.634   0.121
 7757TIP3   OH223234   3.396   6.367   1.246
 7757TIP3    H123235   3.467   6.371   1.183
 7757TIP3    H223236   3.345   6.289   1.220
 7758TIP3   OH223237   1.547   0.609   2.370
 7758TIP3    H123238   1.495   0.583   2.295
 7758TIP3    H223239   1.634   0.574   2.352
 7759TIP3   OH223240   1.974   0.223   2.248
 7759TIP3    H123241   1.882   0.225   2.274
 7759TIP3    H223242   2.022   0.200   2.328
 7760TIP3   OH223243   5.601   6.050   5.315
 7760TIP3    H123244   5.623   6.080   5.403
 7760TIP3    H223245   5.645   6.113   5.257
 7761TIP3   OH223246   5.194   3.981   0.900
 7761TIP3    H123247   5.168   4.054   0.957
 7761TIP3    H223248   5.230   3.916   0.960
 7762TIP3   OH223249   4.629   5.341   4.279
 7762TIP3    H123250   4.666   5.254   4.296
 7762TIP3    H223251   4.633   5.351   4.184
 7763TIP3   OH223252   2.326   5.839   5.710
 7763TIP3    H123253   2.372   5.903   5.656
 7763TIP3    H223254   2.328   5.876   5.798
 7764TIP3   OH223255   3.073   5.883   1.509
 7764TIP3    H123256   3.096   5.869   1.601
 7764TIP3    H223257   3.071   5.795   1.471
 7765TIP3   OH223258   0.048   1.654   2.048
 7765TIP3    H123259  -0.001   1.718   2.100
 7765TIP3    H223260   0.100   1.708   1.988
 7766TIP3   OH223261   0.295   4.668   0.398
 7766TIP3    H123262   0.259   4.675   0.310
 7766TIP3    H223263   0.323   4.577   0.405
 7767TIP3   OH223264   2.071   1.505   0.242
 7767TIP3    H123265   1.982   1.518   0.275
 7767TIP3    H223266   2.119   1.469   0.317
 7768TIP3   OH223267   5.349   1.745   1.614
 7768TIP3    H123268   5.438   1.727   1.644
 7768TIP3    H223269   5.323   1.823   1.664
 7769TIP3   OH223270   6.433   0.380   3.242
 7769TIP3    H123271   6.391   0.432   3.311
 7769TIP3    H223272   6.362   0.354   3.184
 7770TIP3   OH223273   4.120   2.657   2.193
 7770TIP3    H123274   4.151   2.743   2.222
 7770TIP3    H223275   4.038   2.644   2.241
 7771TIP3   OH223276   0.818   4.772   1.272
 7771TIP3    H123277   0.899   4.721   1.281
 7771TIP3    H223278   0.761   4.738   1.341
 7772TIP3   OH223279   4.129   0.878   1.727
 7772TIP3    H123280   4.192   0.949   1.725
 7772TIP3    H223281   4.092   0.880   1.816
 7773TIP3   OH223282   3.977   0.213   2.796
 7773TIP3    H123283   3.900   0.239   2.847
 7773TIP3    H223284   4.032   0.165   2.858
 7774TIP3   OH223285   5.906   5.481   3.835
 7774TIP3    H123286   5.911   5.480   3.739
 7774TIP3    H223287   5.925   5.572   3.859
 7775TIP3   OH223288   1.116   0.315   3.711
 7775TIP3    H123289   1.022   0.296   3.717
 7775TIP3    H223290   1.158   0.243   3.758
 7776TIP3   OH223291   3.070   3.440   5.469
 7776TIP3    H123292   3.097   3.431   5.377
 7776TIP3    H223293   3.077   3.351   5.505
 7777TIP3   OH223294   5.802   1.377   2.779
 7777TIP3    H123295   5.768   1.459   2.742
 7777TIP3    H223296   5.877   1.404   2.832
 7778TIP3   OH223297   5.146   5.947   1.608
 7778TIP3    H123298   5.106   5.943   1.695
 7778TIP3    H223299   5.229   5.901   1.617
 7779TIP3   OH223300   2.828   3.522   1.675
 7779TIP3    H123301   2.902   3.535   1.616
 7779TIP3    H223302   2.868   3.498   1.759
 7780TIP3   OH223303   6.003   3.369   2.261
 7780TIP3    H123304   5.988   3.319   2.341
 7780TIP3    H223305   6.063   3.439   2.288
 7781TIP3   OH223306   0.515   2.345   0.036
 7781TIP3    H123307   0.456   2.271   0.023
 7781TIP3    H223308   0.590   2.307   0.082
 7782TIP3   OH223309   2.614   4.341   3.557
 7782TIP3    H123310   2.674   4.302   3.621
 7782TIP3    H223311   2.653   4.320   3.472
 7783TIP3   OH223312   2.011   0.532   1.501
 7783TIP3    H123313   2.031   0.623   1.479
 7783TIP3    H223314   2.027   0.483   1.420
 7784TIP3   OH223315   1.151   5.777   0.451
 7784TIP3    H123316   1.216   5.759   0.520
 7784TIP3    H223317   1.086   5.707   0.460
 7785TIP3   OH223318   3.796   4.141   4.555
 7785TIP3    H123319   3.891   4.151   4.555
 7785TIP3    H223320   3.781   4.052   4.586
 7786TIP3   OH223321   0.095   4.140   4.085
 7786TIP3    H123322   0.176   4.164   4.131
 7786TIP3    H223323   0.032   4.207   4.112
 7787TIP3   OH223324   2.115   2.600   5.279
 7787TIP3    H123325   2.083   2.511   5.265
 7787TIP3    H223326   2.086   2.648   5.201
 7788TIP3   OH223327   4.336   5.647   2.789
 7788TIP3    H123328   4.387   5.683   2.861
 7788TIP3    H223329   4.329   5.553   2.809
 7789TIP3   OH223330   5.630   0.788   3.422
 7789TIP3    H123331   5.723   0.774   3.437
 7789TIP3    H223332   5.616   0.882   3.438
 7790TIP3   OH223333   5.070   4.612   1.435
 7790TIP3    H123334   5.141   4.554   1.464
 7790TIP3    H223335   5.034   4.567   1.358
 7791TIP3   OH223336   5.080   1.097   4.830
 7791TIP3    H123337   4.999   1.068   4.789
 7791TIP3    H223338   5.102   1.028   4.893
 7792TIP3   OH223339   3.098   0.231   3.741
 7792TIP3    H123340   3.024   0.170   3.738
 7792TIP3    H223341   3.172   0.181   3.707
 7793TIP3   OH223342   0.305   1.930   4.886
 7793TIP3    H123343   0.274   1.909   4.974
 7793TIP3    H223344   0.270   1.860   4.831
 7794TIP3   OH223345   0.802   2.765   4.152
 7794TIP3    H123346   0.795   2.859   4.133
 7794TIP3    H223347   0.768   2.722   4.074
 7795TIP3   OH223348   6.149   2.969   1.231
 7795TIP3    H123349   6.069   2.917   1.223
 7795TIP3    H223350   6.220   2.907   1.213
 7796TIP3   OH223351   4.655   3.454   3.144
 7796TIP3    H123352   4.633   3.543   3.114
 7796TIP3    H223353   4.713   3.419   3.076
 7797TIP3   OH223354   1.461   0.850   3.566
 7797TIP3    H123355   1.543   0.824   3.608
 7797TIP3    H223356   1.402   0.775   3.579
 7798TIP3   OH223357   6.419   1.148   3.174
 7798TIP3    H123358   6.409   1.231   3.221
 7798TIP3    H223359   6.489   1.165   3.111
 7799TIP3   OH223360   6.431   5.468   2.241
 7799TIP3    H123361   6.454   5.376   2.232
 7799TIP3    H223362   6.364   5.470   2.310
 7800TIP3   OH223363   3.702   0.834   0.406
 7800TIP3    H123364   3.748   0.827   0.490
 7800TIP3    H223365   3.668   0.745   0.390
 7801TIP3   OH223366   4.088   0.066   0.645
 7801TIP3    H123367   4.178   0.084   0.673
 7801TIP3    H223368   4.056   0.001   0.708
 7802TIP3   OH223369   2.946   2.645   1.638
 7802TIP3    H123370   2.877   2.625   1.575
 7802TIP3    H223371   2.899   2.671   1.717
 7803TIP3   OH223372   0.737   0.914   1.840
 7803TIP3    H123373   0.748   0.907   1.934
 7803TIP3    H223374   0.651   0.877   1.822
 7804TIP3   OH223375   4.467   1.203   0.497
 7804TIP3    H123376   4.385   1.196   0.547
 7804TIP3    H223377   4.448   1.157   0.415
 7805TIP3   OH223378   2.620   0.457   2.835
 7805TIP3    H123379   2.624   0.552   2.848
 7805TIP3    H223380   2.710   0.428   2.851
 7806TIP3   OH223381   0.290   4.875   5.013
 7806TIP3    H123382   0.315   4.789   4.979
 7806TIP3    H223383   0.262   4.924   4.936
 7807TIP3   OH223384   3.681   3.612   3.476
 7807TIP3    H123385   3.672   3.520   3.452
 7807TIP3    H223386   3.771   3.634   3.454
 7808TIP3   OH223387   0.133   6.551   3.223
 7808TIP3    H123388   0.103   6.492   3.292
 7808TIP3    H223389   0.211   6.594   3.260
 7809TIP3   OH223390   0.239   0.503   2.571
 7809TIP3    H123391   0.244   0.590   2.531
 7809TIP3    H223392   0.210   0.446   2.500
 7810TIP3   OH223393   4.506   1.626   2.233
 7810TIP3    H123394   4.483   1.719   2.229
 7810TIP3    H223395   4.597   1.623   2.205
 7811TIP3   OH223396   0.780   5.677   1.370
 7811TIP3    H123397   0.798   5.765   1.337
 7811TIP3    H223398   0.778   5.623   1.291
 7812TIP3   OH223399   4.714   0.580   0.476
 7812TIP3    H123400   4.629   0.546   0.505
 7812TIP3    H223401   4.727   0.660   0.527
 7813TIP3   OH223402   6.584   4.015   4.488
 7813TIP3    H123403   6.531   4.081   4.442
 7813TIP3    H223404   6.674   4.045   4.477
 7814TIP3   OH223405   6.997   6.449   3.581
 7814TIP3    H123406   7.030   6.494   3.659
 7814TIP3    H223407   6.960   6.367   3.614
 7815TIP3   OH223408   1.373   1.770   1.474
 7815TIP3    H123409   1.328   1.852   1.452
 7815TIP3    H223410   1.360   1.760   1.568
 7816TIP3   OH223411   1.450   4.317   2.110
 7816TIP3    H123412   1.438   4.338   2.018
 7816TIP3    H223413   1.411   4.230   2.120
 7817TIP3   OH223414   0.024   0.779   3.320
 7817TIP3    H123415   0.024   0.869   3.288
 7817TIP3    H223416   0.057   0.728   3.246
 7818TIP3   OH223417   5.623   4.499   0.466
 7818TIP3    H123418   5.681   4.489   0.391
 7818TIP3    H223419   5.561   4.427   0.458
 7819TIP3   OH223420   4.590   0.904   3.255
 7819TIP3    H123421   4.553   0.864   3.176
 7819TIP3    H223422   4.521   0.896   3.320
 7820TIP3   OH223423   6.570   4.736   1.104
 7820TIP3    H123424   6.623   4.717   1.182
 7820TIP3    H223425   6.620   4.803   1.057
 7821TIP3   OH223426   2.885   6.551   2.335
 7821TIP3    H123427   2.959   6.498   2.305
 7821TIP3    H223428   2.842   6.496   2.401
 7822TIP3   OH223429   5.074   3.186   3.050
 7822TIP3    H123430   5.005   3.203   3.114
 7822TIP3    H223431   5.075   3.091   3.040
 7823TIP3   OH223432   4.771   2.644   3.362
 7823TIP3    H123433   4.757   2.615   3.452
 7823TIP3    H223434   4.790   2.738   3.370
 7824TIP3   OH223435   1.179   0.475   5.110
 7824TIP3    H123436   1.167   0.470   5.016
 7824TIP3    H223437   1.200   0.385   5.136
 7825TIP3   OH223438   3.089   5.660   5.236
 7825TIP3    H123439   3.013   5.616   5.273
 7825TIP3    H223440   3.160   5.596   5.243
 7826TIP3   OH223441   0.149   5.561   5.286
 7826TIP3    H123442   0.071   5.575   5.233
 7826TIP3    H223443   0.146   5.630   5.353
 7827TIP3   OH223444   6.383   5.065   2.846
 7827TIP3    H123445   6.390   5.132   2.914
 7827TIP3    H223446   6.312   5.096   2.790
 7828TIP3   OH223447   6.450   5.706   0.021
 7828TIP3    H123448   6.382   5.746  -0.034
 7828TIP3    H223449   6.401   5.653   0.084
 7829TIP3   OH223450   3.157   1.853   3.921
 7829TIP3    H123451   3.104   1.786   3.962
 7829TIP3    H223452   3.129   1.935   3.962
 7830TIP3   OH223453   2.519   4.628   2.934
 7830TIP3    H123454   2.523   4.722   2.955
 7830TIP3    H223455   2.608   4.597   2.947
 7831TIP3   OH223456   4.634   5.886   1.775
 7831TIP3    H123457   4.541   5.905   1.785
 7831TIP3    H223458   4.637   5.795   1.745
 7832TIP3   OH223459   6.679   0.412   5.569
 7832TIP3    H123460   6.660   0.442   5.658
 7832TIP3    H223461   6.594   0.384   5.536
 7833TIP3   OH223462   5.733   2.699   3.990
 7833TIP3    H123463   5.720   2.787   4.023
 7833TIP3    H223464   5.762   2.648   4.066
 7834TIP3   OH223465   1.488   0.499   5.122
 7834TIP3    H123466   1.414   0.445   5.149
 7834TIP3    H223467   1.550   0.494   5.195
 7835TIP3   OH223468   0.695   0.265   3.002
 7835TIP3    H123469   0.756   0.326   2.960
 7835TIP3    H223470   0.608   0.300   2.983
 7836TIP3   OH223471   0.500   6.040   3.324
 7836TIP3    H123472   0.549   5.966   3.360
 7836TIP3    H223473   0.521   6.040   3.231
 7837TIP3   OH223474   1.733   2.711   2.037
 7837TIP3    H123475   1.808   2.705   2.097
 7837TIP3    H223476   1.680   2.634   2.057
 7838TIP3   OH223477   3.396   6.594   3.140
 7838TIP3    H123478   3.345   6.600   3.221
 7838TIP3    H223479   3.331   6.602   3.070
 7839TIP3   OH223480   4.286   4.220   1.850
 7839TIP3    H123481   4.194   4.195   1.852
 7839TIP3    H223482   4.293   4.293   1.912
 7840TIP3   OH223483   6.195   0.738   4.922
 7840TIP3    H123484   6.250   0.693   4.985
 7840TIP3    H223485   6.230   0.827   4.919
 7841TIP3   OH223486   2.207   5.290   2.699
 7841TIP3    H123487   2.181   5.381   2.712
 7841TIP3    H223488   2.263   5.270   2.774
 7842TIP3   OH223489   6.760   3.340   1.373
 7842TIP3    H123490   6.843   3.386   1.387
 7842TIP3    H223491   6.743   3.349   1.279
 7843TIP3   OH223492   2.322   6.385   0.235
 7843TIP3    H123493   2.318   6.476   0.264
 7843TIP3    H223494   2.287   6.335   0.308
 7844TIP3   OH223495   5.067   3.431   4.464
 7844TIP3    H123496   5.023   3.478   4.535
 7844TIP3    H223497   5.067   3.339   4.492
 7845TIP3   OH223498   4.466   2.014   5.593
 7845TIP3    H123499   4.504   1.943   5.645
 7845TIP3    H223500   4.394   2.046   5.647
 7846TIP3   OH223501   2.005   4.864   0.411
 7846TIP3    H123502   2.058   4.943   0.401
 7846TIP3    H223503   1.930   4.893   0.463
 7847TIP3   OH223504   3.033   2.221   0.135
 7847TIP3    H123505   3.091   2.202   0.061
 7847TIP3    H223506   2.981   2.296   0.106
 7848TIP3   OH223507   5.663   1.923   2.218
 7848TIP3    H123508   5.689   2.014   2.210
 7848TIP3    H223509   5.740   1.873   2.190
 7849TIP3   OH223510   1.989   4.133   2.980
 7849TIP3    H123511   2.072   4.142   2.932
 7849TIP3    H223512   1.921   4.139   2.913
 7850TIP3   OH223513   1.961   2.387   2.318
 7850TIP3    H123514   1.939   2.353   2.232
 7850TIP3    H223515   1.921   2.325   2.379
 7851TIP3   OH223516   0.345   0.287   1.387
 7851TIP3    H123517   0.368   0.375   1.417
 7851TIP3    H223518   0.405   0.270   1.315
 7852TIP3   OH223519   4.770   0.692   2.331
 7852TIP3    H123520   4.766   0.667   2.238
 7852TIP3    H223521   4.743   0.613   2.378
 7853TIP3   OH223522   0.175   4.229   0.861
 7853TIP3    H123523   0.194   4.309   0.910
 7853TIP3    H223524   0.159   4.163   0.928
 7854TIP3   OH223525   1.222   2.464   2.694
 7854TIP3    H123526   1.309   2.500   2.712
 7854TIP3    H223527   1.238   2.391   2.634
 7855TIP3   OH223528   4.753   6.695   1.110
 7855TIP3    H123529   4.694   6.622   1.125
 7855TIP3    H223530   4.770   6.731   1.197
 7856TIP3   OH223531   0.043   1.481   1.781
 7856TIP3    H123532  -0.005   1.561   1.801
 7856TIP3    H223533  -0.015   1.410   1.807
 7857TIP3   OH223534   6.558   3.242   2.085
 7857TIP3    H123535   6.554   3.157   2.042
 7857TIP3    H223536   6.648   3.247   2.119
 7858TIP3   OH223537   2.356   3.907   5.718
 7858TIP3    H123538   2.326   3.871   5.802
 7858TIP3    H223539   2.449   3.927   5.733
 7859TIP3   OH223540   5.709   4.730   0.086
 7859TIP3    H123541   5.686   4.767   0.001
 7859TIP3    H223542   5.750   4.802   0.133
 7860TIP3   OH223543   3.491   4.536   1.265
 7860TIP3    H123544   3.586   4.536   1.260
 7860TIP3    H223545   3.470   4.462   1.321
 7861TIP3   OH223546   6.448   4.378   2.179
 7861TIP3    H123547   6.441   4.311   2.110
 7861TIP3    H223548   6.417   4.458   2.138
 7862TIP3   OH223549   3.569   6.609   0.575
 7862TIP3    H123550   3.569   6.531   0.631
 7862TIP3    H223551   3.509   6.587   0.504
 7863TIP3   OH223552   0.885   4.428   0.422
 7863TIP3    H123553   0.903   4.522   0.420
 7863TIP3    H223554   0.971   4.387   0.421
 7864TIP3   OH223555   2.661   6.357   1.066
 7864TIP3    H123556   2.636   6.354   1.158
 7864TIP3    H223557   2.725   6.428   1.061
 7865TIP3   OH223558   5.753   4.240   3.985
 7865TIP3    H123559   5.760   4.145   3.974
 7865TIP3    H223560   5.840   4.267   4.014
 7866TIP3   OH223561   5.990   3.165   1.632
 7866TIP3    H123562   6.058   3.098   1.641
 7866TIP3    H223563   5.965   3.185   1.722
 7867TIP3   OH223564   0.861   4.478   1.802
 7867TIP3    H123565   0.925   4.539   1.765
 7867TIP3    H223566   0.914   4.413   1.848
 7868TIP3   OH223567   2.896   2.266   1.242
 7868TIP3    H123568   2.883   2.291   1.334
 7868TIP3    H223569   2.807   2.251   1.209
 7869TIP3   OH223570   0.327   6.271   0.683
 7869TIP3    H123571   0.343   6.178   0.697
 7869TIP3    H223572   0.312   6.306   0.771
 7870TIP3   OH223573   0.631   0.071   2.750
 7870TIP3    H123574   0.562   0.010   2.778
 7870TIP3    H223575   0.685   0.082   2.828
 7871TIP3   OH223576   5.114   0.394   1.824
 7871TIP3    H123577   5.161   0.312   1.838
 7871TIP3    H223578   5.144   0.426   1.739
 7872TIP3   OH223579   1.981   5.572   3.042
 7872TIP3    H123580   1.886   5.567   3.032
 7872TIP3    H223581   1.999   5.536   3.129
 7873TIP3   OH223582   4.158   0.812   0.200
 7873TIP3    H123583   4.234   0.816   0.142
 7873TIP3    H223584   4.125   0.723   0.191
 7874TIP3   OH223585   2.546   0.779   4.922
 7874TIP3    H123586   2.543   0.856   4.978
 7874TIP3    H223587   2.557   0.813   4.834
 7875TIP3   OH223588   3.503   1.276   0.212
 7875TIP3    H123589   3.560   1.225   0.271
 7875TIP3    H223590   3.475   1.351   0.264
 7876TIP3   OH223591   6.154   3.339   3.127
 7876TIP3    H123592   6.235   3.292   3.108
 7876TIP3    H223593   6.114   3.353   3.041
 7877TIP3   OH223594   3.146   3.153   1.004
 7877TIP3    H123595   3.204   3.225   0.979
 7877TIP3    H223596   3.061   3.176   0.967
 7878TIP3   OH223597   3.840   3.638   5.008
 7878TIP3    H123598   3.876   3.577   4.944
 7878TIP3    H223599   3.844   3.724   4.965
 7879TIP3   OH223600   3.730   3.058   5.195
 7879TIP3    H123601   3.769   3.114   5.261
 7879TIP3    H223602   3.804   3.013   5.154
 7880TIP3   OH223603   0.305   3.376   4.046
 7880TIP3    H123604   0.392   3.336   4.045
 7880TIP3    H223605   0.321   3.470   4.039
 7881TIP3   OH223606   1.355   0.386   0.072
 7881TIP3    H123607   1.341   0.363  -0.020
 7881TIP3    H223608   1.437   0.436   0.072
 7882TIP3   OH223609   5.774   0.405   4.612
 7882TIP3    H123610   5.759   0.493   4.649
 7882TIP3    H223611   5.737   0.409   4.524
 7883TIP3   OH223612   4.240   5.036   5.881
 7883TIP3    H123613   4.182   5.074   5.947
 7883TIP3    H223614   4.326   5.073   5.902
 7884TIP3   OH223615   6.166   0.967   2.956
 7884TIP3    H123616   6.121   1.042   2.918
 7884TIP3    H223617   6.256   0.973   2.923
 7885TIP3   OH223618   3.516   3.019   3.655
 7885TIP3    H123619   3.580   2.990   3.720
 7885TIP3    H223620   3.446   2.954   3.660
 7886TIP3   OH223621   5.322   5.131   2.770
 7886TIP3    H123622   5.240   5.165   2.733
 7886TIP3    H223623   5.368   5.094   2.694
 7887TIP3   OH223624   1.841   4.877   0.144
 7887TIP3    H123625   1.916   4.851   0.197
 7887TIP3    H223626   1.765   4.847   0.194
 7888TIP3   OH223627   7.065   0.369   2.322
 7888TIP3    H123628   7.085   0.410   2.238
 7888TIP3    H223629   7.103   0.428   2.387
 7889TIP3   OH223630   2.472   2.236   3.556
 7889TIP3    H123631   2.447   2.210   3.644
 7889TIP3    H223632   2.471   2.155   3.505
 7890TIP3   OH223633   3.995   5.505   3.669
 7890TIP3    H123634   3.947   5.545   3.742
 7890TIP3    H223635   4.070   5.463   3.709
 7891TIP3   OH223636   7.063   2.363   4.489
 7891TIP3    H123637   7.090   2.340   4.400
 7891TIP3    H223638   6.981   2.411   4.477
 7892TIP3   OH223639   0.376   0.653   2.390
 7892TIP3    H123640   0.291   0.668   2.348
 7892TIP3    H223641   0.426   0.605   2.324
 7893TIP3   OH223642   1.204   3.965   1.342
 7893TIP3    H123643   1.268   3.903   1.309
 7893TIP3    H223644   1.128   3.954   1.284
 7894TIP3   OH223645   0.348   5.669   1.320
 7894TIP3    H123646   0.417   5.733   1.335
 7894TIP3    H223647   0.364   5.637   1.232
 7895TIP3   OH223648   2.182   3.487   3.594
 7895TIP3    H123649   2.119   3.434   3.546
 7895TIP3    H223650   2.252   3.426   3.618
 7896TIP3   OH223651   6.491   6.547   4.583
 7896TIP3    H123652   6.457   6.612   4.645
 7896TIP3    H223653   6.586   6.549   4.595
 7897TIP3   OH223654   1.463   3.032   2.739
 7897TIP3    H123655   1.502   2.947   2.760
 7897TIP3    H223656   1.501   3.055   2.654
 7898TIP3   OH223657   4.237   4.532   4.236
 7898TIP3    H123658   4.180   4.551   4.310
 7898TIP3    H223659   4.193   4.572   4.161
 7899TIP3   OH223660   0.766   0.264   2.274
 7899TIP3    H123661   0.705   0.212   2.221
 7899TIP3    H223662   0.732   0.258   2.363
 7900TIP3   OH223663   0.192   3.089   0.510
 7900TIP3    H123664   0.157   3.167   0.467
 7900TIP3    H223665   0.192   3.111   0.603
 7901TIP3   OH223666   3.519   1.346   0.987
 7901TIP3    H123667   3.583   1.340   1.057
 7901TIP3    H223668   3.439   1.309   1.024
 7902TIP3   OH223669   4.682   2.276   3.067
 7902TIP3    H123670   4.701   2.259   2.974
 7902TIP3    H223671   4.654   2.190   3.101
 7903TIP3   OH223672   0.382   5.982   4.347
 7903TIP3    H123673   0.404   5.929   4.271
 7903TIP3    H223674   0.305   5.939   4.385
 7904TIP3   OH223675   0.599   2.158   0.979
 7904TIP3    H123676   0.691   2.132   0.988
 7904TIP3    H223677   0.602   2.239   0.928
 7905TIP3   OH223678   3.688   1.048   0.248
 7905TIP3    H123679   3.697   0.984   0.319
 7905TIP3    H223680   3.778   1.076   0.230
 7906TIP3   OH223681   0.134   2.551   2.954
 7906TIP3    H123682   0.197   2.561   3.026
 7906TIP3    H223683   0.125   2.639   2.917
 7907TIP3   OH223684   0.868   6.451   2.880
 7907TIP3    H123685   0.859   6.532   2.931
 7907TIP3    H223686   0.890   6.482   2.792
 7908TIP3   OH223687   1.139   3.958   1.020
 7908TIP3    H123688   1.123   4.037   1.071
 7908TIP3    H223689   1.087   3.891   1.064
 7909TIP3   OH223690   1.235   0.084   1.301
 7909TIP3    H123691   1.248   0.151   1.369
 7909TIP3    H223692   1.316   0.033   1.303
 7910TIP3   OH223693   5.655   0.370   3.176
 7910TIP3    H123694   5.724   0.303   3.167
 7910TIP3    H223695   5.579   0.322   3.209
 7911TIP3   OH223696   6.106   4.200   0.453
 7911TIP3    H123697   6.101   4.292   0.480
 7911TIP3    H223698   6.125   4.204   0.360
 7912TIP3   OH223699   5.774   4.073   2.915
 7912TIP3    H123700   5.776   4.003   2.850
 7912TIP3    H223701   5.711   4.137   2.881
 7913TIP3   OH223702   2.532   1.164   4.255
 7913TIP3    H123703   2.616   1.128   4.282
 7913TIP3    H223704   2.535   1.255   4.285
 7914TIP3   OH223705   0.526   1.788   2.422
 7914TIP3    H123706   0.609   1.748   2.448
 7914TIP3    H223707   0.465   1.715   2.416
 7915TIP3   OH223708   1.586   3.687   1.051
 7915TIP3    H123709   1.510   3.745   1.045
 7915TIP3    H223710   1.566   3.616   0.990
 7916TIP3   OH223711   3.390   6.348   1.546
 7916TIP3    H123712   3.383   6.254   1.565
 7916TIP3    H223713   3.401   6.353   1.451
 7917TIP3   OH223714   1.371   4.718   5.402
 7917TIP3    H123715   1.459   4.695   5.371
 7917TIP3    H223716   1.377   4.717   5.497
 7918TIP3   OH223717   1.550   1.952   0.527
 7918TIP3    H123718   1.567   2.043   0.551
 7918TIP3    H223719   1.507   1.914   0.604
 7919TIP3   OH223720   0.647   6.169   1.035
 7919TIP3    H123721   0.578   6.144   1.096
 7919TIP3    H223722   0.625   6.259   1.010
 7920TIP3   OH223723   3.612   3.198   0.896
 7920TIP3    H123724   3.662   3.277   0.915
 7920TIP3    H223725   3.609   3.194   0.800
 7921TIP3   OH223726   4.849   3.996   1.621
 7921TIP3    H123727   4.879   4.019   1.709
 7921TIP3    H223728   4.765   4.042   1.611
 7922TIP3   OH223729   3.622   6.351   5.654
 7922TIP3    H123730   3.552   6.331   5.717
 7922TIP3    H223731   3.584   6.414   5.594
 7923TIP3   OH223732   5.189   1.794   0.451
 7923TIP3    H123733   5.267   1.768   0.499
 7923TIP3    H223734   5.218   1.801   0.360
 7924TIP3   OH223735   0.104   5.009   2.489
 7924TIP3    H123736   0.119   5.084   2.431
 7924TIP3    H223737   0.009   5.002   2.495
 7925TIP3   OH223738   7.072   2.600   3.060
 7925TIP3    H123739   7.015   2.537   3.017
 7925TIP3    H223740   7.118   2.644   2.989
 7926TIP3   OH223741   7.123   1.779   0.263
 7926TIP3    H123742   7.131   1.685   0.279
 7926TIP3    H223743   7.036   1.802   0.297
 7927TIP3   OH223744   2.896   3.949   5.755
 7927TIP3    H123745   2.984   3.988   5.754
 7927TIP3    H223746   2.902   3.876   5.694
 7928TIP3   OH223747   5.139   0.340   5.685
 7928TIP3    H123748   5.050   0.374   5.689
 7928TIP3    H223749   5.130   0.255   5.641
 7929TIP3   OH223750   5.260   2.221   4.970
 7929TIP3    H123751   5.348   2.188   4.952
 7929TIP3    H223752   5.250   2.211   5.065
 7930TIP3   OH223753   0.194   1.772   2.935
 7930TIP3    H123754   0.128   1.766   2.865
 7930TIP3    H223755   0.277   1.757   2.891
 7931TIP3   OH223756   4.268   2.329   5.538
 7931TIP3    H123757   4.213   2.252   5.521
 7931TIP3    H223758   4.272   2.373   5.453
 7932TIP3   OH223759   1.237   2.194   1.237
 7932TIP3    H123760   1.177   2.265   1.258
 7932TIP3    H223761   1.297   2.232   1.173
 7933TIP3   OH223762   6.224   1.964   3.118
 7933TIP3    H123763   6.226   2.047   3.165
 7933TIP3    H223764   6.154   1.915   3.162
 7934TIP3   OH223765   5.362   4.390   2.655
 7934TIP3    H123766   5.338   4.317   2.712
 7934TIP3    H223767   5.404   4.453   2.713
 7935TIP3   OH223768   5.666   4.508   4.065
 7935TIP3    H123769   5.680   4.414   4.053
 7935TIP3    H223770   5.684   4.546   3.979
 7936TIP3   OH223771   5.277   0.251   2.135
 7936TIP3    H123772   5.213   0.181   2.120
 7936TIP3    H223773   5.333   0.249   2.057
 7937TIP3   OH223774   1.930   2.776   3.714
 7937TIP3    H123775   1.858   2.797   3.774
 7937TIP3    H223776   1.890   2.721   3.646
 7938TIP3   OH223777   4.249   4.841   4.243
 7938TIP3    H123778   4.180   4.843   4.309
 7938TIP3    H223779   4.287   4.929   4.243
 7939TIP3   OH223780   1.759   6.324   0.846
 7939TIP3    H123781   1.785   6.365   0.764
 7939TIP3    H223782   1.787   6.233   0.837
 7940TIP3   OH223783   0.110   2.485   2.652
 7940TIP3    H123784   0.096   2.504   2.745
 7940TIP3    H223785   0.181   2.421   2.651
 7941TIP3   OH223786   2.271   0.837   4.986
 7941TIP3    H123787   2.333   0.788   5.040
 7941TIP3    H223788   2.323   0.869   4.912
 7942TIP3   OH223789   0.215   0.515   4.025
 7942TIP3    H123790   0.153   0.540   4.093
 7942TIP3    H223791   0.219   0.590   3.966
 7943TIP3   OH223792   2.787   2.212   4.454
 7943TIP3    H123793   2.739   2.131   4.439
 7943TIP3    H223794   2.838   2.195   4.534
 7944TIP3   OH223795   1.416   3.590   3.911
 7944TIP3    H123796   1.325   3.619   3.917
 7944TIP3    H223797   1.410   3.495   3.905
 7945TIP3   OH223798   3.872   4.499   0.298
 7945TIP3    H123799   3.805   4.561   0.267
 7945TIP3    H223800   3.850   4.416   0.256
 7946TIP3   OH223801   5.058   2.977   5.236
 7946TIP3    H123802   5.065   2.998   5.329
 7946TIP3    H223803   5.088   2.886   5.230
 7947TIP3   OH223804   0.630   0.628   2.567
 7947TIP3    H123805   0.556   0.650   2.511
 7947TIP3    H223806   0.627   0.693   2.637
 7948TIP3   OH223807   4.439   3.954   0.601
 7948TIP3    H123808   4.491   4.012   0.656
 7948TIP3    H223809   4.442   3.869   0.644
 7949TIP3   OH223810   0.125   1.022   2.993
 7949TIP3    H123811   0.196   0.979   3.041
 7949TIP3    H223812   0.165   1.049   2.910
 7950TIP3   OH223813   6.080   5.529   2.612
 7950TIP3    H123814   5.986   5.537   2.596
 7950TIP3    H223815   6.109   5.464   2.548
 7951TIP3   OH223816   1.746   0.208   2.017
 7951TIP3    H123817   1.740   0.250   2.103
 7951TIP3    H223818   1.781   0.277   1.959
 7952TIP3   OH223819   2.530   6.677   1.049
 7952TIP3    H123820   2.603   6.640   0.999
 7952TIP3    H223821   2.557   6.670   1.140
 7953TIP3   OH223822   5.780   4.017   0.057
 7953TIP3    H123823   5.768   3.960   0.133
 7953TIP3    H223824   5.769   4.105   0.090
 7954TIP3   OH223825   2.108   5.914   1.016
 7954TIP3    H123826   2.192   5.895   0.974
 7954TIP3    H223827   2.119   5.884   1.106
 7955TIP3   OH223828   6.358   2.618   0.553
 7955TIP3    H123829   6.333   2.526   0.541
 7955TIP3    H223830   6.308   2.646   0.629
 7956TIP3   OH223831   6.394   0.730   5.134
 7956TIP3    H123832   6.419   0.665   5.199
 7956TIP3    H223833   6.477   0.761   5.097
 7957TIP3   OH223834   3.691   0.989   4.257
 7957TIP3    H123835   3.710   1.081   4.277
 7957TIP3    H223836   3.775   0.944   4.270
 7958TIP3   OH223837   3.789   3.494   0.318
 7958TIP3    H123838   3.715   3.458   0.367
 7958TIP3    H223839   3.852   3.519   0.385
 7959TIP3   OH223840   5.789   4.138   0.859
 7959TIP3    H123841   5.885   4.143   0.851
 7959TIP3    H223842   5.757   4.210   0.805
 7960TIP3   OH223843   4.590   6.738   1.514
 7960TIP3    H123844   4.508   6.783   1.493
 7960TIP3    H223845   4.563   6.665   1.570
 7961TIP3   OH223846   4.153   5.664   4.497
 7961TIP3    H123847   4.145   5.700   4.585
 7961TIP3    H223848   4.078   5.699   4.449
 7962TIP3   OH223849   3.443   4.121   0.645
 7962TIP3    H123850   3.427   4.207   0.686
 7962TIP3    H223851   3.359   4.098   0.605
 7963TIP3   OH223852   1.541   6.459   5.702
 7963TIP3    H123853   1.497   6.381   5.669
 7963TIP3    H223854   1.634   6.445   5.683
 7964TIP3   OH223855   5.230   0.583   4.464
 7964TIP3    H123856   5.286   0.597   4.540
 7964TIP3    H223857   5.263   0.645   4.398
 7965TIP3   OH223858   2.092   1.485   2.385
 7965TIP3    H123859   2.132   1.519   2.465
 7965TIP3    H223860   2.162   1.438   2.340
 7966TIP3   OH223861   1.484   6.571   4.234
 7966TIP3    H123862   1.432   6.534   4.163
 7966TIP3    H223863   1.511   6.657   4.203
 7967TIP3   OH223864   0.451   1.669   3.714
 7967TIP3    H123865   0.438   1.762   3.730
 7967TIP3    H223866   0.363   1.631   3.717
 7968TIP3   OH223867   0.139   0.115   3.564
 7968TIP3    H123868   0.087   0.050   3.518
 7968TIP3    H223869   0.116   0.104   3.656
 7969TIP3   OH223870   1.832   4.426   5.080
 7969TIP3    H123871   1.906   4.366   5.081
 7969TIP3    H223872   1.821   4.453   5.171
 7970TIP3   OH223873   6.294   0.095   4.801
 7970TIP3    H123874   6.269   0.181   4.769
 7970TIP3    H223875   6.213   0.057   4.835
 7971TIP3   OH223876   4.619   0.935   4.875
 7971TIP3    H123877   4.558   1.001   4.909
 7971TIP3    H223878   4.570   0.891   4.806
 7972TIP3   OH223879   0.351   2.753   4.485
 7972TIP3    H123880   0.402   2.687   4.533
 7972TIP3    H223881   0.417   2.801   4.436
 7973TIP3   OH223882   1.512   1.352   5.829
 7973TIP3    H123883   1.477   1.278   5.780
 7973TIP3    H223884   1.578   1.390   5.771
 7974TIP3   OH223885   3.571   1.375   3.750
 7974TIP3    H123886   3.637   1.305   3.745
 7974TIP3    H223887   3.489   1.329   3.763
 7975TIP3   OH223888   2.000   3.125   5.434
 7975TIP3    H123889   2.096   3.128   5.433
 7975TIP3    H223890   1.979   3.083   5.518
 7976TIP3   OH223891   2.839   2.412   3.059
 7976TIP3    H123892   2.838   2.383   2.967
 7976TIP3    H223893   2.903   2.484   3.059
 7977TIP3   OH223894   4.794   2.785   2.642
 7977TIP3    H123895   4.823   2.792   2.551
 7977TIP3    H223896   4.735   2.710   2.643
 7978TIP3   OH223897   6.926   1.258   2.054
 7978TIP3    H123898   6.848   1.217   2.089
 7978TIP3    H223899   6.996   1.194   2.068
 7979TIP3   OH223900   3.972   5.578   2.321
 7979TIP3    H123901   3.978   5.556   2.414
 7979TIP3    H223902   3.997   5.671   2.317
 7980TIP3   OH223903   1.853   4.722   4.503
 7980TIP3    H123904   1.947   4.712   4.492
 7980TIP3    H223905   1.823   4.637   4.535
 7981TIP3   OH223906   5.090   3.089   0.186
 7981TIP3    H123907   5.000   3.055   0.181
 7981TIP3    H223908   5.139   3.021   0.232
 7982TIP3   OH223909   4.156   4.109   5.306
 7982TIP3    H123910   4.133   4.200   5.289
 7982TIP3    H223911   4.161   4.069   5.219
 7983TIP3   OH223912   4.768   0.420   3.722
 7983TIP3    H123913   4.831   0.351   3.700
 7983TIP3    H223914   4.819   0.483   3.773
 7984TIP3   OH223915   1.347   1.083   3.692
 7984TIP3    H123916   1.384   1.013   3.639
 7984TIP3    H223917   1.357   1.162   3.639
 7985TIP3   OH223918   0.798   0.514   0.614
 7985TIP3    H123919   0.730   0.581   0.623
 7985TIP3    H223920   0.878   0.564   0.598
 7986TIP3   OH223921   2.267   0.048   1.794
 7986TIP3    H123922   2.344  -0.001   1.763
 7986TIP3    H223923   2.284   0.138   1.767
 7987TIP3   OH223924   1.151   2.513   4.067
 7987TIP3    H123925   1.179   2.429   4.030
 7987TIP3    H223926   1.145   2.498   4.161
 7988TIP3   OH223927   5.102   1.896   1.376
 7988TIP3    H123928   5.187   1.897   1.332
 7988TIP3    H223929   5.071   1.987   1.371
 7989TIP3   OH223930   3.443   3.893   1.852
 7989TIP3    H123931   3.350   3.898   1.872
 7989TIP3    H223932   3.467   3.803   1.871
 7990TIP3   OH223933   4.867   3.467   2.957
 7990TIP3    H123934   4.861   3.559   2.932
 7990TIP3    H223935   4.902   3.469   3.046
 7991TIP3   OH223936   4.578   0.619   3.668
 7991TIP3    H123937   4.630   0.555   3.716
 7991TIP3    H223938   4.641   0.666   3.614
 7992TIP3   OH223939   5.388   5.266   3.420
 7992TIP3    H123940   5.355   5.196   3.365
 7992TIP3    H223941   5.380   5.233   3.509
 7993TIP3   OH223942   3.446   6.643   1.887
 7993TIP3    H123943   3.374   6.696   1.920
 7993TIP3    H223944   3.403   6.567   1.846
 7994TIP3   OH223945   0.783   6.680   3.762
 7994TIP3    H123946   0.698   6.717   3.787
 7994TIP3    H223947   0.806   6.727   3.682
 7995TIP3   OH223948   2.284   5.920   2.486
 7995TIP3    H123949   2.306   5.919   2.393
 7995TIP3    H223950   2.365   5.893   2.529
 7996TIP3   OH223951   4.068   3.358   4.642
 7996TIP3    H123952   4.024   3.302   4.578
 7996TIP3    H223953   4.156   3.369   4.607
 7997TIP3   OH223954   4.597   3.485   4.708
 7997TIP3    H123955   4.641   3.559   4.668
 7997TIP3    H223956   4.622   3.410   4.653
 7998TIP3   OH223957   6.214   4.033   2.893
 7998TIP3    H123958   6.242   3.944   2.871
 7998TIP3    H223959   6.170   4.065   2.815
 7999TIP3   OH223960   6.720   5.284   3.050
 7999TIP3    H123961   6.633   5.282   3.010
 7999TIP3    H223962   6.774   5.231   2.990
 8000TIP3   OH223963   3.559   4.888   3.060
 8000TIP3    H123964   3.565   4.798   3.028
 8000TIP3    H223965   3.469   4.915   3.043
 8001TIP3   OH223966   2.897   1.405   4.182
 8001TIP3    H123967   2.898   1.325   4.235
 8001TIP3    H223968   2.876   1.474   4.245
 8002TIP3   OH223969   6.589   3.921   2.942
 8002TIP3    H123970   6.646   3.981   2.988
 8002TIP3    H223971   6.613   3.834   2.975
 8003TIP3   OH223972   1.388   3.315   3.784
 8003TIP3    H123973   1.453   3.251   3.756
 8003TIP3    H223974   1.382   3.377   3.711
 8004TIP3   OH223975   5.406   3.379   5.575
 8004TIP3    H123976   5.322   3.407   5.614
 8004TIP3    H223977   5.382   3.307   5.517
 8005TIP3   OH223978   0.950   3.040   0.736
 8005TIP3    H123979   0.886   3.103   0.701
 8005TIP3    H223980   1.035   3.082   0.722
 8006TIP3   OH223981   2.691   2.823   3.092
 8006TIP3    H123982   2.670   2.782   3.008
 8006TIP3    H223983   2.610   2.817   3.142
 8007TIP3   OH223984   2.624   0.851   3.344
 8007TIP3    H123985   2.590   0.912   3.279
 8007TIP3    H223986   2.707   0.890   3.372
 8008TIP3   OH223987   5.059   3.262   4.230
 8008TIP3    H123988   4.987   3.230   4.284
 8008TIP3    H223989   5.066   3.355   4.252
 8009TIP3   OH223990   5.507   3.181   4.016
 8009TIP3    H123991   5.433   3.193   3.958
 8009TIP3    H223992   5.469   3.179   4.104
 8010TIP3   OH223993   6.476   6.219   0.179
 8010TIP3    H123994   6.452   6.311   0.177
 8010TIP3    H223995   6.522   6.207   0.262
 8011TIP3   OH223996   6.698   2.578   1.923
 8011TIP3    H123997   6.783   2.562   1.962
 8011TIP3    H223998   6.717   2.630   1.844
 8012TIP3   OH223999   4.599   1.528   0.260
 8012TIP3    H124000   4.622   1.440   0.231
 8012TIP3    H224001   4.505   1.524   0.278
 8013TIP3   OH224002   0.200   3.360   1.235
 8013TIP3    H124003   0.252   3.281   1.220
 8013TIP3    H224004   0.185   3.362   1.330
 8014TIP3   OH224005   3.154   4.340   5.243
 8014TIP3    H124006   3.203   4.375   5.168
 8014TIP3    H224007   3.133   4.417   5.296
 8015TIP3   OH224008   0.245   3.712   4.850
 8015TIP3    H124009   0.310   3.692   4.918
 8015TIP3    H224010   0.188   3.778   4.889
 8016TIP3   OH224011   2.999   3.254   1.334
 8016TIP3    H124012   2.918   3.294   1.303
 8016TIP3    H224013   3.066   3.322   1.323
 8017TIP3   OH224014   5.620   3.026   2.085
 8017TIP3    H124015   5.693   3.030   2.023
 8017TIP3    H224016   5.611   3.116   2.116
 8018TIP3   OH224017   1.294   4.655   4.609
 8018TIP3    H124018   1.296   4.655   4.705
 8018TIP3    H224019   1.320   4.566   4.584
 8019TIP3   OH224020   3.961   3.108   0.551
 8019TIP3    H124021   3.962   3.077   0.642
 8019TIP3    H224022   3.929   3.198   0.557
 8020TIP3   OH224023   5.931   4.882   5.427
 8020TIP3    H124024   6.004   4.861   5.485
 8020TIP3    H224025   5.892   4.797   5.405
 8021TIP3   OH224026   6.754   3.710   2.537
 8021TIP3    H124027   6.801   3.641   2.489
 8021TIP3    H224028   6.817   3.741   2.602
 8022TIP3   OH224029   2.363   6.349   5.544
 8022TIP3    H124030   2.306   6.335   5.469
 8022TIP3    H224031   2.356   6.442   5.563
 8023TIP3   OH224032   2.823   4.482   0.519
 8023TIP3    H124033   2.800   4.543   0.448
 8023TIP3    H224034   2.916   4.466   0.507
 8024TIP3   OH224035   5.335   5.801   2.445
 8024TIP3    H124036   5.427   5.826   2.444
 8024TIP3    H224037   5.317   5.778   2.536
 8025TIP3   OH224038   6.429   6.590   0.859
 8025TIP3    H124039   6.488   6.539   0.804
 8025TIP3    H224040   6.352   6.534   0.869
 8026TIP3   OH224041   2.723   1.572   1.645
 8026TIP3    H124042   2.783   1.526   1.587
 8026TIP3    H224043   2.721   1.520   1.725
 8027TIP3   OH224044   7.003   3.165   0.858
 8027TIP3    H124045   6.908   3.156   0.853
 8027TIP3    H224046   7.035   3.075   0.869
 8028TIP3   OH224047   4.374   1.199   1.009
 8028TIP3    H124048   4.399   1.114   1.046
 8028TIP3    H224049   4.445   1.221   0.949
 8029TIP3   OH224050   3.645   3.267   4.605
 8029TIP3    H124051   3.648   3.190   4.547
 8029TIP3    H224052   3.737   3.292   4.616
 8030TIP3   OH224053   1.970   5.540   0.427
 8030TIP3    H124054   1.986   5.561   0.335
 8030TIP3    H224055   1.885   5.495   0.427
 8031TIP3   OH224056   0.011   6.790   3.178
 8031TIP3    H124057   0.098   6.821   3.201
 8031TIP3    H224058   0.019   6.695   3.175
 8032TIP3   OH224059   1.738   0.294   1.155
 8032TIP3    H124060   1.659   0.298   1.209
 8032TIP3    H224061   1.750   0.383   1.124
 8033TIP3   OH224062   0.632   0.959   5.035
 8033TIP3    H124063   0.637   0.917   4.949
 8033TIP3    H224064   0.644   1.052   5.016
 8034TIP3   OH224065   2.440   4.108   1.175
 8034TIP3    H124066   2.349   4.134   1.195
 8034TIP3    H224067   2.433   4.056   1.096
 8035TIP3   OH224068   1.759   2.593   5.234
 8035TIP3    H124069   1.691   2.527   5.247
 8035TIP3    H224070   1.836   2.542   5.207
 8036TIP3   OH224071   0.117   1.083   1.750
 8036TIP3    H124072   0.157   1.003   1.717
 8036TIP3    H224073   0.103   1.067   1.843
 8037TIP3   OH224074   2.534   5.411   4.159
 8037TIP3    H124075   2.579   5.494   4.144
 8037TIP3    H224076   2.499   5.418   4.248
 8038TIP3   OH224077   6.326   2.278   0.509
 8038TIP3    H124078   6.357   2.274   0.419
 8038TIP3    H224079   6.393   2.233   0.560
 8039TIP3   OH224080   2.607   4.340   5.070
 8039TIP3    H124081   2.670   4.269   5.081
 8039TIP3    H224082   2.541   4.304   5.010
 8040TIP3   OH224083   6.397   0.095   1.578
 8040TIP3    H124084   6.302   0.108   1.585
 8040TIP3    H224085   6.434   0.182   1.590
 8041TIP3   OH224086   6.161   3.285   4.480
 8041TIP3    H124087   6.145   3.341   4.404
 8041TIP3    H224088   6.255   3.294   4.497
 8042TIP3   OH224089   4.504   5.548   3.118
 8042TIP3    H124090   4.413   5.569   3.095
 8042TIP3    H224091   4.506   5.452   3.124
 8043TIP3   OH224092   3.681   1.721   4.789
 8043TIP3    H124093   3.718   1.640   4.754
 8043TIP3    H224094   3.587   1.714   4.772
 8044TIP3   OH224095   4.731   2.487   3.621
 8044TIP3    H124096   4.690   2.566   3.656
 8044TIP3    H224097   4.748   2.433   3.698
 8045TIP3   OH224098   1.935   5.971   4.255
 8045TIP3    H124099   1.860   5.912   4.257
 8045TIP3    H224100   1.992   5.940   4.326
 8046TIP3   OH224101   1.104   1.799   2.896
 8046TIP3    H124102   1.059   1.878   2.865
 8046TIP3    H224103   1.069   1.786   2.985
 8047TIP3   OH224104   3.946   2.386   2.922
 8047TIP3    H124105   4.037   2.392   2.891
 8047TIP3    H224106   3.909   2.313   2.872
 8048TIP3   OH224107   1.993   6.451   4.095
 8048TIP3    H124108   2.046   6.528   4.112
 8048TIP3    H224109   1.988   6.406   4.180
 8049TIP3   OH224110   1.441   0.335   2.293
 8049TIP3    H124111   1.346   0.328   2.286
 8049TIP3    H224112   1.460   0.311   2.384
 8050TIP3   OH224113   4.588   3.135   4.238
 8050TIP3    H124114   4.550   3.106   4.155
 8050TIP3    H224115   4.553   3.223   4.251
 8051TIP3   OH224116   1.346   4.169   2.782
 8051TIP3    H124117   1.319   4.210   2.864
 8051TIP3    H224118   1.296   4.215   2.715
 8052TIP3   OH224119   5.617   0.575   2.269
 8052TIP3    H124120   5.632   0.517   2.194
 8052TIP3    H224121   5.617   0.516   2.345
 8053TIP3   OH224122   3.290   5.484   5.220
 8053TIP3    H124123   3.278   5.507   5.128
 8053TIP3    H224124   3.323   5.394   5.219
 8054TIP3   OH224125   0.811   4.062   1.220
 8054TIP3    H124126   0.753   4.120   1.170
 8054TIP3    H224127   0.898   4.081   1.186
 8055TIP3   OH224128   5.348   5.468   4.279
 8055TIP3    H124129   5.317   5.391   4.327
 8055TIP3    H224130   5.384   5.433   4.198
 8056TIP3   OH224131   2.792   3.505   4.510
 8056TIP3    H124132   2.735   3.494   4.586
 8056TIP3    H224133   2.788   3.420   4.465
 8057TIP3   OH224134   1.187   2.128   0.653
 8057TIP3    H124135   1.213   2.127   0.745
 8057TIP3    H224136   1.107   2.075   0.650
 8058TIP3   OH224137   0.521   3.945   5.831
 8058TIP3    H124138   0.498   3.865   5.878
 8058TIP3    H224139   0.453   3.956   5.765
 8059TIP3   OH224140   6.477   2.446   1.731
 8059TIP3    H124141   6.535   2.412   1.664
 8059TIP3    H224142   6.523   2.430   1.813
 8060TIP3   OH224143   4.696   5.761   5.257
 8060TIP3    H124144   4.671   5.711   5.179
 8060TIP3    H224145   4.700   5.696   5.327
 8061TIP3   OH224146   2.258   2.878   2.293
 8061TIP3    H124147   2.193   2.859   2.361
 8061TIP3    H224148   2.221   2.842   2.213
 8062TIP3   OH224149   2.620   4.308   0.485
 8062TIP3    H124150   2.699   4.358   0.467
 8062TIP3    H224151   2.564   4.323   0.409
 8063TIP3   OH224152   2.961   4.760   5.734
 8063TIP3    H124153   2.894   4.757   5.666
 8063TIP3    H224154   2.967   4.670   5.765
 8064TIP3   OH224155   3.625   4.203   0.458
 8064TIP3    H124156   3.558   4.158   0.509
 8064TIP3    H224157   3.652   4.139   0.392
 8065TIP3   OH224158   2.503   1.078   0.479
 8065TIP3    H124159   2.557   1.137   0.533
 8065TIP3    H224160   2.553   1.069   0.398
 8066TIP3   OH224161   6.350   1.022   5.490
 8066TIP3    H124162   6.295   0.970   5.548
 8066TIP3    H224163   6.318   1.002   5.402
 8067TIP3   OH224164   5.390   4.253   5.402
 8067TIP3    H124165   5.427   4.210   5.325
 8067TIP3    H224166   5.466   4.273   5.457
 8068TIP3   OH224167   6.976   2.788   2.719
 8068TIP3    H124168   6.886   2.761   2.702
 8068TIP3    H224169   6.969   2.881   2.744
 8069TIP3   OH224170   5.902   0.689   1.029
 8069TIP3    H124171   5.943   0.685   1.115
 8069TIP3    H224172   5.870   0.601   1.012
 8070TIP3   OH224173   1.725   4.541   0.297
 8070TIP3    H124174   1.679   4.490   0.364
 8070TIP3    H224175   1.688   4.629   0.304
 8071TIP3   OH224176   6.415   2.494   2.282
 8071TIP3    H124177   6.444   2.474   2.193
 8071TIP3    H224178   6.320   2.501   2.276
 8072TIP3   OH224179   6.500   3.800   0.516
 8072TIP3    H124180   6.436   3.801   0.444
 8072TIP3    H224181   6.495   3.711   0.551
 8073TIP3   OH224182   0.429   4.650   4.740
 8073TIP3    H124183   0.359   4.691   4.690
 8073TIP3    H224184   0.387   4.620   4.820
 8074TIP3   OH224185   1.547   0.576   4.862
 8074TIP3    H124186   1.475   0.521   4.831
 8074TIP3    H224187   1.526   0.594   4.954
 8075TIP3   OH224188   1.037   2.564   5.546
 8075TIP3    H124189   1.018   2.502   5.616
 8075TIP3    H224190   1.076   2.510   5.476
 8076TIP3   OH224191   1.339   6.226   3.304
 8076TIP3    H124192   1.352   6.287   3.231
 8076TIP3    H224193   1.329   6.141   3.263
 8077TIP3   OH224194   0.869   4.299   4.575
 8077TIP3    H124195   0.824   4.216   4.559
 8077TIP3    H224196   0.848   4.353   4.498
 8078TIP3   OH224197   0.980   4.502   5.081
 8078TIP3    H124198   0.997   4.408   5.078
 8078TIP3    H224199   1.060   4.540   5.118
 8079TIP3   OH224200   0.727   1.106   2.995
 8079TIP3    H124201   0.777   1.171   2.945
 8079TIP3    H224202   0.667   1.068   2.931
 8080TIP3   OH224203   4.154   2.657   1.062
 8080TIP3    H124204   4.082   2.655   1.000
 8080TIP3    H224205   4.122   2.710   1.135
 8081TIP3   OH224206   3.161   3.725   1.173
 8081TIP3    H124207   3.105   3.775   1.233
 8081TIP3    H224208   3.206   3.791   1.122
 8082TIP3   OH224209   1.841   0.165   0.920
 8082TIP3    H124210   1.900   0.090   0.928
 8082TIP3    H224211   1.830   0.196   1.010
 8083TIP3   OH224212   1.341   6.606   2.383
 8083TIP3    H124213   1.302   6.690   2.409
 8083TIP3    H224214   1.433   6.614   2.405
 8084TIP3   OH224215   5.594   4.273   2.854
 8084TIP3    H124216   5.525   4.238   2.910
 8084TIP3    H224217   5.619   4.356   2.895
 8085TIP3   OH224218   5.767   2.622   2.706
 8085TIP3    H124219   5.828   2.662   2.644
 8085TIP3    H224220   5.696   2.685   2.715
 8086TIP3   OH224221   3.197   1.876   2.896
 8086TIP3    H124222   3.106   1.894   2.922
 8086TIP3    H224223   3.193   1.870   2.800
 8087TIP3   OH224224   0.680   5.846   3.451
 8087TIP3    H124225   0.663   5.864   3.544
 8087TIP3    H224226   0.676   5.751   3.444
 8088TIP3   OH224227   1.683   1.006   5.587
 8088TIP3    H124228   1.691   0.995   5.682
 8088TIP3    H224229   1.737   1.083   5.568
 8089TIP3   OH224230   6.351   2.963   0.163
 8089TIP3    H124231   6.285   3.025   0.194
 8089TIP3    H224232   6.307   2.914   0.094
 8090TIP3   OH224233   6.134   5.738   1.603
 8090TIP3    H124234   6.066   5.717   1.667
 8090TIP3    H224235   6.172   5.820   1.634
 8091TIP3   OH224236   4.953   1.410   3.012
 8091TIP3    H124237   4.959   1.407   2.916
 8091TIP3    H224238   5.042   1.392   3.042
 8092TIP3   OH224239   1.524   0.903   5.153
 8092TIP3    H124240   1.590   0.844   5.190
 8092TIP3    H224241   1.458   0.844   5.117
 8093TIP3   OH224242   5.466   4.014   3.348
 8093TIP3    H124243   5.489   3.942   3.290
 8093TIP3    H224244   5.540   4.074   3.342
 8094TIP3   OH224245   1.759   2.783   5.713
 8094TIP3    H124246   1.712   2.864   5.736
 8094TIP3    H224247   1.753   2.779   5.618
 8095TIP3   OH224248   1.532   0.258   1.344
 8095TIP3    H124249   1.569   0.283   1.428
 8095TIP3    H224250   1.507   0.166   1.355
 8096TIP3   OH224251   3.473   5.742   5.054
 8096TIP3    H124252   3.557   5.758   5.012
 8096TIP3    H224253   3.434   5.670   5.005
 8097TIP3   OH224254   3.149   2.594   4.321
 8097TIP3    H124255   3.221   2.592   4.258
 8097TIP3    H224256   3.082   2.538   4.283
 8098TIP3   OH224257   4.624   0.040   5.436
 8098TIP3    H124258   4.636   0.103   5.365
 8098TIP3    H224259   4.533   0.053   5.465
 8099TIP3   OH224260   0.457   0.371   2.966
 8099TIP3    H124261   0.417   0.437   3.023
 8099TIP3    H224262   0.388   0.306   2.951
 8100TIP3   OH224263   3.101   4.745   4.013
 8100TIP3    H124264   3.036   4.749   3.943
 8100TIP3    H224265   3.155   4.669   3.991
 8101TIP3   OH224266   1.542   5.080   1.187
 8101TIP3    H124267   1.478   5.147   1.208
 8101TIP3    H224268   1.625   5.113   1.223
 8102TIP3   OH224269   2.454   4.873   3.047
 8102TIP3    H124270   2.420   4.958   3.020
 8102TIP3    H224271   2.409   4.853   3.129
 8103TIP3   OH224272   2.959   5.036   2.237
 8103TIP3    H124273   2.946   4.941   2.246
 8103TIP3    H224274   2.933   5.071   2.322
 8104TIP3   OH224275   1.430   4.053   3.500
 8104TIP3    H124276   1.415   4.113   3.426
 8104TIP3    H224277   1.439   3.967   3.459
 8105TIP3   OH224278   3.644   3.941   5.493
 8105TIP3    H124279   3.608   4.027   5.514
 8105TIP3    H224280   3.711   3.958   5.427
 8106TIP3   OH224281   3.817   4.954   5.197
 8106TIP3    H124282   3.731   4.913   5.192
 8106TIP3    H224283   3.877   4.886   5.166
 8107TIP3   OH224284   2.321   4.186   3.955
 8107TIP3    H124285   2.300   4.125   4.026
 8107TIP3    H224286   2.325   4.132   3.877
 8108TIP3   OH224287   1.637   3.164   0.456
 8108TIP3    H124288   1.601   3.105   0.522
 8108TIP3    H224289   1.661   3.243   0.506
 8109TIP3   OH224290   5.882   3.568   0.793
 8109TIP3    H124291   5.973   3.540   0.805
 8109TIP3    H224292   5.888   3.658   0.762
 8110TIP3   OH224293   1.216   5.758   4.740
 8110TIP3    H124294   1.158   5.691   4.777
 8110TIP3    H224295   1.157   5.827   4.710
 8111TIP3   OH224296   6.565   5.844   4.770
 8111TIP3    H124297   6.658   5.835   4.788
 8111TIP3    H224298   6.561   5.890   4.686
 8112TIP3   OH224299   2.017   6.007   1.776
 8112TIP3    H124300   2.004   6.013   1.871
 8112TIP3    H224301   2.098   6.055   1.759
 8113TIP3   OH224302   1.814   3.189   4.320
 8113TIP3    H124303   1.747   3.135   4.363
 8113TIP3    H224304   1.768   3.231   4.247
 8114TIP3   OH224305   3.488   3.563   4.917
 8114TIP3    H124306   3.426   3.631   4.943
 8114TIP3    H224307   3.443   3.516   4.847
 8115TIP3   OH224308   0.120   2.861   4.550
 8115TIP3    H124309   0.205   2.817   4.547
 8115TIP3    H224310   0.129   2.925   4.621
 8116TIP3   OH224311   2.510   5.568   4.890
 8116TIP3    H124312   2.448   5.641   4.899
 8116TIP3    H224313   2.466   5.494   4.932
 8117TIP3   OH224314   3.525   3.394   2.805
 8117TIP3    H124315   3.488   3.417   2.890
 8117TIP3    H224316   3.465   3.329   2.769
 8118TIP3   OH224317   2.427   2.526   3.814
 8118TIP3    H124318   2.355   2.465   3.796
 8118TIP3    H224319   2.388   2.594   3.868
 8119TIP3   OH224320   5.024   5.470   2.684
 8119TIP3    H124321   5.036   5.463   2.779
 8119TIP3    H224322   5.060   5.388   2.650
 8120TIP3   OH224323   2.477   2.123   5.137
 8120TIP3    H124324   2.420   2.199   5.150
 8120TIP3    H224325   2.465   2.100   5.045
 8121TIP3   OH224326   3.742   0.933   3.691
 8121TIP3    H124327   3.718   0.973   3.608
 8121TIP3    H224328   3.780   1.004   3.742
 8122TIP3   OH224329   6.599   1.074   4.141
 8122TIP3    H124330   6.586   0.991   4.094
 8122TIP3    H224331   6.591   1.141   4.073
 8123TIP3   OH224332   6.781   1.011   1.372
 8123TIP3    H124333   6.755   1.002   1.464
 8123TIP3    H224334   6.776   1.106   1.356
 8124TIP3   OH224335   6.372   6.073   5.768
 8124TIP3    H124336   6.328   6.108   5.845
 8124TIP3    H224337   6.321   5.995   5.744
 8125TIP3   OH224338   5.271   6.748   2.546
 8125TIP3    H124339   5.223   6.830   2.531
 8125TIP3    H224340   5.343   6.773   2.604
 8126TIP3   OH224341   1.323   3.334   0.445
 8126TIP3    H124342   1.396   3.272   0.453
 8126TIP3    H224343   1.254   3.296   0.499
 8127TIP3   OH224344   4.740   6.613   5.105
 8127TIP3    H124345   4.762   6.548   5.039
 8127TIP3    H224346   4.802   6.597   5.176
 8128TIP3   OH224347   0.466   2.588   3.709
 8128TIP3    H124348   0.558   2.601   3.686
 8128TIP3    H224349   0.417   2.615   3.631
 8129TIP3   OH224350   2.522   4.059   3.402
 8129TIP3    H124351   2.441   4.045   3.450
 8129TIP3    H224352   2.521   3.994   3.332
 8130TIP3   OH224353   6.910   1.223   5.880
 8130TIP3    H124354   6.930   1.317   5.879
 8130TIP3    H224355   6.991   1.181   5.851
 8131TIP3   OH224356   2.385   3.886   0.908
 8131TIP3    H124357   2.301   3.932   0.908
 8131TIP3    H224358   2.398   3.860   0.817
 8132TIP3   OH224359   1.977   1.434   3.339
 8132TIP3    H124360   1.956   1.486   3.261
 8132TIP3    H224361   2.069   1.451   3.355
 8133TIP3   OH224362   2.291   2.812   1.266
 8133TIP3    H124363   2.340   2.851   1.339
 8133TIP3    H224364   2.239   2.884   1.232
 8134TIP3   OH224365   2.086   5.752   3.809
 8134TIP3    H124366   2.075   5.670   3.858
 8134TIP3    H224367   2.009   5.758   3.753
 8135TIP3   OH224368   0.771   5.217   4.181
 8135TIP3    H124369   0.802   5.138   4.137
 8135TIP3    H224370   0.799   5.289   4.125
 8136TIP3   OH224371   4.340   3.417   2.133
 8136TIP3    H124372   4.326   3.510   2.118
 8136TIP3    H224373   4.306   3.374   2.055
 8137TIP3   OH224374   1.382   1.372   2.526
 8137TIP3    H124375   1.367   1.280   2.504
 8137TIP3    H224376   1.371   1.418   2.443
 8138TIP3   OH224377   0.186   3.170   3.686
 8138TIP3    H124378   0.199   3.099   3.623
 8138TIP3    H224379   0.099   3.155   3.721
 8139TIP3   OH224380   1.615   3.484   5.637
 8139TIP3    H124381   1.581   3.529   5.559
 8139TIP3    H224382   1.628   3.554   5.701
 8140TIP3   OH224383   4.925   4.650   0.429
 8140TIP3    H124384   4.882   4.579   0.477
 8140TIP3    H224385   4.889   4.643   0.340
 8141TIP3   OH224386   6.764   1.913   3.703
 8141TIP3    H124387   6.734   1.909   3.794
 8141TIP3    H224388   6.859   1.906   3.709
 8142TIP3   OH224389   4.855   5.490   5.216
 8142TIP3    H124390   4.837   5.485   5.309
 8142TIP3    H224391   4.778   5.451   5.174
 8143TIP3   OH224392   5.419   5.051   3.008
 8143TIP3    H124393   5.510   5.026   2.990
 8143TIP3    H224394   5.382   5.071   2.922
 8144TIP3   OH224395   7.036   1.160   5.419
 8144TIP3    H124396   7.030   1.114   5.335
 8144TIP3    H224397   6.950   1.148   5.458
 8145TIP3   OH224398   4.815   2.737   2.362
 8145TIP3    H124399   4.831   2.649   2.396
 8145TIP3    H224400   4.753   2.724   2.290
 8146TIP3   OH224401   3.941   1.664   2.507
 8146TIP3    H124402   4.009   1.606   2.543
 8146TIP3    H224403   3.914   1.717   2.582
 8147TIP3   OH224404   4.358   4.298   2.641
 8147TIP3    H124405   4.400   4.334   2.719
 8147TIP3    H224406   4.347   4.205   2.661
 8148TIP3   OH224407   4.990   4.290   4.276
 8148TIP3    H124408   5.026   4.327   4.356
 8148TIP3    H224409   4.903   4.329   4.267
 8149TIP3   OH224410   3.912   5.247   3.069
 8149TIP3    H124411   3.923   5.246   2.974
 8149TIP3    H224412   3.878   5.160   3.091
 8150TIP3   OH224413   3.696   2.420   3.705
 8150TIP3    H124414   3.741   2.357   3.649
 8150TIP3    H224415   3.603   2.400   3.693
 8151TIP3   OH224416   0.309   5.801   4.729
 8151TIP3    H124417   0.405   5.800   4.729
 8151TIP3    H224418   0.285   5.829   4.818
 8152TIP3   OH224419   0.143   5.126   1.900
 8152TIP3    H124420   0.135   5.203   1.957
 8152TIP3    H224421   0.128   5.160   1.812
 8153TIP3   OH224422   3.865   1.960   3.616
 8153TIP3    H124423   3.917   1.922   3.687
 8153TIP3    H224424   3.854   2.052   3.642
 8154TIP3   OH224425   0.943   0.525   1.933
 8154TIP3    H124426   0.923   0.592   1.998
 8154TIP3    H224427   0.915   0.443   1.973
 8155TIP3   OH224428   3.895   1.210   1.779
 8155TIP3    H124429   3.844   1.244   1.853
 8155TIP3    H224430   3.960   1.152   1.819
 8156TIP3   OH224431   3.008   4.510   2.896
 8156TIP3    H124432   2.974   4.422   2.885
 8156TIP3    H224433   3.090   4.499   2.945
 8157TIP3   OH224434   2.176   5.804   4.201
 8157TIP3    H124435   2.105   5.869   4.197
 8157TIP3    H224436   2.218   5.820   4.286
 8158TIP3   OH224437   3.389   2.080   2.902
 8158TIP3    H124438   3.318   2.017   2.908
 8158TIP3    H224439   3.354   2.152   2.849
 8159TIP3   OH224440   1.238   6.033   5.092
 8159TIP3    H124441   1.316   6.088   5.090
 8159TIP3    H224442   1.266   5.950   5.052
 8160TIP3   OH224443   6.145   4.986   4.474
 8160TIP3    H124444   6.174   4.905   4.430
 8160TIP3    H224445   6.189   5.056   4.426
 8161TIP3   OH224446   6.903   1.963   0.371
 8161TIP3    H124447   6.863   2.050   0.380
 8161TIP3    H224448   6.829   1.904   0.356
 8162TIP3   OH224449   2.693   4.354   3.962
 8162TIP3    H124450   2.649   4.435   3.935
 8162TIP3    H224451   2.739   4.325   3.883
 8163TIP3   OH224452   4.064   5.477   4.180
 8163TIP3    H124453   4.131   5.501   4.243
 8163TIP3    H224454   4.061   5.551   4.119
 8164TIP3   OH224455   1.636   1.628   1.621
 8164TIP3    H124456   1.556   1.618   1.569
 8164TIP3    H224457   1.618   1.704   1.677
 8165TIP3   OH224458   6.614   4.189   3.507
 8165TIP3    H124459   6.673   4.125   3.546
 8165TIP3    H224460   6.626   4.179   3.413
 8166TIP3   OH224461   7.008   0.381   5.188
 8166TIP3    H124462   7.030   0.447   5.123
 8166TIP3    H224463   7.040   0.417   5.271
 8167TIP3   OH224464   6.524   0.617   4.178
 8167TIP3    H124465   6.518   0.623   4.273
 8167TIP3    H224466   6.523   0.522   4.160
 8168TIP3   OH224467   2.712   6.087   0.981
 8168TIP3    H124468   2.676   6.096   0.893
 8168TIP3    H224469   2.688   6.168   1.025
 8169TIP3   OH224470   5.234   5.750   3.592
 8169TIP3    H124471   5.256   5.758   3.685
 8169TIP3    H224472   5.286   5.676   3.562
 8170TIP3   OH224473   2.999   6.350   0.487
 8170TIP3    H124474   2.994   6.438   0.449
 8170TIP3    H224475   2.936   6.298   0.436
 8171TIP3   OH224476   5.154   2.626   1.337
 8171TIP3    H124477   5.227   2.564   1.336
 8171TIP3    H224478   5.176   2.687   1.407
 8172TIP3   OH224479   3.698   4.273   1.791
 8172TIP3    H124480   3.739   4.326   1.859
 8172TIP3    H224481   3.637   4.217   1.838
 8173TIP3   OH224482   6.171   6.196   0.149
 8173TIP3    H124483   6.204   6.115   0.109
 8173TIP3    H224484   6.245   6.257   0.143
 8174TIP3   OH224485   1.946   6.032   3.402
 8174TIP3    H124486   1.869   6.088   3.403
 8174TIP3    H224487   2.019   6.091   3.423
 8175TIP3   OH224488   3.465   5.308   4.392
 8175TIP3    H124489   3.518   5.371   4.442
 8175TIP3    H224490   3.392   5.360   4.358
 8176TIP3   OH224491   2.889   5.598   0.860
 8176TIP3    H124492   2.939   5.561   0.932
 8176TIP3    H224493   2.797   5.589   0.887
 8177TIP3   OH224494   5.472   0.389   1.460
 8177TIP3    H124495   5.477   0.316   1.399
 8177TIP3    H224496   5.523   0.458   1.418
 8178TIP3   OH224497   4.423   3.667   3.716
 8178TIP3    H124498   4.351   3.659   3.653
 8178TIP3    H224499   4.388   3.633   3.798
 8179TIP3   OH224500   6.017   1.931   2.276
 8179TIP3    H124501   5.969   1.956   2.355
 8179TIP3    H224502   6.050   2.014   2.241
 8180TIP3   OH224503   4.923   2.385   0.182
 8180TIP3    H124504   4.851   2.368   0.120
 8180TIP3    H224505   4.945   2.477   0.168
 8181TIP3   OH224506   5.103   4.193   4.769
 8181TIP3    H124507   5.182   4.150   4.735
 8181TIP3    H224508   5.127   4.286   4.774
 8182TIP3   OH224509   1.871   5.537   5.544
 8182TIP3    H124510   1.803   5.509   5.606
 8182TIP3    H224511   1.852   5.488   5.464
 8183TIP3   OH224512   3.537   5.111   4.214
 8183TIP3    H124513   3.459   5.129   4.161
 8183TIP3    H224514   3.540   5.183   4.278
 8184TIP3   OH224515   4.070   6.310   2.848
 8184TIP3    H124516   4.125   6.389   2.848
 8184TIP3    H224517   4.123   6.244   2.802
 8185TIP3   OH224518   4.566   2.969   0.287
 8185TIP3    H124519   4.518   2.886   0.293
 8185TIP3    H224520   4.590   2.989   0.377
 8186TIP3   OH224521   4.908   4.948   1.543
 8186TIP3    H124522   4.906   4.991   1.629
 8186TIP3    H224523   4.942   4.860   1.561
 8187TIP3   OH224524   2.569   6.784   5.764
 8187TIP3    H124525   2.628   6.710   5.755
 8187TIP3    H224526   2.580   6.835   5.684
 8188TIP3   OH224527   2.974   1.708   0.254
 8188TIP3    H124528   3.026   1.638   0.213
 8188TIP3    H224529   3.034   1.749   0.316
 8189TIP3   OH224530   4.755   3.034   1.827
 8189TIP3    H124531   4.673   3.037   1.878
 8189TIP3    H224532   4.750   3.111   1.771
 8190TIP3   OH224533   4.515   1.953   1.164
 8190TIP3    H124534   4.561   2.035   1.184
 8190TIP3    H224535   4.534   1.937   1.072
 8191TIP3   OH224536   3.060   1.490   1.106
 8191TIP3    H124537   3.012   1.514   1.026
 8191TIP3    H224538   3.110   1.568   1.129
 8192TIP3   OH224539   3.797   0.600   2.533
 8192TIP3    H124540   3.840   0.553   2.462
 8192TIP3    H224541   3.854   0.675   2.550
 8193TIP3   OH224542   4.338   4.253   3.943
 8193TIP3    H124543   4.346   4.164   3.909
 8193TIP3    H224544   4.362   4.310   3.870
 8194TIP3   OH224545   6.419   6.777   4.717
 8194TIP3    H124546   6.460   6.863   4.719
 8194TIP3    H224547   6.376   6.769   4.802
 8195TIP3   OH224548   4.866   6.761   1.949
 8195TIP3    H124549   4.928   6.769   1.877
 8195TIP3    H224550   4.796   6.705   1.915
 8196TIP3   OH224551   3.683   0.081   3.986
 8196TIP3    H124552   3.684   0.171   3.952
 8196TIP3    H224553   3.672   0.091   4.081
 8197TIP3   OH224554   1.997   1.299   5.280
 8197TIP3    H124555   1.972   1.381   5.323
 8197TIP3    H224556   1.950   1.300   5.197
 8198TIP3   OH224557   2.670   2.079   1.885
 8198TIP3    H124558   2.634   2.053   1.970
 8198TIP3    H224559   2.711   2.000   1.851
 8199TIP3   OH224560   5.257   0.510   1.582
 8199TIP3    H124561   5.231   0.532   1.493
 8199TIP3    H224562   5.339   0.462   1.573
 8200TIP3   OH224563   6.394   4.607   0.446
 8200TIP3    H124564   6.423   4.644   0.362
 8200TIP3    H224565   6.395   4.682   0.506
 8201TIP3   OH224566   4.333   4.613   5.117
 8201TIP3    H124567   4.391   4.676   5.074
 8201TIP3    H224568   4.340   4.534   5.064
 8202TIP3   OH224569   0.603   0.331   4.628
 8202TIP3    H124570   0.542   0.380   4.573
 8202TIP3    H224571   0.667   0.395   4.657
 8203TIP3   OH224572   0.997   5.978   4.191
 8203TIP3    H124573   1.078   5.978   4.241
 8203TIP3    H224574   0.974   6.071   4.182
 8204TIP3   OH224575   4.086   3.321   3.104
 8204TIP3    H124576   4.063   3.303   3.013
 8204TIP3    H224577   4.079   3.416   3.113
 8205TIP3   OH224578   1.900   6.026   2.706
 8205TIP3    H124579   1.858   6.012   2.791
 8205TIP3    H224580   1.855   6.102   2.669
 8206TIP3   OH224581   6.801   4.305   5.167
 8206TIP3    H124582   6.757   4.238   5.115
 8206TIP3    H224583   6.731   4.348   5.216
 8207TIP3   OH224584   6.737   3.821   1.806
 8207TIP3    H124585   6.665   3.760   1.819
 8207TIP3    H224586   6.798   3.802   1.877
 8208TIP3   OH224587   3.951   5.789   5.714
 8208TIP3    H124588   3.914   5.868   5.673
 8208TIP3    H224589   3.961   5.813   5.806
 8209TIP3   OH224590   1.596   2.307   4.703
 8209TIP3    H124591   1.547   2.225   4.708
 8209TIP3    H224592   1.668   2.295   4.766
 8210TIP3   OH224593   3.800   5.152   1.185
 8210TIP3    H124594   3.721   5.197   1.213
 8210TIP3    H224595   3.863   5.222   1.168
 8211TIP3   OH224596   4.979   3.649   2.128
 8211TIP3    H124597   4.916   3.577   2.131
 8211TIP3    H224598   5.018   3.644   2.041
 8212TIP3   OH224599   2.193   3.812   2.474
 8212TIP3    H124600   2.195   3.880   2.542
 8212TIP3    H224601   2.121   3.838   2.417
 8213TIP3   OH224602   6.118   2.295   3.449
 8213TIP3    H124603   6.191   2.293   3.511
 8213TIP3    H224604   6.077   2.209   3.456
 8214TIP3   OH224605   5.689   4.392   5.817
 8214TIP3    H124606   5.597   4.368   5.810
 8214TIP3    H224607   5.691   4.484   5.789
 8215TIP3   OH224608   4.198   4.233   4.180
 8215TIP3    H124609   4.260   4.211   4.111
 8215TIP3    H224610   4.195   4.329   4.180
 8216TIP3   OH224611   2.836   6.728   3.388
 8216TIP3    H124612   2.790   6.792   3.334
 8216TIP3    H224613   2.909   6.776   3.426
 8217TIP3   OH224614   3.381   0.569   3.649
 8217TIP3    H124615   3.364   0.489   3.598
 8217TIP3    H224616   3.463   0.602   3.612
 8218TIP3   OH224617   7.201   0.179   0.302
 8218TIP3    H124618   7.271   0.215   0.248
 8218TIP3    H224619   7.185   0.092   0.266
 8219TIP3   OH224620   4.079   0.988   0.868
 8219TIP3    H124621   4.100   1.047   0.795
 8219TIP3    H224622   4.164   0.971   0.910
 8220TIP3   OH224623   2.359   1.733   0.262
 8220TIP3    H124624   2.430   1.774   0.311
 8220TIP3    H224625   2.300   1.698   0.329
 8221TIP3   OH224626   1.196   1.399   1.988
 8221TIP3    H124627   1.233   1.328   2.040
 8221TIP3    H224628   1.249   1.401   1.909
 8222TIP3   OH224629   5.029   5.704   5.236
 8222TIP3    H124630   4.973   5.626   5.247
 8222TIP3    H224631   5.019   5.752   5.318
 8223TIP3   OH224632   4.301   4.260   4.727
 8223TIP3    H124633   4.387   4.298   4.744
 8223TIP3    H224634   4.252   4.328   4.682
 8224TIP3   OH224635   6.552   4.365   5.277
 8224TIP3    H124636   6.573   4.426   5.347
 8224TIP3    H224637   6.499   4.297   5.319
 8225TIP3   OH224638   6.873   1.676   1.136
 8225TIP3    H124639   6.865   1.765   1.103
 8225TIP3    H224640   6.801   1.629   1.095
 8226TIP3   OH224641   1.213   4.069   0.781
 8226TIP3    H124642   1.180   4.020   0.705
 8226TIP3    H224643   1.164   4.034   0.855
 8227TIP3   OH224644   6.876   4.015   3.946
 8227TIP3    H124645   6.819   4.091   3.958
 8227TIP3    H224646   6.816   3.942   3.935
 8228TIP3   OH224647   2.978   5.706   5.521
 8228TIP3    H124648   2.950   5.623   5.481
 8228TIP3    H224649   2.928   5.773   5.475
 8229TIP3   OH224650   3.684   4.960   1.041
 8229TIP3    H124651   3.735   4.906   0.980
 8229TIP3    H224652   3.749   5.013   1.086
 8230TIP3   OH224653   5.595   2.807   2.778
 8230TIP3    H124654   5.628   2.860   2.851
 8230TIP3    H224655   5.529   2.861   2.735
 8231TIP3   OH224656   0.088   0.946   4.510
 8231TIP3    H124657  -0.004   0.969   4.523
 8231TIP3    H224658   0.089   0.897   4.427
 8232TIP3   OH224659   5.572   3.330   3.416
 8232TIP3    H124660   5.634   3.392   3.454
 8232TIP3    H224661   5.553   3.365   3.329
 8233TIP3   OH224662   4.250   6.758   4.429
 8233TIP3    H124663   4.243   6.725   4.340
 8233TIP3    H224664   4.160   6.776   4.456
 8234TIP3   OH224665   4.331   6.447   4.645
 8234TIP3    H124666   4.348   6.531   4.688
 8234TIP3    H224667   4.238   6.431   4.660
 8235TIP3   OH224668   1.112   5.074   1.880
 8235TIP3    H124669   1.145   5.062   1.969
 8235TIP3    H224670   1.180   5.037   1.824
 8236TIP3   OH224671   2.949   4.209   3.479
 8236TIP3    H124672   2.905   4.242   3.400
 8236TIP3    H224673   2.896   4.135   3.507
 8237TIP3   OH224674   0.999   5.530   5.800
 8237TIP3    H124675   0.957   5.546   5.716
 8237TIP3    H224676   0.986   5.612   5.849
 8238TIP3   OH224677   6.820   3.681   0.281
 8238TIP3    H124678   6.868   3.719   0.355
 8238TIP3    H224679   6.731   3.716   0.291
 8239TIP3   OH224680   6.760   5.996   0.868
 8239TIP3    H124681   6.733   5.936   0.799
 8239TIP3    H224682   6.752   5.945   0.949
 8240TIP3   OH224683   4.904   1.727   3.927
 8240TIP3    H124684   4.839   1.662   3.899
 8240TIP3    H224685   4.967   1.678   3.979
 8241TIP3   OH224686   1.547   4.428   3.178
 8241TIP3    H124687   1.590   4.477   3.248
 8241TIP3    H224688   1.510   4.495   3.121
 8242TIP3   OH224689   0.260   0.544   2.142
 8242TIP3    H124690   0.260   0.495   2.059
 8242TIP3    H224691   0.204   0.619   2.125
 8243TIP3   OH224692   4.656   0.907   2.193
 8243TIP3    H124693   4.717   0.950   2.134
 8243TIP3    H224694   4.710   0.848   2.245
 8244TIP3   OH224695   1.388   1.602   5.858
 8244TIP3    H124696   1.301   1.602   5.897
 8244TIP3    H224697   1.417   1.511   5.862
 8245TIP3   OH224698   3.592   2.760   5.657
 8245TIP3    H124699   3.681   2.725   5.657
 8245TIP3    H224700   3.580   2.795   5.568
 8246TIP3   OH224701   2.055   1.240   3.089
 8246TIP3    H124702   2.146   1.242   3.117
 8246TIP3    H224703   2.005   1.237   3.171
 8247TIP3   OH224704   1.313   0.931   4.757
 8247TIP3    H124705   1.366   0.894   4.687
 8247TIP3    H224706   1.361   0.912   4.837
 8248TIP3   OH224707   5.269   5.291   4.743
 8248TIP3    H124708   5.271   5.201   4.774
 8248TIP3    H224709   5.325   5.339   4.804
 8249TIP3   OH224710   4.434   0.686   1.857
 8249TIP3    H124711   4.510   0.684   1.799
 8249TIP3    H224712   4.363   0.650   1.804
 8250TIP3   OH224713   1.512   4.873   1.005
 8250TIP3    H124714   1.536   4.943   1.066
 8250TIP3    H224715   1.492   4.919   0.923
 8251TIP3   OH224716   6.798   2.928   4.835
 8251TIP3    H124717   6.749   2.946   4.755
 8251TIP3    H224718   6.816   3.015   4.872
 8252TIP3   OH224719   4.409   0.634   3.188
 8252TIP3    H124720   4.360   0.669   3.113
 8252TIP3    H224721   4.366   0.672   3.264
 8253TIP3   OH224722   0.166   5.353   1.133
 8253TIP3    H124723   0.197   5.321   1.218
 8253TIP3    H224724   0.075   5.326   1.128
 8254TIP3   OH224725   4.225   5.678   5.763
 8254TIP3    H124726   4.298   5.692   5.703
 8254TIP3    H224727   4.159   5.741   5.735
 8255TIP3   OH224728   1.484   0.784   5.817
 8255TIP3    H124729   1.394   0.779   5.849
 8255TIP3    H224730   1.505   0.878   5.819
 8256TIP3   OH224731   1.597   2.131   5.688
 8256TIP3    H124732   1.522   2.103   5.636
 8256TIP3    H224733   1.643   2.194   5.632
 8257TIP3   OH224734   3.522   6.569   0.266
 8257TIP3    H124735   3.500   6.477   0.280
 8257TIP3    H224736   3.551   6.574   0.175
 8258TIP3   OH224737   3.376   5.365   0.337
 8258TIP3    H124738   3.352   5.286   0.386
 8258TIP3    H224739   3.320   5.364   0.260
 8259TIP3   OH224740   4.376   4.635   2.369
 8259TIP3    H124741   4.331   4.673   2.445
 8259TIP3    H224742   4.361   4.698   2.299
 8260TIP3   OH224743   0.708   6.402   0.688
 8260TIP3    H124744   0.766   6.471   0.656
 8260TIP3    H224745   0.766   6.326   0.699
 8261TIP3   OH224746   6.101   5.556   2.015
 8261TIP3    H124747   6.189   5.584   1.990
 8261TIP3    H224748   6.090   5.588   2.105
 8262TIP3   OH224749   2.404   4.515   0.354
 8262TIP3    H124750   2.338   4.528   0.286
 8262TIP3    H224751   2.487   4.530   0.309
 8263TIP3   OH224752   1.720   3.269   5.561
 8263TIP3    H124753   1.788   3.288   5.496
 8263TIP3    H224754   1.683   3.354   5.584
 8264TIP3   OH224755   0.389   4.909   5.707
 8264TIP3    H124756   0.384   4.819   5.738
 8264TIP3    H224757   0.362   4.961   5.783
 8265TIP3   OH224758   0.331   4.617   3.379
 8265TIP3    H124759   0.426   4.622   3.368
 8265TIP3    H224760   0.295   4.645   3.295
 8266TIP3   OH224761   1.961   5.185   5.204
 8266TIP3    H124762   2.029   5.136   5.158
 8266TIP3    H224763   1.933   5.126   5.274
 8267TIP3   OH224764   2.251   5.638   0.313
 8267TIP3    H124765   2.165   5.614   0.278
 8267TIP3    H224766   2.267   5.574   0.383
 8268TIP3   OH224767   3.353   4.003   5.636
 8268TIP3    H124768   3.427   4.052   5.671
 8268TIP3    H224769   3.335   4.044   5.551
 8269TIP3   OH224770   2.227   4.790   4.275
 8269TIP3    H124771   2.157   4.812   4.214
 8269TIP3    H224772   2.189   4.722   4.331
 8270TIP3   OH224773   0.342   5.402   4.396
 8270TIP3    H124774   0.322   5.473   4.457
 8270TIP3    H224775   0.429   5.424   4.362
 8271TIP3   OH224776   3.215   5.623   2.781
 8271TIP3    H124777   3.179   5.614   2.869
 8271TIP3    H224778   3.305   5.655   2.795
 8272TIP3   OH224779   7.002   6.226   0.327
 8272TIP3    H124780   6.986   6.320   0.333
 8272TIP3    H224781   6.932   6.193   0.270
 8273TIP3   OH224782   6.629   5.499   4.129
 8273TIP3    H124783   6.662   5.512   4.040
 8273TIP3    H224784   6.555   5.559   4.136
 8274TIP3   OH224785   1.521   4.565   1.209
 8274TIP3    H124786   1.528   4.597   1.299
 8274TIP3    H224787   1.442   4.511   1.209
 8275TIP3   OH224788   1.056   3.758   0.079
 8275TIP3    H124789   0.980   3.810   0.103
 8275TIP3    H224790   1.067   3.696   0.151
 8276TIP3   OH224791   6.156   3.374   1.004
 8276TIP3    H124792   6.216   3.336   0.940
 8276TIP3    H224793   6.201   3.363   1.088
 8277TIP3   OH224794   2.241   1.928   5.778
 8277TIP3    H124795   2.181   1.862   5.813
 8277TIP3    H224796   2.286   1.884   5.706
 8278TIP3   OH224797   4.439   0.349   3.175
 8278TIP3    H124798   4.523   0.309   3.150
 8278TIP3    H224799   4.462   0.438   3.202
 8279TIP3   OH224800   4.560   4.701   3.936
 8279TIP3    H124801   4.496   4.769   3.958
 8279TIP3    H224802   4.616   4.695   4.014
 8280TIP3   OH224803   1.143   5.246   1.509
 8280TIP3    H124804   1.113   5.277   1.594
 8280TIP3    H224805   1.077   5.276   1.447
 8281TIP3   OH224806   0.581   5.153   2.708
 8281TIP3    H124807   0.643   5.214   2.749
 8281TIP3    H224808   0.561   5.089   2.777
 8282TIP3   OH224809   3.850   3.887   4.044
 8282TIP3    H124810   3.776   3.913   4.098
 8282TIP3    H224811   3.927   3.921   4.091
 8283TIP3   OH224812   3.477   1.141   2.196
 8283TIP3    H124813   3.553   1.091   2.227
 8283TIP3    H224814   3.450   1.097   2.116
 8284TIP3   OH224815   3.417  -0.044   4.506
 8284TIP3    H124816   3.486   0.023   4.496
 8284TIP3    H224817   3.442  -0.092   4.585
 8285TIP3   OH224818   6.329   5.215   4.714
 8285TIP3    H124819   6.237   5.224   4.739
 8285TIP3    H224820   6.367   5.160   4.782
 8286TIP3   OH224821   1.305   3.608   4.964
 8286TIP3    H124822   1.264   3.684   4.921
 8286TIP3    H224823   1.252   3.594   5.042
 8287TIP3   OH224824   3.264   0.830   4.008
 8287TIP3    H124825   3.339   0.800   3.957
 8287TIP3    H224826   3.203   0.865   3.943
 8288TIP3   OH224827   5.945   2.043   5.001
 8288TIP3    H124828   5.873   1.981   5.011
 8288TIP3    H224829   6.018   1.990   4.970
 8289TIP3   OH224830   5.145   1.451   3.726
 8289TIP3    H124831   5.065   1.502   3.738
 8289TIP3    H224832   5.161   1.410   3.811
 8290TIP3   OH224833   6.274   2.959   0.532
 8290TIP3    H124834   6.361   2.983   0.565
 8290TIP3    H224835   6.261   3.014   0.455
 8291TIP3   OH224836   3.015   4.090   0.814
 8291TIP3    H124837   3.073   4.033   0.863
 8291TIP3    H224838   3.044   4.179   0.836
 8292TIP3   OH224839   6.139   6.454   0.568
 8292TIP3    H124840   6.103   6.541   0.552
 8292TIP3    H224841   6.064   6.403   0.599
 8293TIP3   OH224842   3.846   2.262   3.532
 8293TIP3    H124843   3.928   2.234   3.491
 8293TIP3    H224844   3.782   2.262   3.461
 8294TIP3   OH224845   2.144   2.127   3.536
 8294TIP3    H124846   2.145   2.093   3.446
 8294TIP3    H224847   2.109   2.216   3.528
 8295TIP3   OH224848   4.249   0.461   4.258
 8295TIP3    H124849   4.303   0.397   4.212
 8295TIP3    H224850   4.259   0.438   4.350
 8296TIP3   OH224851   0.053   2.872   1.450
 8296TIP3    H124852   0.052   2.852   1.357
 8296TIP3    H224853  -0.025   2.829   1.485
 8297TIP3   OH224854   1.477   2.888   2.027
 8297TIP3    H124855   1.496   2.853   1.940
 8297TIP3    H224856   1.555   2.938   2.050
 8298TIP3   OH224857   5.264   6.749   3.475
 8298TIP3    H124858   5.323   6.759   3.551
 8298TIP3    H224859   5.267   6.834   3.432
 8299TIP3   OH224860   2.876   1.849   0.661
 8299TIP3    H124861   2.823   1.928   0.673
 8299TIP3    H224862   2.823   1.792   0.605
 8300TIP3   OH224863   7.035   6.426   3.145
 8300TIP3    H124864   7.006   6.509   3.185
 8300TIP3    H224865   7.097   6.389   3.209
 8301TIP3   OH224866   0.378   4.731   1.974
 8301TIP3    H124867   0.423   4.761   1.895
 8301TIP3    H224868   0.295   4.779   1.975
 8302TIP3   OH224869   3.378   4.784   1.715
 8302TIP3    H124870   3.322   4.708   1.733
 8302TIP3    H224871   3.362   4.843   1.788
 8303TIP3   OH224872   4.060   2.518   4.252
 8303TIP3    H124873   4.155   2.505   4.247
 8303TIP3    H224874   4.024   2.430   4.252
 8304TIP3   OH224875   6.254   1.234   4.084
 8304TIP3    H124876   6.169   1.221   4.042
 8304TIP3    H224877   6.242   1.309   4.141
 8305TIP3   OH224878   0.656   5.637   1.607
 8305TIP3    H124879   0.683   5.654   1.517
 8305TIP3    H224880   0.566   5.671   1.613
 8306TIP3   OH224881   1.493   0.834   4.221
 8306TIP3    H124882   1.539   0.754   4.195
 8306TIP3    H224883   1.458   0.869   4.140
 8307TIP3   OH224884   5.846   2.643   3.440
 8307TIP3    H124885   5.773   2.680   3.488
 8307TIP3    H224886   5.907   2.614   3.508
 8308TIP3   OH224887   5.849   4.899   4.229
 8308TIP3    H124888   5.921   4.926   4.173
 8308TIP3    H224889   5.849   4.803   4.223
 8309TIP3   OH224890   0.803   3.439   2.396
 8309TIP3    H124891   0.743   3.380   2.349
 8309TIP3    H224892   0.886   3.393   2.398
 8310TIP3   OH224893   1.270   4.111   2.119
 8310TIP3    H124894   1.318   4.029   2.135
 8310TIP3    H224895   1.182   4.093   2.154
 8311TIP3   OH224896   6.108   1.826   2.040
 8311TIP3    H124897   6.015   1.834   2.020
 8311TIP3    H224898   6.112   1.819   2.135
 8312TIP3   OH224899   4.307   5.624   3.466
 8312TIP3    H124900   4.363   5.680   3.412
 8312TIP3    H224901   4.357   5.543   3.477
 8313TIP3   OH224902   3.350   5.359   0.944
 8313TIP3    H124903   3.262   5.331   0.968
 8313TIP3    H224904   3.403   5.279   0.951
 8314TIP3   OH224905   5.025   1.350   1.702
 8314TIP3    H124906   5.058   1.294   1.772
 8314TIP3    H224907   5.085   1.337   1.629
 8315TIP3   OH224908   0.855   5.086   0.679
 8315TIP3    H124909   0.893   5.129   0.755
 8315TIP3    H224910   0.793   5.150   0.643
 8316TIP3   OH224911   5.213   2.158   2.008
 8316TIP3    H124912   5.209   2.208   2.089
 8316TIP3    H224913   5.263   2.079   2.031
 8317TIP3   OH224914   4.589   4.328   4.684
 8317TIP3    H124915   4.615   4.313   4.775
 8317TIP3    H224916   4.671   4.339   4.637
 8318TIP3   OH224917   1.661   5.272   2.363
 8318TIP3    H124918   1.675   5.207   2.294
 8318TIP3    H224919   1.746   5.314   2.374
 8319TIP3   OH224920   4.245   3.887   4.364
 8319TIP3    H124921   4.335   3.913   4.343
 8319TIP3    H224922   4.250   3.792   4.378
 8320TIP3   OH224923   1.300   6.333   4.660
 8320TIP3    H124924   1.335   6.359   4.574
 8320TIP3    H224925   1.205   6.330   4.648
 8321TIP3   OH224926   1.435   5.485   4.109
 8321TIP3    H124927   1.423   5.580   4.115
 8321TIP3    H224928   1.479   5.473   4.025
 8322TIP3   OH224929   3.103   3.932   5.035
 8322TIP3    H124930   3.107   3.950   5.129
 8322TIP3    H224931   3.009   3.935   5.014
 8323TIP3   OH224932   7.074   5.459   5.292
 8323TIP3    H124933   7.095   5.524   5.226
 8323TIP3    H224934   7.120   5.380   5.265
 8324TIP3   OH224935   5.764   6.697   5.284
 8324TIP3    H124936   5.752   6.602   5.278
 8324TIP3    H224937   5.725   6.732   5.204
 8325TIP3   OH224938   5.502   2.911   0.478
 8325TIP3    H124939   5.529   2.926   0.569
 8325TIP3    H224940   5.483   2.818   0.474
 8326TIP3   OH224941   2.160   6.141   2.001
 8326TIP3    H124942   2.145   6.212   2.063
 8326TIP3    H224943   2.255   6.142   1.986
 8327TIP3   OH224944   0.846   2.045   4.220
 8327TIP3    H124945   0.877   2.134   4.235
 8327TIP3    H224946   0.816   2.016   4.307
 8328TIP3   OH224947   1.506   2.552   2.709
 8328TIP3    H124948   1.568   2.623   2.724
 8328TIP3    H224949   1.552   2.493   2.649
 8329TIP3   OH224950   5.979   2.607   2.478
 8329TIP3    H124951   6.023   2.686   2.508
 8329TIP3    H224952   6.024   2.582   2.398
 8330TIP3   OH224953   5.612   4.050   5.711
 8330TIP3    H124954   5.554   4.126   5.706
 8330TIP3    H224955   5.559   3.983   5.754
 8331TIP3   OH224956   2.646   5.284   5.699
 8331TIP3    H124957   2.584   5.320   5.763
 8331TIP3    H224958   2.623   5.326   5.617
 8332TIP3   OH224959   2.608   4.772   4.860
 8332TIP3    H124960   2.551   4.785   4.936
 8332TIP3    H224961   2.549   4.776   4.785
 8333TIP3   OH224962   5.364   1.255   2.369
 8333TIP3    H124963   5.330   1.343   2.383
 8333TIP3    H224964   5.441   1.249   2.427
 8334TIP3   OH224965   0.592   6.008   2.252
 8334TIP3    H124966   0.681   6.040   2.240
 8334TIP3    H224967   0.550   6.021   2.167
 8335TIP3   OH224968   2.179   3.240   0.963
 8335TIP3    H124969   2.254   3.196   1.002
 8335TIP3    H224970   2.104   3.183   0.981
 8336TIP3   OH224971   3.501   4.710   4.250
 8336TIP3    H124972   3.435   4.777   4.231
 8336TIP3    H224973   3.451   4.629   4.261
 8337TIP3   OH224974   2.328   0.031   5.695
 8337TIP3    H124975   2.421   0.052   5.695
 8337TIP3    H224976   2.314  -0.013   5.779
 8338TIP3   OH224977   2.903   2.643   0.104
 8338TIP3    H124978   2.930   2.571   0.162
 8338TIP3    H224979   2.983   2.668   0.059
 8339TIP3   OH224980   2.559   3.129   2.696
 8339TIP3    H124981   2.557   3.220   2.667
 8339TIP3    H224982   2.485   3.087   2.652
 8340TIP3   OH224983   5.356   0.346   3.018
 8340TIP3    H124984   5.435   0.308   2.979
 8340TIP3    H224985   5.284   0.292   2.984
 8341TIP3   OH224986   3.963   1.254   2.296
 8341TIP3    H124987   3.981   1.233   2.387
 8341TIP3    H224988   3.915   1.337   2.300
 8342TIP3   OH224989   1.000   3.334   5.240
 8342TIP3    H124990   1.025   3.241   5.239
 8342TIP3    H224991   0.912   3.336   5.202
 8343TIP3   OH224992   3.727   0.908   1.568
 8343TIP3    H124993   3.651   0.909   1.509
 8343TIP3    H224994   3.710   0.980   1.629
 8344TIP3   OH224995   4.927   5.094   4.653
 8344TIP3    H124996   4.893   5.021   4.601
 8344TIP3    H224997   4.887   5.172   4.614
 8345TIP3   OH224998   5.666   3.234   4.471
 8345TIP3    H124999   5.692   3.284   4.549
 8345TIP3    H225000   5.740   3.242   4.411
 8346TIP3   OH225001   6.755   4.691   4.570
 8346TIP3    H125002   6.841   4.650   4.577
 8346TIP3    H225003   6.702   4.649   4.637
 8347TIP3   OH225004   4.716   3.276   2.798
 8347TIP3    H125005   4.771   3.202   2.775
 8347TIP3    H225006   4.759   3.315   2.874
 8348TIP3   OH225007   4.558   5.298   3.139
 8348TIP3    H125008   4.494   5.237   3.103
 8348TIP3    H225009   4.605   5.247   3.205
 8349TIP3   OH225010   1.989   2.318   1.784
 8349TIP3    H125011   1.901   2.281   1.783
 8349TIP3    H225012   2.005   2.344   1.694
 8350TIP3   OH225013   5.394   2.555   4.634
 8350TIP3    H125014   5.456   2.628   4.625
 8350TIP3    H225015   5.435   2.483   4.587
 8351TIP3   OH225016   6.030   4.840   2.119
 8351TIP3    H125017   5.940   4.838   2.153
 8351TIP3    H225018   6.083   4.805   2.190
 8352TIP3   OH225019   1.045   6.073   5.472
 8352TIP3    H125020   1.070   6.164   5.454
 8352TIP3    H225021   0.970   6.057   5.415
 8353TIP3   OH225022   0.484   3.136   5.042
 8353TIP3    H125023   0.524   3.079   4.976
 8353TIP3    H225024   0.465   3.078   5.115
 8354TIP3   OH225025   4.679   1.776   4.870
 8354TIP3    H125026   4.730   1.724   4.931
 8354TIP3    H225027   4.595   1.730   4.863
 8355TIP3   OH225028   3.479   6.138   0.478
 8355TIP3    H125029   3.492   6.191   0.557
 8355TIP3    H225030   3.472   6.048   0.512
 8356TIP3   OH225031   2.779   3.715   4.711
 8356TIP3    H125032   2.745   3.751   4.793
 8356TIP3    H225033   2.719   3.643   4.689
 8357TIP3   OH225034   5.411   4.710   0.479
 8357TIP3    H125035   5.457   4.631   0.450
 8357TIP3    H225036   5.461   4.782   0.440
 8358TIP3   OH225037   3.625   4.833   1.575
 8358TIP3    H125038   3.541   4.811   1.613
 8358TIP3    H225039   3.639   4.925   1.599
 8359TIP3   OH225040   0.117   0.823   0.674
 8359TIP3    H125041   0.033   0.869   0.673
 8359TIP3    H225042   0.153   0.840   0.761
 8360TIP3   OH225043   4.168   5.876   1.500
 8360TIP3    H125044   4.165   5.825   1.420
 8360TIP3    H225045   4.115   5.954   1.481
 8361TIP3   OH225046   3.556   1.685   1.561
 8361TIP3    H125047   3.557   1.773   1.524
 8361TIP3    H225048   3.509   1.633   1.495
 8362TIP3   OH225049   5.375   4.179   3.561
 8362TIP3    H125050   5.420   4.114   3.507
 8362TIP3    H225051   5.370   4.139   3.647
 8363TIP3   OH225052   6.984   2.273   4.732
 8363TIP3    H125053   7.026   2.306   4.652
 8363TIP3    H225054   6.893   2.302   4.725
 8364TIP3   OH225055   3.795   6.174   4.856
 8364TIP3    H125056   3.755   6.241   4.910
 8364TIP3    H225057   3.843   6.222   4.788
 8365TIP3   OH225058   7.057   1.140   3.649
 8365TIP3    H125059   7.015   1.175   3.570
 8365TIP3    H225060   7.020   1.052   3.659
 8366TIP3   OH225061   5.527   1.507   0.489
 8366TIP3    H125062   5.568   1.462   0.562
 8366TIP3    H225063   5.569   1.471   0.411
 8367TIP3   OH225064   0.127   0.838   5.702
 8367TIP3    H125065   0.097   0.760   5.655
 8367TIP3    H225066   0.124   0.908   5.637
 8368TIP3   OH225067   0.675   4.779   0.955
 8368TIP3    H125068   0.770   4.787   0.961
 8368TIP3    H225069   0.654   4.811   0.867
 8369TIP3   OH225070   2.858   1.225   0.240
 8369TIP3    H125071   2.884   1.303   0.191
 8369TIP3    H225072   2.766   1.212   0.218
 8370TIP3   OH225073   2.792   3.789   4.105
 8370TIP3    H125074   2.888   3.790   4.103
 8370TIP3    H225075   2.771   3.723   4.171
 8371TIP3   OH225076   4.304   0.968   2.508
 8371TIP3    H125077   4.282   0.876   2.495
 8371TIP3    H225078   4.346   0.995   2.426
 8372TIP3   OH225079   0.606   4.023   2.700
 8372TIP3    H125080   0.697   4.047   2.681
 8372TIP3    H225081   0.610   3.930   2.720
 8373TIP3   OH225082   1.864   0.482   0.146
 8373TIP3    H125083   1.871   0.566   0.193
 8373TIP3    H225084   1.892   0.417   0.210
 8374TIP3   OH225085   4.742   0.379   3.424
 8374TIP3    H125086   4.706   0.457   3.381
 8374TIP3    H225087   4.752   0.405   3.515
 8375TIP3   OH225088   3.842   2.756   0.125
 8375TIP3    H125089   3.773   2.701   0.163
 8375TIP3    H225090   3.874   2.809   0.197
 8376TIP3   OH225091   4.539   0.043   0.961
 8376TIP3    H125092   4.468   0.094   0.920
 8376TIP3    H225093   4.618   0.094   0.945
 8377TIP3   OH225094   4.144   4.342   3.350
 8377TIP3    H125095   4.228   4.298   3.366
 8377TIP3    H225096   4.110   4.359   3.438
 8378TIP3   OH225097   2.328   0.659   0.014
 8378TIP3    H125098   2.327   0.594  -0.056
 8378TIP3    H225099   2.364   0.612   0.090
 8379TIP3   OH225100   2.583   3.249   4.245
 8379TIP3    H125101   2.499   3.288   4.225
 8379TIP3    H225102   2.618   3.221   4.161
 8380TIP3   OH225103   2.117   1.827   1.269
 8380TIP3    H125104   2.163   1.887   1.210
 8380TIP3    H225105   2.160   1.838   1.354
 8381TIP3   OH225106   5.026   5.728   5.555
 8381TIP3    H125107   5.044   5.641   5.520
 8381TIP3    H225108   5.046   5.720   5.648
 8382TIP3   OH225109   0.650   3.319   5.868
 8382TIP3    H125110   0.711   3.391   5.876
 8382TIP3    H225111   0.636   3.308   5.774
 8383TIP3   OH225112   1.153   4.357   0.447
 8383TIP3    H125113   1.192   4.295   0.509
 8383TIP3    H225114   1.225   4.417   0.426
 8384TIP3   OH225115   0.630   2.539   4.972
 8384TIP3    H125116   0.583   2.475   4.918
 8384TIP3    H225117   0.567   2.610   4.985
 8385TIP3   OH225118   2.509   1.755   4.774
 8385TIP3    H125119   2.576   1.733   4.709
 8385TIP3    H225120   2.559   1.790   4.848
 8386TIP3   OH225121   2.206   6.439   0.905
 8386TIP3    H125122   2.257   6.402   0.978
 8386TIP3    H225123   2.122   6.463   0.944
 8387TIP3   OH225124   2.312   1.449   4.662
 8387TIP3    H125125   2.221   1.475   4.645
 8387TIP3    H225126   2.325   1.468   4.755
 8388TIP3   OH225127   7.075   0.059   4.092
 8388TIP3    H125128   7.160   0.046   4.050
 8388TIP3    H225129   7.086   0.024   4.181
 8389TIP3   OH225130   3.172   6.532   4.592
 8389TIP3    H125131   3.225   6.463   4.632
 8389TIP3    H225132   3.195   6.529   4.499
 8390TIP3   OH225133   5.239   1.155   4.598
 8390TIP3    H125134   5.179   1.140   4.524
 8390TIP3    H225135   5.185   1.140   4.676
 8391TIP3   OH225136   3.473   3.663   4.323
 8391TIP3    H125137   3.565   3.666   4.295
 8391TIP3    H225138   3.429   3.727   4.267
 8392TIP3   OH225139   4.071   6.636   1.193
 8392TIP3    H125140   4.041   6.721   1.223
 8392TIP3    H225141   4.129   6.605   1.263
 8393TIP3   OH225142   6.447   2.994   2.843
 8393TIP3    H125143   6.411   3.015   2.757
 8393TIP3    H225144   6.371   2.966   2.895
 8394TIP3   OH225145   2.810   1.607   3.721
 8394TIP3    H125146   2.745   1.547   3.684
 8394TIP3    H225147   2.846   1.560   3.796
 8395TIP3   OH225148   1.557   2.784   4.129
 8395TIP3    H125149   1.535   2.710   4.186
 8395TIP3    H225150   1.486   2.847   4.144
 8396TIP3   OH225151   0.988   0.343   4.559
 8396TIP3    H125152   1.026   0.275   4.615
 8396TIP3    H225153   0.916   0.378   4.611
 8397TIP3   OH225154   5.457   2.671   2.010
 8397TIP3    H125155   5.532   2.683   1.952
 8397TIP3    H225156   5.381   2.679   1.953
 8398TIP3   OH225157   6.942   3.731   2.745
 8398TIP3    H125158   6.990   3.648   2.747
 8398TIP3    H225159   6.946   3.763   2.835
 8399TIP3   OH225160   0.728   3.838   1.311
 8399TIP3    H125161   0.732   3.922   1.266
 8399TIP3    H225162   0.759   3.856   1.399
 8400TIP3   OH225163   0.520   1.958   0.821
 8400TIP3    H125164   0.556   2.016   0.888
 8400TIP3    H225165   0.426   1.969   0.828
 8401TIP3   OH225166   0.325   6.121   2.438
 8401TIP3    H125167   0.278   6.201   2.414
 8401TIP3    H225168   0.398   6.117   2.377
 8402TIP3   OH225169   1.553   2.190   1.386
 8402TIP3    H125170   1.607   2.141   1.448
 8402TIP3    H225171   1.570   2.149   1.302
 8403TIP3   OH225172   0.398   2.478   0.241
 8403TIP3    H125173   0.381   2.402   0.296
 8403TIP3    H225174   0.465   2.449   0.179
 8404TIP3   OH225175   0.751   2.341   1.298
 8404TIP3    H125176   0.699   2.262   1.315
 8404TIP3    H225177   0.781   2.370   1.384
 8405TIP3   OH225178   6.231   1.037   0.271
 8405TIP3    H125179   6.227   1.130   0.248
 8405TIP3    H225180   6.144   1.004   0.246
 8406TIP3   OH225181   2.764   3.305   1.226
 8406TIP3    H125182   2.779   3.337   1.137
 8406TIP3    H225183   2.682   3.255   1.220
 8407TIP3   OH225184   4.688   6.372   3.186
 8407TIP3    H125185   4.600   6.375   3.224
 8407TIP3    H225186   4.746   6.352   3.260
 8408TIP3   OH225187   0.378   6.716   3.707
 8408TIP3    H125188   0.421   6.708   3.622
 8408TIP3    H225189   0.312   6.646   3.708
 8409TIP3   OH225190   2.867   0.970   3.901
 8409TIP3    H125191   2.812   1.047   3.885
 8409TIP3    H225192   2.825   0.926   3.975
 8410TIP3   OH225193   3.196   3.903   0.875
 8410TIP3    H125194   3.196   3.808   0.883
 8410TIP3    H225195   3.288   3.928   0.880
 8411TIP3   OH225196   5.796  -0.013   4.743
 8411TIP3    H125197   5.780   0.054   4.677
 8411TIP3    H225198   5.733   0.007   4.813
 8412TIP3   OH225199   2.111   0.585   4.162
 8412TIP3    H125200   2.049   0.541   4.220
 8412TIP3    H225201   2.138   0.518   4.100
 8413TIP3   OH225202   0.265   1.055   4.812
 8413TIP3    H125203   0.186   1.054   4.865
 8413TIP3    H225204   0.238   1.098   4.730
 8414TIP3   OH225205   0.650   4.890   3.231
 8414TIP3    H125206   0.598   4.889   3.151
 8414TIP3    H225207   0.587   4.914   3.300
 8415TIP3   OH225208   6.295   2.549   0.273
 8415TIP3    H125209   6.370   2.490   0.267
 8415TIP3    H225210   6.322   2.616   0.336
 8416TIP3   OH225211   5.237   6.111   3.289
 8416TIP3    H125212   5.332   6.115   3.274
 8416TIP3    H225213   5.224   6.034   3.344
 8417TIP3   OH225214   0.156   1.579   5.226
 8417TIP3    H125215   0.221   1.627   5.278
 8417TIP3    H225216   0.072   1.616   5.252
 8418TIP3   OH225217   3.370   0.311   4.542
 8418TIP3    H125218   3.453   0.264   4.547
 8418TIP3    H225219   3.347   0.308   4.449
 8419TIP3   OH225220   1.809   3.793  -0.011
 8419TIP3    H125221   1.761   3.750   0.060
 8419TIP3    H225222   1.827   3.881   0.022
 8420TIP3   OH225223   4.598   1.334   4.410
 8420TIP3    H125224   4.613   1.251   4.364
 8420TIP3    H225225   4.528   1.377   4.360
 8421TIP3   OH225226   3.747   3.567   5.277
 8421TIP3    H125227   3.678   3.630   5.299
 8421TIP3    H225228   3.777   3.593   5.190
 8422TIP3   OH225229   2.304   1.323   4.092
 8422TIP3    H125230   2.234   1.288   4.038
 8422TIP3    H225231   2.280   1.298   4.181
 8423TIP3   OH225232   6.839   1.008   0.698
 8423TIP3    H125233   6.793   0.973   0.621
 8423TIP3    H225234   6.900   0.938   0.723
 8424TIP3   OH225235   2.369   3.917   0.208
 8424TIP3    H125236   2.462   3.932   0.190
 8424TIP3    H225237   2.337   4.002   0.238
 8425TIP3   OH225238   2.067   3.648   5.702
 8425TIP3    H125239   2.116   3.714   5.652
 8425TIP3    H225240   2.017   3.700   5.766
 8426TIP3   OH225241   5.349   2.982   3.602
 8426TIP3    H125242   5.365   3.076   3.608
 8426TIP3    H225243   5.434   2.944   3.578
 8427TIP3   OH225244   7.026   1.531   0.132
 8427TIP3    H125245   6.960   1.474   0.171
 8427TIP3    H225246   7.087   1.550   0.203
 8428TIP3   OH225247   6.603   3.806   4.933
 8428TIP3    H125248   6.636   3.757   4.857
 8428TIP3    H225249   6.547   3.873   4.896
 8429TIP3   OH225250   2.440   0.641   3.337
 8429TIP3    H125251   2.508   0.709   3.337
 8429TIP3    H225252   2.420   0.626   3.245
 8430TIP3   OH225253   3.478   3.079   0.393
 8430TIP3    H125254   3.479   2.986   0.419
 8430TIP3    H225255   3.449   3.125   0.472
 8431TIP3   OH225256   5.441   6.274   1.892
 8431TIP3    H125257   5.416   6.333   1.820
 8431TIP3    H225258   5.450   6.188   1.851
 8432TIP3   OH225259   3.236   0.501   1.437
 8432TIP3    H125260   3.272   0.522   1.522
 8432TIP3    H225261   3.196   0.415   1.448
 8433TIP3   OH225262   1.962   3.864   0.333
 8433TIP3    H125263   1.903   3.912   0.391
 8433TIP3    H225264   2.004   3.931   0.280
 8434TIP3   OH225265   1.651   6.754   0.924
 8434TIP3    H125266   1.725   6.757   0.986
 8434TIP3    H225267   1.586   6.812   0.962
 8435TIP3   OH225268   1.503   1.784   4.474
 8435TIP3    H125269   1.484   1.750   4.386
 8435TIP3    H225270   1.419   1.782   4.519
 8436TIP3   OH225271   0.244   5.876   3.441
 8436TIP3    H125272   0.233   5.831   3.357
 8436TIP3    H225273   0.320   5.933   3.427
 8437TIP3   OH225274   4.984   2.126   3.685
 8437TIP3    H125275   4.996   2.052   3.745
 8437TIP3    H225276   4.958   2.198   3.742
 8438TIP3   OH225277   5.220   0.495   1.038
 8438TIP3    H125278   5.235   0.430   0.970
 8438TIP3    H225279   5.163   0.560   0.997
 8439TIP3   OH225280   4.624   4.402   0.861
 8439TIP3    H125281   4.585   4.365   0.940
 8439TIP3    H225282   4.549   4.423   0.805
 8440TIP3   OH225283   3.660   2.574   0.219
 8440TIP3    H125284   3.572   2.577   0.181
 8440TIP3    H225285   3.652   2.622   0.302
 8441TIP3   OH225286   1.724   5.498   0.359
 8441TIP3    H125287   1.688   5.577   0.400
 8441TIP3    H225288   1.654   5.467   0.301
 8442TIP3   OH225289   0.233   4.658   3.138
 8442TIP3    H125290   0.184   4.703   3.069
 8442TIP3    H225291   0.230   4.566   3.112
 8443TIP3   OH225292   7.132   6.358   0.792
 8443TIP3    H125293   7.089   6.438   0.760
 8443TIP3    H225294   7.173   6.321   0.714
 8444TIP3   OH225295   5.153   3.755   1.918
 8444TIP3    H125296   5.126   3.705   1.841
 8444TIP3    H225297   5.230   3.709   1.951
 8445TIP3   OH225298   5.132   4.783   3.342
 8445TIP3    H125299   5.217   4.755   3.376
 8445TIP3    H225300   5.088   4.822   3.417
 8446TIP3   OH225301   2.666   5.238   1.686
 8446TIP3    H125302   2.616   5.156   1.687
 8446TIP3    H225303   2.664   5.266   1.595
 8447TIP3   OH225304   2.248   1.059   0.519
 8447TIP3    H125305   2.343   1.066   0.511
 8447TIP3    H225306   2.218   1.031   0.433
 8448TIP3   OH225307   6.515   4.759   0.826
 8448TIP3    H125308   6.568   4.835   0.850
 8448TIP3    H225309   6.485   4.724   0.910
 8449TIP3   OH225310   3.037   2.038   2.123
 8449TIP3    H125311   2.952   1.996   2.133
 8449TIP3    H225312   3.044   2.056   2.029
 8450TIP3   OH225313   4.204   3.202  -0.024
 8450TIP3    H125314   4.241   3.205   0.064
 8450TIP3    H225315   4.227   3.287  -0.062
 8451TIP3   OH225316   0.264   4.809   2.545
 8451TIP3    H125317   0.208   4.886   2.548
 8451TIP3    H225318   0.300   4.808   2.456
 8452TIP3   OH225319   2.304   1.015   1.976
 8452TIP3    H125320   2.379   1.046   1.926
 8452TIP3    H225321   2.229   1.026   1.917
 8453TIP3   OH225322   7.058   1.721   0.789
 8453TIP3    H125323   6.988   1.657   0.781
 8453TIP3    H225324   7.048   1.778   0.713
 8454TIP3   OH225325   6.663   6.645   1.527
 8454TIP3    H125326   6.746   6.642   1.574
 8454TIP3    H225327   6.641   6.738   1.522
 8455TIP3   OH225328   1.360   3.108   3.267
 8455TIP3    H125329   1.339   3.178   3.328
 8455TIP3    H225330   1.446   3.131   3.231
 8456TIP3   OH225331   7.061   4.030   0.072
 8456TIP3    H125332   7.034   4.113   0.111
 8456TIP3    H225333   7.078   3.973   0.147
 8457TIP3   OH225334   0.175   6.725   0.614
 8457TIP3    H125335   0.165   6.649   0.557
 8457TIP3    H225336   0.192   6.798   0.555
 8458TIP3   OH225337   0.449   1.536   1.425
 8458TIP3    H125338   0.450   1.484   1.344
 8458TIP3    H225339   0.357   1.536   1.452
 8459TIP3   OH225340   2.198   4.353   4.810
 8459TIP3    H125341   2.117   4.373   4.763
 8459TIP3    H225342   2.268   4.367   4.745
 8460TIP3   OH225343   1.931   2.649   2.238
 8460TIP3    H125344   1.952   2.567   2.284
 8460TIP3    H225345   1.894   2.705   2.306
 8461TIP3   OH225346   0.722   3.944   3.977
 8461TIP3    H125347   0.784   4.017   3.977
 8461TIP3    H225348   0.715   3.918   4.069
 8462TIP3   OH225349   5.349   6.122   5.278
 8462TIP3    H125350   5.286   6.050   5.266
 8462TIP3    H225351   5.432   6.079   5.298
 8463TIP3   OH225352   0.955   5.435   2.144
 8463TIP3    H125353   0.930   5.527   2.147
 8463TIP3    H225354   1.031   5.428   2.202
 8464TIP3   OH225355   0.772   5.385   1.321
 8464TIP3    H125356   0.742   5.449   1.257
 8464TIP3    H225357   0.791   5.436   1.400
 8465TIP3   OH225358   4.400   6.738   3.129
 8465TIP3    H125359   4.437   6.794   3.197
 8465TIP3    H225360   4.443   6.654   3.140
 8466TIP3   OH225361   5.298   4.003   4.530
 8466TIP3    H125362   5.246   4.042   4.461
 8466TIP3    H225363   5.386   4.039   4.517
 8467TIP3   OH225364   1.015   6.279   1.842
 8467TIP3    H125365   1.025   6.282   1.747
 8467TIP3    H225366   0.984   6.367   1.866
 8468TIP3   OH225367   2.044   4.945   2.356
 8468TIP3    H125368   2.113   4.998   2.396
 8468TIP3    H225369   2.045   4.863   2.406
 8469TIP3   OH225370   1.109   5.490   4.469
 8469TIP3    H125371   1.076   5.403   4.488
 8469TIP3    H225372   1.204   5.478   4.457
 8470TIP3   OH225373   5.625   1.677   1.962
 8470TIP3    H125374   5.587   1.685   1.874
 8470TIP3    H225375   5.557   1.709   2.021
 8471TIP3   OH225376   6.101   0.107   4.250
 8471TIP3    H125377   6.157   0.184   4.240
 8471TIP3    H225378   6.067   0.113   4.339
 8472TIP3   OH225379   1.998   2.269   4.236
 8472TIP3    H125380   2.060   2.282   4.164
 8472TIP3    H225381   1.915   2.247   4.194
 8473TIP3   OH225382   0.571   4.143   4.752
 8473TIP3    H125383   0.501   4.130   4.816
 8473TIP3    H225384   0.564   4.236   4.728
 8474TIP3   OH225385   6.132   1.446   1.615
 8474TIP3    H125386   6.189   1.487   1.680
 8474TIP3    H225387   6.191   1.394   1.561
 8475TIP3   OH225388   1.196   4.191   2.412
 8475TIP3    H125389   1.127   4.127   2.429
 8475TIP3    H225390   1.260   4.144   2.359
 8476TIP3   OH225391   7.067   4.517   4.367
 8476TIP3    H125392   7.068   4.597   4.315
 8476TIP3    H225393   7.112   4.542   4.449
 8477TIP3   OH225394   1.299   0.435   4.766
 8477TIP3    H125395   1.229   0.498   4.747
 8477TIP3    H225396   1.293   0.371   4.695
 8478TIP3   OH225397   3.454   5.582   3.345
 8478TIP3    H125398   3.429   5.491   3.358
 8478TIP3    H225399   3.390   5.633   3.395
 8479TIP3   OH225400   4.426   4.773   1.206
 8479TIP3    H125401   4.482   4.764   1.129
 8479TIP3    H225402   4.458   4.852   1.250
 8480TIP3   OH225403   0.324   1.690   5.422
 8480TIP3    H125404   0.371   1.629   5.478
 8480TIP3    H225405   0.284   1.753   5.482
 8481TIP3   OH225406   5.351   0.652   4.108
 8481TIP3    H125407   5.364   0.722   4.172
 8481TIP3    H225408   5.440   0.623   4.086
 8482TIP3   OH225409   3.174   5.493   4.661
 8482TIP3    H125410   3.140   5.427   4.601
 8482TIP3    H225411   3.207   5.563   4.605
 8483TIP3   OH225412   1.951   3.586   2.989
 8483TIP3    H125413   1.881   3.647   3.012
 8483TIP3    H225414   1.986   3.620   2.907
 8484TIP3   OH225415   4.766   1.640   4.193
 8484TIP3    H125416   4.707   1.599   4.129
 8484TIP3    H225417   4.736   1.730   4.199
 8485TIP3   OH225418   2.825   3.214   4.403
 8485TIP3    H125419   2.745   3.209   4.352
 8485TIP3    H225420   2.894   3.232   4.339
 8486TIP3   OH225421   1.278   4.062   4.138
 8486TIP3    H125422   1.192   4.021   4.137
 8486TIP3    H225423   1.267   4.141   4.084
 8487TIP3   OH225424   2.177   3.393   0.074
 8487TIP3    H125425   2.129   3.471   0.048
 8487TIP3    H225426   2.142   3.371   0.161
 8488TIP3   OH225427   0.127   5.803   1.378
 8488TIP3    H125428   0.139   5.896   1.398
 8488TIP3    H225429   0.212   5.775   1.344
 8489TIP3   OH225430   1.825   1.987   5.820
 8489TIP3    H125431   1.748   1.967   5.767
 8489TIP3    H225432   1.841   2.081   5.806
 8490TIP3   OH225433   3.757   0.748   1.962
 8490TIP3    H125434   3.805   0.672   1.929
 8490TIP3    H225435   3.723   0.720   2.047
 8491TIP3   OH225436   5.923   3.164   3.543
 8491TIP3    H125437   5.949   3.211   3.464
 8491TIP3    H225438   6.005   3.131   3.580
 8492TIP3   OH225439   0.455   2.657   2.388
 8492TIP3    H125440   0.371   2.625   2.354
 8492TIP3    H225441   0.437   2.677   2.480
 8493TIP3   OH225442   5.443   2.607   3.677
 8493TIP3    H125443   5.472   2.573   3.762
 8493TIP3    H225444   5.470   2.541   3.614
 8494TIP3   OH225445   2.900   0.777   4.573
 8494TIP3    H125446   2.983   0.772   4.620
 8494TIP3    H225447   2.889   0.690   4.535
 8495TIP3   OH225448   1.627   4.504   4.897
 8495TIP3    H125449   1.691   4.479   4.963
 8495TIP3    H225450   1.623   4.600   4.903
 8496TIP3   OH225451   1.665   3.842   4.768
 8496TIP3    H125452   1.733   3.775   4.764
 8496TIP3    H225453   1.585   3.797   4.743
 8497TIP3   OH225454   6.496   0.187   0.462
 8497TIP3    H125455   6.488   0.260   0.523
 8497TIP3    H225456   6.481   0.109   0.517
 8498TIP3   OH225457   2.800   4.634   4.470
 8498TIP3    H125458   2.847   4.640   4.553
 8498TIP3    H225459   2.865   4.657   4.404
 8499TIP3   OH225460   0.286   6.338   4.347
 8499TIP3    H125461   0.362   6.336   4.289
 8499TIP3    H225462   0.288   6.425   4.386
 8500TIP3   OH225463   6.008   0.812   3.138
 8500TIP3    H125464   5.929   0.864   3.153
 8500TIP3    H225465   6.074   0.876   3.112
 8501TIP3   OH225466   3.449   5.728   2.006
 8501TIP3    H125467   3.464   5.664   1.937
 8501TIP3    H225468   3.358   5.714   2.034
 8502TIP3   OH225469   4.272   2.132   5.780
 8502TIP3    H125470   4.205   2.092   5.724
 8502TIP3    H225471   4.223   2.191   5.838
 8503TIP3   OH225472   0.544   6.377   2.559
 8503TIP3    H125473   0.562   6.436   2.486
 8503TIP3    H225474   0.464   6.331   2.534
 8504TIP3   OH225475   6.738   3.955   0.142
 8504TIP3    H125476   6.720   3.862   0.128
 8504TIP3    H225477   6.807   3.976   0.079
 8505TIP3   OH225478   0.896   6.251   1.329
 8505TIP3    H125479   0.826   6.314   1.311
 8505TIP3    H225480   0.958   6.263   1.257
 8506TIP3   OH225481   3.529   1.998   4.838
 8506TIP3    H125482   3.526   1.935   4.767
 8506TIP3    H225483   3.457   2.058   4.820
 8507TIP3   OH225484   3.220   0.547   1.877
 8507TIP3    H125485   3.196   0.515   1.964
 8507TIP3    H225486   3.316   0.546   1.877
 8508TIP3   OH225487   6.589   5.711   5.347
 8508TIP3    H125488   6.637   5.756   5.416
 8508TIP3    H225489   6.650   5.711   5.272
 8509TIP3   OH225490   4.153   6.789   4.872
 8509TIP3    H125491   4.068   6.827   4.850
 8509TIP3    H225492   4.143   6.758   4.962
 8510TIP3   OH225493   1.809   5.221   4.305
 8510TIP3    H125494   1.882   5.215   4.243
 8510TIP3    H225495   1.771   5.133   4.307
 8511TIP3   OH225496   6.615   0.143   2.653
 8511TIP3    H125497   6.688   0.181   2.606
 8511TIP3    H225498   6.652   0.112   2.735
 8512TIP3   OH225499   6.355   4.826   0.626
 8512TIP3    H125500   6.412   4.812   0.701
 8512TIP3    H225501   6.310   4.909   0.644
 8513TIP3   OH225502   0.798   3.987   4.642
 8513TIP3    H125503   0.834   3.907   4.680
 8513TIP3    H225504   0.719   4.004   4.693
 8514TIP3   OH225505   2.091   3.227   0.309
 8514TIP3    H125506   2.110   3.308   0.357
 8514TIP3    H225507   2.000   3.207   0.331
 8515TIP3   OH225508   5.347   4.364   4.187
 8515TIP3    H125509   5.300   4.443   4.212
 8515TIP3    H225510   5.329   4.354   4.093
 8516TIP3   OH225511   4.367   2.173   1.630
 8516TIP3    H125512   4.361   2.185   1.725
 8516TIP3    H225513   4.275   2.168   1.601
 8517TIP3   OH225514   2.145   4.982   3.004
 8517TIP3    H125515   2.204   5.055   2.988
 8517TIP3    H225516   2.065   5.022   3.038
 8518TIP3   OH225517   5.569   5.240   2.255
 8518TIP3    H125518   5.663   5.256   2.242
 8518TIP3    H225519   5.556   5.150   2.225
 8519TIP3   OH225520   6.704   3.839   1.006
 8519TIP3    H125521   6.778   3.856   1.065
 8519TIP3    H225522   6.627   3.848   1.062
 8520TIP3   OH225523   1.060   1.022   0.319
 8520TIP3    H125524   1.110   0.943   0.301
 8520TIP3    H225525   1.111   1.093   0.282
 8521TIP3   OH225526   4.088   3.068   4.654
 8521TIP3    H125527   4.084   2.976   4.628
 8521TIP3    H225528   4.016   3.109   4.606
 8522TIP3   OH225529   1.503   5.712   0.854
 8522TIP3    H125530   1.482   5.630   0.900
 8522TIP3    H225531   1.597   5.724   0.871
 8523TIP3   OH225532   0.496   3.963   1.084
 8523TIP3    H125533   0.526   3.872   1.083
 8523TIP3    H225534   0.534   4.002   1.006
 8524TIP3   OH225535   4.302   5.728   2.506
 8524TIP3    H125536   4.335   5.706   2.594
 8524TIP3    H225537   4.207   5.722   2.514
 8525TIP3   OH225538   4.416   0.699   4.141
 8525TIP3    H125539   4.415   0.678   4.235
 8525TIP3    H225540   4.363   0.630   4.101
 8526TIP3   OH225541   2.108   6.336   2.441
 8526TIP3    H125542   2.191   6.372   2.474
 8526TIP3    H225543   2.101   6.251   2.483
 8527TIP3   OH225544   1.549   1.949   3.613
 8527TIP3    H125545   1.591   1.929   3.697
 8527TIP3    H225546   1.493   1.874   3.596
 8528TIP3   OH225547   2.158   4.102   5.662
 8528TIP3    H125548   2.214   4.025   5.664
 8528TIP3    H225549   2.079   4.077   5.710
 8529TIP3   OH225550   6.799   2.293   4.257
 8529TIP3    H125551   6.803   2.388   4.268
 8529TIP3    H225552   6.845   2.277   4.174
 8530TIP3   OH225553   2.603   1.883   5.032
 8530TIP3    H125554   2.569   1.968   5.059
 8530TIP3    H225555   2.556   1.819   5.086
 8531TIP3   OH225556   2.550   4.246   5.378
 8531TIP3    H125557   2.480   4.310   5.366
 8531TIP3    H225558   2.546   4.191   5.300
 8532TIP3   OH225559   3.275   5.675   4.448
 8532TIP3    H125560   3.287   5.604   4.385
 8532TIP3    H225561   3.214   5.735   4.406
 8533TIP3   OH225562   0.073   5.748   5.473
 8533TIP3    H125563   0.007   5.810   5.505
 8533TIP3    H225564   0.154   5.773   5.516
 8534TIP3   OH225565   5.847   3.255   2.746
 8534TIP3    H125566   5.912   3.222   2.808
 8534TIP3    H225567   5.821   3.178   2.695
 8535TIP3   OH225568   0.909   4.944   4.167
 8535TIP3    H125569   0.882   4.951   4.259
 8535TIP3    H225570   0.841   4.890   4.126
 8536TIP3   OH225571   7.183   3.642   3.636
 8536TIP3    H125572   7.228   3.725   3.652
 8536TIP3    H225573   7.241   3.576   3.673
 8537TIP3   OH225574   5.292   1.345   0.481
 8537TIP3    H125575   5.289   1.321   0.573
 8537TIP3    H225576   5.370   1.400   0.472
 8538TIP3   OH225577   4.210   2.078   5.201
 8538TIP3    H125578   4.188   1.997   5.247
 8538TIP3    H225579   4.301   2.096   5.227
 8539TIP3   OH225580   0.588   4.419   4.674
 8539TIP3    H125581   0.674   4.446   4.641
 8539TIP3    H225582   0.540   4.501   4.685
 8540TIP3   OH225583   1.680   2.365   0.978
 8540TIP3    H125584   1.753   2.327   0.929
 8540TIP3    H225585   1.644   2.431   0.919
 8541TIP3   OH225586   1.266   5.167   2.363
 8541TIP3    H125587   1.318   5.248   2.366
 8541TIP3    H225588   1.187   5.187   2.413
 8542TIP3   OH225589   5.370   2.152   2.352
 8542TIP3    H125590   5.416   2.226   2.393
 8542TIP3    H225591   5.298   2.133   2.411
 8543TIP3   OH225592   0.321   2.624   0.619
 8543TIP3    H125593   0.406   2.628   0.662
 8543TIP3    H225594   0.293   2.715   0.612
 8544TIP3   OH225595   2.301   6.469   0.648
 8544TIP3    H125596   2.299   6.560   0.618
 8544TIP3    H225597   2.266   6.472   0.737
 8545TIP3   OH225598   2.322   5.426   0.483
 8545TIP3    H125599   2.390   5.471   0.533
 8545TIP3    H225600   2.257   5.400   0.549
 8546TIP3   OH225601   4.303   2.884   2.501
 8546TIP3    H125602   4.238   2.826   2.541
 8546TIP3    H225603   4.258   2.920   2.424
 8547TIP3   OH225604   2.915   2.298   2.080
 8547TIP3    H125605   2.876   2.360   2.018
 8547TIP3    H225606   2.945   2.225   2.025
 8548TIP3   OH225607   5.275   4.743   2.019
 8548TIP3    H125608   5.194   4.767   1.975
 8548TIP3    H225609   5.262   4.767   2.110
 8549TIP3   OH225610   4.119   6.651   3.237
 8549TIP3    H125611   4.178   6.726   3.233
 8549TIP3    H225612   4.175   6.576   3.218
 8550TIP3   OH225613   4.677   1.256   3.483
 8550TIP3    H125614   4.622   1.271   3.407
 8550TIP3    H225615   4.714   1.168   3.468
 8551TIP3   OH225616   2.564   3.872   4.629
 8551TIP3    H125617   2.472   3.850   4.614
 8551TIP3    H225618   2.608   3.788   4.636
 8552TIP3   OH225619   1.327   5.771   0.125
 8552TIP3    H125620   1.385   5.754   0.050
 8552TIP3    H225621   1.371   5.730   0.199
 8553TIP3   OH225622   3.280   1.724   4.956
 8553TIP3    H125623   3.350   1.673   4.915
 8553TIP3    H225624   3.219   1.743   4.885
 8554TIP3   OH225625   6.709   4.034   2.541
 8554TIP3    H125626   6.733   3.941   2.539
 8554TIP3    H225627   6.617   4.034   2.568
 8555TIP3   OH225628   1.100   3.015   3.183
 8555TIP3    H125629   1.185   3.055   3.201
 8555TIP3    H225630   1.039   3.062   3.240
 8556TIP3   OH225631   3.131   4.337   1.133
 8556TIP3    H125632   3.095   4.415   1.092
 8556TIP3    H225633   3.061   4.306   1.191
 8557TIP3   OH225634   1.065   3.074   5.216
 8557TIP3    H125635   1.034   3.045   5.302
 8557TIP3    H225636   1.125   3.006   5.187
 8558TIP3   OH225637   7.009   5.246   3.672
 8558TIP3    H125638   6.920   5.238   3.637
 8558TIP3    H225639   7.060   5.181   3.623
 8559TIP3   OH225640   5.312   0.148   1.576
 8559TIP3    H125641   5.260   0.229   1.577
 8559TIP3    H225642   5.402   0.177   1.567
 8560TIP3   OH225643   1.910   6.295   2.854
 8560TIP3    H125644   1.916   6.288   2.759
 8560TIP3    H225645   1.854   6.222   2.881
 8561TIP3   OH225646   0.607   5.863   0.569
 8561TIP3    H125647   0.522   5.873   0.526
 8561TIP3    H225648   0.586   5.860   0.662
 8562TIP3   OH225649   1.212   5.763   1.603
 8562TIP3    H125650   1.212   5.811   1.686
 8562TIP3    H225651   1.124   5.726   1.597
 8563TIP3   OH225652   2.466   5.327   2.517
 8563TIP3    H125653   2.459   5.404   2.460
 8563TIP3    H225654   2.388   5.275   2.497
 8564TIP3   OH225655   4.889   2.191   1.868
 8564TIP3    H125656   4.932   2.115   1.907
 8564TIP3    H225657   4.824   2.217   1.932
 8565TIP3   OH225658   5.964   1.840   0.015
 8565TIP3    H125659   5.937   1.893   0.090
 8565TIP3    H225660   5.893   1.852  -0.049
 8566TIP3   OH225661   3.272   2.027   5.761
 8566TIP3    H125662   3.302   2.105   5.808
 8566TIP3    H225663   3.243   2.061   5.676
 8567TIP3   OH225664   3.422   5.091   5.414
 8567TIP3    H125665   3.505   5.121   5.450
 8567TIP3    H225666   3.356   5.144   5.458
 8568TIP3   OH225667   2.469   5.056   5.785
 8568TIP3    H125668   2.513   5.060   5.870
 8568TIP3    H225669   2.436   5.145   5.770
 8569TIP3   OH225670   3.655   1.861   3.074
 8569TIP3    H125671   3.574   1.813   3.058
 8569TIP3    H225672   3.641   1.906   3.157
 8570TIP3   OH225673   0.824   5.962   1.283
 8570TIP3    H125674   0.866   6.010   1.354
 8570TIP3    H225675   0.817   6.025   1.212
 8571TIP3   OH225676   4.091   0.486   4.740
 8571TIP3    H125677   4.101   0.582   4.736
 8571TIP3    H225678   4.125   0.463   4.827
 8572TIP3   OH225679   3.698   3.102   2.161
 8572TIP3    H125680   3.647   3.169   2.115
 8572TIP3    H225681   3.637   3.030   2.173
 8573TIP3   OH225682   3.246   5.220   2.715
 8573TIP3    H125683   3.179   5.235   2.783
 8573TIP3    H225684   3.312   5.166   2.758
 8574TIP3   OH225685   4.347   0.748   5.709
 8574TIP3    H125686   4.261   0.707   5.698
 8574TIP3    H225687   4.328   0.839   5.730
 8575TIP3   OH225688   3.509   5.334   5.158
 8575TIP3    H125689   3.567   5.360   5.087
 8575TIP3    H225690   3.454   5.265   5.119
 8576TIP3   OH225691   6.731   5.878   5.529
 8576TIP3    H125692   6.709   5.900   5.620
 8576TIP3    H225693   6.824   5.855   5.532
 8577TIP3   OH225694   5.322   0.676   3.539
 8577TIP3    H125695   5.355   0.765   3.551
 8577TIP3    H225696   5.229   0.682   3.565
 8578TIP3   OH225697   3.177   3.933   1.870
 8578TIP3    H125698   3.123   4.009   1.891
 8578TIP3    H225699   3.152   3.909   1.781
 8579TIP3   OH225700   2.935   3.885   2.760
 8579TIP3    H125701   3.022   3.849   2.777
 8579TIP3    H225702   2.952   3.969   2.716
 8580TIP3   OH225703   0.558   0.323   4.218
 8580TIP3    H125704   0.513   0.354   4.296
 8580TIP3    H225705   0.612   0.250   4.249
 8581TIP3   OH225706   0.797   0.418   0.346
 8581TIP3    H125707   0.811   0.433   0.440
 8581TIP3    H225708   0.710   0.453   0.329
 8582TIP3   OH225709   3.737   2.888   1.858
 8582TIP3    H125710   3.797   2.874   1.931
 8582TIP3    H225711   3.651   2.896   1.899
 8583TIP3   OH225712   3.852   3.566   1.494
 8583TIP3    H125713   3.846   3.638   1.432
 8583TIP3    H225714   3.802   3.495   1.454
 8584TIP3   OH225715   5.459   4.354   3.227
 8584TIP3    H125716   5.532   4.315   3.276
 8584TIP3    H225717   5.455   4.303   3.146
 8585TIP3   OH225718   5.770   3.538   1.906
 8585TIP3    H125719   5.807   3.624   1.884
 8585TIP3    H225720   5.681   3.540   1.870
 8586TIP3   OH225721   4.187   1.661   0.160
 8586TIP3    H125722   4.169   1.755   0.164
 8586TIP3    H225723   4.122   1.627   0.099
 8587TIP3   OH225724   1.334   0.917   0.015
 8587TIP3    H125725   1.365   1.007   0.023
 8587TIP3    H225726   1.399   0.865   0.063
 8588TIP3   OH225727   5.850   1.941   1.975
 8588TIP3    H125728   5.848   1.989   2.058
 8588TIP3    H225729   5.760   1.943   1.944
 8589TIP3   OH225730   0.250   2.898   2.327
 8589TIP3    H125731   0.339   2.906   2.363
 8589TIP3    H225732   0.200   2.854   2.397
 8590TIP3   OH225733   2.413   6.489   4.526
 8590TIP3    H125734   2.409   6.393   4.516
 8590TIP3    H225735   2.364   6.522   4.451
 8591TIP3   OH225736   6.276   3.073   5.838
 8591TIP3    H125737   6.210   3.040   5.899
 8591TIP3    H225738   6.232   3.142   5.790
 8592TIP3   OH225739   4.697   0.378   2.999
 8592TIP3    H125740   4.652   0.380   2.915
 8592TIP3    H225741   4.754   0.454   2.997
 8593TIP3   OH225742   4.473   3.121   1.005
 8593TIP3    H125743   4.483   3.041   1.055
 8593TIP3    H225744   4.481   3.191   1.069
 8594TIP3   OH225745   6.183   3.276   4.761
 8594TIP3    H125746   6.154   3.283   4.670
 8594TIP3    H225747   6.153   3.357   4.802
 8595TIP3   OH225748   6.450   1.785   2.659
 8595TIP3    H125749   6.472   1.828   2.742
 8595TIP3    H225750   6.529   1.735   2.637
 8596TIP3   OH225751   6.462   3.753   3.705
 8596TIP3    H125752   6.426   3.710   3.627
 8596TIP3    H225753   6.472   3.682   3.769
 8597TIP3   OH225754   1.743   2.544   0.057
 8597TIP3    H125755   1.653   2.527   0.082
 8597TIP3    H225756   1.795   2.489   0.115
 8598TIP3   OH225757   4.134   6.388   4.416
 8598TIP3    H125758   4.069   6.455   4.395
 8598TIP3    H225759   4.175   6.418   4.497
 8599TIP3   OH225760   3.114   0.399   0.438
 8599TIP3    H125761   3.116   0.494   0.427
 8599TIP3    H225762   3.062   0.368   0.364
 8600TIP3   OH225763   2.137   3.241   2.507
 8600TIP3    H125764   2.199   3.220   2.438
 8600TIP3    H225765   2.191   3.253   2.585
 8601TIP3   OH225766   3.013   2.807   3.508
 8601TIP3    H125767   2.984   2.765   3.427
 8601TIP3    H225768   3.003   2.901   3.492
 8602TIP3   OH225769   1.628   5.447   5.086
 8602TIP3    H125770   1.613   5.377   5.022
 8602TIP3    H225771   1.639   5.526   5.033
 8603TIP3   OH225772   3.119   5.294   4.450
 8603TIP3    H125773   3.097   5.210   4.491
 8603TIP3    H225774   3.037   5.325   4.412
 8604TIP3   OH225775   4.519   2.923   1.193
 8604TIP3    H125776   4.603   2.879   1.198
 8604TIP3    H225777   4.482   2.916   1.281
 8605TIP3   OH225778   1.104   0.601   4.693
 8605TIP3    H125779   1.026   0.550   4.715
 8605TIP3    H225780   1.072   0.667   4.631
 8606TIP3   OH225781   0.926   3.073   2.693
 8606TIP3    H125782   0.924   2.982   2.663
 8606TIP3    H225783   0.990   3.074   2.764
 8607TIP3   OH225784   1.225   3.041   1.769
 8607TIP3    H125785   1.302   3.078   1.813
 8607TIP3    H225786   1.235   3.069   1.678
 8608TIP3   OH225787   1.860   5.113   3.770
 8608TIP3    H125788   1.930   5.050   3.753
 8608TIP3    H225789   1.864   5.174   3.697
 8609TIP3   OH225790   3.486   5.479   0.738
 8609TIP3    H125791   3.437   5.407   0.777
 8609TIP3    H225792   3.468   5.554   0.794
 8610TIP3   OH225793   1.405   3.272   1.320
 8610TIP3    H125794   1.383   3.354   1.365
 8610TIP3    H225795   1.449   3.299   1.240
 8611TIP3   OH225796   4.327   2.173   3.196
 8611TIP3    H125797   4.409   2.139   3.232
 8611TIP3    H225798   4.331   2.267   3.212
 8612TIP3   OH225799   6.489   5.649   3.384
 8612TIP3    H125800   6.467   5.727   3.435
 8612TIP3    H225801   6.585   5.648   3.382
 8613TIP3   OH225802   5.600   0.104   2.989
 8613TIP3    H125803   5.545   0.027   2.974
 8613TIP3    H225804   5.576   0.135   3.076
 8614TIP3   OH225805   0.700   3.168   2.816
 8614TIP3    H125806   0.780   3.161   2.765
 8614TIP3    H225807   0.725   3.220   2.893
 8615TIP3   OH225808   4.134   1.961   2.728
 8615TIP3    H125809   4.179   1.877   2.718
 8615TIP3    H225810   4.160   1.991   2.815
 8616TIP3   OH225811   3.005   0.191   5.129
 8616TIP3    H125812   2.945   0.145   5.071
 8616TIP3    H225813   2.965   0.277   5.144
 8617TIP3   OH225814   6.735   6.385   4.200
 8617TIP3    H125815   6.831   6.384   4.197
 8617TIP3    H225816   6.710   6.293   4.207
 8618TIP3   OH225817   6.641   6.411   3.658
 8618TIP3    H125818   6.569   6.472   3.674
 8618TIP3    H225819   6.646   6.405   3.563
 8619TIP3   OH225820   5.412   2.261   2.931
 8619TIP3    H125821   5.487   2.223   2.885
 8619TIP3    H225822   5.429   2.355   2.930
 8620TIP3   OH225823   3.927   5.177   3.827
 8620TIP3    H125824   3.905   5.270   3.836
 8620TIP3    H225825   3.953   5.167   3.736
 8621TIP3   OH225826   1.183   5.536   5.261
 8621TIP3    H125827   1.114   5.470   5.258
 8621TIP3    H225828   1.137   5.618   5.279
 8622TIP3   OH225829   6.047   5.302   1.888
 8622TIP3    H125830   6.053   5.389   1.928
 8622TIP3    H225831   5.955   5.277   1.897
 8623TIP3   OH225832   2.400   1.618   1.616
 8623TIP3    H125833   2.409   1.531   1.657
 8623TIP3    H225834   2.425   1.679   1.685
 8624TIP3   OH225835   7.234   3.003   1.811
 8624TIP3    H125836   7.236   3.061   1.887
 8624TIP3    H225837   7.141   2.994   1.790
 8625TIP3   OH225838   5.791   2.610   0.981
 8625TIP3    H125839   5.863   2.548   0.977
 8625TIP3    H225840   5.714   2.558   1.005
 8626TIP3   OH225841   3.804   3.869   4.624
 8626TIP3    H125842   3.866   3.802   4.594
 8626TIP3    H225843   3.718   3.830   4.608
 8627TIP3   OH225844   0.744   6.077   5.008
 8627TIP3    H125845   0.662   6.084   4.959
 8627TIP3    H225846   0.740   5.989   5.048
 8628TIP3   OH225847   4.680   6.286   5.703
 8628TIP3    H125848   4.720   6.274   5.617
 8628TIP3    H225849   4.736   6.236   5.763
 8629TIP3   OH225850   1.200   1.180   4.842
 8629TIP3    H125851   1.216   1.091   4.812
 8629TIP3    H225852   1.201   1.233   4.761
 8630TIP3   OH225853   1.157   0.684   5.296
 8630TIP3    H125854   1.147   0.623   5.222
 8630TIP3    H225855   1.217   0.639   5.356
 8631TIP3   OH225856   5.913   5.885   3.528
 8631TIP3    H125857   5.936   5.884   3.621
 8631TIP3    H225858   5.973   5.821   3.488
 8632TIP3   OH225859   3.580   3.156   3.245
 8632TIP3    H125860   3.609   3.106   3.168
 8632TIP3    H225861   3.542   3.090   3.303
 8633TIP3   OH225862   2.198   4.451   0.202
 8633TIP3    H125863   2.166   4.421   0.117
 8633TIP3    H225864   2.120   4.478   0.250
 8634TIP3   OH225865   2.916   2.035   2.985
 8634TIP3    H125866   2.837   1.986   3.010
 8634TIP3    H225867   2.965   2.044   3.067
 8635TIP3   OH225868   2.594   1.060   4.992
 8635TIP3    H125869   2.585   1.083   4.899
 8635TIP3    H225870   2.536   1.121   5.037
 8636TIP3   OH225871   5.307   4.510   1.849
 8636TIP3    H125872   5.349   4.538   1.768
 8636TIP3    H225873   5.312   4.586   1.907
 8637TIP3   OH225874   4.652   3.702   0.953
 8637TIP3    H125875   4.668   3.768   0.886
 8637TIP3    H225876   4.623   3.625   0.905
 8638TIP3   OH225877   2.695   6.316   0.781
 8638TIP3    H125878   2.660   6.324   0.870
 8638TIP3    H225879   2.783   6.354   0.787
 8639TIP3   OH225880   5.064   0.520   4.230
 8639TIP3    H125881   5.108   0.476   4.157
 8639TIP3    H225882   5.136   0.547   4.288
 8640TIP3   OH225883   6.916   4.365   1.147
 8640TIP3    H125884   6.991   4.330   1.100
 8640TIP3    H225885   6.876   4.289   1.190
 8641TIP3   OH225886   4.529   0.151   4.988
 8641TIP3    H125887   4.562   0.083   5.046
 8641TIP3    H225888   4.600   0.166   4.926
 8642TIP3   OH225889   6.640   2.577   2.427
 8642TIP3    H125890   6.652   2.651   2.368
 8642TIP3    H225891   6.566   2.528   2.391
 8643TIP3   OH225892   3.734   3.921   2.376
 8643TIP3    H125893   3.700   3.999   2.331
 8643TIP3    H225894   3.698   3.928   2.465
 8644TIP3   OH225895   6.152   2.052   5.660
 8644TIP3    H125896   6.092   2.112   5.616
 8644TIP3    H225897   6.095   1.989   5.703
 8645TIP3   OH225898   0.542   4.191   3.152
 8645TIP3    H125899   0.501   4.169   3.068
 8645TIP3    H225900   0.470   4.222   3.206
 8646TIP3   OH225901   3.953   1.646   4.320
 8646TIP3    H125902   3.931   1.737   4.340
 8646TIP3    H225903   3.944   1.600   4.404
 8647TIP3   OH225904   3.644   2.530   5.790
 8647TIP3    H125905   3.571   2.579   5.754
 8647TIP3    H225906   3.667   2.576   5.871
 8648TIP3   OH225907   5.828   4.541   1.731
 8648TIP3    H125908   5.784   4.458   1.708
 8648TIP3    H225909   5.878   4.521   1.810
 8649TIP3   OH225910   4.872   5.297   0.819
 8649TIP3    H125911   4.892   5.378   0.865
 8649TIP3    H225912   4.778   5.284   0.833
 8650TIP3   OH225913   0.118   5.010   3.409
 8650TIP3    H125914   0.075   4.999   3.324
 8650TIP3    H225915   0.203   5.050   3.388
 8651TIP3   OH225916   3.932   6.002   5.551
 8651TIP3    H125917   4.027   6.001   5.547
 8651TIP3    H225918   3.908   6.095   5.540
 8652TIP3   OH225919   6.265   1.056   4.719
 8652TIP3    H125920   6.307   1.007   4.648
 8652TIP3    H225921   6.302   1.144   4.711
 8653TIP3   OH225922   5.919   2.509   3.860
 8653TIP3    H125923   5.909   2.498   3.766
 8653TIP3    H225924   5.862   2.583   3.881
 8654TIP3   OH225925   0.726   1.009   4.322
 8654TIP3    H125926   0.639   1.050   4.318
 8654TIP3    H225927   0.734   0.962   4.239
 8655TIP3   OH225928   5.971   4.344   4.092
 8655TIP3    H125929   6.059   4.309   4.080
 8655TIP3    H225930   5.958   4.346   4.187
 8656TIP3   OH225931   5.820   6.097   1.645
 8656TIP3    H125932   5.913   6.080   1.657
 8656TIP3    H225933   5.790   6.127   1.731
 8657TIP3   OH225934   6.962   3.594   2.410
 8657TIP3    H125935   7.047   3.557   2.433
 8657TIP3    H225936   6.977   3.642   2.329
 8658TIP3   OH225937   0.512   5.190   4.251
 8658TIP3    H125938   0.594   5.180   4.203
 8658TIP3    H225939   0.539   5.194   4.343
 8659TIP3   OH225940   0.235   1.895   5.159
 8659TIP3    H125941   0.157   1.942   5.192
 8659TIP3    H225942   0.279   1.864   5.238
 8660TIP3   OH225943   7.076   6.597   4.076
 8660TIP3    H125944   7.004   6.659   4.087
 8660TIP3    H225945   7.094   6.564   4.164
 8661TIP3   OH225946   4.857   6.492   0.330
 8661TIP3    H125947   4.911   6.477   0.253
 8661TIP3    H225948   4.915   6.472   0.404
 8662TIP3   OH225949   5.842   6.797   4.273
 8662TIP3    H125950   5.891   6.715   4.272
 8662TIP3    H225951   5.907   6.863   4.300
 8663TIP3   OH225952   1.281   1.462   5.374
 8663TIP3    H125953   1.272   1.368   5.384
 8663TIP3    H225954   1.352   1.473   5.310
 8664TIP3   OH225955   3.479   4.600   5.221
 8664TIP3    H125956   3.516   4.524   5.265
 8664TIP3    H225957   3.498   4.586   5.128
 8665TIP3   OH225958   1.027   0.225   3.088
 8665TIP3    H125959   0.987   0.156   3.142
 8665TIP3    H225960   1.066   0.178   3.014
 8666TIP3   OH225961   3.014   1.447   0.108
 8666TIP3    H125962   3.092   1.393   0.122
 8666TIP3    H225963   3.033   1.495   0.027
 8667TIP3   OH225964   0.959   0.134   1.624
 8667TIP3    H125965   1.023   0.182   1.678
 8667TIP3    H225966   0.978   0.042   1.642
 8668TIP3   OH225967   0.361   4.628   1.405
 8668TIP3    H125968   0.386   4.662   1.491
 8668TIP3    H225969   0.306   4.552   1.423
 8669TIP3   OH225970   4.180   6.365   3.145
 8669TIP3    H125971   4.108   6.405   3.096
 8669TIP3    H225972   4.227   6.313   3.081
 8670TIP3   OH225973   2.761   3.928   4.465
 8670TIP3    H125974   2.716   3.863   4.411
 8670TIP3    H225975   2.738   3.905   4.555
 8671TIP3   OH225976   3.211   3.063   4.194
 8671TIP3    H125977   3.289   3.110   4.222
 8671TIP3    H225978   3.243   2.999   4.129
 8672TIP3   OH225979   6.207   0.163   2.821
 8672TIP3    H125980   6.225   0.193   2.910
 8672TIP3    H225981   6.122   0.202   2.800
 8673TIP3   OH225982   5.011   1.128   4.102
 8673TIP3    H125983   4.947   1.188   4.064
 8673TIP3    H225984   5.092   1.145   4.053
 8674TIP3   OH225985   3.183   6.171   4.256
 8674TIP3    H125986   3.266   6.124   4.256
 8674TIP3    H225987   3.206   6.262   4.242
 8675TIP3   OH225988   2.573   6.422   3.722
 8675TIP3    H125989   2.583   6.475   3.800
 8675TIP3    H225990   2.628   6.345   3.737
 8676TIP3   OH225991   6.770   5.280   2.101
 8676TIP3    H125992   6.831   5.345   2.066
 8676TIP3    H225993   6.824   5.224   2.157
 8677TIP3   OH225994   0.485   1.682   5.773
 8677TIP3    H125995   0.397   1.681   5.811
 8677TIP3    H225996   0.486   1.607   5.714
 8678TIP3   OH225997   0.527   2.363   3.473
 8678TIP3    H125998   0.535   2.285   3.528
 8678TIP3    H225999   0.477   2.425   3.526
 8679TIP3   OH226000   3.847   4.405   2.007
 8679TIP3    H126001   3.897   4.484   2.026
 8679TIP3    H226002   3.767   4.414   2.059
 8680TIP3   OH226003   1.143   0.916   3.805
 8680TIP3    H126004   1.201   0.962   3.745
 8680TIP3    H226005   1.202   0.865   3.861
 8681TIP3   OH226006   6.968   0.876   3.628
 8681TIP3    H126007   7.046   0.833   3.594
 8681TIP3    H226008   6.918   0.899   3.549
 8682TIP3   OH226009   1.971   6.233   0.190
 8682TIP3    H126010   1.962   6.328   0.181
 8682TIP3    H226011   1.888   6.204   0.229
 8683TIP3   OH226012   3.255   3.196   3.060
 8683TIP3    H126013   3.255   3.257   3.134
 8683TIP3    H226014   3.299   3.118   3.093
 8684TIP3   OH226015   2.053   0.901   3.448
 8684TIP3    H126016   2.068   0.995   3.455
 8684TIP3    H226017   2.049   0.870   3.538
 8685TIP3   OH226018   4.072   1.742   1.496
 8685TIP3    H126019   4.164   1.766   1.497
 8685TIP3    H226020   4.068   1.662   1.550
 8686TIP3   OH226021   2.673   5.795   2.897
 8686TIP3    H126022   2.669   5.724   2.833
 8686TIP3    H226023   2.612   5.769   2.966
 8687TIP3   OH226024   6.482   5.621   0.994
 8687TIP3    H126025   6.560   5.657   1.037
 8687TIP3    H226026   6.463   5.683   0.923
 8688TIP3   OH226027   5.485   6.526   2.822
 8688TIP3    H126028   5.439   6.515   2.739
 8688TIP3    H226029   5.427   6.580   2.875
 8689TIP3   OH226030   2.109   1.067   1.797
 8689TIP3    H126031   2.114   1.156   1.763
 8689TIP3    H226032   2.078   1.015   1.723
 8690TIP3   OH226033   0.332   5.257   2.554
 8690TIP3    H126034   0.412   5.211   2.581
 8690TIP3    H226035   0.285   5.273   2.635
 8691TIP3   OH226036   1.151   3.898   0.571
 8691TIP3    H126037   1.131   3.912   0.478
 8691TIP3    H226038   1.176   3.806   0.576
 8692TIP3   OH226039   4.159   6.656   5.123
 8692TIP3    H126040   4.125   6.577   5.080
 8692TIP3    H226041   4.169   6.630   5.215
 8693TIP3   OH226042   2.659   5.074   1.077
 8693TIP3    H126043   2.591   5.084   1.143
 8693TIP3    H226044   2.613   5.054   0.996
 8694TIP3   OH226045   0.542   0.179   1.207
 8694TIP3    H126046   0.629   0.216   1.222
 8694TIP3    H226047   0.551   0.086   1.229
 8695TIP3   OH226048   1.183   4.249   5.486
 8695TIP3    H126049   1.187   4.281   5.396
 8695TIP3    H226050   1.240   4.309   5.535
 8696TIP3   OH226051   0.151   5.950   1.900
 8696TIP3    H126052   0.133   5.865   1.859
 8696TIP3    H226053   0.198   5.999   1.833
 8697TIP3   OH226054   1.165   0.616   2.643
 8697TIP3    H126055   1.126   0.544   2.593
 8697TIP3    H226056   1.257   0.618   2.617
 8698TIP3   OH226057   1.884   2.286   2.712
 8698TIP3    H126058   1.919   2.237   2.787
 8698TIP3    H226059   1.890   2.378   2.738
 8699TIP3   OH226060   3.279   2.000   0.047
 8699TIP3    H126061   3.290   2.017   0.141
 8699TIP3    H226062   3.235   1.916   0.043
 8700TIP3   OH226063   0.846   3.097   5.881
 8700TIP3    H126064   0.787   3.172   5.888
 8700TIP3    H226065   0.931   3.135   5.860
 8701TIP3   OH226066   3.310   0.527   2.879
 8701TIP3    H126067   3.374   0.587   2.918
 8701TIP3    H226068   3.316   0.542   2.785
 8702TIP3   OH226069   5.957   0.396   3.650
 8702TIP3    H126070   5.908   0.433   3.576
 8702TIP3    H226071   5.940   0.302   3.646
 8703TIP3   OH226072   5.503   6.488   3.666
 8703TIP3    H126073   5.556   6.562   3.694
 8703TIP3    H226074   5.429   6.488   3.727
 8704TIP3   OH226075   6.256   6.744   1.329
 8704TIP3    H126076   6.338   6.732   1.282
 8704TIP3    H226077   6.221   6.655   1.339
 8705TIP3   OH226078   3.382   3.581   2.415
 8705TIP3    H126079   3.465   3.628   2.407
 8705TIP3    H226080   3.315   3.649   2.407
 8706TIP3   OH226081   0.432   4.375   0.100
 8706TIP3    H126082   0.341   4.381   0.127
 8706TIP3    H226083   0.479   4.435   0.158
 8707TIP3   OH226084   4.486   1.210   4.935
 8707TIP3    H126085   4.504   1.303   4.949
 8707TIP3    H226086   4.521   1.191   4.848
 8708TIP3   OH226087   1.042   0.600   3.120
 8708TIP3    H126088   1.080   0.553   3.045
 8708TIP3    H226089   0.949   0.579   3.116
 8709TIP3   OH226090   5.102   5.934   3.465
 8709TIP3    H126091   5.102   5.986   3.546
 8709TIP3    H226092   5.142   5.851   3.490
 8710TIP3   OH226093   2.667   4.592   3.611
 8710TIP3    H126094   2.636   4.504   3.588
 8710TIP3    H226095   2.587   4.642   3.627
 8711TIP3   OH226096   5.264   5.450   1.645
 8711TIP3    H126097   5.291   5.367   1.685
 8711TIP3    H226098   5.236   5.425   1.557
 8712TIP3   OH226099   5.156   1.002   5.223
 8712TIP3    H126100   5.194   0.974   5.139
 8712TIP3    H226101   5.229   1.041   5.270
 8713TIP3   OH226102   4.307   3.928   2.324
 8713TIP3    H126103   4.345   3.949   2.238
 8713TIP3    H226104   4.235   3.989   2.334
 8714TIP3   OH226105   1.359   1.096   3.151
 8714TIP3    H126106   1.318   1.029   3.206
 8714TIP3    H226107   1.340   1.067   3.061
 8715TIP3   OH226108   2.235   5.368   4.296
 8715TIP3    H126109   2.152   5.387   4.341
 8715TIP3    H226110   2.296   5.347   4.367
 8716TIP3   OH226111   4.495   1.555   3.229
 8716TIP3    H126112   4.497   1.466   3.265
 8716TIP3    H226113   4.564   1.555   3.163
 8717TIP3   OH226114   6.868   1.095   0.369
 8717TIP3    H126115   6.937   1.137   0.420
 8717TIP3    H226116   6.911   1.020   0.328
 8718TIP3   OH226117   6.135   2.838   3.700
 8718TIP3    H126118   6.121   2.831   3.605
 8718TIP3    H226119   6.048   2.856   3.736
 8719TIP3   OH226120   5.725   1.612   1.415
 8719TIP3    H126121   5.681   1.550   1.473
 8719TIP3    H226122   5.704   1.582   1.327
 8720TIP3   OH226123   3.541   1.307   5.327
 8720TIP3    H126124   3.507   1.302   5.237
 8720TIP3    H226125   3.591   1.226   5.338
 8721TIP3   OH226126   1.499   5.792   5.219
 8721TIP3    H126127   1.496   5.771   5.126
 8721TIP3    H226128   1.560   5.728   5.257
 8722TIP3   OH226129   6.236   3.904   5.512
 8722TIP3    H126130   6.218   3.826   5.564
 8722TIP3    H226131   6.280   3.871   5.434
 8723TIP3   OH226132   5.482   6.344   0.813
 8723TIP3    H126133   5.549   6.297   0.861
 8723TIP3    H226134   5.515   6.350   0.724
 8724TIP3   OH226135   4.889   0.938   0.936
 8724TIP3    H126136   4.921   0.855   0.973
 8724TIP3    H226137   4.851   0.984   1.010
 8725TIP3   OH226138   1.757   2.531   4.078
 8725TIP3    H126139   1.730   2.439   4.068
 8725TIP3    H226140   1.684   2.573   4.124
 8726TIP3   OH226141   6.654   2.344   0.627
 8726TIP3    H126142   6.675   2.436   0.643
 8726TIP3    H226143   6.719   2.296   0.678
 8727TIP3   OH226144   4.813   0.128   3.354
 8727TIP3    H126145   4.740   0.116   3.293
 8727TIP3    H226146   4.794   0.211   3.397
 8728TIP3   OH226147   0.753   1.608   3.719
 8728TIP3    H126148   0.659   1.619   3.735
 8728TIP3    H226149   0.758   1.542   3.651
 8729TIP3   OH226150   1.226   0.114   2.435
 8729TIP3    H126151   1.197   0.084   2.521
 8729TIP3    H226152   1.304   0.062   2.417
 8730TIP3   OH226153   3.613   4.508   0.550
 8730TIP3    H126154   3.622   4.434   0.609
 8730TIP3    H226155   3.518   4.523   0.544
 8731TIP3   OH226156   3.309   0.036   0.711
 8731TIP3    H126157   3.274   0.125   0.701
 8731TIP3    H226158   3.388   0.035   0.656
 8732TIP3   OH226159   5.752   5.811   4.057
 8732TIP3    H126160   5.804   5.827   3.978
 8732TIP3    H226161   5.788   5.730   4.093
 8733TIP3   OH226162   3.209   1.843   4.712
 8733TIP3    H126163   3.277   1.817   4.649
 8733TIP3    H226164   3.234   1.931   4.738
 8734TIP3   OH226165   3.299   3.368   1.699
 8734TIP3    H126166   3.394   3.360   1.697
 8734TIP3    H226167   3.278   3.380   1.792
 8735TIP3   OH226168   4.840   0.609   0.036
 8735TIP3    H126169   4.929   0.603   0.072
 8735TIP3    H226170   4.784   0.624   0.112
 8736TIP3   OH226171   4.972   1.494   4.303
 8736TIP3    H126172   4.889   1.531   4.272
 8736TIP3    H226173   4.960   1.486   4.398
 8737TIP3   OH226174   4.157   6.213   3.433
 8737TIP3    H126175   4.245   6.235   3.466
 8737TIP3    H226176   4.158   6.244   3.342
 8738TIP3   OH226177   4.423   2.342   4.438
 8738TIP3    H126178   4.380   2.287   4.373
 8738TIP3    H226179   4.355   2.359   4.504
 8739TIP3   OH226180   1.973   0.848   5.293
 8739TIP3    H126181   1.965   0.850   5.388
 8739TIP3    H226182   2.058   0.889   5.275
 8740TIP3   OH226183   2.751   2.030   3.651
 8740TIP3    H126184   2.836   2.024   3.608
 8740TIP3    H226185   2.694   2.072   3.587
 8741TIP3   OH226186   3.078   0.224   4.267
 8741TIP3    H126187   3.069   0.278   4.346
 8741TIP3    H226188   2.998   0.241   4.217
 8742TIP3   OH226189   5.350   2.021   4.673
 8742TIP3    H126190   5.441   2.049   4.661
 8742TIP3    H226191   5.350   1.928   4.650
 8743TIP3   OH226192   2.516   1.990   1.200
 8743TIP3    H126193   2.596   2.017   1.245
 8743TIP3    H226194   2.496   1.903   1.234
 8744TIP3   OH226195   1.541   5.201   5.417
 8744TIP3    H126196   1.611   5.247   5.371
 8744TIP3    H226197   1.463   5.256   5.403
 8745TIP3   OH226198   5.137   4.320   3.511
 8745TIP3    H126199   5.138   4.256   3.439
 8745TIP3    H226200   5.225   4.316   3.548
 8746TIP3   OH226201   2.198   3.238   1.631
 8746TIP3    H126202   2.260   3.287   1.685
 8746TIP3    H226203   2.180   3.159   1.681
 8747TIP3   OH226204   2.973   5.919   2.708
 8747TIP3    H126205   3.061   5.929   2.746
 8747TIP3    H226206   2.925   5.867   2.773
 8748TIP3   OH226207   2.862   1.159   4.892
 8748TIP3    H126208   2.866   1.112   4.976
 8748TIP3    H226209   2.824   1.095   4.831
 8749TIP3   OH226210   0.158   4.843   1.609
 8749TIP3    H126211   0.187   4.853   1.518
 8749TIP3    H226212   0.127   4.930   1.634
 8750TIP3   OH226213   5.468   2.983   2.958
 8750TIP3    H126214   5.509   3.018   3.037
 8750TIP3    H226215   5.408   2.915   2.990
 8751TIP3   OH226216   5.659   5.834   3.481
 8751TIP3    H126217   5.622   5.831   3.569
 8751TIP3    H226218   5.753   5.842   3.495
 8752TIP3   OH226219   4.240   1.334   3.403
 8752TIP3    H126220   4.169   1.327   3.466
 8752TIP3    H226221   4.198   1.366   3.323
 8753TIP3   OH226222   5.107   0.289   1.311
 8753TIP3    H126223   5.160   0.260   1.236
 8753TIP3    H226224   5.118   0.384   1.312
 8754TIP3   OH226225   0.536   0.118   5.203
 8754TIP3    H126226   0.540   0.189   5.138
 8754TIP3    H226227   0.528   0.039   5.151
 8755TIP3   OH226228   4.196   0.981   5.703
 8755TIP3    H126229   4.142   1.023   5.637
 8755TIP3    H226230   4.216   1.049   5.766
 8756TIP3   OH226231   1.147   3.829   4.851
 8756TIP3    H126232   1.127   3.922   4.843
 8756TIP3    H226233   1.107   3.803   4.934
 8757TIP3   OH226234   3.993   6.653   0.279
 8757TIP3    H126235   4.017   6.735   0.235
 8757TIP3    H226236   4.076   6.609   0.294
 8758TIP3   OH226237   4.599   4.208   2.169
 8758TIP3    H126238   4.674   4.237   2.118
 8758TIP3    H226239   4.535   4.280   2.162
 8759TIP3   OH226240   2.262   1.321   2.231
 8759TIP3    H126241   2.313   1.342   2.153
 8759TIP3    H226242   2.323   1.270   2.286
 8760TIP3   OH226243   5.463   6.201   5.850
 8760TIP3    H126244   5.411   6.281   5.847
 8760TIP3    H226245   5.548   6.226   5.814
 8761TIP3   OH226246   6.916   1.926   4.079
 8761TIP3    H126247   6.996   1.954   4.125
 8761TIP3    H226248   6.916   1.831   4.088
 8762TIP3   OH226249   5.989   6.721   2.851
 8762TIP3    H126250   5.985   6.682   2.764
 8762TIP3    H226251   5.914   6.682   2.898
 8763TIP3   OH226252   4.017   3.446   4.889
 8763TIP3    H126253   4.069   3.374   4.924
 8763TIP3    H226254   4.040   3.450   4.797
 8764TIP3   OH226255   1.529   6.255   4.128
 8764TIP3    H126256   1.624   6.249   4.117
 8764TIP3    H226257   1.510   6.348   4.121
 8765TIP3   OH226258   3.478   1.216   1.621
 8765TIP3    H126259   3.490   1.305   1.655
 8765TIP3    H226260   3.552   1.167   1.656
 8766TIP3   OH226261   3.844   6.448   5.162
 8766TIP3    H126262   3.750   6.439   5.171
 8766TIP3    H226263   3.876   6.458   5.252
 8767TIP3   OH226264   5.638   6.539   2.132
 8767TIP3    H126265   5.659   6.459   2.180
 8767TIP3    H226266   5.720   6.589   2.132
 8768TIP3   OH226267   6.760   2.963   1.550
 8768TIP3    H126268   6.702   2.925   1.484
 8768TIP3    H226269   6.708   3.031   1.592
 8769TIP3   OH226270   5.628   0.865   2.363
 8769TIP3    H126271   5.629   0.930   2.292
 8769TIP3    H226272   5.674   0.789   2.326
 8770TIP3   OH226273   5.816   3.004   2.633
 8770TIP3    H126274   5.822   2.985   2.726
 8770TIP3    H226275   5.731   2.969   2.606
 8771TIP3   OH226276   0.234   4.408   2.292
 8771TIP3    H126277   0.231   4.414   2.388
 8771TIP3    H226278   0.266   4.494   2.264
 8772TIP3   OH226279   4.787   3.532   5.599
 8772TIP3    H126280   4.715   3.561   5.542
 8772TIP3    H226281   4.851   3.602   5.594
 8773TIP3   OH226282   2.585   4.484   0.151
 8773TIP3    H126283   2.676   4.488   0.123
 8773TIP3    H226284   2.556   4.396   0.128
 8774TIP3   OH226285   0.572   6.569   5.833
 8774TIP3    H126286   0.492   6.595   5.878
 8774TIP3    H226287   0.625   6.648   5.828
 8775TIP3   OH226288   0.450   1.111   2.567
 8775TIP3    H126289   0.473   1.195   2.526
 8775TIP3    H226290   0.484   1.045   2.507
 8776TIP3   OH226291   3.496   0.741   5.379
 8776TIP3    H126292   3.518   0.734   5.286
 8776TIP3    H226293   3.567   0.792   5.416
 8777TIP3   OH226294   0.914   4.636   2.205
 8777TIP3    H126295   0.896   4.577   2.132
 8777TIP3    H226296   0.939   4.579   2.277
 8778TIP3   OH226297   6.026   1.529   1.240
 8778TIP3    H126298   6.107   1.569   1.272
 8778TIP3    H226299   6.050   1.437   1.224
 8779TIP3   OH226300   5.377   0.917   3.656
 8779TIP3    H126301   5.450   0.966   3.617
 8779TIP3    H226302   5.318   0.985   3.687
 8780TIP3   OH226303   4.723   1.406   0.713
 8780TIP3    H126304   4.744   1.382   0.623
 8780TIP3    H226305   4.800   1.453   0.744
 8781TIP3   OH226306   0.989   1.983   0.456
 8781TIP3    H126307   1.070   1.933   0.451
 8781TIP3    H226308   0.937   1.937   0.522
 8782TIP3   OH226309   4.458   0.950   0.299
 8782TIP3    H126310   4.433   0.870   0.346
 8782TIP3    H226311   4.528   0.922   0.240
 8783TIP3   OH226312   5.822   1.007   3.157
 8783TIP3    H126313   5.823   1.069   3.230
 8783TIP3    H226314   5.730   0.985   3.146
 8784TIP3   OH226315   6.610   3.251   2.656
 8784TIP3    H126316   6.578   3.161   2.648
 8784TIP3    H226317   6.674   3.260   2.585
 8785TIP3   OH226318   5.583   0.200   4.642
 8785TIP3    H126319   5.493   0.184   4.670
 8785TIP3    H226320   5.608   0.281   4.685
 8786TIP3   OH226321   5.782   5.193   3.585
 8786TIP3    H126322   5.755   5.104   3.562
 8786TIP3    H226323   5.753   5.205   3.675
 8787TIP3   OH226324   0.324   4.005   5.656
 8787TIP3    H126325   0.250   3.947   5.676
 8787TIP3    H226326   0.288   4.093   5.660
 8788TIP3   OH226327   0.649   6.524   2.343
 8788TIP3    H126328   0.575   6.583   2.330
 8788TIP3    H226329   0.722   6.567   2.298
 8789TIP3   OH226330   3.562   1.355   2.618
 8789TIP3    H126331   3.584   1.270   2.655
 8789TIP3    H226332   3.626   1.415   2.657
 8790TIP3   OH226333   5.968   4.781   3.804
 8790TIP3    H126334   5.988   4.730   3.725
 8790TIP3    H226335   6.045   4.835   3.818
 8791TIP3   OH226336   2.144   2.549   4.295
 8791TIP3    H126337   2.211   2.556   4.227
 8791TIP3    H226338   2.064   2.581   4.254
 8792TIP3   OH226339   4.866   2.192   5.089
 8792TIP3    H126340   4.857   2.132   5.015
 8792TIP3    H226341   4.882   2.135   5.164
 8793TIP3   OH226342   0.705   4.903   5.035
 8793TIP3    H126343   0.750   4.821   5.014
 8793TIP3    H226344   0.638   4.912   4.967
 8794TIP3   OH226345   5.750   4.800   4.902
 8794TIP3    H126346   5.803   4.834   4.829
 8794TIP3    H226347   5.797   4.829   4.980
 8795TIP3   OH226348   7.045   5.509   5.823
 8795TIP3    H126349   7.081   5.479   5.739
 8795TIP3    H226350   7.034   5.429   5.875
 8796TIP3   OH226351   4.516   3.772   4.109
 8796TIP3    H126352   4.592   3.729   4.069
 8796TIP3    H226353   4.440   3.726   4.073
 8797TIP3   OH226354   0.440   6.646   1.242
 8797TIP3    H126355   0.400   6.559   1.242
 8797TIP3    H226356   0.412   6.686   1.160
 8798TIP3   OH226357   1.866   3.036   0.349
 8798TIP3    H126358   1.782   3.073   0.374
 8798TIP3    H226359   1.852   3.003   0.260
 8799TIP3   OH226360   6.038   2.318   0.797
 8799TIP3    H126361   6.108   2.272   0.843
 8799TIP3    H226362   5.958   2.274   0.824
 8800TIP3   OH226363   0.424   1.707   1.805
 8800TIP3    H126364   0.506   1.706   1.855
 8800TIP3    H226365   0.412   1.617   1.776
 8801TIP3   OH226366   0.874   6.634   2.193
 8801TIP3    H126367   0.869   6.639   2.097
 8801TIP3    H226368   0.959   6.593   2.210
 8802TIP3   OH226369   1.808   4.624   2.939
 8802TIP3    H126370   1.748   4.642   2.867
 8802TIP3    H226371   1.895   4.634   2.900
 8803TIP3   OH226372   1.165   2.212   4.205
 8803TIP3    H126373   1.168   2.153   4.281
 8803TIP3    H226374   1.101   2.279   4.230
 8804TIP3   OH226375   3.830   0.178   3.587
 8804TIP3    H126376   3.869   0.092   3.572
 8804TIP3    H226377   3.896   0.241   3.559
 8805TIP3   OH226378   4.726   1.775   3.194
 8805TIP3    H126379   4.813   1.812   3.206
 8805TIP3    H226380   4.702   1.741   3.280
 8806TIP3   OH226381   5.478   3.289   2.418
 8806TIP3    H126382   5.476   3.333   2.333
 8806TIP3    H226383   5.388   3.260   2.432
 8807TIP3   OH226384   6.542   0.143   3.241
 8807TIP3    H126385   6.555   0.124   3.334
 8807TIP3    H226386   6.490   0.223   3.239
 8808TIP3   OH226387   0.189   4.049   2.476
 8808TIP3    H126388   0.248   3.977   2.455
 8808TIP3    H226389   0.247   4.121   2.500
 8809TIP3   OH226390   4.686   5.550   2.376
 8809TIP3    H126391   4.690   5.583   2.287
 8809TIP3    H226392   4.692   5.455   2.367
 8810TIP3   OH226393   2.999   1.694   0.857
 8810TIP3    H126394   2.987   1.751   0.781
 8810TIP3    H226395   2.912   1.691   0.898
 8811TIP3   OH226396   2.802   0.463   1.227
 8811TIP3    H126397   2.761   0.406   1.292
 8811TIP3    H226398   2.887   0.424   1.210
 8812TIP3   OH226399   6.962   2.925   5.670
 8812TIP3    H126400   6.972   2.831   5.678
 8812TIP3    H226401   6.882   2.946   5.718
 8813TIP3   OH226402   1.849   5.183   3.524
 8813TIP3    H126403   1.794   5.260   3.535
 8813TIP3    H226404   1.788   5.109   3.526
 8814TIP3   OH226405   3.765   4.122   2.156
 8814TIP3    H126406   3.756   4.190   2.090
 8814TIP3    H226407   3.818   4.162   2.225
 8815TIP3   OH226408   6.906   0.235   5.540
 8815TIP3    H126409   6.825   0.281   5.562
 8815TIP3    H226410   6.968   0.304   5.519
 8816TIP3   OH226411   5.629   5.501   2.853
 8816TIP3    H126412   5.691   5.567   2.885
 8816TIP3    H226413   5.682   5.444   2.797
 8817TIP3   OH226414   0.983   6.290   4.216
 8817TIP3    H126415   0.929   6.257   4.288
 8817TIP3    H226416   1.007   6.379   4.243
 8818TIP3   OH226417   0.156   1.818   1.121
 8818TIP3    H126418   0.128   1.746   1.065
 8818TIP3    H226419   0.118   1.798   1.207
 8819TIP3   OH226420   0.771   3.762   4.803
 8819TIP3    H126421   0.828   3.685   4.803
 8819TIP3    H226422   0.779   3.797   4.892
 8820TIP3   OH226423   0.169   4.431   1.476
 8820TIP3    H126424   0.230   4.375   1.524
 8820TIP3    H226425   0.140   4.496   1.539
 8821TIP3   OH226426   6.977   0.733   5.345
 8821TIP3    H126427   6.932   0.766   5.423
 8821TIP3    H226428   6.911   0.736   5.276
 8822TIP3   OH226429   6.493   4.005   4.781
 8822TIP3    H126430   6.441   4.085   4.776
 8822TIP3    H226431   6.537   3.999   4.696
 8823TIP3   OH226432   1.954   6.356   4.665
 8823TIP3    H126433   1.915   6.437   4.633
 8823TIP3    H226434   2.044   6.357   4.632
 8824TIP3   OH226435   4.133   5.016   0.957
 8824TIP3    H126436   4.063   4.993   1.018
 8824TIP3    H226437   4.135   4.945   0.893
 8825TIP3   OH226438   0.937   6.160   4.784
 8825TIP3    H126439   0.892   6.136   4.866
 8825TIP3    H226440   0.897   6.244   4.759
 8826TIP3   OH226441   5.100   3.170   4.572
 8826TIP3    H126442   5.194   3.154   4.563
 8826TIP3    H226443   5.060   3.086   4.552
 8827TIP3   OH226444   2.477   2.141   3.858
 8827TIP3    H126445   2.453   2.185   3.940
 8827TIP3    H226446   2.573   2.140   3.860
 8828TIP3   OH226447   6.732   0.978   1.032
 8828TIP3    H126448   6.816   0.978   1.077
 8828TIP3    H226449   6.667   0.985   1.102
 8829TIP3   OH226450   1.859   2.283   0.794
 8829TIP3    H126451   1.879   2.376   0.784
 8829TIP3    H226452   1.836   2.255   0.705
 8830TIP3   OH226453   0.176   6.177   5.118
 8830TIP3    H126454   0.230   6.176   5.196
 8830TIP3    H226455   0.092   6.140   5.147
 8831TIP3   OH226456   4.342   3.440   4.765
 8831TIP3    H126457   4.330   3.349   4.739
 8831TIP3    H226458   4.435   3.458   4.747
 8832TIP3   OH226459   0.687   5.787   4.146
 8832TIP3    H126460   0.689   5.748   4.059
 8832TIP3    H226461   0.777   5.820   4.160
 8833TIP3   OH226462   0.779   6.472   1.230
 8833TIP3    H126463   0.858   6.525   1.241
 8833TIP3    H226464   0.743   6.501   1.146
 8834TIP3   OH226465   1.636   6.405   2.900
 8834TIP3    H126466   1.727   6.426   2.877
 8834TIP3    H226467   1.635   6.310   2.908
 8835TIP3   OH226468   6.720   0.462   2.837
 8835TIP3    H126469   6.750   0.439   2.749
 8835TIP3    H226470   6.713   0.378   2.883
 8836TIP3   OH226471   1.440   5.293   5.732
 8836TIP3    H126472   1.396   5.221   5.686
 8836TIP3    H226473   1.373   5.360   5.742
 8837TIP3   OH226474   6.624   0.477   4.953
 8837TIP3    H126475   6.660   0.393   4.926
 8837TIP3    H226476   6.531   0.472   4.930
 8838TIP3   OH226477   4.729   3.546   3.420
 8838TIP3    H126478   4.807   3.581   3.376
 8838TIP3    H226479   4.682   3.499   3.351
 8839TIP3   OH226480   1.576   4.259   4.772
 8839TIP3    H126481   1.594   4.339   4.821
 8839TIP3    H226482   1.654   4.206   4.782
 8840TIP3   OH226483   5.151   6.685   2.037
 8840TIP3    H126484   5.168   6.779   2.024
 8840TIP3    H226485   5.233   6.642   2.015
 8841TIP3   OH226486   4.795   6.149   2.834
 8841TIP3    H126487   4.865   6.123   2.774
 8841TIP3    H226488   4.794   6.081   2.901
 8842TIP3   OH226489   5.590   0.707   3.714
 8842TIP3    H126490   5.648   0.737   3.644
 8842TIP3    H226491   5.510   0.758   3.702
 8843TIP3   OH226492   3.549   4.111   1.990
 8843TIP3    H126493   3.540   4.026   1.946
 8843TIP3    H226494   3.624   4.101   2.049
 8844TIP3   OH226495   4.042   3.726   3.946
 8844TIP3    H126496   4.006   3.640   3.924
 8844TIP3    H226497   3.965   3.780   3.963
 8845TIP3   OH226498   1.732   1.833   5.587
 8845TIP3    H126499   1.825   1.826   5.610
 8845TIP3    H226500   1.724   1.784   5.505
 8846TIP3   OH226501   0.836   2.077   5.272
 8846TIP3    H126502   0.806   2.087   5.182
 8846TIP3    H226503   0.930   2.064   5.265
 8847TIP3   OH226504   4.177   6.286   0.980
 8847TIP3    H126505   4.258   6.270   1.029
 8847TIP3    H226506   4.122   6.338   1.038
 8848TIP3   OH226507   1.845   4.490   1.663
 8848TIP3    H126508   1.796   4.519   1.740
 8848TIP3    H226509   1.935   4.521   1.678
 8849TIP3   OH226510   3.859   4.338   2.686
 8849TIP3    H126511   3.906   4.271   2.735
 8849TIP3    H226512   3.766   4.318   2.703
 8850TIP3   OH226513   2.554   4.268   1.563
 8850TIP3    H126514   2.548   4.183   1.605
 8850TIP3    H226515   2.601   4.251   1.481
 8851TIP3   OH226516   4.900   2.817   3.749
 8851TIP3    H126517   4.950   2.802   3.669
 8851TIP3    H226518   4.812   2.787   3.729
 8852TIP3   OH226519   5.114   3.646   3.022
 8852TIP3    H126520   5.042   3.682   2.970
 8852TIP3    H226521   5.184   3.710   3.013
 8853TIP3   OH226522   0.211   5.230   2.315
 8853TIP3    H126523   0.265   5.247   2.392
 8853TIP3    H226524   0.273   5.217   2.244
 8854TIP3   OH226525   4.268   1.496   1.117
 8854TIP3    H126526   4.345   1.459   1.075
 8854TIP3    H226527   4.299   1.576   1.159
 8855TIP3   OH226528   2.026   3.501   1.971
 8855TIP3    H126529   2.075   3.545   1.901
 8855TIP3    H226530   1.935   3.527   1.956
 8856TIP3   OH226531   2.883   0.037   2.983
 8856TIP3    H126532   2.851   0.060   3.071
 8856TIP3    H226533   2.919  -0.051   2.993
 8857TIP3   OH226534   2.997   1.448   5.410
 8857TIP3    H126535   2.952   1.388   5.469
 8857TIP3    H226536   2.956   1.533   5.426
 8858TIP3   OH226537   1.146   3.456   3.828
 8858TIP3    H126538   1.190   3.495   3.752
 8858TIP3    H226539   1.066   3.508   3.838
 8859TIP3   OH226540   3.757   1.154   0.643
 8859TIP3    H126541   3.678   1.163   0.590
 8859TIP3    H226542   3.731   1.096   0.715
 8860TIP3   OH226543   4.570   3.768   2.830
 8860TIP3    H126544   4.542   3.680   2.853
 8860TIP3    H226545   4.587   3.764   2.735
 8861TIP3   OH226546   6.192   3.154   2.128
 8861TIP3    H126547   6.254   3.201   2.072
 8861TIP3    H226548   6.134   3.221   2.162
 8862TIP3   OH226549   2.976   6.213   5.108
 8862TIP3    H126550   3.004   6.122   5.110
 8862TIP3    H226551   3.054   6.263   5.133
 8863TIP3   OH226552   3.508   3.822   2.198
 8863TIP3    H126553   3.569   3.843   2.269
 8863TIP3    H226554   3.513   3.727   2.190
 8864TIP3   OH226555   5.241   4.244   1.988
 8864TIP3    H126556   5.212   4.181   1.922
 8864TIP3    H226557   5.291   4.192   2.050
 8865TIP3   OH226558   0.082   5.035   1.118
 8865TIP3    H126559   0.021   5.006   1.050
 8865TIP3    H226560   0.032   5.032   1.199
 8866TIP3   OH226561   5.360   4.883   1.173
 8866TIP3    H126562   5.383   4.810   1.116
 8866TIP3    H226563   5.360   4.959   1.114
 8867TIP3   OH226564   1.517   1.519   5.212
 8867TIP3    H126565   1.573   1.452   5.251
 8867TIP3    H226566   1.526   1.507   5.118
 8868TIP3   OH226567   5.821   5.593   4.223
 8868TIP3    H126568   5.798   5.636   4.306
 8868TIP3    H226569   5.861   5.510   4.249
 8869TIP3   OH226570   5.806   3.554   2.197
 8869TIP3    H126571   5.806   3.554   2.101
 8869TIP3    H226572   5.863   3.480   2.221
 8870TIP3   OH226573   3.087   4.958   1.849
 8870TIP3    H126574   3.180   4.969   1.866
 8870TIP3    H226575   3.068   4.869   1.877
 8871TIP3   OH226576   4.882   6.480   0.926
 8871TIP3    H126577   4.900   6.504   1.016
 8871TIP3    H226578   4.791   6.449   0.927
 8872TIP3   OH226579   0.458   1.211   0.848
 8872TIP3    H126580   0.489   1.224   0.759
 8872TIP3    H226581   0.437   1.118   0.853
 8873TIP3   OH226582   5.548   5.857   2.760
 8873TIP3    H126583   5.563   5.877   2.853
 8873TIP3    H226584   5.513   5.768   2.760
 8874TIP3   OH226585   1.387   6.745   3.029
 8874TIP3    H126586   1.362   6.834   3.004
 8874TIP3    H226587   1.459   6.724   2.970
 8875TIP3   OH226588   1.521   0.674   1.525
 8875TIP3    H126589   1.443   0.724   1.500
 8875TIP3    H226590   1.511   0.660   1.619
 8876TIP3   OH226591   5.534   5.567   5.722
 8876TIP3    H126592   5.594   5.496   5.744
 8876TIP3    H226593   5.523   5.560   5.627
 8877TIP3   OH226594   6.068   3.077   2.832
 8877TIP3    H126595   6.129   3.025   2.885
 8877TIP3    H226596   6.124   3.125   2.771
 8878TIP3   OH226597   3.375   2.859   0.581
 8878TIP3    H126598   3.282   2.836   0.591
 8878TIP3    H226599   3.405   2.878   0.670
 8879TIP3   OH226600   6.202   0.851   1.060
 8879TIP3    H126601   6.167   0.789   1.123
 8879TIP3    H226602   6.293   0.823   1.046
 8880TIP3   OH226603   2.618   5.491   3.453
 8880TIP3    H126604   2.611   5.420   3.389
 8880TIP3    H226605   2.533   5.533   3.451
 8881TIP3   OH226606   3.882   6.207   4.528
 8881TIP3    H126607   3.953   6.258   4.567
 8881TIP3    H226608   3.817   6.273   4.501
 8882TIP3   OH226609   3.571   6.601   3.799
 8882TIP3    H126610   3.602   6.542   3.730
 8882TIP3    H226611   3.651   6.627   3.845
 8883TIP3   OH226612   1.781   4.700   1.114
 8883TIP3    H126613   1.692   4.728   1.135
 8883TIP3    H226614   1.805   4.752   1.037
 8884TIP3   OH226615   6.792   5.465   0.435
 8884TIP3    H126616   6.809   5.375   0.460
 8884TIP3    H226617   6.875   5.497   0.400
 8885TIP3   OH226618   1.367   5.399   4.395
 8885TIP3    H126619   1.458   5.386   4.420
 8885TIP3    H226620   1.368   5.398   4.299
 8886TIP3   OH226621   2.375   4.354   1.331
 8886TIP3    H126622   2.426   4.288   1.283
 8886TIP3    H226623   2.431   4.432   1.331
 8887TIP3   OH226624   2.523   6.520   2.659
 8887TIP3    H126625   2.574   6.519   2.740
 8887TIP3    H226626   2.571   6.580   2.601
 8888TIP3   OH226627   4.468   4.497   0.365
 8888TIP3    H126628   4.536   4.534   0.308
 8888TIP3    H226629   4.515   4.432   0.418
 8889TIP3   OH226630   4.827   4.141   1.145
 8889TIP3    H126631   4.894   4.146   1.212
 8889TIP3    H226632   4.825   4.048   1.120
 8890TIP3   OH226633   5.079   0.136   3.281
 8890TIP3    H126634   5.072   0.191   3.203
 8890TIP3    H226635   4.993   0.097   3.291
 8891TIP3   OH226636   0.925   4.212   5.092
 8891TIP3    H126637   0.973   4.219   5.174
 8891TIP3    H226638   0.834   4.199   5.120
 8892TIP3   OH226639   1.690   1.296   0.382
 8892TIP3    H126640   1.680   1.310   0.477
 8892TIP3    H226641   1.747   1.368   0.353
 8893TIP3   OH226642   5.754   1.597   1.137
 8893TIP3    H126643   5.847   1.600   1.156
 8893TIP3    H226644   5.746   1.533   1.065
 8894TIP3   OH226645   4.480   6.465   2.849
 8894TIP3    H126646   4.548   6.427   2.794
 8894TIP3    H226647   4.528   6.511   2.918
 8895TIP3   OH226648   2.881   5.794   0.674
 8895TIP3    H126649   2.877   5.749   0.759
 8895TIP3    H226650   2.960   5.847   0.678
 8896TIP3   OH226651   2.030   0.510   4.642
 8896TIP3    H126652   2.080   0.433   4.668
 8896TIP3    H226653   1.964   0.520   4.711
 8897TIP3   OH226654   6.157   4.755   2.873
 8897TIP3    H126655   6.245   4.789   2.891
 8897TIP3    H226656   6.167   4.703   2.793
 8898TIP3   OH226657   1.716   3.000   2.592
 8898TIP3    H126658   1.783   3.062   2.620
 8898TIP3    H226659   1.701   2.943   2.667
 8899TIP3   OH226660   0.032   6.358   3.422
 8899TIP3    H126661  -0.035   6.402   3.474
 8899TIP3    H226662   0.101   6.338   3.485
 8900TIP3   OH226663   4.455   4.547   4.818
 8900TIP3    H126664   4.523   4.485   4.793
 8900TIP3    H226665   4.398   4.498   4.877
 8901TIP3   OH226666   6.534   6.485   4.888
 8901TIP3    H126667   6.597   6.487   4.816
 8901TIP3    H226668   6.560   6.557   4.946
 8902TIP3   OH226669   5.572   3.640   5.171
 8902TIP3    H126670   5.589   3.550   5.197
 8902TIP3    H226671   5.591   3.643   5.078
 8903TIP3   OH226672   4.319   1.746   2.644
 8903TIP3    H126673   4.396   1.698   2.612
 8903TIP3    H226674   4.246   1.687   2.628
 8904TIP3   OH226675   6.362   0.094   5.302
 8904TIP3    H126676   6.456   0.100   5.282
 8904TIP3    H226677   6.323   0.057   5.223
 8905TIP3   OH226678   5.391   1.784   3.722
 8905TIP3    H126679   5.346   1.700   3.723
 8905TIP3    H226680   5.326   1.847   3.751
 8906TIP3   OH226681   4.543   3.476   1.802
 8906TIP3    H126682   4.495   3.420   1.864
 8906TIP3    H226683   4.511   3.449   1.716
 8907TIP3   OH226684   5.074   4.928   4.234
 8907TIP3    H126685   5.086   4.892   4.322
 8907TIP3    H226686   4.983   4.909   4.213
 8908TIP3   OH226687   6.503   2.530   3.861
 8908TIP3    H126688   6.444   2.505   3.790
 8908TIP3    H226689   6.445   2.565   3.929
 8909TIP3   OH226690   1.729   1.823   4.596
 8909TIP3    H126691   1.740   1.736   4.634
 8909TIP3    H226692   1.650   1.816   4.543
 8910TIP3   OH226693   0.940   2.021   2.406
 8910TIP3    H126694   0.866   2.062   2.362
 8910TIP3    H226695   0.948   2.068   2.490
 8911TIP3   OH226696   7.065   2.442   1.561
 8911TIP3    H126697   6.984   2.461   1.609
 8911TIP3    H226698   7.038   2.383   1.490
 8912TIP3   OH226699   1.522   6.396   1.358
 8912TIP3    H126700   1.558   6.417   1.444
 8912TIP3    H226701   1.449   6.337   1.375
 8913TIP3   OH226702   6.377   3.179   3.117
 8913TIP3    H126703   6.444   3.191   3.050
 8913TIP3    H226704   6.427   3.171   3.199
 8914TIP3   OH226705   1.421   4.606   3.820
 8914TIP3    H126706   1.385   4.630   3.906
 8914TIP3    H226707   1.432   4.690   3.775
 8915TIP3   OH226708   3.060   3.905   4.251
 8915TIP3    H126709   3.099   3.939   4.332
 8915TIP3    H226710   3.044   3.812   4.269
 8916TIP3   OH226711   6.955   3.035   1.719
 8916TIP3    H126712   6.901   3.018   1.795
 8916TIP3    H226713   6.913   2.987   1.648
 8917TIP3   OH226714   0.677   2.902   5.748
 8917TIP3    H126715   0.683   2.816   5.789
 8917TIP3    H226716   0.740   2.956   5.796
 8918TIP3   OH226717   0.758   5.206   2.169
 8918TIP3    H126718   0.816   5.276   2.200
 8918TIP3    H226719   0.749   5.148   2.244
 8919TIP3   OH226720   2.180   3.526   0.733
 8919TIP3    H126721   2.273   3.546   0.727
 8919TIP3    H226722   2.136   3.610   0.717
 8920TIP3   OH226723   4.993   5.231   4.228
 8920TIP3    H126724   4.909   5.194   4.254
 8920TIP3    H226725   5.059   5.180   4.275
 8921TIP3   OH226726   2.811   4.939   0.171
 8921TIP3    H126727   2.759   4.958   0.093
 8921TIP3    H226728   2.787   5.009   0.232
 8922TIP3   OH226729   6.409   5.703   4.186
 8922TIP3    H126730   6.366   5.778   4.144
 8922TIP3    H226731   6.355   5.628   4.161
 8923TIP3   OH226732   5.410   3.003   2.271
 8923TIP3    H126733   5.474   3.007   2.200
 8923TIP3    H226734   5.409   2.911   2.297
 8924TIP3   OH226735   6.819   5.148   2.814
 8924TIP3    H126736   6.888   5.215   2.821
 8924TIP3    H226737   6.788   5.155   2.724
 8925TIP3   OH226738   2.555   1.452   4.890
 8925TIP3    H126739   2.470   1.462   4.934
 8925TIP3    H226740   2.608   1.524   4.924
 8926TIP3   OH226741   4.819   0.303   1.273
 8926TIP3    H126742   4.855   0.219   1.300
 8926TIP3    H226743   4.884   0.367   1.303
 8927TIP3   OH226744   6.176   1.890   4.566
 8927TIP3    H126745   6.219   1.970   4.535
 8927TIP3    H226746   6.093   1.888   4.518
 8928TIP3   OH226747   6.838   2.030   1.334
 8928TIP3    H126748   6.776   2.062   1.400
 8928TIP3    H226749   6.827   2.089   1.260
 8929TIP3   OH226750   5.181   3.063   1.230
 8929TIP3    H126751   5.274   3.047   1.216
 8929TIP3    H226752   5.138   2.983   1.200
 8930TIP3   OH226753   0.584   0.168   5.455
 8930TIP3    H126754   0.511   0.205   5.505
 8930TIP3    H226755   0.547   0.151   5.369
 8931TIP3   OH226756   2.611   6.220   4.485
 8931TIP3    H126757   2.653   6.265   4.412
 8931TIP3    H226758   2.682   6.174   4.529
 8932TIP3   OH226759   5.794   1.492   4.925
 8932TIP3    H126760   5.829   1.562   4.870
 8932TIP3    H226761   5.749   1.538   4.996
 8933TIP3   OH226762   1.078   3.074   2.928
 8933TIP3    H126763   1.082   3.027   3.011
 8933TIP3    H226764   1.103   3.164   2.949
 8934TIP3   OH226765   3.742   3.428   0.927
 8934TIP3    H126766   3.702   3.510   0.899
 8934TIP3    H226767   3.813   3.455   0.985
 8935TIP3   OH226768   5.125   1.139   2.467
 8935TIP3    H126769   5.118   1.044   2.474
 8935TIP3    H226770   5.216   1.154   2.443
 8936TIP3   OH226771   3.515   2.818   2.572
 8936TIP3    H126772   3.433   2.770   2.565
 8936TIP3    H226773   3.488   2.909   2.589
 8937TIP3   OH226774   7.106   3.273   1.942
 8937TIP3    H126775   7.047   3.348   1.940
 8937TIP3    H226776   7.163   3.288   2.018
 8938TIP3   OH226777   3.497   4.044   4.156
 8938TIP3    H126778   3.460   3.958   4.136
 8938TIP3    H226779   3.569   4.027   4.216
 8939TIP3   OH226780   3.975   1.579   3.765
 8939TIP3    H126781   3.893   1.605   3.722
 8939TIP3    H226782   3.947   1.544   3.849
 8940TIP3   OH226783   5.818   4.194   1.924
 8940TIP3    H126784   5.730   4.204   1.888
 8940TIP3    H226785   5.875   4.229   1.855
 8941TIP3   OH226786   2.708   2.813   1.237
 8941TIP3    H126787   2.771   2.750   1.203
 8941TIP3    H226788   2.739   2.832   1.326
 8942TIP3   OH226789   2.049   0.231   0.650
 8942TIP3    H126790   2.130   0.191   0.681
 8942TIP3    H226791   1.982   0.199   0.710
 8943TIP3   OH226792   4.879   0.236   5.852
 8943TIP3    H126793   4.920   0.153   5.828
 8943TIP3    H226794   4.805   0.246   5.791
 8944TIP3   OH226795   0.723   2.271   0.235
 8944TIP3    H126796   0.727   2.296   0.328
 8944TIP3    H226797   0.812   2.282   0.203
 8945TIP3   OH226798   2.466   3.503   0.031
 8945TIP3    H126799   2.464   3.547  -0.054
 8945TIP3    H226800   2.380   3.461   0.037
 8946TIP3   OH226801   5.386   0.201   0.252
 8946TIP3    H126802   5.452   0.269   0.239
 8946TIP3    H226803   5.345   0.224   0.336
 8947TIP3   OH226804   3.994   2.194   2.300
 8947TIP3    H126805   3.967   2.212   2.391
 8947TIP3    H226806   4.079   2.152   2.308
 8948TIP3   OH226807   4.727   1.825   2.797
 8948TIP3    H126808   4.786   1.889   2.758
 8948TIP3    H226809   4.784   1.754   2.827
 8949TIP3   OH226810   0.368   6.402   1.154
 8949TIP3    H126811   0.451   6.416   1.109
 8949TIP3    H226812   0.367   6.309   1.176
 8950TIP3   OH226813   5.541   1.281   1.835
 8950TIP3    H126814   5.512   1.309   1.922
 8950TIP3    H226815   5.469   1.227   1.802
 8951TIP3   OH226816   3.138   1.293   2.019
 8951TIP3    H126817   3.189   1.212   2.022
 8951TIP3    H226818   3.047   1.264   2.032
 8952TIP3   OH226819   4.160   3.969   5.050
 8952TIP3    H126820   4.123   3.882   5.034
 8952TIP3    H226821   4.121   4.024   4.982
 8953TIP3   OH226822   1.190   1.901   3.359
 8953TIP3    H126823   1.152   1.985   3.384
 8953TIP3    H226824   1.279   1.923   3.331
 8954TIP3   OH226825   1.734   4.862   0.524
 8954TIP3    H126826   1.695   4.916   0.593
 8954TIP3    H226827   1.665   4.853   0.458
 8955TIP3   OH226828   5.708   5.328   0.143
 8955TIP3    H126829   5.740   5.398   0.199
 8955TIP3    H226830   5.660   5.373   0.073
 8956TIP3   OH226831   2.994   4.143   2.638
 8956TIP3    H126832   2.932   4.170   2.569
 8956TIP3    H226833   3.077   4.182   2.611
 8957TIP3   OH226834   2.960   5.363   1.601
 8957TIP3    H126835   2.948   5.308   1.523
 8957TIP3    H226836   2.883   5.345   1.655
 8958TIP3   OH226837   6.972   4.235   4.686
 8958TIP3    H126838   6.913   4.225   4.611
 8958TIP3    H226839   7.032   4.161   4.680
 8959TIP3   OH226840   5.226   3.653   2.269
 8959TIP3    H126841   5.202   3.665   2.361
 8959TIP3    H226842   5.144   3.631   2.225
 8960TIP3   OH226843   0.652   4.472   5.705
 8960TIP3    H126844   0.644   4.520   5.788
 8960TIP3    H226845   0.665   4.381   5.732
 8961TIP3   OH226846   0.339   1.173   2.158
 8961TIP3    H126847   0.275   1.210   2.098
 8961TIP3    H226848   0.287   1.131   2.226
 8962TIP3   OH226849   5.021   6.453   0.537
 8962TIP3    H126850   5.111   6.465   0.506
 8962TIP3    H226851   5.012   6.515   0.609
 8963TIP3   OH226852   4.732   5.378   5.783
 8963TIP3    H126853   4.692   5.412   5.863
 8963TIP3    H226854   4.713   5.285   5.785
 8964TIP3   OH226855   6.853   1.604   5.083
 8964TIP3    H126856   6.841   1.690   5.122
 8964TIP3    H226857   6.898   1.621   5.000
 8965TIP3   OH226858   7.141   4.178   2.769
 8965TIP3    H126859   7.127   4.120   2.695
 8965TIP3    H226860   7.099   4.261   2.744
 8966TIP3   OH226861   2.018   6.644   3.515
 8966TIP3    H126862   2.104   6.624   3.477
 8966TIP3    H226863   2.007   6.738   3.500
 8967TIP3   OH226864   3.358   4.795   4.893
 8967TIP3    H126865   3.349   4.837   4.807
 8967TIP3    H226866   3.268   4.788   4.925
 8968TIP3   OH226867   6.782   5.118   2.517
 8968TIP3    H126868   6.738   5.040   2.552
 8968TIP3    H226869   6.719   5.189   2.531
 8969TIP3   OH226870   0.355   5.829   2.315
 8969TIP3    H126871   0.300   5.870   2.381
 8969TIP3    H226872   0.422   5.894   2.295
 8970TIP3   OH226873   6.706   4.150   4.968
 8970TIP3    H126874   6.652   4.196   4.904
 8970TIP3    H226875   6.779   4.115   4.918
 8971TIP3   OH226876   4.714   0.494   2.506
 8971TIP3    H126877   4.681   0.414   2.547
 8971TIP3    H226878   4.740   0.550   2.579
 8972TIP3   OH226879   3.841   2.108   5.823
 8972TIP3    H126880   3.849   2.203   5.812
 8972TIP3    H226881   3.829   2.075   5.734
 8973TIP3   OH226882   4.493   0.430   1.352
 8973TIP3    H126883   4.582   0.399   1.337
 8973TIP3    H226884   4.477   0.416   1.445
 8974TIP3   OH226885   4.856   4.506   5.731
 8974TIP3    H126886   4.874   4.596   5.759
 8974TIP3    H226887   4.765   4.491   5.757
 8975TIP3   OH226888   1.630   5.214   2.660
 8975TIP3    H126889   1.622   5.197   2.566
 8975TIP3    H226890   1.724   5.207   2.678
 8976TIP3   OH226891   3.118   3.599   5.216
 8976TIP3    H126892   3.057   3.580   5.145
 8976TIP3    H226893   3.165   3.517   5.230
 8977TIP3   OH226894   6.034   0.896   5.487
 8977TIP3    H126895   6.076   0.879   5.402
 8977TIP3    H226896   5.980   0.974   5.472
 8978TIP3   OH226897   6.578   0.292   3.926
 8978TIP3    H126898   6.670   0.278   3.948
 8978TIP3    H226899   6.530   0.234   3.985
 8979TIP3   OH226900   0.844   1.169   4.685
 8979TIP3    H126901   0.866   1.240   4.747
 8979TIP3    H226902   0.751   1.180   4.669
 8980TIP3   OH226903   6.447   6.602   4.285
 8980TIP3    H126904   6.451   6.518   4.240
 8980TIP3    H226905   6.403   6.584   4.368
 8981TIP3   OH226906   4.052   4.626   2.338
 8981TIP3    H126907   4.085   4.698   2.392
 8981TIP3    H226908   4.098   4.549   2.371
 8982TIP3   OH226909   2.801   2.811   1.840
 8982TIP3    H126910   2.732   2.854   1.890
 8982TIP3    H226911   2.845   2.754   1.903
 8983TIP3   OH226912   0.491   4.994   4.812
 8983TIP3    H126913   0.403   4.958   4.819
 8983TIP3    H226914   0.521   4.967   4.725
 8984TIP3   OH226915   7.115   2.964   0.635
 8984TIP3    H126916   7.176   2.973   0.562
 8984TIP3    H226917   7.031   2.996   0.601
 8985TIP3   OH226918   6.334   5.740   1.415
 8985TIP3    H126919   6.312   5.810   1.353
 8985TIP3    H226920   6.263   5.743   1.479
 8986TIP3   OH226921   4.243   4.380   2.052
 8986TIP3    H126922   4.150   4.402   2.063
 8986TIP3    H226923   4.272   4.354   2.140
 8987TIP3   OH226924   0.959   1.151   2.016
 8987TIP3    H126925   0.982   1.104   2.096
 8987TIP3    H226926   0.874   1.113   1.991
 8988TIP3   OH226927   6.775   6.745   3.787
 8988TIP3    H126928   6.846   6.687   3.757
 8988TIP3    H226929   6.729   6.693   3.853
 8989TIP3   OH226930   0.984   1.204   1.139
 8989TIP3    H126931   0.950   1.250   1.216
 8989TIP3    H226932   0.907   1.168   1.096
 8990TIP3   OH226933   4.046   1.763   4.565
 8990TIP3    H126934   4.035   1.856   4.547
 8990TIP3    H226935   4.053   1.758   4.660
 8991TIP3   OH226936   7.070   0.447   1.442
 8991TIP3    H126937   7.165   0.438   1.429
 8991TIP3    H226938   7.032   0.381   1.384
 8992TIP3   OH226939   5.747   0.502   5.130
 8992TIP3    H126940   5.652   0.508   5.117
 8992TIP3    H226941   5.784   0.509   5.042
 8993TIP3   OH226942   6.450   1.690   3.313
 8993TIP3    H126943   6.386   1.654   3.251
 8993TIP3    H226944   6.533   1.689   3.264
 8994TIP3   OH226945   1.490   4.819   4.426
 8994TIP3    H126946   1.417   4.773   4.467
 8994TIP3    H226947   1.501   4.898   4.479
 8995TIP3   OH226948   2.374   2.061   4.882
 8995TIP3    H126949   2.331   1.985   4.842
 8995TIP3    H226950   2.408   2.111   4.807
 8996TIP3   OH226951   2.802   0.229   3.562
 8996TIP3    H126952   2.795   0.305   3.620
 8996TIP3    H226953   2.730   0.172   3.589
 8997TIP3   OH226954   1.256   1.726   4.619
 8997TIP3    H126955   1.272   1.725   4.713
 8997TIP3    H226956   1.161   1.723   4.610
 8998TIP3   OH226957   1.488   1.908   4.951
 8998TIP3    H126958   1.514   1.984   5.002
 8998TIP3    H226959   1.570   1.862   4.932
 8999TIP3   OH226960   6.327   2.752   3.904
 8999TIP3    H126961   6.256   2.768   3.842
 8999TIP3    H226962   6.376   2.834   3.905
 9000TIP3   OH226963   6.311   2.158   1.389
 9000TIP3    H126964   6.288   2.124   1.303
 9000TIP3    H226965   6.352   2.243   1.372
 9001TIP3   OH226966   6.946   3.815   4.509
 9001TIP3    H126967   7.021   3.859   4.548
 9001TIP3    H226968   6.984   3.756   4.443
 9002TIP3   OH226969   2.590   4.539   4.317
 9002TIP3    H126970   2.672   4.576   4.350
 9002TIP3    H226971   2.610   4.446   4.303
 9003TIP3   OH226972   6.486   2.124   1.712
 9003TIP3    H126973   6.480   2.035   1.746
 9003TIP3    H226974   6.561   2.162   1.757
 9004TIP3   OH226975   3.980   1.780   2.256
 9004TIP3    H126976   4.066   1.749   2.229
 9004TIP3    H226977   3.970   1.750   2.346
 9005TIP3   OH226978   1.750   3.029   3.062
 9005TIP3    H126979   1.840   3.041   3.033
 9005TIP3    H226980   1.735   2.935   3.056
 9006TIP3   OH226981   1.978   6.130   0.925
 9006TIP3    H126982   1.907   6.170   0.975
 9006TIP3    H226983   1.983   6.040   0.957
 9007TIP3   OH226984   3.228   0.707   3.279
 9007TIP3    H126985   3.204   0.719   3.371
 9007TIP3    H226986   3.215   0.613   3.263
 9008TIP3   OH226987   2.872   4.556   4.151
 9008TIP3    H126988   2.860   4.638   4.102
 9008TIP3    H226989   2.883   4.490   4.083
 9009TIP3   OH226990   2.615   1.658   2.366
 9009TIP3    H126991   2.614   1.657   2.270
 9009TIP3    H226992   2.708   1.661   2.389
 9010TIP3   OH226993   1.566   6.739   3.505
 9010TIP3    H126994   1.640   6.695   3.464
 9010TIP3    H226995   1.505   6.669   3.527
 9011TIP3   OH226996   7.083   1.041   2.554
 9011TIP3    H126997   7.069   1.129   2.520
 9011TIP3    H226998   7.072   1.050   2.649
 9012TIP3   OH226999   6.566   6.314   5.826
 9012TIP3    H127000   6.571   6.409   5.839
 9012TIP3    H227001   6.472   6.295   5.825
 9013TIP3   OH227002   5.967   6.551   0.301
 9013TIP3    H127003   5.955   6.457   0.316
 9013TIP3    H227004   5.905   6.593   0.360
 9014TIP3   OH227005   2.332   4.762   4.930
 9014TIP3    H127006   2.311   4.819   5.005
 9014TIP3    H227007   2.323   4.673   4.965
 9015TIP3   OH227008   0.081   5.219   5.658
 9015TIP3    H127009   0.127   5.271   5.724
 9015TIP3    H227010   0.032   5.284   5.606
 9016TIP3   OH227011   5.811   0.424   0.928
 9016TIP3    H127012   5.786   0.411   1.020
 9016TIP3    H227013   5.905   0.403   0.927
 9017TIP3   OH227014   6.766   1.768   4.757
 9017TIP3    H127015   6.694   1.731   4.807
 9017TIP3    H227016   6.756   1.863   4.769
 9018TIP3   OH227017   3.805   3.478   5.798
 9018TIP3    H127018   3.835   3.508   5.712
 9018TIP3    H227019   3.845   3.539   5.860
 9019TIP3   OH227020   4.252   0.470   1.531
 9019TIP3    H127021   4.279   0.557   1.563
 9019TIP3    H227022   4.316   0.410   1.568
 9020TIP3   OH227023   5.854   4.721   2.996
 9020TIP3    H127024   5.887   4.666   3.067
 9020TIP3    H227025   5.930   4.735   2.940
 9021TIP3   OH227026   6.029   1.033   1.464
 9021TIP3    H127027   6.085   1.061   1.536
 9021TIP3    H227028   5.995   1.114   1.426
 9022TIP3   OH227029   3.176   6.375   5.159
 9022TIP3    H127030   3.189   6.470   5.163
 9022TIP3    H227031   3.227   6.347   5.083
 9023TIP3   OH227032   1.061   2.913   0.006
 9023TIP3    H127033   0.985   2.939   0.059
 9023TIP3    H227034   1.023   2.866  -0.068
 9024TIP3   OH227035   0.049   4.365   5.116
 9024TIP3    H127036   0.043   4.448   5.164
 9024TIP3    H227037  -0.038   4.353   5.078
 9025TIP3   OH227038   1.670   5.103   3.950
 9025TIP3    H127039   1.610   5.166   3.910
 9025TIP3    H227040   1.740   5.092   3.885
 9026TIP3   OH227041   4.730   3.024   4.931
 9026TIP3    H127042   4.771   3.070   5.003
 9026TIP3    H227043   4.649   2.988   4.968
 9027TIP3   OH227044   1.979   2.734   4.118
 9027TIP3    H127045   1.910   2.798   4.133
 9027TIP3    H227046   1.933   2.654   4.093
 9028TIP3   OH227047   2.989   1.792   1.443
 9028TIP3    H127048   2.998   1.833   1.357
 9028TIP3    H227049   2.896   1.772   1.450
 9029TIP3   OH227050   5.693   2.452   5.237
 9029TIP3    H127051   5.732   2.535   5.264
 9029TIP3    H227052   5.748   2.421   5.166
 9030TIP3   OH227053   6.580   1.667   4.923
 9030TIP3    H127054   6.565   1.573   4.936
 9030TIP3    H227055   6.559   1.706   5.008
 9031TIP3   OH227056   4.419   0.702   1.311
 9031TIP3    H127057   4.429   0.612   1.342
 9031TIP3    H227058   4.330   0.706   1.277
 9032TIP3   OH227059   5.378   6.441   1.674
 9032TIP3    H127060   5.461   6.487   1.656
 9032TIP3    H227061   5.371   6.377   1.603
 9033TIP3   OH227062   2.860   6.345   4.019
 9033TIP3    H127063   2.875   6.364   3.926
 9033TIP3    H227064   2.896   6.421   4.065
 9034TIP3   OH227065   0.069   5.792   0.577
 9034TIP3    H127066  -0.002   5.836   0.530
 9034TIP3    H227067   0.091   5.717   0.521
 9035TIP3   OH227068   0.516   2.356   2.158
 9035TIP3    H127069   0.469   2.293   2.103
 9035TIP3    H227070   0.448   2.402   2.206
 9036TIP3   OH227071   4.160   3.244   1.156
 9036TIP3    H127072   4.092   3.280   1.100
 9036TIP3    H227073   4.217   3.195   1.097
 9037TIP3   OH227074   3.545   0.588   0.406
 9037TIP3    H127075   3.573   0.562   0.318
 9037TIP3    H227076   3.475   0.526   0.428
 9038TIP3   OH227077   5.655   4.474   0.178
 9038TIP3    H127078   5.677   4.561   0.147
 9038TIP3    H227079   5.622   4.428   0.101
 9039TIP3   OH227080   5.176   3.300   0.086
 9039TIP3    H127081   5.138   3.222   0.127
 9039TIP3    H227082   5.100   3.351   0.057
 9040TIP3   OH227083   6.926   1.116   3.959
 9040TIP3    H127084   6.889   1.176   4.023
 9040TIP3    H227085   6.989   1.169   3.909
 9041TIP3   OH227086   1.782   3.672   1.587
 9041TIP3    H127087   1.757   3.694   1.497
 9041TIP3    H227088   1.810   3.581   1.582
 9042TIP3   OH227089   5.211   1.571   5.526
 9042TIP3    H127090   5.140   1.573   5.591
 9042TIP3    H227091   5.286   1.610   5.572
 9043TIP3   OH227092   4.187   3.826   3.279
 9043TIP3    H127093   4.239   3.901   3.307
 9043TIP3    H227094   4.098   3.847   3.307
 9044TIP3   OH227095   7.108   1.811   2.200
 9044TIP3    H127096   7.033   1.849   2.154
 9044TIP3    H227097   7.079   1.802   2.291
 9045TIP3   OH227098   2.503   0.203   1.575
 9045TIP3    H127099   2.496   0.108   1.587
 9045TIP3    H227100   2.424   0.238   1.616
 9046TIP3   OH227101   7.232   0.342   4.212
 9046TIP3    H127102   7.198   0.330   4.123
 9046TIP3    H227103   7.157   0.371   4.263
 9047TIP3   OH227104   5.095   5.448  -0.006
 9047TIP3    H127105   5.100   5.498   0.075
 9047TIP3    H227106   5.003   5.456  -0.033
 9048TIP3   OH227107   2.341   4.437   3.477
 9048TIP3    H127108   2.361   4.437   3.383
 9048TIP3    H227109   2.424   4.417   3.519
 9049TIP3   OH227110   5.094   3.612   5.632
 9049TIP3    H127111   5.073   3.671   5.560
 9049TIP3    H227112   5.059   3.655   5.710
 9050TIP3   OH227113   6.870   5.907   2.061
 9050TIP3    H127114   6.915   5.917   1.977
 9050TIP3    H227115   6.938   5.923   2.126
 9051TIP3   OH227116   6.020   2.255   1.413
 9051TIP3    H127117   5.947   2.206   1.450
 9051TIP3    H227118   6.083   2.188   1.387
 9052TIP3   OH227119   2.254   0.565   2.245
 9052TIP3    H127120   2.300   0.629   2.190
 9052TIP3    H227121   2.228   0.615   2.322
 9053TIP3   OH227122   6.049   5.606   3.637
 9053TIP3    H127123   6.119   5.627   3.575
 9053TIP3    H227124   6.038   5.686   3.688
 9054TIP3   OH227125   6.201   2.479   4.907
 9054TIP3    H127126   6.216   2.427   4.986
 9054TIP3    H227127   6.134   2.431   4.858
 9055TIP3   OH227128   6.336   5.115   5.172
 9055TIP3    H127129   6.350   5.087   5.263
 9055TIP3    H227130   6.293   5.040   5.130
 9056TIP3   OH227131   1.773   0.192   4.795
 9056TIP3    H127132   1.868   0.208   4.797
 9056TIP3    H227133   1.738   0.248   4.864
 9057TIP3   OH227134   0.995   0.297   4.958
 9057TIP3    H127135   1.057   0.261   5.022
 9057TIP3    H227136   1.025   0.264   4.874
 9058TIP3   OH227137   0.321   6.641   1.736
 9058TIP3    H127138   0.310   6.551   1.767
 9058TIP3    H227139   0.403   6.639   1.686
 9059TIP3   OH227140   3.233   1.242   0.831
 9059TIP3    H127141   3.138   1.232   0.837
 9059TIP3    H227142   3.255   1.298   0.906
 9060TIP3   OH227143   6.899   1.243   1.647
 9060TIP3    H127144   6.897   1.149   1.665
 9060TIP3    H227145   6.827   1.257   1.586
 9061TIP3   OH227146   1.856   4.680   0.691
 9061TIP3    H127147   1.819   4.728   0.616
 9061TIP3    H227148   1.794   4.695   0.762
 9062TIP3   OH227149   6.659   3.454   1.707
 9062TIP3    H127150   6.744   3.498   1.701
 9062TIP3    H227151   6.598   3.523   1.731
 9063TIP3   OH227152   6.749   1.271   2.764
 9063TIP3    H127153   6.752   1.207   2.693
 9063TIP3    H227154   6.841   1.285   2.788
 9064TIP3   OH227155   4.519   4.786   2.085
 9064TIP3    H127156   4.571   4.722   2.038
 9064TIP3    H227157   4.433   4.783   2.043
 9065TIP3   OH227158   2.281   1.773   0.515
 9065TIP3    H127159   2.211   1.729   0.563
 9065TIP3    H227160   2.237   1.842   0.467
 9066TIP3   OH227161   0.549   6.400   0.946
 9066TIP3    H127162   0.591   6.376   0.863
 9066TIP3    H227163   0.499   6.478   0.925
 9067TIP3   OH227164   4.998   0.487   5.031
 9067TIP3    H127165   5.059   0.417   5.056
 9067TIP3    H227166   5.007   0.553   5.099
 9068TIP3   OH227167   4.008   0.440   2.350
 9068TIP3    H127168   4.050   0.410   2.430
 9068TIP3    H227169   4.075   0.428   2.282
 9069TIP3   OH227170   6.580   0.710   3.070
 9069TIP3    H127171   6.568   0.680   2.980
 9069TIP3    H227172   6.499   0.758   3.091
 9070TIP3   OH227173   4.271   3.079   5.203
 9070TIP3    H127174   4.202   3.112   5.260
 9070TIP3    H227175   4.351   3.122   5.234
 9071TIP3   OH227176   4.655   0.306   5.656
 9071TIP3    H127177   4.583   0.285   5.597
 9071TIP3    H227178   4.627   0.386   5.701
 9072TIP3   OH227179   1.130   1.694   5.437
 9072TIP3    H127180   1.192   1.622   5.429
 9072TIP3    H227181   1.167   1.750   5.505
 9073TIP3   OH227182   4.486   0.965   1.242
 9073TIP3    H127183   4.482   0.869   1.235
 9073TIP3    H227184   4.405   0.988   1.288
 9074TIP3   OH227185   3.593   2.873   5.357
 9074TIP3    H127186   3.652   2.921   5.299
 9074TIP3    H227187   3.577   2.790   5.312
 9075TIP3   OH227188   4.876   3.733   2.866
 9075TIP3    H127189   4.909   3.769   2.784
 9075TIP3    H227190   4.784   3.761   2.870
 9076TIP3   OH227191   2.179   4.721   3.938
 9076TIP3    H127192   2.154   4.796   3.992
 9076TIP3    H227193   2.098   4.670   3.929
 9077TIP3   OH227194   6.988   0.011   3.337
 9077TIP3    H127195   7.031  -0.042   3.405
 9077TIP3    H227196   6.936   0.075   3.385
 9078TIP3   OH227197   3.519   0.548   2.460
 9078TIP3    H127198   3.562   0.510   2.383
 9078TIP3    H227199   3.589   0.553   2.526
 9079TIP3   OH227200   5.973   6.796   5.807
 9079TIP3    H127201   5.970   6.750   5.724
 9079TIP3    H227202   5.962   6.728   5.873
 9080TIP3   OH227203   3.793   0.584   4.471
 9080TIP3    H127204   3.802   0.653   4.537
 9080TIP3    H227205   3.747   0.626   4.399
 9081TIP3   OH227206   1.659   2.067   1.152
 9081TIP3    H127207   1.669   1.974   1.173
 9081TIP3    H227208   1.745   2.093   1.118
 9082TIP3   OH227209   0.302   3.303   4.677
 9082TIP3    H127210   0.330   3.212   4.676
 9082TIP3    H227211   0.361   3.346   4.739
 9083TIP3   OH227212   3.307   3.107   4.491
 9083TIP3    H127213   3.262   3.030   4.456
 9083TIP3    H227214   3.399   3.091   4.471
 9084TIP3   OH227215   1.589   1.408   1.115
 9084TIP3    H127216   1.524   1.478   1.114
 9084TIP3    H227217   1.668   1.447   1.076
 9085TIP3   OH227218   3.952   2.425   3.190
 9085TIP3    H127219   3.946   2.382   3.104
 9085TIP3    H227220   3.873   2.397   3.236
 9086TIP3   OH227221   1.725   5.235   0.968
 9086TIP3    H127222   1.716   5.171   0.897
 9086TIP3    H227223   1.817   5.261   0.965
 9087TIP3   OH227224   6.000   4.914   0.627
 9087TIP3    H127225   5.961   4.953   0.549
 9087TIP3    H227226   6.028   4.827   0.599
 9088TIP3   OH227227   2.685   1.953   4.436
 9088TIP3    H127228   2.605   1.948   4.383
 9088TIP3    H227229   2.756   1.946   4.372
 9089TIP3   OH227230   1.257   1.836   5.620
 9089TIP3    H127231   1.332   1.816   5.676
 9089TIP3    H227232   1.216   1.912   5.660
 9090TIP3   OH227233   1.672   6.696   2.876
 9090TIP3    H127234   1.682   6.602   2.858
 9090TIP3    H227235   1.718   6.708   2.959
 9091TIP3   OH227236   0.657   4.993   1.191
 9091TIP3    H127237   0.614   4.961   1.112
 9091TIP3    H227238   0.694   4.915   1.231
 9092TIP3   OH227239   4.059   6.250   2.448
 9092TIP3    H127240   4.039   6.287   2.362
 9092TIP3    H227241   3.998   6.176   2.457
 9093TIP3   OH227242   0.596   2.387   0.822
 9093TIP3    H127243   0.600   2.481   0.804
 9093TIP3    H227244   0.536   2.352   0.756
 9094TIP3   OH227245   2.771   5.835   0.274
 9094TIP3    H127246   2.682   5.867   0.264
 9094TIP3    H227247   2.764   5.765   0.340
 9095TIP3   OH227248   0.073   5.654   2.812
 9095TIP3    H127249  -0.014   5.618   2.796
 9095TIP3    H227250   0.059   5.730   2.867
 9096TIP3   OH227251   3.900   5.095   5.557
 9096TIP3    H127252   3.904   5.025   5.622
 9096TIP3    H227253   3.890   5.175   5.608
 9097TIP3   OH227254   6.363   1.576   4.147
 9097TIP3    H127255   6.454   1.604   4.139
 9097TIP3    H227256   6.333   1.566   4.056
 9098TIP3   OH227257   4.422   0.805   3.812
 9098TIP3    H127258   4.416   0.746   3.887
 9098TIP3    H227259   4.467   0.752   3.745
 9099TIP3   OH227260   4.659   0.051   3.881
 9099TIP3    H127261   4.679   0.040   3.788
 9099TIP3    H227262   4.566   0.029   3.888
 9100TIP3   OH227263   3.277   5.561   4.961
 9100TIP3    H127264   3.231   5.633   4.919
 9100TIP3    H227265   3.273   5.489   4.898
 9101TIP3   OH227266   0.434   0.897   4.233
 9101TIP3    H127267   0.365   0.831   4.227
 9101TIP3    H227268   0.389   0.980   4.214
 9102TIP3   OH227269   2.196   5.558   4.085
 9102TIP3    H127270   2.216   5.500   4.159
 9102TIP3    H227271   2.182   5.644   4.125
 9103TIP3   OH227272   3.224   2.767   4.519
 9103TIP3    H127273   3.171   2.711   4.462
 9103TIP3    H227274   3.160   2.823   4.563
 9104TIP3   OH227275   7.205   4.320   0.667
 9104TIP3    H127276   7.137   4.332   0.733
 9104TIP3    H227277   7.279   4.282   0.714
 9105TIP3   OH227278   4.901   3.841   4.648
 9105TIP3    H127279   4.865   3.928   4.629
 9105TIP3    H227280   4.912   3.840   4.743
 9106TIP3   OH227281   0.871   3.511   3.833
 9106TIP3    H127282   0.821   3.480   3.908
 9106TIP3    H227283   0.887   3.603   3.850
 9107TIP3   OH227284   4.517   3.248   3.508
 9107TIP3    H127285   4.433   3.274   3.469
 9107TIP3    H227286   4.534   3.314   3.574
 9108TIP3   OH227287   6.249   1.681   3.512
 9108TIP3    H127288   6.343   1.665   3.504
 9108TIP3    H227289   6.239   1.724   3.597
 9109TIP3   OH227290   3.855   3.418   5.480
 9109TIP3    H127291   3.788   3.374   5.532
 9109TIP3    H227292   3.805   3.468   5.415
 9110TIP3   OH227293   3.612   1.907   1.788
 9110TIP3    H127294   3.654   1.975   1.735
 9110TIP3    H227295   3.569   1.850   1.724
 9111TIP3   OH227296   5.534   2.470   3.919
 9111TIP3    H127297   5.590   2.393   3.924
 9111TIP3    H227298   5.569   2.530   3.986
 9112TIP3   OH227299   2.415   3.763   4.233
 9112TIP3    H127300   2.455   3.825   4.172
 9112TIP3    H227301   2.488   3.730   4.286
 9113TIP3   OH227302   3.784   6.220   4.215
 9113TIP3    H127303   3.803   6.177   4.132
 9113TIP3    H227304   3.799   6.151   4.281
 9114TIP3   OH227305   3.396   5.257   0.052
 9114TIP3    H127306   3.471   5.200   0.070
 9114TIP3    H227307   3.356   5.218  -0.026
 9115TIP3   OH227308   2.112   2.211   5.640
 9115TIP3    H127309   2.137   2.294   5.681
 9115TIP3    H227310   2.140   2.144   5.703
 9116TIP3   OH227311   0.273   3.743   4.576
 9116TIP3    H127312   0.340   3.807   4.551
 9116TIP3    H227313   0.262   3.757   4.670
 9117TIP3   OH227314   5.069   5.132   1.953
 9117TIP3    H127315   5.084   5.212   2.005
 9117TIP3    H227316   5.057   5.064   2.019
 9118TIP3   OH227317   5.680   1.573   4.233
 9118TIP3    H127318   5.736   1.559   4.309
 9118TIP3    H227319   5.591   1.552   4.264
 9119TIP3   OH227320   0.135   3.070   0.202
 9119TIP3    H127321   0.105   3.151   0.245
 9119TIP3    H227322   0.147   3.095   0.111
 9120TIP3   OH227323   3.947   4.221   3.976
 9120TIP3    H127324   3.862   4.230   4.019
 9120TIP3    H227325   4.011   4.229   4.046
 9121TIP3   OH227326   3.707   3.122   2.688
 9121TIP3    H127327   3.728   3.080   2.604
 9121TIP3    H227328   3.640   3.065   2.726
 9122TIP3   OH227329   7.053   5.079   1.797
 9122TIP3    H127330   7.142   5.106   1.773
 9122TIP3    H227331   7.044   4.991   1.761
 9123TIP3   OH227332   4.402   3.185   0.511
 9123TIP3    H127333   4.386   3.148   0.598
 9123TIP3    H227334   4.316   3.185   0.468
 9124TIP3   OH227335   6.716   1.055   4.596
 9124TIP3    H127336   6.787   1.076   4.657
 9124TIP3    H227337   6.696   1.139   4.554
 9125TIP3   OH227338   0.253   6.170   0.168
 9125TIP3    H127339   0.313   6.198   0.237
 9125TIP3    H227340   0.177   6.135   0.215
 9126TIP3   OH227341   0.875   4.079   2.678
 9126TIP3    H127342   0.933   4.051   2.748
 9126TIP3    H227343   0.886   4.174   2.673
 9127TIP3   OH227344   5.360   5.945   1.814
 9127TIP3    H127345   5.352   6.027   1.766
 9127TIP3    H227346   5.429   5.896   1.768
 9128TIP3   OH227347   3.350   1.711   1.278
 9128TIP3    H127348   3.432   1.741   1.238
 9128TIP3    H227349   3.283   1.728   1.212
 9129TIP3   OH227350   5.936   1.309   1.711
 9129TIP3    H127351   5.884   1.373   1.758
 9129TIP3    H227352   6.010   1.360   1.675
 9130TIP3   OH227353   5.023   6.231   4.750
 9130TIP3    H127354   4.968   6.306   4.730
 9130TIP3    H227355   5.106   6.249   4.706
 9131TIP3   OH227356   0.121   6.497   1.084
 9131TIP3    H127357   0.179   6.453   1.146
 9131TIP3    H227358   0.172   6.503   1.003
 9132TIP3   OH227359   5.522   5.666   3.898
 9132TIP3    H127360   5.554   5.698   3.982
 9132TIP3    H227361   5.432   5.699   3.893
 9133TIP3   OH227362   4.371   4.264   0.275
 9133TIP3    H127363   4.412   4.340   0.316
 9133TIP3    H227364   4.317   4.227   0.345
 9134TIP3   OH227365   5.609   5.054   5.085
 9134TIP3    H127366   5.566   5.011   5.159
 9134TIP3    H227367   5.698   5.020   5.086
 9135TIP3   OH227368   0.725   5.644   0.417
 9135TIP3    H127369   0.687   5.718   0.465
 9135TIP3    H227370   0.760   5.587   0.486
 9136TIP3   OH227371   4.018   6.347   3.840
 9136TIP3    H127372   4.017   6.266   3.788
 9136TIP3    H227373   3.930   6.352   3.877
 9137TIP3   OH227374   0.116   2.888   2.097
 9137TIP3    H127375   0.157   2.952   2.038
 9137TIP3    H227376   0.167   2.894   2.177
 9138TIP3   OH227377   7.230   2.610   2.325
 9138TIP3    H127378   7.137   2.597   2.343
 9138TIP3    H227379   7.262   2.662   2.399
 9139TIP3   OH227380   5.288   5.909   0.816
 9139TIP3    H127381   5.262   5.856   0.741
 9139TIP3    H227382   5.326   5.847   0.878
 9140TIP3   OH227383   1.558   3.512   1.358
 9140TIP3    H127384   1.520   3.550   1.280
 9140TIP3    H227385   1.613   3.581   1.395
 9141TIP3   OH227386   1.258   2.760   3.958
 9141TIP3    H127387   1.277   2.833   4.016
 9141TIP3    H227388   1.230   2.689   4.017
 9142TIP3   OH227389   5.978   6.093   5.758
 9142TIP3    H127390   5.945   6.114   5.670
 9142TIP3    H227391   5.901   6.098   5.814
 9143TIP3   OH227392   1.971   2.461   1.556
 9143TIP3    H127393   2.013   2.483   1.473
 9143TIP3    H227394   1.878   2.477   1.540
 9144TIP3   OH227395   5.280   6.220   4.670
 9144TIP3    H127396   5.351   6.198   4.731
 9144TIP3    H227397   5.290   6.157   4.598
 9145TIP3   OH227398   4.617   2.874   5.287
 9145TIP3    H127399   4.570   2.884   5.204
 9145TIP3    H227400   4.620   2.963   5.323
 9146TIP3   OH227401   1.632   1.588   0.773
 9146TIP3    H127402   1.577   1.626   0.841
 9146TIP3    H227403   1.706   1.549   0.820
 9147TIP3   OH227404   0.984   4.710   0.363
 9147TIP3    H127405   1.074   4.695   0.393
 9147TIP3    H227406   0.993   4.729   0.270
 9148TIP3   OH227407   0.638   3.489   2.624
 9148TIP3    H127408   0.631   3.400   2.590
 9148TIP3    H227409   0.702   3.531   2.566
 9149TIP3   OH227410   6.943   0.660   0.996
 9149TIP3    H127411   6.952   0.675   1.090
 9149TIP3    H227412   6.986   0.575   0.982
 9150TIP3   OH227413   1.094   4.986   0.899
 9150TIP3    H127414   1.153   4.951   0.832
 9150TIP3    H227415   1.152   5.019   0.967
 9151TIP3   OH227416   6.665   5.386   4.372
 9151TIP3    H127417   6.572   5.388   4.394
 9151TIP3    H227418   6.669   5.418   4.281
 9152TIP3   OH227419   5.997   4.845   3.283
 9152TIP3    H127420   5.924   4.882   3.233
 9152TIP3    H227421   6.075   4.879   3.241
 9153TIP3   OH227422   5.493   4.914   0.191
 9153TIP3    H127423   5.570   4.969   0.207
 9153TIP3    H227424   5.529   4.832   0.158
 9154TIP3   OH227425   6.806   5.341   5.554
 9154TIP3    H127426   6.726   5.336   5.502
 9154TIP3    H227427   6.862   5.404   5.508
 9155TIP3   OH227428   6.998   2.532   1.948
 9155TIP3    H127429   7.084   2.568   1.968
 9155TIP3    H227430   7.016   2.447   1.908
 9156TIP3   OH227431   3.447   6.727   2.677
 9156TIP3    H127432   3.538   6.711   2.702
 9156TIP3    H227433   3.433   6.820   2.693
 9157TIP3   OH227434   5.098   3.610   1.702
 9157TIP3    H127435   5.111   3.544   1.634
 9157TIP3    H227436   5.003   3.613   1.714
 9158TIP3   OH227437   6.122   5.800   2.606
 9158TIP3    H127438   6.140   5.705   2.607
 9158TIP3    H227439   6.175   5.833   2.533
 9159TIP3   OH227440   4.132   5.093   5.169
 9159TIP3    H127441   4.145   5.085   5.263
 9159TIP3    H227442   4.038   5.110   5.159
 9160TIP3   OH227443   6.409   1.783   3.039
 9160TIP3    H127444   6.343   1.852   3.040
 9160TIP3    H227445   6.474   1.813   2.976
 9161TIP3   OH227446   7.143   4.977   3.179
 9161TIP3    H127447   7.051   4.974   3.151
 9161TIP3    H227448   7.176   5.058   3.142
 9162TIP3   OH227449   1.856   0.380   3.124
 9162TIP3    H127450   1.800   0.439   3.175
 9162TIP3    H227451   1.942   0.421   3.127
 9163TIP3   OH227452   1.289   0.146   4.283
 9163TIP3    H127453   1.318   0.191   4.362
 9163TIP3    H227454   1.346   0.068   4.278
 9164TIP3   OH227455   6.242   6.456   2.731
 9164TIP3    H127456   6.208   6.378   2.774
 9164TIP3    H227457   6.270   6.513   2.803
 9165TIP3   OH227458   6.510   5.752   2.237
 9165TIP3    H127459   6.563   5.753   2.158
 9165TIP3    H227460   6.482   5.661   2.247
 9166TIP3   OH227461   2.824   0.144   5.543
 9166TIP3    H127462   2.888   0.180   5.481
 9166TIP3    H227463   2.849   0.181   5.628
 9167TIP3   OH227464   5.869   5.882   3.216
 9167TIP3    H127465   5.925   5.833   3.276
 9167TIP3    H227466   5.844   5.960   3.265
 9168TIP3   OH227467   4.206   4.928   4.936
 9168TIP3    H127468   4.252   4.850   4.967
 9168TIP3    H227469   4.187   4.977   5.016
 9169TIP3   OH227470   2.013   4.646   2.156
 9169TIP3    H127471   1.995   4.733   2.122
 9169TIP3    H227472   2.105   4.650   2.184
 9170TIP3   OH227473   2.530   1.928   0.380
 9170TIP3    H127474   2.561   2.018   0.390
 9170TIP3    H227475   2.465   1.917   0.449
 9171TIP3   OH227476   6.173   5.000   1.963
 9171TIP3    H127477   6.109   5.018   1.894
 9171TIP3    H227478   6.131   4.931   2.016
 9172TIP3   OH227479   2.469   1.745   5.708
 9172TIP3    H127480   2.461   1.651   5.691
 9172TIP3    H227481   2.476   1.752   5.803
 9173TIP3   OH227482  -0.004   1.950   2.643
 9173TIP3    H127483  -0.037   1.871   2.687
 9173TIP3    H227484   0.049   1.916   2.571
 9174TIP3   OH227485   0.199   6.606   3.496
 9174TIP3    H127486   0.207   6.528   3.551
 9174TIP3    H227487   0.288   6.625   3.467
 9175TIP3   OH227488   1.039   3.966   2.511
 9175TIP3    H127489   0.962   4.010   2.547
 9175TIP3    H227490   1.017   3.873   2.515
 9176TIP3   OH227491   1.987   1.587   0.741
 9176TIP3    H127492   1.999   1.504   0.697
 9176TIP3    H227493   2.070   1.604   0.784
 9177TIP3   OH227494   5.295   0.097   2.572
 9177TIP3    H127495   5.383   0.131   2.591
 9177TIP3    H227496   5.283   0.111   2.478
 9178TIP3   OH227497   4.568   1.287   5.188
 9178TIP3    H127498   4.531   1.252   5.108
 9178TIP3    H227499   4.613   1.213   5.229
 9179TIP3   OH227500   1.914   2.183   1.379
 9179TIP3    H127501   1.956   2.248   1.323
 9179TIP3    H227502   1.830   2.221   1.403
 9180TIP3   OH227503   2.861   5.190   5.570
 9180TIP3    H127504   2.819   5.145   5.497
 9180TIP3    H227505   2.789   5.231   5.618
 9181TIP3   OH227506   4.650   6.574   2.496
 9181TIP3    H127507   4.664   6.515   2.570
 9181TIP3    H227508   4.719   6.552   2.434
 9182TIP3   OH227509   5.331   3.751   0.990
 9182TIP3    H127510   5.251   3.703   1.014
 9182TIP3    H227511   5.351   3.721   0.902
 9183TIP3   OH227512   2.862   4.282   3.207
 9183TIP3    H127513   2.777   4.301   3.247
 9183TIP3    H227514   2.849   4.197   3.164
 9184TIP3   OH227515   6.567   1.100   3.767
 9184TIP3    H127516   6.592   1.096   3.860
 9184TIP3    H227517   6.620   1.033   3.725
 9185TIP3   OH227518   7.183   4.250   4.839
 9185TIP3    H127519   7.148   4.198   4.912
 9185TIP3    H227520   7.113   4.252   4.775
 9186TIP3   OH227521   4.726   2.657   4.084
 9186TIP3    H127522   4.744   2.750   4.068
 9186TIP3    H227523   4.750   2.643   4.175
 9187TIP3   OH227524   4.069   0.578   3.516
 9187TIP3    H127525   4.141   0.572   3.579
 9187TIP3    H227526   4.051   0.487   3.492
 9188TIP3   OH227527   4.007   3.605   3.113
 9188TIP3    H127528   3.914   3.625   3.108
 9188TIP3    H227529   4.051   3.683   3.079
 9189TIP3   OH227530   0.476   4.074   0.137
 9189TIP3    H127531   0.544   4.138   0.158
 9189TIP3    H227532   0.440   4.105   0.054
 9190TIP3   OH227533   6.468   6.217   4.307
 9190TIP3    H127534   6.449   6.284   4.240
 9190TIP3    H227535   6.411   6.240   4.380
 9191TIP3   OH227536   3.844   5.551   2.084
 9191TIP3    H127537   3.882   5.534   2.171
 9191TIP3    H227538   3.791   5.474   2.066
 9192TIP3   OH227539   2.854   6.474   0.013
 9192TIP3    H127540   2.776   6.516  -0.022
 9192TIP3    H227541   2.903   6.545   0.055
 9193TIP3   OH227542   0.731   0.551   5.639
 9193TIP3    H127543   0.804   0.566   5.579
 9193TIP3    H227544   0.736   0.458   5.661
 9194TIP3   OH227545   1.073   5.754   5.413
 9194TIP3    H127546   1.065   5.838   5.367
 9194TIP3    H227547   1.124   5.775   5.491
 9195TIP3   OH227548   3.353   4.492   0.151
 9195TIP3    H127549   3.258   4.490   0.159
 9195TIP3    H227550   3.371   4.467   0.061
 9196TIP3   OH227551   2.769   0.140   3.901
 9196TIP3    H127552   2.700   0.164   3.840
 9196TIP3    H227553   2.800   0.055   3.870
 9197TIP3   OH227554   5.655   6.392   3.007
 9197TIP3    H127555   5.603   6.319   3.040
 9197TIP3    H227556   5.598   6.434   2.942
 9198TIP3   OH227557   6.260   3.277   5.575
 9198TIP3    H127558   6.268   3.335   5.500
 9198TIP3    H227559   6.190   3.216   5.552
 9199TIP3   OH227560   0.481   1.297   3.833
 9199TIP3    H127561   0.398   1.254   3.812
 9199TIP3    H227562   0.456   1.378   3.876
 9200TIP3   OH227563   6.080   3.525   0.252
 9200TIP3    H127564   6.085   3.472   0.172
 9200TIP3    H227565   6.049   3.610   0.222
 9201TIP3   OH227566   4.589   4.514   2.498
 9201TIP3    H127567   4.516   4.563   2.460
 9201TIP3    H227568   4.652   4.505   2.426
 9202TIP3   OH227569   0.941   5.248   5.695
 9202TIP3    H127570   0.850   5.217   5.693
 9202TIP3    H227571   0.933   5.343   5.703
 9203TIP3   OH227572   4.655   1.185   5.811
 9203TIP3    H127573   4.727   1.247   5.800
 9203TIP3    H227574   4.577   1.240   5.813
 9204TIP3   OH227575   0.027   6.040   0.715
 9204TIP3    H127576   0.036   5.945   0.703
 9204TIP3    H227577  -0.046   6.064   0.658
 9205TIP3   OH227578   0.387   6.638   4.065
 9205TIP3    H127579   0.293   6.623   4.050
 9205TIP3    H227580   0.390   6.689   4.146
 9206TIP3   OH227581   1.964   2.923   0.801
 9206TIP3    H127582   1.959   2.971   0.718
 9206TIP3    H227583   2.030   2.855   0.785
 9207TIP3   OH227584   3.449   0.122   0.181
 9207TIP3    H127585   3.484   0.042   0.142
 9207TIP3    H227586   3.421   0.096   0.269
 9208TIP3   OH227587   2.297   3.021   2.637
 9208TIP3    H127588   2.212   2.986   2.613
 9208TIP3    H227589   2.283   3.063   2.722
 9209TIP3   OH227590   0.937   3.488   4.760
 9209TIP3    H127591   0.874   3.416   4.751
 9209TIP3    H227592   0.935   3.511   4.853
 9210TIP3   OH227593   6.965   4.573   3.708
 9210TIP3    H127594   7.048   4.594   3.666
 9210TIP3    H227595   6.987   4.508   3.775
 9211TIP3   OH227596   2.881   3.016   1.362
 9211TIP3    H127597   2.826   3.041   1.288
 9211TIP3    H227598   2.957   3.075   1.357
 9212TIP3   OH227599   4.195   1.027   1.214
 9212TIP3    H127600   4.173   1.117   1.240
 9212TIP3    H227601   4.130   0.973   1.259
 9213TIP3   OH227602   3.997   0.807   3.690
 9213TIP3    H127603   3.906   0.819   3.717
 9213TIP3    H227604   3.990   0.775   3.599
 9214TIP3   OH227605   6.115   6.317   3.243
 9214TIP3    H127606   6.132   6.329   3.336
 9214TIP3    H227607   6.083   6.401   3.212
 9215TIP3   OH227608   6.789   0.760   1.844
 9215TIP3    H127609   6.885   0.753   1.849
 9215TIP3    H227610   6.773   0.854   1.835
 9216TIP3   OH227611   0.075   6.281   4.135
 9216TIP3    H127612   0.156   6.308   4.179
 9216TIP3    H227613   0.092   6.191   4.108
 9217TIP3   OH227614   4.951   5.981   5.623
 9217TIP3    H127615   5.021   5.996   5.686
 9217TIP3    H227616   4.970   5.894   5.587
 9218TIP3   OH227617   3.340   5.574   3.966
 9218TIP3    H127618   3.354   5.634   3.893
 9218TIP3    H227619   3.376   5.491   3.937
 9219TIP3   OH227620   1.910   1.210   0.989
 9219TIP3    H127621   1.954   1.289   1.020
 9219TIP3    H227622   1.944   1.197   0.900
 9220TIP3   OH227623   0.124   2.190   2.724
 9220TIP3    H127624   0.108   2.241   2.644
 9220TIP3    H227625   0.084   2.105   2.707
 9221TIP3   OH227626   3.267   4.033   3.852
 9221TIP3    H127627   3.290   4.109   3.798
 9221TIP3    H227628   3.173   4.021   3.838
 9222TIP3   OH227629   5.168   2.666   3.690
 9222TIP3    H127630   5.138   2.706   3.771
 9222TIP3    H227631   5.263   2.657   3.702
 9223TIP3   OH227632   2.744   1.199   3.847
 9223TIP3    H127633   2.704   1.197   3.760
 9223TIP3    H227634   2.673   1.171   3.906
 9224TIP3   OH227635   7.076   0.040   3.664
 9224TIP3    H127636   7.097   0.133   3.656
 9224TIP3    H227637   6.998   0.038   3.720
 9225TIP3   OH227638   1.332   0.741   1.143
 9225TIP3    H127639   1.247   0.764   1.181
 9225TIP3    H227640   1.343   0.648   1.163
 9226TIP3   OH227641   4.921   4.513   1.231
 9226TIP3    H127642   4.842   4.564   1.213
 9226TIP3    H227643   4.906   4.429   1.189
 9227TIP3   OH227644   3.955   2.011   1.801
 9227TIP3    H127645   3.944   1.917   1.812
 9227TIP3    H227646   3.979   2.044   1.888
 9228TIP3   OH227647   6.112   1.390   5.389
 9228TIP3    H127648   6.181   1.450   5.419
 9228TIP3    H227649   6.038   1.408   5.447
 9229TIP3   OH227650   0.293   0.765   4.673
 9229TIP3    H127651   0.369   0.793   4.620
 9229TIP3    H227652   0.217   0.793   4.622
 9230TIP3   OH227653   1.764   0.696   4.063
 9230TIP3    H127654   1.846   0.682   4.016
 9230TIP3    H227655   1.753   0.617   4.116
 9231TIP3   OH227656   5.327   4.375   0.797
 9231TIP3    H127657   5.234   4.376   0.774
 9231TIP3    H227658   5.329   4.400   0.890
 9232TIP3   OH227659   3.792   6.454   4.766
 9232TIP3    H127660   3.813   6.477   4.856
 9232TIP3    H227661   3.698   6.466   4.759
 9233TIP3   OH227662   3.255   4.442   3.074
 9233TIP3    H127663   3.262   4.457   3.168
 9233TIP3    H227664   3.203   4.362   3.066
 9234TIP3   OH227665   0.666   6.763   1.346
 9234TIP3    H127666   0.579   6.739   1.314
 9234TIP3    H227667   0.716   6.785   1.268
 9235TIP3   OH227668   5.001   4.192   1.351
 9235TIP3    H127669   4.932   4.224   1.409
 9235TIP3    H227670   5.072   4.167   1.410
 9236TIP3   OH227671   6.166   2.283   0.231
 9236TIP3    H127672   6.087   2.275   0.178
 9236TIP3    H227673   6.189   2.375   0.228
 9237TIP3   OH227674   2.402   1.253   5.461
 9237TIP3    H127675   2.441   1.174   5.499
 9237TIP3    H227676   2.308   1.235   5.462
 9238TIP3   OH227677   2.607   4.971   5.201
 9238TIP3    H127678   2.680   4.910   5.201
 9238TIP3    H227679   2.644   5.054   5.170
 9239TIP3   OH227680   3.784   3.116   2.420
 9239TIP3    H127681   3.763   3.207   2.440
 9239TIP3    H227682   3.754   3.103   2.330
 9240TIP3   OH227683   7.125   5.377   2.315
 9240TIP3    H127684   7.214   5.366   2.281
 9240TIP3    H227685   7.105   5.469   2.298
 9241TIP3   OH227686   0.877   1.092   3.688
 9241TIP3    H127687   0.931   1.080   3.766
 9241TIP3    H227688   0.919   1.037   3.621
 9242TIP3   OH227689   4.435   5.099   3.370
 9242TIP3    H127690   4.434   5.028   3.435
 9242TIP3    H227691   4.528   5.117   3.355
 9243TIP3   OH227692   5.266   5.023   3.337
 9243TIP3    H127693   5.209   4.954   3.371
 9243TIP3    H227694   5.353   4.983   3.334
 9244TIP3   OH227695   1.861   3.353   5.303
 9244TIP3    H127696   1.886   3.261   5.292
 9244TIP3    H227697   1.931   3.390   5.357
 9245TIP3   OH227698   4.436   2.393   2.934
 9245TIP3    H127699   4.470   2.304   2.942
 9245TIP3    H227700   4.421   2.421   3.024
 9246TIP3   OH227701   3.737   1.127   5.673
 9246TIP3    H127702   3.784   1.068   5.731
 9246TIP3    H227703   3.675   1.172   5.730
 9247TIP3   OH227704   5.399   2.561   1.679
 9247TIP3    H127705   5.415   2.492   1.616
 9247TIP3    H227706   5.370   2.515   1.758
 9248TIP3   OH227707   5.689   3.061   5.444
 9248TIP3    H127708   5.627   3.085   5.513
 9248TIP3    H227709   5.636   3.058   5.365
 9249TIP3   OH227710   2.602   1.955   5.332
 9249TIP3    H127711   2.674   2.013   5.357
 9249TIP3    H227712   2.563   1.998   5.255
 9250TIP3   OH227713   5.382   5.039   4.188
 9250TIP3    H127714   5.304   5.092   4.172
 9250TIP3    H227715   5.374   5.011   4.279
 9251TIP3   OH227716   1.326   0.742   2.129
 9251TIP3    H127717   1.294   0.830   2.106
 9251TIP3    H227718   1.295   0.729   2.219
 9252TIP3   OH227719   2.858   3.715   3.839
 9252TIP3    H127720   2.825   3.722   3.928
 9252TIP3    H227721   2.786   3.749   3.785
 9253TIP3   OH227722   1.581   2.155   3.421
 9253TIP3    H127723   1.576   2.108   3.504
 9253TIP3    H227724   1.619   2.092   3.360
 9254TIP3   OH227725   3.834   0.273   5.872
 9254TIP3    H127726   3.786   0.211   5.817
 9254TIP3    H227727   3.766   0.318   5.922
 9255TIP3   OH227728   6.560   1.292   4.590
 9255TIP3    H127729   6.577   1.382   4.560
 9255TIP3    H227730   6.485   1.301   4.649
 9256TIP3   OH227731   3.957   1.063   2.520
 9256TIP3    H127732   4.016   1.128   2.557
 9256TIP3    H227733   3.958   0.990   2.582
 9257TIP3   OH227734   4.480   4.940   4.490
 9257TIP3    H127735   4.451   4.975   4.406
 9257TIP3    H227736   4.478   5.016   4.549
 9258TIP3   OH227737   4.712   3.535   1.472
 9258TIP3    H127738   4.736   3.619   1.510
 9258TIP3    H227739   4.621   3.521   1.499
 9259TIP3   OH227740   3.735   0.366   2.274
 9259TIP3    H127741   3.720   0.277   2.304
 9259TIP3    H227742   3.829   0.380   2.288
 9260TIP3   OH227743   4.881   1.893   2.360
 9260TIP3    H127744   4.971   1.912   2.332
 9260TIP3    H227745   4.889   1.815   2.416
 9261TIP3   OH227746   5.819   5.230   4.667
 9261TIP3    H127747   5.834   5.185   4.584
 9261TIP3    H227748   5.737   5.193   4.700
 9262TIP3   OH227749   2.391   5.258   5.534
 9262TIP3    H127750   2.326   5.269   5.603
 9262TIP3    H227751   2.349   5.293   5.456
 9263TIP3   OH227752   4.134   2.867   1.287
 9263TIP3    H127753   4.069   2.876   1.356
 9263TIP3    H227754   4.091   2.903   1.209
 9264TIP3   OH227755   4.454   3.282   2.787
 9264TIP3    H127756   4.550   3.280   2.789
 9264TIP3    H227757   4.430   3.202   2.740
 9265TIP3   OH227758   3.154   1.100   1.256
 9265TIP3    H127759   3.212   1.117   1.181
 9265TIP3    H227760   3.214   1.075   1.326
 9266TIP3   OH227761   2.072   6.513   5.127
 9266TIP3    H127762   2.038   6.551   5.046
 9266TIP3    H227763   2.140   6.573   5.155
 9267TIP3   OH227764   6.074   6.167   0.760
 9267TIP3    H127765   6.125   6.110   0.703
 9267TIP3    H227766   6.012   6.211   0.702
 9268TIP3   OH227767   6.891   2.990   3.644
 9268TIP3    H127768   6.951   2.917   3.626
 9268TIP3    H227769   6.811   2.949   3.676
 9269TIP3   OH227770   3.345   5.985   1.995
 9269TIP3    H127771   3.398   5.905   2.001
 9269TIP3    H227772   3.390   6.038   1.929
 9270TIP3   OH227773   0.116   2.850   0.384
 9270TIP3    H127774   0.137   2.922   0.443
 9270TIP3    H227775   0.090   2.892   0.303
 9271TIP3   OH227776   5.112   1.800   2.712
 9271TIP3    H127777   5.166   1.774   2.786
 9271TIP3    H227778   5.122   1.730   2.648
 9272TIP3   OH227779   4.130   0.433   2.102
 9272TIP3    H127780   4.107   0.357   2.048
 9272TIP3    H227781   4.088   0.507   2.059
 9273TIP3   OH227782   1.648   2.408   2.520
 9273TIP3    H127783   1.620   2.318   2.538
 9273TIP3    H227784   1.731   2.417   2.567
 9274TIP3   OH227785   3.866   2.822   2.096
 9274TIP3    H127786   3.947   2.855   2.136
 9274TIP3    H227787   3.833   2.757   2.157
 9275TIP3   OH227788   3.285   2.915   3.974
 9275TIP3    H127789   3.375   2.903   3.943
 9275TIP3    H227790   3.232   2.918   3.894
 9276TIP3   OH227791   1.336   3.853   5.266
 9276TIP3    H127792   1.367   3.869   5.177
 9276TIP3    H227793   1.414   3.830   5.315
 9277TIP3   OH227794   1.113   0.555   1.379
 9277TIP3    H127795   1.191   0.588   1.424
 9277TIP3    H227796   1.064   0.634   1.355
 9278TIP3   OH227797   0.174   6.042   4.061
 9278TIP3    H127798   0.146   6.007   3.977
 9278TIP3    H227799   0.266   6.016   4.068
 9279TIP3   OH227800   3.925   3.834   3.364
 9279TIP3    H127801   3.934   3.810   3.456
 9279TIP3    H227802   3.833   3.858   3.354
 9280TIP3   OH227803   4.885   0.008   0.794
 9280TIP3    H127804   4.896  -0.048   0.871
 9280TIP3    H227805   4.865   0.094   0.830
 9281TIP3   OH227806   3.774   3.758   3.045
 9281TIP3    H127807   3.702   3.809   3.084
 9281TIP3    H227808   3.850   3.815   3.054
 9282TIP3   OH227809   1.603   0.590   0.833
 9282TIP3    H127810   1.608   0.543   0.749
 9282TIP3    H227811   1.597   0.682   0.809
 9283TIP3   OH227812   0.694   0.122   0.933
 9283TIP3    H127813   0.616   0.119   0.878
 9283TIP3    H227814   0.662   0.100   1.021
 9284TIP3   OH227815   5.420   5.567   0.116
 9284TIP3    H127816   5.408   5.513   0.194
 9284TIP3    H227817   5.359   5.530   0.051
 9285TIP3   OH227818   6.500   1.872   5.503
 9285TIP3    H127819   6.590   1.862   5.532
 9285TIP3    H227820   6.453   1.900   5.581
 9286TIP3   OH227821   3.388   4.492   5.637
 9286TIP3    H127822   3.332   4.425   5.596
 9286TIP3    H227823   3.374   4.479   5.731
 9287TIP3   OH227824   2.511   3.559   1.175
 9287TIP3    H127825   2.558   3.605   1.106
 9287TIP3    H227826   2.435   3.520   1.131
 9288TIP3   OH227827   0.347   5.792   5.510
 9288TIP3    H127828   0.417   5.735   5.478
 9288TIP3    H227829   0.367   5.804   5.603
 9289TIP3   OH227830   0.883   0.771   3.827
 9289TIP3    H127831   0.927   0.697   3.868
 9289TIP3    H227832   0.954   0.828   3.798
 9290TIP3   OH227833   1.250   6.485   1.734
 9290TIP3    H127834   1.174   6.511   1.786
 9290TIP3    H227835   1.321   6.539   1.767
 9291TIP3   OH227836   5.438   4.784   4.837
 9291TIP3    H127837   5.530   4.793   4.865
 9291TIP3    H227838   5.408   4.703   4.878
 9292TIP3   OH227839   5.592   5.129   4.819
 9292TIP3    H127840   5.610   5.106   4.910
 9292TIP3    H227841   5.498   5.115   4.809
 9293TIP3   OH227842   2.907   6.709   4.844
 9293TIP3    H127843   2.827   6.743   4.885
 9293TIP3    H227844   2.915   6.620   4.876
 9294TIP3   OH227845   2.622   0.511   5.689
 9294TIP3    H127846   2.621   0.548   5.600
 9294TIP3    H227847   2.703   0.545   5.727
 9295TIP3   OH227848   3.093   6.159   4.548
 9295TIP3    H127849   3.025   6.214   4.586
 9295TIP3    H227850   3.150   6.219   4.500
 9296TIP3   OH227851   4.576   0.535   4.890
 9296TIP3    H127852   4.668   0.535   4.862
 9296TIP3    H227853   4.578   0.499   4.978
 9297TIP3   OH227854   0.623   5.448   4.443
 9297TIP3    H127855   0.600   5.364   4.480
 9297TIP3    H227856   0.699   5.430   4.387
 9298TIP3   OH227857   6.159   2.393   5.161
 9298TIP3    H127858   6.178   2.299   5.170
 9298TIP3    H227859   6.146   2.423   5.250
 9299TIP3   OH227860   0.118   2.432   5.305
 9299TIP3    H127861   0.051   2.482   5.258
 9299TIP3    H227862   0.114   2.465   5.394
 9300TIP3   OH227863   6.164   4.693   2.313
 9300TIP3    H127864   6.159   4.699   2.409
 9300TIP3    H227865   6.132   4.606   2.293
 9301TIP3   OH227866   2.638   4.773   0.616
 9301TIP3    H127867   2.649   4.804   0.706
 9301TIP3    H227868   2.607   4.683   0.625
 9302TIP3   OH227869   0.557   1.304   1.683
 9302TIP3    H127870   0.489   1.350   1.731
 9302TIP3    H227871   0.630   1.366   1.678
 9303TIP3   OH227872   1.305   0.217   5.756
 9303TIP3    H127873   1.351   0.234   5.838
 9303TIP3    H227874   1.258   0.135   5.771
 9304TIP3   OH227875   5.678   4.824   2.025
 9304TIP3    H127876   5.640   4.765   1.959
 9304TIP3    H227877   5.720   4.766   2.088
 9305TIP3   OH227878   1.352   6.071   4.488
 9305TIP3    H127879   1.308   6.063   4.404
 9305TIP3    H227880   1.445   6.058   4.467
 9306TIP3   OH227881   4.914   5.968   5.212
 9306TIP3    H127882   4.940   5.958   5.120
 9306TIP3    H227883   4.848   5.901   5.226
 9307TIP3   OH227884   4.653   4.659   1.345
 9307TIP3    H127885   4.703   4.727   1.298
 9307TIP3    H227886   4.561   4.680   1.326
 9308TIP3   OH227887   4.934   3.619   1.333
 9308TIP3    H127888   4.859   3.570   1.369
 9308TIP3    H227889   4.945   3.693   1.392
 9309TIP3   OH227890   1.018   5.211   2.480
 9309TIP3    H127891   0.985   5.128   2.514
 9309TIP3    H227892   0.951   5.239   2.417
 9310TIP3   OH227893   5.215   6.695   2.859
 9310TIP3    H127894   5.228   6.721   2.951
 9310TIP3    H227895   5.120   6.700   2.846
 9311TIP3   OH227896   1.842   3.539   4.075
 9311TIP3    H127897   1.835   3.609   4.140
 9311TIP3    H227898   1.892   3.577   4.003
 9312TIP3   OH227899   2.211   3.948   4.803
 9312TIP3    H127900   2.116   3.953   4.820
 9312TIP3    H227901   2.251   3.962   4.888
 9313TIP3   OH227902   4.376   6.089   1.946
 9313TIP3    H127903   4.399   6.059   1.858
 9313TIP3    H227904   4.290   6.051   1.963
 9314TIP3   OH227905   6.452   6.480   5.517
 9314TIP3    H127906   6.420   6.552   5.572
 9314TIP3    H227907   6.547   6.492   5.516
 9315TIP3   OH227908   0.968   0.532   0.860
 9315TIP3    H127909   0.909   0.593   0.905
 9315TIP3    H227910   0.914   0.493   0.791
 9316TIP3   OH227911   0.218   1.357   0.889
 9316TIP3    H127912   0.214   1.323   0.978
 9316TIP3    H227913   0.294   1.314   0.850
 9317TIP3   OH227914   2.279   2.307   3.230
 9317TIP3    H127915   2.296   2.360   3.308
 9317TIP3    H227916   2.336   2.343   3.163
 9318TIP3   OH227917   5.335   0.575   5.653
 9318TIP3    H127918   5.381   0.632   5.593
 9318TIP3    H227919   5.260   0.626   5.684
 9319TIP3   OH227920   2.678   4.429   1.149
 9319TIP3    H127921   2.690   4.524   1.160
 9319TIP3    H227922   2.754   4.401   1.099
 9320TIP3   OH227923   2.230   5.196   5.776
 9320TIP3    H127924   2.171   5.251   5.724
 9320TIP3    H227925   2.208   5.216   5.867
 9321TIP3   OH227926   0.469   6.663   3.439
 9321TIP3    H127927   0.478   6.745   3.391
 9321TIP3    H227928   0.533   6.604   3.399
 9322TIP3   OH227929   4.204   2.284   2.832
 9322TIP3    H127930   4.239   2.284   2.743
 9322TIP3    H227931   4.259   2.346   2.880
 9323TIP3   OH227932   7.045   3.316   3.094
 9323TIP3    H127933   7.075   3.258   3.024
 9323TIP3    H227934   6.965   3.275   3.127
 9324TIP3   OH227935   1.300   1.523   4.110
 9324TIP3    H127936   1.257   1.606   4.131
 9324TIP3    H227937   1.392   1.545   4.097
 9325TIP3   OH227938   3.373   0.193   1.584
 9325TIP3    H127939   3.311   0.219   1.516
 9325TIP3    H227940   3.384   0.099   1.572
 9326TIP3   OH227941   1.010   2.041   1.155
 9326TIP3    H127942   1.036   1.960   1.111
 9326TIP3    H227943   1.077   2.105   1.128
 9327TIP3   OH227944   6.808   5.225   3.343
 9327TIP3    H127945   6.845   5.137   3.330
 9327TIP3    H227946   6.746   5.236   3.271
 9328TIP3   OH227947   6.252   4.059   2.574
 9328TIP3    H127948   6.190   4.113   2.623
 9328TIP3    H227949   6.336   4.071   2.618
 9329TIP3   OH227950   2.490   1.016   5.598
 9329TIP3    H127951   2.537   1.006   5.680
 9329TIP3    H227952   2.418   0.953   5.602
 9330TIP3   OH227953   0.999   3.367   0.338
 9330TIP3    H127954   1.055   3.290   0.344
 9330TIP3    H227955   0.948   3.354   0.258
 9331TIP3   OH227956   2.953   5.212   1.374
 9331TIP3    H127957   2.985   5.125   1.349
 9331TIP3    H227958   3.008   5.272   1.325
 9332TIP3   OH227959   6.352   2.264   3.563
 9332TIP3    H127960   6.393   2.186   3.525
 9332TIP3    H227961   6.366   2.256   3.657
 9333TIP3   OH227962   2.417   5.989   1.530
 9333TIP3    H127963   2.462   6.034   1.603
 9333TIP3    H227964   2.473   6.005   1.454
 9334TIP3   OH227965   0.593   1.948   4.948
 9334TIP3    H127966   0.499   1.948   4.928
 9334TIP3    H227967   0.609   1.862   4.988
 9335TIP3   OH227968   5.714   0.821   5.761
 9335TIP3    H127969   5.676   0.861   5.683
 9335TIP3    H227970   5.791   0.774   5.729
 9336TIP3   OH227971   7.121   0.566   4.982
 9336TIP3    H127972   7.199   0.612   4.950
 9336TIP3    H227973   7.048   0.622   4.957
 9337TIP3   OH227974   6.687   6.738   4.627
 9337TIP3    H127975   6.758   6.678   4.651
 9337TIP3    H227976   6.684   6.802   4.698
 9338TIP3   OH227977   6.295   2.105   2.206
 9338TIP3    H127978   6.275   2.164   2.133
 9338TIP3    H227979   6.378   2.064   2.182
 9339TIP3   OH227980   0.137   2.408   0.164
 9339TIP3    H127981   0.194   2.459   0.222
 9339TIP3    H227982   0.059   2.463   0.152
 9340TIP3   OH227983   1.378   1.822   2.958
 9340TIP3    H127984   1.423   1.892   2.911
 9340TIP3    H227985   1.300   1.804   2.906
 9341TIP3   OH227986   2.878   4.125   1.789
 9341TIP3    H127987   2.874   4.030   1.799
 9341TIP3    H227988   2.916   4.157   1.870
 9342TIP3   OH227989   3.937   0.780   4.252
 9342TIP3    H127990   4.023   0.810   4.283
 9342TIP3    H227991   3.940   0.685   4.260
 9343TIP3   OH227992   2.811   1.158   1.790
 9343TIP3    H127993   2.832   1.223   1.723
 9343TIP3    H227994   2.889   1.103   1.795
 9344TIP3   OH227995   2.031   1.346   0.643
 9344TIP3    H127996   1.949   1.296   0.650
 9344TIP3    H227997   2.096   1.289   0.683
 9345TIP3   OH227998   0.144   5.426   3.284
 9345TIP3    H127999   0.223   5.461   3.244
 9345TIP3    H228000   0.156   5.442   3.378
 9346TIP3   OH228001   3.523   0.288   1.815
 9346TIP3    H128002   3.454   0.268   1.752
 9346TIP3    H228003   3.559   0.203   1.839
 9347TIP3   OH228004   0.057   5.681   0.186
 9347TIP3    H128005   0.067   5.651   0.276
 9347TIP3    H228006  -0.038   5.692   0.175
 9348TIP3   OH228007   6.764   2.053   4.811
 9348TIP3    H128008   6.704   2.063   4.886
 9348TIP3    H228009   6.809   2.137   4.805
 9349TIP3   OH228010   4.860   2.273   0.432
 9349TIP3    H128011   4.862   2.324   0.352
 9349TIP3    H228012   4.877   2.183   0.404
 9350TIP3   OH228013   5.828   6.710   4.843
 9350TIP3    H128014   5.898   6.659   4.803
 9350TIP3    H228015   5.764   6.645   4.872
 9351TIP3   OH228016   1.756   6.589   3.391
 9351TIP3    H128017   1.833   6.630   3.429
 9351TIP3    H228018   1.792   6.524   3.330
 9352TIP3   OH228019   6.494   5.407   5.657
 9352TIP3    H128020   6.574   5.384   5.705
 9352TIP3    H228021   6.444   5.462   5.718
 9353TIP3   OH228022   1.262   1.318   4.616
 9353TIP3    H128023   1.278   1.399   4.567
 9353TIP3    H228024   1.336   1.262   4.594
 9354TIP3   OH228025   6.128   1.045   4.985
 9354TIP3    H128026   6.076   1.123   5.002
 9354TIP3    H228027   6.169   1.061   4.900
 9355TIP3   OH228028   2.664   0.222   2.179
 9355TIP3    H128029   2.628   0.193   2.095
 9355TIP3    H228030   2.632   0.157   2.242
 9356TIP3   OH228031   1.572   0.260   5.623
 9356TIP3    H128032   1.590   0.219   5.707
 9356TIP3    H228033   1.480   0.241   5.606
 9357TIP3   OH228034   3.169   2.690   2.114
 9357TIP3    H128035   3.183   2.601   2.148
 9357TIP3    H228036   3.075   2.696   2.100
 9358TIP3   OH228037   0.977   1.052   2.616
 9358TIP3    H128038   0.936   1.043   2.530
 9358TIP3    H228039   0.974   1.145   2.635
 9359TIP3   OH228040   1.533   4.027   0.976
 9359TIP3    H128041   1.488   4.077   0.907
 9359TIP3    H228042   1.486   3.944   0.980
 9360TIP3   OH228043   3.511   2.504   4.728
 9360TIP3    H128044   3.572   2.511   4.801
 9360TIP3    H228045   3.425   2.492   4.770
 9361TIP3   OH228046   0.799   4.295   2.267
 9361TIP3    H128047   0.728   4.298   2.332
 9361TIP3    H228048   0.755   4.291   2.183
 9362TIP3   OH228049   2.537   2.188   0.401
 9362TIP3    H128050   2.484   2.249   0.350
 9362TIP3    H228051   2.518   2.209   0.492
 9363TIP3   OH228052   1.350   5.391   2.982
 9363TIP3    H128053   1.380   5.410   2.893
 9363TIP3    H228054   1.360   5.296   2.991
 9364TIP3   OH228055   2.777   0.836   5.312
 9364TIP3    H128056   2.822   0.839   5.396
 9364TIP3    H228057   2.814   0.909   5.262
 9365TIP3   OH228058   3.343   6.171   5.684
 9365TIP3    H128059   3.338   6.078   5.662
 9365TIP3    H228060   3.365   6.214   5.601
 9366TIP3   OH228061   1.905   3.740   3.738
 9366TIP3    H128062   1.938   3.662   3.784
 9366TIP3    H228063   1.972   3.807   3.753
 9367TIP3   OH228064   4.195   1.519   1.843
 9367TIP3    H128065   4.202   1.614   1.854
 9367TIP3    H228066   4.108   1.497   1.878
 9368TIP3   OH228067   2.807   2.904   0.902
 9368TIP3    H128068   2.840   2.815   0.890
 9368TIP3    H228069   2.754   2.921   0.824
 9369TIP3   OH228070   2.642   4.623   3.885
 9369TIP3    H128071   2.702   4.694   3.909
 9369TIP3    H228072   2.664   4.603   3.794
 9370TIP3   OH228073   3.391   1.906   3.788
 9370TIP3    H128074   3.399   1.998   3.813
 9370TIP3    H228075   3.307   1.878   3.826
 9371TIP3   OH228076   0.587   4.155   3.771
 9371TIP3    H128077   0.531   4.077   3.768
 9371TIP3    H228078   0.603   4.169   3.865
 9372TIP3   OH228079   3.977   3.612   2.229
 9372TIP3    H128080   4.045   3.579   2.287
 9372TIP3    H228081   3.976   3.707   2.244
 9373TIP3   OH228082   6.715   0.392   0.025
 9373TIP3    H128083   6.623   0.387   0.050
 9373TIP3    H228084   6.763   0.368   0.105
 9374TIP3   OH228085   2.478   4.519   0.964
 9374TIP3    H128086   2.492   4.523   0.869
 9374TIP3    H228087   2.555   4.473   0.997
 9375TIP3   OH228088   3.596   4.206   5.558
 9375TIP3    H128089   3.579   4.293   5.594
 9375TIP3    H228090   3.690   4.205   5.540
 9376TIP3   OH228091   1.489   4.110   5.728
 9376TIP3    H128092   1.429   4.064   5.671
 9376TIP3    H228093   1.441   4.121   5.810
 9377TIP3   OH228094   3.460   3.848   1.110
 9377TIP3    H128095   3.439   3.910   1.179
 9377TIP3    H228096   3.501   3.774   1.155
 9378TIP3   OH228097   2.488   5.070   0.879
 9378TIP3    H128098   2.443   4.988   0.895
 9378TIP3    H228099   2.420   5.129   0.844
 9379TIP3   OH228100   3.969   3.907   0.288
 9379TIP3    H128101   3.948   3.841   0.354
 9379TIP3    H228102   4.063   3.922   0.297
 9380TIP3   OH228103   6.176   3.829   2.112
 9380TIP3    H128104   6.111   3.864   2.051
 9380TIP3    H228105   6.175   3.891   2.185
 9381TIP3   OH228106   6.997   6.309   4.144
 9381TIP3    H128107   7.083   6.297   4.183
 9381TIP3    H228108   7.000   6.258   4.063
 9382TIP3   OH228109   4.611   3.733   1.816
 9382TIP3    H128110   4.601   3.638   1.803
 9382TIP3    H228111   4.541   3.756   1.876
 9383TIP3   OH228112   1.365   5.313   0.061
 9383TIP3    H128113   1.281   5.325   0.018
 9383TIP3    H228114   1.384   5.220   0.054
 9384TIP3   OH228115   3.661   3.632   2.398
 9384TIP3    H128116   3.702   3.717   2.410
 9384TIP3    H228117   3.732   3.569   2.414
 9385TIP3   OH228118   3.287   1.251   3.720
 9385TIP3    H128119   3.214   1.207   3.763
 9385TIP3    H228120   3.317   1.189   3.653
 9386TIP3   OH228121   0.422   4.265   4.423
 9386TIP3    H128122   0.511   4.235   4.445
 9386TIP3    H228123   0.419   4.354   4.457
 9387TIP3   OH228124   1.159   2.726   0.429
 9387TIP3    H128125   1.124   2.810   0.460
 9387TIP3    H228126   1.108   2.706   0.351
 9388TIP3   OH228127   3.801   0.695   5.039
 9388TIP3    H128128   3.777   0.653   5.122
 9388TIP3    H228129   3.800   0.624   4.975
 9389TIP3   OH228130   2.379   4.401   2.759
 9389TIP3    H128131   2.424   4.336   2.705
 9389TIP3    H228132   2.448   4.460   2.788
 9390TIP3   OH228133   0.754   4.019   3.570
 9390TIP3    H128134   0.704   4.059   3.642
 9390TIP3    H228135   0.844   4.018   3.602
 9391TIP3   OH228136   6.605   2.069   1.460
 9391TIP3    H128137   6.530   2.124   1.441
 9391TIP3    H228138   6.600   2.053   1.555
 9392TIP3   OH228139   3.809   1.436   3.488
 9392TIP3    H128140   3.722   1.445   3.449
 9392TIP3    H228141   3.846   1.525   3.486
 9393TIP3   OH228142   3.469   6.450   2.735
 9393TIP3    H128143   3.542   6.413   2.784
 9393TIP3    H228144   3.487   6.544   2.730
 9394TIP3   OH228145   6.609   6.043   2.066
 9394TIP3    H128146   6.676   5.978   2.089
 9394TIP3    H228147   6.598   6.095   2.146
 9395TIP3   OH228148   3.251   2.190   2.158
 9395TIP3    H128149   3.164   2.149   2.156
 9395TIP3    H228150   3.300   2.145   2.089
 9396TIP3   OH228151   0.267   2.508   1.428
 9396TIP3    H128152   0.281   2.464   1.512
 9396TIP3    H228153   0.213   2.447   1.377
 9397TIP3   OH228154   2.609   4.312   3.265
 9397TIP3    H128155   2.573   4.228   3.293
 9397TIP3    H228156   2.534   4.360   3.229
 9398TIP3   OH228157   4.078   5.233   2.694
 9398TIP3    H128158   4.050   5.161   2.751
 9398TIP3    H228159   4.033   5.310   2.728
 9399TIP3   OH228160   4.630   6.318   1.516
 9399TIP3    H128161   4.694   6.368   1.467
 9399TIP3    H228162   4.680   6.246   1.555
 9400TIP3   OH228163   6.719   5.377   3.764
 9400TIP3    H128164   6.681   5.342   3.844
 9400TIP3    H228165   6.736   5.300   3.710
 9401TIP3   OH228166   0.578   2.899   0.061
 9401TIP3    H128167   0.502   2.840   0.059
 9401TIP3    H228168   0.550   2.973   0.115
 9402TIP3   OH228169   1.465   3.143   0.929
 9402TIP3    H128170   1.486   3.233   0.958
 9402TIP3    H228171   1.382   3.123   0.972
 9403TIP3   OH228172   1.741   0.332   0.727
 9403TIP3    H128173   1.683   0.266   0.691
 9403TIP3    H228174   1.782   0.290   0.802
 9404TIP3   OH228175   0.743   6.522   3.368
 9404TIP3    H128176   0.777   6.496   3.282
 9404TIP3    H228177   0.783   6.461   3.429
 9405TIP3   OH228178   5.669   6.662   3.805
 9405TIP3    H128179   5.687   6.735   3.864
 9405TIP3    H228180   5.701   6.585   3.852
 9406TIP3   OH228181   6.041   1.584   4.131
 9406TIP3    H128182   6.027   1.677   4.112
 9406TIP3    H228183   6.119   1.582   4.187
 9407TIP3   OH228184   4.261   1.608   4.500
 9407TIP3    H128185   4.175   1.645   4.520
 9407TIP3    H228186   4.275   1.541   4.567
 9408TIP3   OH228187   2.608   3.982   5.753
 9408TIP3    H128188   2.702   3.984   5.734
 9408TIP3    H228189   2.594   4.058   5.810
 9409TIP3   OH228190   2.748   1.292   0.668
 9409TIP3    H128191   2.810   1.219   0.675
 9409TIP3    H228192   2.803   1.368   0.648
 9410TIP3   OH228193   1.719   1.157   2.644
 9410TIP3    H128194   1.778   1.149   2.719
 9410TIP3    H228195   1.761   1.221   2.587
 9411TIP3   OH228196   5.797   5.694   1.127
 9411TIP3    H128197   5.759   5.773   1.089
 9411TIP3    H228198   5.891   5.700   1.107
 9412TIP3   OH228199   2.557   6.052   1.285
 9412TIP3    H128200   2.577   6.145   1.293
 9412TIP3    H228201   2.498   6.047   1.209
 9413TIP3   OH228202   4.937   6.336   3.309
 9413TIP3    H128203   5.013   6.299   3.263
 9413TIP3    H228204   4.975   6.402   3.367
 9414TIP3   OH228205   2.503   2.517   5.527
 9414TIP3    H128206   2.427   2.575   5.520
 9414TIP3    H228207   2.483   2.444   5.468
 9415TIP3   OH228208   3.376   3.937   4.689
 9415TIP3    H128209   3.311   3.875   4.655
 9415TIP3    H228210   3.433   3.885   4.745
 9416TIP3   OH228211   2.561   3.783   1.331
 9416TIP3    H128212   2.537   3.694   1.306
 9416TIP3    H228213   2.480   3.820   1.367
 9417TIP3   OH228214   1.907   2.840   1.841
 9417TIP3    H128215   1.877   2.781   1.911
 9417TIP3    H228216   1.932   2.921   1.886
 9418TIP3   OH228217   0.867   5.765   0.927
 9418TIP3    H128218   0.942   5.725   0.883
 9418TIP3    H228219   0.899   5.849   0.959
 9419TIP3   OH228220   0.062   3.008   2.632
 9419TIP3    H128221   0.107   3.071   2.576
 9419TIP3    H228222   0.102   3.019   2.718
 9420TIP3   OH228223   3.616   3.661   1.250
 9420TIP3    H128224   3.661   3.730   1.300
 9420TIP3    H228225   3.595   3.594   1.315
 9421TIP3   OH228226   2.100   2.359   1.225
 9421TIP3    H128227   2.097   2.453   1.206
 9421TIP3    H228228   2.030   2.321   1.172
 9422TIP3   OH228229   6.276   5.588   1.182
 9422TIP3    H128230   6.330   5.619   1.109
 9422TIP3    H228231   6.297   5.646   1.254
 9423TIP3   OH228232   1.336   4.500   3.531
 9423TIP3    H128233   1.263   4.559   3.517
 9423TIP3    H228234   1.414   4.555   3.526
 9424TIP3   OH228235   3.992   2.264   5.270
 9424TIP3    H128236   3.912   2.222   5.240
 9424TIP3    H228237   4.062   2.209   5.234
 9425TIP3   OH228238   5.256   4.696   0.740
 9425TIP3    H128239   5.197   4.621   0.740
 9425TIP3    H228240   5.254   4.728   0.650
 9426TIP3   OH228241   5.941   0.710   5.687
 9426TIP3    H128242   5.983   0.773   5.628
 9426TIP3    H228243   5.987   0.628   5.671
 9427TIP3   OH228244   0.739   6.218   0.033
 9427TIP3    H128245   0.718   6.125   0.043
 9427TIP3    H228246   0.764   6.246   0.121
 9428TIP3   OH228247   0.953   5.729   1.585
 9428TIP3    H128248   0.884   5.692   1.529
 9428TIP3    H228249   0.935   5.823   1.586
 9429TIP3   OH228250   0.602   4.262   3.461
 9429TIP3    H128251   0.511   4.257   3.487
 9429TIP3    H228252   0.630   4.171   3.449
 9430TIP3   OH228253   3.571   6.681   5.355
 9430TIP3    H128254   3.517   6.646   5.426
 9430TIP3    H228255   3.592   6.770   5.383
 9431TIP3   OH228256   3.064   4.344   3.704
 9431TIP3    H128257   3.053   4.436   3.680
 9431TIP3    H228258   3.028   4.295   3.630
 9432TIP3   OH228259   6.895   3.402   1.031
 9432TIP3    H128260   6.904   3.384   0.938
 9432TIP3    H228261   6.958   3.344   1.073
 9433TIP3   OH228262   0.561   0.589   0.270
 9433TIP3    H128263   0.467   0.571   0.263
 9433TIP3    H228264   0.567   0.673   0.315
 9434TIP3   OH228265   1.156   5.082   5.144
 9434TIP3    H128266   1.144   4.998   5.100
 9434TIP3    H228267   1.189   5.059   5.231
 9435TIP3   OH228268   2.771   3.995   3.496
 9435TIP3    H128269   2.695   4.003   3.439
 9435TIP3    H228270   2.740   3.945   3.571
 9436TIP3   OH228271   2.222   4.470   0.858
 9436TIP3    H128272   2.301   4.478   0.912
 9436TIP3    H228273   2.255   4.460   0.768
 9437TIP3   OH228274   2.053   3.022   0.538
 9437TIP3    H128275   2.012   3.027   0.452
 9437TIP3    H228276   2.139   3.062   0.525
 9438TIP3   OH228277   4.316   0.395   4.544
 9438TIP3    H128278   4.399   0.393   4.592
 9438TIP3    H228279   4.251   0.420   4.609
 9439TIP3   OH228280   0.693   1.345   2.072
 9439TIP3    H128281   0.763   1.404   2.045
 9439TIP3    H228282   0.669   1.375   2.160
 9440TIP3   OH228283   5.020   0.702   2.108
 9440TIP3    H128284   4.950   0.673   2.049
 9440TIP3    H228285   5.041   0.625   2.161
 9441TIP3   OH228286   3.527   5.158   0.918
 9441TIP3    H128287   3.518   5.102   0.840
 9441TIP3    H228288   3.573   5.103   0.981
 9442TIP3   OH228289   0.111   5.561   0.448
 9442TIP3    H128290   0.133   5.483   0.396
 9442TIP3    H228291   0.110   5.529   0.539
 9443TIP3   OH228292   2.538   2.409   5.783
 9443TIP3    H128293   2.575   2.391   5.696
 9443TIP3    H228294   2.500   2.326   5.810
 9444TIP3   OH228295   4.458   0.239   0.325
 9444TIP3    H128296   4.488   0.329   0.332
 9444TIP3    H228297   4.508   0.202   0.253
 9445TIP3   OH228298   0.705   0.508   1.798
 9445TIP3    H128299   0.717   0.446   1.725
 9445TIP3    H228300   0.792   0.516   1.837
 9446TIP3   OH228301   5.964   0.453   3.960
 9446TIP3    H128302   5.978   0.546   3.978
 9446TIP3    H228303   5.951   0.448   3.866
 9447TIP3   OH228304   3.590   6.388   3.174
 9447TIP3    H128305   3.562   6.313   3.227
 9447TIP3    H228306   3.511   6.441   3.163
 9448TIP3   OH228307   5.609   1.861   2.756
 9448TIP3    H128308   5.694   1.903   2.762
 9448TIP3    H228309   5.570   1.874   2.842
 9449TIP3   OH228310   4.245   1.572   3.892
 9449TIP3    H128311   4.157   1.537   3.875
 9449TIP3    H228312   4.284   1.509   3.953
 9450TIP3   OH228313   6.676   0.591   3.537
 9450TIP3    H128314   6.587   0.613   3.509
 9450TIP3    H228315   6.726   0.593   3.455
 9451TIP3   OH228316   6.833   4.273   2.602
 9451TIP3    H128317   6.803   4.189   2.567
 9451TIP3    H228318   6.767   4.296   2.667
 9452TIP3   OH228319   4.946   2.124   4.198
 9452TIP3    H128320   4.872   2.078   4.238
 9452TIP3    H228321   4.906   2.201   4.157
 9453TIP3   OH228322   3.429   2.235   4.619
 9453TIP3    H128323   3.378   2.273   4.547
 9453TIP3    H228324   3.457   2.311   4.671
 9454TIP3   OH228325   0.695   1.541   4.070
 9454TIP3    H128326   0.608   1.503   4.056
 9454TIP3    H228327   0.749   1.467   4.099
 9455TIP3   OH228328   5.314   2.377   4.258
 9455TIP3    H128329   5.219   2.377   4.272
 9455TIP3    H228330   5.334   2.286   4.234
 9456TIP3   OH228331   5.999   4.660   1.509
 9456TIP3    H128332   5.973   4.568   1.499
 9456TIP3    H228333   5.968   4.685   1.595
 9457TIP3   OH228334   0.106   1.544   4.952
 9457TIP3    H128335   0.156   1.467   4.927
 9457TIP3    H228336   0.126   1.556   5.045
 9458TIP3   OH228337   1.413   6.763   0.140
 9458TIP3    H128338   1.424   6.821   0.216
 9458TIP3    H228339   1.396   6.677   0.178
 9459TIP3   OH228340   4.822   2.916   3.413
 9459TIP3    H128341   4.893   2.973   3.445
 9459TIP3    H228342   4.748   2.975   3.401
 9460TIP3   OH228343   2.711   3.765   2.705
 9460TIP3    H128344   2.792   3.810   2.730
 9460TIP3    H228345   2.718   3.679   2.746
 9461TIP3   OH228346   3.337   2.084   3.487
 9461TIP3    H128347   3.259   2.108   3.537
 9461TIP3    H228348   3.353   1.992   3.508
 9462TIP3   OH228349   2.584   6.755   0.142
 9462TIP3    H128350   2.573   6.714   0.228
 9462TIP3    H228351   2.675   6.783   0.141
 9463TIP3   OH228352   1.824   1.417   2.009
 9463TIP3    H128353   1.911   1.394   2.039
 9463TIP3    H228354   1.805   1.354   1.939
 9464TIP3   OH228355   3.378   1.699   3.495
 9464TIP3    H128356   3.316   1.647   3.547
 9464TIP3    H228357   3.443   1.729   3.558
 9465TIP3   OH228358   4.262   6.386   2.537
 9465TIP3    H128359   4.334   6.329   2.510
 9465TIP3    H228360   4.183   6.342   2.505
 9466TIP3   OH228361   4.356   0.283   4.089
 9466TIP3    H128362   4.322   0.196   4.110
 9466TIP3    H228363   4.449   0.269   4.069
 9467TIP3   OH228364   6.247   0.352   3.004
 9467TIP3    H128365   6.205   0.350   3.090
 9467TIP3    H228366   6.207   0.426   2.960
 9468TIP3   OH228367   3.829   2.513   1.552
 9468TIP3    H128368   3.837   2.545   1.642
 9468TIP3    H228369   3.776   2.433   1.560
 9469TIP3   OH228370   5.165   2.115   2.512
 9469TIP3    H128371   5.230   2.074   2.569
 9469TIP3    H228372   5.118   2.176   2.570
 9470TIP3   OH228373   2.958   0.995   5.104
 9470TIP3    H128374   3.049   0.981   5.080
 9470TIP3    H228375   2.958   1.079   5.150
 9471TIP3   OH228376   4.020   1.502   1.627
 9471TIP3    H128377   3.946   1.525   1.683
 9471TIP3    H228378   4.084   1.464   1.687
 9472TIP3   OH228379   0.242   3.399   1.898
 9472TIP3    H128380   0.308   3.425   1.833
 9472TIP3    H228381   0.286   3.407   1.982
 9473TIP3   OH228382   0.799   4.357   4.160
 9473TIP3    H128383   0.815   4.387   4.250
 9473TIP3    H228384   0.843   4.422   4.105
 9474TIP3   OH228385   2.119   4.235   2.410
 9474TIP3    H128386   2.031   4.198   2.398
 9474TIP3    H228387   2.160   4.228   2.324
 9475TIP3   OH228388   5.677   5.650   3.276
 9475TIP3    H128389   5.700   5.575   3.330
 9475TIP3    H228390   5.688   5.726   3.333
 9476TIP3   OH228391   4.448   6.563   0.026
 9476TIP3    H128392   4.505   6.629  -0.014
 9476TIP3    H228393   4.401   6.610   0.095
 9477TIP3   OH228394   4.132   2.722   2.632
 9477TIP3    H128395   4.097   2.786   2.694
 9477TIP3    H228396   4.183   2.662   2.686
 9478TIP3   OH228397   2.993   2.143   2.741
 9478TIP3    H128398   2.942   2.099   2.809
 9478TIP3    H228399   3.084   2.131   2.769
 9479TIP3   OH228400   1.036   6.532   1.304
 9479TIP3    H128401   1.072   6.494   1.224
 9479TIP3    H228402   1.109   6.534   1.366
 9480TIP3   OH228403   6.149   6.432   2.487
 9480TIP3    H128404   6.193   6.445   2.571
 9480TIP3    H228405   6.126   6.339   2.486
 9481TIP3   OH228406   6.572   0.118   0.825
 9481TIP3    H128407   6.616   0.175   0.761
 9481TIP3    H228408   6.643   0.083   0.879
 9482TIP3   OH228409   1.300   4.412   5.679
 9482TIP3    H128410   1.394   4.416   5.694
 9482TIP3    H228411   1.262   4.472   5.743
 9483TIP3   OH228412   3.996   5.353   5.827
 9483TIP3    H128413   3.930   5.285   5.812
 9483TIP3    H228414   3.966   5.427   5.772
 9484TIP3   OH228415   3.331   2.930   2.824
 9484TIP3    H128416   3.330   2.862   2.757
 9484TIP3    H228417   3.285   3.004   2.784
 9485TIP3   OH228418   3.800   2.626   1.791
 9485TIP3    H128419   3.816   2.561   1.859
 9485TIP3    H228420   3.765   2.701   1.838
 9486TIP3   OH228421   2.310   3.185   3.077
 9486TIP3    H128422   2.325   3.202   3.170
 9486TIP3    H228423   2.398   3.167   3.042
 9487TIP3   OH228424   3.531   0.563   1.834
 9487TIP3    H128425   3.623   0.583   1.854
 9487TIP3    H228426   3.527   0.468   1.833
 9488TIP3   OH228427   2.240   2.123   1.398
 9488TIP3    H128428   2.235   2.105   1.304
 9488TIP3    H228429   2.152   2.104   1.430
 9489TIP3   OH228430   1.768   6.028   2.008
 9489TIP3    H128431   1.794   6.059   1.922
 9489TIP3    H228432   1.673   6.034   2.009
 9490TIP3   OH228433   0.111   0.782   2.365
 9490TIP3    H128434   0.072   0.870   2.368
 9490TIP3    H228435   0.039   0.724   2.342
 9491TIP3   OH228436   5.374   6.446   4.841
 9491TIP3    H128437   5.294   6.480   4.880
 9491TIP3    H228438   5.344   6.390   4.769
 9492TIP3   OH228439   6.579   4.790   2.468
 9492TIP3    H128440   6.549   4.712   2.515
 9492TIP3    H228441   6.620   4.845   2.535
 9493TIP3   OH228442   4.290   3.414   3.461
 9493TIP3    H128443   4.328   3.495   3.428
 9493TIP3    H228444   4.203   3.410   3.420
 9494TIP3   OH228445   5.838   2.848   5.506
 9494TIP3    H128446   5.774   2.916   5.484
 9494TIP3    H228447   5.786   2.779   5.547
 9495TIP3   OH228448   2.709   5.590   1.713
 9495TIP3    H128449   2.730   5.586   1.619
 9495TIP3    H228450   2.614   5.578   1.716
 9496TIP3   OH228451   2.631   6.529   3.973
 9496TIP3    H128452   2.620   6.591   4.045
 9496TIP3    H228453   2.699   6.469   4.005
 9497TIP3   OH228454   0.256   0.462   1.887
 9497TIP3    H128455   0.189   0.398   1.862
 9497TIP3    H228456   0.322   0.456   1.818
 9498TIP3   OH228457   1.186   1.373   5.610
 9498TIP3    H128458   1.229   1.429   5.545
 9498TIP3    H228459   1.225   1.287   5.596
 9499TIP3   OH228460   5.093   1.447   4.915
 9499TIP3    H128461   5.130   1.376   4.968
 9499TIP3    H228462   5.143   1.444   4.833
 9500TIP3   OH228463   2.831   5.784   4.883
 9500TIP3    H128464   2.867   5.841   4.815
 9500TIP3    H228465   2.892   5.792   4.956
 9501TIP3   OH228466   1.375   5.843   4.963
 9501TIP3    H128467   1.381   5.764   5.017
 9501TIP3    H228468   1.338   5.813   4.880
 9502TIP3   OH228469   4.385   4.008   5.410
 9502TIP3    H128470   4.309   4.050   5.369
 9502TIP3    H228471   4.373   4.023   5.504
 9503TIP3   OH228472   4.033   4.644   4.408
 9503TIP3    H128473   4.038   4.738   4.394
 9503TIP3    H228474   3.951   4.618   4.367
 9504TIP3   OH228475   0.189   0.590   5.280
 9504TIP3    H128476   0.201   0.678   5.247
 9504TIP3    H228477   0.263   0.540   5.243
 9505TIP3   OH228478   2.248   1.646   0.884
 9505TIP3    H128479   2.310   1.698   0.831
 9505TIP3    H228480   2.222   1.706   0.954
 9506TIP3   OH228481   0.734   6.705   4.535
 9506TIP3    H128482   0.822   6.738   4.518
 9506TIP3    H228483   0.676   6.775   4.507
 9507TIP3   OH228484   0.945   5.529   3.078
 9507TIP3    H128485   0.850   5.531   3.092
 9507TIP3    H228486   0.964   5.613   3.036
 9508TIP3   OH228487   0.455   4.099   2.216
 9508TIP3    H128488   0.379   4.126   2.165
 9508TIP3    H228489   0.470   4.172   2.276
 9509TIP3   OH228490   2.474   3.674   0.267
 9509TIP3    H128491   2.496   3.628   0.186
 9509TIP3    H228492   2.457   3.764   0.240
 9510TIP3   OH228493   0.926   0.668   0.269
 9510TIP3    H128494   0.900   0.576   0.263
 9510TIP3    H228495   0.847   0.716   0.243
 9511TIP3   OH228496   2.659   6.165   2.034
 9511TIP3    H128497   2.678   6.205   2.119
 9511TIP3    H228498   2.730   6.194   1.977
 9512TIP3   OH228499   2.565   4.185   2.266
 9512TIP3    H128500   2.511   4.124   2.316
 9512TIP3    H228501   2.594   4.134   2.190
 9513TIP3   OH228502   3.154   3.201   0.195
 9513TIP3    H128503   3.213   3.262   0.240
 9513TIP3    H228504   3.210   3.127   0.172
 9514TIP3   OH228505   4.488   5.872   3.692
 9514TIP3    H128506   4.416   5.857   3.753
 9514TIP3    H228507   4.448   5.920   3.619
 9515TIP3   OH228508   3.684   2.419   2.041
 9515TIP3    H128509   3.656   2.368   2.117
 9515TIP3    H228510   3.702   2.354   1.974
 9516TIP3   OH228511   6.755   5.193   4.841
 9516TIP3    H128512   6.847   5.191   4.865
 9516TIP3    H228513   6.739   5.282   4.809
 9517TIP3   OH228514   2.851   6.305   5.690
 9517TIP3    H128515   2.938   6.330   5.721
 9517TIP3    H228516   2.854   6.210   5.683
 9518TIP3   OH228517   4.476   1.675   3.808
 9518TIP3    H128518   4.452   1.730   3.733
 9518TIP3    H228519   4.396   1.626   3.828
 9519TIP3   OH228520   0.770   0.383   5.284
 9519TIP3    H128521   0.779   0.307   5.227
 9519TIP3    H228522   0.680   0.378   5.317
 9520TIP3   OH228523   0.738   3.484   5.194
 9520TIP3    H128524   0.677   3.550   5.160
 9520TIP3    H228525   0.685   3.431   5.254
 9521TIP3   OH228526   4.729   4.391   3.835
 9521TIP3    H128527   4.769   4.369   3.919
 9521TIP3    H228528   4.787   4.349   3.770
 9522TIP3   OH228529   4.758   2.882   1.581
 9522TIP3    H128530   4.736   2.973   1.604
 9522TIP3    H228531   4.683   2.831   1.612
 9523TIP3   OH228532   1.662   4.978   3.456
 9523TIP3    H128533   1.724   4.936   3.395
 9523TIP3    H228534   1.589   5.005   3.400
 9524TIP3   OH228535   6.679   3.608   2.066
 9524TIP3    H128536   6.660   3.640   2.153
 9524TIP3    H228537   6.607   3.640   2.011
 9525TIP3   OH228538   1.236   0.587   0.873
 9525TIP3    H128539   1.146   0.574   0.843
 9525TIP3    H228540   1.248   0.522   0.942
 9526TIP3   OH228541   1.778   1.886   4.871
 9526TIP3    H128542   1.764   1.893   4.776
 9526TIP3    H228543   1.795   1.976   4.899
 9527TIP3   OH228544   0.044   4.808   2.952
 9527TIP3    H128545   0.005   4.881   3.000
 9527TIP3    H228546   0.083   4.849   2.874
 9528TIP3   OH228547   2.255   2.822   0.590
 9528TIP3    H128548   2.167   2.857   0.575
 9528TIP3    H228549   2.260   2.743   0.537
 9529TIP3   OH228550   0.943   2.004   4.870
 9529TIP3    H128551   0.953   1.915   4.904
 9529TIP3    H228552   0.865   2.038   4.913
 9530TIP3   OH228553   2.946   0.024   0.476
 9530TIP3    H128554   2.900  -0.036   0.419
 9530TIP3    H228555   3.024   0.050   0.427
 9531TIP3   OH228556   0.145   6.442   3.882
 9531TIP3    H128557   0.131   6.527   3.924
 9531TIP3    H228558   0.087   6.382   3.928
 9532TIP3   OH228559   3.753   4.741   0.547
 9532TIP3    H128560   3.692   4.668   0.556
 9532TIP3    H228561   3.839   4.702   0.564
 9533TIP3   OH228562   5.261   3.500   4.153
 9533TIP3    H128563   5.285   3.429   4.212
 9533TIP3    H228564   5.345   3.531   4.118
 9534TIP3   OH228565   1.759   1.500   3.934
 9534TIP3    H128566   1.742   1.406   3.926
 9534TIP3    H228567   1.799   1.524   3.850
 9535TIP3   OH228568   4.135   2.987   1.584
 9535TIP3    H128569   4.148   2.895   1.607
 9535TIP3    H228570   4.096   3.026   1.663
 9536TIP3   OH228571   2.929   5.699   3.980
 9536TIP3    H128572   2.860   5.763   4.002
 9536TIP3    H228573   3.010   5.741   4.008
 9537TIP3   OH228574   3.888   3.440   2.802
 9537TIP3    H128575   3.869   3.529   2.774
 9537TIP3    H228576   3.984   3.435   2.804
 9538TIP3   OH228577   5.460   6.703   1.295
 9538TIP3    H128578   5.483   6.612   1.314
 9538TIP3    H228579   5.543   6.747   1.280
 9539TIP3   OH228580   0.617   3.044   1.835
 9539TIP3    H128581   0.571   3.079   1.911
 9539TIP3    H228582   0.564   2.969   1.807
 9540TIP3   OH228583   5.630   0.895   5.371
 9540TIP3    H128584   5.585   0.911   5.453
 9540TIP3    H228585   5.684   0.974   5.357
 9541TIP3   OH228586   0.460   0.198   3.335
 9541TIP3    H128587   0.542   0.248   3.325
 9541TIP3    H228588   0.406   0.253   3.392
 9542TIP3   OH228589   5.166   3.352   5.736
 9542TIP3    H128590   5.114   3.295   5.792
 9542TIP3    H228591   5.114   3.433   5.729
 9543TIP3   OH228592   6.287   6.105   2.707
 9543TIP3    H128593   6.222   6.141   2.768
 9543TIP3    H228594   6.364   6.089   2.761
 9544TIP3   OH228595   3.683   5.377   0.990
 9544TIP3    H128596   3.625   5.307   0.959
 9544TIP3    H228597   3.749   5.384   0.922
 9545TIP3   OH228598   4.658   0.657   1.693
 9545TIP3    H128599   4.747   0.635   1.721
 9545TIP3    H228600   4.662   0.653   1.598
 9546TIP3   OH228601   4.395   1.046   2.259
 9546TIP3    H128602   4.475   1.003   2.230
 9546TIP3    H228603   4.413   1.140   2.249
 9547TIP3   OH228604   1.107   3.260   1.869
 9547TIP3    H128605   1.144   3.172   1.862
 9547TIP3    H228606   1.014   3.246   1.882
 9548TIP3   OH228607   3.114   4.182   3.102
 9548TIP3    H128608   3.143   4.091   3.094
 9548TIP3    H228609   3.078   4.188   3.190
 9549TIP3   OH228610   3.336   3.176   1.460
 9549TIP3    H128611   3.337   3.082   1.480
 9549TIP3    H228612   3.303   3.217   1.540
 9550TIP3   OH228613   0.709   0.942   5.796
 9550TIP3    H128614   0.731   0.856   5.833
 9550TIP3    H228615   0.674   0.922   5.709
 9551TIP3   OH228616   1.627   1.022   1.474
 9551TIP3    H128617   1.684   1.099   1.475
 9551TIP3    H228618   1.575   1.032   1.395
 9552TIP3   OH228619   3.931   0.270   4.682
 9552TIP3    H128620   3.991   0.203   4.649
 9552TIP3    H228621   3.983   0.350   4.686
 9553TIP3   OH228622   1.885   2.724   0.534
 9553TIP3    H128623   1.882   2.806   0.485
 9553TIP3    H228624   1.834   2.663   0.481
 9554TIP3   OH228625   5.610   3.923   1.486
 9554TIP3    H128626   5.632   3.834   1.457
 9554TIP3    H228627   5.554   3.910   1.563
 9555TIP3   OH228628   6.113   2.200   2.681
 9555TIP3    H128629   6.171   2.238   2.747
 9555TIP3    H228630   6.162   2.207   2.599
 9556TIP3   OH228631   3.961   6.496   0.955
 9556TIP3    H128632   4.014   6.539   1.022
 9556TIP3    H228633   3.938   6.566   0.894
 9557TIP3   OH228634   0.041   6.619   1.418
 9557TIP3    H128635  -0.045   6.579   1.406
 9557TIP3    H228636   0.059   6.662   1.334
 9558TIP3   OH228637   4.927   1.660   1.400
 9558TIP3    H128638   4.994   1.726   1.388
 9558TIP3    H228639   4.845   1.705   1.382
 9559TIP3   OH228640   1.994   4.169   5.431
 9559TIP3    H128641   2.038   4.124   5.503
 9559TIP3    H228642   2.061   4.178   5.364
 9560TIP3   OH228643   7.083   5.750   2.564
 9560TIP3    H128644   7.059   5.669   2.609
 9560TIP3    H228645   7.036   5.819   2.611
 9561TIP3   OH228646   6.649   2.210   3.688
 9561TIP3    H128647   6.661   2.181   3.598
 9561TIP3    H228648   6.733   2.247   3.712
 9562TIP3   OH228649   3.642   3.041   4.391
 9562TIP3    H128650   3.602   3.047   4.304
 9562TIP3    H228651   3.610   2.958   4.425
 9563TIP3   OH228652   5.651   5.860   3.763
 9563TIP3    H128653   5.739   5.825   3.777
 9563TIP3    H228654   5.593   5.795   3.802
 9564TIP3   OH228655   5.446   1.764   5.266
 9564TIP3    H128656   5.410   1.848   5.293
 9564TIP3    H228657   5.539   1.780   5.251
 9565TIP3   OH228658   4.423   6.291   3.530
 9565TIP3    H128659   4.480   6.358   3.568
 9565TIP3    H228660   4.483   6.227   3.492
 9566TIP3   OH228661   0.500   2.000   3.896
 9566TIP3    H128662   0.509   2.044   3.981
 9566TIP3    H228663   0.589   1.997   3.860
 9567TIP3   OH228664   3.190   3.470   1.267
 9567TIP3    H128665   3.192   3.564   1.251
 9567TIP3    H228666   3.269   3.436   1.225
 9568TIP3   OH228667   2.538   4.461   2.202
 9568TIP3    H128668   2.550   4.369   2.227
 9568TIP3    H228669   2.444   4.471   2.189
 9569TIP3   OH228670   0.822   0.513   4.718
 9569TIP3    H128671   0.849   0.558   4.798
 9569TIP3    H228672   0.790   0.582   4.661
 9570TIP3   OH228673   0.643   5.612   3.930
 9570TIP3    H128674   0.590   5.533   3.935
 9570TIP3    H228675   0.732   5.583   3.950
 9571TIP3   OH228676   4.817   5.436   3.305
 9571TIP3    H128677   4.839   5.395   3.222
 9571TIP3    H228678   4.798   5.527   3.282
 9572TIP3   OH228679   7.174   4.347   0.412
 9572TIP3    H128680   7.091   4.317   0.375
 9572TIP3    H228681   7.164   4.334   0.507
 9573TIP3   OH228682   7.025   2.093   4.481
 9573TIP3    H128683   7.048   2.177   4.521
 9573TIP3    H228684   6.996   2.039   4.554
 9574TIP3   OH228685   5.823   5.619   3.053
 9574TIP3    H128686   5.766   5.621   3.131
 9574TIP3    H228687   5.873   5.700   3.058
 9575TIP3   OH228688   5.347   1.785   1.942
 9575TIP3    H128689   5.391   1.847   1.999
 9575TIP3    H228690   5.291   1.839   1.886
 9576TIP3   OH228691   1.795   6.163   4.084
 9576TIP3    H128692   1.846   6.095   4.128
 9576TIP3    H228693   1.819   6.155   3.992
 9577TIP3   OH228694   2.156   1.104   1.383
 9577TIP3    H128695   2.088   1.101   1.315
 9577TIP3    H228696   2.212   1.029   1.364
 9578TIP3   OH228697   1.104   6.035   4.613
 9578TIP3    H128698   1.064   6.080   4.687
 9578TIP3    H228699   1.190   6.075   4.604
 9579TIP3   OH228700   3.934   2.665   3.650
 9579TIP3    H128701   3.973   2.688   3.566
 9579TIP3    H228702   3.850   2.625   3.627
 9580TIP3   OH228703   2.010   3.269   3.462
 9580TIP3    H128704   1.970   3.189   3.496
 9580TIP3    H228705   2.099   3.242   3.437
 9581TIP3   OH228706   4.292   0.058   2.680
 9581TIP3    H128707   4.288   0.065   2.775
 9581TIP3    H228708   4.202   0.035   2.654
 9582TIP3   OH228709   4.454   1.653   4.094
 9582TIP3    H128710   4.443   1.666   4.000
 9582TIP3    H228711   4.372   1.684   4.132
 9583TIP3   OH228712   3.863   0.190   4.938
 9583TIP3    H128713   3.784   0.243   4.930
 9583TIP3    H228714   3.902   0.193   4.851
 9584TIP3   OH228715   6.297   6.025   5.356
 9584TIP3    H128716   6.302   6.117   5.382
 9584TIP3    H228717   6.388   5.995   5.352
 9585TIP3   OH228718   5.446   5.307   1.943
 9585TIP3    H128719   5.461   5.315   1.849
 9585TIP3    H228720   5.491   5.227   1.969
 9586TIP3   OH228721   7.070   5.926   5.055
 9586TIP3    H128722   7.007   5.930   5.127
 9586TIP3    H228723   7.039   5.991   4.992
 9587TIP3   OH228724   6.360   3.188   1.385
 9587TIP3    H128725   6.422   3.194   1.458
 9587TIP3    H228726   6.373   3.100   1.351
 9588TIP3   OH228727   1.072   0.542   0.552
 9588TIP3    H128728   1.079   0.459   0.599
 9588TIP3    H228729   1.124   0.530   0.473
 9589TIP3   OH228730   1.531   4.944   5.821
 9589TIP3    H128731   1.485   4.870   5.782
 9589TIP3    H228732   1.467   4.983   5.880
 9590TIP3   OH228733   1.995   4.050   3.424
 9590TIP3    H128734   2.009   3.955   3.420
 9590TIP3    H228735   2.078   4.087   3.395
 9591TIP3   OH228736   0.076   1.993   3.726
 9591TIP3    H128737   0.144   2.027   3.667
 9591TIP3    H228738   0.119   1.924   3.776
 9592TIP3   OH228739   0.837   0.138   0.459
 9592TIP3    H128740   0.807   0.228   0.470
 9592TIP3    H228741   0.781   0.102   0.390
 9593TIP3   OH228742   6.098   1.747   1.072
 9593TIP3    H128743   6.186   1.761   1.109
 9593TIP3    H228744   6.070   1.663   1.108
 9594TIP3   OH228745   5.382   0.541   1.820
 9594TIP3    H128746   5.327   0.603   1.868
 9594TIP3    H228747   5.333   0.522   1.740
 9595TIP3   OH228748   5.425   2.600   4.969
 9595TIP3    H128749   5.353   2.562   4.919
 9595TIP3    H228750   5.408   2.572   5.059
 9596TIP3   OH228751   6.152   4.042   2.317
 9596TIP3    H128752   6.222   4.081   2.264
 9596TIP3    H228753   6.167   4.075   2.405
 9597TIP3   OH228754   2.272   2.055   1.137
 9597TIP3    H128755   2.359   2.026   1.164
 9597TIP3    H228756   2.287   2.137   1.090
 9598TIP3   OH228757   6.357   4.942   1.485
 9598TIP3    H128758   6.390   5.000   1.416
 9598TIP3    H228759   6.366   4.993   1.565
 9599TIP3   OH228760   3.342   3.322   4.844
 9599TIP3    H128761   3.391   3.246   4.877
 9599TIP3    H228762   3.250   3.297   4.852
 9600TIP3   OH228763   1.150   3.844   4.492
 9600TIP3    H128764   1.149   3.756   4.530
 9600TIP3    H228765   1.188   3.899   4.561
 9601TIP3   OH228766   5.680   4.891   1.480
 9601TIP3    H128767   5.640   4.811   1.445
 9601TIP3    H228768   5.711   4.865   1.567
 9602TIP3   OH228769   5.441   0.784   1.391
 9602TIP3    H128770   5.467   0.837   1.467
 9602TIP3    H228771   5.358   0.822   1.363
 9603TIP3   OH228772   4.271   5.435   5.320
 9603TIP3    H128773   4.244   5.525   5.337
 9603TIP3    H228774   4.223   5.409   5.241
 9604TIP3   OH228775   1.344   2.924   5.115
 9604TIP3    H128776   1.374   2.937   5.205
 9604TIP3    H228777   1.379   2.998   5.066
 9605TIP3   OH228778   6.694   2.642   0.308
 9605TIP3    H128779   6.629   2.701   0.344
 9605TIP3    H228780   6.644   2.569   0.272
 9606TIP3   OH228781   1.669   1.433   4.967
 9606TIP3    H128782   1.695   1.403   5.054
 9606TIP3    H228783   1.630   1.356   4.926
 9607TIP3   OH228784   2.496   5.558   0.689
 9607TIP3    H128785   2.563   5.493   0.665
 9607TIP3    H228786   2.522   5.588   0.776
 9608TIP3   OH228787   6.373   6.461   0.173
 9608TIP3    H128788   6.352   6.517   0.098
 9608TIP3    H228789   6.324   6.498   0.246
 9609TIP3   OH228790   2.318   1.010   3.019
 9609TIP3    H128791   2.270   0.995   2.938
 9609TIP3    H228792   2.268   0.962   3.085
 9610TIP3   OH228793   3.100   3.160   2.642
 9610TIP3    H128794   3.052   3.209   2.575
 9610TIP3    H228795   3.034   3.105   2.684
 9611TIP3   OH228796   3.423   1.735   2.994
 9611TIP3    H128797   3.398   1.701   3.080
 9611TIP3    H228798   3.340   1.765   2.956
 9612TIP3   OH228799   5.382   4.453   4.512
 9612TIP3    H128800   5.393   4.518   4.582
 9612TIP3    H228801   5.427   4.491   4.437
 9613TIP3   OH228802   4.948   5.501   1.261
 9613TIP3    H128803   4.918   5.573   1.207
 9613TIP3    H228804   4.986   5.438   1.199
 9614TIP3   OH228805   4.239   0.392   0.835
 9614TIP3    H128806   4.279   0.346   0.909
 9614TIP3    H228807   4.145   0.381   0.848
 9615TIP3   OH228808   0.602   3.578   5.538
 9615TIP3    H128809   0.544   3.586   5.463
 9615TIP3    H228810   0.683   3.541   5.502
 9616TIP3   OH228811   6.268   2.195   2.914
 9616TIP3    H128812   6.249   2.118   2.968
 9616TIP3    H228813   6.319   2.162   2.841
 9617TIP3   OH228814   4.218   0.192   0.193
 9617TIP3    H128815   4.312   0.197   0.172
 9617TIP3    H228816   4.198   0.099   0.195
 9618TIP3   OH228817   6.552   2.809   5.245
 9618TIP3    H128818   6.465   2.771   5.254
 9618TIP3    H228819   6.543   2.874   5.175
 9619TIP3   OH228820   4.607   3.373   0.475
 9619TIP3    H128821   4.533   3.315   0.490
 9619TIP3    H228822   4.683   3.325   0.506
 9620TIP3   OH228823   1.797   2.485   0.425
 9620TIP3    H128824   1.813   2.425   0.352
 9620TIP3    H228825   1.709   2.462   0.456
 9621TIP3   OH228826   3.323   6.615   3.646
 9621TIP3    H128827   3.393   6.581   3.702
 9621TIP3    H228828   3.264   6.660   3.705
 9622TIP3   OH228829   1.422   5.388   2.418
 9622TIP3    H128830   1.435   5.478   2.389
 9622TIP3    H228831   1.502   5.342   2.393
 9623TIP3   OH228832   5.357   1.299   4.845
 9623TIP3    H128833   5.297   1.254   4.904
 9623TIP3    H228834   5.371   1.238   4.773
 9624TIP3   OH228835   1.815   1.194   0.687
 9624TIP3    H128836   1.736   1.228   0.730
 9624TIP3    H228837   1.803   1.099   0.689
 9625TIP3   OH228838   6.263   4.598   4.938
 9625TIP3    H128839   6.346   4.613   4.893
 9625TIP3    H228840   6.201   4.580   4.868
 9626TIP3   OH228841   4.858   4.320   2.068
 9626TIP3    H128842   4.912   4.351   1.995
 9626TIP3    H228843   4.917   4.269   2.123
 9627TIP3   OH228844   1.493   6.561   1.795
 9627TIP3    H128845   1.556   6.571   1.866
 9627TIP3    H228846   1.544   6.522   1.724
 9628TIP3   OH228847   5.173   2.857   0.304
 9628TIP3    H128848   5.247   2.808   0.268
 9628TIP3    H228849   5.181   2.847   0.399
 9629TIP3   OH228850   6.972   0.650   5.659
 9629TIP3    H128851   6.975   0.579   5.723
 9629TIP3    H228852   7.061   0.652   5.622
 9630TIP3   OH228853   6.431   6.183   0.865
 9630TIP3    H128854   6.431   6.100   0.816
 9630TIP3    H228855   6.517   6.221   0.846
 9631TIP3   OH228856   1.653   6.031   5.762
 9631TIP3    H128857   1.568   6.073   5.777
 9631TIP3    H228858   1.631   5.943   5.731
 9632TIP3   OH228859   4.820   6.477   1.823
 9632TIP3    H128860   4.866   6.492   1.905
 9632TIP3    H228861   4.821   6.382   1.811
 9633TIP3   OH228862   1.582   3.803   2.345
 9633TIP3    H128863   1.511   3.750   2.309
 9633TIP3    H228864   1.545   3.840   2.425
 9634TIP3   OH228865   6.307   6.242   5.551
 9634TIP3    H128866   6.380   6.303   5.551
 9634TIP3    H228867   6.323   6.185   5.626
 9635TIP3   OH228868   7.112   5.326   1.125
 9635TIP3    H128869   7.061   5.369   1.057
 9635TIP3    H228870   7.048   5.299   1.190
 9636TIP3   OH228871   1.726   5.617   0.033
 9636TIP3    H128872   1.648   5.662  -0.001
 9636TIP3    H228873   1.696   5.529   0.055
 9637TIP3   OH228874   1.920   3.982   4.427
 9637TIP3    H128875   1.830   3.973   4.394
 9637TIP3    H228876   1.949   3.892   4.441
 9638TIP3   OH228877   0.076   6.399   4.746
 9638TIP3    H128878   0.150   6.401   4.806
 9638TIP3    H228879   0.075   6.309   4.713
 9639TIP3   OH228880   3.161   2.197   3.646
 9639TIP3    H128881   3.146   2.196   3.741
 9639TIP3    H228882   3.141   2.287   3.620
 9640TIP3   OH228883   2.736   2.950   1.585
 9640TIP3    H128884   2.772   2.878   1.636
 9640TIP3    H228885   2.807   2.977   1.527
 9641TIP3   OH228886   1.941   1.556   4.961
 9641TIP3    H128887   1.958   1.632   5.017
 9641TIP3    H228888   1.863   1.516   4.999
 9642TIP3   OH228889   2.443   3.639   1.849
 9642TIP3    H128890   2.368   3.688   1.816
 9642TIP3    H228891   2.515   3.661   1.790
 9643TIP3   OH228892   4.119   6.320   1.619
 9643TIP3    H128893   4.203   6.308   1.574
 9643TIP3    H228894   4.071   6.381   1.563
 9644TIP3   OH228895   2.311   1.891   0.781
 9644TIP3    H128896   2.219   1.915   0.772
 9644TIP3    H228897   2.343   1.882   0.692
 9645TIP3   OH228898   5.091   0.126   0.670
 9645TIP3    H128899   5.009   0.084   0.695
 9645TIP3    H228900   5.085   0.214   0.707
 9646TIP3   OH228901   2.755   0.444   5.361
 9646TIP3    H128902   2.822   0.458   5.294
 9646TIP3    H228903   2.804   0.446   5.443
 9647TIP3   OH228904   6.476   5.073   4.421
 9647TIP3    H128905   6.398   5.067   4.366
 9647TIP3    H228906   6.488   5.167   4.435
 9648TIP3   OH228907   0.906   5.127   4.823
 9648TIP3    H128908   0.923   5.059   4.888
 9648TIP3    H228909   0.838   5.182   4.862
 9649TIP3   OH228910   5.155   1.440   4.645
 9649TIP3    H128911   5.061   1.427   4.636
 9649TIP3    H228912   5.194   1.361   4.606
 9650TIP3   OH228913   4.194   5.086   3.248
 9650TIP3    H128914   4.283   5.098   3.282
 9650TIP3    H228915   4.156   5.173   3.249
 9651TIP3   OH228916   4.078   2.488   3.786
 9651TIP3    H128917   4.043   2.520   3.869
 9651TIP3    H228918   4.038   2.545   3.720
 9652TIP3   OH228919   1.330   3.328   2.211
 9652TIP3    H128920   1.411   3.361   2.173
 9652TIP3    H228921   1.356   3.294   2.297
 9653TIP3   OH228922   0.478   6.658   4.710
 9653TIP3    H128923   0.568   6.684   4.731
 9653TIP3    H228924   0.476   6.565   4.729
 9654TIP3   OH228925   6.942   1.119   4.717
 9654TIP3    H128926   7.009   1.174   4.757
 9654TIP3    H228927   6.990   1.065   4.654
 9655TIP3   OH228928   4.567   2.405   4.696
 9655TIP3    H128929   4.552   2.374   4.607
 9655TIP3    H228930   4.662   2.400   4.707
 9656TIP3   OH228931   7.110   4.518   2.367
 9656TIP3    H128932   7.140   4.566   2.291
 9656TIP3    H228933   7.040   4.460   2.334
 9657TIP3   OH228934   0.727   1.639   3.028
 9657TIP3    H128935   0.780   1.622   3.106
 9657TIP3    H228936   0.690   1.727   3.043
 9658TIP3   OH228937   3.121   1.777   0.520
 9658TIP3    H128938   3.137   1.682   0.517
 9658TIP3    H228939   3.043   1.786   0.575
 9659TIP3   OH228940   3.703   0.473   5.525
 9659TIP3    H128941   3.657   0.391   5.544
 9659TIP3    H228942   3.681   0.531   5.598
 9660TIP3   OH228943   2.758   4.455   4.852
 9660TIP3    H128944   2.724   4.416   4.932
 9660TIP3    H228945   2.694   4.523   4.830
 9661TIP3   OH228946   5.870   4.183   5.016
 9661TIP3    H128947   5.955   4.213   5.049
 9661TIP3    H228948   5.860   4.228   4.932
 9662TIP3   OH228949   3.650   2.001   3.346
 9662TIP3    H128950   3.608   1.988   3.431
 9662TIP3    H228951   3.737   1.963   3.356
 9663TIP3   OH228952   5.094   3.967   3.720
 9663TIP3    H128953   5.177   4.013   3.736
 9663TIP3    H228954   5.100   3.939   3.629
 9664TIP3   OH228955   6.147   1.099   3.290
 9664TIP3    H128956   6.166   1.047   3.368
 9664TIP3    H228957   6.231   1.103   3.243
 9665TIP3   OH228958   4.785   5.586   4.839
 9665TIP3    H128959   4.808   5.500   4.872
 9665TIP3    H228960   4.865   5.638   4.848
 9666TIP3   OH228961   5.831   0.415   1.785
 9666TIP3    H128962   5.915   0.407   1.740
 9666TIP3    H228963   5.771   0.449   1.719
 9667TIP3   OH228964   1.368   2.434   5.610
 9667TIP3    H128965   1.338   2.461   5.523
 9667TIP3    H228966   1.463   2.435   5.604
 9668TIP3   OH228967   0.016   5.544   2.097
 9668TIP3    H128968   0.005   5.604   2.171
 9668TIP3    H228969   0.109   5.549   2.077
 9669TIP3   OH228970   0.158   5.406   2.738
 9669TIP3    H128971   0.088   5.373   2.683
 9669TIP3    H228972   0.124   5.488   2.775
 9670TIP3   OH228973   2.784   6.112   5.269
 9670TIP3    H128974   2.745   6.173   5.331
 9670TIP3    H228975   2.844   6.165   5.217
 9671TIP3   OH228976   6.607   3.074   5.506
 9671TIP3    H128977   6.585   3.160   5.542
 9671TIP3    H228978   6.573   3.012   5.570
 9672TIP3   OH228979   6.308   2.241   2.462
 9672TIP3    H128980   6.386   2.275   2.505
 9672TIP3    H228981   6.340   2.202   2.381
 9673TIP3   OH228982   5.534   2.352   4.512
 9673TIP3    H128983   5.516   2.272   4.462
 9673TIP3    H228984   5.549   2.419   4.445
 9674TIP3   OH228985   3.595   2.248   1.284
 9674TIP3    H128986   3.512   2.295   1.287
 9674TIP3    H228987   3.609   2.230   1.191
 9675TIP3   OH228988   3.711   6.415  -0.033
 9675TIP3    H128989   3.768   6.441   0.040
 9675TIP3    H228990   3.623   6.412   0.006
 9676TIP3   OH228991   4.179   5.870   0.277
 9676TIP3    H128992   4.129   5.800   0.234
 9676TIP3    H228993   4.119   5.944   0.280
 9677TIP3   OH228994   4.951   1.126   0.231
 9677TIP3    H128995   5.045   1.131   0.247
 9677TIP3    H228996   4.922   1.050   0.280
 9678TIP3   OH228997   3.437   3.212   3.901
 9678TIP3    H128998   3.387   3.277   3.851
 9678TIP3    H228999   3.424   3.130   3.853
 9679TIP3   OH229000   3.253   5.140   0.424
 9679TIP3    H129001   3.191   5.138   0.351
 9679TIP3    H229002   3.203   5.107   0.499
 9680TIP3   OH229003   2.730   2.021   1.368
 9680TIP3    H129004   2.803   2.072   1.402
 9680TIP3    H229005   2.735   1.938   1.414
 9681TIP3   OH229006   5.755   4.157   4.416
 9681TIP3    H129007   5.739   4.149   4.322
 9681TIP3    H229008   5.806   4.237   4.425
 9682TIP3   OH229009   7.179   0.304   3.349
 9682TIP3    H129010   7.235   0.343   3.281
 9682TIP3    H229011   7.189   0.209   3.336
 9683TIP3   OH229012   0.953   5.310   0.804
 9683TIP3    H129013   0.916   5.270   0.882
 9683TIP3    H229014   1.048   5.297   0.813
 9684TIP3   OH229015   6.185   2.977   3.197
 9684TIP3    H129016   6.223   2.910   3.140
 9684TIP3    H229017   6.231   3.058   3.173
 9685TIP3   OH229018   1.024   3.293   2.403
 9685TIP3    H129019   1.046   3.205   2.371
 9685TIP3    H229020   1.085   3.308   2.475
 9686TIP3   OH229021   5.845   1.640   0.761
 9686TIP3    H129022   5.848   1.575   0.831
 9686TIP3    H229023   5.892   1.598   0.688
 9687TIP3   OH229024   6.750   2.966   2.867
 9687TIP3    H129025   6.663   3.004   2.877
 9687TIP3    H229026   6.735   2.871   2.872
 9688TIP3   OH229027   3.025   3.657   1.911
 9688TIP3    H129028   3.093   3.646   1.844
 9688TIP3    H229029   2.982   3.571   1.915
 9689TIP3   OH229030   1.396   0.712   4.532
 9689TIP3    H129031   1.352   0.777   4.477
 9689TIP3    H229032   1.381   0.629   4.487
 9690TIP3   OH229033   2.819   2.915   0.159
 9690TIP3    H129034   2.816   2.929   0.253
 9690TIP3    H229035   2.840   2.822   0.150
 9691TIP3   OH229036   2.125   5.782   1.254
 9691TIP3    H129037   2.095   5.854   1.310
 9691TIP3    H229038   2.137   5.708   1.313
 9692TIP3   OH229039   4.815   6.066   1.650
 9692TIP3    H129040   4.833   5.984   1.605
 9692TIP3    H229041   4.738   6.047   1.703
 9693TIP3   OH229042   3.138   6.671   1.434
 9693TIP3    H129043   3.126   6.589   1.386
 9693TIP3    H229044   3.164   6.644   1.522
 9694TIP3   OH229045   6.966   2.123   1.106
 9694TIP3    H129046   6.955   2.039   1.060
 9694TIP3    H229047   7.037   2.167   1.059
 9695TIP3   OH229048   5.854  -0.003   3.448
 9695TIP3    H129049   5.906   0.045   3.513
 9695TIP3    H229050   5.817  -0.077   3.497
 9696TIP3   OH229051   1.820   2.172   4.870
 9696TIP3    H129052   1.913   2.162   4.849
 9696TIP3    H229053   1.811   2.263   4.897
 9697TIP3   OH229054   6.529   5.206   2.240
 9697TIP3    H129055   6.604   5.244   2.193
 9697TIP3    H229056   6.542   5.111   2.232
 9698TIP3   OH229057   5.138   0.495   2.237
 9698TIP3    H129058   5.188   0.440   2.177
 9698TIP3    H229059   5.152   0.457   2.323
 9699TIP3   OH229060   0.429   6.163   1.236
 9699TIP3    H129061   0.359   6.105   1.204
 9699TIP3    H229062   0.452   6.128   1.322
 9700TIP3   OH229063   4.002   0.252   1.931
 9700TIP3    H129064   3.979   0.178   1.987
 9700TIP3    H229065   4.014   0.214   1.844
 9701TIP3   OH229066   1.212   1.174   1.005
 9701TIP3    H129067   1.126   1.201   1.036
 9701TIP3    H229068   1.226   1.088   1.047
 9702TIP3   OH229069   5.403   0.273   5.510
 9702TIP3    H129070   5.469   0.331   5.473
 9702TIP3    H229071   5.391   0.205   5.444
 9703TIP3   OH229072   1.467   1.576   2.859
 9703TIP3    H129073   1.443   1.638   2.928
 9703TIP3    H229074   1.444   1.490   2.895
 9704TIP3   OH229075   4.812   3.106   3.768
 9704TIP3    H129076   4.879   3.163   3.806
 9704TIP3    H229077   4.850   3.018   3.773
 9705TIP3   OH229078   0.081   1.111   5.013
 9705TIP3    H129079   0.041   1.195   4.990
 9705TIP3    H229080   0.052   1.096   5.103
 9706TIP3   OH229081   1.980   6.649   5.369
 9706TIP3    H129082   1.989   6.600   5.287
 9706TIP3    H229083   1.953   6.736   5.343
 9707TIP3   OH229084   1.171   3.328   2.644
 9707TIP3    H129085   1.224   3.312   2.721
 9707TIP3    H229086   1.231   3.370   2.582
 9708TIP3   OH229087   1.532   1.773   0.316
 9708TIP3    H129088   1.530   1.818   0.401
 9708TIP3    H229089   1.472   1.699   0.326
 9709TIP3   OH229090   2.058   5.027   0.962
 9709TIP3    H129091   2.151   5.004   0.958
 9709TIP3    H229092   2.049   5.079   1.042
 9710TIP3   OH229093   0.654   1.713   0.890
 9710TIP3    H129094   0.592   1.657   0.937
 9710TIP3    H229095   0.602   1.788   0.861
 9711TIP3   OH229096   0.275   5.630   0.014
 9711TIP3    H129097   0.248   5.718  -0.011
 9711TIP3    H229098   0.206   5.600   0.073
 9712TIP3   OH229099   1.301   0.531   4.341
 9712TIP3    H129100   1.248   0.582   4.280
 9712TIP3    H229101   1.243   0.461   4.371
 9713TIP3   OH229102   5.626   1.227   1.403
 9713TIP3    H129103   5.584   1.179   1.475
 9713TIP3    H229104   5.605   1.319   1.420
 9714TIP3   OH229105   5.912   3.359   1.149
 9714TIP3    H129106   5.968   3.395   1.079
 9714TIP3    H229107   5.965   3.289   1.188
 9715TIP3   OH229108   0.811   3.055   1.336
 9715TIP3    H129109   0.823   3.150   1.341
 9715TIP3    H229110   0.719   3.044   1.314
 9716TIP3   OH229111   4.556   3.657   5.730
 9716TIP3    H129112   4.563   3.614   5.644
 9716TIP3    H229113   4.470   3.700   5.728
 9717TIP3   OH229114   1.506   1.148   0.970
 9717TIP3    H129115   1.413   1.163   0.983
 9717TIP3    H229116   1.548   1.229   0.999
 9718TIP3   OH229117   1.418   0.828   0.467
 9718TIP3    H129118   1.441   0.919   0.453
 9718TIP3    H229119   1.364   0.804   0.391
 9719TIP3   OH229120   4.489   2.037   1.862
 9719TIP3    H129121   4.513   1.955   1.906
 9719TIP3    H229122   4.400   2.055   1.895
 9720TIP3   OH229123   6.374   6.011   0.629
 9720TIP3    H129124   6.410   5.961   0.556
 9720TIP3    H229125   6.323   6.080   0.587
 9721TIP3   OH229126   6.545   6.597   2.748
 9721TIP3    H129127   6.547   6.503   2.729
 9721TIP3    H229128   6.626   6.614   2.795
 9722TIP3   OH229129   3.124   3.505   0.014
 9722TIP3    H129130   3.193   3.448   0.047
 9722TIP3    H229131   3.045   3.451   0.017
 9723TIP3   OH229132   0.572   4.459   5.165
 9723TIP3    H129133   0.582   4.418   5.251
 9723TIP3    H229134   0.535   4.390   5.109
 9724TIP3   OH229135   7.161   2.569   4.172
 9724TIP3    H129136   7.141   2.661   4.152
 9724TIP3    H229137   7.229   2.574   4.240
 9725TIP3   OH229138   1.570   0.165   2.830
 9725TIP3    H129139   1.532   0.247   2.861
 9725TIP3    H229140   1.662   0.170   2.853
 9726TIP3   OH229141   3.354   1.302   5.091
 9726TIP3    H129142   3.298   1.372   5.124
 9726TIP3    H229143   3.301   1.260   5.023
 9727TIP3   OH229144   3.516   6.130   4.788
 9727TIP3    H129145   3.578   6.085   4.730
 9727TIP3    H229146   3.571   6.181   4.848
 9728TIP3   OH229147   4.173   5.397   2.232
 9728TIP3    H129148   4.119   5.468   2.268
 9728TIP3    H229149   4.140   5.318   2.274
 9729TIP3   OH229150   3.606   4.280   2.771
 9729TIP3    H129151   3.623   4.305   2.862
 9729TIP3    H229152   3.513   4.257   2.769
 9730TIP3   OH229153   2.732   2.036   3.930
 9730TIP3    H129154   2.748   2.038   3.836
 9730TIP3    H229155   2.697   1.949   3.948
 9731TIP3   OH229156   2.343   2.329   2.884
 9731TIP3    H129157   2.263   2.380   2.897
 9731TIP3    H229158   2.321   2.268   2.814
 9732TIP3   OH229159   6.411   6.367   4.092
 9732TIP3    H129160   6.477   6.394   4.028
 9732TIP3    H229161   6.332   6.415   4.066
 9733TIP3   OH229162   2.621   4.985   2.124
 9733TIP3    H129163   2.693   5.044   2.100
 9733TIP3    H229164   2.657   4.931   2.195
 9734TIP3   OH229165   0.805   5.335   0.315
 9734TIP3    H129166   0.714   5.345   0.344
 9734TIP3    H229167   0.850   5.411   0.352
 9735TIP3   OH229168   5.103   5.128   2.615
 9735TIP3    H129169   5.086   5.083   2.698
 9735TIP3    H229170   5.063   5.071   2.548
 9736TIP3   OH229171   3.187   5.407   1.354
 9736TIP3    H129172   3.182   5.489   1.402
 9736TIP3    H229173   3.247   5.353   1.405
 9737TIP3   OH229174   5.579   1.978   0.223
 9737TIP3    H129175   5.507   2.021   0.177
 9737TIP3    H229176   5.564   1.997   0.316
 9738TIP3   OH229177   6.585   2.055   1.021
 9738TIP3    H129178   6.605   2.026   0.931
 9738TIP3    H229179   6.653   2.015   1.075
 9739TIP3   OH229180   1.180   1.511   1.615
 9739TIP3    H129181   1.124   1.583   1.644
 9739TIP3    H229182   1.265   1.529   1.657
 9740TIP3   OH229183   2.056   1.834   2.769
 9740TIP3    H129184   2.038   1.910   2.824
 9740TIP3    H229185   2.060   1.868   2.680
 9741TIP3   OH229186   4.491   2.881   5.040
 9741TIP3    H129187   4.428   2.935   4.993
 9741TIP3    H229188   4.461   2.791   5.025
 9742TIP3   OH229189   4.384   3.191   0.191
 9742TIP3    H129190   4.419   3.239   0.265
 9742TIP3    H229191   4.455   3.133   0.163
 9743TIP3   OH229192   3.849   2.060   5.515
 9743TIP3    H129193   3.874   2.100   5.431
 9743TIP3    H229194   3.817   1.973   5.491
 9744TIP3   OH229195   1.578   0.520   5.773
 9744TIP3    H129196   1.553   0.604   5.810
 9744TIP3    H229197   1.538   0.520   5.686
 9745TIP3   OH229198   0.316   3.844   1.845
 9745TIP3    H129199   0.377   3.866   1.915
 9745TIP3    H229200   0.366   3.859   1.764
 9746TIP3   OH229201   4.717   4.986   3.885
 9746TIP3    H129202   4.758   5.021   3.806
 9746TIP3    H229203   4.623   4.992   3.868
 9747TIP3   OH229204   6.131   2.487   1.340
 9747TIP3    H129205   6.071   2.415   1.358
 9747TIP3    H229206   6.107   2.555   1.404
 9748TIP3   OH229207   3.427   1.467   0.417
 9748TIP3    H129208   3.473   1.549   0.399
 9748TIP3    H229209   3.465   1.435   0.499
 9749TIP3   OH229210   2.394   2.592   4.748
 9749TIP3    H129211   2.423   2.504   4.724
 9749TIP3    H229212   2.474   2.642   4.759
   7.21251   6.80003   5.88899   0.00000   0.00000  -2.40418   0.00000  -2.40418  -3.40001
