Title
29212
    1ASP      N    1   1.577   2.949   2.055 -0.7570  0.1390  0.1294
    1ASP    HT1    2   1.620   3.006   2.131 -0.9909  1.4263 -0.6836
    1ASP    HT2    3   1.575   2.855   2.099  1.0375 -0.7753 -1.5414
    1ASP    HT3    4   1.479   2.978   2.037 -1.3624 -1.8452  0.0118
    1ASP     CA    5   1.672   2.957   1.937 -0.2675 -0.6761 -0.0200
    1ASP     HA    6   1.623   2.897   1.861 -2.0659  0.4716  0.1701
    1ASP     CB    7   1.704   3.103   1.897 -0.4118 -0.0211  0.3244
    1ASP    HB1    8   1.768   3.102   1.806 -0.7548 -1.6470  0.0719
    1ASP    HB2    9   1.739   3.164   1.983  0.2230 -3.2901  2.5825
    1ASP     CG   10   1.576   3.163   1.849  0.4593  0.3421 -0.5410
    1ASP    OD1   11   1.471   3.092   1.838  0.2557  0.0506 -0.0148
    1ASP    OD2   12   1.563   3.283   1.821 -0.8287  0.0589 -0.3042
    1ASP      C   13   1.799   2.887   1.980 -0.5900  0.7302  0.0351
    1ASP      O   14   1.812   2.764   1.969  0.0409 -0.1182 -0.4094
    2GLY      N   15   1.897   2.959   2.036 -0.0067  0.0556 -0.3929
    2GLY     HN   16   1.902   3.058   2.038  1.1955  0.0085  0.6293
    2GLY     CA   17   2.022   2.903   2.091  1.3181 -0.5700 -0.3099
    2GLY    HA1   18   2.061   2.975   2.161  0.2391  0.9802 -1.2603
    2GLY    HA2   19   2.099   2.893   2.015  1.3026 -0.9103 -0.2841
    2GLY      C   20   2.013   2.779   2.186 -0.1435  0.0128  0.1409
    2GLY      O   21   1.914   2.767   2.266 -0.5258 -0.0582  0.8321
    3ASP      N   22   2.118   2.695   2.173 -0.1270 -0.1573  0.2155
    3ASP     HN   23   2.186   2.717   2.103 -0.2122  0.6772  0.3858
    3ASP     CA   24   2.157   2.585   2.255 -0.0641  0.5272  0.8510
    3ASP     HA   25   2.067   2.542   2.295 -1.0305 -2.0898 -3.4274
    3ASP     CB   26   2.252   2.476   2.187 -0.5066 -0.2233  0.1376
    3ASP    HB1   27   2.301   2.405   2.257  0.5207 -0.0367 -0.3766
    3ASP    HB2   28   2.326   2.538   2.133  1.3943 -0.6147  2.1542
    3ASP     CG   29   2.169   2.393   2.093 -0.3746 -0.4353  1.0464
    3ASP    OD1   30   2.234   2.303   2.031 -0.4957  0.2631  0.1819
    3ASP    OD2   31   2.042   2.405   2.091  0.3552 -0.1525 -0.1456
    3ASP      C   32   2.243   2.641   2.368 -0.2247 -0.5627 -0.1456
    3ASP      O   33   2.297   2.753   2.369  0.0520  0.1855 -0.2139
    4GLY      N   34   2.251   2.570   2.485 -0.6885 -0.1670 -0.4083
    4GLY     HN   35   2.183   2.497   2.494 -0.3369 -0.6164 -1.2909
    4GLY     CA   36   2.325   2.605   2.610 -0.1954 -0.3585  0.2315
    4GLY    HA1   37   2.291   2.544   2.692  0.2430  0.5347  1.0920
    4GLY    HA2   38   2.310   2.710   2.632  0.6452  0.3574 -2.2333
    4GLY      C   39   2.469   2.578   2.599 -0.1061 -0.7188 -0.0971
    4GLY      O   40   2.526   2.550   2.490 -0.1235 -0.0783  0.5879
    5PRO      N   41   2.537   2.578   2.715  0.1325  0.5918 -0.3237
    5PRO     CD   42   2.496   2.656   2.834 -0.6560 -0.2936  0.1758
    5PRO    HD1   43   2.415   2.603   2.887 -2.0207 -0.8142 -2.2737
    5PRO    HD2   44   2.465   2.757   2.800 -0.6294 -0.3126  0.0934
    5PRO     CA   45   2.679   2.544   2.728  0.0433  0.6588  0.9333
    5PRO     HA   46   2.735   2.611   2.665 -0.0668  1.3619  1.5687
    5PRO     CB   47   2.707   2.552   2.877  0.0754  0.1919 -0.1496
    5PRO    HB1   48   2.815   2.557   2.903 -0.4416 -0.9668  2.4824
    5PRO    HB2   49   2.667   2.463   2.930 -0.2616 -0.2560 -1.1278
    5PRO     CG   50   2.625   2.679   2.915 -0.5034  0.1388  0.0188
    5PRO    HG1   51   2.605   2.705   3.022  1.9327  0.7017  0.3997
    5PRO    HG2   52   2.684   2.765   2.878 -1.2181  0.8947  0.5810
    5PRO      C   53   2.714   2.407   2.675  0.0773  0.0797  0.8877
    5PRO      O   54   2.633   2.315   2.679  0.1334 -0.4122 -0.3901
    6GLY      N   55   2.837   2.390   2.609  0.5124  0.8895  0.2614
    6GLY     HN   56   2.900   2.466   2.594 -0.5096  1.6261 -0.4640
    6GLY     CA   57   2.885   2.255   2.568  0.9350 -0.2578 -0.3459
    6GLY    HA1   58   2.971   2.265   2.504  1.5678  0.5844  0.6041
    6GLY    HA2   59   2.802   2.201   2.526  0.9008 -2.3511  2.1443
    6GLY      C   60   2.938   2.171   2.675 -0.3434 -0.2137 -0.1347
    6GLY      O   61   2.935   2.223   2.788  0.5700  0.1037  0.3036
    7ASP      N   62   2.989   2.056   2.636 -0.5263 -0.4105  0.0456
    7ASP     HN   63   3.020   2.036   2.543  1.5013 -1.1457  0.8142
    7ASP     CA   64   3.028   1.955   2.733  0.4725  0.0182 -0.3840
    7ASP     HA   65   2.981   1.962   2.830  0.1966 -1.8024 -0.3416
    7ASP     CB   66   3.007   1.819   2.670  0.4504  0.6292 -0.2008
    7ASP    HB1   67   3.050   1.737   2.732 -1.2600 -0.6679 -0.6372
    7ASP    HB2   68   3.037   1.800   2.564 -0.9712 -1.6569 -0.2752
    7ASP     CG   69   2.857   1.786   2.671 -0.2435  0.4217 -0.6443
    7ASP    OD1   70   2.789   1.842   2.758 -0.3895  0.4131  0.0066
    7ASP    OD2   71   2.809   1.708   2.582  0.6714  0.0195 -0.2903
    7ASP      C   72   3.181   1.977   2.750 -0.4216  0.5272  0.8040
    7ASP      O   73   3.243   1.981   2.645  0.4750  0.7753  0.1307
    8PRO      N   74   3.243   1.996   2.865 -0.1253  0.6700  0.4985
    8PRO     CD   75   3.168   2.040   2.983 -0.1079 -0.2275  0.7244
    8PRO    HD1   76   3.101   1.958   3.016 -0.2609 -0.6168 -0.5233
    8PRO    HD2   77   3.105   2.129   2.963  0.4015  0.1932  0.9790
    8PRO     CA   78   3.384   1.983   2.893  0.3175 -0.1129  0.3050
    8PRO     HA   79   3.431   2.076   2.863 -0.5570  0.8298  1.7102
    8PRO     CB   80   3.386   1.955   3.044  0.5867 -0.4296 -0.6067
    8PRO    HB1   81   3.489   1.976   3.080  0.9517 -1.2639 -1.1295
    8PRO    HB2   82   3.352   1.850   3.054 -0.7244 -0.0498 -0.8890
    8PRO     CG   83   3.277   2.061   3.091 -0.7721  0.1571  0.0789
    8PRO    HG1   84   3.235   2.038   3.192  2.3257  1.8233  1.8930
    8PRO    HG2   85   3.329   2.159   3.100 -1.0893  0.2815  0.5929
    8PRO      C   86   3.468   1.875   2.814  0.1412 -0.5353 -0.5509
    8PRO      O   87   3.409   1.771   2.784 -0.2282 -0.0680  0.8064
    9GLY      N   88   3.591   1.912   2.774 -0.1566  0.4983  0.7419
    9GLY     HN   89   3.634   1.995   2.808  0.0109 -0.0512  1.9368
    9GLY     CA   90   3.687   1.829   2.703  0.1574  0.3893  0.4493
    9GLY    HA1   91   3.769   1.888   2.666 -1.0306  1.1101 -1.1696
    9GLY    HA2   92   3.632   1.780   2.624 -1.0510  0.9135  0.9424
    9GLY      C   93   3.746   1.714   2.785  0.2510  0.0701  0.4558
    9GLY      O   94   3.736   1.705   2.908  0.1107  0.3260  0.1826
   10ASP      N   95   3.809   1.618   2.712 -0.4294  0.0148  0.1868
   10ASP     HN   96   3.816   1.604   2.613 -0.7259 -2.9343  0.5141
   10ASP     CA   97   3.872   1.511   2.787 -0.7521 -0.2773 -0.3136
   10ASP     HA   98   3.820   1.497   2.880 -1.5128 -0.7283 -0.7921
   10ASP     CB   99   3.863   1.378   2.704  0.1581  0.6800  0.7753
   10ASP    HB1  100   3.919   1.293   2.749  1.6828  0.7304 -0.9317
   10ASP    HB2  101   3.905   1.402   2.605 -0.5859  1.2348  0.5852
   10ASP     CG  102   3.721   1.346   2.670 -0.0239 -0.3552  0.0164
   10ASP    OD1  103   3.629   1.349   2.760 -0.2925 -0.0855  1.0355
   10ASP    OD2  104   3.695   1.296   2.559 -0.9746  0.2337  0.0491
   10ASP      C  105   4.022   1.541   2.819 -0.2714  0.0089  0.2241
   10ASP      O  106   4.099   1.580   2.738 -0.1635 -0.5966  0.1788
   11GLY      N  107   4.054   1.518   2.950  0.3752  0.5105  0.3879
   11GLY     HN  108   3.985   1.475   3.007  1.8265 -2.0871  0.3281
   11GLY     CA  109   4.181   1.549   3.006  0.0539 -0.3974 -0.1001
   11GLY    HA1  110   4.258   1.543   2.930 -0.6469  1.5600 -1.0241
   11GLY    HA2  111   4.203   1.476   3.082 -0.9707 -1.3971 -0.7317
   11GLY      C  112   4.180   1.689   3.068  0.6297 -0.1838 -0.6511
   11GLY    OT1  113   4.246   1.697   3.172  0.2241 -0.4453  0.1861
   11GLY    OT2  114   4.123   1.791   3.017  0.3505  0.2016 -0.2262
   12SOD    SOD  115   6.115   6.696   0.497 -0.0771 -0.3120 -0.3644
   13SOD    SOD  116   2.331   0.592   4.860 -0.3878 -0.5909 -0.1296
   14SOD    SOD  117   6.010   2.475   0.884  0.1075  0.3571  0.2830
   15SOD    SOD  118   1.405   3.576   3.939  0.2256  0.3860  0.3227
   16SOD    SOD  119   1.640   2.636   4.222 -0.2119 -0.3738 -0.1830
   17SOD    SOD  120   5.111   2.320   3.038 -0.0126 -0.2971  0.6488
   18SOD    SOD  121   3.914   0.598   4.550  0.3118  0.1329  0.2674
   19SOD    SOD  122   6.879   4.606   5.756  0.1633 -0.6639 -0.1022
   20SOD    SOD  123   1.929   5.964   3.959 -0.5172  0.1981 -0.0212
   21SOD    SOD  124   6.984   3.353   5.368 -0.2036 -0.0656  0.2320
   22SOD    SOD  125   1.002   1.020   2.415 -0.3896 -0.3530  0.0461
   23SOD    SOD  126   3.365   1.700   1.217 -0.0286  0.0807  0.0985
   24SOD    SOD  127   7.103   0.797   0.009 -0.2038  0.4713  0.4122
   25SOD    SOD  128   1.751   4.895   3.732  0.0877  0.1281 -0.2948
   26SOD    SOD  129   0.939   3.216   0.809 -0.2584 -0.5226 -0.4500
   27SOD    SOD  130   0.839   4.557   0.014 -0.7680  0.1659  0.4362
   28SOD    SOD  131   0.267   2.024   0.446 -0.0006 -0.0116  0.2694
   29SOD    SOD  132   4.185   5.694   2.476 -0.5106 -0.2671  0.4027
   30SOD    SOD  133   6.070   3.654   5.439 -0.2758 -0.3538  0.0998
   31SOD    SOD  134   5.948   4.267   1.946  0.7117  0.2129 -0.4271
   32SOD    SOD  135   2.534   4.052   1.893 -0.0769 -0.0284 -0.3173
   33SOD    SOD  136   5.763   0.354   4.119  0.0284  0.1865  0.1170
   34SOD    SOD  137   6.895   2.878   3.589 -0.0498  0.4354 -0.1783
   35SOD    SOD  138   2.704   2.254   1.990  0.2015 -0.0950  0.0602
   36SOD    SOD  139   2.752   4.396   2.206  0.2219 -0.1343 -0.1167
   37SOD    SOD  140   6.276   0.977   5.188 -0.2362 -0.1792 -0.2840
   38SOD    SOD  141   2.255   0.915   2.851 -0.3625 -0.2294  0.0997
   39SOD    SOD  142   5.602   5.110   0.696 -0.4381  0.2527  0.8893
   40SOD    SOD  143   0.972   1.432   5.465 -0.1926  0.2940 -0.1792
   41SOD    SOD  144   1.291   3.707   1.648  0.1959  0.0674 -0.6304
   42SOD    SOD  145   5.880   1.362   2.276  0.1736  0.5780  0.1050
   43CLA    CLA  146   0.329   0.361   0.022  0.2558 -0.0099  0.3784
   44CLA    CLA  147   4.052   0.075   4.849  0.0631 -0.0621  0.0141
   45CLA    CLA  148   5.280   0.158   2.484  0.0135 -0.0650  0.1774
   46CLA    CLA  149   1.919   0.794   4.773  0.2674 -0.1474  0.1624
   47CLA    CLA  150   4.833   4.657   3.077  0.3157 -0.2058 -0.1668
   48CLA    CLA  151   5.912   1.229   4.121 -0.2563  0.1777  0.0452
   49CLA    CLA  152   1.620   5.790   5.291 -0.0038  0.0691  0.0722
   50CLA    CLA  153   7.122   3.806   0.592 -0.0350 -0.0368  0.3410
   51CLA    CLA  154   2.930   2.989   1.926 -0.4192  0.1189 -0.2704
   52CLA    CLA  155   2.699   0.161   4.504 -0.0378  0.0462  0.0031
   53CLA    CLA  156   5.570   3.190   2.566  0.0587 -0.3424 -0.0559
   54CLA    CLA  157   1.959   4.006   4.905  0.4213 -0.2460 -0.0330
   55CLA    CLA  158   4.527   4.630   4.836  0.6168  0.1065  0.0589
   56CLA    CLA  159   6.087   3.846   1.103 -0.6658  0.0487  0.0058
   57CLA    CLA  160   3.050   4.920   3.093  0.4948 -0.1993  0.2913
   58CLA    CLA  161   6.833   1.886   5.092 -0.1154 -0.3403  0.1146
   59CLA    CLA  162   2.234   1.999   5.393  0.0688 -0.0877  0.0908
   60CLA    CLA  163   1.032   0.376   3.593 -0.1035  0.4840 -0.3446
   61CLA    CLA  164   5.650   4.275   0.800 -0.2464  0.2201 -0.2008
   62CLA    CLA  165   4.878   5.581   3.090 -0.3566  0.0285 -0.0376
   63CLA    CLA  166   1.707   3.111   0.482  0.1078  0.4445  0.7270
   64CLA    CLA  167   0.993   3.441   2.617  0.6998  0.4719 -0.3243
   65CLA    CLA  168   0.865   6.089   5.325 -0.0368  0.3295  0.3298
   66CLA    CLA  169   3.815   3.035   1.859  0.0545  0.4022  0.4299
   67CLA    CLA  170   4.995   6.696   4.906  0.2970  0.3661 -0.0184
   68CLA    CLA  171   7.036   1.546   2.245  0.1342 -0.1274  0.3076
   69CLA    CLA  172   1.773   4.893   2.585 -0.1212  0.2042  0.3562
   70TIP3   OH2  173   2.985   3.801   3.079 -0.0455  0.2973 -0.0572
   70TIP3    H1  174   3.066   3.801   3.131 -0.7897  0.5179  1.1587
   70TIP3    H2  175   2.981   3.890   3.043 -0.6005  0.8681  1.3280
   71TIP3   OH2  176   0.965   1.022   5.537 -0.0422  0.1813 -0.4539
   71TIP3    H1  177   1.055   0.989   5.534 -0.2496 -0.3398 -1.3342
   71TIP3    H2  178   0.955   1.058   5.625  0.8011 -0.4169 -0.1030
   72TIP3   OH2  179   0.843   2.107   2.840  0.1933 -0.0783 -0.0386
   72TIP3    H1  180   0.765   2.113   2.785  0.4753  1.0171 -0.3661
   72TIP3    H2  181   0.820   2.045   2.908 -1.3510  0.9831  0.4669
   73TIP3   OH2  182   0.990   4.879   2.010 -0.1900 -0.2021 -0.4492
   73TIP3    H1  183   0.961   4.851   1.923  0.5930  1.6098 -1.3522
   73TIP3    H2  184   1.085   4.888   2.001 -0.1916  0.7309  0.3744
   74TIP3   OH2  185   0.675   2.819   1.080  0.3199 -0.1342  0.0330
   74TIP3    H1  186   0.600   2.879   1.081  1.7212  1.6844  0.5920
   74TIP3    H2  187   0.678   2.783   1.169  0.9347  0.9259  0.4660
   75TIP3   OH2  188   5.305   5.408   3.362  0.5130  0.6739  0.0992
   75TIP3    H1  189   5.279   5.322   3.327  0.3754  1.3418 -1.5182
   75TIP3    H2  190   5.281   5.404   3.454 -1.8386 -0.1433 -0.4709
   76TIP3   OH2  191   2.149   5.619   4.307 -0.0433  0.2447  1.1511
   76TIP3    H1  192   2.171   5.708   4.334 -0.5373  0.5018  0.7268
   76TIP3    H2  193   2.054   5.615   4.317 -0.3442  0.5438 -1.0693
   77TIP3   OH2  194   2.491   0.198   5.076  0.6368 -0.4101 -0.3870
   77TIP3    H1  195   2.502   0.293   5.079  0.4471 -0.3951  2.2419
   77TIP3    H2  196   2.535   0.167   5.155 -0.4580 -2.3976 -0.5016
   78TIP3   OH2  197   0.500   0.589   1.491 -0.2641 -0.0069  0.3033
   78TIP3    H1  198   0.498   0.685   1.494  0.8873  0.1272 -1.5325
   78TIP3    H2  199   0.409   0.564   1.475 -0.8345  0.6507  2.2155
   79TIP3   OH2  200   2.625   5.506   1.805  0.1162  0.2222  0.0151
   79TIP3    H1  201   2.652   5.532   1.894 -0.0474  1.2418 -0.2164
   79TIP3    H2  202   2.694   5.540   1.748 -0.1939  0.3012 -0.3180
   80TIP3   OH2  203   1.637   4.975   1.919  0.1412 -0.1131  0.1091
   80TIP3    H1  204   1.610   5.067   1.915  1.2343  0.1637 -2.2403
   80TIP3    H2  205   1.594   4.934   1.844  1.3237 -1.0372 -0.0865
   81TIP3   OH2  206   2.922   2.393   1.537  0.1615  0.5571 -0.1608
   81TIP3    H1  207   2.870   2.462   1.495 -0.2727 -0.0992 -0.7139
   81TIP3    H2  208   2.989   2.441   1.586 -1.4216  1.4752  1.2468
   82TIP3   OH2  209   4.391   3.777   5.026  0.0478  0.2716  0.4442
   82TIP3    H1  210   4.320   3.781   4.962  0.6338  1.1253 -0.1632
   82TIP3    H2  211   4.346   3.770   5.110 -0.7375 -2.1394 -0.0946
   83TIP3   OH2  212   3.101   1.519   3.369 -0.7100 -0.0274 -0.6156
   83TIP3    H1  213   3.086   1.543   3.461  0.8108  0.9821 -0.5936
   83TIP3    H2  214   3.137   1.431   3.373  1.6956  0.9202 -0.0046
   84TIP3   OH2  215   0.593   5.448   1.918  0.0409 -0.0414  0.3422
   84TIP3    H1  216   0.590   5.521   1.980 -0.8901  0.3021 -0.0942
   84TIP3    H2  217   0.578   5.371   1.972  1.5856  0.0110  0.8971
   85TIP3   OH2  218   6.293   2.512   2.360 -0.2071  0.0113 -0.2595
   85TIP3    H1  219   6.378   2.484   2.326  0.4877  1.0994  0.5169
   85TIP3    H2  220   6.236   2.511   2.283  0.4076 -1.0296 -0.7418
   86TIP3   OH2  221   6.685   5.888   3.199  0.1203  0.3734  0.9607
   86TIP3    H1  222   6.633   5.941   3.138  2.0052 -0.9709 -1.9991
   86TIP3    H2  223   6.622   5.824   3.234 -0.7296  0.0964 -0.9290
   87TIP3   OH2  224   6.629   1.893   1.020 -0.1242  0.0652 -0.5590
   87TIP3    H1  225   6.703   1.859   1.071  0.8804  2.5031 -0.2481
   87TIP3    H2  226   6.552   1.868   1.070  0.5669 -1.3082 -0.1326
   88TIP3   OH2  227   1.408   4.315   3.508  0.5713  0.1666 -0.7757
   88TIP3    H1  228   1.336   4.324   3.446  0.5609 -1.3877 -1.0345
   88TIP3    H2  229   1.463   4.247   3.470  0.7863 -0.5165  0.7058
   89TIP3   OH2  230   1.266   2.675   3.729 -0.2620 -0.5407  0.1866
   89TIP3    H1  231   1.324   2.677   3.653 -1.6491  0.5516 -0.8978
   89TIP3    H2  232   1.256   2.582   3.749  2.6944 -0.7429  1.1247
   90TIP3   OH2  233   5.518   2.442   0.129  0.2687 -0.3800  0.2954
   90TIP3    H1  234   5.606   2.447   0.166  0.7084 -1.1741 -0.6012
   90TIP3    H2  235   5.510   2.352   0.098 -0.4988 -0.0521 -0.5008
   91TIP3   OH2  236   6.301   1.540   0.654 -0.7584  0.2028 -0.2563
   91TIP3    H1  237   6.240   1.557   0.726 -1.7328 -1.2551 -0.6853
   91TIP3    H2  238   6.388   1.550   0.693 -1.2648  0.7166  0.7857
   92TIP3   OH2  239   1.689   5.580   5.532  0.2914 -0.4922 -0.2990
   92TIP3    H1  240   1.672   5.668   5.498  1.1677 -0.3454 -0.3706
   92TIP3    H2  241   1.606   5.555   5.574  0.1356  0.5161  0.0411
   93TIP3   OH2  242   1.358   5.367   3.934  0.5114 -0.1323 -0.0157
   93TIP3    H1  243   1.410   5.388   3.857  0.0922  1.0661  0.0046
   93TIP3    H2  244   1.422   5.342   4.000  0.8474 -1.6187 -0.8641
   94TIP3   OH2  245   6.195   0.097   4.052  0.4932  0.2241 -0.0949
   94TIP3    H1  246   6.118   0.048   4.080  0.2575 -0.3298 -1.6284
   94TIP3    H2  247   6.161   0.160   3.988  0.9253  1.8372  1.1841
   95TIP3   OH2  248   5.132   6.586   1.966 -0.0331 -0.0812 -0.0003
   95TIP3    H1  249   5.085   6.652   2.018 -0.0609 -0.2663  0.2096
   95TIP3    H2  250   5.221   6.589   1.999  0.0470  0.0896 -0.2251
   96TIP3   OH2  251   0.604   1.652   1.006  0.0031 -0.3705 -0.6211
   96TIP3    H1  252   0.638   1.677   1.092  1.3852  1.1396 -1.5314
   96TIP3    H2  253   0.682   1.646   0.951 -1.0391  1.9159 -2.5216
   97TIP3   OH2  254   3.771   4.831   1.393 -0.0478  0.1143  0.2587
   97TIP3    H1  255   3.695   4.882   1.366 -1.7191 -1.8424  0.9678
   97TIP3    H2  256   3.818   4.813   1.312 -0.8778  0.5457 -0.3308
   98TIP3   OH2  257   5.592   0.041   4.400 -0.1034  0.2038 -0.0681
   98TIP3    H1  258   5.551   0.126   4.415 -2.4591 -1.1421  1.8631
   98TIP3    H2  259   5.577  -0.007   4.481 -1.7156 -3.1254 -2.1174
   99TIP3   OH2  260   0.496   1.186   1.986 -0.0432  0.0796 -0.0708
   99TIP3    H1  261   0.475   1.232   1.905 -0.0636 -0.1722 -0.2099
   99TIP3    H2  262   0.511   1.255   2.050 -0.4189  0.2761 -0.1901
  100TIP3   OH2  263   2.238   6.425   5.269  0.1395 -0.0635  0.1233
  100TIP3    H1  264   2.305   6.484   5.234  0.7710  0.2552  1.8118
  100TIP3    H2  265   2.282   6.342   5.280  0.1230  0.0157  0.7874
  101TIP3   OH2  266   1.381   2.616   0.149 -0.5776  0.5758 -0.2963
  101TIP3    H1  267   1.419   2.613   0.061  2.8081 -1.7482  1.0492
  101TIP3    H2  268   1.456   2.623   0.207 -2.5646  0.1406  2.5164
  102TIP3   OH2  269   4.705   3.017   4.009  0.2116  0.1567 -0.0658
  102TIP3    H1  270   4.663   3.036   4.093  0.9102  0.9621  0.1155
  102TIP3    H2  271   4.684   2.925   3.992 -0.9126  0.3042  0.4214
  103TIP3   OH2  272   5.992   4.981   3.699  0.1334  0.3769 -0.2312
  103TIP3    H1  273   6.031   5.065   3.676  0.1340  1.1745  2.3689
  103TIP3    H2  274   6.045   4.949   3.772 -1.6078 -0.4590  0.7342
  104TIP3   OH2  275   4.184   5.968   4.737  0.1360  0.3460 -0.4491
  104TIP3    H1  276   4.255   5.926   4.785 -0.3362  0.5654  0.4606
  104TIP3    H2  277   4.136   6.018   4.803 -1.8108 -1.0364 -0.7043
  105TIP3   OH2  278   0.536   2.923   1.845  0.4100  0.4047 -0.3044
  105TIP3    H1  279   0.544   2.936   1.751 -0.3311 -0.4835 -0.5088
  105TIP3    H2  280   0.537   3.011   1.882 -0.8622  0.8740 -1.2966
  106TIP3   OH2  281   1.891   5.543   5.342 -0.1158 -0.4869  0.4012
  106TIP3    H1  282   1.974   5.583   5.368 -0.1044  0.9083 -1.5765
  106TIP3    H2  283   1.836   5.549   5.420  0.6386  1.4130  0.8368
  107TIP3   OH2  284   2.651   3.073   1.814 -0.0359  0.5010  0.3496
  107TIP3    H1  285   2.662   3.168   1.815  0.5389  0.4655 -0.6967
  107TIP3    H2  286   2.728   3.040   1.860  1.4488  0.4618 -2.0103
  108TIP3   OH2  287   4.899   3.611   0.809 -0.1332 -0.1641  0.2709
  108TIP3    H1  288   4.976   3.613   0.753 -0.0427 -2.5710  0.1765
  108TIP3    H2  289   4.934   3.598   0.897 -0.3766 -2.2152  0.1199
  109TIP3   OH2  290   1.820   2.461   4.607  0.2045  0.3271 -0.1882
  109TIP3    H1  291   1.737   2.429   4.643  0.5955 -0.2055  0.2679
  109TIP3    H2  292   1.877   2.384   4.607  1.0083  0.9030  0.4586
  110TIP3   OH2  293   1.297   4.736   3.858 -0.1921  0.6114 -0.0522
  110TIP3    H1  294   1.231   4.725   3.789  0.7911 -0.6210 -0.8415
  110TIP3    H2  295   1.324   4.827   3.852 -1.7337  1.1179  0.2268
  111TIP3   OH2  296   3.375   4.275   4.734 -0.1567  0.4882 -0.6553
  111TIP3    H1  297   3.362   4.209   4.802  0.7803  0.4996 -0.4639
  111TIP3    H2  298   3.421   4.229   4.664 -0.3787  0.6923 -0.9381
  112TIP3   OH2  299   4.420   0.678   3.063  0.1581 -0.1993  0.4603
  112TIP3    H1  300   4.425   0.710   3.153  1.4104 -2.0330  1.1018
  112TIP3    H2  301   4.392   0.754   3.012  1.0749  1.3527  2.1488
  113TIP3   OH2  302   1.963   0.125   2.384 -0.1557 -0.0581  0.4307
  113TIP3    H1  303   2.040   0.075   2.409  0.2471  0.2255 -0.2292
  113TIP3    H2  304   1.889   0.067   2.402  0.3290 -1.0697 -0.7533
  114TIP3   OH2  305   3.081   3.974   5.678  0.1291 -0.3778  0.2342
  114TIP3    H1  306   3.024   3.988   5.603  1.0572 -0.6455 -0.5538
  114TIP3    H2  307   3.116   3.886   5.664  0.4471 -0.3549  0.8817
  115TIP3   OH2  308   6.885   3.968   4.367 -0.1756 -0.0907  0.5047
  115TIP3    H1  309   6.975   3.941   4.345 -0.1057  0.1592  0.4763
  115TIP3    H2  310   6.895   4.023   4.444 -0.3966 -0.7671  1.0274
  116TIP3   OH2  311   0.117   5.151   2.988 -0.3323 -0.2743 -0.3586
  116TIP3    H1  312   0.161   5.235   3.002  0.5005 -0.6287 -0.7962
  116TIP3    H2  313   0.048   5.171   2.925 -0.3459  0.1445 -0.2171
  117TIP3   OH2  314   4.124   5.950   4.285 -0.3512  0.1445 -0.2655
  117TIP3    H1  315   4.123   6.026   4.344 -0.1350 -0.1913  0.1761
  117TIP3    H2  316   4.217   5.928   4.278 -0.2655  0.8227 -1.5702
  118TIP3   OH2  317   3.421   3.596   3.955 -0.5367  0.5393 -0.0245
  118TIP3    H1  318   3.500   3.541   3.950 -1.2472 -0.5934  0.7603
  118TIP3    H2  319   3.349   3.533   3.966 -1.4651  1.5982  0.1026
  119TIP3   OH2  320   3.324   3.465   5.595 -0.3122  0.2035 -0.2626
  119TIP3    H1  321   3.380   3.516   5.537  0.0420 -0.2996 -0.3752
  119TIP3    H2  322   3.377   3.453   5.674 -0.6575  0.5898  0.0265
  120TIP3   OH2  323   1.198   1.069   5.807  0.5172  0.0970  0.7015
  120TIP3    H1  324   1.182   1.110   5.892  2.6366  1.3563  0.5662
  120TIP3    H2  325   1.210   0.976   5.827 -2.2414 -0.2284  1.2894
  121TIP3   OH2  326   2.984   1.766   5.253 -0.5593 -0.3825 -0.0276
  121TIP3    H1  327   3.057   1.724   5.298 -1.0917 -0.1462  1.0861
  121TIP3    H2  328   3.025   1.808   5.176  0.4039 -0.5916  0.3509
  122TIP3   OH2  329   0.635   6.309   2.986 -0.7327 -0.1765 -0.2129
  122TIP3    H1  330   0.544   6.299   3.014 -0.0627 -0.5123  2.0211
  122TIP3    H2  331   0.653   6.403   2.996 -0.3768 -0.3555  0.9614
  123TIP3   OH2  332   5.121   2.221   0.280  0.2038 -0.0029  0.2225
  123TIP3    H1  333   5.082   2.308   0.268  1.8619  0.8385  0.7192
  123TIP3    H2  334   5.109   2.178   0.196  0.5069  1.1839 -0.4503
  124TIP3   OH2  335   1.646   1.345   2.924  0.1927 -0.2894 -0.2664
  124TIP3    H1  336   1.662   1.282   2.994 -2.0172  0.6019  1.1489
  124TIP3    H2  337   1.635   1.429   2.970  0.5905  0.6791 -1.8684
  125TIP3   OH2  338   1.230   4.063   3.623  0.2131 -0.1073 -0.1601
  125TIP3    H1  339   1.281   4.096   3.697  0.6409 -0.8031 -0.1348
  125TIP3    H2  340   1.213   3.971   3.645 -0.2308 -0.1391 -0.6156
  126TIP3   OH2  341   6.426   4.639   2.229  0.3034  0.0647 -0.0441
  126TIP3    H1  342   6.500   4.700   2.240  0.3529 -0.1771  1.1465
  126TIP3    H2  343   6.467   4.556   2.206  0.3394  0.1525 -0.2926
  127TIP3   OH2  344   4.081   1.972   2.199  0.2782 -0.6104 -0.1349
  127TIP3    H1  345   4.101   1.963   2.292 -0.3250 -0.4751  0.0126
  127TIP3    H2  346   3.985   1.979   2.195  0.3999  1.4093 -0.5948
  128TIP3   OH2  347   2.607   4.984   1.786 -0.0642 -0.7962  0.0095
  128TIP3    H1  348   2.699   4.973   1.762  0.1818 -0.1598  0.6186
  128TIP3    H2  349   2.600   5.076   1.810 -1.0900 -0.6116 -0.9403
  129TIP3   OH2  350   4.064   1.519   5.463 -0.1167 -0.0526  0.2164
  129TIP3    H1  351   4.139   1.460   5.451  0.1070  0.5049 -1.4955
  129TIP3    H2  352   4.081   1.563   5.546  1.8644  0.5728 -0.4479
  130TIP3   OH2  353   4.334   6.579   0.106  0.1928 -0.0176  0.2462
  130TIP3    H1  354   4.377   6.497   0.132  0.2180 -0.9501 -2.4545
  130TIP3    H2  355   4.257   6.551   0.056  0.1180  1.6161 -0.6160
  131TIP3   OH2  356   6.732   4.745   4.557 -0.3457  0.6508 -0.1159
  131TIP3    H1  357   6.780   4.779   4.633 -0.4473  1.6565 -0.4753
  131TIP3    H2  358   6.640   4.765   4.576 -0.7392 -1.6741  0.7776
  132TIP3   OH2  359   4.880   5.616   5.567 -0.2529 -0.7995  0.2542
  132TIP3    H1  360   4.944   5.573   5.510 -0.2572  2.3894 -2.4648
  132TIP3    H2  361   4.924   5.694   5.600 -1.2812 -0.9963  2.2426
  133TIP3   OH2  362   4.468   1.157   0.432 -0.0011 -0.4073 -0.6463
  133TIP3    H1  363   4.483   1.126   0.521  0.2655  0.7071 -0.2874
  133TIP3    H2  364   4.374   1.145   0.417  0.2469 -2.3221 -0.9140
  134TIP3   OH2  365   6.403   5.608   2.971  0.0003 -0.1208  0.0624
  134TIP3    H1  366   6.412   5.699   3.001  0.6933 -0.1746  0.0511
  134TIP3    H2  367   6.391   5.558   3.051 -1.0440  0.0491  0.0186
  135TIP3   OH2  368   4.488   3.049   5.163 -0.1119  0.1008  0.3014
  135TIP3    H1  369   4.557   3.081   5.221  0.0773  0.7014 -0.2482
  135TIP3    H2  370   4.533   3.028   5.082 -0.3785 -0.7378  0.3625
  136TIP3   OH2  371   3.196   6.184   3.361 -0.3929  0.2903  0.2734
  136TIP3    H1  372   3.197   6.089   3.348 -1.4949  0.1880  0.7907
  136TIP3    H2  373   3.185   6.220   3.273  0.4487 -0.0376  0.0264
  137TIP3   OH2  374   7.085   4.554   5.610  0.3127 -0.1920  0.1381
  137TIP3    H1  375   7.110   4.461   5.611 -1.2980 -0.6604  1.1471
  137TIP3    H2  376   7.115   4.586   5.525 -1.8425 -2.4723 -1.6405
  138TIP3   OH2  377   3.924   2.190   2.685  0.0275 -0.7262  0.2395
  138TIP3    H1  378   3.879   2.155   2.608 -0.0635 -0.6915  0.2768
  138TIP3    H2  379   3.980   2.118   2.715  0.1625 -0.6956  0.0633
  139TIP3   OH2  380   3.356   3.725   4.274  0.1758 -0.1273 -0.2606
  139TIP3    H1  381   3.390   3.659   4.213 -0.5908 -1.3150  0.5632
  139TIP3    H2  382   3.279   3.762   4.229  0.2112 -0.2676 -0.4378
  140TIP3   OH2  383   4.336   4.793   3.632  0.0031 -0.3516 -0.3516
  140TIP3    H1  384   4.264   4.850   3.658  0.6718  1.2302 -1.7660
  140TIP3    H2  385   4.321   4.711   3.679 -2.2605  0.2077 -0.0188
  141TIP3   OH2  386   5.875   2.569   2.164  0.7310  0.3024  0.1074
  141TIP3    H1  387   5.850   2.643   2.219  1.1343  1.2632 -0.9550
  141TIP3    H2  388   5.952   2.600   2.116 -0.1004 -0.1727 -1.6242
  142TIP3   OH2  389   1.987   3.769   4.330 -0.0788  0.3770  0.1078
  142TIP3    H1  390   1.949   3.712   4.263  0.7745  0.2187 -0.2495
  142TIP3    H2  391   2.064   3.721   4.361 -0.0284  0.8022  0.6525
  143TIP3   OH2  392   2.796   3.819   2.580 -0.3696  0.4310  0.2902
  143TIP3    H1  393   2.711   3.803   2.540 -0.6886 -3.0751  1.9674
  143TIP3    H2  394   2.788   3.783   2.669  2.8078  0.0053  0.5211
  144TIP3   OH2  395   2.794   5.174   1.293  0.3790 -0.2458 -0.8097
  144TIP3    H1  396   2.842   5.225   1.358  0.7560 -0.4357 -0.9369
  144TIP3    H2  397   2.708   5.216   1.288 -0.0704 -0.9439  0.6654
  145TIP3   OH2  398   5.845   3.096   3.767  0.0138 -0.9333  0.1852
  145TIP3    H1  399   5.934   3.099   3.731  0.2022 -0.4034  0.6812
  145TIP3    H2  400   5.797   3.163   3.718  0.1158 -0.6241  0.5036
  146TIP3   OH2  401   5.258   2.245   4.286  0.5803 -0.5616  0.1086
  146TIP3    H1  402   5.289   2.309   4.223 -0.3008 -0.3921 -0.1696
  146TIP3    H2  403   5.196   2.191   4.238 -1.3801  0.6079  1.1983
  147TIP3   OH2  404   6.957   4.143   2.120  0.8398 -0.5795 -0.5128
  147TIP3    H1  405   6.921   4.225   2.155 -0.1735 -1.1991 -0.0622
  147TIP3    H2  406   6.958   4.084   2.195 -1.0555 -1.8242 -1.4008
  148TIP3   OH2  407   1.021   4.204   1.041  0.2360  0.3208  0.5771
  148TIP3    H1  408   1.104   4.170   1.074  0.1200 -1.3621 -0.7432
  148TIP3    H2  409   0.954   4.156   1.091  0.0126  1.3415  1.3114
  149TIP3   OH2  410   2.239   0.121   5.717  0.0652  0.3403 -0.5437
  149TIP3    H1  411   2.237   0.122   5.621  0.7593 -1.0384 -0.6071
  149TIP3    H2  412   2.309   0.059   5.738 -0.1934  0.5001  0.8592
  150TIP3   OH2  413   3.133   5.231   1.882  0.1830  0.1186 -0.6245
  150TIP3    H1  414   3.051   5.243   1.836 -0.3534 -2.0140 -0.3608
  150TIP3    H2  415   3.184   5.171   1.827  2.1241  2.3125 -1.3834
  151TIP3   OH2  416   1.896   4.878   4.054  0.2649 -0.2730 -0.1472
  151TIP3    H1  417   1.809   4.839   4.044  0.8499 -1.5533 -0.4205
  151TIP3    H2  418   1.903   4.898   4.147 -0.4338  0.1116 -0.1755
  152TIP3   OH2  419   4.597   3.907   3.160 -0.0360  0.5525  0.3476
  152TIP3    H1  420   4.619   3.814   3.157  2.3782  1.0596  0.6618
  152TIP3    H2  421   4.509   3.909   3.198  0.8999 -1.5035  2.9390
  153TIP3   OH2  422   1.760   2.487   1.752  0.2261 -0.3778 -0.1502
  153TIP3    H1  423   1.836   2.528   1.794  0.8340 -0.1108 -1.4609
  153TIP3    H2  424   1.765   2.395   1.777 -0.6158  0.1028  2.0506
  154TIP3   OH2  425   0.646   1.540   2.785  0.1915  0.1617 -0.2475
  154TIP3    H1  426   0.592   1.582   2.853 -1.0519 -0.0619 -1.0594
  154TIP3    H2  427   0.722   1.598   2.776  0.7798 -0.2070  1.8559
  155TIP3   OH2  428   1.842   2.575   3.849 -0.2751 -0.1562  0.1936
  155TIP3    H1  429   1.935   2.592   3.856 -0.5573  1.9799 -0.6704
  155TIP3    H2  430   1.800   2.659   3.864 -1.9742 -0.6857 -1.1404
  156TIP3   OH2  431   0.286   6.094   4.034 -0.3857 -0.6590 -0.8264
  156TIP3    H1  432   0.373   6.129   4.049 -0.4089  0.1179 -2.2977
  156TIP3    H2  433   0.227   6.154   4.081 -0.2257 -0.2887 -1.0927
  157TIP3   OH2  434   4.302   2.034   2.951  0.0392  0.0590  0.1650
  157TIP3    H1  435   4.319   2.020   2.858  0.6117  0.0363  0.2742
  157TIP3    H2  436   4.251   1.958   2.977  2.1884 -1.3241  0.4954
  158TIP3   OH2  437   4.271   5.265   5.666  0.2716  0.2571  0.4670
  158TIP3    H1  438   4.358   5.300   5.645  0.9315 -1.0703  0.8621
  158TIP3    H2  439   4.289   5.181   5.708 -1.2489 -0.4717 -0.2755
  159TIP3   OH2  440   1.341   5.508   2.475  0.3558 -0.2282 -0.5306
  159TIP3    H1  441   1.295   5.440   2.525  0.7863  0.1420  0.4049
  159TIP3    H2  442   1.307   5.500   2.386 -1.3899 -0.1065  0.0743
  160TIP3   OH2  443   1.884   5.006   2.208 -0.4884  0.5533  0.0796
  160TIP3    H1  444   1.794   4.973   2.201  0.9169 -3.6612 -0.8757
  160TIP3    H2  445   1.890   5.039   2.297 -2.7963  0.2528  0.4104
  161TIP3   OH2  446   2.562   6.617   4.685 -0.6317 -0.4038  0.0634
  161TIP3    H1  447   2.514   6.682   4.634 -1.6775  0.4164  1.9850
  161TIP3    H2  448   2.542   6.534   4.643 -0.3349  0.3648 -1.6633
  162TIP3   OH2  449   6.584   6.662   4.018 -0.1269  0.0880  0.5186
  162TIP3    H1  450   6.501   6.650   4.064  0.1000 -0.7954  0.7146
  162TIP3    H2  451   6.648   6.616   4.072  0.6446  1.4396  0.7980
  163TIP3   OH2  452   2.495   1.959   1.326 -0.1420  0.1811 -0.6365
  163TIP3    H1  453   2.514   1.942   1.418  1.1966  3.3443 -0.1758
  163TIP3    H2  454   2.403   1.984   1.324 -0.0264  0.6803 -0.0247
  164TIP3   OH2  455   4.219   0.298   1.974  0.0461 -0.5196 -0.9744
  164TIP3    H1  456   4.280   0.324   2.043 -0.4386  0.4561 -0.8866
  164TIP3    H2  457   4.238   0.206   1.957  1.2029 -0.3534 -0.6117
  165TIP3   OH2  458   0.228   4.565   2.536 -0.3074 -0.5409 -0.4664
  165TIP3    H1  459   0.219   4.495   2.601  0.4400 -1.0512 -0.8819
  165TIP3    H2  460   0.278   4.633   2.580 -1.4579 -0.0417  0.0983
  166TIP3   OH2  461   4.088   2.867   0.196  0.7670  0.3306  0.0401
  166TIP3    H1  462   4.102   2.960   0.184 -1.2015  0.7180  0.4115
  166TIP3    H2  463   4.144   2.844   0.271  2.5746  0.7969 -1.1114
  167TIP3   OH2  464   2.338   3.869   1.949 -0.1524  0.1419 -0.1581
  167TIP3    H1  465   2.249   3.876   1.984 -0.4703 -2.7204 -0.1534
  167TIP3    H2  466   2.328   3.828   1.864  1.0750  1.6987 -1.1238
  168TIP3   OH2  467   1.894   5.689   1.257  0.4524 -0.0017 -0.1245
  168TIP3    H1  468   1.821   5.735   1.298  1.3432 -0.5163  2.1862
  168TIP3    H2  469   1.936   5.755   1.203 -0.2883  0.9764  0.4646
  169TIP3   OH2  470   6.958   1.244   4.348  0.6968 -0.3956  0.0209
  169TIP3    H1  471   6.971   1.271   4.439 -0.1200  0.9309 -0.2204
  169TIP3    H2  472   6.954   1.326   4.299 -1.6694 -0.9191 -0.7962
  170TIP3   OH2  473   1.520   3.137   1.283  0.1055 -0.1081 -0.4551
  170TIP3    H1  474   1.584   3.136   1.353  0.3128  0.1881 -0.6381
  170TIP3    H2  475   1.436   3.120   1.326  0.4193 -1.4734 -0.3433
  171TIP3   OH2  476   0.030   2.882   0.395 -0.1420 -0.0944  0.1601
  171TIP3    H1  477   0.042   2.941   0.469  1.8272  2.0770 -1.7068
  171TIP3    H2  478   0.004   2.939   0.323 -1.1821 -1.9996 -1.0480
  172TIP3   OH2  479   4.190   6.213   0.603 -0.1760  0.2451 -0.8527
  172TIP3    H1  480   4.231   6.140   0.557  0.9119  0.5613 -0.4235
  172TIP3    H2  481   4.198   6.190   0.696  1.5549  1.5479 -0.6093
  173TIP3   OH2  482   3.071   5.144   2.148  0.0563 -0.1742  0.4338
  173TIP3    H1  483   3.043   5.224   2.192 -0.9066 -0.5340  0.4962
  173TIP3    H2  484   3.113   5.175   2.067  0.4407  0.4198  0.8544
  174TIP3   OH2  485   4.583   2.366   4.033  0.2117  0.6285 -0.6584
  174TIP3    H1  486   4.531   2.287   4.051 -0.5166  0.9054 -1.4819
  174TIP3    H2  487   4.558   2.427   4.103  0.2494  0.3869 -0.4295
  175TIP3   OH2  488   1.423   3.107   2.981  0.6943  0.1929  0.1013
  175TIP3    H1  489   1.403   3.068   2.897  2.9484 -2.1341  0.5439
  175TIP3    H2  490   1.344   3.157   3.003 -0.6669 -0.6369 -2.4857
  176TIP3   OH2  491   1.576   0.867   3.152  0.0008  0.2931  0.2034
  176TIP3    H1  492   1.607   0.946   3.196 -0.6828  0.0922  1.0793
  176TIP3    H2  493   1.606   0.795   3.208 -1.9071  0.0902  1.0428
  177TIP3   OH2  494   5.865   2.778   3.281 -0.0359 -0.2162 -0.4031
  177TIP3    H1  495   5.888   2.760   3.190 -1.4153 -1.1540 -0.6037
  177TIP3    H2  496   5.837   2.870   3.281 -2.1038 -0.7948 -1.4114
  178TIP3   OH2  497   6.073   1.300   2.637 -0.2295  0.0740  0.4230
  178TIP3    H1  498   6.006   1.244   2.676 -0.9080  1.0300  0.6767
  178TIP3    H2  499   6.140   1.240   2.607  0.2409 -0.7363  2.8615
  179TIP3   OH2  500   3.707   0.251   4.326  0.6201 -0.3288 -0.4294
  179TIP3    H1  501   3.649   0.324   4.304  0.5116  0.4350  2.0933
  179TIP3    H2  502   3.650   0.186   4.367  1.1883 -0.5214  0.0640
  180TIP3   OH2  503   6.611   0.452   1.875 -0.0143  0.0621 -0.0989
  180TIP3    H1  504   6.668   0.375   1.868  1.5665  1.1540  0.4079
  180TIP3    H2  505   6.530   0.426   1.830  1.4560 -0.9634 -2.2855
  181TIP3   OH2  506   1.347   0.969   2.751 -0.7101  0.0851  0.2780
  181TIP3    H1  507   1.431   0.963   2.796 -0.4658 -1.5735 -0.3202
  181TIP3    H2  508   1.324   0.878   2.731 -3.4154  0.3425  1.7722
  182TIP3   OH2  509   5.552   3.368   0.914  0.6585 -0.3126 -0.2327
  182TIP3    H1  510   5.552   3.463   0.927  1.6746 -0.4406  0.8759
  182TIP3    H2  511   5.634   3.351   0.866 -0.4221 -0.4612 -2.1472
  183TIP3   OH2  512   3.055   3.386   5.625  0.0282  0.2761  0.3071
  183TIP3    H1  513   3.137   3.434   5.615  0.8052 -0.8403  1.1536
  183TIP3    H2  514   3.081   3.298   5.650 -1.3468 -0.7854 -1.6938
  184TIP3   OH2  515   2.184   1.188   3.626 -0.4285  0.6089  0.5591
  184TIP3    H1  516   2.123   1.260   3.608  0.7041  1.5603  0.3429
  184TIP3    H2  517   2.255   1.230   3.677  0.7039 -0.1418 -0.3497
  185TIP3   OH2  518   5.067   2.268   2.003  0.3560 -0.2836  0.1312
  185TIP3    H1  519   5.091   2.297   2.091  1.0614  1.8524 -0.7129
  185TIP3    H2  520   5.007   2.335   1.971  1.0114 -0.4086 -1.4200
  186TIP3   OH2  521   5.989   1.916   2.963  0.3216 -0.2438  0.0211
  186TIP3    H1  522   5.912   1.927   3.018 -0.1652 -0.9100 -0.4952
  186TIP3    H2  523   6.051   1.983   2.992 -0.0240 -0.4204  1.1804
  187TIP3   OH2  524   4.397   6.137   4.982  0.2857  0.6125 -0.4082
  187TIP3    H1  525   4.420   6.117   4.891 -0.1666 -2.2922  0.0129
  187TIP3    H2  526   4.456   6.208   5.007  1.5095  0.4119 -2.4919
  188TIP3   OH2  527   5.200   1.388   5.078  0.1433  0.1477  0.3037
  188TIP3    H1  528   5.235   1.312   5.032 -0.2773  1.3041 -2.1078
  188TIP3    H2  529   5.239   1.463   5.032  0.4294  1.4246  2.4940
  189TIP3   OH2  530   5.273   2.682   4.900 -0.4302 -0.2550  0.6575
  189TIP3    H1  531   5.241   2.610   4.954  0.8992 -0.7143  0.8792
  189TIP3    H2  532   5.197   2.739   4.887 -1.3880 -1.4510  0.8702
  190TIP3   OH2  533   5.780   1.214   2.108 -0.1197 -0.0669  0.4422
  190TIP3    H1  534   5.782   1.196   2.014  0.2172 -0.1052  0.4539
  190TIP3    H2  535   5.699   1.263   2.122 -0.1010  0.0612  0.1094
  191TIP3   OH2  536   6.169   3.024   0.580  0.1236  0.0152  0.0846
  191TIP3    H1  537   6.133   3.064   0.501  1.3897  0.5697 -0.2265
  191TIP3    H2  538   6.144   3.083   0.651 -0.0596  0.0952 -0.0457
  192TIP3   OH2  539   2.287   3.258   1.659 -0.8556  0.0351  0.2563
  192TIP3    H1  540   2.320   3.193   1.597  0.7277  0.6816  0.3722
  192TIP3    H2  541   2.286   3.340   1.609 -2.4657  0.0232  0.2233
  193TIP3   OH2  542   2.779   3.125   2.194 -0.4594 -0.2089  0.1046
  193TIP3    H1  543   2.831   3.082   2.126  0.2180  0.0263  0.4688
  193TIP3    H2  544   2.839   3.187   2.235 -1.5504  1.4674 -0.7192
  194TIP3   OH2  545   0.667   2.433   1.797  0.3867  0.0032 -0.1593
  194TIP3    H1  546   0.607   2.386   1.855  0.0057  0.4794 -0.1553
  194TIP3    H2  547   0.664   2.523   1.828  1.2070  0.0125 -0.0871
  195TIP3   OH2  548   6.071   1.906   0.976 -0.0345  0.3450 -0.1130
  195TIP3    H1  549   6.122   1.959   1.038  0.2861 -0.4093  0.2871
  195TIP3    H2  550   6.075   1.955   0.894 -1.2286  1.8336  0.6604
  196TIP3   OH2  551   5.862   5.375   2.040  0.3665  0.4523  0.0888
  196TIP3    H1  552   5.947   5.374   2.085 -0.2609 -0.6483  1.3270
  196TIP3    H2  553   5.802   5.414   2.103  0.0415  1.8218 -1.0221
  197TIP3   OH2  554   5.047   3.467   4.669  0.6494 -0.2266 -0.0649
  197TIP3    H1  555   5.050   3.379   4.631  0.9097  0.0407 -0.6721
  197TIP3    H2  556   5.114   3.466   4.738 -0.4390 -0.9919  1.0250
  198TIP3   OH2  557   1.975   2.627   5.781  0.2897  0.2620 -0.4374
  198TIP3    H1  558   2.054   2.669   5.816  0.1428 -0.6983  1.1491
  198TIP3    H2  559   2.004   2.589   5.698  1.2584  0.6982 -0.3192
  199TIP3   OH2  560   1.234   6.815   0.557  0.2269  0.3948 -0.2701
  199TIP3    H1  561   1.157   6.795   0.503 -0.2121  1.6227 -0.1377
  199TIP3    H2  562   1.299   6.750   0.531 -0.3484  0.2685 -1.4894
  200TIP3   OH2  563   2.745   5.564   3.531 -0.2292 -0.4877 -0.0905
  200TIP3    H1  564   2.764   5.656   3.548  1.5095 -1.2027  2.2362
  200TIP3    H2  565   2.805   5.539   3.461 -0.6850  0.1075 -0.7073
  201TIP3   OH2  566   6.364   5.933   4.378  0.2555 -0.1286 -0.0827
  201TIP3    H1  567   6.388   6.025   4.392  0.0933 -0.0343 -0.4145
  201TIP3    H2  568   6.435   5.898   4.324 -0.3966  0.1774 -1.1533
  202TIP3   OH2  569   1.856   5.453   1.907  0.0498  0.1078 -0.0146
  202TIP3    H1  570   1.845   5.377   1.964  0.3131  1.3174  1.7611
  202TIP3    H2  571   1.950   5.463   1.897 -0.0086 -0.3848 -1.0858
  203TIP3   OH2  572   0.778   2.763   2.346 -0.9042  0.0091 -0.3667
  203TIP3    H1  573   0.848   2.827   2.359  0.8632 -1.1140 -3.3161
  203TIP3    H2  574   0.742   2.785   2.260 -1.2656 -2.0109 -0.7798
  204TIP3   OH2  575   6.853   2.860   0.182  0.0904  0.2553  0.3280
  204TIP3    H1  576   6.904   2.931   0.222 -1.3980  1.2597  0.5124
  204TIP3    H2  577   6.901   2.838   0.103  0.9800  0.9481  0.6510
  205TIP3   OH2  578   4.089   6.442   1.049  0.2005  0.0588 -0.2535
  205TIP3    H1  579   4.120   6.531   1.034 -1.3074  0.3904 -1.7951
  205TIP3    H2  580   4.038   6.447   1.130 -0.2365  0.7051 -0.5622
  206TIP3   OH2  581   5.437   3.356   1.387  0.0343 -0.0394  0.8685
  206TIP3    H1  582   5.411   3.447   1.395  0.0397  0.4973 -3.1327
  206TIP3    H2  583   5.372   3.317   1.328 -0.0819 -2.7615  2.5987
  207TIP3   OH2  584   5.035   2.236   5.273 -0.1915 -0.4646 -0.2834
  207TIP3    H1  585   5.044   2.274   5.360 -1.3469  0.3336 -0.4964
  207TIP3    H2  586   4.975   2.163   5.285  0.6178 -1.1402 -0.2076
  208TIP3   OH2  587  -0.008   6.169   5.542  0.3295  0.4925  0.2851
  208TIP3    H1  588   0.054   6.159   5.470 -0.4610 -0.1979 -0.3159
  208TIP3    H2  589  -0.036   6.260   5.537  2.1733  1.1819  1.3171
  209TIP3   OH2  590   3.566   4.997   1.701 -0.0807 -0.0577 -0.0051
  209TIP3    H1  591   3.622   4.922   1.721 -0.6003 -0.7059 -0.8558
  209TIP3    H2  592   3.583   5.060   1.770  0.5025 -0.8966  0.6337
  210TIP3   OH2  593   6.434   2.892   0.485  0.4610  0.5523 -0.0902
  210TIP3    H1  594   6.434   2.796   0.485 -0.0392  0.4584  3.2862
  210TIP3    H2  595   6.342   2.916   0.475  0.6157  0.7462 -1.2276
  211TIP3   OH2  596   0.235   2.425   2.983 -0.1675 -0.3813 -0.1914
  211TIP3    H1  597   0.210   2.514   2.960 -0.0930 -0.6048 -1.1582
  211TIP3    H2  598   0.168   2.397   3.046 -1.0362 -0.1587 -0.9990
  212TIP3   OH2  599   4.903   2.185   4.721  0.1397  0.0209 -0.2576
  212TIP3    H1  600   4.941   2.273   4.713  2.1496 -0.6291  1.2627
  212TIP3    H2  601   4.958   2.131   4.664  1.9319 -1.0098  2.2861
  213TIP3   OH2  602   1.980   1.821   2.975 -0.1228  0.0312 -0.1634
  213TIP3    H1  603   1.927   1.817   2.896 -1.2901 -0.6532  0.6329
  213TIP3    H2  604   1.968   1.736   3.017  0.6326  0.3106  0.6557
  214TIP3   OH2  605   1.501   5.703   2.557  0.7822 -0.3186 -0.2987
  214TIP3    H1  606   1.548   5.652   2.623 -1.0574  1.1229  2.2550
  214TIP3    H2  607   1.428   5.646   2.532 -0.3619  0.3571  1.3716
  215TIP3   OH2  608   2.754   4.207   5.040 -0.4729  0.1705 -0.0359
  215TIP3    H1  609   2.797   4.292   5.038  0.4681 -0.3052 -1.2301
  215TIP3    H2  610   2.674   4.219   4.989 -0.7990  0.5615  0.5584
  216TIP3   OH2  611   2.579   6.395   3.546 -0.3394  0.1092 -0.2045
  216TIP3    H1  612   2.541   6.414   3.459  0.3539 -0.1301 -0.5630
  216TIP3    H2  613   2.656   6.451   3.552  1.0112 -1.5834 -0.7553
  217TIP3   OH2  614   3.499   1.849   0.255  0.1982 -0.1450 -0.0316
  217TIP3    H1  615   3.550   1.924   0.285 -0.2327 -0.1159  0.6714
  217TIP3    H2  616   3.534   1.828   0.169  2.2077 -0.8920  0.9043
  218TIP3   OH2  617   1.942   0.456   3.764 -0.2878  0.1563 -0.5925
  218TIP3    H1  618   2.013   0.394   3.784 -0.1200 -0.1931 -2.0900
  218TIP3    H2  619   1.983   0.520   3.705 -0.6264  1.3464  0.4324
  219TIP3   OH2  620   7.061   6.074   0.064  0.2602 -0.0658 -0.3823
  219TIP3    H1  621   7.036   5.991   0.023  1.0589 -0.1849 -0.6325
  219TIP3    H2  622   7.066   6.053   0.157 -1.2781  0.1378 -0.2362
  220TIP3   OH2  623   1.535   5.862   0.452  0.0050 -0.2556  1.0221
  220TIP3    H1  624   1.573   5.785   0.494 -2.0315 -0.5053  2.5373
  220TIP3    H2  625   1.611   5.919   0.435  1.5351 -2.4777 -0.0350
  221TIP3   OH2  626   7.065   2.768   3.701 -0.1390  0.2125 -0.7149
  221TIP3    H1  627   7.153   2.739   3.676  0.4619  0.9335  0.4978
  221TIP3    H2  628   7.058   2.749   3.794 -1.4610 -0.2483 -0.8806
  222TIP3   OH2  629   5.307   2.592   0.313 -0.0473 -0.2920  0.4856
  222TIP3    H1  630   5.345   2.510   0.280  1.0572  0.1066  0.7223
  222TIP3    H2  631   5.252   2.623   0.242  0.2846 -0.7543  0.0195
  223TIP3   OH2  632   2.948   3.350   2.257  0.4674  0.1195 -0.0039
  223TIP3    H1  633   3.041   3.328   2.253  0.4638  0.2420 -0.8774
  223TIP3    H2  634   2.944   3.420   2.323  1.1232  0.7043 -0.5596
  224TIP3   OH2  635   5.811   5.005   3.244  0.6040 -0.6618  0.2785
  224TIP3    H1  636   5.774   4.959   3.169  0.3890 -0.2510  0.1313
  224TIP3    H2  637   5.778   4.957   3.320  0.9849 -1.2004  0.1100
  225TIP3   OH2  638   2.131   1.079   0.322 -0.6660  0.0101  0.9653
  225TIP3    H1  639   2.197   1.147   0.317 -0.2847 -0.4104  0.1205
  225TIP3    H2  640   2.122   1.047   0.232 -1.4371 -0.4800  1.2070
  226TIP3   OH2  641   4.521   5.718   5.146  0.5206 -0.2639 -0.2697
  226TIP3    H1  642   4.601   5.666   5.143  0.5316 -0.2207 -0.9440
  226TIP3    H2  643   4.551   5.808   5.161  0.5565 -0.3294  0.0563
  227TIP3   OH2  644   0.256   1.133   5.653 -0.2050 -0.1841 -1.3073
  227TIP3    H1  645   0.248   1.209   5.595  0.0871  1.2867  0.4832
  227TIP3    H2  646   0.321   1.077   5.610  0.4463  1.1277 -2.1150
  228TIP3   OH2  647   6.178   4.851   1.997  0.3106  0.3115  0.1495
  228TIP3    H1  648   6.209   4.891   1.916 -0.1241 -0.8289 -0.5994
  228TIP3    H2  649   6.093   4.814   1.975  1.0101 -1.6619  0.5842
  229TIP3   OH2  650   3.495   2.163   2.593  0.2730 -0.4234 -0.5532
  229TIP3    H1  651   3.436   2.227   2.552  0.3284 -0.4567 -0.6859
  229TIP3    H2  652   3.449   2.080   2.584 -0.3335 -0.2340  0.6608
  230TIP3   OH2  653   3.011   1.600   0.825  0.6732 -0.0619 -0.3132
  230TIP3    H1  654   2.962   1.519   0.812  0.6649 -0.0463 -0.3819
  230TIP3    H2  655   3.099   1.580   0.794  0.4119  0.2601 -1.2888
  231TIP3   OH2  656   0.642   5.364   0.907  0.1640 -0.4905  0.2718
  231TIP3    H1  657   0.562   5.310   0.909  0.0106 -0.2563  0.9387
  231TIP3    H2  658   0.612   5.450   0.937  0.5141 -0.1850 -0.2603
  232TIP3   OH2  659   1.777   4.313   1.798 -0.4393 -0.0344 -0.4347
  232TIP3    H1  660   1.690   4.318   1.836 -0.6728 -0.0351 -0.9543
  232TIP3    H2  661   1.823   4.390   1.833 -0.7400  0.1222 -0.3790
  233TIP3   OH2  662   4.167   6.337   5.073  0.4872  0.8313  0.3047
  233TIP3    H1  663   4.257   6.366   5.059  0.7735 -0.4341 -0.6771
  233TIP3    H2  664   4.170   6.242   5.059 -0.4725  0.3335  2.9933
  234TIP3   OH2  665   4.619   3.872   5.186 -0.9510 -0.2770  0.5469
  234TIP3    H1  666   4.586   3.837   5.104 -0.5786  1.7614 -0.5462
  234TIP3    H2  667   4.554   3.936   5.214  1.3608  3.1687 -1.1930
  235TIP3   OH2  668   5.487   6.095   3.234 -0.0537 -0.3018  0.0108
  235TIP3    H1  669   5.548   6.025   3.211 -0.3289 -0.3679 -0.5328
  235TIP3    H2  670   5.458   6.130   3.149  2.2874  2.4092  0.1433
  236TIP3   OH2  671   0.582   3.022   3.397 -0.3289 -0.5058  0.1161
  236TIP3    H1  672   0.516   3.090   3.388  0.6416  0.1803 -2.8180
  236TIP3    H2  673   0.566   2.962   3.324  0.2730 -2.1952  1.2848
  237TIP3   OH2  674   4.571   0.979   3.928 -0.3206  0.1034 -0.5233
  237TIP3    H1  675   4.522   0.947   3.852 -0.5007 -1.1145  0.0837
  237TIP3    H2  676   4.513   0.964   4.002  0.6171 -0.5814  0.1025
  238TIP3   OH2  677   5.110   5.577   3.807  0.1245 -0.4108  0.1937
  238TIP3    H1  678   5.044   5.529   3.857 -0.5316  1.8044  1.6210
  238TIP3    H2  679   5.180   5.593   3.871  1.4299 -1.4852 -0.9108
  239TIP3   OH2  680   2.540   1.444   0.557  0.2078 -0.4512  0.0492
  239TIP3    H1  681   2.488   1.432   0.477 -1.0107 -0.5692  0.8271
  239TIP3    H2  682   2.483   1.413   0.627 -0.1610  2.8436  1.3803
  240TIP3   OH2  683   3.317   6.694   2.776  0.6730 -0.0708 -0.2476
  240TIP3    H1  684   3.224   6.695   2.754  0.9180 -1.5682 -1.5367
  240TIP3    H2  685   3.329   6.769   2.833 -1.6889 -0.9208  1.5125
  241TIP3   OH2  686   2.847   2.555   3.758 -0.0369 -0.4257  0.2617
  241TIP3    H1  687   2.808   2.526   3.676  0.1428  1.3610 -0.5110
  241TIP3    H2  688   2.849   2.477   3.813 -0.3523 -1.6204 -1.3500
  242TIP3   OH2  689   1.477   4.839   2.463  0.3896 -0.3914  0.4976
  242TIP3    H1  690   1.425   4.917   2.442  2.2172  0.6852 -0.2960
  242TIP3    H2  691   1.554   4.872   2.509  1.3374 -1.6656 -0.0758
  243TIP3   OH2  692   3.221   0.654   2.101 -0.0975  0.2403 -0.3227
  243TIP3    H1  693   3.276   0.665   2.024 -0.2523  0.9248 -0.3462
  243TIP3    H2  694   3.236   0.733   2.153  1.5247 -1.0737  1.3457
  244TIP3   OH2  695   4.412   4.183   2.077  0.6298 -0.1142 -0.0775
  244TIP3    H1  696   4.482   4.130   2.038  0.3526 -0.4461 -0.1279
  244TIP3    H2  697   4.457   4.261   2.109  1.1316 -0.6329  0.5055
  245TIP3   OH2  698   2.371   2.279   2.713 -0.4014  0.0120  0.8711
  245TIP3    H1  699   2.463   2.278   2.686 -1.2279  0.5831 -2.3663
  245TIP3    H2  700   2.374   2.304   2.805  2.6468  1.3038  0.5463
  246TIP3   OH2  701   0.136   2.474   1.475  0.3842 -1.0211  0.8387
  246TIP3    H1  702   0.080   2.516   1.540 -1.6867 -0.4518 -1.1700
  246TIP3    H2  703   0.083   2.473   1.395  2.5692 -2.2234 -0.7006
  247TIP3   OH2  704   1.831   4.080   1.161  0.2345  0.8004  0.4865
  247TIP3    H1  705   1.814   3.996   1.204 -0.9502 -0.1637 -1.7141
  247TIP3    H2  706   1.912   4.112   1.203  0.5969 -1.3184  1.5413
  248TIP3   OH2  707   3.257   1.020   1.878  0.3290 -0.1723 -0.5706
  248TIP3    H1  708   3.320   0.972   1.931 -0.8017 -0.0857  0.9243
  248TIP3    H2  709   3.243   1.103   1.925 -1.1750 -0.3557 -0.6235
  249TIP3   OH2  710   7.103   6.590   4.769 -0.0259  0.6293 -0.0149
  249TIP3    H1  711   7.120   6.680   4.799 -0.4419  0.2261  1.5220
  249TIP3    H2  712   7.063   6.547   4.844 -0.6857 -0.6017 -1.0402
  250TIP3   OH2  713   0.931   5.461   4.736  0.1032  0.1985  0.2580
  250TIP3    H1  714   0.856   5.497   4.783  0.2697 -0.6842  1.2319
  250TIP3    H2  715   0.988   5.537   4.722 -1.4635  1.1236 -1.5583
  251TIP3   OH2  716   0.253   2.734   0.653  0.0210 -0.4963  0.8995
  251TIP3    H1  717   0.254   2.643   0.623 -0.8761  0.0746 -1.0023
  251TIP3    H2  718   0.162   2.751   0.675  0.2064 -0.0954  1.3630
  252TIP3   OH2  719   0.203   5.188   2.027  0.1502  0.3701 -0.0767
  252TIP3    H1  720   0.169   5.203   1.939  0.3656 -0.0905 -0.2399
  252TIP3    H2  721   0.128   5.205   2.085 -0.4626 -0.9535 -0.4489
  253TIP3   OH2  722   3.770   4.475   1.851 -0.3347  0.0354  0.0730
  253TIP3    H1  723   3.768   4.543   1.919 -0.6934  2.4886 -2.2041
  253TIP3    H2  724   3.711   4.508   1.783 -0.4223 -2.5657 -1.2189
  254TIP3   OH2  725   3.081   1.026   3.493  0.3440  0.8194 -0.5965
  254TIP3    H1  726   3.060   0.998   3.582 -0.6958  2.6356 -0.2051
  254TIP3    H2  727   3.001   1.009   3.443 -0.1232  2.4303 -0.4662
  255TIP3   OH2  728   4.382   1.518   2.554 -0.0616 -0.0677  0.4258
  255TIP3    H1  729   4.359   1.449   2.492  0.2290 -0.1230  0.3794
  255TIP3    H2  730   4.356   1.483   2.640  2.7104 -1.4801  0.8041
  256TIP3   OH2  731   3.524   4.142   5.533 -0.5537  0.7119  0.4975
  256TIP3    H1  732   3.436   4.131   5.498 -0.5926 -1.2937  1.0823
  256TIP3    H2  733   3.581   4.140   5.455 -0.7269 -2.5360  0.3138
  257TIP3   OH2  734   6.790   6.783   1.780 -0.1191  0.1048 -0.1670
  257TIP3    H1  735   6.835   6.815   1.858 -0.8102  0.6930 -0.0019
  257TIP3    H2  736   6.736   6.710   1.811 -2.4188  1.9757  0.4501
  258TIP3   OH2  737   6.625   4.931   3.031  0.3062 -0.3260 -0.1085
  258TIP3    H1  738   6.632   5.026   3.024 -0.4264  0.0934  3.2506
  258TIP3    H2  739   6.713   4.903   3.058  0.0615 -0.3202  0.7356
  259TIP3   OH2  740   3.023   0.806   0.386 -0.0458  0.5166 -0.2302
  259TIP3    H1  741   2.972   0.744   0.334  2.1159  0.3964 -2.4152
  259TIP3    H2  742   3.092   0.753   0.425  0.7163  1.2187 -0.5841
  260TIP3   OH2  743   4.292   6.043   1.823  0.1640  0.1949 -0.1057
  260TIP3    H1  744   4.260   6.037   1.733 -2.4489 -0.1392  0.7514
  260TIP3    H2  745   4.345   6.123   1.824 -0.6885  0.8367 -1.6757
  261TIP3   OH2  746   5.993   2.812   4.348  0.4853  0.3193 -0.4311
  261TIP3    H1  747   5.965   2.734   4.395 -0.1356  0.4207 -0.6144
  261TIP3    H2  748   5.940   2.812   4.268 -0.4448  1.5751  0.1435
  262TIP3   OH2  749   3.953   1.099   1.824  0.2021  0.1164  0.1494
  262TIP3    H1  750   4.040   1.081   1.789  0.6001 -0.0909  1.2173
  262TIP3    H2  751   3.896   1.032   1.786  0.4458  0.4054 -0.7492
  263TIP3   OH2  752   4.500   5.034   4.349 -0.6857  0.5935 -0.1336
  263TIP3    H1  753   4.517   5.095   4.421 -2.0207  1.9321 -0.8705
  263TIP3    H2  754   4.579   5.038   4.295 -0.9225  2.1057 -0.4223
  264TIP3   OH2  755   0.120   1.323   4.199  0.3088  0.0221  0.0335
  264TIP3    H1  756   0.031   1.320   4.162 -0.2135  1.8647  0.9941
  264TIP3    H2  757   0.120   1.257   4.268 -0.3344  0.0012  0.0209
  265TIP3   OH2  758   2.025   5.395   5.689  0.5960 -0.4879  0.1707
  265TIP3    H1  759   1.958   5.449   5.731 -0.2259 -0.9350 -0.5225
  265TIP3    H2  760   2.020   5.311   5.735  0.3933 -0.6503 -0.1418
  266TIP3   OH2  761   1.036   5.314   4.443 -0.0946 -0.6170  0.1789
  266TIP3    H1  762   0.969   5.378   4.418  1.6558  0.4790 -2.0583
  266TIP3    H2  763   1.088   5.359   4.509  0.3742 -0.2060 -0.4653
  267TIP3   OH2  764   1.222   4.973   0.503  0.3670 -0.0802 -0.4737
  267TIP3    H1  765   1.138   4.934   0.527  0.6369  0.2380  1.0923
  267TIP3    H2  766   1.286   4.932   0.562  0.8570  1.7427  0.3533
  268TIP3   OH2  767   0.301   5.737   1.453 -0.0056 -0.3232  0.4647
  268TIP3    H1  768   0.297   5.732   1.549 -0.2205 -1.4286  0.4062
  268TIP3    H2  769   0.268   5.653   1.423 -3.6311  1.3232 -0.7035
  269TIP3   OH2  770   7.006   1.334   4.624  0.6001  0.5685 -0.3094
  269TIP3    H1  771   7.013   1.305   4.714 -1.1173 -1.5336 -0.7759
  269TIP3    H2  772   6.978   1.426   4.630  0.9090  0.5753  1.2584
  270TIP3   OH2  773   0.290   0.956   3.377  0.1881 -0.1393  0.6182
  270TIP3    H1  774   0.212   1.011   3.376  1.5389  1.8696 -0.0371
  270TIP3    H2  775   0.315   0.948   3.284  0.6255 -0.9351  0.7990
  271TIP3   OH2  776   3.275   5.003   2.326  0.2611 -0.5902 -0.3773
  271TIP3    H1  777   3.232   5.022   2.409  2.7350  0.9275  0.6822
  271TIP3    H2  778   3.215   5.034   2.259 -0.7285  0.4924  0.9626
  272TIP3   OH2  779   3.306   6.091   2.157  0.0523  0.0063  0.6386
  272TIP3    H1  780   3.358   6.142   2.219  0.8790  0.1962 -0.1834
  272TIP3    H2  781   3.281   6.153   2.089  2.3380 -0.9042 -1.1702
  273TIP3   OH2  782   0.287   4.129   4.919 -0.0391  0.1677  0.4468
  273TIP3    H1  783   0.224   4.057   4.928  2.4591 -2.1876  0.2992
  273TIP3    H2  784   0.329   4.113   4.835  2.9300 -0.2828  1.8950
  274TIP3   OH2  785   6.671   6.054   0.353 -0.3577 -0.2989  0.1534
  274TIP3    H1  786   6.619   6.087   0.280 -1.2917 -0.6306  0.6488
  274TIP3    H2  787   6.611   6.055   0.428  0.0559 -1.6000  0.5357
  275TIP3   OH2  788   1.020   0.426   4.994 -0.0977 -0.3241  0.1663
  275TIP3    H1  789   0.928   0.401   4.985 -0.2661  0.1075  0.6346
  275TIP3    H2  790   1.022   0.480   5.073 -0.1677  3.0733 -1.9555
  276TIP3   OH2  791   0.236   3.415   5.048 -0.0206  0.9328  0.0008
  276TIP3    H1  792   0.209   3.354   5.116 -1.8627  1.2388 -0.3727
  276TIP3    H2  793   0.169   3.485   5.051  0.2678  1.3216 -1.6002
  277TIP3   OH2  794   5.671   1.899   5.160 -0.0576 -0.1617 -0.2651
  277TIP3    H1  795   5.659   1.992   5.178  1.9773  0.0982 -0.0427
  277TIP3    H2  796   5.600   1.877   5.099 -1.5344  1.1173  0.9084
  278TIP3   OH2  797   5.683   6.045   0.778  0.4761  0.1795 -0.1264
  278TIP3    H1  798   5.610   6.106   0.781  1.4844  1.4803 -0.6574
  278TIP3    H2  799   5.715   6.041   0.868 -0.9300 -1.3269  0.3543
  279TIP3   OH2  800   3.822   0.612   0.604 -0.1939  0.5533 -0.0208
  279TIP3    H1  801   3.821   0.525   0.645  2.1858  0.2957 -0.3972
  279TIP3    H2  802   3.803   0.672   0.677  1.9283 -0.0486  1.1228
  280TIP3   OH2  803   2.184   1.321   3.038  0.0215  0.3499 -0.2121
  280TIP3    H1  804   2.216   1.346   3.125  0.5521 -1.5184  0.1734
  280TIP3    H2  805   2.256   1.343   2.979 -0.3827  1.7313 -0.2216
  281TIP3   OH2  806   5.003   2.143   3.804 -0.3497  0.0825 -0.5598
  281TIP3    H1  807   4.970   2.077   3.743  1.2309 -1.6415  0.3629
  281TIP3    H2  808   4.931   2.156   3.866 -0.4288 -1.3720 -0.3116
  282TIP3   OH2  809   6.939   1.607   1.879 -0.1077 -0.4755 -0.7979
  282TIP3    H1  810   6.908   1.695   1.901 -0.5108 -1.0034  0.9203
  282TIP3    H2  811   6.862   1.551   1.894 -0.1194 -1.0313 -2.7364
  283TIP3   OH2  812   5.233   1.928   1.761 -0.2351 -0.2538 -0.7416
  283TIP3    H1  813   5.140   1.946   1.746 -0.0927  0.2754 -1.0278
  283TIP3    H2  814   5.268   2.011   1.793 -0.0453 -0.7046  0.2473
  284TIP3   OH2  815   5.066   4.311   4.625  0.1070 -0.1760  0.2030
  284TIP3    H1  816   5.053   4.394   4.671 -1.3932  0.0670 -0.5881
  284TIP3    H2  817   5.096   4.336   4.538  0.3233 -0.5054  0.1811
  285TIP3   OH2  818   1.202   6.731   5.627  0.3771  0.0229  0.1236
  285TIP3    H1  819   1.129   6.675   5.602 -0.5212  1.2755 -0.1315
  285TIP3    H2  820   1.268   6.718   5.558  0.2615 -0.8553  0.1767
  286TIP3   OH2  821   5.414   1.611   1.492  0.4514  0.0225 -0.0169
  286TIP3    H1  822   5.373   1.524   1.486  2.1857 -0.7678 -2.0242
  286TIP3    H2  823   5.418   1.641   1.401  5.8996 -0.8674 -0.4062
  287TIP3   OH2  824   2.862   0.082   4.063  0.5447  1.0431 -0.1083
  287TIP3    H1  825   2.909   0.086   4.147  1.4834 -0.3732 -0.5363
  287TIP3    H2  826   2.878  -0.006   4.031 -1.1835  1.0150 -1.0168
  288TIP3   OH2  827   2.128   1.617   3.087  0.5382  0.0513 -0.0888
  288TIP3    H1  828   2.195   1.592   3.024  1.4641 -0.3269  1.0059
  288TIP3    H2  829   2.158   1.580   3.170 -0.0075  1.5713  0.8250
  289TIP3   OH2  830   4.654   1.639   3.686  0.3464 -0.0869 -0.3026
  289TIP3    H1  831   4.667   1.670   3.597  0.1717  1.8602  0.3078
  289TIP3    H2  832   4.704   1.557   3.691  0.5914 -0.0670 -2.0761
  290TIP3   OH2  833   4.123   5.218   0.417  0.0144  0.2701 -0.2814
  290TIP3    H1  834   4.050   5.184   0.366  0.6263 -0.5957 -0.6155
  290TIP3    H2  835   4.157   5.292   0.366 -0.3088  0.3548 -0.3733
  291TIP3   OH2  836   3.903   5.807   5.774  0.2550  0.4676 -0.0826
  291TIP3    H1  837   3.826   5.838   5.726  0.2256 -0.4072 -0.6129
  291TIP3    H2  838   3.967   5.787   5.707  1.0107  1.2977  0.3630
  292TIP3   OH2  839   1.550   2.478   3.848 -0.3908  0.4433 -0.1998
  292TIP3    H1  840   1.535   2.399   3.900 -0.2879  1.0395  0.7602
  292TIP3    H2  841   1.618   2.453   3.786  0.6019  0.1546  0.9783
  293TIP3   OH2  842   2.341   2.688   3.204 -0.2423 -0.0979  0.0103
  293TIP3    H1  843   2.324   2.603   3.244 -0.9471  0.4543  0.9170
  293TIP3    H2  844   2.433   2.706   3.222 -0.2429 -0.4124  0.3206
  294TIP3   OH2  845   4.663   0.413   2.656 -0.5039 -0.3530  0.0600
  294TIP3    H1  846   4.695   0.497   2.621 -0.8167 -0.6438 -0.9692
  294TIP3    H2  847   4.598   0.438   2.722 -0.0680  0.2157  0.2841
  295TIP3   OH2  848   3.317   6.024   4.969 -0.0332 -0.5943  0.0822
  295TIP3    H1  849   3.301   6.075   5.049  1.4386 -2.0347  1.3695
  295TIP3    H2  850   3.231   5.989   4.946 -0.3661 -0.8012  1.5289
  296TIP3   OH2  851   6.268   0.993   2.260  0.1883  0.1870  0.3423
  296TIP3    H1  852   6.336   0.960   2.202 -1.1131 -0.8639 -0.6454
  296TIP3    H2  853   6.186   0.966   2.219 -0.9590  3.4353  0.2452
  297TIP3   OH2  854   4.593   5.064   2.800 -0.3352  0.3719  0.4795
  297TIP3    H1  855   4.666   5.009   2.827 -2.2591 -2.8598 -0.3344
  297TIP3    H2  856   4.610   5.083   2.708  0.9659  2.4327  1.0609
  298TIP3   OH2  857   6.953   5.365   2.450 -0.1084  0.2937  0.0965
  298TIP3    H1  858   6.954   5.423   2.526  1.2236 -0.9755  1.1167
  298TIP3    H2  859   6.889   5.297   2.472 -1.4417  1.1463 -0.9642
  299TIP3   OH2  860   1.305   3.115   3.400  0.1757  0.0268  0.2774
  299TIP3    H1  861   1.333   3.027   3.376 -1.7092 -1.4389  2.9635
  299TIP3    H2  862   1.211   3.115   3.384  0.2284  1.7847 -0.2096
  300TIP3   OH2  863   6.875   1.609   5.267  0.1599  0.2821 -0.4458
  300TIP3    H1  864   6.841   1.675   5.205  0.4304  0.9933  0.1435
  300TIP3    H2  865   6.927   1.550   5.213  0.8184  1.1891 -0.8293
  301TIP3   OH2  866   5.999   6.228   3.573 -0.3009  0.3130  0.1384
  301TIP3    H1  867   6.080   6.276   3.588 -0.4801  0.9918 -0.9106
  301TIP3    H2  868   5.931   6.282   3.614 -0.4614  0.8326 -0.7654
  302TIP3   OH2  869   3.472   0.845   1.473  0.1514 -0.6669  0.3316
  302TIP3    H1  870   3.499   0.769   1.423  0.5624  0.7952 -1.7900
  302TIP3    H2  871   3.552   0.896   1.484 -0.4349  0.3424  0.0795
  303TIP3   OH2  872   6.644   4.791   1.340 -0.5571 -0.2006 -0.1422
  303TIP3    H1  873   6.712   4.749   1.394  1.3243  0.1477 -2.1164
  303TIP3    H2  874   6.612   4.722   1.283 -1.0891 -0.0857  0.0043
  304TIP3   OH2  875   6.208   0.539   0.584 -0.0632 -0.2174  0.1054
  304TIP3    H1  876   6.175   0.474   0.646 -0.1601  0.3840  0.7026
  304TIP3    H2  877   6.187   0.623   0.624 -0.1048  0.1864 -0.7403
  305TIP3   OH2  878   5.427   2.581   5.677 -0.2256  0.2377  0.2078
  305TIP3    H1  879   5.442   2.517   5.746 -1.4010  0.6943  0.8999
  305TIP3    H2  880   5.413   2.664   5.723  0.0325  0.7625 -0.6274
  306TIP3   OH2  881   3.945   1.770   0.655  0.4107  0.2106  0.2689
  306TIP3    H1  882   3.899   1.784   0.738  0.6799  2.1909  0.1363
  306TIP3    H2  883   4.019   1.830   0.658 -0.1748  1.1233 -1.8327
  307TIP3   OH2  884   6.529   2.783   0.054 -0.6584 -0.3811 -0.0034
  307TIP3    H1  885   6.577   2.804  -0.025 -0.5769 -0.3748  0.0476
  307TIP3    H2  886   6.480   2.863   0.075 -0.8630 -0.4613 -0.1790
  308TIP3   OH2  887   4.352   4.230   2.852  0.1955  0.2021  0.3143
  308TIP3    H1  888   4.275   4.204   2.901  0.1967 -1.5424 -0.5478
  308TIP3    H2  889   4.341   4.325   2.839 -1.5072  0.0808  0.6823
  309TIP3   OH2  890   1.745   3.808   2.097 -0.1249  0.3883  0.0151
  309TIP3    H1  891   1.740   3.866   2.021  0.9310  0.1194 -0.2793
  309TIP3    H2  892   1.832   3.768   2.091 -0.5614 -0.6816  0.6108
  310TIP3   OH2  893   0.551   4.867   3.110  0.2987  0.1753 -0.2337
  310TIP3    H1  894   0.584   4.855   3.021 -0.4061  0.0576 -0.4893
  310TIP3    H2  895   0.525   4.779   3.137 -1.0745  0.4584 -0.5617
  311TIP3   OH2  896   5.028   0.775   3.354 -0.3528  0.8786 -0.4073
  311TIP3    H1  897   5.102   0.794   3.412 -1.5079  2.8345  0.5219
  311TIP3    H2  898   5.063   0.715   3.289  1.7698  0.9337  0.6114
  312TIP3   OH2  899   4.913   1.682   1.908 -0.0693 -0.2838  0.3452
  312TIP3    H1  900   4.971   1.669   1.833 -0.9947 -0.7310 -0.3106
  312TIP3    H2  901   4.832   1.636   1.884 -0.2465 -0.7618  1.7724
  313TIP3   OH2  902   6.954   4.244   5.750  0.0475  0.2308 -0.7008
  313TIP3    H1  903   6.917   4.309   5.810  0.3196  1.0548 -1.4121
  313TIP3    H2  904   7.031   4.210   5.796 -0.5447 -0.1941  0.0180
  314TIP3   OH2  905   2.302   3.782   1.703 -0.0050  0.2745  0.3569
  314TIP3    H1  906   2.362   3.727   1.652  0.6542  1.4688 -0.1862
  314TIP3    H2  907   2.235   3.809   1.641  0.5874  1.4164  0.1829
  315TIP3   OH2  908   5.481   1.696   3.795  0.0102 -0.2650 -0.4958
  315TIP3    H1  909   5.409   1.734   3.745 -0.7426 -0.7024  0.2346
  315TIP3    H2  910   5.559   1.743   3.765 -0.9447  2.4060  0.8502
  316TIP3   OH2  911   0.382   5.462   5.376  0.2016 -0.3441 -0.5194
  316TIP3    H1  912   0.476   5.450   5.389  0.5510  0.0852 -2.3665
  316TIP3    H2  913   0.360   5.404   5.303 -0.8280  0.1022 -0.5841
  317TIP3   OH2  914   2.542   2.048   3.115 -0.4716 -0.0738  0.2822
  317TIP3    H1  915   2.592   2.088   3.044  0.3100 -0.2303  0.7258
  317TIP3    H2  916   2.481   2.116   3.142 -3.3956 -1.1524 -2.9186
  318TIP3   OH2  917   3.395   4.356   2.463 -0.0400  0.2248  0.0149
  318TIP3    H1  918   3.433   4.276   2.428  1.6568  0.8548  0.3546
  318TIP3    H2  919   3.336   4.386   2.394  0.7206 -0.3314 -0.9010
  319TIP3   OH2  920   0.021   4.042   2.567 -0.8329 -0.1334  0.1803
  319TIP3    H1  921   0.095   4.028   2.508  0.1240 -1.1389  1.5519
  319TIP3    H2  922  -0.027   4.116   2.528  0.4895  0.1004 -1.1118
  320TIP3   OH2  923   5.739   6.254   0.413  0.1293 -0.0851 -0.5968
  320TIP3    H1  924   5.765   6.222   0.326  1.8327  0.4054 -0.3017
  320TIP3    H2  925   5.818   6.248   0.466 -0.4440  1.2083  0.4669
  321TIP3   OH2  926   6.415   1.502   3.331  0.1682  0.0449  0.0284
  321TIP3    H1  927   6.508   1.510   3.312  0.1047  0.8444  0.0130
  321TIP3    H2  928   6.411   1.480   3.424  0.3568  0.8672  0.2393
  322TIP3   OH2  929   3.341   0.085   5.152  0.0192 -0.0625  0.0946
  322TIP3    H1  930   3.346   0.041   5.237  0.3491  0.9611  0.6176
  322TIP3    H2  931   3.428   0.124   5.141  0.4063 -1.2290 -1.3049
  323TIP3   OH2  932   3.388   0.699   1.904 -0.7860  0.0226 -0.4587
  323TIP3    H1  933   3.441   0.763   1.951  0.3763 -0.6920 -0.7445
  323TIP3    H2  934   3.430   0.691   1.818 -0.8785 -1.1459 -0.4154
  324TIP3   OH2  935   5.500   4.357   2.840  0.6315 -0.2731 -1.0891
  324TIP3    H1  936   5.478   4.266   2.824  0.6753 -0.6883  0.9817
  324TIP3    H2  937   5.416   4.400   2.856  0.8040 -0.6182  0.9398
  325TIP3   OH2  938   5.717   0.741   4.347  0.2693 -0.6812  0.1214
  325TIP3    H1  939   5.709   0.822   4.396 -0.1823 -1.7346  1.9007
  325TIP3    H2  940   5.659   0.680   4.392  0.6687 -2.0296 -1.0973
  326TIP3   OH2  941   2.525   5.911   4.446 -0.5686 -0.1346  0.5943
  326TIP3    H1  942   2.582   5.839   4.419 -1.3596  0.0537 -1.8086
  326TIP3    H2  943   2.451   5.868   4.489 -0.6544 -0.7202 -0.1112
  327TIP3   OH2  944   4.703   2.486   3.730  0.1014  0.3980 -0.0717
  327TIP3    H1  945   4.660   2.537   3.662  0.2259 -0.2685 -0.6529
  327TIP3    H2  946   4.632   2.456   3.787 -0.2992 -1.2013 -1.3591
  328TIP3   OH2  947   1.748   5.460   2.431 -0.6900  0.1935 -0.3986
  328TIP3    H1  948   1.764   5.366   2.424  2.0694  0.6404 -1.0129
  328TIP3    H2  949   1.792   5.487   2.511  0.0988  1.2367 -1.1530
  329TIP3   OH2  950   2.902   5.045   0.930 -0.5437  0.0577 -0.0108
  329TIP3    H1  951   2.998   5.037   0.935 -0.6427 -0.9788  0.5645
  329TIP3    H2  952   2.884   5.133   0.960  0.1302 -0.2804  1.4675
  330TIP3   OH2  953   1.029   2.743   5.712  0.4356 -0.0932 -0.1397
  330TIP3    H1  954   1.084   2.684   5.762  1.9272  0.7017 -0.7915
  330TIP3    H2  955   0.945   2.742   5.758  1.7101  0.5960  2.3919
  331TIP3   OH2  956   2.132   1.553   5.254 -0.1720 -0.5442  0.1796
  331TIP3    H1  957   2.127   1.468   5.211  1.1201 -0.9649  0.8463
  331TIP3    H2  958   2.148   1.534   5.346  0.3134  0.4252  0.3127
  332TIP3   OH2  959   0.245   4.334   3.651  0.0445 -0.1447  0.2677
  332TIP3    H1  960   0.332   4.301   3.675  0.9074  0.3322 -1.9466
  332TIP3    H2  961   0.250   4.428   3.668  1.0705  0.4095 -2.5231
  333TIP3   OH2  962   5.196   4.952   3.909  0.5949  0.0820  0.7944
  333TIP3    H1  963   5.287   4.975   3.892  0.6969 -1.2315 -0.6632
  333TIP3    H2  964   5.168   4.906   3.830 -0.5170 -1.9084  2.2564
  334TIP3   OH2  965   1.714   4.271   5.044 -0.3679 -0.3863  0.6539
  334TIP3    H1  966   1.676   4.208   4.983  0.5633  0.0408 -0.3932
  334TIP3    H2  967   1.775   4.322   4.991  1.1956 -0.6356  2.1310
  335TIP3   OH2  968   3.486   6.704   4.250 -0.1166 -0.2507  0.4094
  335TIP3    H1  969   3.403   6.745   4.276 -0.3066 -0.2089 -0.2390
  335TIP3    H2  970   3.497   6.729   4.158 -0.5404 -2.1389 -0.2005
  336TIP3   OH2  971   2.881   2.243   1.822 -0.0237 -0.1598  0.1867
  336TIP3    H1  972   2.976   2.254   1.816  0.4114 -2.7521  1.3945
  336TIP3    H2  973   2.851   2.256   1.732  1.8161 -1.7859 -0.7573
  337TIP3   OH2  974   2.204   2.195   1.172 -0.2823 -0.1215 -0.1093
  337TIP3    H1  975   2.298   2.209   1.161 -0.5441  2.2296  0.1891
  337TIP3    H2  976   2.177   2.151   1.091  0.5620  2.1480 -1.7207
  338TIP3   OH2  977   1.368   1.040   3.598 -0.0619  0.0563 -0.1559
  338TIP3    H1  978   1.398   1.131   3.593 -1.3432  0.4420 -2.2880
  338TIP3    H2  979   1.278   1.042   3.565  0.6391 -2.2563 -2.5925
  339TIP3   OH2  980   3.203   6.034   2.648  0.1157  0.0840  0.2046
  339TIP3    H1  981   3.110   6.036   2.630  0.2230  1.0991 -0.3475
  339TIP3    H2  982   3.210   6.002   2.738 -0.9213  1.9833  1.0345
  340TIP3   OH2  983   5.670   3.547   0.436  0.1333 -0.5355 -0.1166
  340TIP3    H1  984   5.700   3.550   0.345 -1.2706 -2.3495 -0.7069
  340TIP3    H2  985   5.735   3.493   0.481 -1.3961 -3.4424 -1.1245
  341TIP3   OH2  986   6.853   1.339   3.527 -0.4637 -0.3316 -0.5538
  341TIP3    H1  987   6.924   1.304   3.475  0.1831 -1.0480  0.7598
  341TIP3    H2  988   6.830   1.269   3.588 -0.4194  0.8377  0.8738
  342TIP3   OH2  989   1.540   0.329   4.215 -0.1354 -0.3818 -0.0695
  342TIP3    H1  990   1.491   0.366   4.141  1.2500 -0.8702 -1.2860
  342TIP3    H2  991   1.528   0.392   4.286 -0.5096  0.7161 -1.0724
  343TIP3   OH2  992   1.800   0.155   3.631  0.4193 -0.0864  0.0555
  343TIP3    H1  993   1.741   0.201   3.690  2.0946  1.1577  0.8334
  343TIP3    H2  994   1.811   0.068   3.671 -1.7773 -0.8059 -0.7606
  344TIP3   OH2  995   2.062   2.232   5.558 -0.0285  0.2671  0.5829
  344TIP3    H1  996   1.995   2.192   5.612 -1.2510 -0.4608 -1.3517
  344TIP3    H2  997   2.110   2.158   5.520  0.9116  0.7539  0.8031
  345TIP3   OH2  998   6.403   5.864   3.095 -0.4778  0.6654  0.2052
  345TIP3    H1  999   6.427   5.955   3.114 -0.7075  1.0636 -1.2603
  345TIP3    H2 1000   6.332   5.845   3.156 -2.1680  2.3521 -1.0940
  346TIP3   OH2 1001   0.177   3.565   3.489  0.3478 -0.3368 -0.2807
  346TIP3    H1 1002   0.128   3.515   3.424 -2.2874 -0.7162  1.8328
  346TIP3    H2 1003   0.232   3.499   3.532 -2.2441 -1.4190  1.6908
  347TIP3   OH2 1004   3.311   4.442   2.230 -0.1563 -0.0832 -0.5744
  347TIP3    H1 1005   3.227   4.487   2.218  1.2310  2.1524 -2.8630
  347TIP3    H2 1006   3.375   4.499   2.188  2.3072 -2.5553 -0.4641
  348TIP3   OH2 1007   1.363   3.788   4.659 -0.5021 -0.3037  0.3272
  348TIP3    H1 1008   1.298   3.763   4.724  0.3441 -0.3270  1.1789
  348TIP3    H2 1009   1.311   3.820   4.585 -1.4997 -1.0950  0.6584
  349TIP3   OH2 1010   6.411   2.174   1.311 -0.1559 -0.2911  0.0297
  349TIP3    H1 1011   6.384   2.251   1.360 -1.9039 -1.2359  0.6486
  349TIP3    H2 1012   6.467   2.125   1.372  1.3404  0.6443 -0.5214
  350TIP3   OH2 1013   6.437   4.337   3.461 -0.2764  0.4381 -0.6389
  350TIP3    H1 1014   6.405   4.248   3.445  1.5243 -0.0738 -1.6843
  350TIP3    H2 1015   6.447   4.375   3.374 -0.3949  1.4392 -0.2292
  351TIP3   OH2 1016   3.789   2.451   0.143 -0.0930  0.2918  0.4638
  351TIP3    H1 1017   3.864   2.497   0.107 -0.5106  1.5572  1.1584
  351TIP3    H2 1018   3.784   2.370   0.092  1.1078  0.6579 -0.2771
  352TIP3   OH2 1019   4.165   0.938   0.603  0.1623 -0.1276 -0.5680
  352TIP3    H1 1020   4.146   0.918   0.512 -0.6248 -0.0086 -0.4365
  352TIP3    H2 1021   4.080   0.935   0.647  0.6607 -1.3017  0.3767
  353TIP3   OH2 1022   4.528   6.342   2.780  0.4316 -0.4392 -0.0920
  353TIP3    H1 1023   4.461   6.389   2.732 -0.3306 -1.1667  0.2277
  353TIP3    H2 1024   4.516   6.369   2.871  1.1077  0.0422 -0.1370
  354TIP3   OH2 1025   0.459   0.002   5.525  0.1879 -0.1625  0.3368
  354TIP3    H1 1026   0.457   0.056   5.604 -0.5545 -1.3665  1.1591
  354TIP3    H2 1027   0.367  -0.015   5.505  0.4243 -2.1276  0.8020
  355TIP3   OH2 1028   5.299   5.935   3.388 -0.7674 -0.4398  0.0365
  355TIP3    H1 1029   5.359   5.984   3.331 -1.0496 -0.0289  0.0858
  355TIP3    H2 1030   5.333   5.846   3.388  0.0467 -0.1432  0.3351
  356TIP3   OH2 1031   4.254   3.775   1.589  0.0062 -0.0578  0.1243
  356TIP3    H1 1032   4.228   3.848   1.533 -0.9896 -1.4224 -1.2513
  356TIP3    H2 1033   4.179   3.761   1.647  0.0908 -0.1739  0.2058
  357TIP3   OH2 1034   3.942   6.535   4.497 -0.3983  0.3205  0.0350
  357TIP3    H1 1035   3.894   6.500   4.422 -1.0514  1.0329  0.1070
  357TIP3    H2 1036   3.896   6.616   4.519  0.3354  0.5842  0.6397
  358TIP3   OH2 1037   0.734   4.513   4.558 -0.3165  0.2798  0.1420
  358TIP3    H1 1038   0.769   4.530   4.470 -2.2380 -0.8133 -0.9282
  358TIP3    H2 1039   0.791   4.445   4.593 -0.6090 -0.6434 -1.0734
  359TIP3   OH2 1040   4.270   2.846   1.724 -1.3735 -0.1116  0.6066
  359TIP3    H1 1041   4.246   2.887   1.641 -0.9131 -1.3260 -0.1496
  359TIP3    H2 1042   4.187   2.833   1.770 -1.8420 -1.1973 -0.5143
  360TIP3   OH2 1043   0.636   0.055   3.506 -0.0414  0.0962  0.1537
  360TIP3    H1 1044   0.657   0.142   3.539  0.5921  0.1975 -0.4932
  360TIP3    H2 1045   0.679   0.051   3.421  0.3218 -1.0122  0.3705
  361TIP3   OH2 1046   5.660   3.680   4.608 -0.6463  0.3225 -0.6401
  361TIP3    H1 1047   5.577   3.643   4.637 -0.9469  1.7903  0.4881
  361TIP3    H2 1048   5.658   3.671   4.513 -0.9316 -1.9820 -0.4630
  362TIP3   OH2 1049   1.526   1.627   3.131  0.4797 -0.0262  0.9142
  362TIP3    H1 1050   1.537   1.568   3.206 -3.7537 -1.8600  0.3975
  362TIP3    H2 1051   1.475   1.700   3.165  0.0945  0.0452  0.2046
  363TIP3   OH2 1052   1.957   5.642   0.718 -0.2320  0.0384  0.0818
  363TIP3    H1 1053   1.935   5.673   0.805 -0.0430  3.4904 -0.9491
  363TIP3    H2 1054   1.873   5.634   0.673 -0.2057  0.4464 -0.0460
  364TIP3   OH2 1055   5.667   0.328   1.364 -0.2076 -0.5090  0.2226
  364TIP3    H1 1056   5.607   0.267   1.408 -3.7669  2.3734 -0.1729
  364TIP3    H2 1057   5.714   0.274   1.301 -1.6874 -3.1734  1.2272
  365TIP3   OH2 1058   4.361   3.157   1.463 -0.5796  0.3993  0.1309
  365TIP3    H1 1059   4.422   3.107   1.517 -0.9736  1.1370  1.3236
  365TIP3    H2 1060   4.405   3.240   1.448 -0.3181  0.0592 -1.0336
  366TIP3   OH2 1061   6.452   0.884   4.398  0.1974  0.1167  0.1086
  366TIP3    H1 1062   6.449   0.850   4.487 -0.2013  2.2026  0.9416
  366TIP3    H2 1063   6.538   0.925   4.389  0.1067  0.2233 -0.3502
  367TIP3   OH2 1064   4.225   2.700   3.640 -0.4553  0.0096 -0.3349
  367TIP3    H1 1065   4.301   2.716   3.696 -1.4058  0.6834  0.8128
  367TIP3    H2 1066   4.191   2.615   3.671 -0.7459  0.1897 -0.1550
  368TIP3   OH2 1067   2.816   4.033   4.815 -0.1096 -0.4533 -0.3790
  368TIP3    H1 1068   2.812   4.097   4.885  1.0203  0.4105 -1.0676
  368TIP3    H2 1069   2.818   4.085   4.735 -0.7095 -1.4011 -1.0323
  369TIP3   OH2 1070   1.020   6.588   2.537  0.2458 -0.2667 -0.4593
  369TIP3    H1 1071   1.048   6.527   2.605  0.5336 -0.0435 -0.3729
  369TIP3    H2 1072   1.004   6.670   2.584  2.2648  0.4383 -0.8868
  370TIP3   OH2 1073   5.676   1.774   2.862 -0.7302  0.0952  0.4612
  370TIP3    H1 1074   5.699   1.852   2.912 -0.2458  0.3666 -0.1808
  370TIP3    H2 1075   5.695   1.796   2.771 -2.3271 -0.1138  0.0335
  371TIP3   OH2 1076   3.723   4.676   0.744  0.8746 -0.4445  0.0861
  371TIP3    H1 1077   3.666   4.713   0.811  0.1639 -0.6160 -0.4198
  371TIP3    H2 1078   3.782   4.748   0.721  0.4664 -0.0784  0.1714
  372TIP3   OH2 1079   6.513   5.682   4.563  0.0822  0.1437 -0.3522
  372TIP3    H1 1080   6.550   5.738   4.495 -0.3230 -0.7357 -1.3185
  372TIP3    H2 1081   6.507   5.596   4.523  1.8871 -0.9251  1.5192
  373TIP3   OH2 1082   1.068   4.608  -0.020 -0.0132 -0.6015  0.4222
  373TIP3    H1 1083   1.152   4.566  -0.035  1.3042  2.1114 -0.5920
  373TIP3    H2 1084   1.082   4.664   0.057  0.1653  2.0445 -1.3704
  374TIP3   OH2 1085   3.414   1.619   2.570  0.1598  0.0470  0.6985
  374TIP3    H1 1086   3.378   1.531   2.572  1.0332 -0.3515 -0.3199
  374TIP3    H2 1087   3.379   1.661   2.649  1.3139 -1.8068  2.2811
  375TIP3   OH2 1088   2.152   5.142   4.656 -0.2560 -1.0045  0.0506
  375TIP3    H1 1089   2.182   5.208   4.719 -0.0874  0.7836 -1.7800
  375TIP3    H2 1090   2.232   5.100   4.625 -0.0673 -0.0005 -0.8864
  376TIP3   OH2 1091   1.855   6.638   2.443 -1.0188 -0.3451 -0.1792
  376TIP3    H1 1092   1.858   6.547   2.414 -0.1603 -0.8090  1.2857
  376TIP3    H2 1093   1.851   6.633   2.538  1.1224  1.1437  0.0623
  377TIP3   OH2 1094   3.770   2.879   3.398 -0.6949 -0.1081 -0.2348
  377TIP3    H1 1095   3.703   2.832   3.349  0.6891 -0.3380 -2.0094
  377TIP3    H2 1096   3.850   2.867   3.347  0.4463  1.2106  1.1433
  378TIP3   OH2 1097   6.105   3.142   3.683 -0.4378  0.1071 -0.2568
  378TIP3    H1 1098   6.173   3.134   3.749 -0.5424 -1.0770 -0.2815
  378TIP3    H2 1099   6.126   3.223   3.637  0.5498  0.1103  0.1778
  379TIP3   OH2 1100   0.516   3.198   0.162  0.0918 -0.0830 -0.5987
  379TIP3    H1 1101   0.594   3.149   0.136 -0.5162 -0.8225 -1.0726
  379TIP3    H2 1102   0.536   3.289   0.140  1.2916 -0.0841  0.4216
  380TIP3   OH2 1103   1.091   4.114   2.260 -0.4461  0.2558 -0.0103
  380TIP3    H1 1104   1.184   4.114   2.237 -0.2251  0.3032  0.8680
  380TIP3    H2 1105   1.050   4.061   2.192  0.2625  0.0122 -0.2593
  381TIP3   OH2 1106   1.584   2.277   5.332 -0.5146  0.0491  0.7583
  381TIP3    H1 1107   1.656   2.215   5.332  0.2613  0.9345  0.7867
  381TIP3    H2 1108   1.608   2.343   5.397 -0.9191  0.8225  0.1519
  382TIP3   OH2 1109   0.347   1.071   0.446  0.0844  0.8091 -0.2034
  382TIP3    H1 1110   0.313   1.116   0.368  0.7996  0.8410 -0.4968
  382TIP3    H2 1111   0.364   1.142   0.508 -0.9094  0.7489  0.1584
  383TIP3   OH2 1112   1.422   6.465   2.431  0.0998 -0.2398  0.2766
  383TIP3    H1 1113   1.372   6.391   2.468  0.6051 -0.3935  0.6592
  383TIP3    H2 1114   1.355   6.528   2.406 -0.3823 -1.0851 -0.6297
  384TIP3   OH2 1115   2.229   6.693   0.927 -0.0652 -0.0406 -0.8536
  384TIP3    H1 1116   2.199   6.622   0.984 -1.1117 -0.0370 -1.3647
  384TIP3    H2 1117   2.151   6.716   0.876  0.7921  0.0880 -2.1350
  385TIP3   OH2 1118   6.715   0.269   2.795 -0.0922  0.6845  0.1929
  385TIP3    H1 1119   6.697   0.273   2.702  0.2808 -1.5150 -0.0344
  385TIP3    H2 1120   6.733   0.360   2.821  1.1056  1.1826 -2.1395
  386TIP3   OH2 1121   5.429   5.501   0.502 -0.7855  0.2464  0.1244
  386TIP3    H1 1122   5.335   5.510   0.520 -1.1451 -2.0635 -0.2671
  386TIP3    H2 1123   5.433   5.482   0.408 -0.1475 -1.8517  0.5335
  387TIP3   OH2 1124   6.929   1.600   4.594 -0.6464  0.1702  0.0800
  387TIP3    H1 1125   6.880   1.656   4.654 -0.6936 -0.5446  0.7309
  387TIP3    H2 1126   6.881   1.604   4.512 -1.0740  0.4868  0.3437
  388TIP3   OH2 1127   5.457   0.106   1.421  0.8112  1.1601  0.2869
  388TIP3    H1 1128   5.369   0.115   1.384  0.3554 -0.4552  0.8769
  388TIP3    H2 1129   5.444   0.106   1.515  0.6013 -4.3174  0.5671
  389TIP3   OH2 1130   4.182   3.495   3.245  0.2712 -0.0577 -0.6426
  389TIP3    H1 1131   4.140   3.424   3.295 -0.4828  0.8335  0.0261
  389TIP3    H2 1132   4.111   3.532   3.192  0.7668 -0.1069 -1.3404
  390TIP3   OH2 1133   1.198   4.644   0.684  0.6964  0.0903 -0.1019
  390TIP3    H1 1134   1.193   4.700   0.607  1.3723  0.1093 -0.1352
  390TIP3    H2 1135   1.114   4.598   0.686 -0.2810  1.7839  0.4511
  391TIP3   OH2 1136   0.669   4.990   0.418  0.1249  0.4264 -0.4574
  391TIP3    H1 1137   0.695   4.906   0.455 -2.7038  0.3301  1.5987
  391TIP3    H2 1138   0.610   4.968   0.347 -2.6920  0.5080  1.6907
  392TIP3   OH2 1139   6.515   4.758   3.423  0.1059  0.4440  0.0331
  392TIP3    H1 1140   6.527   4.821   3.352  0.7504  0.8967  0.5399
  392TIP3    H2 1141   6.444   4.795   3.476  2.2017  2.1424  1.8172
  393TIP3   OH2 1142   5.089   2.886   1.610  0.3593 -0.3430 -0.2355
  393TIP3    H1 1143   5.174   2.924   1.589 -0.4458  0.8818 -1.4642
  393TIP3    H2 1144   5.026   2.947   1.572 -1.1325 -0.2313  2.2089
  394TIP3   OH2 1145   0.773   5.139   2.117 -0.6156  0.1626 -0.2972
  394TIP3    H1 1146   0.816   5.133   2.031 -0.8352 -1.3442 -0.3207
  394TIP3    H2 1147   0.680   5.147   2.095 -0.5734  0.9873 -0.2047
  395TIP3   OH2 1148   2.128   3.535   3.853  0.0106 -0.4477 -0.2526
  395TIP3    H1 1149   2.086   3.620   3.839  0.1555  0.2052  2.6496
  395TIP3    H2 1150   2.118   3.489   3.770 -1.1580  1.9332 -1.5204
  396TIP3   OH2 1151   5.937   1.892   5.170 -0.2748  0.2376  0.1283
  396TIP3    H1 1152   5.843   1.885   5.185 -0.4337  1.2613 -0.2955
  396TIP3    H2 1153   5.961   1.979   5.202  0.3742  0.2910 -0.4552
  397TIP3   OH2 1154   1.047   4.642   0.945 -0.0977 -0.0871 -0.6909
  397TIP3    H1 1155   1.092   4.578   1.000 -0.4487  0.3542  0.1214
  397TIP3    H2 1156   1.116   4.699   0.912 -0.1744  1.9017  2.2367
  398TIP3   OH2 1157   6.118   5.918   3.576 -0.0050  0.4282  0.1996
  398TIP3    H1 1158   6.164   5.968   3.643 -0.4889  0.0721  0.8101
  398TIP3    H2 1159   6.031   5.957   3.573 -0.0119  0.3825 -0.1569
  399TIP3   OH2 1160   5.859   4.371   4.526 -0.2893 -0.5194  0.1015
  399TIP3    H1 1161   5.849   4.395   4.434 -0.0642  0.4997  0.3297
  399TIP3    H2 1162   5.953   4.356   4.537 -0.2915 -0.4623  0.2001
  400TIP3   OH2 1163   0.902   3.896   3.183 -0.0706 -0.0322 -0.3616
  400TIP3    H1 1164   0.869   3.833   3.248 -0.3413  1.4490  1.0030
  400TIP3    H2 1165   0.991   3.866   3.165  0.3326 -0.0084  1.3893
  401TIP3   OH2 1166   0.775   1.329   2.972 -0.2766 -0.1608  0.4781
  401TIP3    H1 1167   0.854   1.328   2.919 -0.8574 -1.5510 -0.4209
  401TIP3    H2 1168   0.716   1.389   2.926  0.2640  0.9652  1.2103
  402TIP3   OH2 1169   5.020   6.300   0.396 -0.5282 -0.0924  0.1413
  402TIP3    H1 1170   5.113   6.319   0.408 -1.0449  2.0069  1.2734
  402TIP3    H2 1171   5.014   6.205   0.404  1.6347 -0.3916 -0.9736
  403TIP3   OH2 1172   3.778   3.292   3.203 -0.0700 -0.2345  0.2566
  403TIP3    H1 1173   3.751   3.369   3.153  1.3682  0.8039  0.9988
  403TIP3    H2 1174   3.746   3.218   3.152  1.6310  0.7216 -2.4456
  404TIP3   OH2 1175   7.045   6.045   5.252  0.3418  0.4467  0.2179
  404TIP3    H1 1176   7.092   6.125   5.230  0.6734  0.5007  1.1175
  404TIP3    H2 1177   7.112   5.987   5.288  0.3134 -0.6355 -1.3660
  405TIP3   OH2 1178   0.364   6.287   3.063 -0.5752 -0.5720  0.0480
  405TIP3    H1 1179   0.283   6.242   3.085 -0.9399  0.8567  1.9123
  405TIP3    H2 1180   0.336   6.369   3.023 -0.0661 -0.1530  0.5285
  406TIP3   OH2 1181   1.226   3.561   1.477  0.1004 -0.6102 -0.1673
  406TIP3    H1 1182   1.140   3.588   1.445  0.5423  0.6912 -0.2900
  406TIP3    H2 1183   1.241   3.476   1.434 -1.4995 -1.3226  0.5825
  407TIP3   OH2 1184   5.250   1.011   1.842  0.5088 -0.2248 -0.5093
  407TIP3    H1 1185   5.342   1.036   1.852  0.2707  0.0082  1.4411
  407TIP3    H2 1186   5.241   0.930   1.892 -0.4447  0.0093 -0.2802
  408TIP3   OH2 1187   0.891   3.302   1.430  0.0340  0.1867  0.3182
  408TIP3    H1 1188   0.814   3.256   1.396  0.3421  0.4121 -0.7435
  408TIP3    H2 1189   0.960   3.284   1.366  0.9180 -0.1396  1.3262
  409TIP3   OH2 1190   2.241   4.900   1.591  0.3088 -0.6817 -0.1199
  409TIP3    H1 1191   2.302   4.839   1.632 -2.0653 -2.2932  1.2639
  409TIP3    H2 1192   2.221   4.861   1.506  1.3664  0.0229 -0.7233
  410TIP3   OH2 1193   0.901   3.356   2.897 -0.2423  0.4264 -0.0554
  410TIP3    H1 1194   0.926   3.363   2.805 -1.0476  1.6688 -0.1985
  410TIP3    H2 1195   0.932   3.437   2.937 -0.3647  0.1289  0.6467
  411TIP3   OH2 1196   6.771   3.951   2.687 -0.0131  0.0246 -0.5534
  411TIP3    H1 1197   6.813   3.888   2.745 -3.4190 -1.8541  0.1381
  411TIP3    H2 1198   6.837   4.020   2.674  3.9405 -3.5131 -1.3125
  412TIP3   OH2 1199   1.182   2.577   1.017 -0.2409 -0.0125  0.1498
  412TIP3    H1 1200   1.111   2.523   1.052  1.2294  0.0622  3.6249
  412TIP3    H2 1201   1.244   2.515   0.978 -0.9956 -0.2847 -0.6506
  413TIP3   OH2 1202   1.448   3.167   4.352  0.4773  0.1272  0.0112
  413TIP3    H1 1203   1.490   3.218   4.421 -1.2881 -0.1997  1.4246
  413TIP3    H2 1204   1.486   3.200   4.271  2.7050  0.4608  1.1289
  414TIP3   OH2 1205   6.789   3.519   4.923  0.3256 -0.2355  0.0686
  414TIP3    H1 1206   6.883   3.539   4.931  0.0287  0.6291  1.8170
  414TIP3    H2 1207   6.786   3.423   4.915  1.4516 -0.1440 -2.6665
  415TIP3   OH2 1208   4.765   3.590   5.534 -0.6464  0.0059 -0.0891
  415TIP3    H1 1209   4.707   3.618   5.463 -1.4664  0.3003  0.6812
  415TIP3    H2 1210   4.738   3.642   5.610 -3.1530 -3.6654  1.8215
  416TIP3   OH2 1211   2.491   6.010   3.167  0.1296  0.3168  0.4541
  416TIP3    H1 1212   2.432   6.002   3.092  0.0525  2.6381  0.2146
  416TIP3    H2 1213   2.433   6.010   3.243  0.1781 -1.6004  0.5381
  417TIP3   OH2 1214   2.891   0.537   5.449 -0.5852 -0.2429  0.3665
  417TIP3    H1 1215   2.948   0.601   5.406 -2.4841  1.8835  0.8158
  417TIP3    H2 1216   2.910   0.546   5.542 -0.4182 -0.8110  0.3903
  418TIP3   OH2 1217   5.737   6.241   4.451  0.0933 -0.6289  0.2236
  418TIP3    H1 1218   5.805   6.244   4.384 -0.6572 -0.6961 -0.5617
  418TIP3    H2 1219   5.717   6.333   4.467 -0.3555 -0.6223 -0.3204
  419TIP3   OH2 1220   3.265   1.816   2.418 -0.2502 -0.0308  0.0222
  419TIP3    H1 1221   3.258   1.879   2.489 -1.1989  0.8121 -0.7760
  419TIP3    H2 1222   3.328   1.750   2.449  1.4437  1.7403  0.5577
  420TIP3   OH2 1223   4.851   3.217   3.948  0.3498  0.3697 -0.4586
  420TIP3    H1 1224   4.792   3.152   3.984 -1.0551  1.9886  0.2906
  420TIP3    H2 1225   4.875   3.182   3.862 -0.4395 -1.0539 -0.1392
  421TIP3   OH2 1226   3.253   1.988   1.667  0.2110 -0.2728 -0.6879
  421TIP3    H1 1227   3.178   1.972   1.609 -1.4131  0.0537  1.2230
  421TIP3    H2 1228   3.218   1.975   1.755  2.2077  0.7218  0.3090
  422TIP3   OH2 1229   0.509   4.339   5.353  0.4825 -0.2846  0.6121
  422TIP3    H1 1230   0.601   4.361   5.342 -0.2115  2.7213  0.0647
  422TIP3    H2 1231   0.489   4.281   5.279  1.4525  0.7903 -0.5265
  423TIP3   OH2 1232   0.162   1.544   3.903 -0.1313  0.0726 -0.2860
  423TIP3    H1 1233   0.219   1.468   3.914  0.5608  0.4930 -0.8494
  423TIP3    H2 1234   0.191   1.606   3.969 -0.3154  0.0758 -0.2057
  424TIP3   OH2 1235   3.395   0.221   3.636  0.4300 -0.2148 -0.6442
  424TIP3    H1 1236   3.483   0.185   3.621  0.3423 -0.2078 -1.2289
  424TIP3    H2 1237   3.407   0.283   3.708  1.2330  0.9311 -1.7098
  425TIP3   OH2 1238   3.295   2.116   4.586 -0.6031  0.4519  0.1665
  425TIP3    H1 1239   3.310   2.062   4.507 -1.1054  1.7216 -0.8347
  425TIP3    H2 1240   3.304   2.206   4.555 -1.3021  0.9944  1.4684
  426TIP3   OH2 1241   5.026   3.327   1.620  0.3997 -0.1823  0.1314
  426TIP3    H1 1242   5.075   3.382   1.560  3.0426 -0.6977  1.6879
  426TIP3    H2 1243   4.979   3.388   1.677  1.2579  0.3932  0.2236
  427TIP3   OH2 1244   0.698   2.660   3.320 -0.2371 -0.2669 -1.3817
  427TIP3    H1 1245   0.760   2.595   3.287 -0.3259 -0.7736 -0.5878
  427TIP3    H2 1246   0.679   2.717   3.245  1.8700  0.4579 -1.4224
  428TIP3   OH2 1247   1.714   4.467   5.646  0.2506  0.2463  0.5980
  428TIP3    H1 1248   1.628   4.437   5.675  0.7081 -2.6652 -0.7352
  428TIP3    H2 1249   1.696   4.525   5.572 -0.5713 -0.3853  0.2984
  429TIP3   OH2 1250   6.388   2.410   1.942 -0.3330 -0.2093 -0.1737
  429TIP3    H1 1251   6.436   2.481   1.900  1.0083 -1.0596 -0.1321
  429TIP3    H2 1252   6.382   2.342   1.874 -1.4676 -0.1371 -0.1657
  430TIP3   OH2 1253   5.506   4.170   1.797 -0.6559  0.3042  0.5976
  430TIP3    H1 1254   5.521   4.155   1.890  2.1843 -0.8908  0.0420
  430TIP3    H2 1255   5.545   4.094   1.754 -2.6090  0.4341 -1.5757
  431TIP3   OH2 1256   4.804   2.431   1.127 -0.4879  0.4142  0.2918
  431TIP3    H1 1257   4.859   2.502   1.160  0.6740 -0.0396 -0.5772
  431TIP3    H2 1258   4.742   2.474   1.067  0.2530  0.6998 -0.2846
  432TIP3   OH2 1259   5.189   1.845   0.290  0.1086  0.4653 -0.4419
  432TIP3    H1 1260   5.126   1.815   0.225 -0.9132  2.3741 -0.4171
  432TIP3    H2 1261   5.270   1.858   0.240  1.1945 -3.7202 -0.1551
  433TIP3   OH2 1262   3.586   1.173   0.066  0.0356  0.2743 -0.1673
  433TIP3    H1 1263   3.619   1.086   0.044  0.6568  0.4050  0.2249
  433TIP3    H2 1264   3.519   1.158   0.133 -0.9635 -0.0195 -1.2104
  434TIP3   OH2 1265   2.085   4.754   4.868  0.0778 -0.1374 -0.3399
  434TIP3    H1 1266   2.056   4.705   4.791  0.1208 -0.0842 -0.3902
  434TIP3    H2 1267   2.012   4.747   4.930  0.3844 -0.9051 -0.0502
  435TIP3   OH2 1268   2.087   2.904   3.704 -0.1776 -0.4351  0.0255
  435TIP3    H1 1269   2.029   2.975   3.731 -0.7518 -0.4323 -1.1151
  435TIP3    H2 1270   2.167   2.948   3.673 -0.3709 -0.3014 -0.2919
  436TIP3   OH2 1271   2.494   1.890   0.562  0.1642  0.3375  0.1013
  436TIP3    H1 1272   2.422   1.842   0.604 -1.3795  2.5673  0.1633
  436TIP3    H2 1273   2.565   1.886   0.626 -1.7526  2.6611  2.6279
  437TIP3   OH2 1274   2.131   5.534   0.243 -0.6224  0.4461  0.4674
  437TIP3    H1 1275   2.136   5.476   0.319  1.9593  1.4479  1.1759
  437TIP3    H2 1276   2.136   5.622   0.280 -1.5187  1.0375 -0.7556
  438TIP3   OH2 1277   2.609   3.177   4.867  0.5537 -0.1239 -0.1699
  438TIP3    H1 1278   2.651   3.092   4.855 -0.3001 -0.4993 -0.5002
  438TIP3    H2 1279   2.526   3.171   4.821  0.5401  0.9434 -0.3221
  439TIP3   OH2 1280   6.948   0.151   5.528  0.0094 -0.5882  0.0023
  439TIP3    H1 1281   6.959   0.139   5.622  0.3487  0.5867  0.1269
  439TIP3    H2 1282   6.867   0.203   5.519  1.6942  2.2253 -0.0987
  440TIP3   OH2 1283   4.806   0.833   1.320 -0.4586 -0.4886  0.1839
  440TIP3    H1 1284   4.827   0.894   1.391  0.5793  0.9688 -1.2859
  440TIP3    H2 1285   4.757   0.762   1.362 -2.0766  1.5255  1.9427
  441TIP3   OH2 1286   1.111   3.840   2.985 -0.7073 -0.4920 -0.0781
  441TIP3    H1 1287   1.077   3.776   2.923 -0.7429 -1.5277  0.9778
  441TIP3    H2 1288   1.205   3.843   2.968 -0.0794 -3.4167  2.0315
  442TIP3   OH2 1289   1.911   2.773   5.215  0.7025  0.7444 -0.3911
  442TIP3    H1 1290   1.827   2.775   5.169 -0.0638  2.0368  0.9567
  442TIP3    H2 1291   1.958   2.850   5.183  0.6633  0.9678  0.0747
  443TIP3   OH2 1292   5.888   0.298   3.923 -0.1745  0.3674  0.0465
  443TIP3    H1 1293   5.970   0.287   3.875  1.1395 -0.4075  2.2608
  443TIP3    H2 1294   5.831   0.228   3.891  0.9765 -0.6766  0.2288
  444TIP3   OH2 1295   2.572   0.886   4.391  0.2474 -0.4932 -0.3213
  444TIP3    H1 1296   2.590   0.826   4.464 -1.8335 -1.0042 -0.1701
  444TIP3    H2 1297   2.565   0.972   4.433 -2.3352 -0.9641  0.4036
  445TIP3   OH2 1298   3.013   1.392   3.895 -0.4491 -0.7565 -0.6573
  445TIP3    H1 1299   3.049   1.471   3.853  0.4589 -0.7855  0.0370
  445TIP3    H2 1300   3.063   1.320   3.858 -0.1861 -0.8540 -0.1257
  446TIP3   OH2 1301   1.847   2.970   2.418  0.0260 -0.5061  0.3903
  446TIP3    H1 1302   1.843   2.886   2.372  1.9306 -0.4550  0.0579
  446TIP3    H2 1303   1.892   2.950   2.501  1.7437  0.3829 -0.2801
  447TIP3   OH2 1304   5.447   0.780   3.447  0.1809  0.2171  0.1569
  447TIP3    H1 1305   5.476   0.725   3.373  0.2673  0.1116  0.2691
  447TIP3    H2 1306   5.447   0.869   3.411  2.1054  0.4279  0.5682
  448TIP3   OH2 1307   6.994   6.522   0.607 -0.0725  0.5749 -0.2344
  448TIP3    H1 1308   7.052   6.584   0.651 -0.1597 -1.7680  3.6931
  448TIP3    H2 1309   7.039   6.500   0.526  1.7982  2.8641  0.0847
  449TIP3   OH2 1310   1.182   1.939   4.583 -0.0077  0.4719 -0.1553
  449TIP3    H1 1311   1.177   2.034   4.572  0.4217  0.6078  0.7368
  449TIP3    H2 1312   1.266   1.915   4.544  0.4540  0.6393  0.7066
  450TIP3   OH2 1313   6.775   0.624   2.271 -0.1788  0.5476 -0.1583
  450TIP3    H1 1314   6.823   0.667   2.200  1.6085 -1.0994 -0.0613
  450TIP3    H2 1315   6.708   0.572   2.227  0.6026 -0.0797 -0.6387
  451TIP3   OH2 1316   3.925   3.960   1.420  0.5880 -0.1627  0.0089
  451TIP3    H1 1317   3.927   3.870   1.453  0.0941 -0.1032  0.2184
  451TIP3    H2 1318   3.875   3.955   1.339  0.1191 -0.0020  0.2822
  452TIP3   OH2 1319   4.311   0.430   0.555 -0.9488 -0.0423  0.8010
  452TIP3    H1 1320   4.250   0.490   0.598  0.3704 -0.8452  4.0893
  452TIP3    H2 1321   4.392   0.437   0.606  1.0437 -0.6561 -2.0465
  453TIP3   OH2 1322   1.294   3.371   4.889  0.2444  0.5197  0.1200
  453TIP3    H1 1323   1.348   3.435   4.935  0.2315 -0.2473  1.2616
  453TIP3    H2 1324   1.231   3.423   4.839  0.7067  1.3957  0.4336
  454TIP3   OH2 1325   7.150   4.294   5.510 -0.3914  0.2677  0.3010
  454TIP3    H1 1326   7.167   4.318   5.419  0.1333 -1.9133 -0.2323
  454TIP3    H2 1327   7.084   4.225   5.504  1.1863 -1.4053  1.4010
  455TIP3   OH2 1328   4.838   0.987   0.856  0.0895 -0.7698  0.5922
  455TIP3    H1 1329   4.774   0.917   0.844  0.2343 -0.9289  0.7220
  455TIP3    H2 1330   4.813   1.055   0.794 -1.4300  0.0584  2.0398
  456TIP3   OH2 1331   2.995   4.286   2.582  0.2019 -0.3555  0.4910
  456TIP3    H1 1332   3.081   4.263   2.616  0.6821  0.4880 -0.1099
  456TIP3    H2 1333   2.941   4.209   2.598  1.1880 -1.0681  0.4587
  457TIP3   OH2 1334   6.977   2.382   4.992  0.4061 -0.2227  0.7427
  457TIP3    H1 1335   6.916   2.447   5.027  0.8297  0.1427  0.8057
  457TIP3    H2 1336   6.981   2.314   5.060 -1.0009 -0.9541  0.1395
  458TIP3   OH2 1337   2.488   6.440   2.613  0.1633  0.0477  0.1490
  458TIP3    H1 1338   2.400   6.424   2.645 -0.2535 -0.5049 -1.1621
  458TIP3    H2 1339   2.519   6.516   2.662 -0.6909 -0.2952  1.2618
  459TIP3   OH2 1340   4.350   0.382   0.123 -0.1196  0.6452 -0.3775
  459TIP3    H1 1341   4.300   0.320   0.176  0.1023  0.8774  0.1074
  459TIP3    H2 1342   4.283   0.428   0.071 -0.2057 -0.6613 -1.4571
  460TIP3   OH2 1343   5.537   4.464   3.902  0.3155 -0.0729  0.5653
  460TIP3    H1 1344   5.480   4.432   3.831 -0.0500  0.4196  0.6333
  460TIP3    H2 1345   5.566   4.550   3.872  1.4757 -0.5359  0.2831
  461TIP3   OH2 1346   5.313   1.425   2.478 -0.0811 -0.3218  0.1660
  461TIP3    H1 1347   5.379   1.455   2.541  0.2530 -1.1876  0.2404
  461TIP3    H2 1348   5.302   1.332   2.497 -0.8342 -0.3365 -0.2961
  462TIP3   OH2 1349   5.303   6.102   5.571  0.0638  0.8233  0.1760
  462TIP3    H1 1350   5.331   6.164   5.504  0.5209 -0.4189 -0.8207
  462TIP3    H2 1351   5.211   6.085   5.550  0.5669 -0.6285 -1.0573
  463TIP3   OH2 1352   6.859   0.868   5.198  0.6126 -0.4296 -0.1542
  463TIP3    H1 1353   6.785   0.815   5.171 -0.6086  1.1056  0.0424
  463TIP3    H2 1354   6.917   0.807   5.243 -0.0766 -1.8420 -1.0959
  464TIP3   OH2 1355   5.345   3.597   1.438  0.2213  0.2910  0.3145
  464TIP3    H1 1356   5.322   3.650   1.515 -0.2657  1.4232 -0.5712
  464TIP3    H2 1357   5.439   3.610   1.427  0.2501  0.3132  0.5805
  465TIP3   OH2 1358   4.183   5.558   0.820  0.0316 -0.5022  0.0851
  465TIP3    H1 1359   4.151   5.475   0.785  1.5711 -1.2671  0.4108
  465TIP3    H2 1360   4.267   5.537   0.860  0.2903  1.1523  0.5049
  466TIP3   OH2 1361   1.743   0.445   5.160  0.6103  0.3226 -0.3627
  466TIP3    H1 1362   1.766   0.358   5.193  0.4641  0.3258 -0.2476
  466TIP3    H2 1363   1.811   0.466   5.096  0.5296  0.0306 -0.5493
  467TIP3   OH2 1364   1.285   4.026   1.972  0.0002  0.4353 -0.0145
  467TIP3    H1 1365   1.324   3.948   2.010  0.2193 -0.0635 -1.2215
  467TIP3    H2 1366   1.191   4.008   1.973  0.0310  0.2704 -0.0448
  468TIP3   OH2 1367   0.150   2.567   1.064  0.1974  0.4744  0.4411
  468TIP3    H1 1368   0.086   2.502   1.033  1.3713 -1.0421  1.1027
  468TIP3    H2 1369   0.220   2.565   0.999  0.1013  1.3307  0.3017
  469TIP3   OH2 1370   1.996   3.370   2.494  0.4542 -0.3986 -0.2222
  469TIP3    H1 1371   1.905   3.399   2.484  0.5374  0.4271  1.1381
  469TIP3    H2 1372   2.043   3.415   2.424 -0.0507 -0.1645 -0.4172
  470TIP3   OH2 1373   6.206   5.495   4.484 -0.4273  1.4477  0.2724
  470TIP3    H1 1374   6.188   5.586   4.508 -0.3813  1.5775 -0.1944
  470TIP3    H2 1375   6.152   5.444   4.545  0.3545  1.7480  1.2549
  471TIP3   OH2 1376   5.987   2.627   3.715 -0.3134  0.1076  0.6169
  471TIP3    H1 1377   6.037   2.628   3.634 -1.4015 -1.4503 -0.1357
  471TIP3    H2 1378   5.907   2.676   3.695 -0.7426 -0.5799  0.6119
  472TIP3   OH2 1379   4.250   6.518   0.743 -0.6769  0.2350 -0.0498
  472TIP3    H1 1380   4.223   6.429   0.721  1.7659 -0.1673 -1.9078
  472TIP3    H2 1381   4.319   6.507   0.809  1.2569  0.4664 -1.9050
  473TIP3   OH2 1382   2.327   4.382   2.381 -0.4540  0.5853  0.1171
  473TIP3    H1 1383   2.402   4.373   2.322 -1.6580 -0.0569 -1.3596
  473TIP3    H2 1384   2.290   4.467   2.360 -1.4527 -0.0451 -0.7828
  474TIP3   OH2 1385   6.663   0.608   0.460 -0.5603  0.6474 -0.2238
  474TIP3    H1 1386   6.720   0.669   0.506 -0.4864  0.0185  0.5149
  474TIP3    H2 1387   6.632   0.547   0.527 -0.3044 -0.3905 -1.0257
  475TIP3   OH2 1388   5.763   3.583   0.821  0.0106  0.3472 -0.3603
  475TIP3    H1 1389   5.770   3.641   0.745 -0.0135  2.2084  0.9888
  475TIP3    H2 1390   5.770   3.642   0.896  1.8193 -1.6418  1.1233
  476TIP3   OH2 1391   1.125   2.466   4.819  0.4753 -0.5135  0.2978
  476TIP3    H1 1392   1.075   2.389   4.792  0.5568 -0.9512  1.3446
  476TIP3    H2 1393   1.067   2.540   4.801 -1.0121 -1.0663  2.3740
  477TIP3   OH2 1394   6.430   3.813   5.213 -0.4115 -0.2566 -0.6604
  477TIP3    H1 1395   6.466   3.901   5.228  2.8276 -1.7093  1.1956
  477TIP3    H2 1396   6.439   3.799   5.119 -1.0838  1.3741 -1.0144
  478TIP3   OH2 1397   2.427   4.768   1.772  0.0891  0.1444  0.2587
  478TIP3    H1 1398   2.508   4.818   1.764  1.7458 -2.4629 -0.6608
  478TIP3    H2 1399   2.417   4.753   1.866  3.3825 -3.2681  0.3332
  479TIP3   OH2 1400   3.756   2.871   1.586 -0.0035  0.4176  0.4041
  479TIP3    H1 1401   3.786   2.781   1.582  0.7942  0.7117 -0.7649
  479TIP3    H2 1402   3.780   2.902   1.673  0.1905 -0.3269  0.6165
  480TIP3   OH2 1403   6.460   5.917   0.818 -0.0785 -0.1772  0.7386
  480TIP3    H1 1404   6.454   5.975   0.894 -1.5102  1.3619 -0.4612
  480TIP3    H2 1405   6.380   5.865   0.821  0.0031 -0.3210  0.4636
  481TIP3   OH2 1406   4.124   4.676   0.478 -0.2760 -0.1806 -0.2747
  481TIP3    H1 1407   4.118   4.721   0.394 -1.6536 -0.5143 -0.3763
  481TIP3    H2 1408   4.212   4.639   0.479  1.1512  2.8835  0.0238
  482TIP3   OH2 1409   2.542   5.820   1.805  0.1863  0.5767 -0.1559
  482TIP3    H1 1410   2.620   5.770   1.782  0.6500  1.3568 -0.3031
  482TIP3    H2 1411   2.555   5.842   1.898 -1.8888 -2.9684  1.2038
  483TIP3   OH2 1412   7.206   3.168   3.697 -0.0508 -0.7801  0.1557
  483TIP3    H1 1413   7.131   3.119   3.662 -0.5630  0.3016 -0.2869
  483TIP3    H2 1414   7.228   3.230   3.628  0.9046 -0.6972  0.5184
  484TIP3   OH2 1415   0.749   5.718   4.285 -0.2599  0.2669  0.0053
  484TIP3    H1 1416   0.803   5.663   4.228  0.4170  0.7135  0.2063
  484TIP3    H2 1417   0.659   5.695   4.262  0.0066 -0.8766  0.0323
  485TIP3   OH2 1418   4.488   1.647   0.702  0.7112 -0.4043 -0.4617
  485TIP3    H1 1419   4.521   1.737   0.706 -0.4831  0.0830 -1.0313
  485TIP3    H2 1420   4.561   1.597   0.665  0.6502  0.7422 -2.2660
  486TIP3   OH2 1421   1.040   3.795   0.955 -0.1993  0.0064  0.2756
  486TIP3    H1 1422   0.954   3.832   0.973 -0.7016 -1.4550  1.0098
  486TIP3    H2 1423   1.026   3.736   0.881 -0.7558 -3.1368  2.6355
  487TIP3   OH2 1424   7.166   4.352   3.653 -0.0868 -0.9727  0.4244
  487TIP3    H1 1425   7.165   4.430   3.598  0.2487 -1.8225 -0.8136
  487TIP3    H2 1426   7.253   4.314   3.640  0.2976 -0.7971  2.1482
  488TIP3   OH2 1427   0.413   3.067   4.743 -0.2324  0.2086  0.5548
  488TIP3    H1 1428   0.506   3.090   4.738 -0.1867 -0.1107 -3.3407
  488TIP3    H2 1429   0.413   2.974   4.766  0.5457 -0.0788 -0.5046
  489TIP3   OH2 1430   2.331   4.656   4.978  0.1049  0.1197  0.1944
  489TIP3    H1 1431   2.261   4.719   4.964  1.1679  1.1750 -0.5454
  489TIP3    H2 1432   2.289   4.570   4.968 -0.8828  0.7334 -1.1509
  490TIP3   OH2 1433   4.239   5.632   3.927  0.3216  0.4733  0.4242
  490TIP3    H1 1434   4.263   5.654   3.837 -3.2587  0.2593 -0.7495
  490TIP3    H2 1435   4.205   5.543   3.921  0.8292  0.1259  2.1995
  491TIP3   OH2 1436   5.281   0.725   1.718  0.6613  1.1268  0.5548
  491TIP3    H1 1437   5.308   0.643   1.677 -2.8097 -0.0250  0.2739
  491TIP3    H2 1438   5.243   0.776   1.647 -2.9558  0.2228  1.6471
  492TIP3   OH2 1439   1.253   5.870   1.755 -0.3625  0.1202  0.3282
  492TIP3    H1 1440   1.257   5.953   1.804  0.0202  0.3093 -0.0206
  492TIP3    H2 1441   1.202   5.891   1.677 -1.8996 -0.4442  1.1377
  493TIP3   OH2 1442   1.100   4.114   3.104  0.0516 -0.5125  0.0614
  493TIP3    H1 1443   1.112   4.090   3.196 -0.0019  0.5813  0.3712
  493TIP3    H2 1444   1.080   4.032   3.060  1.7623 -1.3272  0.7294
  494TIP3   OH2 1445   0.322   1.728   5.485  0.1703 -0.3888 -0.2737
  494TIP3    H1 1446   0.240   1.774   5.499 -0.0467 -1.3493  1.9795
  494TIP3    H2 1447   0.370   1.783   5.424 -1.1752  1.4018  0.2085
  495TIP3   OH2 1448   7.040   6.596   5.295 -0.2887  0.0091  0.0260
  495TIP3    H1 1449   7.085   6.663   5.346 -1.2519  0.0857  0.8064
  495TIP3    H2 1450   6.950   6.627   5.288  0.0323  0.5173 -2.6505
  496TIP3   OH2 1451   1.636   6.563   2.135  0.0501  0.1428 -0.2621
  496TIP3    H1 1452   1.716   6.584   2.182  0.4131  2.6473 -1.7852
  496TIP3    H2 1453   1.655   6.481   2.090  2.1232  1.1011 -1.2570
  497TIP3   OH2 1454   3.806   3.003   0.725 -0.3971  0.0753 -0.0076
  497TIP3    H1 1455   3.849   2.966   0.802  0.2900 -0.1024 -0.4632
  497TIP3    H2 1456   3.732   3.052   0.760 -0.2277 -0.1908  0.7455
  498TIP3   OH2 1457   6.282   5.598   5.177  0.5100  0.1689  0.0455
  498TIP3    H1 1458   6.272   5.685   5.138  1.3025 -0.1697 -0.9819
  498TIP3    H2 1459   6.322   5.546   5.107 -0.1607 -1.0857  0.5643
  499TIP3   OH2 1460   0.965   4.154   5.762  0.1011  0.6626  0.5151
  499TIP3    H1 1461   1.036   4.091   5.771 -0.6860 -0.4136 -0.5258
  499TIP3    H2 1462   0.949   4.159   5.668 -1.5509  0.4489  0.7563
  500TIP3   OH2 1463   3.420   6.704   4.621 -0.1624  0.5624 -0.3737
  500TIP3    H1 1464   3.327   6.685   4.624 -0.3258  1.1557 -1.2793
  500TIP3    H2 1465   3.428   6.794   4.653  0.1362  0.3863  0.0496
  501TIP3   OH2 1466   4.407   3.556   2.969 -0.4541  0.6597 -0.3693
  501TIP3    H1 1467   4.408   3.588   3.059  2.9218 -1.7579  0.6303
  501TIP3    H2 1468   4.370   3.468   2.975 -0.4358  0.5678 -1.4007
  502TIP3   OH2 1469   0.617   3.567   3.766 -0.3423 -0.5450  0.4347
  502TIP3    H1 1470   0.644   3.623   3.692  0.8160 -0.8999  0.5642
  502TIP3    H2 1471   0.644   3.479   3.740 -1.5112 -0.9406  0.5463
  503TIP3   OH2 1472   5.079   0.547   4.797  0.4554 -0.3704 -0.6607
  503TIP3    H1 1473   5.170   0.539   4.826  0.9952  2.7045 -1.1560
  503TIP3    H2 1474   5.033   0.586   4.871  0.0446  0.0610 -1.1265
  504TIP3   OH2 1475   5.777   2.535   3.404  0.0662 -0.3565 -0.1191
  504TIP3    H1 1476   5.846   2.590   3.368 -0.5398  2.1634  2.2143
  504TIP3    H2 1477   5.821   2.478   3.466  0.1924  0.8568  0.9503
  505TIP3   OH2 1478   3.217   3.961   0.080  0.0329 -0.4434  0.6952
  505TIP3    H1 1479   3.235   3.868   0.086 -0.7748 -0.6438  0.2039
  505TIP3    H2 1480   3.286   3.995   0.023 -0.9270 -1.1461 -0.9424
  506TIP3   OH2 1481   2.659   1.971   3.740  0.3684  0.1732 -0.4625
  506TIP3    H1 1482   2.724   2.020   3.690 -0.6489  0.4883 -1.5510
  506TIP3    H2 1483   2.690   1.881   3.739  1.8902  0.6363  0.9330
  507TIP3   OH2 1484   5.294   5.905   3.684 -0.2241 -0.1782  0.1282
  507TIP3    H1 1485   5.314   5.903   3.591 -1.4298 -1.2977 -0.1205
  507TIP3    H2 1486   5.200   5.893   3.690  0.0613 -2.4060  1.5540
  508TIP3   OH2 1487   0.221   5.575   4.007  0.6077 -0.3858 -0.6254
  508TIP3    H1 1488   0.172   5.581   4.089 -0.2737 -0.4228 -1.1259
  508TIP3    H2 1489   0.237   5.666   3.982 -0.0520 -0.3409 -0.9278
  509TIP3   OH2 1490   3.912   6.150   4.113 -0.4391  0.1108  0.3344
  509TIP3    H1 1491   3.892   6.123   4.203 -0.2874  0.9047  0.6100
  509TIP3    H2 1492   4.007   6.142   4.107 -0.4862 -0.3225  0.1136
  510TIP3   OH2 1493   6.304   5.104   5.532 -0.2531  0.2080 -0.0192
  510TIP3    H1 1494   6.300   5.152   5.450 -0.8405  1.0974  0.5103
  510TIP3    H2 1495   6.350   5.023   5.511 -1.6449 -0.2199 -1.5253
  511TIP3   OH2 1496   3.561   0.877   4.059  0.1251  0.0933  0.4724
  511TIP3    H1 1497   3.627   0.807   4.058  1.5130  1.2952  1.8229
  511TIP3    H2 1498   3.561   0.911   3.970  2.5282  1.0762  0.7760
  512TIP3   OH2 1499   1.591   4.843   5.061  0.1684  0.3241 -0.4102
  512TIP3    H1 1500   1.583   4.875   4.971  1.7917  1.4096 -0.2132
  512TIP3    H2 1501   1.503   4.813   5.084 -0.5979  1.3173 -1.8898
  513TIP3   OH2 1502   4.137   2.259   2.419  0.3378  0.4836  0.3431
  513TIP3    H1 1503   4.120   2.166   2.433 -1.0974  0.6954  0.1480
  513TIP3    H2 1504   4.197   2.261   2.344  0.0055 -0.2725  0.0382
  514TIP3   OH2 1505   1.216   2.128   1.467 -0.4316  0.2140 -0.2515
  514TIP3    H1 1506   1.231   2.041   1.429  2.7652 -0.0815  1.3316
  514TIP3    H2 1507   1.193   2.110   1.559  1.7105  0.9884  0.4849
  515TIP3   OH2 1508   2.493   5.090   5.861  0.0651  0.0206 -0.2410
  515TIP3    H1 1509   2.457   5.035   5.792 -0.6204  0.0695  0.0692
  515TIP3    H2 1510   2.496   5.033   5.938  0.9965 -0.0886 -0.3379
  516TIP3   OH2 1511   3.657   4.373   3.107  0.4165 -0.0722  0.1779
  516TIP3    H1 1512   3.685   4.297   3.056  2.1326  0.6705 -0.0509
  516TIP3    H2 1513   3.630   4.437   3.041  0.5074  0.0978  0.3082
  517TIP3   OH2 1514   0.579   5.309   4.061  0.1120  0.6617  0.3622
  517TIP3    H1 1515   0.585   5.373   4.132  0.6478  2.1081 -0.9603
  517TIP3    H2 1516   0.573   5.361   3.981  0.1629 -0.9391 -0.7264
  518TIP3   OH2 1517   4.256   5.328   0.990 -0.4944 -0.0602 -0.3391
  518TIP3    H1 1518   4.250   5.396   1.057 -0.2647 -0.6321  0.2705
  518TIP3    H2 1519   4.330   5.356   0.935  0.2491 -0.3287  0.5007
  519TIP3   OH2 1520   5.252   5.831   4.919 -0.3712 -0.4031  0.1538
  519TIP3    H1 1521   5.218   5.916   4.949  1.1382 -0.1475  1.2442
  519TIP3    H2 1522   5.337   5.852   4.882 -0.8770 -1.1835 -1.5496
  520TIP3   OH2 1523   6.481   3.288   5.462  0.0737 -0.0916  0.3024
  520TIP3    H1 1524   6.459   3.340   5.384 -1.8575  1.0165  1.5221
  520TIP3    H2 1525   6.470   3.197   5.433  0.0501  0.2735 -0.9103
  521TIP3   OH2 1526   1.737   3.779   2.375 -0.2299 -0.0290 -0.4157
  521TIP3    H1 1527   1.652   3.763   2.416 -0.8716 -0.1679 -1.7427
  521TIP3    H2 1528   1.720   3.773   2.281  1.6682 -2.4558 -0.7198
  522TIP3   OH2 1529   6.814   2.735   5.519 -0.0358  0.3234 -0.4647
  522TIP3    H1 1530   6.895   2.692   5.545 -0.3472 -0.1785 -0.3102
  522TIP3    H2 1531   6.837   2.783   5.439  0.5689  0.7144 -0.0609
  523TIP3   OH2 1532   3.203   5.871   3.400  0.2376  0.2637  0.4068
  523TIP3    H1 1533   3.224   5.792   3.449  1.4975  0.6751  0.5636
  523TIP3    H2 1534   3.179   5.935   3.468  0.0848  0.2749  0.3431
  524TIP3   OH2 1535   6.018   1.505   2.955  0.6176 -0.1086  0.1472
  524TIP3    H1 1536   5.967   1.571   2.909  0.9137 -0.3204 -0.4987
  524TIP3    H2 1537   6.102   1.503   2.909  0.4087 -1.3382 -0.2276
  525TIP3   OH2 1538   6.795   4.648   4.198 -0.2172  0.0543  0.0197
  525TIP3    H1 1539   6.757   4.628   4.112 -0.4059  1.7131 -0.3134
  525TIP3    H2 1540   6.786   4.566   4.247 -1.5403 -0.4664 -1.0175
  526TIP3   OH2 1541   0.852   1.786   4.164  0.2853 -0.2469  1.1295
  526TIP3    H1 1542   0.891   1.791   4.251 -1.4308  1.7901  1.8550
  526TIP3    H2 1543   0.867   1.873   4.126  0.8427 -1.0330 -0.5875
  527TIP3   OH2 1544   0.083   2.399   2.251 -0.3852  0.2144  0.2045
  527TIP3    H1 1545   0.039   2.316   2.235 -1.0710  0.6974 -0.4705
  527TIP3    H2 1546   0.070   2.449   2.171 -2.1610  1.9435  1.4872
  528TIP3   OH2 1547   2.408   5.716   5.386  0.0568  0.0165  0.0570
  528TIP3    H1 1548   2.425   5.651   5.454  0.8782 -0.2952 -0.4369
  528TIP3    H2 1549   2.494   5.735   5.349 -0.1973  1.1798  0.0007
  529TIP3   OH2 1550   4.126   0.583   0.670 -0.0991  0.2570  0.5451
  529TIP3    H1 1551   4.104   0.551   0.758 -0.4561 -0.3681  0.2409
  529TIP3    H2 1552   4.048   0.631   0.642 -0.4185 -0.4713  0.1516
  530TIP3   OH2 1553   3.666   1.429   2.137 -0.2865  0.3166  0.3672
  530TIP3    H1 1554   3.762   1.429   2.136 -0.2415 -0.0505  1.9203
  530TIP3    H2 1555   3.643   1.469   2.221 -1.5316  1.4917 -0.4960
  531TIP3   OH2 1556   4.565   5.508   3.394 -0.2805 -0.1454 -0.4325
  531TIP3    H1 1557   4.561   5.425   3.443  0.3823  0.7857  1.2742
  531TIP3    H2 1558   4.652   5.542   3.412 -0.9371  1.4692 -0.1882
  532TIP3   OH2 1559   3.739   1.531   0.747  0.0511  0.3000 -0.2962
  532TIP3    H1 1560   3.767   1.572   0.828 -2.9028  1.0540  0.4805
  532TIP3    H2 1561   3.646   1.513   0.760  0.2626 -2.9829 -2.1664
  533TIP3   OH2 1562   6.844   0.113   2.989  0.1488 -0.6235 -0.5063
  533TIP3    H1 1563   6.879   0.065   2.914 -1.1029  0.3650 -1.7784
  533TIP3    H2 1564   6.779   0.173   2.951 -3.8293 -3.0642  1.7038
  534TIP3   OH2 1565   2.800   5.629   5.233 -0.5492  0.0333  0.1651
  534TIP3    H1 1566   2.858   5.660   5.303  1.1208 -0.1613 -1.0845
  534TIP3    H2 1567   2.849   5.559   5.190 -0.3058  1.8659 -2.8627
  535TIP3   OH2 1568   6.027   4.437   2.319 -0.3272  0.4235  0.1767
  535TIP3    H1 1569   5.934   4.458   2.328 -0.6171 -0.8620  0.4502
  535TIP3    H2 1570   6.067   4.517   2.285 -1.6468  0.7747 -0.6258
  536TIP3   OH2 1571   5.954   2.737   1.463 -0.4370  0.4417 -0.0714
  536TIP3    H1 1572   5.993   2.760   1.379 -0.8393  0.1554 -0.3386
  536TIP3    H2 1573   5.861   2.726   1.444 -0.1818 -2.2885 -0.1494
  537TIP3   OH2 1574   1.792   0.955   2.093 -0.5665 -1.1646 -0.2494
  537TIP3    H1 1575   1.740   0.916   2.163 -2.1425  0.5769 -0.3573
  537TIP3    H2 1576   1.857   1.009   2.138 -0.6468 -1.1842 -0.1092
  538TIP3   OH2 1577   3.722   3.999   1.252 -0.2119 -0.2883  0.1619
  538TIP3    H1 1578   3.682   3.965   1.173 -0.4961  0.8377 -0.1954
  538TIP3    H2 1579   3.661   3.976   1.322 -0.8437  0.2585 -0.1978
  539TIP3   OH2 1580   0.488   5.776   4.710 -0.4023  0.3782  0.6160
  539TIP3    H1 1581   0.443   5.723   4.776  0.6521 -0.9592  0.2955
  539TIP3    H2 1582   0.479   5.866   4.742  0.6390 -0.2712  2.9907
  540TIP3   OH2 1583   2.096   4.782   2.345 -0.3110  0.5082 -0.5678
  540TIP3    H1 1584   2.046   4.727   2.406  0.9427 -0.3787 -0.3093
  540TIP3    H2 1585   2.030   4.816   2.284 -1.7671  2.1378  1.7288
  541TIP3   OH2 1586   2.836   0.109   1.328 -0.1247 -0.1959 -0.0123
  541TIP3    H1 1587   2.929   0.095   1.347 -0.9335 -3.6320  2.3748
  541TIP3    H2 1588   2.807   0.025   1.291 -2.9499 -0.6136  2.7523
  542TIP3   OH2 1589   1.599   0.409   3.487 -0.2583 -0.1545 -0.5885
  542TIP3    H1 1590   1.577   0.467   3.560  1.3173  0.6979 -0.7477
  542TIP3    H2 1591   1.606   0.322   3.526 -0.5076  0.1162  0.0626
  543TIP3   OH2 1592   1.118   5.356   0.940 -0.2255 -0.3233  0.1353
  543TIP3    H1 1593   1.147   5.397   1.022 -0.4061  1.5450 -0.6790
  543TIP3    H2 1594   1.188   5.295   0.918 -0.1190 -0.7732  1.5960
  544TIP3   OH2 1595   0.999   0.876   3.664 -0.1090  0.3143  0.6628
  544TIP3    H1 1596   0.906   0.888   3.647  0.1784  1.1125 -0.4719
  544TIP3    H2 1597   1.043   0.929   3.597  1.2142 -2.3650 -0.7189
  545TIP3   OH2 1598   6.060   5.828   2.719 -0.1681  0.3267  0.3720
  545TIP3    H1 1599   6.140   5.833   2.772  0.8233  0.9264 -1.1211
  545TIP3    H2 1600   6.068   5.745   2.671 -1.7931 -0.9799  2.2089
  546TIP3   OH2 1601   2.120   3.479   1.031 -0.3055 -0.0675 -0.2655
  546TIP3    H1 1602   2.136   3.388   1.055 -0.8928  0.0642  0.6572
  546TIP3    H2 1603   2.035   3.477   0.986 -1.2566  0.2626  1.4302
  547TIP3   OH2 1604   0.911   5.964   3.531  0.2101 -0.1825  0.0373
  547TIP3    H1 1605   0.932   5.889   3.587 -1.4216 -1.9583 -1.5585
  547TIP3    H2 1606   0.835   6.004   3.572 -1.9119 -2.3553 -1.4431
  548TIP3   OH2 1607   2.060   5.111   1.486 -0.1981 -0.1180  0.1184
  548TIP3    H1 1608   2.128   5.063   1.532  1.4798  1.4703 -0.5994
  548TIP3    H2 1609   2.028   5.049   1.420  0.4429 -0.9324  0.5554
  549TIP3   OH2 1610   2.505   1.575   3.890  0.0202  0.6704 -0.6207
  549TIP3    H1 1611   2.471   1.658   3.854 -0.0020  1.2047  0.5917
  549TIP3    H2 1612   2.538   1.598   3.977 -0.6958 -0.7468  0.0622
  550TIP3   OH2 1613   4.951   0.634   2.039 -0.7564  0.1714  0.1287
  550TIP3    H1 1614   4.879   0.605   1.983 -0.4073 -0.0422 -0.2161
  550TIP3    H2 1615   4.992   0.552   2.068 -0.6335  0.2931  0.2959
  551TIP3   OH2 1616   6.006   1.223   5.443 -0.1681 -0.0647  0.4407
  551TIP3    H1 1617   5.979   1.154   5.504 -2.4649 -0.6961 -1.1858
  551TIP3    H2 1618   5.925   1.269   5.420  0.4189 -0.4093 -2.7626
  552TIP3   OH2 1619   6.528   0.179   1.343  0.7406 -0.2155  0.5867
  552TIP3    H1 1620   6.557   0.255   1.293  0.9138  0.0373  1.0698
  552TIP3    H2 1621   6.608   0.129   1.358  0.5104 -0.9581 -0.4808
  553TIP3   OH2 1622   1.034   1.967   3.570  0.1003  0.3330  0.2203
  553TIP3    H1 1623   1.113   1.963   3.516  0.2272 -1.6434  0.4958
  553TIP3    H2 1624   1.029   1.881   3.613  0.4201  1.9671  3.9666
  554TIP3   OH2 1625   3.757   2.377   3.737  0.2303  0.0784  0.4106
  554TIP3    H1 1626   3.733   2.445   3.800  0.2576  1.3255 -0.8814
  554TIP3    H2 1627   3.673   2.339   3.712 -0.0410  1.3400 -0.6954
  555TIP3   OH2 1628   3.237   6.548   1.340 -0.4706 -0.3526  0.1236
  555TIP3    H1 1629   3.290   6.524   1.416  0.5382 -0.4328 -0.5825
  555TIP3    H2 1630   3.235   6.644   1.341 -0.4380 -0.3536  0.2293
  556TIP3   OH2 1631   7.191   1.368   3.378 -0.4821 -0.2242  0.3823
  556TIP3    H1 1632   7.136   1.358   3.300  2.8638 -0.4019 -2.1892
  556TIP3    H2 1633   7.233   1.454   3.367  1.4229 -1.0167  0.9786
  557TIP3   OH2 1634   1.493   0.024   0.779  0.4201 -0.0783  0.1758
  557TIP3    H1 1635   1.488  -0.070   0.762 -0.3240 -0.3356  1.6442
  557TIP3    H2 1636   1.412   0.059   0.743  0.5965 -0.0340 -0.1780
  558TIP3   OH2 1637   3.307   2.148   3.987 -0.1133 -0.0032  0.2376
  558TIP3    H1 1638   3.230   2.149   4.044 -0.3880 -3.5296  0.1342
  558TIP3    H2 1639   3.275   2.112   3.904  1.6118 -1.7764  0.2670
  559TIP3   OH2 1640   2.884   6.237   3.372  0.6283  0.1960 -0.0473
  559TIP3    H1 1641   2.877   6.170   3.304  1.8555 -0.5849  0.5632
  559TIP3    H2 1642   2.961   6.212   3.423 -0.6891  0.3052  2.1234
  560TIP3   OH2 1643   1.334   2.891   1.725  0.1621  0.5856 -0.2274
  560TIP3    H1 1644   1.258   2.878   1.782  0.5368 -0.7783  0.0050
  560TIP3    H2 1645   1.375   2.971   1.757 -1.6238  1.8152 -0.8876
  561TIP3   OH2 1646   2.654   2.250   1.506 -0.1853 -0.6198  0.5178
  561TIP3    H1 1647   2.702   2.319   1.551  0.0440 -0.4721  0.0482
  561TIP3    H2 1648   2.564   2.282   1.502  0.2359  0.4733 -1.2677
  562TIP3   OH2 1649   0.073   0.818   3.051 -0.2028 -0.0098 -0.1600
  562TIP3    H1 1650   0.123   0.898   3.067 -0.7188  0.5811 -1.3734
  562TIP3    H2 1651  -0.010   0.832   3.097  0.4204 -0.6767  1.2261
  563TIP3   OH2 1652   2.607   0.199   2.689 -0.2066 -0.5140 -0.2349
  563TIP3    H1 1653   2.599   0.106   2.712  0.4395 -0.7908 -1.0665
  563TIP3    H2 1654   2.522   0.222   2.653 -0.3611 -0.7983 -0.0534
  564TIP3   OH2 1655   6.693   4.868   5.338 -0.8649 -0.1111 -0.0359
  564TIP3    H1 1656   6.747   4.947   5.332 -0.0097 -0.7726 -1.4399
  564TIP3    H2 1657   6.700   4.827   5.252 -2.5307 -0.9436  0.1852
  565TIP3   OH2 1658   6.837   0.170   4.060  0.3466 -0.0044 -0.2555
  565TIP3    H1 1659   6.901   0.114   4.016 -1.8018 -0.7147 -2.7012
  565TIP3    H2 1660   6.766   0.111   4.085 -0.1404  1.0170  0.8637
  566TIP3   OH2 1661   4.901   6.274   3.319 -0.3511  0.1070  0.3376
  566TIP3    H1 1662   4.984   6.301   3.279 -0.9308  0.7786 -0.4611
  566TIP3    H2 1663   4.916   6.184   3.348  0.4816  0.0205 -0.3170
  567TIP3   OH2 1664   7.127   3.252   2.568 -0.1905 -0.0251 -0.1352
  567TIP3    H1 1665   7.198   3.277   2.509  0.6531 -2.1984 -0.1477
  567TIP3    H2 1666   7.055   3.226   2.510  0.5761 -1.9885 -0.2800
  568TIP3   OH2 1667   4.227   3.282   0.177 -0.3859  0.3225 -0.1539
  568TIP3    H1 1668   4.270   3.308   0.095 -0.4562 -0.0232 -0.3029
  568TIP3    H2 1669   4.133   3.280   0.154 -0.6769  2.6271  0.5728
  569TIP3   OH2 1670   0.882   0.800   4.979  0.5976  0.2018  0.2965
  569TIP3    H1 1671   0.829   0.870   4.943  0.1158  2.1511  4.2476
  569TIP3    H2 1672   0.825   0.757   5.043  1.6329 -2.3740 -0.3680
  570TIP3   OH2 1673   2.001   5.967   4.586  0.0687  0.2036 -0.6467
  570TIP3    H1 1674   1.966   5.968   4.675  0.7803  3.5390 -0.2709
  570TIP3    H2 1675   1.930   5.932   4.533 -0.8669 -0.6111  1.0501
  571TIP3   OH2 1676   2.193   4.144   2.298  0.0065 -0.3120  0.0676
  571TIP3    H1 1677   2.140   4.105   2.367 -2.0369  2.1992  0.0709
  571TIP3    H2 1678   2.239   4.216   2.340  0.3781 -0.0575 -0.7508
  572TIP3   OH2 1679   5.142   4.022   2.058 -0.2161 -0.0522 -0.1990
  572TIP3    H1 1680   5.048   4.034   2.042 -0.8673 -1.6165  1.9445
  572TIP3    H2 1681   5.151   4.031   2.153  2.0191  1.1648 -0.4676
  573TIP3   OH2 1682   1.409   1.447   4.786  0.4049 -0.2042 -0.4091
  573TIP3    H1 1683   1.424   1.353   4.776  1.9582 -0.2140  1.5814
  573TIP3    H2 1684   1.353   1.454   4.863 -0.8803  0.4753 -1.3663
  574TIP3   OH2 1685   2.094   4.706   3.134 -0.2400  0.0227 -0.2646
  574TIP3    H1 1686   2.147   4.645   3.082 -0.0428 -0.7189  0.7667
  574TIP3    H2 1687   2.145   4.786   3.137  0.9796 -0.7552  0.9020
  575TIP3   OH2 1688   1.774   2.202   2.595  0.3125 -0.3126 -0.4138
  575TIP3    H1 1689   1.780   2.126   2.536 -1.0782 -0.0753 -0.9019
  575TIP3    H2 1690   1.731   2.168   2.673 -0.4385 -0.0168 -0.6883
  576TIP3   OH2 1691   6.542   0.622   5.644 -0.3394 -0.1232  0.6667
  576TIP3    H1 1692   6.597   0.560   5.693 -1.9840 -1.9454  0.3311
  576TIP3    H2 1693   6.488   0.566   5.588 -0.8741  1.7328 -0.7419
  577TIP3   OH2 1694   5.966   6.694   3.678  0.5433 -0.0917 -0.0894
  577TIP3    H1 1695   5.895   6.739   3.632  0.8547  0.8522  0.3415
  577TIP3    H2 1696   6.004   6.760   3.736  0.4479 -1.1159  1.2066
  578TIP3   OH2 1697   1.734   2.580   3.072  0.2847  0.1341 -0.1321
  578TIP3    H1 1698   1.709   2.501   3.024 -1.8045  0.7044 -0.1065
  578TIP3    H2 1699   1.704   2.652   3.017 -1.8876  0.8156  1.7706
  579TIP3   OH2 1700   3.582   0.475   0.920 -0.0004  0.1996  0.0293
  579TIP3    H1 1701   3.654   0.462   0.858 -0.6488 -1.6042 -0.4221
  579TIP3    H2 1702   3.601   0.414   0.991  0.5547  2.0102  1.5023
  580TIP3   OH2 1703   2.652   5.802   3.199 -0.6559  0.3285 -0.1967
  580TIP3    H1 1704   2.634   5.896   3.210 -1.2932  0.1280  0.5430
  580TIP3    H2 1705   2.672   5.771   3.288  0.5970 -0.0350 -0.5784
  581TIP3   OH2 1706   4.501   1.476   1.946  0.4941 -0.0377 -0.1011
  581TIP3    H1 1707   4.462   1.389   1.951  1.4854 -0.7217 -2.6333
  581TIP3    H2 1708   4.559   1.481   2.022  1.0497 -1.9461 -0.3434
  582TIP3   OH2 1709   3.809   3.901   1.952  0.5167  0.2359 -0.5769
  582TIP3    H1 1710   3.759   3.844   1.893 -0.7027  1.8966 -1.2304
  582TIP3    H2 1711   3.743   3.958   1.991  1.2876 -0.7429  2.4217
  583TIP3   OH2 1712   2.030   0.877   2.915 -0.0353 -0.3619 -0.0241
  583TIP3    H1 1713   1.975   0.937   2.863  1.8246  0.8362 -0.7082
  583TIP3    H2 1714   1.996   0.886   3.004 -1.8447 -0.7493 -0.6279
  584TIP3   OH2 1715   6.834   4.811   3.471  0.4630  0.6759  0.1012
  584TIP3    H1 1716   6.865   4.898   3.496  1.3296  0.5824 -0.6189
  584TIP3    H2 1717   6.909   4.770   3.429  0.9311 -1.4105  2.7203
  585TIP3   OH2 1718   3.892   5.037   1.750 -0.1684 -0.3443  0.0888
  585TIP3    H1 1719   3.804   5.072   1.767  0.1013 -0.5573  2.1667
  585TIP3    H2 1720   3.903   4.968   1.816  1.4553 -0.5012 -0.3189
  586TIP3   OH2 1721   6.593   5.638   4.817 -0.2600  0.2131  0.6360
  586TIP3    H1 1722   6.565   5.718   4.862 -1.6788  0.7569 -1.0680
  586TIP3    H2 1723   6.587   5.660   4.724  0.1598 -1.6237  0.1344
  587TIP3   OH2 1724   0.219   0.074   0.862  0.4905  0.7369  0.6380
  587TIP3    H1 1725   0.275   0.043   0.791 -2.1809  0.1163 -1.3595
  587TIP3    H2 1726   0.177  -0.005   0.896 -0.5124  1.3471  0.8469
  588TIP3   OH2 1727   3.760   6.350   0.176  0.6840 -0.1257  0.1409
  588TIP3    H1 1728   3.684   6.405   0.156 -0.7718 -1.5325  1.4642
  588TIP3    H2 1729   3.772   6.295   0.099 -0.6413 -0.9230  0.4669
  589TIP3   OH2 1730   1.072   4.857   3.290 -0.1867 -0.1847  0.2098
  589TIP3    H1 1731   1.049   4.913   3.216 -1.6023  1.8124  2.0075
  589TIP3    H2 1732   1.166   4.841   3.281 -0.1697  0.6806 -1.5381
  590TIP3   OH2 1733   2.995   5.471   5.114  1.0669  0.4693  0.0903
  590TIP3    H1 1734   3.002   5.516   5.030 -0.3938 -0.2218 -0.4337
  590TIP3    H2 1735   3.079   5.426   5.125  0.1957 -2.0831 -2.5941
  591TIP3   OH2 1736   1.333   0.187   3.299 -0.6950  0.2931  0.0074
  591TIP3    H1 1737   1.274   0.256   3.328 -2.3166 -0.2614 -1.7807
  591TIP3    H2 1738   1.325   0.187   3.203  0.7651 -1.0793 -0.1570
  592TIP3   OH2 1739   2.430   1.792   3.331 -0.2828 -0.0187 -0.0135
  592TIP3    H1 1740   2.456   1.712   3.285  1.9827  0.5152  0.1875
  592TIP3    H2 1741   2.510   1.844   3.335 -1.0328  1.1121  2.1794
  593TIP3   OH2 1742   3.247   6.715   3.124 -0.4880  0.5091  0.2142
  593TIP3    H1 1743   3.327   6.708   3.176 -0.2421  0.2793 -0.1974
  593TIP3    H2 1744   3.277   6.730   3.035 -0.8329 -1.7246 -0.3306
  594TIP3   OH2 1745   5.781   2.747   2.375  0.1669 -0.0218  0.4851
  594TIP3    H1 1746   5.818   2.769   2.461  1.5039 -0.3658  0.0274
  594TIP3    H2 1747   5.695   2.709   2.395 -1.5126  3.8203  1.4151
  595TIP3   OH2 1748   3.657   2.863   1.070 -0.1450 -0.2918  0.0947
  595TIP3    H1 1749   3.596   2.839   1.139  0.4043  0.0009  0.6995
  595TIP3    H2 1750   3.738   2.818   1.092 -0.3026 -1.1919 -1.0499
  596TIP3   OH2 1751   5.405   5.553   2.630 -0.3532 -0.4493  0.2025
  596TIP3    H1 1752   5.457   5.473   2.616 -0.1758 -0.0049 -2.0570
  596TIP3    H2 1753   5.366   5.541   2.716  2.6976 -1.2503  1.6040
  597TIP3   OH2 1754   3.313   1.233   4.417 -0.0449 -0.6026 -0.4695
  597TIP3    H1 1755   3.291   1.326   4.411  2.1126 -0.0108 -0.1802
  597TIP3    H2 1756   3.341   1.221   4.508 -0.2641 -1.5402 -0.5113
  598TIP3   OH2 1757   5.604   4.037   0.579  0.5000 -0.1986 -0.3525
  598TIP3    H1 1758   5.580   4.102   0.646  0.5184 -1.4121  0.8601
  598TIP3    H2 1759   5.697   4.023   0.591 -0.1254 -3.2658  2.0562
  599TIP3   OH2 1760   3.613   5.662   4.033 -0.3988  0.0314 -0.3870
  599TIP3    H1 1761   3.647   5.657   4.122  0.6547  1.3693 -0.6777
  599TIP3    H2 1762   3.566   5.580   4.020 -1.3286  0.1876  1.6957
  600TIP3   OH2 1763   4.365   6.639   2.780  0.3833 -0.2577  0.0761
  600TIP3    H1 1764   4.336   6.694   2.707  0.4210  0.8902  0.9009
  600TIP3    H2 1765   4.286   6.596   2.811 -0.1879  1.4970  1.1889
  601TIP3   OH2 1766   7.102   4.250   2.445  0.0311  0.3123 -0.3368
  601TIP3    H1 1767   7.101   4.278   2.354 -0.0520 -0.2308 -0.5067
  601TIP3    H2 1768   7.057   4.320   2.492  0.7030  0.9387 -0.6070
  602TIP3   OH2 1769   0.613   0.582   4.936 -0.3488 -0.5886 -0.0229
  602TIP3    H1 1770   0.688   0.583   4.994  0.3854 -3.1032 -0.8037
  602TIP3    H2 1771   0.627   0.506   4.880 -2.4362  0.0904 -1.6073
  603TIP3   OH2 1772   2.072   0.198   0.271  0.5847 -0.3874  0.0609
  603TIP3    H1 1773   2.044   0.164   0.356 -0.7039  0.9380  0.2011
  603TIP3    H2 1774   2.121   0.277   0.292 -0.2606  0.2865 -0.4213
  604TIP3   OH2 1775   4.515   5.773   1.619 -0.2052 -0.4163 -0.1486
  604TIP3    H1 1776   4.585   5.827   1.655 -0.3925 -0.9609  1.0741
  604TIP3    H2 1777   4.557   5.689   1.598 -0.7609 -1.4178  2.3080
  605TIP3   OH2 1778   0.358   3.048   3.077 -0.7055  0.7511  0.2970
  605TIP3    H1 1779   0.333   3.126   3.028 -0.0700  0.5232 -0.4091
  605TIP3    H2 1780   0.289   2.984   3.057  0.4319  0.0739 -1.7742
  606TIP3   OH2 1781   1.212   0.003   2.907  0.2546 -0.1573 -0.4132
  606TIP3    H1 1782   1.127   0.043   2.925 -0.1872 -1.5326  0.6619
  606TIP3    H2 1783   1.275   0.063   2.947 -0.1439  1.1028 -1.6027
  607TIP3   OH2 1784   0.112   0.241   2.089 -0.0319 -0.4337  0.1315
  607TIP3    H1 1785   0.168   0.231   2.166 -0.7346 -0.2559  0.6756
  607TIP3    H2 1786   0.079   0.331   2.095 -0.1287 -0.4375 -0.3484
  608TIP3   OH2 1787   0.391   0.687   3.498  0.1318 -0.1768 -0.0059
  608TIP3    H1 1788   0.343   0.731   3.428 -1.8221  0.2809  1.5313
  608TIP3    H2 1789   0.482   0.690   3.470 -0.6323 -0.9536 -3.0027
  609TIP3   OH2 1790   0.787   0.248   1.367 -0.1445 -0.0501 -0.3432
  609TIP3    H1 1791   0.883   0.252   1.372 -0.0886  0.3214 -1.5281
  609TIP3    H2 1792   0.760   0.338   1.350 -0.6440 -0.3221 -1.0183
  610TIP3   OH2 1793   6.957   6.425   1.683  0.2852  0.3670 -0.3448
  610TIP3    H1 1794   7.041   6.459   1.716  0.0699  0.2615  0.3173
  610TIP3    H2 1795   6.961   6.331   1.699  0.7381  0.0863 -1.8730
  611TIP3   OH2 1796   2.934   1.068   0.470 -0.1592 -0.0375 -0.0022
  611TIP3    H1 1797   2.992   0.997   0.440 -0.3927 -0.5635  0.7483
  611TIP3    H2 1798   2.968   1.146   0.427  1.0169 -0.3603  0.2768
  612TIP3   OH2 1799   4.589   3.131   3.640  0.0197  0.2361  0.3211
  612TIP3    H1 1800   4.684   3.117   3.639 -0.0034  0.0716 -0.9536
  612TIP3    H2 1801   4.571   3.181   3.561 -1.0152 -0.1111  0.3217
  613TIP3   OH2 1802   0.015   6.249   5.145  0.0739  0.0529 -0.3853
  613TIP3    H1 1803   0.079   6.278   5.210 -1.0814  2.0419 -0.0671
  613TIP3    H2 1804   0.067   6.233   5.066  1.1306  0.3003  0.2457
  614TIP3   OH2 1805   4.123   0.165   1.520  0.4640 -0.1497  0.2982
  614TIP3    H1 1806   4.054   0.229   1.535 -0.2803 -0.4533 -1.6409
  614TIP3    H2 1807   4.077   0.083   1.500  1.3063 -0.1036 -2.1211
  615TIP3   OH2 1808   3.643   6.045   4.695 -0.3260  0.5073  0.0801
  615TIP3    H1 1809   3.727   6.001   4.688 -1.1763 -1.5156  1.5788
  615TIP3    H2 1810   3.628   6.053   4.789 -1.3828  1.7043 -0.1642
  616TIP3   OH2 1811   6.793   6.744   0.814 -0.0243 -0.0364 -0.5448
  616TIP3    H1 1812   6.791   6.703   0.727 -1.0821 -0.4392 -0.3412
  616TIP3    H2 1813   6.872   6.709   0.855  0.5289  0.2121 -1.3628
  617TIP3   OH2 1814   7.179   3.676   2.914  0.6388  0.1183 -0.2444
  617TIP3    H1 1815   7.159   3.634   2.830  0.0675 -0.8153  0.3370
  617TIP3    H2 1816   7.159   3.768   2.900  0.6215 -0.0133 -1.1567
  618TIP3   OH2 1817   6.126   4.727   0.403  0.2183 -0.3333  0.3722
  618TIP3    H1 1818   6.046   4.676   0.394 -0.2290  0.2669  0.8728
  618TIP3    H2 1819   6.194   4.663   0.423 -0.1381 -0.8453 -0.0363
  619TIP3   OH2 1820   6.534   1.909   5.490  0.5130 -0.7628 -0.4873
  619TIP3    H1 1821   6.625   1.908   5.460  0.8573 -0.2628  0.4913
  619TIP3    H2 1822   6.531   1.845   5.561  0.2369 -0.3905 -0.1569
  620TIP3   OH2 1823   4.232   4.583   3.778  0.1279 -0.1090 -0.2373
  620TIP3    H1 1824   4.172   4.583   3.852  1.0705 -1.9791  0.5940
  620TIP3    H2 1825   4.197   4.518   3.718  1.5102 -1.5930  0.4871
  621TIP3   OH2 1826   6.696   0.012   3.216 -0.0984 -0.0282  0.4488
  621TIP3    H1 1827   6.749   0.060   3.152 -0.5417 -0.6448 -0.4082
  621TIP3    H2 1828   6.755  -0.056   3.249  0.3965  0.8119  1.3526
  622TIP3   OH2 1829   6.705   6.317   2.265  0.0014 -0.6606 -0.1862
  622TIP3    H1 1830   6.781   6.278   2.307 -0.2452 -2.6985 -1.4899
  622TIP3    H2 1831   6.740   6.371   2.195  0.2728 -0.8595 -0.2026
  623TIP3   OH2 1832   2.100   0.878   0.815 -0.0616 -0.3724  0.1473
  623TIP3    H1 1833   2.022   0.826   0.795 -0.3328 -0.0930  0.4769
  623TIP3    H2 1834   2.066   0.964   0.841  0.3654 -0.1720  0.0500
  624TIP3   OH2 1835   6.844   3.352   1.359 -0.0370  0.5932  0.1090
  624TIP3    H1 1836   6.775   3.321   1.301 -0.7638  2.3351 -0.0405
  624TIP3    H2 1837   6.906   3.396   1.301  0.6949 -0.0837  0.3604
  625TIP3   OH2 1838   6.139   6.238   1.558  0.1624  0.2305  0.0004
  625TIP3    H1 1839   6.205   6.229   1.627  0.3569 -0.2160 -0.2421
  625TIP3    H2 1840   6.188   6.240   1.477 -0.1792 -1.9692 -0.3380
  626TIP3   OH2 1841   1.963   3.132   0.336 -0.8969 -0.0749  0.4378
  626TIP3    H1 1842   1.974   3.211   0.388 -0.9720  1.4922 -1.7722
  626TIP3    H2 1843   1.894   3.083   0.380 -0.6233  0.9026  2.0380
  627TIP3   OH2 1844   1.628   1.080   4.572  0.1844  0.7115 -0.3531
  627TIP3    H1 1845   1.646   1.107   4.482 -2.6849  0.8314 -0.9801
  627TIP3    H2 1846   1.577   1.000   4.564 -0.1037  0.7040  1.1551
  628TIP3   OH2 1847   0.027   5.693   5.103 -0.0357  0.6551  0.5761
  628TIP3    H1 1848   0.065   5.714   5.189  1.1362 -1.7978  0.7448
  628TIP3    H2 1849   0.103   5.685   5.045 -0.7355  1.0798 -0.4158
  629TIP3   OH2 1850   5.675   0.134   2.920 -0.0282 -0.2438  0.2800
  629TIP3    H1 1851   5.766   0.147   2.946  0.2727  0.4137 -1.0240
  629TIP3    H2 1852   5.647   0.219   2.886 -0.6497 -0.8281 -0.7195
  630TIP3   OH2 1853   2.269   6.285   2.712 -0.5893 -0.0244  0.2492
  630TIP3    H1 1854   2.175   6.280   2.693 -0.7991 -2.6063  1.4819
  630TIP3    H2 1855   2.276   6.348   2.783 -1.6318 -0.9003  1.1660
  631TIP3   OH2 1856   7.201   2.371   0.900  0.0504 -0.4214  0.0572
  631TIP3    H1 1857   7.249   2.294   0.867 -0.5146 -0.1069 -1.5658
  631TIP3    H2 1858   7.141   2.393   0.830  1.5332  2.7120 -0.3759
  632TIP3   OH2 1859   1.907   6.168   1.851  0.5669  0.0753 -0.0359
  632TIP3    H1 1860   1.946   6.236   1.905  1.0881  0.1854 -0.5445
  632TIP3    H2 1861   1.973   6.148   1.785 -0.0007 -0.1627 -0.5476
  633TIP3   OH2 1862   5.375   3.865   2.005 -0.0455 -0.7500  0.4705
  633TIP3    H1 1863   5.434   3.871   2.080  0.4035 -1.8855  0.2342
  633TIP3    H2 1864   5.317   3.940   2.013  2.1269  1.0601  0.0987
  634TIP3   OH2 1865   3.438   0.503   3.456 -0.1004 -0.3551 -0.0610
  634TIP3    H1 1866   3.460   0.504   3.549  3.7581 -0.0895 -0.8052
  634TIP3    H2 1867   3.455   0.413   3.428 -1.3755 -0.4716 -0.5572
  635TIP3   OH2 1868   6.313   1.119   2.876 -0.4663 -0.2322  0.1948
  635TIP3    H1 1869   6.335   1.091   2.788 -1.5512  0.2090 -0.2326
  635TIP3    H2 1870   6.392   1.164   2.908 -0.4369  0.5679 -0.9558
  636TIP3   OH2 1871   5.691   6.587   4.974 -0.3738  0.2733 -0.0399
  636TIP3    H1 1872   5.654   6.521   5.033  0.6563 -0.0545  0.2785
  636TIP3    H2 1873   5.640   6.666   4.990 -1.1688 -0.2593  0.0952
  637TIP3   OH2 1874   0.483   3.644   4.375 -0.1914 -0.5265  0.6466
  637TIP3    H1 1875   0.402   3.625   4.423 -1.1777  0.6999 -0.4510
  637TIP3    H2 1876   0.542   3.681   4.440 -1.1089  0.1013  1.1416
  638TIP3   OH2 1877   2.848   6.589   1.918 -0.2620  0.1167  0.0054
  638TIP3    H1 1878   2.792   6.513   1.931  0.3926 -0.9205 -2.5997
  638TIP3    H2 1879   2.798   6.645   1.858  0.4380  0.3998 -0.3218
  639TIP3   OH2 1880   2.754   6.375   4.686 -0.4019  0.3528 -0.0916
  639TIP3    H1 1881   2.736   6.437   4.615  0.8657 -0.0321 -0.7767
  639TIP3    H2 1882   2.720   6.291   4.655  0.8944  0.0011 -0.6440
  640TIP3   OH2 1883   4.716   3.024   2.834 -0.0917 -0.1192 -0.1531
  640TIP3    H1 1884   4.652   3.019   2.906  0.3980  0.8768  0.3671
  640TIP3    H2 1885   4.692   3.103   2.786  0.4733  0.0131 -0.2201
  641TIP3   OH2 1886   2.365   5.426   1.133  0.3711  0.1845 -0.0679
  641TIP3    H1 1887   2.299   5.491   1.112 -2.9010 -2.5045  0.9836
  641TIP3    H2 1888   2.374   5.373   1.054  0.0296 -0.4380  0.3058
  642TIP3   OH2 1889   2.943   4.987   4.534 -0.0107  0.1656 -0.7740
  642TIP3    H1 1890   2.954   5.004   4.440 -1.1322  1.5867 -0.6869
  642TIP3    H2 1891   2.854   5.016   4.553  0.1837 -0.1561  0.7254
  643TIP3   OH2 1892   2.869   3.151   3.588 -0.3704  0.2235 -0.2869
  643TIP3    H1 1893   2.778   3.122   3.592  0.3551 -2.2564  0.1326
  643TIP3    H2 1894   2.876   3.219   3.654 -1.6201 -0.4818  0.6089
  644TIP3   OH2 1895   6.261   6.281   1.316 -0.6588 -0.3446  0.6012
  644TIP3    H1 1896   6.350   6.244   1.315 -0.5873 -0.3103  2.2954
  644TIP3    H2 1897   6.275   6.375   1.330 -0.9462 -0.2021 -0.0556
  645TIP3   OH2 1898   6.993   3.719   4.669 -0.5400  0.4912  0.3182
  645TIP3    H1 1899   7.028   3.661   4.601 -2.0836 -0.0480 -0.0554
  645TIP3    H2 1900   6.902   3.690   4.680 -0.3154  0.5127  2.6701
  646TIP3   OH2 1901   0.397   3.574   3.957  0.6845 -0.3428 -0.4003
  646TIP3    H1 1902   0.462   3.602   3.892 -0.0857  2.0222 -0.2176
  646TIP3    H2 1903   0.321   3.628   3.940 -0.3832 -1.3342  1.0019
  647TIP3   OH2 1904   5.738   4.604   3.268  0.0511  0.1485  0.2116
  647TIP3    H1 1905   5.805   4.560   3.320 -1.9593 -2.1142  1.0373
  647TIP3    H2 1906   5.787   4.666   3.214  2.8745 -1.8156  0.3125
  648TIP3   OH2 1907   5.557   5.237   3.241 -0.1503 -0.0927  0.3589
  648TIP3    H1 1908   5.648   5.240   3.271  0.1098  0.1890 -0.4428
  648TIP3    H2 1909   5.544   5.147   3.212  0.8254  0.5616 -2.3602
  649TIP3   OH2 1910   5.868   0.546   0.842 -0.5584  0.2887  0.4070
  649TIP3    H1 1911   5.779   0.571   0.867 -0.5505  1.8499 -0.9765
  649TIP3    H2 1912   5.907   0.626   0.808  1.5830 -0.2221  1.4591
  650TIP3   OH2 1913   7.110   6.508   2.544  0.0052  0.1588 -0.1320
  650TIP3    H1 1914   7.161   6.429   2.559  0.7512  0.5838 -0.3744
  650TIP3    H2 1915   7.019   6.478   2.540  0.1069 -0.4510  1.4905
  651TIP3   OH2 1916   2.321   5.434   1.449 -0.0086  0.4375  0.1695
  651TIP3    H1 1917   2.392   5.453   1.388 -0.0823 -0.7676 -0.3206
  651TIP3    H2 1918   2.242   5.467   1.406  0.4156  4.0149  1.7467
  652TIP3   OH2 1919   5.834   2.754   5.426 -0.1675  0.4422  0.2752
  652TIP3    H1 1920   5.741   2.729   5.429 -0.3199  0.8009 -1.0875
  652TIP3    H2 1921   5.844   2.818   5.497 -1.1435  0.9863 -0.0619
  653TIP3   OH2 1922   4.047   1.626   5.188  0.3228  0.6330 -0.6226
  653TIP3    H1 1923   3.958   1.662   5.185 -0.1291 -0.5020 -1.6249
  653TIP3    H2 1924   4.052   1.581   5.272 -0.1596  0.4190 -0.7088
  654TIP3   OH2 1925   0.896   5.427   0.148  0.3441  0.1395 -0.4951
  654TIP3    H1 1926   0.872   5.504   0.200 -1.5741  0.0150 -1.1454
  654TIP3    H2 1927   0.845   5.356   0.186  0.4166 -0.3569 -1.3208
  655TIP3   OH2 1928   2.125   0.625   4.090  1.1049 -0.0678 -0.2014
  655TIP3    H1 1929   2.033   0.615   4.066  1.5679 -0.1164 -2.1655
  655TIP3    H2 1930   2.146   0.545   4.139  0.3900 -0.6199 -0.7708
  656TIP3   OH2 1931   3.679   2.062   4.506  0.5821 -0.2499 -0.0468
  656TIP3    H1 1932   3.719   2.146   4.486 -0.5395  0.0832 -1.0068
  656TIP3    H2 1933   3.692   2.010   4.427  0.5940 -0.7185  0.2606
  657TIP3   OH2 1934   5.421   2.643   2.776 -0.3369  0.0045  0.2041
  657TIP3    H1 1935   5.513   2.654   2.752 -0.3424  1.5563  0.8245
  657TIP3    H2 1936   5.400   2.553   2.748  0.9534  0.1009 -1.2267
  658TIP3   OH2 1937   5.742   5.902   2.086  0.5798  0.1814 -0.1785
  658TIP3    H1 1938   5.685   5.957   2.140  0.6789 -0.6562  0.7925
  658TIP3    H2 1939   5.681   5.844   2.039  0.4619  1.1886 -1.3354
  659TIP3   OH2 1940   0.952   6.694   3.979  0.8795 -0.4869  0.2105
  659TIP3    H1 1941   0.980   6.605   3.958  0.8225 -0.0712 -1.9037
  659TIP3    H2 1942   1.017   6.750   3.938 -0.2340  0.4452 -0.3515
  660TIP3   OH2 1943   2.866   2.647   4.244  0.6481 -0.3592  0.5000
  660TIP3    H1 1944   2.793   2.624   4.301 -0.1264  0.8946  0.0560
  660TIP3    H2 1945   2.829   2.648   4.156  0.9855  1.0297  0.3502
  661TIP3   OH2 1946   3.529   3.324   1.935 -0.2859  0.2561  0.3808
  661TIP3    H1 1947   3.450   3.379   1.931 -0.3290  0.4414  2.5537
  661TIP3    H2 1948   3.496   3.234   1.933 -0.3491  0.2991 -1.2709
  662TIP3   OH2 1949   2.857   3.809   4.048  0.2115  0.0138 -0.2295
  662TIP3    H1 1950   2.857   3.801   4.144 -1.3108 -0.6825 -0.2487
  662TIP3    H2 1951   2.767   3.786   4.023  0.2724  1.2682 -1.7417
  663TIP3   OH2 1952   4.066   5.660   5.557  0.6534 -0.4290  0.5498
  663TIP3    H1 1953   4.064   5.574   5.598  1.9926  0.2170  2.0856
  663TIP3    H2 1954   4.143   5.703   5.594  0.4200  1.1837 -0.7037
  664TIP3   OH2 1955   5.736   5.474   1.795 -1.1342  0.2055  0.3647
  664TIP3    H1 1956   5.729   5.397   1.738 -0.0570  0.7372 -0.5197
  664TIP3    H2 1957   5.770   5.439   1.878  0.8597 -0.1035 -0.5304
  665TIP3   OH2 1958   2.884   2.734   1.596 -0.4112 -0.0283 -0.1991
  665TIP3    H1 1959   2.837   2.705   1.674  0.2396 -1.8245 -0.4401
  665TIP3    H2 1960   2.866   2.828   1.591 -1.8511 -0.1920  1.1453
  666TIP3   OH2 1961   2.164   2.042   2.859 -0.2445 -0.3824  0.0735
  666TIP3    H1 1962   2.201   2.047   2.771 -0.3894 -1.0661 -0.0383
  666TIP3    H2 1963   2.116   1.958   2.859  0.0256 -0.5394  0.9040
  667TIP3   OH2 1964   4.304   0.726   2.341 -0.3839  0.6864 -0.5107
  667TIP3    H1 1965   4.231   0.728   2.403 -0.1572 -1.9411 -0.0683
  667TIP3    H2 1966   4.352   0.646   2.362  1.1959  1.0447 -2.4361
  668TIP3   OH2 1967   2.300   5.921   1.679  0.2989  0.1978 -0.4551
  668TIP3    H1 1968   2.377   5.896   1.730 -1.3130 -0.5948  1.7293
  668TIP3    H2 1969   2.298   5.860   1.606 -1.0385 -3.4022  2.2992
  669TIP3   OH2 1970   4.976   5.101   0.864 -0.9392  0.6346 -0.7547
  669TIP3    H1 1971   4.915   5.150   0.920  0.6023  1.3659  0.3685
  669TIP3    H2 1972   4.957   5.009   0.882 -0.2560  0.8389  1.3077
  670TIP3   OH2 1973   1.530   4.676   2.053  0.5631  0.0140 -0.2506
  670TIP3    H1 1974   1.616   4.699   2.089  0.3720  1.7292 -0.8161
  670TIP3    H2 1975   1.510   4.746   1.992 -1.8686  0.3952  0.8954
  671TIP3   OH2 1976   3.751   0.340   0.704  0.0344 -0.2986  0.2082
  671TIP3    H1 1977   3.714   0.301   0.625  0.0314 -1.0073  0.5486
  671TIP3    H2 1978   3.841   0.308   0.707  0.0385 -0.2678  0.4847
  672TIP3   OH2 1979   1.436   5.544   5.632  0.0711 -0.3303 -0.1982
  672TIP3    H1 1980   1.396   5.483   5.571 -0.2907  2.0722 -2.5562
  672TIP3    H2 1981   1.365   5.604   5.656  0.9558  0.6331  0.0902
  673TIP3   OH2 1982   6.776   3.601   1.166 -0.3124 -0.6457  0.4162
  673TIP3    H1 1983   6.845   3.615   1.230 -0.2207 -0.7527  0.3420
  673TIP3    H2 1984   6.818   3.550   1.096  0.5619  2.3972 -1.4630
  674TIP3   OH2 1985   0.489   0.320   0.413  0.0205  0.5462  0.1414
  674TIP3    H1 1986   0.403   0.288   0.384  0.2398  0.1864 -0.1162
  674TIP3    H2 1987   0.482   0.415   0.403  0.2667  0.4244 -1.6807
  675TIP3   OH2 1988   4.014   1.228   1.266 -0.5913  0.1049 -0.0155
  675TIP3    H1 1989   4.093   1.204   1.216 -1.4340  0.3557 -1.5069
  675TIP3    H2 1990   4.025   1.321   1.284  0.1927 -0.1894  1.2206
  676TIP3   OH2 1991   4.974   4.627   3.970  0.2274 -0.1548  0.1524
  676TIP3    H1 1992   4.928   4.544   3.962 -1.9339  1.0878 -1.3395
  676TIP3    H2 1993   4.918   4.690   3.924  2.0008  2.0479  0.8347
  677TIP3   OH2 1994   5.628   0.606   1.821  0.6665 -0.5161 -0.1817
  677TIP3    H1 1995   5.684   0.555   1.763  2.3947 -1.7062  2.3763
  677TIP3    H2 1996   5.560   0.545   1.849  0.3187 -0.1849 -0.2899
  678TIP3   OH2 1997   0.619   1.163   0.754  0.0295 -0.0584 -0.0310
  678TIP3    H1 1998   0.616   1.126   0.842  1.0684 -2.5382 -0.9141
  678TIP3    H2 1999   0.530   1.152   0.720 -0.2834  0.5678  0.5874
  679TIP3   OH2 2000   1.505   1.354   3.244 -0.5033  0.1590  0.3428
  679TIP3    H1 2001   1.456   1.436   3.255  0.1494  0.7831 -1.1578
  679TIP3    H2 2002   1.440   1.285   3.259 -1.5323  0.9726 -0.2399
  680TIP3   OH2 2003   0.701   3.869   1.717  0.5054  0.0350 -0.3631
  680TIP3    H1 2004   0.619   3.867   1.667 -0.1221 -2.3190  0.5999
  680TIP3    H2 2005   0.741   3.783   1.701  0.6889 -0.5021  2.3977
  681TIP3   OH2 2006   1.795   3.848   1.320  0.0443  0.2283  0.2310
  681TIP3    H1 2007   1.775   3.761   1.354 -0.7537  0.0611 -0.6162
  681TIP3    H2 2008   1.830   3.896   1.395  3.5264 -1.7134  0.0328
  682TIP3   OH2 2009   5.515   4.996   4.869 -0.2530 -0.5417  0.4452
  682TIP3    H1 2010   5.521   4.998   4.965 -1.5859  1.1101  0.5380
  682TIP3    H2 2011   5.600   5.029   4.840 -0.3711  0.4220  1.1168
  683TIP3   OH2 2012   6.429   6.433   3.909  0.0334  0.1503 -1.0471
  683TIP3    H1 2013   6.518   6.402   3.893  0.8574  1.5592  0.4150
  683TIP3    H2 2014   6.437   6.485   3.989 -1.6386  2.3036 -2.1884
  684TIP3   OH2 2015   4.101   4.135   2.719 -0.2545 -0.3778  0.0201
  684TIP3    H1 2016   4.176   4.171   2.671 -1.0270 -0.1831 -1.0711
  684TIP3    H2 2017   4.063   4.071   2.660 -2.4466  1.2993 -0.5333
  685TIP3   OH2 2018   0.620   6.375   5.852  0.1021 -0.0171  0.4520
  685TIP3    H1 2019   0.660   6.293   5.878  0.1084  0.0523  0.6675
  685TIP3    H2 2020   0.530   6.352   5.830 -0.0168 -0.0183  0.9197
  686TIP3   OH2 2021   1.544   4.274   0.156  0.0543 -0.3421 -0.0906
  686TIP3    H1 2022   1.582   4.205   0.103 -0.2662 -1.4181  1.0250
  686TIP3    H2 2023   1.565   4.355   0.110  1.3549 -1.1003 -0.8770
  687TIP3   OH2 2024   1.488   0.878   4.980 -0.2095 -0.0599 -0.3084
  687TIP3    H1 2025   1.459   0.862   4.890 -0.5670 -0.1762 -0.1742
  687TIP3    H2 2026   1.519   0.969   4.980 -0.5307  0.0504 -0.4674
  688TIP3   OH2 2027   3.801   5.249   2.463 -0.0724  0.1787  0.8938
  688TIP3    H1 2028   3.773   5.163   2.433 -1.0437  0.2505  1.5650
  688TIP3    H2 2029   3.809   5.301   2.383  0.4392 -0.4993  0.4909
  689TIP3   OH2 2030   3.024   2.731   3.172  0.2647 -0.2214 -0.1740
  689TIP3    H1 2031   3.115   2.703   3.178  0.4912  0.7607  1.6523
  689TIP3    H2 2032   3.021   2.814   3.219 -1.7242 -0.6149  0.4859
  690TIP3   OH2 2033   4.770   2.714   4.433  0.0348 -0.1623  0.1316
  690TIP3    H1 2034   4.775   2.700   4.338 -0.2154  0.9623 -0.0555
  690TIP3    H2 2035   4.860   2.731   4.460 -0.2131  2.3893 -0.3951
  691TIP3   OH2 2036   6.099   4.156   3.037 -0.2113  0.1612 -0.3381
  691TIP3    H1 2037   6.010   4.155   3.001  0.1412  1.0414 -1.2792
  691TIP3    H2 2038   6.141   4.230   2.994  1.0686 -0.4098 -0.0993
  692TIP3   OH2 2039   7.007   3.963   1.744 -0.1913  0.5429  0.7603
  692TIP3    H1 2040   6.972   4.052   1.745 -0.2120  0.5304  1.7920
  692TIP3    H2 2041   7.100   3.974   1.725 -0.2702  0.7591  0.5003
  693TIP3   OH2 2042   1.624   4.799   1.717  0.8616  0.2946  0.1453
  693TIP3    H1 2043   1.689   4.851   1.671  2.0879 -0.0101  1.4720
  693TIP3    H2 2044   1.642   4.709   1.692  1.1797  0.1782  0.7656
  694TIP3   OH2 2045   0.528   3.437   4.168 -0.1943 -0.1464  0.2032
  694TIP3    H1 2046   0.468   3.490   4.115  0.4771 -0.6579 -1.1098
  694TIP3    H2 2047   0.586   3.501   4.209 -0.0727  0.2072 -0.5102
  695TIP3   OH2 2048   0.175   2.924   2.679  0.0451 -0.3569  0.8029
  695TIP3    H1 2049   0.114   2.914   2.606 -0.2413 -0.9389  1.1091
  695TIP3    H2 2050   0.132   2.985   2.739  2.1293  3.7153 -1.4227
  696TIP3   OH2 2051   0.934   6.108   2.206 -0.0391 -0.4208  0.6812
  696TIP3    H1 2052   0.843   6.116   2.180  0.1529 -2.9240 -1.1623
  696TIP3    H2 2053   0.936   6.032   2.264  0.8727 -0.3490  0.7612
  697TIP3   OH2 2054   0.997   2.384   1.052 -0.5023 -0.4154  0.2605
  697TIP3    H1 2055   1.006   2.366   1.145  1.6062  1.3920  0.4758
  697TIP3    H2 2056   0.905   2.410   1.041 -1.1567 -1.9935  1.5087
  698TIP3   OH2 2057   1.372   0.153   1.826 -0.5682 -0.0235 -0.0267
  698TIP3    H1 2058   1.446   0.111   1.781 -1.0905 -0.8991 -0.0906
  698TIP3    H2 2059   1.411   0.190   1.906 -0.2179 -1.3347  0.4442
  699TIP3   OH2 2060   1.858   6.438   3.596 -0.4712 -0.1194 -0.5873
  699TIP3    H1 2061   1.870   6.501   3.524 -0.7206 -0.7425 -1.1880
  699TIP3    H2 2062   1.764   6.439   3.614 -0.9432 -2.3444 -2.5258
  700TIP3   OH2 2063   5.518   0.605   2.473 -0.2781 -0.3050 -0.1054
  700TIP3    H1 2064   5.575   0.604   2.550  0.0757  1.6798 -0.2829
  700TIP3    H2 2065   5.531   0.519   2.432  1.3599 -0.5025  0.7485
  701TIP3   OH2 2066   6.601   6.541   2.414 -0.2353 -0.1801 -0.0006
  701TIP3    H1 2067   6.520   6.503   2.379 -0.8677  2.2362 -1.4063
  701TIP3    H2 2068   6.644   6.580   2.338  2.7083 -1.9597  0.5606
  702TIP3   OH2 2069   5.725   1.736   2.431 -0.0540  0.8446  0.8582
  702TIP3    H1 2070   5.756   1.649   2.404 -2.4497  0.6545 -1.8235
  702TIP3    H2 2071   5.759   1.796   2.364 -0.8632  1.4655  0.9856
  703TIP3   OH2 2072   1.202   2.669   4.417 -0.0032 -0.6485 -0.1546
  703TIP3    H1 2073   1.132   2.604   4.409 -0.6265  0.0316 -0.2760
  703TIP3    H2 2074   1.196   2.721   4.337 -1.1981  1.1955  1.0483
  704TIP3   OH2 2075   4.220   0.721   2.793 -0.2887  0.2040  0.4287
  704TIP3    H1 2076   4.250   0.801   2.750 -1.4491  0.2247 -0.3918
  704TIP3    H2 2077   4.129   0.739   2.817 -0.4101 -0.6988  0.6778
  705TIP3   OH2 2078   6.069   1.033   5.260  0.0845  0.4009  0.8231
  705TIP3    H1 2079   6.068   1.091   5.335 -2.6087 -0.0412  1.2056
  705TIP3    H2 2080   5.980   1.034   5.226  0.2773 -2.2924 -0.0704
  706TIP3   OH2 2081   3.010   4.715   4.575 -0.3793  0.6732  0.8904
  706TIP3    H1 2082   3.105   4.713   4.578 -0.2175 -0.5532 -2.0959
  706TIP3    H2 2083   2.988   4.794   4.526 -0.7732 -0.0262 -0.0991
  707TIP3   OH2 2084   3.872   0.378   4.496  0.2445 -0.3551  0.3190
  707TIP3    H1 2085   3.807   0.344   4.436  1.2820  0.0022 -1.0734
  707TIP3    H2 2086   3.924   0.302   4.521  1.2854 -0.1892 -1.1697
  708TIP3   OH2 2087   6.653   3.391   1.767 -0.2884  0.2878 -0.0369
  708TIP3    H1 2088   6.566   3.369   1.801 -1.1612  1.6229 -1.2927
  708TIP3    H2 2089   6.636   3.439   1.686  1.6221  0.7852 -0.1917
  709TIP3   OH2 2090   5.089   0.769   0.236 -0.4393 -0.1106  1.0605
  709TIP3    H1 2091   5.162   0.720   0.274  0.4645  1.5968  1.6267
  709TIP3    H2 2092   5.060   0.716   0.162  0.3173 -1.5998  1.7945
  710TIP3   OH2 2093   1.149   1.947   0.502  0.0415 -0.1896 -0.1340
  710TIP3    H1 2094   1.190   1.962   0.417 -0.1465  1.5585  0.0477
  710TIP3    H2 2095   1.219   1.910   0.556  1.4505  2.6232  0.1453
  711TIP3   OH2 2096   6.131   1.490   5.691  0.0072  0.3405  0.1323
  711TIP3    H1 2097   6.208   1.443   5.722 -0.7618 -0.1525  1.3900
  711TIP3    H2 2098   6.165   1.571   5.653  1.0500  1.1119  2.5248
  712TIP3   OH2 2099   2.245   2.205   1.571 -0.3732 -0.3224  0.0104
  712TIP3    H1 2100   2.309   2.249   1.515 -1.3460  0.4794 -0.5099
  712TIP3    H2 2101   2.234   2.118   1.532  2.2531 -1.4776  1.5757
  713TIP3   OH2 2102   3.316   4.718   2.974 -0.2638 -0.2247  0.3802
  713TIP3    H1 2103   3.346   4.707   3.064  1.0701 -2.3126 -0.2425
  713TIP3    H2 2104   3.224   4.741   2.981 -0.5312 -1.6465  2.2752
  714TIP3   OH2 2105   5.137   2.639   3.356 -0.2266  0.0293  0.1966
  714TIP3    H1 2106   5.105   2.722   3.319 -0.9123  0.1644  1.0652
  714TIP3    H2 2107   5.120   2.646   3.450  1.4424 -0.3337  0.5555
  715TIP3   OH2 2108   3.634   5.020   3.837  0.1637  0.3262 -0.6098
  715TIP3    H1 2109   3.678   4.951   3.788 -0.3757  1.1784 -2.3553
  715TIP3    H2 2110   3.673   5.101   3.805 -1.4523  1.0025 -0.9459
  716TIP3   OH2 2111   1.010   4.222   0.231  0.2245 -0.1258 -0.1595
  716TIP3    H1 2112   1.059   4.276   0.293  0.7319 -1.2391  0.4260
  716TIP3    H2 2113   1.076   4.183   0.175 -0.2577  1.2517 -1.7687
  717TIP3   OH2 2114   4.986   2.056   1.823 -0.1574 -0.1337 -0.1281
  717TIP3    H1 2115   5.046   2.102   1.881 -0.3688  0.8370 -0.6545
  717TIP3    H2 2116   4.917   2.119   1.804 -0.6611 -0.7984 -0.5703
  718TIP3   OH2 2117   2.597   2.885   3.663  0.6567  0.2549 -0.2169
  718TIP3    H1 2118   2.634   2.889   3.751  0.8883  1.9773 -0.3702
  718TIP3    H2 2119   2.595   2.976   3.633 -2.1507  0.0433 -0.8811
  719TIP3   OH2 2120   4.297   4.414   5.532  0.2121  0.4806  0.0634
  719TIP3    H1 2121   4.280   4.358   5.607 -0.6217  1.0231  0.2938
  719TIP3    H2 2122   4.337   4.356   5.467 -0.0852 -0.2380  0.5086
  720TIP3   OH2 2123   2.983   2.687   0.975 -0.2384 -0.4589  0.0016
  720TIP3    H1 2124   2.981   2.638   1.057 -1.3789 -0.2435  0.1255
  720TIP3    H2 2125   3.074   2.686   0.948  0.3366  0.2317  1.7536
  721TIP3   OH2 2126   5.773   5.031   4.802 -0.0838 -0.3905  0.0289
  721TIP3    H1 2127   5.784   4.965   4.870 -1.7430 -0.0962  0.6326
  721TIP3    H2 2128   5.776   4.982   4.720 -3.1534 -1.6158  0.5093
  722TIP3   OH2 2129   4.684   1.850   1.663  0.5218 -0.0325  0.2371
  722TIP3    H1 2130   4.771   1.833   1.627 -0.5001 -2.3871 -1.3436
  722TIP3    H2 2131   4.674   1.945   1.656  2.9563  0.3171  0.5219
  723TIP3   OH2 2132   5.267   3.179   5.793 -0.5712 -0.0705  0.1925
  723TIP3    H1 2133   5.239   3.088   5.791 -0.5482 -0.0716 -0.7994
  723TIP3    H2 2134   5.205   3.222   5.852 -1.3228 -0.5131 -0.2506
  724TIP3   OH2 2135   2.732   5.099   4.973  0.1848 -0.5501 -0.3998
  724TIP3    H1 2136   2.817   5.054   4.969  1.8531  2.3760 -0.8081
  724TIP3    H2 2137   2.737   5.154   5.051 -1.2545 -0.1526 -0.5500
  725TIP3   OH2 2138   1.560   1.055   0.407 -0.2308  0.7226  0.1034
  725TIP3    H1 2139   1.577   1.043   0.313 -1.8815 -0.2762 -0.0993
  725TIP3    H2 2140   1.607   1.136   0.429  0.1888  0.9799 -1.5763
  726TIP3   OH2 2141   2.818   4.339   5.866 -0.4917 -0.2045  0.2155
  726TIP3    H1 2142   2.878   4.331   5.940 -0.2158  0.4748  0.0674
  726TIP3    H2 2143   2.861   4.291   5.795  0.7673  1.7458 -0.4247
  727TIP3   OH2 2144   3.733   6.663   5.130  0.1345 -0.0694  0.1342
  727TIP3    H1 2145   3.753   6.753   5.105  0.1358  0.6784  2.5940
  727TIP3    H2 2146   3.772   6.652   5.217 -1.3025 -1.8879  0.6255
  728TIP3   OH2 2147   6.722   2.255   2.877  0.3073 -0.0316 -0.2335
  728TIP3    H1 2148   6.690   2.186   2.818  2.5474 -0.0268 -1.5850
  728TIP3    H2 2149   6.693   2.337   2.837 -0.9341 -0.1071  0.4710
  729TIP3   OH2 2150   5.589   4.958   2.268 -0.5218 -0.5712 -0.2866
  729TIP3    H1 2151   5.568   4.864   2.266 -0.3735 -0.6276  0.5275
  729TIP3    H2 2152   5.677   4.962   2.305  0.1646 -0.2028 -1.8808
  730TIP3   OH2 2153   2.790   2.741   2.437  0.0802 -0.1652 -0.3479
  730TIP3    H1 2154   2.843   2.663   2.457  0.1159  0.0283  0.3395
  730TIP3    H2 2155   2.838   2.814   2.475 -1.4958 -0.1808  1.8533
  731TIP3   OH2 2156   0.744   0.245   5.516  0.0614  0.8021  0.1017
  731TIP3    H1 2157   0.784   0.166   5.551 -0.4103  0.6206  0.2513
  731TIP3    H2 2158   0.801   0.316   5.545  0.2778  0.5504  0.2990
  732TIP3   OH2 2159   0.172   4.654   5.054 -0.0270 -0.3076 -0.5584
  732TIP3    H1 2160   0.255   4.694   5.078 -0.2818  0.2370 -0.5770
  732TIP3    H2 2161   0.182   4.561   5.077  0.5876 -0.2456 -0.5802
  733TIP3   OH2 2162   3.364   5.404   2.418 -0.2615  0.0243  0.2497
  733TIP3    H1 2163   3.337   5.382   2.507 -1.4372  0.8906  0.1191
  733TIP3    H2 2164   3.430   5.473   2.430 -1.9450  1.6760  0.4163
  734TIP3   OH2 2165   4.501   2.894   5.449 -0.0086 -0.0302  0.1613
  734TIP3    H1 2166   4.497   2.910   5.544  0.7068 -0.2061  0.2282
  734TIP3    H2 2167   4.568   2.955   5.418 -1.6545  1.5139 -0.5685
  735TIP3   OH2 2168   5.343   4.235   4.686 -0.3598 -0.0956 -0.2809
  735TIP3    H1 2169   5.317   4.180   4.613 -0.2864  0.3952 -0.6817
  735TIP3    H2 2170   5.260   4.270   4.720 -0.2514  2.3875 -2.2783
  736TIP3   OH2 2171   3.649   0.404   1.992 -0.1867  0.5510  0.1955
  736TIP3    H1 2172   3.742   0.390   2.006 -0.4274 -2.3108 -0.4887
  736TIP3    H2 2173   3.642   0.440   1.904  0.2405 -1.4700 -0.7349
  737TIP3   OH2 2174   6.742   4.057   5.683  0.8013 -0.8648  0.6468
  737TIP3    H1 2175   6.800   4.123   5.721  0.5706 -0.1962 -0.1326
  737TIP3    H2 2176   6.703   4.012   5.758  0.3877  0.3879  1.1935
  738TIP3   OH2 2177   0.801   1.875   0.083 -0.4763  0.9640  0.1378
  738TIP3    H1 2178   0.842   1.816   0.146 -0.7983  0.4801 -0.0972
  738TIP3    H2 2179   0.840   1.852  -0.001 -0.8564  0.8472 -0.0080
  739TIP3   OH2 2180   4.749   2.952   0.868 -0.1129 -0.3201 -0.3776
  739TIP3    H1 2181   4.763   2.914   0.954  1.0125  1.1154  0.1053
  739TIP3    H2 2182   4.699   3.033   0.885  0.7759  0.3686 -0.9750
  740TIP3   OH2 2183   6.311   3.072   1.443  0.2991 -0.2598  0.0434
  740TIP3    H1 2184   6.275   3.130   1.375 -1.6978  0.5199  1.6715
  740TIP3    H2 2185   6.377   3.125   1.487 -0.6895  0.4095  0.7637
  741TIP3   OH2 2186   6.528   3.460  -0.034  0.2086  0.2237 -0.4670
  741TIP3    H1 2187   6.512   3.372   0.000 -1.6241  0.7011 -0.0308
  741TIP3    H2 2188   6.537   3.515   0.043 -1.6659  0.9141 -0.7062
  742TIP3   OH2 2189   3.209   4.427   4.480 -0.6208 -0.3602  0.3970
  742TIP3    H1 2190   3.221   4.501   4.539  1.7666  0.5303 -1.0548
  742TIP3    H2 2191   3.273   4.362   4.509  0.1840 -0.1378 -0.7990
  743TIP3   OH2 2192   1.622   3.344   5.475  0.2588  0.1777 -0.1423
  743TIP3    H1 2193   1.666   3.267   5.440 -1.0375 -0.7797  0.2932
  743TIP3    H2 2194   1.688   3.414   5.468  0.8603 -0.5112 -2.2271
  744TIP3   OH2 2195   5.768   2.478   1.748 -0.4375  0.7779  0.4331
  744TIP3    H1 2196   5.854   2.506   1.780  0.2453  0.3493 -0.9157
  744TIP3    H2 2197   5.739   2.412   1.811  0.1765  1.0133  0.9728
  745TIP3   OH2 2198   3.611   1.919   1.904  0.4987  0.0592  0.0026
  745TIP3    H1 2199   3.534   1.888   1.858 -0.5723  0.3360  1.5341
  745TIP3    H2 2200   3.602   2.014   1.905  2.0249  0.2825 -1.7154
  746TIP3   OH2 2201   3.928   4.317   5.006 -0.2903  0.3087 -0.0211
  746TIP3    H1 2202   3.945   4.341   4.915 -1.1932 -0.5559 -0.4349
  746TIP3    H2 2203   3.894   4.227   5.002 -2.6543  1.1014  0.9371
  747TIP3   OH2 2204   3.808   2.857   4.908  0.0736  0.5931  0.1446
  747TIP3    H1 2205   3.826   2.769   4.875  0.6945 -0.1382  2.2667
  747TIP3    H2 2206   3.852   2.915   4.846  0.5050 -0.6416 -0.7444
  748TIP3   OH2 2207   2.395   1.681   5.441 -0.2764  0.1425 -0.1185
  748TIP3    H1 2208   2.332   1.753   5.438  0.0869  0.4407 -1.0719
  748TIP3    H2 2209   2.477   1.722   5.468 -0.2781 -0.0850  0.2400
  749TIP3   OH2 2210   4.390   4.217   4.512  0.9200  0.4287 -0.1939
  749TIP3    H1 2211   4.344   4.245   4.433  0.1800  0.4497  0.2278
  749TIP3    H2 2212   4.322   4.218   4.580  1.5054  0.2506  0.4022
  750TIP3   OH2 2213   3.019   4.985   5.579  0.0741  0.1228  0.9101
  750TIP3    H1 2214   3.102   4.947   5.607  0.2054  0.0908  0.4772
  750TIP3    H2 2215   3.032   5.007   5.487 -0.8785 -1.2286  0.4249
  751TIP3   OH2 2216   6.913   5.696   3.207  0.0947 -0.1281 -0.2702
  751TIP3    H1 2217   6.836   5.720   3.258  0.2175  0.2765 -0.2661
  751TIP3    H2 2218   6.953   5.624   3.255  0.0423  0.0505  0.0426
  752TIP3   OH2 2219   2.195   4.656   1.357  0.2563  0.2988 -0.0931
  752TIP3    H1 2220   2.164   4.609   1.435  0.3128  1.7936  0.8734
  752TIP3    H2 2221   2.264   4.600   1.321 -0.1823 -0.7012  0.5839
  753TIP3   OH2 2222   0.597   1.329   3.779  0.1765  0.0848  0.4588
  753TIP3    H1 2223   0.632   1.262   3.720 -2.1348 -2.0865  1.3776
  753TIP3    H2 2224   0.502   1.316   3.777 -0.3072  2.7360  1.4790
  754TIP3   OH2 2225   2.520   3.810   2.657  0.0041 -0.5860  0.2096
  754TIP3    H1 2226   2.525   3.843   2.746  1.9656 -2.1821  0.7737
  754TIP3    H2 2227   2.433   3.836   2.626  0.5326  2.9712  1.3086
  755TIP3   OH2 2228   7.188   2.915   2.447 -0.4332  0.1556 -0.0735
  755TIP3    H1 2229   7.201   2.928   2.353 -2.8108  0.4263 -0.4081
  755TIP3    H2 2230   7.161   2.824   2.455 -1.6668  0.5343  0.1667
  756TIP3   OH2 2231   4.737   2.866   3.677 -0.3450  0.5797 -0.3017
  756TIP3    H1 2232   4.686   2.945   3.694  1.1380  1.2936  1.1669
  756TIP3    H2 2233   4.737   2.819   3.761 -0.1670 -0.3503 -0.8059
  757TIP3   OH2 2234   0.932   1.729   3.613  0.0160  0.1131  0.7714
  757TIP3    H1 2235   0.883   1.661   3.659 -1.4998  0.2728 -0.5169
  757TIP3    H2 2236   0.927   1.703   3.521 -1.3028  2.3315  0.1490
  758TIP3   OH2 2237   6.618   2.239   4.734 -0.1819  0.8164  0.0544
  758TIP3    H1 2238   6.698   2.280   4.701 -0.6410 -0.2442 -2.6782
  758TIP3    H2 2239   6.574   2.205   4.656 -1.8892 -1.1694  1.7333
  759TIP3   OH2 2240   1.411   3.503   2.157 -0.2711  0.3370 -0.2932
  759TIP3    H1 2241   1.361   3.466   2.085  0.0255 -0.2261 -0.2197
  759TIP3    H2 2242   1.502   3.502   2.126 -0.1401  0.0795  0.0906
  760TIP3   OH2 2243   0.825   1.207   3.233  0.4612 -0.2363 -0.1748
  760TIP3    H1 2244   0.785   1.208   3.146 -2.4324 -0.8463  1.0108
  760TIP3    H2 2245   0.871   1.123   3.238  1.3713  0.1741 -1.3715
  761TIP3   OH2 2246   5.482   5.793   2.005  0.0407 -0.1542  0.3188
  761TIP3    H1 2247   5.433   5.805   1.924 -1.6844 -1.4410  1.1042
  761TIP3    H2 2248   5.480   5.698   2.019 -0.9196  0.1426  2.5644
  762TIP3   OH2 2249   6.523   2.097   0.814 -0.7016  0.4197 -0.0644
  762TIP3    H1 2250   6.562   2.018   0.851 -1.0391  0.3229  0.0890
  762TIP3    H2 2251   6.487   2.070   0.730 -2.5674 -0.0804  0.8348
  763TIP3   OH2 2252   5.305   4.813   0.179  0.2526  0.1412 -0.0279
  763TIP3    H1 2253   5.245   4.758   0.230 -2.2375  1.0041 -1.8270
  763TIP3    H2 2254   5.384   4.760   0.170 -1.2856 -2.3149  0.0120
  764TIP3   OH2 2255   6.087   4.953   4.971  0.0298 -0.3380  0.5497
  764TIP3    H1 2256   6.017   5.008   5.008  0.0218  0.1713 -0.2009
  764TIP3    H2 2257   6.044   4.869   4.953 -0.7110  0.3085 -0.9310
  765TIP3   OH2 2258   2.191   1.769   0.531 -0.4273 -0.3027  0.2227
  765TIP3    H1 2259   2.152   1.746   0.615 -1.6022 -0.0254 -0.2333
  765TIP3    H2 2260   2.244   1.693   0.508  0.7443  0.0210  1.6863
  766TIP3   OH2 2261   0.670   0.021   4.241  0.3994  0.3603  0.2317
  766TIP3    H1 2262   0.702   0.111   4.229 -1.1568  1.0531  0.9735
  766TIP3    H2 2263   0.679  -0.019   4.154 -0.9476  1.9514 -0.7099
  767TIP3   OH2 2264   2.632   5.736   0.940 -0.4896  0.3163 -0.0748
  767TIP3    H1 2265   2.627   5.806   0.875  0.8949  0.5759  0.0675
  767TIP3    H2 2266   2.567   5.760   1.006 -0.5836  1.0453 -0.4238
  768TIP3   OH2 2267   4.038   5.584   2.620  0.2085  0.1775 -0.0002
  768TIP3    H1 2268   3.943   5.587   2.619  0.1439 -1.4249 -0.4197
  768TIP3    H2 2269   4.059   5.499   2.659  1.4845  0.8340  0.8300
  769TIP3   OH2 2270   3.241   0.314   5.759  0.3949  0.2503  0.3017
  769TIP3    H1 2271   3.298   0.284   5.689  0.4169 -0.4891  0.6269
  769TIP3    H2 2272   3.205   0.397   5.727  1.6532  0.7336  0.1038
  770TIP3   OH2 2273   3.629   1.479   0.309 -0.7229 -0.1328 -0.8457
  770TIP3    H1 2274   3.661   1.518   0.391 -1.6921  0.3462 -0.6885
  770TIP3    H2 2275   3.683   1.401   0.298 -0.7832 -0.3785  0.4214
  771TIP3   OH2 2276   1.733   0.443   0.436 -1.1488  0.4156  0.1319
  771TIP3    H1 2277   1.758   0.350   0.435  0.8288  0.8873  0.9624
  771TIP3    H2 2278   1.658   0.446   0.495 -0.6401 -0.5539  0.8677
  772TIP3   OH2 2279   4.486   4.469   3.872  0.6275 -0.3515  0.0547
  772TIP3    H1 2280   4.422   4.519   3.821  1.0292 -1.0008 -1.1174
  772TIP3    H2 2281   4.495   4.519   3.954 -1.2829 -0.1961  0.2186
  773TIP3   OH2 2282   5.626   6.701   1.410 -0.2085  0.4087  0.7675
  773TIP3    H1 2283   5.547   6.755   1.414 -0.3710  0.3844 -1.1196
  773TIP3    H2 2284   5.699   6.763   1.418 -0.4077  0.5792  1.2598
  774TIP3   OH2 2285   2.715   6.091   5.050 -0.4195  0.1707  0.2738
  774TIP3    H1 2286   2.669   6.175   5.057 -0.4014  0.0701  2.0287
  774TIP3    H2 2287   2.664   6.041   4.987  0.4827  2.0413 -2.0725
  775TIP3   OH2 2288   4.139   1.002   4.016 -0.7615  0.0604  0.0997
  775TIP3    H1 2289   4.165   1.071   4.077  0.6932 -0.8924  0.5899
  775TIP3    H2 2290   4.142   1.043   3.930  1.9648  0.1750  0.1670
  776TIP3   OH2 2291   5.752   1.979   2.649  0.7240  0.3056  0.2138
  776TIP3    H1 2292   5.785   1.928   2.575  0.9885  1.8147 -0.7549
  776TIP3    H2 2293   5.830   2.002   2.699  0.7718  1.0454 -0.2018
  777TIP3   OH2 2294   2.748   0.274   4.811  0.3441 -0.0283 -0.4619
  777TIP3    H1 2295   2.747   0.198   4.869 -0.7599 -0.5062 -1.0837
  777TIP3    H2 2296   2.737   0.238   4.724 -0.7932  0.8772 -0.7152
  778TIP3   OH2 2297   2.250   1.560   3.773  0.4786 -0.1657  0.0721
  778TIP3    H1 2298   2.253   1.618   3.698 -0.8877  0.9438  0.8167
  778TIP3    H2 2299   2.336   1.518   3.776  0.6112 -0.1193 -1.9853
  779TIP3   OH2 2300   3.030   4.908   4.842  0.1829  0.6136 -0.3383
  779TIP3    H1 2301   2.991   4.823   4.823 -0.4649  0.9689 -0.6557
  779TIP3    H2 2302   3.025   4.956   4.759 -0.0247  1.1655 -0.0178
  780TIP3   OH2 2303   1.329   0.673   2.817 -0.2148  0.0188 -1.0233
  780TIP3    H1 2304   1.401   0.613   2.838  0.5972  0.8755 -1.3320
  780TIP3    H2 2305   1.287   0.691   2.902  0.9599  0.8088 -0.5881
  781TIP3   OH2 2306   6.341   4.187   5.058 -0.0190 -0.2874  0.0274
  781TIP3    H1 2307   6.286   4.209   4.983 -1.3416  1.1755  1.3609
  781TIP3    H2 2308   6.408   4.129   5.022 -1.0540 -0.2509 -2.1175
  782TIP3   OH2 2309   4.650   5.928   3.427 -0.1859  0.9125  0.4609
  782TIP3    H1 2310   4.685   5.839   3.419  1.6718  1.6847 -0.7028
  782TIP3    H2 2311   4.602   5.942   3.345 -0.0361  1.1482  0.4128
  783TIP3   OH2 2312   3.534   2.680   3.349  0.2072  0.7496  0.3700
  783TIP3    H1 2313   3.545   2.644   3.437 -1.2521  1.1091  0.7276
  783TIP3    H2 2314   3.517   2.604   3.293  0.0134  0.6189  0.6059
  784TIP3   OH2 2315   0.047   1.426   0.061  0.4166 -0.6894  0.6712
  784TIP3    H1 2316  -0.043   1.446   0.038  0.5468  0.5505  1.1617
  784TIP3    H2 2317   0.075   1.361  -0.004 -0.3043  0.1419 -0.5042
  785TIP3   OH2 2318   5.153   0.134   2.769  0.1865  0.4043 -0.2059
  785TIP3    H1 2319   5.219   0.154   2.835 -1.6282 -0.5534  2.0357
  785TIP3    H2 2320   5.201   0.134   2.686  3.0908 -0.7082  1.3217
  786TIP3   OH2 2321   2.468   2.859   1.709 -0.1269 -0.3621 -0.2332
  786TIP3    H1 2322   2.491   2.887   1.620 -1.3305 -0.8739 -0.7328
  786TIP3    H2 2323   2.552   2.847   1.753  0.4773  0.4975 -1.1105
  787TIP3   OH2 2324   0.528   2.309   2.397 -0.0653 -0.0122 -0.0425
  787TIP3    H1 2325   0.537   2.216   2.376 -1.5452  0.0807 -1.1918
  787TIP3    H2 2326   0.471   2.344   2.329 -0.9712  1.3728  1.3721
  788TIP3   OH2 2327   6.397   5.541   0.845 -0.0075 -0.3130  0.7083
  788TIP3    H1 2328   6.360   5.574   0.763 -1.1869 -1.7817  0.6002
  788TIP3    H2 2329   6.491   5.541   0.830 -0.1931 -0.4147 -0.6006
  789TIP3   OH2 2330   4.977   5.116   4.032 -0.6935 -0.0409  0.1880
  789TIP3    H1 2331   5.044   5.059   3.995 -2.7076 -1.5515 -1.3983
  789TIP3    H2 2332   4.974   5.191   3.972 -2.0486 -1.1696 -1.2506
  790TIP3   OH2 2333   1.276   3.282   2.738 -0.1806  0.4273  0.2939
  790TIP3    H1 2334   1.368   3.284   2.710 -0.2341 -1.0243 -0.0694
  790TIP3    H2 2335   1.252   3.374   2.746  0.9218  0.8613 -0.9166
  791TIP3   OH2 2336   4.513   5.792   0.107 -0.2917  0.4124 -0.0093
  791TIP3    H1 2337   4.529   5.803   0.014 -1.7660 -1.4545 -0.5600
  791TIP3    H2 2338   4.586   5.739   0.138 -0.1393  0.4835 -0.2451
  792TIP3   OH2 2339   0.607   0.065   1.490  0.0745 -0.2323 -0.5266
  792TIP3    H1 2340   0.578   0.113   1.568 -0.2187 -0.5218 -0.4568
  792TIP3    H2 2341   0.633   0.134   1.429 -2.9686  0.1976 -1.5111
  793TIP3   OH2 2342   5.746   4.533   0.027  0.1347  0.4395  0.7465
  793TIP3    H1 2343   5.826   4.578   0.053 -0.3879  1.6864  0.2834
  793TIP3    H2 2344   5.676   4.589   0.061 -0.5468  0.7474 -1.0936
  794TIP3   OH2 2345   2.213   3.276   5.189 -0.1466  0.4973 -0.0239
  794TIP3    H1 2346   2.275   3.241   5.253  1.8037  1.2233 -1.4254
  794TIP3    H2 2347   2.218   3.214   5.116 -2.9479 -0.7753  0.7102
  795TIP3   OH2 2348   3.249   5.663   3.551 -0.1113  0.2094 -0.1658
  795TIP3    H1 2349   3.227   5.570   3.546 -0.0071  0.1859 -0.1851
  795TIP3    H2 2350   3.331   5.666   3.600  0.0256  0.2708 -0.3953
  796TIP3   OH2 2351   4.767   6.537   2.120  0.6057 -0.3110 -0.5902
  796TIP3    H1 2352   4.840   6.595   2.143  0.4939  0.4569 -2.0688
  796TIP3    H2 2353   4.726   6.516   2.204  3.6304 -2.3306  0.5470
  797TIP3   OH2 2354   6.727   6.610   2.721 -0.6689  0.3672 -0.5557
  797TIP3    H1 2355   6.663   6.660   2.670 -0.9311 -0.5892 -1.2040
  797TIP3    H2 2356   6.725   6.650   2.807 -2.9640 -0.2635 -0.2235
  798TIP3   OH2 2357   5.849   3.000   2.304 -0.1446  0.2207 -0.0286
  798TIP3    H1 2358   5.832   2.907   2.316  1.5618  0.1016  1.9589
  798TIP3    H2 2359   5.765   3.036   2.275 -0.9687 -1.8344 -0.3236
  799TIP3   OH2 2360   0.648   4.479   5.612 -0.2767 -0.4370  0.0879
  799TIP3    H1 2361   0.559   4.469   5.579 -0.5382 -2.7197  1.3000
  799TIP3    H2 2362   0.663   4.402   5.666  1.8501  0.7318  1.3262
  800TIP3   OH2 2363   2.314   6.386   4.317  0.7152  0.5743  0.2832
  800TIP3    H1 2364   2.369   6.310   4.303  1.5153  1.2655 -0.4381
  800TIP3    H2 2365   2.231   6.350   4.349  1.3934 -0.5176  0.8817
  801TIP3   OH2 2366   4.673   3.222   1.327  0.3530 -0.0639 -0.0016
  801TIP3    H1 2367   4.616   3.291   1.360 -0.1843 -0.0059 -1.0075
  801TIP3    H2 2368   4.619   3.174   1.265  0.5194 -1.8102  1.1546
  802TIP3   OH2 2369   4.647   3.111   5.827 -0.1157  0.0082 -0.1426
  802TIP3    H1 2370   4.688   3.197   5.813 -0.2807  0.4680  1.8622
  802TIP3    H2 2371   4.567   3.114   5.775 -0.4159  1.3246  0.3438
  803TIP3   OH2 2372   3.162   6.257   5.119  0.4848 -0.0544 -0.6468
  803TIP3    H1 2373   3.146   6.212   5.202  1.7789 -0.1587 -0.4316
  803TIP3    H2 2374   3.110   6.208   5.055 -0.1023 -0.3023  0.0015
  804TIP3   OH2 2375   5.655   6.572   3.016  0.0381 -0.0905  0.2170
  804TIP3    H1 2376   5.608   6.626   3.080 -0.6518 -0.6070  0.1541
  804TIP3    H2 2377   5.630   6.608   2.931 -1.2726 -1.1512  0.1229
  805TIP3   OH2 2378   6.878   3.249   4.517  0.3543  0.4931  0.2391
  805TIP3    H1 2379   6.911   3.293   4.439 -0.4178  1.4832  0.4521
  805TIP3    H2 2380   6.789   3.283   4.529 -0.1323 -0.8392  0.6433
  806TIP3   OH2 2381   6.910   6.583   3.144  0.2082 -0.0947 -0.6488
  806TIP3    H1 2382   6.877   6.515   3.203 -2.3904  1.2640 -0.4304
  806TIP3    H2 2383   6.889   6.551   3.056 -1.2830  0.4993 -0.5347
  807TIP3   OH2 2384   0.443   2.168   0.422  0.0063 -0.0712 -0.2018
  807TIP3    H1 2385   0.493   2.094   0.387  0.1584  0.3408 -0.8702
  807TIP3    H2 2386   0.490   2.193   0.502 -1.2982 -2.1006  1.3115
  808TIP3   OH2 2387   1.742   1.722   5.421  0.1341  0.6087  0.4130
  808TIP3    H1 2388   1.750   1.728   5.326  0.1006 -0.6492  0.3076
  808TIP3    H2 2389   1.821   1.765   5.454  1.6609 -1.4482 -0.2934
  809TIP3   OH2 2390   3.407   0.022   2.130 -0.0441 -0.1772  0.2550
  809TIP3    H1 2391   3.433   0.114   2.141 -0.6086 -0.0534  0.5950
  809TIP3    H2 2392   3.365  -0.001   2.213  0.2087 -0.7862  0.2202
  810TIP3   OH2 2393   2.950   1.391   1.629 -0.0477 -0.0765 -0.3447
  810TIP3    H1 2394   2.930   1.343   1.549  0.8393  0.4832 -0.9104
  810TIP3    H2 2395   2.959   1.323   1.696 -0.5650 -0.5613 -0.7603
  811TIP3   OH2 2396   5.053   2.144   4.446 -0.2210 -0.3266  0.4100
  811TIP3    H1 2397   5.046   2.239   4.451 -0.7469 -0.3165 -0.3570
  811TIP3    H2 2398   5.117   2.129   4.377 -0.3089 -0.5329  0.3741
  812TIP3   OH2 2399   1.059   6.522   5.530  0.5579  0.2115  0.4074
  812TIP3    H1 2400   1.104   6.470   5.596 -0.2856  0.1490  0.9481
  812TIP3    H2 2401   0.979   6.474   5.510  0.7275  0.2995 -0.5698
  813TIP3   OH2 2402   6.575   6.510   0.489  0.2951  0.3114  0.0643
  813TIP3    H1 2403   6.585   6.416   0.470  0.5422  0.0433  1.3954
  813TIP3    H2 2404   6.608   6.519   0.578 -0.6716  1.5054  0.3147
  814TIP3   OH2 2405   2.211   6.745   1.704  0.0354  0.1045  0.3478
  814TIP3    H1 2406   2.115   6.753   1.702 -0.0409 -0.8605 -0.2316
  814TIP3    H2 2407   2.235   6.771   1.793 -0.4916  2.9588 -0.2583
  815TIP3   OH2 2408   3.997   1.881   4.203 -0.2735  0.0603  0.1206
  815TIP3    H1 2409   3.928   1.946   4.190 -0.5024  0.1624  1.7461
  815TIP3    H2 2410   4.034   1.869   4.115 -2.0052  0.3645 -0.6946
  816TIP3   OH2 2411   6.919   5.997   2.770 -0.7141 -0.2847 -0.1114
  816TIP3    H1 2412   6.844   5.949   2.804 -2.0384  1.5806 -0.2404
  816TIP3    H2 2413   6.885   6.043   2.693  1.1469 -1.0996 -1.5132
  817TIP3   OH2 2414   6.815   5.050   2.181  0.0137 -0.4979 -0.0130
  817TIP3    H1 2415   6.755   4.975   2.174 -0.7153  0.0792 -0.0250
  817TIP3    H2 2416   6.878   5.024   2.248 -1.5360 -0.2413  1.5982
  818TIP3   OH2 2417   4.763   5.269   4.560 -0.5044 -0.1357  0.4748
  818TIP3    H1 2418   4.710   5.323   4.618 -1.4168 -0.8539  0.3239
  818TIP3    H2 2419   4.801   5.202   4.616 -1.5246 -0.9344  0.2436
  819TIP3   OH2 2420   5.339   4.908   4.655 -0.3189  0.2963 -0.0450
  819TIP3    H1 2421   5.278   4.840   4.629 -0.8906  0.9293 -0.3635
  819TIP3    H2 2422   5.405   4.861   4.707 -1.7921 -0.1977  1.4808
  820TIP3   OH2 2423   5.782   3.593   3.781 -0.0808  0.0873  0.3318
  820TIP3    H1 2424   5.754   3.658   3.715 -0.5292  0.6489  1.0646
  820TIP3    H2 2425   5.859   3.553   3.742 -0.3799  0.3546 -0.5825
  821TIP3   OH2 2426   4.205   4.421   5.819  0.0953 -0.0999 -0.8016
  821TIP3    H1 2427   4.182   4.513   5.812 -0.9557 -0.0176  2.2133
  821TIP3    H2 2428   4.121   4.375   5.816  0.2612 -0.6086  1.0206
  822TIP3   OH2 2429   2.376   2.642   1.160  0.1403  0.3315 -0.3120
  822TIP3    H1 2430   2.317   2.614   1.230  0.1624  0.0299 -0.4150
  822TIP3    H2 2431   2.319   2.683   1.095 -0.2212 -1.6600 -1.3169
  823TIP3   OH2 2432   0.113   2.217   3.875 -0.0431 -0.4006 -0.6038
  823TIP3    H1 2433   0.054   2.291   3.888 -0.3820 -0.3999 -1.9875
  823TIP3    H2 2434   0.199   2.257   3.861  0.1753 -0.3733  0.7295
  824TIP3   OH2 2435   5.250   0.462   2.450 -0.2023 -0.5975 -0.0828
  824TIP3    H1 2436   5.250   0.369   2.470 -0.0183 -0.6025 -0.1036
  824TIP3    H2 2437   5.320   0.498   2.505 -0.4147 -0.4388  0.0865
  825TIP3   OH2 2438   1.837   2.107   0.672 -0.2345  0.0961  0.0436
  825TIP3    H1 2439   1.922   2.144   0.647 -0.1728 -0.2940 -0.3259
  825TIP3    H2 2440   1.855   2.015   0.693 -0.8897 -0.5422 -2.0034
  826TIP3   OH2 2441   4.828   0.916   4.014  0.4043 -0.0923 -0.5376
  826TIP3    H1 2442   4.881   0.893   3.938  0.6528 -0.8045 -0.1670
  826TIP3    H2 2443   4.747   0.951   3.978  0.7771  0.1780 -1.1212
  827TIP3   OH2 2444   1.073   4.093   1.417  0.2987 -0.4565 -0.4827
  827TIP3    H1 2445   1.045   4.001   1.420 -0.5720 -0.2136 -1.0528
  827TIP3    H2 2446   1.144   4.094   1.353  0.9602 -0.8896  0.2189
  828TIP3   OH2 2447   3.301   6.050   1.652  0.2046 -0.5865 -0.0612
  828TIP3    H1 2448   3.287   6.061   1.558 -1.0845 -0.5634  0.1081
  828TIP3    H2 2449   3.216   6.018   1.685  0.1461  0.8950  1.3245
  829TIP3   OH2 2450   0.491   2.499   0.532 -0.8529 -0.5282 -0.6774
  829TIP3    H1 2451   0.503   2.594   0.531 -1.9549 -0.3062  1.4378
  829TIP3    H2 2452   0.577   2.464   0.510  0.0557  0.9851  0.2956
  830TIP3   OH2 2453   5.781   1.655   5.007 -0.2700 -0.0623 -0.5513
  830TIP3    H1 2454   5.798   1.739   5.050 -1.0911  1.2886 -2.6937
  830TIP3    H2 2455   5.850   1.597   5.039 -0.1610  1.1744  1.6176
  831TIP3   OH2 2456   4.870   1.906   0.849  0.6886 -0.2909 -0.0287
  831TIP3    H1 2457   4.883   1.984   0.794 -1.5176  0.2455  0.1267
  831TIP3    H2 2458   4.794   1.862   0.811 -0.4809 -0.2683  2.1639
  832TIP3   OH2 2459   1.446   1.836   2.713 -0.7065 -0.1886  0.2197
  832TIP3    H1 2460   1.479   1.915   2.669  0.1401 -0.1094  0.9541
  832TIP3    H2 2461   1.359   1.860   2.745 -0.6296  0.3052  0.0612
  833TIP3   OH2 2462   3.776   6.681   0.049 -0.3535 -0.7971 -0.2228
  833TIP3    H1 2463   3.807   6.658  -0.039 -0.3376  0.3098 -0.5205
  833TIP3    H2 2464   3.856   6.703   0.098 -0.3985 -1.0247 -0.0439
  834TIP3   OH2 2465   3.642   4.074   3.238  0.0007  0.0282 -0.5395
  834TIP3    H1 2466   3.611   4.080   3.148 -0.0309  1.8871 -0.4528
  834TIP3    H2 2467   3.737   4.087   3.232  0.1939 -1.2274 -0.4115
  835TIP3   OH2 2468   2.401   4.287   2.629  0.4150  0.6896 -0.1453
  835TIP3    H1 2469   2.428   4.361   2.684  1.6723  0.2929 -0.2006
  835TIP3    H2 2470   2.371   4.327   2.548  0.1846  1.1839  0.1789
  836TIP3   OH2 2471   0.056   2.686   3.015 -0.1393 -0.0822 -0.6049
  836TIP3    H1 2472  -0.021   2.634   3.036 -0.4011  0.4377 -0.2606
  836TIP3    H2 2473   0.055   2.694   2.920 -1.8412  1.9046 -0.4950
  837TIP3   OH2 2474   6.330   5.848   5.471 -0.4670  0.1439 -0.4569
  837TIP3    H1 2475   6.290   5.934   5.484 -2.5248 -1.0810  2.3658
  837TIP3    H2 2476   6.256   5.788   5.463  0.8633 -1.6698  0.2081
  838TIP3   OH2 2477   1.442   6.480   0.700  0.1089 -0.1966  0.2230
  838TIP3    H1 2478   1.507   6.412   0.715  0.7208  0.4147  0.3855
  838TIP3    H2 2479   1.462   6.514   0.612  1.6518  1.7223  1.2428
  839TIP3   OH2 2480   6.231   2.210   3.611  0.5086 -0.6392  0.1392
  839TIP3    H1 2481   6.212   2.230   3.703 -0.4035 -1.9110  0.2494
  839TIP3    H2 2482   6.284   2.130   3.614  2.0149  0.2837 -0.3956
  840TIP3   OH2 2483   1.804   3.068   4.334 -0.1331  0.4868  0.0903
  840TIP3    H1 2484   1.791   3.159   4.360 -0.2915  0.2779  0.7712
  840TIP3    H2 2485   1.886   3.043   4.376  0.3788  0.5737 -0.8300
  841TIP3   OH2 2486   2.728   6.570   4.111 -0.9224  0.1915 -0.7306
  841TIP3    H1 2487   2.788   6.509   4.154 -0.4199  1.0157 -0.2277
  841TIP3    H2 2488   2.657   6.582   4.174 -0.9789  0.2019 -0.7950
  842TIP3   OH2 2489   2.033   3.107   5.529  0.2715  0.0488  0.5224
  842TIP3    H1 2490   2.096   3.036   5.520  0.1936 -0.0503  0.7605
  842TIP3    H2 2491   1.950   3.068   5.500  0.0811 -0.1793  1.3555
  843TIP3   OH2 2492   4.273   0.369   4.256  0.1275 -0.4398  0.0182
  843TIP3    H1 2493   4.289   0.289   4.306 -0.1145 -0.7578 -0.4038
  843TIP3    H2 2494   4.358   0.390   4.217 -0.2735 -1.7228 -1.6354
  844TIP3   OH2 2495   5.313   0.138   4.717  0.6157 -0.2530  0.3516
  844TIP3    H1 2496   5.356   0.060   4.683  0.7278 -0.3002  0.6061
  844TIP3    H2 2497   5.384   0.201   4.729  0.2209  1.0841 -3.0026
  845TIP3   OH2 2498   2.422   4.102   1.692 -0.0920 -0.0702 -0.3915
  845TIP3    H1 2499   2.408   4.049   1.614  0.9423  0.3157 -0.8611
  845TIP3    H2 2500   2.335   4.111   1.732 -0.6121 -0.3474 -1.4440
  846TIP3   OH2 2501   5.392   5.565   0.026  0.2846 -0.8667 -0.5536
  846TIP3    H1 2502   5.400   5.623  -0.050  1.7527 -1.5562 -0.9728
  846TIP3    H2 2503   5.466   5.589   0.082 -0.6523 -0.5231  0.5600
  847TIP3   OH2 2504   4.517   6.710   1.750 -0.2409 -0.1190  0.1019
  847TIP3    H1 2505   4.606   6.675   1.742  0.5685  1.7893  0.3239
  847TIP3    H2 2506   4.505   6.726   1.844 -0.5283  0.3609 -0.0141
  848TIP3   OH2 2507   1.043   3.735   2.730  0.0888 -0.9078  0.1899
  848TIP3    H1 2508   0.985   3.804   2.699  0.4845 -1.2626 -1.4628
  848TIP3    H2 2509   1.029   3.662   2.669  1.7366 -1.2547  0.1514
  849TIP3   OH2 2510   6.759   2.316   1.555 -0.0136  0.1043 -0.4929
  849TIP3    H1 2511   6.845   2.359   1.564 -0.7546  1.3987  0.8501
  849TIP3    H2 2512   6.713   2.338   1.636 -1.2623 -1.4260 -0.7411
  850TIP3   OH2 2513   2.305   4.301   0.070 -0.0401  0.4245 -0.2721
  850TIP3    H1 2514   2.285   4.356   0.145 -1.6236  0.5043 -0.7116
  850TIP3    H2 2515   2.255   4.339  -0.002 -0.3457 -0.9673 -0.8350
  851TIP3   OH2 2516   3.054   2.346   3.685  0.4580  0.1132  0.1971
  851TIP3    H1 2517   3.106   2.267   3.702  0.4748 -0.0251 -0.4663
  851TIP3    H2 2518   2.998   2.355   3.762 -0.3729 -1.2133 -0.2179
  852TIP3   OH2 2519   5.586   3.979   1.256  0.4481  0.1323 -0.2492
  852TIP3    H1 2520   5.536   3.903   1.285  0.9337 -0.9372 -2.0034
  852TIP3    H2 2521   5.534   4.055   1.282 -3.8210 -0.8536 -4.5115
  853TIP3   OH2 2522   4.916   5.902   0.958 -0.1599  0.5025  0.0633
  853TIP3    H1 2523   4.892   5.851   1.035 -0.3709  0.3931 -0.0722
  853TIP3    H2 2524   5.008   5.882   0.943  0.1234  1.1962  0.7960
  854TIP3   OH2 2525   0.944   5.110   0.032  0.1885 -0.2314  0.1624
  854TIP3    H1 2526   0.970   5.173  -0.035  0.7691 -1.3839 -0.7274
  854TIP3    H2 2527   0.849   5.105   0.025  0.2785 -0.6884 -0.9137
  855TIP3   OH2 2528   0.360   2.550   2.474  0.2397  0.6745  0.0392
  855TIP3    H1 2529   0.424   2.547   2.545  0.2570  1.4520  0.0667
  855TIP3    H2 2530   0.275   2.542   2.518  0.2975  0.0020  0.0354
  856TIP3   OH2 2531   1.146   2.843   3.167 -0.2706 -0.1147 -0.1858
  856TIP3    H1 2532   1.236   2.861   3.194 -0.1220  0.0561 -0.7826
  856TIP3    H2 2533   1.145   2.860   3.072 -1.2728  1.2801  0.0375
  857TIP3   OH2 2534   1.650   3.285   4.538 -0.1972 -0.7436  0.3060
  857TIP3    H1 2535   1.712   3.357   4.526 -2.1868  1.2473  1.1160
  857TIP3    H2 2536   1.700   3.217   4.584  1.8447 -0.0589 -0.7806
  858TIP3   OH2 2537   5.869   4.243   5.355  0.2563  0.0490  0.1816
  858TIP3    H1 2538   5.884   4.199   5.439  0.5246 -1.6284 -0.7020
  858TIP3    H2 2539   5.775   4.238   5.341  0.2110  0.3336  0.3883
  859TIP3   OH2 2540   5.751   0.914   4.032  0.3352 -0.2851  0.1564
  859TIP3    H1 2541   5.741   1.001   3.993 -1.1924 -0.6671 -0.3919
  859TIP3    H2 2542   5.743   0.929   4.126 -0.8981  0.0788  0.0109
  860TIP3   OH2 2543   0.966   4.304   4.547 -0.3911 -0.5851 -0.5619
  860TIP3    H1 2544   0.946   4.216   4.579 -0.5658 -0.4789 -0.3732
  860TIP3    H2 2545   0.977   4.293   4.453  0.2079 -0.9124 -0.4540
  861TIP3   OH2 2546   2.713   4.972   3.897  0.3933 -0.3890  0.1815
  861TIP3    H1 2547   2.702   4.920   3.817  2.1232  0.3599 -0.5842
  861TIP3    H2 2548   2.629   5.016   3.908 -0.3547 -1.5986 -0.3974
  862TIP3   OH2 2549   1.096   1.318   5.655  0.2880 -0.3841 -0.5708
  862TIP3    H1 2550   1.118   1.241   5.709  2.4398  0.7429  0.2569
  862TIP3    H2 2551   1.033   1.366   5.708 -0.8191 -1.3569 -0.9475
  863TIP3   OH2 2552   0.604   2.784   2.590  0.3491 -0.0560 -0.1698
  863TIP3    H1 2553   0.552   2.758   2.514 -0.0731 -1.0807  0.4491
  863TIP3    H2 2554   0.667   2.713   2.602 -0.2192 -0.3751  1.0090
  864TIP3   OH2 2555   0.229   3.788   0.565 -0.1096 -0.1892  0.3118
  864TIP3    H1 2556   0.133   3.791   0.565 -0.1207 -0.5016  0.2590
  864TIP3    H2 2557   0.254   3.811   0.475 -0.1946 -1.6768 -0.1148
  865TIP3   OH2 2558   2.201   2.380   5.729 -0.2029  0.0790 -0.1089
  865TIP3    H1 2559   2.145   2.333   5.666  0.9263 -0.0475 -1.0474
  865TIP3    H2 2560   2.290   2.364   5.699  0.3901 -0.0554  1.6072
  866TIP3   OH2 2561   5.567   0.302   3.600  0.1090  0.2474  0.5100
  866TIP3    H1 2562   5.535   0.382   3.642 -0.6523  0.4875 -0.4837
  866TIP3    H2 2563   5.506   0.287   3.528  0.1675 -1.2900  0.7305
  867TIP3   OH2 2564   6.646   5.434   5.754  0.5138  0.1997  0.6451
  867TIP3    H1 2565   6.560   5.397   5.774  0.0913  0.7549 -0.0618
  867TIP3    H2 2566   6.700   5.413   5.830 -0.0493 -0.7622  0.8005
  868TIP3   OH2 2567   5.147   6.463   3.222 -0.6844  0.2554  0.2260
  868TIP3    H1 2568   5.087   6.525   3.182  0.0611 -0.1929 -1.6975
  868TIP3    H2 2569   5.225   6.465   3.166 -0.7962 -2.7040 -0.1745
  869TIP3   OH2 2570   2.731   4.161   5.658  0.3693  0.4470 -0.0139
  869TIP3    H1 2571   2.680   4.187   5.582  0.1634  2.2368  0.6757
  869TIP3    H2 2572   2.702   4.220   5.728  1.0556 -0.6666  1.2698
  870TIP3   OH2 2573   0.042   6.753   5.792 -0.8022  0.9885 -0.5073
  870TIP3    H1 2574   0.134   6.780   5.784  0.1082 -1.4967  0.7316
  870TIP3    H2 2575   0.043   6.658   5.779 -2.6242  0.2996  3.2096
  871TIP3   OH2 2576   1.951   0.996   1.446 -0.5693 -0.2692 -0.8365
  871TIP3    H1 2577   1.910   1.028   1.366  0.4352 -1.1373 -1.7400
  871TIP3    H2 2578   2.045   1.001   1.428 -0.1586  2.2840  1.3991
  872TIP3   OH2 2579   1.319   4.981   5.757  0.6713 -0.3461  0.0953
  872TIP3    H1 2580   1.283   4.983   5.668 -0.3997 -1.1160  0.4739
  872TIP3    H2 2581   1.413   4.992   5.745  0.5634 -0.5477 -1.1451
  873TIP3   OH2 2582   0.464   5.416   0.073  0.0377 -0.1902  0.4312
  873TIP3    H1 2583   0.452   5.480   0.143  1.9033 -0.7793  1.3518
  873TIP3    H2 2584   0.546   5.442   0.031  0.5347 -1.6378  0.4706
  874TIP3   OH2 2585   3.628   3.157   1.624 -0.2079 -0.4565 -0.2689
  874TIP3    H1 2586   3.534   3.167   1.634  0.1368  3.9624  0.5899
  874TIP3    H2 2587   3.659   3.127   1.709 -0.7141 -0.0053  0.0797
  875TIP3   OH2 2588   2.510   0.611   5.284  0.1498  0.2614  0.1430
  875TIP3    H1 2589   2.525   0.696   5.327  0.9058  0.3911 -0.3553
  875TIP3    H2 2590   2.544   0.547   5.346  0.1739  0.3695  0.2417
  876TIP3   OH2 2591   4.486   6.538   3.875 -0.4360  0.2253  0.3706
  876TIP3    H1 2592   4.423   6.600   3.912  0.2976  1.9465 -1.1524
  876TIP3    H2 2593   4.526   6.584   3.802  0.6924 -1.7988 -0.3787
  877TIP3   OH2 2594   5.725   1.166   1.397  0.1047 -0.3846  0.5347
  877TIP3    H1 2595   5.698   1.123   1.478  1.1444  1.1600  1.7452
  877TIP3    H2 2596   5.739   1.257   1.421 -2.5400  0.8594 -2.0487
  878TIP3   OH2 2597   0.051   3.458   1.871 -0.1196 -0.2161 -0.0516
  878TIP3    H1 2598  -0.003   3.531   1.845  1.9699  1.2721 -0.4888
  878TIP3    H2 2599   0.047   3.458   1.967  0.4528  0.9828 -0.0103
  879TIP3   OH2 2600   6.122   6.319   0.060 -0.4256 -0.7672 -0.5232
  879TIP3    H1 2601   6.130   6.398   0.113  1.0393 -1.2927  0.0831
  879TIP3    H2 2602   6.028   6.299   0.061 -0.5218 -0.4149  1.4007
  880TIP3   OH2 2603   5.572   1.530   2.883  0.5036 -0.2551 -0.2906
  880TIP3    H1 2604   5.600   1.620   2.897  1.0079 -0.3376 -0.7222
  880TIP3    H2 2605   5.584   1.488   2.969  2.3558 -0.4387 -0.5898
  881TIP3   OH2 2606   2.597   5.616   5.035  0.7267  0.0005  0.1096
  881TIP3    H1 2607   2.602   5.553   4.963  0.2829 -0.6513  0.6347
  881TIP3    H2 2608   2.649   5.576   5.105  0.8925  0.4805  0.2645
  882TIP3   OH2 2609   5.813   6.230   1.880 -0.1327  0.7542 -0.5997
  882TIP3    H1 2610   5.725   6.236   1.841 -0.9504 -0.2393  1.0073
  882TIP3    H2 2611   5.872   6.238   1.805 -1.5968  0.6947 -1.8200
  883TIP3   OH2 2612   6.763   0.076   0.709  0.3473 -0.0418 -0.1833
  883TIP3    H1 2613   6.824   0.011   0.673  0.9151  0.0708  0.5387
  883TIP3    H2 2614   6.813   0.118   0.779 -0.4305  0.3497  0.1416
  884TIP3   OH2 2615   1.227   2.143   3.186 -0.0110  0.3127  0.2800
  884TIP3    H1 2616   1.133   2.159   3.185 -0.5262 -1.9892  2.2259
  884TIP3    H2 2617   1.245   2.097   3.104 -1.2621 -2.0321  1.2259
  885TIP3   OH2 2618   0.688   6.210   3.517  0.1393 -0.0208 -0.2766
  885TIP3    H1 2619   0.607   6.223   3.468  0.6667 -0.8132 -1.4014
  885TIP3    H2 2620   0.672   6.130   3.568  0.5722 -0.7892 -1.3168
  886TIP3   OH2 2621   4.542   2.756   0.785 -0.2900 -0.2571 -0.4723
  886TIP3    H1 2622   4.614   2.817   0.804  0.2095 -0.9996  0.1087
  886TIP3    H2 2623   4.477   2.774   0.853 -1.3401  1.4124 -1.8430
  887TIP3   OH2 2624   3.201   0.359   5.135 -0.8097  0.4868 -0.3480
  887TIP3    H1 2625   3.119   0.336   5.178  0.6428 -1.4438  1.6037
  887TIP3    H2 2626   3.249   0.276   5.127  0.5392  1.3665 -2.4328
  888TIP3   OH2 2627   6.203   0.655   3.459 -0.3608 -0.2738 -0.4567
  888TIP3    H1 2628   6.186   0.696   3.544 -1.7468  1.0172 -1.2968
  888TIP3    H2 2629   6.244   0.571   3.481 -3.2784 -1.3415  1.6697
  889TIP3   OH2 2630   1.372   0.279   2.138 -0.0659 -0.3082  0.3234
  889TIP3    H1 2631   1.300   0.314   2.191 -2.3975 -0.4455 -2.5286
  889TIP3    H2 2632   1.420   0.357   2.110 -0.3386 -0.0505  0.5648
  890TIP3   OH2 2633   0.376   4.146   0.968  0.2490  0.0882  0.0072
  890TIP3    H1 2634   0.375   4.059   1.007  0.5307  0.0138 -0.1477
  890TIP3    H2 2635   0.437   4.196   1.022  1.3402 -0.2679 -0.8660
  891TIP3   OH2 2636   4.517   1.343   5.016  0.3158 -0.3912  0.1947
  891TIP3    H1 2637   4.566   1.416   4.979 -0.3528  0.0170  0.1012
  891TIP3    H2 2638   4.425   1.371   5.013 -0.2208 -2.1104 -1.9317
  892TIP3   OH2 2639   2.738   2.498   1.924 -0.1486  0.4751 -0.5658
  892TIP3    H1 2640   2.795   2.564   1.885 -0.2467  0.5518 -0.5789
  892TIP3    H2 2641   2.653   2.540   1.930  0.3198  1.2500  1.7172
  893TIP3   OH2 2642   4.698   0.872   2.557 -0.5099  0.2153 -0.1556
  893TIP3    H1 2643   4.762   0.926   2.511 -1.5581  0.1376 -1.8034
  893TIP3    H2 2644   4.624   0.865   2.496 -0.7827 -2.3686  0.3577
  894TIP3   OH2 2645   2.061   2.096   0.958 -0.7552  0.0530  0.4856
  894TIP3    H1 2646   1.999   2.028   0.935 -0.8465  0.1419  0.4696
  894TIP3    H2 2647   2.023   2.177   0.925  0.0544 -0.0714 -0.8162
  895TIP3   OH2 2648   1.479   2.296   2.767 -0.0394  0.2574 -0.6192
  895TIP3    H1 2649   1.392   2.256   2.773  0.5798 -0.9703  1.9293
  895TIP3    H2 2650   1.539   2.221   2.764  0.9794  1.0829 -1.3618
  896TIP3   OH2 2651   2.872   0.722   3.044 -0.1790  0.4064 -0.2032
  896TIP3    H1 2652   2.803   0.776   3.083  0.4656  1.6437 -0.7433
  896TIP3    H2 2653   2.954   0.759   3.078  0.2433 -1.6369  1.2003
  897TIP3   OH2 2654   0.909   6.477   2.207 -0.1955 -0.7497 -0.2104
  897TIP3    H1 2655   1.004   6.489   2.205 -0.2859 -0.0152 -0.1519
  897TIP3    H2 2656   0.895   6.414   2.278  0.0804  0.9393  1.4261
  898TIP3   OH2 2657   1.521   3.065   0.224 -0.3496 -0.3902 -0.2403
  898TIP3    H1 2658   1.594   3.053   0.164 -1.2207 -0.8091 -1.2394
  898TIP3    H2 2659   1.558   3.047   0.310  0.4114 -1.9526 -0.8575
  899TIP3   OH2 2660   6.422   4.713   1.805  0.0628  0.0961  0.0416
  899TIP3    H1 2661   6.342   4.743   1.761 -1.0566 -0.8905  1.3274
  899TIP3    H2 2662   6.451   4.789   1.856  0.9673  1.0156 -1.7135
  900TIP3   OH2 2663   5.764   3.220   0.364  0.5102 -0.0630 -0.2246
  900TIP3    H1 2664   5.702   3.292   0.353  1.5803  0.6970 -1.6321
  900TIP3    H2 2665   5.710   3.146   0.391 -0.7371  1.0381  0.4073
  901TIP3   OH2 2666   1.429   2.012   2.984  0.5880  0.0732 -0.2170
  901TIP3    H1 2667   1.377   2.090   2.962 -1.8742 -1.1833  0.7943
  901TIP3    H2 2668   1.377   1.939   2.951  1.2430 -1.3078  1.6699
  902TIP3   OH2 2669   6.879   4.142   4.595  0.5307  0.3620 -0.6642
  902TIP3    H1 2670   6.789   4.171   4.605  0.8787  0.8086  1.4778
  902TIP3    H2 2671   6.925   4.179   4.670  1.5143 -3.7565  1.0350
  903TIP3   OH2 2672   0.882   0.571   3.412  0.8648  0.4278 -0.0833
  903TIP3    H1 2673   0.900   0.661   3.439 -0.4683  0.0801  2.2130
  903TIP3    H2 2674   0.947   0.518   3.457 -0.8325 -0.0795  1.9280
  904TIP3   OH2 2675   4.252   6.740   4.177 -0.0171 -0.0754 -0.1240
  904TIP3    H1 2676   4.159   6.753   4.195 -0.1000 -1.2553  0.3634
  904TIP3    H2 2677   4.278   6.665   4.232  0.6635 -1.2300 -1.9210
  905TIP3   OH2 2678   7.153   3.439   2.153 -0.5743 -0.2053  0.1045
  905TIP3    H1 2679   7.074   3.488   2.178  1.2835  2.1852  1.7486
  905TIP3    H2 2680   7.212   3.449   2.227  1.5804 -1.3059 -1.3519
  906TIP3   OH2 2681   1.850   1.303   1.546  0.5559 -0.1900 -0.4177
  906TIP3    H1 2682   1.849   1.296   1.641  0.9001 -3.0049 -0.5195
  906TIP3    H2 2683   1.939   1.278   1.521 -0.2728 -2.3986 -1.5126
  907TIP3   OH2 2684   4.173   0.743   3.940 -0.1369  0.0872 -0.2240
  907TIP3    H1 2685   4.177   0.767   3.848 -2.2621 -0.4982 -0.5280
  907TIP3    H2 2686   4.173   0.827   3.987 -1.5134  0.5223 -0.9320
  908TIP3   OH2 2687   6.730   4.903   4.312  0.0078  0.0704  0.2042
  908TIP3    H1 2688   6.743   4.835   4.246 -2.0743 -0.3104  0.1077
  908TIP3    H2 2689   6.709   4.855   4.392  0.9525  0.5711  0.7719
  909TIP3   OH2 2690   7.088   1.971   4.917  0.4254 -0.2329  0.1672
  909TIP3    H1 2691   7.017   1.944   4.975  0.9763 -0.7560  0.6023
  909TIP3    H2 2692   7.046   1.980   4.831 -0.0980 -0.8707  0.3491
  910TIP3   OH2 2693   3.979   2.420   4.193 -0.0575  0.0873 -0.5466
  910TIP3    H1 2694   3.893   2.381   4.175  0.2674 -1.0442  0.2937
  910TIP3    H2 2695   3.961   2.487   4.259 -0.3241 -0.0054 -0.5237
  911TIP3   OH2 2696   2.660   0.207   1.140 -0.1672 -0.1796 -0.2208
  911TIP3    H1 2697   2.706   0.185   1.221 -1.2681  0.6746  0.6600
  911TIP3    H2 2698   2.693   0.293   1.116 -0.8696  0.1940  0.1138
  912TIP3   OH2 2699   4.375   0.719   5.181 -0.4174 -0.0466  0.3284
  912TIP3    H1 2700   4.431   0.647   5.208  0.0479 -0.4317 -1.5277
  912TIP3    H2 2701   4.423   0.762   5.109 -1.7018  0.6923 -0.1270
  913TIP3   OH2 2702   4.280   5.658   0.062 -0.3832  0.0232  0.3011
  913TIP3    H1 2703   4.268   5.613   0.146 -0.4389  1.2362  0.9654
  913TIP3    H2 2704   4.374   5.676   0.057 -0.2157 -0.9289 -0.3923
  914TIP3   OH2 2705   3.847   2.891   3.682  0.3748 -1.1736  0.5573
  914TIP3    H1 2706   3.819   2.876   3.592 -0.0331 -0.5677  0.5761
  914TIP3    H2 2707   3.768   2.917   3.728  0.3969 -2.4048  1.3213
  915TIP3   OH2 2708   7.110   4.960   2.598  0.4732  0.1199 -0.5934
  915TIP3    H1 2709   7.128   4.869   2.573 -1.2351 -0.8495  1.3894
  915TIP3    H2 2710   7.168   4.976   2.673 -2.3065 -1.0162  2.0132
  916TIP3   OH2 2711   7.060   2.675   0.364 -0.6257  0.0311  0.4662
  916TIP3    H1 2712   7.079   2.630   0.281 -1.7828  0.2455  0.0634
  916TIP3    H2 2713   7.113   2.754   0.361  0.9179 -0.9392  0.8791
  917TIP3   OH2 2714   4.875   0.873   5.014 -0.1369  0.1910  0.1228
  917TIP3    H1 2715   4.822   0.867   4.935 -0.5095 -2.5619  0.5036
  917TIP3    H2 2716   4.811   0.886   5.085 -0.0845 -0.3680  0.2787
  918TIP3   OH2 2717   1.041   0.766   1.398  0.2877  0.6464 -0.0035
  918TIP3    H1 2718   1.024   0.693   1.339  0.0997 -0.1171  0.9730
  918TIP3    H2 2719   0.993   0.840   1.360 -0.7380 -0.1148 -0.2055
  919TIP3   OH2 2720   3.542   6.233   4.206 -0.4562  0.6930 -0.2441
  919TIP3    H1 2721   3.534   6.299   4.275  1.7107  1.4049 -0.5682
  919TIP3    H2 2722   3.499   6.273   4.130  0.3801  1.5616 -0.2884
  920TIP3   OH2 2723   4.438   2.519   0.010 -0.1791 -0.3259 -0.1124
  920TIP3    H1 2724   4.407   2.431  -0.008 -0.8566 -0.1700  0.2863
  920TIP3    H2 2725   4.387   2.549   0.085  0.0012  0.4254 -0.2746
  921TIP3   OH2 2726   6.714   0.259   5.438 -0.0204  0.4842  0.4782
  921TIP3    H1 2727   6.627   0.259   5.478  0.0719  1.2071  0.7029
  921TIP3    H2 2728   6.721   0.345   5.396  0.4686  0.3155  0.2023
  922TIP3   OH2 2729   6.614   3.272   1.201 -0.0271  0.4673 -0.6576
  922TIP3    H1 2730   6.561   3.309   1.130 -0.7696  1.7630  0.5130
  922TIP3    H2 2731   6.568   3.192   1.226 -0.2461  0.4635 -1.0581
  923TIP3   OH2 2732   1.791   0.350   1.624 -0.0320  0.8411  0.6562
  923TIP3    H1 2733   1.724   0.364   1.557  1.7641  1.4944 -1.1233
  923TIP3    H2 2734   1.795   0.433   1.672  0.5004  1.3384 -0.2246
  924TIP3   OH2 2735   4.086   1.899   5.432  0.1024 -0.0321  0.0357
  924TIP3    H1 2736   4.086   1.903   5.337  1.2104  1.1072  0.0545
  924TIP3    H2 2737   3.994   1.911   5.457 -0.4396 -1.9652 -0.9079
  925TIP3   OH2 2738   6.307   5.906   2.851 -0.0974 -0.0219 -0.5342
  925TIP3    H1 2739   6.268   5.993   2.859 -0.5458 -0.2239 -0.4976
  925TIP3    H2 2740   6.333   5.883   2.940 -3.8423 -1.6914  0.3182
  926TIP3   OH2 2741   3.344   1.187   1.593 -0.0931  0.4407  0.1068
  926TIP3    H1 2742   3.366   1.227   1.676  0.2103  1.3194 -0.3830
  926TIP3    H2 2743   3.311   1.100   1.616  0.3259  0.5336  1.1085
  927TIP3   OH2 2744   2.798   5.159   4.308  0.3420 -0.2427  0.6091
  927TIP3    H1 2745   2.759   5.244   4.329 -0.6102 -0.5798  0.2947
  927TIP3    H2 2746   2.725   5.108   4.273  1.0062 -1.0321  0.3421
  928TIP3   OH2 2747   0.725   0.295   3.576  1.0249 -0.6081  0.2798
  928TIP3    H1 2748   0.812   0.333   3.579  0.4013  1.4878 -2.7469
  928TIP3    H2 2749   0.665   0.370   3.583 -0.5535 -1.9205  1.7593
  929TIP3   OH2 2750   2.758   1.007   0.662  0.2987 -0.3538 -0.5089
  929TIP3    H1 2751   2.811   1.065   0.717  1.1920  0.2156 -1.9206
  929TIP3    H2 2752   2.811   0.995   0.583 -0.7892 -1.4494 -1.0913
  930TIP3   OH2 2753   3.654   6.238   4.501 -0.1290 -0.8419  0.4890
  930TIP3    H1 2754   3.645   6.328   4.532  1.4302  0.0789 -1.5070
  930TIP3    H2 2755   3.652   6.185   4.581 -2.2070  0.8093  1.6315
  931TIP3   OH2 2756   3.209   3.730   4.871  0.0696  0.0708  0.1189
  931TIP3    H1 2757   3.164   3.669   4.930 -0.3057 -0.7661 -0.9851
  931TIP3    H2 2758   3.166   3.717   4.787  1.2893  0.4574 -0.5913
  932TIP3   OH2 2759   6.804   4.057   1.434 -0.3869 -0.0496 -0.4197
  932TIP3    H1 2760   6.856   4.012   1.368  1.1908  0.3117  0.5396
  932TIP3    H2 2761   6.713   4.043   1.406  0.1836 -1.0601 -1.8921
  933TIP3   OH2 2762   3.353   1.692   0.411 -0.0801  0.1257  0.4092
  933TIP3    H1 2763   3.384   1.749   0.340 -1.7022  1.0307  0.3820
  933TIP3    H2 2764   3.333   1.609   0.369 -0.7923  0.5767 -0.1540
  934TIP3   OH2 2765   4.578   2.146   2.279 -0.1134  0.2440 -0.2671
  934TIP3    H1 2766   4.541   2.231   2.302  3.0034  1.2671  1.5463
  934TIP3    H2 2767   4.589   2.149   2.184 -1.4376  1.2103 -0.4075
  935TIP3   OH2 2768   1.725   4.030   2.614 -0.4788  0.2576  0.1726
  935TIP3    H1 2769   1.704   3.966   2.547  0.4145  0.8471 -0.6920
  935TIP3    H2 2770   1.712   4.115   2.572  0.7501  0.6408  0.5043
  936TIP3   OH2 2771   5.301   1.215   1.315  0.1576 -0.4695  0.0948
  936TIP3    H1 2772   5.372   1.279   1.316 -1.5507  1.6284 -1.5371
  936TIP3    H2 2773   5.234   1.254   1.371 -0.0644 -1.9746  0.9099
  937TIP3   OH2 2774   3.340   1.551   5.091 -0.4176  0.1429  0.0996
  937TIP3    H1 2775   3.380   1.616   5.034 -1.0690 -0.1983 -0.7521
  937TIP3    H2 2776   3.365   1.467   5.053 -2.5347 -0.0836 -0.8935
  938TIP3   OH2 2777   1.592   4.598   0.802  0.1500  0.4555  0.4575
  938TIP3    H1 2778   1.525   4.531   0.810 -0.4117  1.2057  2.6345
  938TIP3    H2 2779   1.584   4.651   0.881  3.2938  0.6061  0.8267
  939TIP3   OH2 2780   1.935   0.109   4.365 -0.3244 -0.4845  0.0775
  939TIP3    H1 2781   2.020   0.064   4.362 -0.1093 -0.1281  0.6272
  939TIP3    H2 2782   1.896   0.092   4.279  0.2101 -0.8304 -0.1057
  940TIP3   OH2 2783   1.340   2.769   5.824  0.3071 -0.2735 -0.1764
  940TIP3    H1 2784   1.326   2.680   5.794  0.1693 -0.4374  0.3738
  940TIP3    H2 2785   1.416   2.764   5.882  1.5663  0.3054 -1.7092
  941TIP3   OH2 2786   3.469   1.782   3.979  0.1177 -0.7742  0.1134
  941TIP3    H1 2787   3.411   1.731   4.037 -0.6444  1.3068  1.2772
  941TIP3    H2 2788   3.478   1.867   4.022 -0.8431  1.0842 -3.0028
  942TIP3   OH2 2789   2.119   6.101   0.466  0.2734  0.4433 -0.3528
  942TIP3    H1 2790   2.098   6.008   0.481  0.6558  0.1957 -1.2693
  942TIP3    H2 2791   2.192   6.118   0.526 -0.6989  0.5562  0.8407
  943TIP3   OH2 2792   4.028   3.990   3.615 -0.1197 -0.0709  0.2524
  943TIP3    H1 2793   4.107   3.963   3.569 -0.6027  1.0276 -1.2992
  943TIP3    H2 2794   3.985   4.052   3.556 -1.5996  0.1814  1.5117
  944TIP3   OH2 2795   2.713   5.876   1.323 -0.0125  0.2679 -0.0049
  944TIP3    H1 2796   2.656   5.937   1.276  0.4342  0.3560 -0.4439
  944TIP3    H2 2797   2.687   5.790   1.291 -0.3892  0.2463  0.3394
  945TIP3   OH2 2798   2.566   6.345   1.183  0.2129  0.1413  0.5232
  945TIP3    H1 2799   2.500   6.331   1.115  0.1758  1.9926  0.1255
  945TIP3    H2 2800   2.518   6.386   1.254  0.4725 -0.8060  1.2696
  946TIP3   OH2 2801   3.605   2.725   2.277 -0.2114 -0.2090 -0.0507
  946TIP3    H1 2802   3.623   2.707   2.184  0.3219 -0.3623  0.0784
  946TIP3    H2 2803   3.663   2.797   2.299 -0.2201 -0.2818  0.2115
  947TIP3   OH2 2804   5.612   3.683   1.564  0.1307  0.0341  0.1503
  947TIP3    H1 2805   5.669   3.614   1.531 -0.5181  0.3160 -1.7048
  947TIP3    H2 2806   5.661   3.764   1.547  0.2996  0.1285  1.0416
  948TIP3   OH2 2807   0.015   1.326   1.766  0.5864  0.2758 -0.4963
  948TIP3    H1 2808  -0.035   1.330   1.848 -0.2071 -0.1863 -0.9488
  948TIP3    H2 2809   0.106   1.317   1.795  0.3002 -0.1055  0.3427
  949TIP3   OH2 2810   5.914   5.367   3.024 -0.1748 -0.3100  0.7339
  949TIP3    H1 2811   5.954   5.311   3.091  1.2235 -0.3139 -0.0648
  949TIP3    H2 2812   5.871   5.306   2.964 -1.9046 -0.2793  1.8733
  950TIP3   OH2 2813   2.650   6.115   3.560 -0.3279  0.1737 -0.5160
  950TIP3    H1 2814   2.652   6.209   3.578 -3.2325  0.5106 -1.4698
  950TIP3    H2 2815   2.721   6.101   3.497  1.4750  1.2771  1.1604
  951TIP3   OH2 2816   4.538   6.789   1.024  0.2414  0.0245 -0.1090
  951TIP3    H1 2817   4.462   6.844   1.007 -2.2352 -2.4704  1.9782
  951TIP3    H2 2818   4.501   6.704   1.047  3.5261 -0.7200  3.4195
  952TIP3   OH2 2819   5.333   1.349   0.115 -0.1530 -0.1199 -0.3413
  952TIP3    H1 2820   5.296   1.261   0.106 -0.8749  0.3326 -2.1957
  952TIP3    H2 2821   5.365   1.371   0.027  0.1876  1.4001  0.1339
  953TIP3   OH2 2822   0.852   3.100   0.986 -0.3273  0.2626  0.2769
  953TIP3    H1 2823   0.769   3.081   0.943 -1.0102 -1.1105  2.0786
  953TIP3    H2 2824   0.891   3.014   1.003  0.6897  0.8258  0.9039
  954TIP3   OH2 2825   3.708   1.092   3.492  0.2172 -0.0709  0.2101
  954TIP3    H1 2826   3.792   1.107   3.535  0.5605 -1.4745  0.0750
  954TIP3    H2 2827   3.713   1.144   3.412  1.2685 -0.7254 -0.1686
  955TIP3   OH2 2828   5.871   5.024   1.829 -0.0512 -0.1414  0.4902
  955TIP3    H1 2829   5.951   5.075   1.815  0.2216 -0.0101  2.2727
  955TIP3    H2 2830   5.812   5.053   1.759  1.6356 -0.7279 -1.2907
  956TIP3   OH2 2831   6.630   1.376   4.677 -0.0189  0.1312 -0.3138
  956TIP3    H1 2832   6.686   1.306   4.711 -0.6646 -0.4769 -0.4728
  956TIP3    H2 2833   6.601   1.424   4.755 -0.1240 -0.2054 -0.1445
  957TIP3   OH2 2834   0.509   4.473   4.148 -0.2246 -0.2836 -0.0744
  957TIP3    H1 2835   0.500   4.442   4.238 -0.6085 -1.5692 -0.5335
  957TIP3    H2 2836   0.532   4.395   4.098 -0.3445  0.3443 -1.1430
  958TIP3   OH2 2837   3.970   4.385   2.136  0.0770 -0.3332 -0.4616
  958TIP3    H1 2838   4.054   4.420   2.163 -0.0488 -0.3119 -0.0913
  958TIP3    H2 2839   3.975   4.292   2.155  0.9588 -0.8173 -2.8125
  959TIP3   OH2 2840   6.681   5.256   1.711  0.1254 -0.1419  0.2082
  959TIP3    H1 2841   6.604   5.311   1.694 -0.0020 -0.7482 -1.3511
  959TIP3    H2 2842   6.676   5.238   1.805 -1.4344  0.1475  0.2241
  960TIP3   OH2 2843   3.963   6.765   4.238 -0.0764 -0.4857 -0.0579
  960TIP3    H1 2844   3.920   6.839   4.197 -0.8997 -1.1909 -0.5140
  960TIP3    H2 2845   3.898   6.694   4.233  0.6481 -1.2041  0.4536
  961TIP3   OH2 2846   6.801   2.642   4.733 -0.1813  0.0009  0.3870
  961TIP3    H1 2847   6.867   2.694   4.778  0.3753 -0.4866  0.1421
  961TIP3    H2 2848   6.718   2.669   4.773  0.1731  0.5451  0.7608
  962TIP3   OH2 2849   0.765   2.220   5.872  0.0480 -0.3465 -0.3735
  962TIP3    H1 2850   0.704   2.151   5.846  0.3166 -0.6986 -0.0711
  962TIP3    H2 2851   0.735   2.298   5.824 -0.4994 -0.5724 -0.4012
  963TIP3   OH2 2852   6.768   1.836   1.565 -0.1605  0.3164  0.5876
  963TIP3    H1 2853   6.822   1.783   1.507 -0.8491  0.6603 -0.3795
  963TIP3    H2 2854   6.827   1.904   1.597  0.1644  0.2515  0.1273
  964TIP3   OH2 2855   0.246   6.718   3.707 -0.5588  0.2761 -0.6181
  964TIP3    H1 2856   0.252   6.679   3.794 -2.5562  1.6419  0.1930
  964TIP3    H2 2857   0.215   6.648   3.650  0.4288 -0.5300 -0.1953
  965TIP3   OH2 2858   4.291   0.449   2.986  0.4084  0.1227  0.1227
  965TIP3    H1 2859   4.223   0.446   3.053 -0.6167  0.2328 -0.8683
  965TIP3    H2 2860   4.348   0.521   3.012 -0.0457  0.2417  0.8080
  966TIP3   OH2 2861   1.305   1.613   4.089 -0.0036 -0.5194 -0.4765
  966TIP3    H1 2862   1.253   1.684   4.127  1.3507  0.0652  0.3375
  966TIP3    H2 2863   1.280   1.535   4.139 -0.4638 -0.3426 -0.4286
  967TIP3   OH2 2864   5.524   4.044   4.563  0.4578  0.7952 -0.2531
  967TIP3    H1 2865   5.565   4.080   4.484 -0.1386  1.8057 -0.1332
  967TIP3    H2 2866   5.430   4.055   4.547  0.3321  0.8754  0.5299
  968TIP3   OH2 2867   2.514   1.186   3.720  0.2931 -0.7623 -0.0899
  968TIP3    H1 2868   2.593   1.217   3.763 -0.2218  0.5758 -0.0619
  968TIP3    H2 2869   2.472   1.129   3.785  0.1447  0.2600  0.7440
  969TIP3   OH2 2870   4.389   3.945   4.596  0.0244 -0.3862 -0.2080
  969TIP3    H1 2871   4.399   4.038   4.574  0.4000  0.0007  1.4767
  969TIP3    H2 2872   4.302   3.940   4.636 -0.1277 -0.8349 -0.5868
  970TIP3   OH2 2873   3.427   3.538   3.092 -0.6984  0.0571 -0.3798
  970TIP3    H1 2874   3.361   3.508   3.029 -0.3603 -2.7413  0.4387
  970TIP3    H2 2875   3.401   3.497   3.175  0.3177  1.5009  0.6905
  971TIP3   OH2 2876   0.082   1.879   2.846 -0.0500 -0.1922  0.2771
  971TIP3    H1 2877   0.130   1.894   2.928  1.2951  1.0063 -0.6526
  971TIP3    H2 2878   0.117   1.797   2.812 -0.4014 -0.5432  0.7587
  972TIP3   OH2 2879   3.946   4.974   5.149 -0.4330  0.3276  0.2888
  972TIP3    H1 2880   4.025   4.969   5.094 -0.0588 -1.8523  0.9098
  972TIP3    H2 2881   3.917   4.883   5.157 -2.4891  0.9835  0.8605
  973TIP3   OH2 2882   5.018   2.498   4.693  0.0742 -0.2554  0.1244
  973TIP3    H1 2883   5.062   2.533   4.616 -0.0227 -0.3344  0.0327
  973TIP3    H2 2884   5.078   2.433   4.729  0.0580 -0.3195  0.0347
  974TIP3   OH2 2885   1.390   0.839   4.355  0.2437 -0.0163  0.0896
  974TIP3    H1 2886   1.316   0.816   4.298  1.6796 -1.9770 -1.1079
  974TIP3    H2 2887   1.453   0.882   4.296 -0.2726  2.6268  1.3042
  975TIP3   OH2 2888   1.312   5.398   3.419 -0.2551  0.4835 -0.5444
  975TIP3    H1 2889   1.262   5.477   3.442  0.5493  1.1301 -0.9500
  975TIP3    H2 2890   1.246   5.332   3.400 -0.9466  0.8643  0.4418
  976TIP3   OH2 2891   0.845   0.576   4.763 -1.0211  0.8060 -0.3351
  976TIP3    H1 2892   0.877   0.645   4.822 -1.3316  0.9625 -0.3488
  976TIP3    H2 2893   0.814   0.623   4.686 -0.4376  0.5882 -0.7089
  977TIP3   OH2 2894   0.428   6.217   5.432  0.1003  0.1528  0.4202
  977TIP3    H1 2895   0.523   6.223   5.421  0.0468  0.5863  0.1234
  977TIP3    H2 2896   0.415   6.155   5.504  0.5548 -1.0730 -0.5271
  978TIP3   OH2 2897   6.011   2.919   0.098 -0.1931 -0.2160  0.0151
  978TIP3    H1 2898   5.930   2.970   0.104 -0.5648 -0.9003  1.3268
  978TIP3    H2 2899   6.069   2.959   0.162  0.5864  0.3479 -1.0087
  979TIP3   OH2 2900   2.836   5.353   1.529  0.3318  0.4439  0.4288
  979TIP3    H1 2901   2.873   5.437   1.505  0.1104  0.7691  1.1826
  979TIP3    H2 2902   2.910   5.292   1.524  0.2105  0.4085 -1.3869
  980TIP3   OH2 2903   5.392   1.884   5.695 -0.7578 -0.1176 -0.2394
  980TIP3    H1 2904   5.431   1.874   5.609  1.5835  2.7178  0.3204
  980TIP3    H2 2905   5.342   1.966   5.689  0.0341  0.5249  1.2079
  981TIP3   OH2 2906   1.298   0.630   2.547 -0.0279 -0.1016 -0.1500
  981TIP3    H1 2907   1.295   0.624   2.643 -0.8952  0.8647 -0.1101
  981TIP3    H2 2908   1.254   0.550   2.517  0.9169 -0.7867  0.2314
  982TIP3   OH2 2909   3.780   5.794   4.651 -0.3900 -0.1610  0.3814
  982TIP3    H1 2910   3.773   5.712   4.604 -1.0739 -0.1847  0.5128
  982TIP3    H2 2911   3.837   5.775   4.725  0.2015 -0.2754 -0.0969
  983TIP3   OH2 2912   2.592   4.167   3.207  0.5869  0.2734  0.4071
  983TIP3    H1 2913   2.651   4.092   3.193  0.3275  0.5364 -3.1523
  983TIP3    H2 2914   2.531   4.137   3.274  1.4426 -2.1192  0.2500
  984TIP3   OH2 2915   7.190   5.260   5.184  0.3073 -0.1646  0.0789
  984TIP3    H1 2916   7.209   5.286   5.094  1.0011  0.4261  0.3866
  984TIP3    H2 2917   7.171   5.167   5.179  1.2162 -0.3284 -0.5622
  985TIP3   OH2 2918   6.508   5.403   3.909 -0.3226 -0.2596  0.5140
  985TIP3    H1 2919   6.472   5.489   3.932 -0.7346 -0.0194 -0.9269
  985TIP3    H2 2920   6.565   5.380   3.983 -2.1675  0.0764  2.1221
  986TIP3   OH2 2921   5.755   6.749   1.980 -0.0477 -0.0983 -0.1590
  986TIP3    H1 2922   5.823   6.760   1.914  0.9652 -1.9437  0.5345
  986TIP3    H2 2923   5.695   6.684   1.943 -1.2182  1.1480 -0.5512
  987TIP3   OH2 2924   1.642   4.153   5.527 -0.2279 -0.0416  0.0269
  987TIP3    H1 2925   1.633   4.193   5.614 -0.8918 -0.0198 -0.0488
  987TIP3    H2 2926   1.602   4.067   5.536  0.5255 -0.3970 -0.0146
  988TIP3   OH2 2927   5.679   2.962   0.457  0.2335 -0.7648  0.1375
  988TIP3    H1 2928   5.588   2.936   0.443  0.0940 -1.2775  1.8462
  988TIP3    H2 2929   5.730   2.896   0.410 -0.2139  0.8156 -2.8979
  989TIP3   OH2 2930   6.947   0.312   2.528 -0.3334 -0.2450 -0.1297
  989TIP3    H1 2931   6.861   0.347   2.548  0.2418  0.6431  0.8814
  989TIP3    H2 2932   7.005   0.388   2.532  0.7030 -1.0438  0.5434
  990TIP3   OH2 2933   1.197   3.944   4.906  0.5183 -0.3020 -0.4988
  990TIP3    H1 2934   1.177   4.028   4.947 -1.2811  0.0370 -1.9484
  990TIP3    H2 2935   1.287   3.924   4.935  0.1503  0.9420  1.7475
  991TIP3   OH2 2936   4.367   6.380   2.497 -0.0110 -0.4709  0.2397
  991TIP3    H1 2937   4.421   6.303   2.514 -0.0114 -0.3114  0.9952
  991TIP3    H2 2938   4.281   6.357   2.532 -0.4350 -0.7097 -0.9247
  992TIP3   OH2 2939   5.038   4.153   3.490  0.1399  0.0301  0.1592
  992TIP3    H1 2940   4.970   4.088   3.508 -1.4302  1.8812  1.3131
  992TIP3    H2 2941   5.037   4.212   3.566  1.2613  1.5931 -0.9572
  993TIP3   OH2 2942   3.183   5.483   2.015  0.2793  0.0065  0.1674
  993TIP3    H1 2943   3.175   5.415   1.948 -0.3150  0.7213 -0.5103
  993TIP3    H2 2944   3.093   5.514   2.029  0.0804 -1.4782  2.7600
  994TIP3   OH2 2945   3.988   3.271   4.888 -0.5843  0.0551  0.3499
  994TIP3    H1 2946   3.956   3.244   4.974 -0.1545 -0.0280  0.4832
  994TIP3    H2 2947   3.909   3.276   4.834 -0.7112 -1.1893  0.3950
  995TIP3   OH2 2948   5.968   0.470   2.597 -0.4506 -0.6525  0.2836
  995TIP3    H1 2949   5.953   0.392   2.543 -0.0132  1.2977 -2.9230
  995TIP3    H2 2950   5.884   0.517   2.595 -0.2583 -0.2678  0.8633
  996TIP3   OH2 2951   3.550   6.716   3.979 -0.1917 -0.1172  0.3384
  996TIP3    H1 2952   3.488   6.751   3.915 -0.6213 -0.5202  0.5250
  996TIP3    H2 2953   3.600   6.650   3.930 -0.3185 -0.2138  0.3371
  997TIP3   OH2 2954   4.848   0.346   2.928 -0.0346 -0.3505 -0.1164
  997TIP3    H1 2955   4.803   0.384   2.853 -0.3912  0.1679  0.3498
  997TIP3    H2 2956   4.795   0.372   3.003  1.1816  0.5182  0.4877
  998TIP3   OH2 2957   5.220   0.248   1.403  0.4457 -0.3065  0.1679
  998TIP3    H1 2958   5.250   0.338   1.413 -1.3389  0.5832 -1.7960
  998TIP3    H2 2959   5.126   0.251   1.421  0.2653 -1.6753 -0.3912
  999TIP3   OH2 2960   4.440   4.853   1.272 -0.1746 -0.1740  0.3337
  999TIP3    H1 2961   4.371   4.787   1.276  0.7199 -1.3396 -1.8445
  999TIP3    H2 2962   4.517   4.809   1.308  0.3094 -0.1991 -0.6894
 1000TIP3   OH2 2963   6.517   6.330   1.694 -0.2396  0.3199  0.0693
 1000TIP3    H1 2964   6.603   6.289   1.699 -0.6705 -0.6772 -0.5341
 1000TIP3    H2 2965   6.455   6.261   1.716 -1.0489  0.3043 -2.0059
 1001TIP3   OH2 2966   0.076   4.960   3.280 -0.1609 -0.2997  0.1628
 1001TIP3    H1 2967   0.111   5.000   3.200 -1.4417  1.8662  0.5891
 1001TIP3    H2 2968   0.148   4.905   3.312  0.8764 -0.1621 -1.7294
 1002TIP3   OH2 2969   6.403   4.901   3.187 -0.5475 -0.0272 -0.1020
 1002TIP3    H1 2970   6.472   4.897   3.121  0.5366 -0.5500  1.0180
 1002TIP3    H2 2971   6.397   4.994   3.211  1.2008 -0.1926  1.1966
 1003TIP3   OH2 2972   5.110   1.096   5.866 -0.5574 -0.1249 -0.4063
 1003TIP3    H1 2973   5.118   1.190   5.886 -2.5462  0.1497 -0.7152
 1003TIP3    H2 2974   5.017   1.077   5.878 -0.0364 -2.3070  0.5837
 1004TIP3   OH2 2975   3.745   0.367   3.208  0.3107 -0.3881  0.3086
 1004TIP3    H1 2976   3.836   0.341   3.193 -0.2797 -1.6500 -1.4143
 1004TIP3    H2 2977   3.736   0.368   3.303  2.2324  0.2212  0.5312
 1005TIP3   OH2 2978   0.250   3.322   0.116  0.4469 -0.1748 -0.0725
 1005TIP3    H1 2979   0.212   3.271   0.044  1.3420  1.8370 -2.0779
 1005TIP3    H2 2980   0.332   3.277   0.136  0.5632 -0.3478 -0.8687
 1006TIP3   OH2 2981   2.490   4.255   0.994  0.1630 -0.0914  0.7052
 1006TIP3    H1 2982   2.439   4.183   1.031 -1.7356  0.7312 -0.1929
 1006TIP3    H2 2983   2.541   4.214   0.925 -2.0376 -0.4173 -0.8307
 1007TIP3   OH2 2984   2.975   6.477   2.460  0.1638 -0.2881  0.6181
 1007TIP3    H1 2985   3.046   6.465   2.397  0.3091 -0.4644  0.8106
 1007TIP3    H2 2986   3.001   6.424   2.536 -0.1603 -0.3342  0.7012
 1008TIP3   OH2 2987   3.583   0.642   1.330 -0.3511 -0.0858  0.5261
 1008TIP3    H1 2988   3.675   0.621   1.314  0.1300 -0.4811  3.3175
 1008TIP3    H2 2989   3.558   0.697   1.255  1.6944 -1.1517 -1.0523
 1009TIP3   OH2 2990   3.381   5.968   0.221  0.0975 -0.7781 -0.3743
 1009TIP3    H1 2991   3.363   5.992   0.312 -1.3900  0.7420 -1.0185
 1009TIP3    H2 2992   3.319   5.897   0.202  0.0408 -0.7329 -0.3580
 1010TIP3   OH2 2993   3.577   2.364   0.819  0.3671  0.1474  0.4926
 1010TIP3    H1 2994   3.514   2.436   0.831  0.1042  0.0823 -0.4703
 1010TIP3    H2 2995   3.646   2.401   0.765  0.3064 -0.2860  0.1169
 1011TIP3   OH2 2996   6.138   1.899   4.989 -0.2610  0.1961 -0.1417
 1011TIP3    H1 2997   6.105   1.838   4.922 -1.6720  0.9586 -0.1912
 1011TIP3    H2 2998   6.071   1.896   5.058 -0.1347  1.3572  0.0436
 1012TIP3   OH2 2999   3.110   5.629   3.048  0.1280  0.0326  0.1321
 1012TIP3    H1 3000   3.088   5.677   2.968 -0.5275 -0.6468 -0.1004
 1012TIP3    H2 3001   3.119   5.538   3.021  0.3518 -0.1390  0.7562
 1013TIP3   OH2 3002   2.365   6.273   0.987  0.1236  0.3334  0.4479
 1013TIP3    H1 3003   2.390   6.181   0.993 -1.1402  0.0525  2.3191
 1013TIP3    H2 3004   2.291   6.274   0.927  0.5038  0.2250 -0.0274
 1014TIP3   OH2 3005   5.916   5.841   2.279  0.2725 -0.4061  0.1249
 1014TIP3    H1 3006   5.838   5.847   2.333 -0.5044 -0.9079 -0.9083
 1014TIP3    H2 3007   5.884   5.856   2.189  1.4109 -0.2914 -0.2798
 1015TIP3   OH2 3008   1.682   4.624   4.156 -0.3193  0.0039  0.1740
 1015TIP3    H1 3009   1.660   4.614   4.249 -0.7244 -1.4386 -0.0556
 1015TIP3    H2 3010   1.716   4.538   4.130 -3.6366 -0.8653 -1.9288
 1016TIP3   OH2 3011   3.178   2.983   3.205  0.1965 -0.1452 -0.0562
 1016TIP3    H1 3012   3.208   2.895   3.225 -0.2265 -0.2296  0.2186
 1016TIP3    H2 3013   3.249   3.041   3.232  0.4173 -0.3910 -0.1140
 1017TIP3   OH2 3014   0.382   4.502   1.338 -0.1631 -0.1918 -0.4395
 1017TIP3    H1 3015   0.460   4.547   1.369 -0.4842 -0.2885  0.5248
 1017TIP3    H2 3016   0.324   4.573   1.309 -0.6378  0.0480  1.0118
 1018TIP3   OH2 3017   7.113   6.519   3.534  0.8306 -0.5932  0.3689
 1018TIP3    H1 3018   7.078   6.470   3.460 -2.6405  0.2879  1.2525
 1018TIP3    H2 3019   7.146   6.452   3.594  2.0842 -1.3985 -1.1474
 1019TIP3   OH2 3020   0.988   0.876   2.013  0.3649 -0.0370 -0.2952
 1019TIP3    H1 3021   1.045   0.933   1.961 -0.6743 -1.1269 -2.7972
 1019TIP3    H2 3022   0.900   0.906   1.993 -0.0936  0.4712  2.1232
 1020TIP3   OH2 3023   5.061   1.047   0.164 -0.6859 -0.0302 -0.3309
 1020TIP3    H1 3024   5.034   0.956   0.175 -1.1538  0.1788  0.2894
 1020TIP3    H2 3025   5.157   1.044   0.168 -0.7197 -0.4278  0.2719
 1021TIP3   OH2 3026   5.073   0.015   1.121 -0.0231  0.3686 -0.2813
 1021TIP3    H1 3027   5.106  -0.035   1.196  0.3590 -0.5894 -1.0752
 1021TIP3    H2 3028   4.981   0.031   1.142  0.2506  0.7404  0.7154
 1022TIP3   OH2 3029   3.052   0.109   4.370 -0.1178  0.1714  0.6833
 1022TIP3    H1 3030   2.960   0.099   4.396 -0.4262  1.1085 -0.0048
 1022TIP3    H2 3031   3.075   0.023   4.333 -0.7059 -0.0831  0.8903
 1023TIP3   OH2 3032   5.310   6.167   0.830 -0.1718 -0.5923  0.1401
 1023TIP3    H1 3033   5.361   6.232   0.781 -3.1904  2.3677  0.5612
 1023TIP3    H2 3034   5.247   6.133   0.766 -0.2317 -1.2811  0.5520
 1024TIP3   OH2 3035   4.439   0.850   0.483  0.4578 -0.2642  0.0478
 1024TIP3    H1 3036   4.368   0.826   0.543  1.2135 -0.0299  1.0581
 1024TIP3    H2 3037   4.394   0.885   0.406 -0.5834 -2.2121 -0.2876
 1025TIP3   OH2 3038   2.008   0.194   5.465  0.2863 -0.6020  0.1492
 1025TIP3    H1 3039   2.056   0.249   5.527  0.5769 -0.4152 -0.2401
 1025TIP3    H2 3040   1.918   0.196   5.498 -0.3258  2.3378 -1.3076
 1026TIP3   OH2 3041   0.717   6.094   2.669  0.1124 -0.4053  0.3061
 1026TIP3    H1 3042   0.693   6.152   2.741  1.2937 -1.5813  1.7365
 1026TIP3    H2 3043   0.740   6.011   2.712  4.3221 -0.1422 -0.9985
 1027TIP3   OH2 3044   6.805   1.397   2.056 -0.0108  0.2596 -0.3471
 1027TIP3    H1 3045   6.871   1.431   2.116 -1.3792 -0.8471  1.9643
 1027TIP3    H2 3046   6.785   1.309   2.090  0.9348 -1.5720 -4.0015
 1028TIP3   OH2 3047   6.263   2.690   1.791 -0.3215 -0.2174  0.0263
 1028TIP3    H1 3048   6.356   2.677   1.806  0.1267 -0.3985 -2.4849
 1028TIP3    H2 3049   6.259   2.767   1.734 -1.7441 -0.0003  0.3839
 1029TIP3   OH2 3050   3.729   5.037   1.129 -0.2382  0.2245  0.2085
 1029TIP3    H1 3051   3.769   5.081   1.203  0.1613 -0.0093  0.1362
 1029TIP3    H2 3052   3.742   5.097   1.055 -1.0656  0.6778  0.4164
 1030TIP3   OH2 3053   2.821   4.582   2.062  0.3496 -1.0154  0.2059
 1030TIP3    H1 3054   2.878   4.658   2.052  0.6111 -1.0935  1.0332
 1030TIP3    H2 3055   2.790   4.563   1.974 -1.5686  1.4619  0.2739
 1031TIP3   OH2 3056   5.661   1.533   3.478  0.4478  0.0798  0.1493
 1031TIP3    H1 3057   5.585   1.587   3.457 -0.4847 -1.0348  0.5760
 1031TIP3    H2 3058   5.710   1.585   3.542  0.3896  1.0754 -0.5907
 1032TIP3   OH2 3059   2.343   4.258   1.398  0.5512  0.0774 -0.3967
 1032TIP3    H1 3060   2.366   4.166   1.391  1.9666  0.3098  0.7789
 1032TIP3    H2 3061   2.417   4.304   1.358  0.9101  0.7600  1.0000
 1033TIP3   OH2 3062   6.950   2.775   4.915  0.0666  0.1601 -0.1636
 1033TIP3    H1 3063   6.929   2.863   4.945 -0.5954 -0.4197  1.1588
 1033TIP3    H2 3064   6.906   2.717   4.978 -1.5472 -1.1474 -2.3324
 1034TIP3   OH2 3065   4.730   2.063   3.814  0.4284 -0.1065  0.2426
 1034TIP3    H1 3066   4.771   2.140   3.852 -0.2642  0.0014  0.7892
 1034TIP3    H2 3067   4.645   2.094   3.781 -1.0055 -1.1009  2.7521
 1035TIP3   OH2 3068   6.604   5.662   3.732 -0.3738 -0.2120 -0.0537
 1035TIP3    H1 3069   6.631   5.676   3.823  1.2467  1.1909 -0.6832
 1035TIP3    H2 3070   6.522   5.710   3.723  0.7857  1.8755  0.0417
 1036TIP3   OH2 3071   3.763   0.047   2.687 -0.0096  0.0756 -0.1549
 1036TIP3    H1 3072   3.673   0.069   2.712 -0.0737  0.1708 -0.4664
 1036TIP3    H2 3073   3.782  -0.034   2.734  0.7632  1.5335  2.2269
 1037TIP3   OH2 3074   0.102   5.287   2.702 -0.3336 -0.3940 -0.6239
 1037TIP3    H1 3075   0.189   5.248   2.698  0.4006  1.0781 -0.0295
 1037TIP3    H2 3076   0.100   5.349   2.628 -0.6469  0.0034 -0.2880
 1038TIP3   OH2 3077   1.047   4.974   2.496  0.0735  0.5225 -0.7912
 1038TIP3    H1 3078   0.964   4.997   2.538  0.6969  0.8364  0.3081
 1038TIP3    H2 3079   1.022   4.945   2.408 -1.2375  0.1932 -0.3344
 1039TIP3   OH2 3080   1.024   3.221   1.170 -0.3256  0.3755  0.1960
 1039TIP3    H1 3081   1.037   3.137   1.213  1.3492 -1.1722 -2.9089
 1039TIP3    H2 3082   0.963   3.202   1.099  1.5652  1.1745 -1.7720
 1040TIP3   OH2 3083   0.518   2.036   5.130 -0.0775 -0.0326  0.1202
 1040TIP3    H1 3084   0.512   2.037   5.035  1.9394 -1.5798 -0.1103
 1040TIP3    H2 3085   0.448   2.093   5.160 -1.2792 -0.1545 -2.2601
 1041TIP3   OH2 3086   2.111   0.427   4.872  0.0935 -0.0501  0.1308
 1041TIP3    H1 3087   2.059   0.375   4.933 -0.5377  0.5329  0.0932
 1041TIP3    H2 3088   2.092   0.389   4.786 -0.3940  0.2572  0.0997
 1042TIP3   OH2 3089   3.913   3.520   0.332 -0.0391  0.1453  0.5599
 1042TIP3    H1 3090   3.948   3.548   0.247  0.9732 -1.4385  0.4316
 1042TIP3    H2 3091   3.820   3.543   0.327 -0.1154 -0.3679 -1.1843
 1043TIP3   OH2 3092   0.174   1.343   0.429 -0.2553 -0.2338 -0.2993
 1043TIP3    H1 3093   0.087   1.309   0.410  0.3422 -1.5037 -0.8328
 1043TIP3    H2 3094   0.194   1.310   0.517  0.4583 -1.5932 -0.9480
 1044TIP3   OH2 3095   4.405   0.176   5.425 -0.2988  0.5064 -0.2370
 1044TIP3    H1 3096   4.354   0.144   5.499  1.1891  0.2721  0.7122
 1044TIP3    H2 3097   4.487   0.208   5.463  1.0246 -0.7487 -1.8726
 1045TIP3   OH2 3098   2.029   1.806   2.104 -0.0545 -0.5350 -0.1311
 1045TIP3    H1 3099   2.124   1.817   2.112  0.0911 -2.0400  0.9365
 1045TIP3    H2 3100   1.999   1.882   2.056  1.5541  0.5693  0.5250
 1046TIP3   OH2 3101   5.894   4.035   5.839  0.3930 -0.3717 -0.2004
 1046TIP3    H1 3102   5.974   4.014   5.888 -0.1080 -1.4650  0.1715
 1046TIP3    H2 3103   5.926   4.061   5.752  1.2152  0.4217  0.3148
 1047TIP3   OH2 3104   2.371   2.336   3.015  0.0186 -0.4193  0.1523
 1047TIP3    H1 3105   2.383   2.278   3.090 -0.2204 -0.5148  0.1188
 1047TIP3    H2 3106   2.281   2.318   2.985 -0.0534 -0.0341  0.1385
 1048TIP3   OH2 3107   3.041   3.593   5.012  0.4112 -0.0749  0.2081
 1048TIP3    H1 3108   3.024   3.517   5.068 -0.4532 -1.4650 -1.8258
 1048TIP3    H2 3109   2.993   3.665   5.054 -1.2716 -1.3656  0.6110
 1049TIP3   OH2 3110   2.456   0.560   5.801  0.7212  0.2290 -0.9017
 1049TIP3    H1 3111   2.392   0.610   5.851  1.1114  0.8449 -1.0043
 1049TIP3    H2 3112   2.484   0.619   5.731  2.0233  0.2919 -0.3629
 1050TIP3   OH2 3113   6.009   4.011   3.274  0.1376  0.4467 -0.0675
 1050TIP3    H1 3114   5.998   4.084   3.213  2.0547 -0.2580 -1.3443
 1050TIP3    H2 3115   6.092   4.029   3.318  0.0431 -0.3663  0.4691
 1051TIP3   OH2 3116   1.139   1.654   5.771 -0.0247  0.4328  0.1529
 1051TIP3    H1 3117   1.153   1.692   5.857  0.2283  0.9226 -0.1002
 1051TIP3    H2 3118   1.089   1.574   5.787  0.8239  0.0261  0.8424
 1052TIP3   OH2 3119   2.609   0.475   1.985  0.2173 -0.2009 -0.1119
 1052TIP3    H1 3120   2.653   0.391   1.991  0.5852 -0.1195 -1.3140
 1052TIP3    H2 3121   2.669   0.537   2.026  1.5128 -0.0141 -2.1577
 1053TIP3   OH2 3122   5.223   2.422   3.562 -0.3529  0.7663 -0.4099
 1053TIP3    H1 3123   5.305   2.462   3.592  0.3178 -0.6659 -0.2505
 1053TIP3    H2 3124   5.160   2.494   3.562  0.4823  1.5455  1.1069
 1054TIP3   OH2 3125   1.753   0.343   1.914  0.2332 -0.5430 -0.3089
 1054TIP3    H1 3126   1.830   0.320   1.967  0.8301  2.5328  0.3507
 1054TIP3    H2 3127   1.758   0.284   1.838  4.0226  0.3447 -0.9661
 1055TIP3   OH2 3128   3.411   0.117   4.654  0.7042  0.3817  0.0475
 1055TIP3    H1 3129   3.335   0.066   4.683 -0.3124  1.6020 -0.3578
 1055TIP3    H2 3130   3.429   0.176   4.727  1.7824 -0.4201  0.4558
 1056TIP3   OH2 3131   6.527   3.064   4.759  0.1217  0.1573  0.5567
 1056TIP3    H1 3132   6.526   3.063   4.663  2.5553 -3.0663  0.3945
 1056TIP3    H2 3133   6.446   3.020   4.784  0.5081 -1.0048 -0.1562
 1057TIP3   OH2 3134   4.749   1.527   2.202 -0.3100 -1.2014 -0.5946
 1057TIP3    H1 3135   4.734   1.491   2.289  2.1234 -1.9276 -0.4038
 1057TIP3    H2 3136   4.703   1.611   2.202 -1.4784 -1.7949  0.8864
 1058TIP3   OH2 3137   5.669   4.836   3.063 -0.2118 -0.2440  0.4421
 1058TIP3    H1 3138   5.634   4.881   2.987 -0.1655  0.1483  0.6466
 1058TIP3    H2 3139   5.639   4.745   3.055  0.0779 -0.2830 -0.2130
 1059TIP3   OH2 3140   5.685   1.299   2.441 -0.2838 -0.1898  0.1892
 1059TIP3    H1 3141   5.649   1.372   2.490 -0.5216 -0.2166  0.0545
 1059TIP3    H2 3142   5.657   1.221   2.488 -0.4834 -0.2141  0.0303
 1060TIP3   OH2 3143   6.572   1.289   4.394 -0.1632 -0.6458 -0.4361
 1060TIP3    H1 3144   6.625   1.305   4.472 -0.7627  0.9223 -0.3194
 1060TIP3    H2 3145   6.486   1.326   4.414 -0.0487  0.7141 -2.1756
 1061TIP3   OH2 3146   4.841   1.678   1.171 -0.0722  0.6537  0.0692
 1061TIP3    H1 3147   4.896   1.755   1.181  1.6797 -0.5695  0.2502
 1061TIP3    H2 3148   4.765   1.695   1.227  1.4318  1.2293  2.0357
 1062TIP3   OH2 3149   4.396   1.067   4.638  0.1488 -0.3237 -0.5125
 1062TIP3    H1 3150   4.418   1.066   4.732 -0.4152  2.1536 -0.2882
 1062TIP3    H2 3151   4.326   1.002   4.629  2.0493 -2.6247  0.2029
 1063TIP3   OH2 3152   0.140   4.118   3.841  0.0306 -0.4243  0.0257
 1063TIP3    H1 3153   0.139   4.152   3.752  1.1223 -3.0191 -1.1113
 1063TIP3    H2 3154   0.184   4.185   3.892 -2.3278  1.9873 -0.9060
 1064TIP3   OH2 3155   7.090   3.012   2.993 -0.6233 -0.9363  0.4325
 1064TIP3    H1 3156   7.021   3.078   3.002  0.2219 -0.0819  0.7214
 1064TIP3    H2 3157   7.139   3.038   2.915  0.6739 -0.3122  1.4306
 1065TIP3   OH2 3158   4.784   6.183   5.108 -0.0457  0.0331 -0.2407
 1065TIP3    H1 3159   4.732   6.245   5.057  0.8463  0.3766 -0.7332
 1065TIP3    H2 3160   4.842   6.142   5.045 -1.7844 -2.6309 -0.3046
 1066TIP3   OH2 3161   0.946   2.214   1.980  0.4244 -0.3241  0.1744
 1066TIP3    H1 3162   1.041   2.209   1.993  0.8591  1.2888 -1.9055
 1066TIP3    H2 3163   0.913   2.250   2.063  1.7068 -0.2111  0.6631
 1067TIP3   OH2 3164   6.338   5.186   0.917  0.2491 -0.7044 -0.7120
 1067TIP3    H1 3165   6.325   5.280   0.900  1.4244 -0.4991 -0.5977
 1067TIP3    H2 3166   6.252   5.154   0.941 -0.5223  0.0032 -2.3418
 1068TIP3   OH2 3167   5.625   1.911   3.645 -0.1238 -0.0813  0.1643
 1068TIP3    H1 3168   5.619   1.969   3.569 -0.4507 -0.2253  0.0791
 1068TIP3    H2 3169   5.712   1.927   3.680 -0.6610  1.4340  0.9136
 1069TIP3   OH2 3170   1.133   4.782   4.290  0.3576 -0.7062 -0.3088
 1069TIP3    H1 3171   1.142   4.718   4.360  2.4474  1.0172  1.1227
 1069TIP3    H2 3172   1.088   4.856   4.330  1.4191  0.2331 -0.7860
 1070TIP3   OH2 3173   3.583   2.540   2.028 -0.0829  0.3192 -0.1839
 1070TIP3    H1 3174   3.583   2.444   2.023  1.4464  0.2179  0.8495
 1070TIP3    H2 3175   3.676   2.563   2.026 -0.3897  1.7149  0.5360
 1071TIP3   OH2 3176   1.163   0.457   1.471 -0.2719  0.3828 -0.0471
 1071TIP3    H1 3177   1.180   0.367   1.496 -1.1575  0.2176 -0.0151
 1071TIP3    H2 3178   1.124   0.497   1.549 -1.0388  0.4479 -0.4559
 1072TIP3   OH2 3179   0.293   5.983   4.349 -0.3112  0.2961 -0.6733
 1072TIP3    H1 3180   0.332   5.994   4.262  1.5976 -0.2150  0.0505
 1072TIP3    H2 3181   0.304   6.068   4.391 -1.7246  0.7039 -1.0880
 1073TIP3   OH2 3182   6.144   2.998   5.478  0.0528  0.4739  0.2049
 1073TIP3    H1 3183   6.063   3.050   5.478  0.3021  0.8720  1.0644
 1073TIP3    H2 3184   6.185   3.016   5.563  1.4149  0.8572 -0.4955
 1074TIP3   OH2 3185   3.211   6.128   5.628  0.4667  0.4566 -0.1781
 1074TIP3    H1 3186   3.209   6.193   5.558 -1.2618 -0.8266 -1.3714
 1074TIP3    H2 3187   3.130   6.142   5.677  0.1290 -0.7108 -0.3782
 1075TIP3   OH2 3188   0.260   6.752   0.575 -0.1464  0.0564  0.1939
 1075TIP3    H1 3189   0.261   6.683   0.641 -3.2842  1.5044  2.0494
 1075TIP3    H2 3190   0.228   6.710   0.496 -0.2168 -0.9637  0.7495
 1076TIP3   OH2 3191   1.584   5.234   1.922  0.0915 -0.5337  0.1197
 1076TIP3    H1 3192   1.582   5.284   2.003  1.8030 -1.1560  0.5875
 1076TIP3    H2 3193   1.564   5.298   1.853 -0.0740  0.2756  0.9058
 1077TIP3   OH2 3194   4.038   4.003   0.175  0.0149 -0.1963  0.1944
 1077TIP3    H1 3195   3.991   4.068   0.122  0.3822  0.5948  0.8178
 1077TIP3    H2 3196   4.130   4.028   0.166  0.3975 -1.9271 -1.2894
 1078TIP3   OH2 3197   6.828   4.058   0.292  0.0880  0.2574 -0.2752
 1078TIP3    H1 3198   6.810   4.137   0.241  0.3484  2.1482  2.3307
 1078TIP3    H2 3199   6.742   4.020   0.310 -0.3032  1.5367  0.7145
 1079TIP3   OH2 3200   1.946   3.315   2.789 -0.0269 -0.2409 -0.8471
 1079TIP3    H1 3201   1.999   3.259   2.845 -0.6319  0.0226 -0.0018
 1079TIP3    H2 3202   1.971   3.289   2.700  1.2448 -0.3725 -0.4774
 1080TIP3   OH2 3203   1.198   4.536   5.375 -0.4276 -0.1837 -0.1221
 1080TIP3    H1 3204   1.252   4.609   5.406 -2.4575  1.0157  0.7836
 1080TIP3    H2 3205   1.177   4.487   5.454  0.5063 -1.5260 -0.6654
 1081TIP3   OH2 3206   2.970   4.059   2.953  0.2873 -0.1973 -0.1343
 1081TIP3    H1 3207   3.049   4.079   3.003 -0.0692  2.0621 -0.3989
 1081TIP3    H2 3208   2.997   4.066   2.862  0.0475 -0.5788 -0.2366
 1082TIP3   OH2 3209   5.829   2.718   4.134  0.1279 -0.1070  0.2601
 1082TIP3    H1 3210   5.734   2.720   4.123 -0.3760 -2.7442  2.8910
 1082TIP3    H2 3211   5.859   2.652   4.072  0.2006  0.2577 -0.1027
 1083TIP3   OH2 3212   3.101   6.140   4.583 -0.0299 -0.6390 -0.0970
 1083TIP3    H1 3213   3.188   6.181   4.581 -0.9498  1.3870 -1.4019
 1083TIP3    H2 3214   3.058   6.180   4.659 -0.4164 -0.2957 -0.4938
 1084TIP3   OH2 3215   3.237   4.758   0.770  0.3090  0.2603 -0.1110
 1084TIP3    H1 3216   3.170   4.712   0.821 -0.7337  2.3504  0.5310
 1084TIP3    H2 3217   3.233   4.718   0.683 -1.1557 -0.2942  0.1762
 1085TIP3   OH2 3218   3.230   0.852   3.332 -0.6944  0.7804  0.0004
 1085TIP3    H1 3219   3.177   0.917   3.379  0.1550  1.2576  0.3213
 1085TIP3    H2 3220   3.321   0.876   3.353 -0.3628 -0.3028 -0.1600
 1086TIP3   OH2 3221   2.917   2.931   1.127 -0.4818 -0.2202 -0.5504
 1086TIP3    H1 3222   2.822   2.934   1.142 -0.5366  1.3029 -1.0858
 1086TIP3    H2 3223   2.928   2.857   1.066 -1.1459 -1.2637  0.5413
 1087TIP3   OH2 3224   2.194   4.480   0.702  0.8854 -0.2174 -0.2449
 1087TIP3    H1 3225   2.178   4.452   0.792  0.7191 -0.3701 -0.3206
 1087TIP3    H2 3226   2.225   4.570   0.710 -0.1160  0.1286 -0.0981
 1088TIP3   OH2 3227   6.809   0.606   1.586 -0.7819 -0.3410 -0.2304
 1088TIP3    H1 3228   6.769   0.522   1.563 -2.2005  0.5459 -1.1308
 1088TIP3    H2 3229   6.878   0.618   1.520 -1.6572 -0.0618 -1.1183
 1089TIP3   OH2 3230   0.829   1.488   3.713 -0.2012 -0.0548 -0.0886
 1089TIP3    H1 3231   0.758   1.461   3.771  0.8327 -0.3519  1.0782
 1089TIP3    H2 3232   0.832   1.421   3.645  0.5943 -1.4680  1.2825
 1090TIP3   OH2 3233   4.014   0.356   0.483  0.3664  0.5275 -0.1604
 1090TIP3    H1 3234   4.027   0.322   0.571 -0.4779 -1.4615 -0.7488
 1090TIP3    H2 3235   3.932   0.316   0.454  0.0873  1.9718 -1.4772
 1091TIP3   OH2 3236   3.436   0.496   5.145  0.0811  0.5365 -0.5095
 1091TIP3    H1 3237   3.342   0.483   5.154 -0.9063  4.1916 -3.3651
 1091TIP3    H2 3238   3.470   0.410   5.121 -2.7480 -0.5876 -0.8670
 1092TIP3   OH2 3239   2.920   2.660   0.257  0.0110  0.4488  0.0294
 1092TIP3    H1 3240   2.910   2.725   0.187 -2.3393  0.4237  0.2704
 1092TIP3    H2 3241   2.927   2.576   0.210  2.5225  0.7290 -0.2581
 1093TIP3   OH2 3242   5.807   2.220   1.549 -0.4342  0.0930  0.1291
 1093TIP3    H1 3243   5.802   2.208   1.644  1.4316 -0.9063  0.1515
 1093TIP3    H2 3244   5.717   2.214   1.520 -1.1845  1.5513  1.9434
 1094TIP3   OH2 3245   0.424   3.348   4.444 -0.1308 -0.0137  0.1859
 1094TIP3    H1 3246   0.485   3.283   4.478 -0.2578 -0.3060 -0.1442
 1094TIP3    H2 3247   0.455   3.366   4.355  0.5950  1.2392  0.6590
 1095TIP3   OH2 3248   4.962   2.418   3.732  0.0903  0.0103  0.3277
 1095TIP3    H1 3249   4.872   2.444   3.753 -0.0663 -0.1641 -0.1303
 1095TIP3    H2 3250   4.972   2.332   3.772 -1.2675 -1.8359 -2.9097
 1096TIP3   OH2 3251   5.725   3.152   3.511 -0.3358 -0.1515  0.4364
 1096TIP3    H1 3252   5.727   3.246   3.525 -2.7274  0.0168  0.1742
 1096TIP3    H2 3253   5.635   3.134   3.482 -0.5662 -2.7532  2.3439
 1097TIP3   OH2 3254   4.451   2.210   2.625 -0.1287 -0.3042  0.6276
 1097TIP3    H1 3255   4.429   2.126   2.666  0.5971 -1.0771 -0.5237
 1097TIP3    H2 3256   4.529   2.239   2.672  0.9543 -1.3943 -0.4056
 1098TIP3   OH2 3257   3.881   4.819   2.879  0.5309  0.1162 -0.1083
 1098TIP3    H1 3258   3.923   4.888   2.829  1.9674 -1.9237 -1.8815
 1098TIP3    H2 3259   3.822   4.777   2.818  1.3549 -1.6139  0.2204
 1099TIP3   OH2 3260   2.439   0.253   0.666 -0.1606  0.1256 -0.4133
 1099TIP3    H1 3261   2.344   0.248   0.676 -0.0042 -0.8190  0.8010
 1099TIP3    H2 3262   2.452   0.287   0.577 -1.6323 -2.2012 -1.6235
 1100TIP3   OH2 3263   6.588   6.248   1.062  0.1872 -0.9555  0.2418
 1100TIP3    H1 3264   6.667   6.198   1.083 -0.2216 -1.5372  0.4163
 1100TIP3    H2 3265   6.522   6.215   1.122  0.2237  0.6947  1.2580
 1101TIP3   OH2 3266   5.264   6.155   4.966 -0.4709  0.4614 -0.0733
 1101TIP3    H1 3267   5.293   6.178   4.878  0.0626 -0.0673 -0.0423
 1101TIP3    H2 3268   5.194   6.217   4.985  1.3063  2.4877  0.2451
 1102TIP3   OH2 3269   1.122   0.628   3.757 -0.2458 -0.6746 -0.1084
 1102TIP3    H1 3270   1.137   0.705   3.702 -1.7442 -0.6340 -0.4995
 1102TIP3    H2 3271   1.102   0.557   3.695 -1.4027 -0.7580  0.3355
 1103TIP3   OH2 3272   5.159   4.843   1.427 -0.1726  0.0699 -0.5900
 1103TIP3    H1 3273   5.128   4.907   1.492 -0.3026  0.8637 -1.4022
 1103TIP3    H2 3274   5.123   4.760   1.456  0.4946  0.2516  0.8265
 1104TIP3   OH2 3275   4.145   2.282   0.925  0.4986  0.0045  0.3028
 1104TIP3    H1 3276   4.065   2.274   0.872  0.2261 -0.6109  0.8001
 1104TIP3    H2 3277   4.216   2.282   0.860  0.1142  0.3743 -0.1323
 1105TIP3   OH2 3278   5.498   2.113   5.846  0.4154  0.8418 -0.4030
 1105TIP3    H1 3279   5.499   2.055   5.770 -2.0662 -0.7189  0.6144
 1105TIP3    H2 3280   5.573   2.085   5.898  0.1717 -0.4440 -0.7031
 1106TIP3   OH2 3281   4.958   4.094   4.379  0.0753 -0.8910  0.2254
 1106TIP3    H1 3282   4.870   4.056   4.377  0.4282 -1.7866 -2.7620
 1106TIP3    H2 3283   4.947   4.183   4.347  0.2489 -0.9773 -0.0754
 1107TIP3   OH2 3284   2.960   2.375   3.006 -0.5621 -0.6037  0.0640
 1107TIP3    H1 3285   3.015   2.444   2.970  1.3004 -1.4525  1.1287
 1107TIP3    H2 3286   2.953   2.310   2.936  1.8963 -1.6132  0.6507
 1108TIP3   OH2 3287   3.456   6.035   5.325  0.2428  0.7819  0.0507
 1108TIP3    H1 3288   3.449   6.036   5.420  0.5663  0.5904  0.0788
 1108TIP3    H2 3289   3.532   6.089   5.306 -0.1449  1.2757 -0.1360
 1109TIP3   OH2 3290   0.158   6.253   1.754 -0.1029 -0.3625 -0.6104
 1109TIP3    H1 3291   0.076   6.220   1.718 -2.2898  0.6810  2.8501
 1109TIP3    H2 3292   0.187   6.183   1.813 -0.7780  0.7743  1.1668
 1110TIP3   OH2 3293   4.289   5.122   2.730 -0.2537 -0.1061  0.1956
 1110TIP3    H1 3294   4.290   5.037   2.774  0.4150  0.0488  0.4873
 1110TIP3    H2 3295   4.375   5.160   2.749  0.1489 -0.1369 -1.4707
 1111TIP3   OH2 3296   3.257   6.777   4.938 -0.0223 -0.0922  0.4165
 1111TIP3    H1 3297   3.316   6.702   4.950 -1.5638 -1.3114  0.7567
 1111TIP3    H2 3298   3.279   6.837   5.009  2.1789  0.4770 -0.6538
 1112TIP3   OH2 3299   3.890   5.133   4.880 -0.7730  0.5733  0.6169
 1112TIP3    H1 3300   3.981   5.143   4.854  0.0381  0.0054  2.9420
 1112TIP3    H2 3301   3.851   5.079   4.812  1.1111 -0.6833  0.4512
 1113TIP3   OH2 3302   2.928   6.633   3.799 -0.0531 -0.3619  0.0591
 1113TIP3    H1 3303   2.833   6.647   3.797  0.1643  1.9696 -2.9238
 1113TIP3    H2 3304   2.945   6.574   3.726  0.8518  0.0091 -0.0418
 1114TIP3   OH2 3305   2.164   3.525   1.941  0.1266  0.0282 -0.5428
 1114TIP3    H1 3306   2.144   3.431   1.942  1.3604 -0.2530 -0.4302
 1114TIP3    H2 3307   2.251   3.531   1.980 -0.5610  1.3900  0.8987
 1115TIP3   OH2 3308   4.741   0.352   5.369  0.6337  0.2547 -0.5255
 1115TIP3    H1 3309   4.717   0.305   5.449 -1.2802 -1.9698 -2.2778
 1115TIP3    H2 3310   4.820   0.307   5.338  0.7379  0.3977 -0.4682
 1116TIP3   OH2 3311   3.793   5.754   0.655 -0.2694 -0.2028 -0.4724
 1116TIP3    H1 3312   3.802   5.849   0.662 -0.4276 -0.2213 -0.0312
 1116TIP3    H2 3313   3.751   5.741   0.570 -0.1126  0.1127 -0.6013
 1117TIP3   OH2 3314   3.287   2.799   5.800  0.1576 -0.4906 -0.0689
 1117TIP3    H1 3315   3.232   2.725   5.826 -1.0465  1.0455  2.0185
 1117TIP3    H2 3316   3.358   2.799   5.864  0.7664 -0.4702 -0.7310
 1118TIP3   OH2 3317   5.833   3.831   0.062 -0.1740  0.0269  0.0965
 1118TIP3    H1 3318   5.870   3.911   0.024 -2.8065  1.4950  0.3475
 1118TIP3    H2 3319   5.778   3.795  -0.008  0.6517 -1.3716  0.1320
 1119TIP3   OH2 3320   6.045   2.447   0.449  0.3974 -0.0398  0.2691
 1119TIP3    H1 3321   6.132   2.480   0.426 -0.0573  2.3528  1.5915
 1119TIP3    H2 3322   5.985   2.492   0.389  0.0074 -1.4286 -0.4200
 1120TIP3   OH2 3323   0.095   6.669   0.359 -0.1160 -0.1748  0.1400
 1120TIP3    H1 3324   0.069   6.605   0.293  0.2399 -1.4005  1.1519
 1120TIP3    H2 3325   0.031   6.740   0.350 -1.0796 -1.0816 -0.4089
 1121TIP3   OH2 3326   0.166   3.390   3.235  0.1648  0.1704 -0.6432
 1121TIP3    H1 3327   0.209   3.474   3.222  0.1960  0.0860 -1.1375
 1121TIP3    H2 3328   0.238   3.329   3.254  0.4081 -0.1653 -2.4368
 1122TIP3   OH2 3329   5.223   3.883   5.328  0.1710 -0.5173  0.0816
 1122TIP3    H1 3330   5.160   3.821   5.293 -0.7624  0.2315  0.3747
 1122TIP3    H2 3331   5.203   3.965   5.283  1.3898 -0.4118 -0.3109
 1123TIP3   OH2 3332   3.099   1.673   4.542 -0.0865 -0.5513  0.0781
 1123TIP3    H1 3333   3.025   1.728   4.516  0.4127 -0.4627 -1.2170
 1123TIP3    H2 3334   3.144   1.724   4.610 -0.7671 -0.2622  0.3194
 1124TIP3   OH2 3335   4.307   1.992   1.776  0.0118 -0.0105 -0.2267
 1124TIP3    H1 3336   4.235   1.982   1.839  1.0945 -2.6342  0.7583
 1124TIP3    H2 3337   4.282   1.935   1.702 -0.2539  1.3885 -1.2473
 1125TIP3   OH2 3338   6.923   3.051   2.178 -0.0651 -0.2451 -0.4239
 1125TIP3    H1 3339   6.876   3.113   2.121 -0.2847  0.3717  0.4086
 1125TIP3    H2 3340   7.006   3.036   2.134 -0.5587 -0.4260 -1.3275
 1126TIP3   OH2 3341   3.920   6.316   3.096 -0.4668 -0.5268  1.2651
 1126TIP3    H1 3342   3.953   6.246   3.040  0.2519  1.1445 -0.5231
 1126TIP3    H2 3343   3.842   6.349   3.050  0.0285  0.7635  1.3218
 1127TIP3   OH2 3344   6.094   4.046   0.317 -0.6208 -0.6433  0.4101
 1127TIP3    H1 3345   6.073   3.960   0.282  0.3787 -1.3403  1.4658
 1127TIP3    H2 3346   6.157   4.083   0.256 -0.6116 -0.8981  0.2656
 1128TIP3   OH2 3347   3.548   4.096   2.429 -0.2761  0.6574  0.6889
 1128TIP3    H1 3348   3.639   4.117   2.408 -0.3137  1.4661  1.3019
 1128TIP3    H2 3349   3.528   4.021   2.374  1.0760 -0.1582  1.2507
 1129TIP3   OH2 3350   1.042   0.572   2.298 -0.0236  0.3386  0.1748
 1129TIP3    H1 3351   0.987   0.543   2.371 -0.4122  1.4248  0.3361
 1129TIP3    H2 3352   0.982   0.578   2.223  0.4447 -1.1196 -0.3494
 1130TIP3   OH2 3353   5.876   4.818   5.446  0.1845  0.4219  0.6479
 1130TIP3    H1 3354   5.921   4.869   5.379  0.7789  0.3922  1.0161
 1130TIP3    H2 3355   5.788   4.804   5.411  0.1664  1.2875  0.3372
 1131TIP3   OH2 3356   0.837   0.244   2.768 -0.0610 -0.3794  0.2113
 1131TIP3    H1 3357   0.890   0.303   2.714 -0.5176  0.7290  0.9440
 1131TIP3    H2 3358   0.747   0.256   2.736 -0.2809 -0.0109  0.9560
 1132TIP3   OH2 3359   0.069   1.773   1.792  0.7877  0.6616 -0.6665
 1132TIP3    H1 3360   0.112   1.734   1.715 -2.0236 -1.4258 -1.3343
 1132TIP3    H2 3361   0.042   1.698   1.845 -2.5295  1.7323 -0.6391
 1133TIP3   OH2 3362   4.973   4.159   0.597 -0.0727 -0.5598  0.7423
 1133TIP3    H1 3363   5.064   4.155   0.625 -0.1881 -2.2020  0.9582
 1133TIP3    H2 3364   4.956   4.074   0.557 -0.5911  0.8464 -2.2773
 1134TIP3   OH2 3365   1.377   1.880   0.636  0.1690 -0.2737  0.1508
 1134TIP3    H1 3366   1.418   1.962   0.664 -1.0513  0.3338  0.2207
 1134TIP3    H2 3367   1.451   1.823   0.615  1.0825  1.5385 -1.9812
 1135TIP3   OH2 3368   6.161   0.802   3.704  0.6115 -0.0261  0.4181
 1135TIP3    H1 3369   6.088   0.863   3.713  2.0414  1.4434  4.1621
 1135TIP3    H2 3370   6.236   0.849   3.740  2.7615 -2.5585 -0.4442
 1136TIP3   OH2 3371   5.274   3.461   0.216 -0.6250 -0.5225 -0.1919
 1136TIP3    H1 3372   5.297   3.553   0.208  0.1581 -0.8309 -2.0114
 1136TIP3    H2 3373   5.181   3.460   0.238 -0.5553  0.6841  0.2013
 1137TIP3   OH2 3374   2.999   2.054  -0.008 -0.7088 -0.8074  0.0698
 1137TIP3    H1 3375   3.040   2.041   0.077 -1.0221 -1.6523  0.1055
 1137TIP3    H2 3376   3.058   2.113  -0.055 -0.0880 -1.0282  0.5616
 1138TIP3   OH2 3377   1.556   2.099   0.711  0.3229 -0.6066 -0.1521
 1138TIP3    H1 3378   1.650   2.081   0.701  0.3419 -0.5041 -0.1602
 1138TIP3    H2 3379   1.553   2.184   0.756  0.2204  0.1244 -1.5056
 1139TIP3   OH2 3380   2.613   1.807   0.323  0.3866 -0.9714 -0.1310
 1139TIP3    H1 3381   2.587   1.834   0.411  0.2255  1.0573 -0.7487
 1139TIP3    H2 3382   2.547   1.846   0.266  1.7708 -0.2763 -1.3103
 1140TIP3   OH2 3383   0.833   5.124   2.609  0.1821 -0.5533  0.0916
 1140TIP3    H1 3384   0.783   5.056   2.653  0.3598 -0.5633  0.2778
 1140TIP3    H2 3385   0.768   5.172   2.558 -0.3781  0.7861  1.9895
 1141TIP3   OH2 3386   5.908   6.095   3.337 -0.3286  0.2538 -0.1179
 1141TIP3    H1 3387   5.924   6.158   3.406 -1.2361  1.1700 -0.7165
 1141TIP3    H2 3388   5.952   6.132   3.260 -1.2307  0.3844 -0.5792
 1142TIP3   OH2 3389   2.685   4.623   0.049 -0.2348 -0.1727  0.7910
 1142TIP3    H1 3390   2.649   4.586  -0.031 -1.2783 -1.1490  1.6866
 1142TIP3    H2 3391   2.723   4.548   0.095 -0.9286  0.1220  1.8692
 1143TIP3   OH2 3392   2.571   3.798   0.235  0.2766  0.4705 -0.4419
 1143TIP3    H1 3393   2.588   3.775   0.143  0.8562  1.1710 -0.5133
 1143TIP3    H2 3394   2.614   3.729   0.285  1.7749  1.2064 -0.6624
 1144TIP3   OH2 3395   3.852   1.881   3.422 -0.4459 -0.1838  0.3243
 1144TIP3    H1 3396   3.908   1.887   3.344 -2.8167 -1.0028 -1.5366
 1144TIP3    H2 3397   3.838   1.787   3.433  0.0700 -0.0928  1.9655
 1145TIP3   OH2 3398   3.743   2.304   2.117  0.8643 -0.7067  0.0687
 1145TIP3    H1 3399   3.815   2.243   2.099  2.6903  1.3556 -0.0885
 1145TIP3    H2 3400   3.780   2.366   2.179  0.2729  2.1627 -2.2205
 1146TIP3   OH2 3401   2.193   3.681   5.506  0.0560 -0.2425 -0.3067
 1146TIP3    H1 3402   2.187   3.720   5.594  0.6454 -0.6107 -0.0979
 1146TIP3    H2 3403   2.248   3.742   5.457 -1.2694  0.6037 -0.7949
 1147TIP3   OH2 3404   5.020   1.828   2.743 -0.2341  0.5058 -0.2384
 1147TIP3    H1 3405   5.098   1.807   2.793 -1.5302 -0.8315  1.3254
 1147TIP3    H2 3406   5.015   1.760   2.675  0.2724  0.9515 -0.7275
 1148TIP3   OH2 3407   5.273   3.584   5.621 -0.2346  0.3018  0.6604
 1148TIP3    H1 3408   5.305   3.497   5.596  0.0581  0.8594 -1.1151
 1148TIP3    H2 3409   5.209   3.606   5.553  0.5328  1.9229  0.4147
 1149TIP3   OH2 3410   1.301   5.603   0.680  0.0885 -0.0283 -0.6336
 1149TIP3    H1 3411   1.237   5.532   0.668  1.2169 -1.3095  0.5949
 1149TIP3    H2 3412   1.339   5.616   0.593 -1.2324  0.1790 -1.2038
 1150TIP3   OH2 3413   0.773   3.211   0.418  0.0992  0.4808  0.2853
 1150TIP3    H1 3414   0.846   3.167   0.375  1.4170  1.3776  1.5167
 1150TIP3    H2 3415   0.719   3.245   0.347  0.8048 -0.3125 -0.6443
 1151TIP3   OH2 3416   1.307   5.388   5.441 -0.6601  0.0064  0.0236
 1151TIP3    H1 3417   1.227   5.367   5.392 -0.2596 -0.0341 -0.6188
 1151TIP3    H2 3418   1.374   5.399   5.374 -0.1941  0.3648  0.5416
 1152TIP3   OH2 3419   0.154   6.516   3.983  0.3790  0.2996 -0.0012
 1152TIP3    H1 3420   0.079   6.546   4.034  0.8007 -0.7476  1.2693
 1152TIP3    H2 3421   0.153   6.420   3.992  2.2797  0.3021  0.6444
 1153TIP3   OH2 3422   2.060   6.676   2.789 -0.3986  0.0550 -0.1166
 1153TIP3    H1 3423   2.013   6.746   2.743  0.1323  0.3707 -0.1798
 1153TIP3    H2 3424   2.112   6.633   2.722  1.2865  1.2646  0.3693
 1154TIP3   OH2 3425   7.111   3.322   3.088  0.8404 -0.3113 -0.4938
 1154TIP3    H1 3426   7.204   3.328   3.110  0.1641  2.3853  2.2453
 1154TIP3    H2 3427   7.089   3.408   3.052 -0.6723 -0.8492 -0.9263
 1155TIP3   OH2 3428   1.519   4.933   4.789  0.1684 -0.0918  0.1383
 1155TIP3    H1 3429   1.544   5.020   4.756  0.3776 -0.2658 -0.1702
 1155TIP3    H2 3430   1.430   4.920   4.757  0.1889 -0.0471  0.0613
 1156TIP3   OH2 3431   6.390   3.989   0.471  0.0328  0.5977 -0.4670
 1156TIP3    H1 3432   6.459   4.042   0.510 -0.1139  1.2832 -1.1186
 1156TIP3    H2 3433   6.426   3.960   0.387  1.1188 -2.5067  0.9202
 1157TIP3   OH2 3434   6.113   6.593   0.709  0.7202  0.0140  0.4358
 1157TIP3    H1 3435   6.179   6.527   0.731  1.0941  0.3818  0.4451
 1157TIP3    H2 3436   6.033   6.561   0.749  1.2757  0.4222  1.9465
 1158TIP3   OH2 3437   6.504   0.682   3.732 -0.2472 -0.0530  0.2357
 1158TIP3    H1 3438   6.475   0.766   3.766 -0.9993 -0.5048  0.7373
 1158TIP3    H2 3439   6.593   0.672   3.766  0.5655  1.3451 -1.3140
 1159TIP3   OH2 3440   1.031   4.606   3.382  0.9018  0.1272  0.1706
 1159TIP3    H1 3441   1.101   4.634   3.441  0.6408  0.7422  0.2001
 1159TIP3    H2 3442   1.008   4.686   3.334  0.0976 -0.0264  0.2912
 1160TIP3   OH2 3443   6.451   4.248   1.182 -0.0663 -0.0001 -0.1884
 1160TIP3    H1 3444   6.501   4.169   1.167 -0.2084 -0.1933  0.3223
 1160TIP3    H2 3445   6.383   4.247   1.115  0.4112  0.1009 -0.6813
 1161TIP3   OH2 3446   1.467   2.673   1.635  0.0461  0.4391 -0.8475
 1161TIP3    H1 3447   1.561   2.689   1.644  0.2401  0.6431 -2.9277
 1161TIP3    H2 3448   1.427   2.760   1.638 -0.0059  0.4113 -0.7287
 1162TIP3   OH2 3449   2.971   4.031   3.363  0.0300  0.3203 -0.4195
 1162TIP3    H1 3450   3.041   4.075   3.412 -0.4872  0.0183  0.6201
 1162TIP3    H2 3451   2.892   4.046   3.415 -0.7220  0.7670 -1.6475
 1163TIP3   OH2 3452   6.756   1.791   3.652  0.3652 -0.4911  0.1688
 1163TIP3    H1 3453   6.730   1.873   3.693  1.0879 -0.2243  0.1072
 1163TIP3    H2 3454   6.697   1.781   3.578  1.1542  0.6903 -0.6571
 1164TIP3   OH2 3455   5.128   3.867   3.288  0.1802 -0.2684 -0.0659
 1164TIP3    H1 3456   5.052   3.925   3.280  0.1456 -0.4705 -1.5388
 1164TIP3    H2 3457   5.094   3.789   3.333 -0.1505  0.1995  0.5040
 1165TIP3   OH2 3458   5.422   1.477   0.708  0.0593  0.4214  0.0992
 1165TIP3    H1 3459   5.479   1.513   0.639 -0.6660 -1.5442 -1.6528
 1165TIP3    H2 3460   5.334   1.483   0.671 -0.7526  1.9203  2.1000
 1166TIP3   OH2 3461   4.987   5.345   0.392 -0.2582  0.4068  0.5411
 1166TIP3    H1 3462   4.997   5.300   0.476 -2.4697  0.7115  1.0189
 1166TIP3    H2 3463   5.077   5.354   0.359  0.5625 -0.7217  2.3260
 1167TIP3   OH2 3464   6.429   2.839   4.444 -0.2867 -0.7019  0.4510
 1167TIP3    H1 3465   6.400   2.879   4.362  0.6654  0.4372  0.6443
 1167TIP3    H2 3466   6.405   2.746   4.435  0.4054 -0.7447 -1.4076
 1168TIP3   OH2 3467   6.171   2.380   1.025 -0.1884 -0.3548  0.0186
 1168TIP3    H1 3468   6.254   2.332   1.014 -0.2981 -0.6502  0.4729
 1168TIP3    H2 3469   6.170   2.406   1.117  0.6200  1.9299 -0.5467
 1169TIP3   OH2 3470   5.626   5.152   1.336  0.2186  0.1984  0.5705
 1169TIP3    H1 3471   5.552   5.098   1.364  0.9049 -0.3425  1.3691
 1169TIP3    H2 3472   5.591   5.241   1.332 -0.6594 -0.1494  0.2246
 1170TIP3   OH2 3473   1.440   1.040   1.670 -0.1113 -0.1429 -0.6251
 1170TIP3    H1 3474   1.442   0.968   1.733  2.2330  1.6465  1.5808
 1170TIP3    H2 3475   1.523   1.033   1.623  0.1929  1.1167 -0.3157
 1171TIP3   OH2 3476   4.929   3.862   2.125  0.0801  0.2910  0.3766
 1171TIP3    H1 3477   5.011   3.823   2.096 -0.0538 -2.0612  2.7558
 1171TIP3    H2 3478   4.947   3.893   2.214 -1.7476 -1.0014  1.2680
 1172TIP3   OH2 3479   4.977   5.800   4.688 -0.2870 -0.0325 -0.0865
 1172TIP3    H1 3480   4.908   5.734   4.697 -0.2870 -0.0407 -0.1447
 1172TIP3    H2 3481   5.050   5.766   4.740 -0.3373 -0.0094 -0.0008
 1173TIP3   OH2 3482   5.028   1.240   2.104 -0.3342 -0.2430 -0.1477
 1173TIP3    H1 3483   4.942   1.223   2.143 -0.0757  1.3052  1.2268
 1173TIP3    H2 3484   5.021   1.328   2.066  0.4601 -0.3426 -0.5507
 1174TIP3   OH2 3485   3.760   3.790   4.724 -0.1224  0.2420 -0.3998
 1174TIP3    H1 3486   3.693   3.849   4.758  0.3814  1.0727 -0.8263
 1174TIP3    H2 3487   3.712   3.730   4.666 -0.4469  1.0705 -1.0050
 1175TIP3   OH2 3488   4.343   4.235   4.020 -0.9576  0.2327  0.1018
 1175TIP3    H1 3489   4.390   4.292   3.960 -1.8592 -0.0597 -0.9072
 1175TIP3    H2 3490   4.272   4.198   3.968 -0.4629 -1.7527  0.7256
 1176TIP3   OH2 3491   0.322   3.340   3.580  1.0821  0.4887  0.1715
 1176TIP3    H1 3492   0.250   3.289   3.617  1.2588 -0.3899 -0.6647
 1176TIP3    H2 3493   0.399   3.309   3.627  1.1501  0.1867 -0.1374
 1177TIP3   OH2 3494   1.054   2.699   1.513  0.4866  0.2092  0.2298
 1177TIP3    H1 3495   1.055   2.783   1.559 -3.3281 -1.2730  3.5917
 1177TIP3    H2 3496   0.976   2.702   1.458  0.6876 -0.9016 -0.1535
 1178TIP3   OH2 3497   0.058   4.617   3.200 -0.2935 -0.1865  0.1227
 1178TIP3    H1 3498   0.046   4.549   3.134  0.0357 -0.4489  0.3256
 1178TIP3    H2 3499   0.107   4.573   3.270 -1.0631 -0.0534  0.7590
 1179TIP3   OH2 3500   0.847   0.959   2.816  0.1922 -0.8605  0.1587
 1179TIP3    H1 3501   0.825   0.896   2.885  0.0062 -0.9751 -0.0046
 1179TIP3    H2 3502   0.764   0.999   2.792  0.4421  0.1335  0.9176
 1180TIP3   OH2 3503   0.460   1.603   0.458  0.1491  0.2469  0.2145
 1180TIP3    H1 3504   0.533   1.628   0.402 -0.6829  2.2000 -0.0810
 1180TIP3    H2 3505   0.384   1.605   0.400 -0.3246 -0.5681  0.7897
 1181TIP3   OH2 3506   5.280   2.973   3.339 -0.1649 -0.3008  0.3309
 1181TIP3    H1 3507   5.243   2.904   3.284  0.0405 -1.0642  1.1083
 1181TIP3    H2 3508   5.276   2.936   3.428  0.6542  0.3804  0.6615
 1182TIP3   OH2 3509   5.057   6.077   3.939 -0.0685 -0.4578 -0.8607
 1182TIP3    H1 3510   5.150   6.088   3.956 -0.2212  0.1519 -0.3969
 1182TIP3    H2 3511   5.020   6.164   3.948 -0.8836 -0.8908  0.1957
 1183TIP3   OH2 3512   3.913   4.799   3.961 -0.2200 -0.0933 -0.6625
 1183TIP3    H1 3513   3.995   4.750   3.962  0.2015  0.5490 -1.5658
 1183TIP3    H2 3514   3.920   4.860   4.034  0.4771  0.5104 -1.2175
 1184TIP3   OH2 3515   0.004   0.966   5.039 -0.1490  0.2509  0.2581
 1184TIP3    H1 3516   0.052   1.019   5.103 -0.0068  0.6235 -0.1517
 1184TIP3    H2 3517   0.046   0.880   5.043  2.4561  1.2851 -2.0631
 1185TIP3   OH2 3518   4.907   1.006   1.513 -0.5076  0.2395 -0.3715
 1185TIP3    H1 3519   4.867   1.084   1.474  0.8274  2.2593  2.0317
 1185TIP3    H2 3520   4.994   1.035   1.541 -0.1312 -1.9889  1.0362
 1186TIP3   OH2 3521   2.689   3.341   3.770  0.4275  0.1346 -0.3685
 1186TIP3    H1 3522   2.711   3.374   3.857  2.0112 -0.5504 -0.4680
 1186TIP3    H2 3523   2.746   3.390   3.711  1.2189 -1.1687 -0.7301
 1187TIP3   OH2 3524   6.123   1.200   4.514 -0.1273  0.1470 -0.5745
 1187TIP3    H1 3525   6.151   1.218   4.424  0.9628  1.5638  0.0019
 1187TIP3    H2 3526   6.065   1.273   4.537 -0.9175 -0.5377 -0.3172
 1188TIP3   OH2 3527   0.540   6.404   3.788 -0.0306 -0.1203  0.4042
 1188TIP3    H1 3528   0.445   6.399   3.796 -0.0440  1.7629  1.8340
 1188TIP3    H2 3529   0.571   6.321   3.825 -1.0758 -0.7075  0.0289
 1189TIP3   OH2 3530   4.760   1.181   2.818 -0.1525  0.5059  0.3250
 1189TIP3    H1 3531   4.735   1.091   2.842 -1.9939  1.0326  0.5618
 1189TIP3    H2 3532   4.811   1.171   2.738 -2.0056 -0.6811 -0.8013
 1190TIP3   OH2 3533   2.345   4.148   2.026  0.3864 -0.3298  0.0411
 1190TIP3    H1 3534   2.289   4.083   1.984 -0.5454  1.0061 -0.8672
 1190TIP3    H2 3535   2.327   4.138   2.120  0.6611 -1.6993 -0.0259
 1191TIP3   OH2 3536   1.431   2.046   5.311 -0.0420 -0.6592 -0.7243
 1191TIP3    H1 3537   1.457   2.138   5.317  1.9671 -1.1749 -1.0733
 1191TIP3    H2 3538   1.427   2.016   5.401  0.9827 -0.6561 -0.6675
 1192TIP3   OH2 3539   6.431   3.488   3.526  0.3879 -0.0179 -0.3177
 1192TIP3    H1 3540   6.480   3.561   3.564  0.4168  0.9185 -2.0419
 1192TIP3    H2 3541   6.451   3.492   3.432 -0.4708 -1.5908 -0.6046
 1193TIP3   OH2 3542   0.675   1.558   4.730  0.2181 -0.3436 -0.6987
 1193TIP3    H1 3543   0.690   1.492   4.663 -0.1663  1.8411 -3.0869
 1193TIP3    H2 3544   0.757   1.608   4.734 -0.5106  0.9405 -1.2294
 1194TIP3   OH2 3545   0.944   3.119   2.589  0.0611 -0.0329 -0.0104
 1194TIP3    H1 3546   1.017   3.120   2.528  0.4931 -3.1295  0.2870
 1194TIP3    H2 3547   0.930   3.211   2.613  3.1946  0.7468 -0.8276
 1195TIP3   OH2 3548   5.353   6.458   4.792 -0.1087  0.2651 -0.5151
 1195TIP3    H1 3549   5.297   6.381   4.782 -0.1260  0.4773 -2.2485
 1195TIP3    H2 3550   5.347   6.480   4.885  1.3933 -2.9511  0.4748
 1196TIP3   OH2 3551   1.815   0.219   1.024  0.3941  0.6461  0.2768
 1196TIP3    H1 3552   1.836   0.131   1.055  1.8849  1.6494  2.3510
 1196TIP3    H2 3553   1.778   0.206   0.937 -0.0210 -2.0612  0.7921
 1197TIP3   OH2 3554   4.818   4.134   2.531  0.3142 -1.0423 -0.1617
 1197TIP3    H1 3555   4.756   4.066   2.559  1.5725 -2.0527  0.2755
 1197TIP3    H2 3556   4.840   4.181   2.611 -1.6075  0.8568 -0.6649
 1198TIP3   OH2 3557   5.405   1.375   1.925  0.2925  0.5410  0.0546
 1198TIP3    H1 3558   5.355   1.397   2.003  2.2313 -0.0632  1.5324
 1198TIP3    H2 3559   5.417   1.281   1.930  0.9759  0.5817 -0.6385
 1199TIP3   OH2 3560   0.183   0.454   4.103 -0.1253  0.3364  0.3457
 1199TIP3    H1 3561   0.229   0.372   4.122  2.8190  1.5457 -0.9440
 1199TIP3    H2 3562   0.176   0.498   4.187 -1.5217 -1.0741  1.0129
 1200TIP3   OH2 3563   1.254   6.104   3.649  0.0919  0.1675 -0.4413
 1200TIP3    H1 3564   1.275   6.010   3.652 -0.0560  0.1003 -1.1988
 1200TIP3    H2 3565   1.336   6.145   3.619  0.5213  0.4234  1.0035
 1201TIP3   OH2 3566   0.363   2.764   3.971  0.0585  0.4501 -0.1853
 1201TIP3    H1 3567   0.292   2.817   3.935  0.0341  2.1956  2.1940
 1201TIP3    H2 3568   0.440   2.821   3.967  0.2778  0.3199  1.4043
 1202TIP3   OH2 3569   4.999   5.906   3.679 -0.1696  0.5792 -0.2045
 1202TIP3    H1 3570   4.986   5.975   3.744  0.0638  1.0828 -0.6836
 1202TIP3    H2 3571   4.941   5.836   3.707  0.0948  0.6967  0.6747
 1203TIP3   OH2 3572   7.019   3.355   5.145 -0.1015 -0.1450  0.4395
 1203TIP3    H1 3573   7.071   3.277   5.123 -0.6613 -0.5083  0.3819
 1203TIP3    H2 3574   7.049   3.422   5.083 -0.2155 -0.5678 -0.0761
 1204TIP3   OH2 3575   1.903   4.134   5.446 -0.2584  0.0654 -0.1134
 1204TIP3    H1 3576   1.925   4.169   5.359  0.8037 -0.0035  0.1156
 1204TIP3    H2 3577   1.813   4.162   5.461 -0.7409 -0.5794 -1.5724
 1205TIP3   OH2 3578   3.917   6.319   2.703  0.1851  0.4500  0.1753
 1205TIP3    H1 3579   3.851   6.254   2.729  1.2101 -0.6006  0.2446
 1205TIP3    H2 3580   3.881   6.402   2.732 -1.3357 -0.0301 -0.2156
 1206TIP3   OH2 3581   7.049   3.337   4.245 -0.0657  0.6227  0.3358
 1206TIP3    H1 3582   7.140   3.312   4.234  0.0031  1.3685 -1.0568
 1206TIP3    H2 3583   6.999   3.263   4.209  0.0988  1.4881 -1.8691
 1207TIP3   OH2 3584   3.055   1.977   1.400  0.2798 -0.0238 -0.1104
 1207TIP3    H1 3585   2.979   1.948   1.350 -1.1190  1.0705  1.2743
 1207TIP3    H2 3586   3.032   1.958   1.491  0.4728  2.6827  0.5958
 1208TIP3   OH2 3587   3.463   1.891   0.872  0.3354 -0.0123 -0.4870
 1208TIP3    H1 3588   3.483   1.983   0.889 -0.2654 -0.2089  1.4528
 1208TIP3    H2 3589   3.526   1.866   0.803 -0.0130  2.0151 -1.6324
 1209TIP3   OH2 3590   1.677   0.212   0.708  0.1391  0.4748  0.4911
 1209TIP3    H1 3591   1.614   0.162   0.760 -0.0173  0.3020  0.1348
 1209TIP3    H2 3592   1.643   0.302   0.710 -0.3988  0.2881 -0.1292
 1210TIP3   OH2 3593   2.215   0.691   4.687  0.3158  0.5286  0.4285
 1210TIP3    H1 3594   2.121   0.685   4.703  0.4522 -1.1713  0.7101
 1210TIP3    H2 3595   2.225   0.673   4.593  0.3800  0.5775  0.4252
 1211TIP3   OH2 3596   5.827   3.411   4.770  0.2683 -0.6055  0.0693
 1211TIP3    H1 3597   5.870   3.352   4.708 -0.5401 -2.5593  1.2823
 1211TIP3    H2 3598   5.822   3.494   4.723  2.5317 -1.1298 -1.2517
 1212TIP3   OH2 3599   4.639   4.724   1.433 -0.3367 -0.0223  0.1226
 1212TIP3    H1 3600   4.664   4.723   1.525 -2.3314  0.3205  0.7250
 1212TIP3    H2 3601   4.692   4.655   1.393 -0.5922 -1.3015  1.8677
 1213TIP3   OH2 3602   4.590   4.825   3.485 -0.4691  0.7196  0.0314
 1213TIP3    H1 3603   4.631   4.903   3.521  1.9237 -0.8260  0.8841
 1213TIP3    H2 3604   4.509   4.815   3.534 -0.1239  1.9011  0.8698
 1214TIP3   OH2 3605   2.104   0.390   4.248  0.4546  0.7491  0.0935
 1214TIP3    H1 3606   2.057   0.318   4.290 -0.0107  0.2383 -1.2401
 1214TIP3    H2 3607   2.196   0.370   4.261  0.3227  0.0477 -0.0490
 1215TIP3   OH2 3608   6.359   3.600   1.480 -0.7546  0.3103 -0.2784
 1215TIP3    H1 3609   6.370   3.678   1.535  0.8526  0.1635 -0.3739
 1215TIP3    H2 3610   6.418   3.613   1.407  1.2280 -1.9618  0.7962
 1216TIP3   OH2 3611   4.598   6.127   5.696 -0.1525 -0.4997 -0.2989
 1216TIP3    H1 3612   4.527   6.096   5.752  0.8121 -0.7106  0.8480
 1216TIP3    H2 3613   4.662   6.165   5.756  2.6440 -3.9585 -0.7541
 1217TIP3   OH2 3614   2.746   5.613   2.050  0.3211 -0.0513  0.0221
 1217TIP3    H1 3615   2.770   5.560   2.125 -0.5757 -0.1400  0.2545
 1217TIP3    H2 3616   2.681   5.675   2.083 -0.2609 -0.2431 -0.7203
 1218TIP3   OH2 3617   7.159   5.152   2.199  0.1791  0.4674 -0.6745
 1218TIP3    H1 3618   7.221   5.100   2.252 -0.4784 -1.2891 -1.5511
 1218TIP3    H2 3619   7.075   5.141   2.244 -0.3940 -1.0743 -2.0381
 1219TIP3   OH2 3620   0.597   4.099   0.096 -0.1227 -0.0226  0.1769
 1219TIP3    H1 3621   0.606   4.110   0.001  0.9591  1.8862  0.4598
 1219TIP3    H2 3622   0.607   4.005   0.110 -0.5134 -0.3593 -1.6148
 1220TIP3   OH2 3623   3.344   5.773   1.055 -0.2327  0.5239  0.3874
 1220TIP3    H1 3624   3.353   5.857   1.010  0.7378  1.0491  1.5052
 1220TIP3    H2 3625   3.250   5.762   1.068 -0.4650  0.7514 -0.9979
 1221TIP3   OH2 3626   1.866   1.383   5.618 -0.1726  0.0330  0.2546
 1221TIP3    H1 3627   1.813   1.304   5.628 -0.0989  0.0547  0.9118
 1221TIP3    H2 3628   1.807   1.448   5.582 -0.5534  0.0056  0.8152
 1222TIP3   OH2 3629   0.484   6.196   3.287  0.5483 -0.4886 -0.8290
 1222TIP3    H1 3630   0.432   6.242   3.221 -0.0956 -1.6039 -1.1246
 1222TIP3    H2 3631   0.511   6.114   3.244  1.3450 -0.5776 -0.1930
 1223TIP3   OH2 3632   6.984   3.613   3.085 -0.5986  0.1996 -0.4902
 1223TIP3    H1 3633   7.054   3.639   3.026 -1.5698  1.1481 -1.2747
 1223TIP3    H2 3634   7.020   3.625   3.173  0.2059  0.7035 -0.8859
 1224TIP3   OH2 3635   0.439   5.008   4.755 -0.5018  0.6086 -0.6636
 1224TIP3    H1 3636   0.418   4.915   4.751  0.6737  0.3537 -1.2782
 1224TIP3    H2 3637   0.384   5.048   4.688 -0.3647  0.2307 -1.0041
 1225TIP3   OH2 3638   3.691   3.576   3.174 -0.6698 -0.0652  0.6665
 1225TIP3    H1 3639   3.683   3.642   3.243 -2.6334  0.1178  0.3163
 1225TIP3    H2 3640   3.601   3.562   3.143  0.0154 -0.9998 -1.0544
 1226TIP3   OH2 3641   2.008   2.161   5.210  0.0291  0.4983  1.1909
 1226TIP3    H1 3642   2.051   2.077   5.225 -0.7085  0.1535  1.4047
 1226TIP3    H2 3643   1.923   2.153   5.252 -0.2930  1.1364  0.6866
 1227TIP3   OH2 3644   6.952   3.092   4.943  0.3792 -0.4341 -0.0733
 1227TIP3    H1 3645   6.972   3.048   4.860  1.0462  1.1301 -0.7767
 1227TIP3    H2 3646   7.037   3.121   4.976 -0.0292  0.2199  0.4273
 1228TIP3   OH2 3647   4.651   4.009   2.309 -0.4078 -0.2400  0.1030
 1228TIP3    H1 3648   4.709   4.085   2.310  1.0580 -1.2434  2.8405
 1228TIP3    H2 3649   4.647   3.981   2.400 -1.7702 -2.8241 -0.6561
 1229TIP3   OH2 3650   1.106   2.781   3.919  0.3310 -0.2013 -0.0326
 1229TIP3    H1 3651   1.164   2.755   3.847  0.1626  0.6470 -0.4884
 1229TIP3    H2 3652   1.019   2.756   3.890  0.1552  0.8878 -0.5151
 1230TIP3   OH2 3653   1.220   4.767   1.222 -0.4068  0.4046 -0.1935
 1230TIP3    H1 3654   1.314   4.788   1.226 -0.0441 -0.7495 -1.6225
 1230TIP3    H2 3655   1.212   4.687   1.274 -0.7713  0.9975  0.6703
 1231TIP3   OH2 3656   6.362   5.155   4.560  0.1549 -0.2262  0.7910
 1231TIP3    H1 3657   6.321   5.097   4.624  0.7403 -0.9437  0.5276
 1231TIP3    H2 3658   6.292   5.173   4.496 -0.2060 -0.1274  1.2055
 1232TIP3   OH2 3659   0.105   5.770   3.121  0.5548 -0.4250  0.0551
 1232TIP3    H1 3660   0.198   5.758   3.101  0.5607 -0.3562  0.0414
 1232TIP3    H2 3661   0.094   5.729   3.207  1.0095  1.2408  0.9404
 1233TIP3   OH2 3662   6.271   5.827   0.481 -0.0784 -0.0541  0.0873
 1233TIP3    H1 3663   6.367   5.833   0.486 -0.1569  0.5693  1.3325
 1233TIP3    H2 3664   6.251   5.845   0.389  0.9893 -0.0907 -0.1753
 1234TIP3   OH2 3665   1.184   4.938   5.128 -0.0149  0.1212  0.3481
 1234TIP3    H1 3666   1.249   4.874   5.102  1.1502  1.5292 -0.3523
 1234TIP3    H2 3667   1.194   4.945   5.223 -1.1885 -1.7615  0.6645
 1235TIP3   OH2 3668   4.649   1.770   0.040  0.3208 -0.3811 -0.1408
 1235TIP3    H1 3669   4.628   1.718   0.117 -2.9937 -0.8438 -1.1894
 1235TIP3    H2 3670   4.646   1.707  -0.033  0.7192  0.4976 -0.9353
 1236TIP3   OH2 3671   4.490   6.581   3.308 -0.1868  0.1476  0.6703
 1236TIP3    H1 3672   4.407   6.561   3.351 -0.0602 -1.3421  0.2715
 1236TIP3    H2 3673   4.551   6.599   3.380 -0.3738 -0.7322  1.0622
 1237TIP3   OH2 3674   0.234   0.753   2.127  0.1777 -0.1539 -0.4422
 1237TIP3    H1 3675   0.154   0.755   2.074 -0.4350  1.2844  0.4642
 1237TIP3    H2 3676   0.298   0.803   2.076  0.4530 -1.1214 -1.0689
 1238TIP3   OH2 3677   6.131   1.320   0.573 -0.3346  0.0457 -0.3621
 1238TIP3    H1 3678   6.168   1.238   0.604  2.3053  0.3189 -2.3517
 1238TIP3    H2 3679   6.178   1.388   0.622 -1.6443  0.4256  0.4219
 1239TIP3   OH2 3680   5.100   4.041   5.148 -0.1927 -0.3167  0.1328
 1239TIP3    H1 3681   5.017   4.009   5.183  0.0240 -0.9876  0.0411
 1239TIP3    H2 3682   5.074   4.110   5.086 -0.6086  0.3464  1.0239
 1240TIP3   OH2 3683   2.442   0.972   4.753  0.0947 -0.1225 -0.0343
 1240TIP3    H1 3684   2.505   1.007   4.691  0.8865 -1.6927 -0.1580
 1240TIP3    H2 3685   2.358   1.007   4.724  0.8741  2.1226  0.2258
 1241TIP3   OH2 3686   6.009   5.131   1.561  0.0881 -0.1353 -0.6351
 1241TIP3    H1 3687   5.961   5.179   1.494 -0.6289  0.5402  0.3342
 1241TIP3    H2 3688   6.042   5.199   1.621  3.6750 -0.3756 -2.0716
 1242TIP3   OH2 3689   4.316   1.325   3.814  0.5078  0.5263  0.5772
 1242TIP3    H1 3690   4.265   1.370   3.881  1.2060  0.5072  1.1262
 1242TIP3    H2 3691   4.400   1.306   3.856  0.4524 -0.7313  0.1554
 1243TIP3   OH2 3692   3.197   5.407   1.635 -0.1005  0.4022 -0.0871
 1243TIP3    H1 3693   3.230   5.479   1.581 -0.6350  0.1517 -0.7629
 1243TIP3    H2 3694   3.162   5.344   1.572  0.6489 -0.6078  0.4665
 1244TIP3   OH2 3695   4.334   1.664   0.062  0.2383  1.0001 -0.5169
 1244TIP3    H1 3696   4.268   1.657  -0.007 -0.5631 -0.2022  0.3422
 1244TIP3    H2 3697   4.340   1.576   0.099  0.9357  1.5258  0.6803
 1245TIP3   OH2 3698   6.057   3.227   4.570  0.1646 -0.0122 -0.2817
 1245TIP3    H1 3699   6.017   3.287   4.508  1.2603  1.6229  0.5368
 1245TIP3    H2 3700   6.012   3.144   4.555 -1.7938  1.1237 -1.0423
 1246TIP3   OH2 3701   5.196   0.183   3.154  0.5225 -0.2648  0.6489
 1246TIP3    H1 3702   5.258   0.110   3.152 -0.0925 -0.7888 -0.7938
 1246TIP3    H2 3703   5.159   0.185   3.066 -0.3386  1.0602  1.0111
 1247TIP3   OH2 3704   4.901   3.329   0.752 -0.4083  0.2546 -0.1894
 1247TIP3    H1 3705   4.898   3.419   0.786 -0.9505  0.3465 -0.4876
 1247TIP3    H2 3706   4.834   3.282   0.802 -0.1257  0.0089 -0.0340
 1248TIP3   OH2 3707   0.410   0.157   1.054 -0.3114 -0.6186 -0.7220
 1248TIP3    H1 3708   0.361   0.126   1.130 -1.1881 -0.0905 -1.0431
 1248TIP3    H2 3709   0.354   0.135   0.979  0.3142 -0.7040 -1.1743
 1249TIP3   OH2 3710   3.829  -0.016   4.288 -0.5618 -0.2266  0.3256
 1249TIP3    H1 3711   3.804   0.076   4.295  0.4043  0.1855 -1.2301
 1249TIP3    H2 3712   3.874  -0.035   4.371 -0.7305  0.7053  0.6405
 1250TIP3   OH2 3713   2.444   0.203   4.694 -0.0483  0.2362  0.5436
 1250TIP3    H1 3714   2.518   0.189   4.635  0.0387  1.3938  0.3452
 1250TIP3    H2 3715   2.374   0.237   4.638 -0.4714 -0.0930  0.8623
 1251TIP3   OH2 3716   7.159   3.852   4.341 -0.1136  0.2489 -0.4893
 1251TIP3    H1 3717   7.220   3.900   4.285 -0.9383 -1.1779 -2.7625
 1251TIP3    H2 3718   7.214   3.813   4.409  0.7870  2.8695  0.3775
 1252TIP3   OH2 3719   2.531   5.041   2.562 -0.1442  0.0894 -0.1720
 1252TIP3    H1 3720   2.452   4.998   2.593 -2.5705  1.9443 -3.1667
 1252TIP3    H2 3721   2.518   5.049   2.467  4.2725 -0.6304 -1.0568
 1253TIP3   OH2 3722   1.507   4.747   1.024 -1.1482  0.5289  0.2755
 1253TIP3    H1 3723   1.484   4.712   1.110 -0.3973  0.8777  0.6316
 1253TIP3    H2 3724   1.601   4.765   1.030 -1.1382  0.8016 -0.5358
 1254TIP3   OH2 3725   0.368   0.560   4.671  0.1094  0.6870 -0.4283
 1254TIP3    H1 3726   0.369   0.613   4.592  1.1552 -1.6722 -2.1470
 1254TIP3    H2 3727   0.457   0.526   4.679 -0.5044 -0.8570  0.4968
 1255TIP3   OH2 3728   0.923   2.049   5.023  0.2661  0.1540 -0.4263
 1255TIP3    H1 3729   0.951   2.138   5.046 -0.5087  0.4361 -0.5522
 1255TIP3    H2 3730   0.870   2.020   5.097  1.0535 -0.4685 -0.0868
 1256TIP3   OH2 3731   0.974   0.836   0.138 -0.5399 -0.2560  0.2789
 1256TIP3    H1 3732   0.931   0.918   0.114  0.0273  0.0757  0.3791
 1256TIP3    H2 3733   0.994   0.793   0.054 -0.0637  0.1153  0.2002
 1257TIP3   OH2 3734   5.455   5.301   4.486  0.6387 -0.2315  0.6022
 1257TIP3    H1 3735   5.416   5.283   4.571  0.0034 -0.1434  0.3384
 1257TIP3    H2 3736   5.382   5.291   4.424  0.2825  2.7413  0.3752
 1258TIP3   OH2 3737   0.846   6.433   1.108  0.0530 -0.3133  0.2071
 1258TIP3    H1 3738   0.879   6.499   1.046 -1.1631 -0.7647 -0.9706
 1258TIP3    H2 3739   0.765   6.402   1.069  0.2989 -2.1099  1.0269
 1259TIP3   OH2 3740   5.975   5.859   4.672  0.2713 -0.2526  0.1595
 1259TIP3    H1 3741   6.058   5.829   4.636 -0.4401 -0.4703 -1.4242
 1259TIP3    H2 3742   5.909   5.826   4.611 -0.9549  0.2287  1.1625
 1260TIP3   OH2 3743   7.131   3.784   1.557  0.3170  0.2072 -0.0743
 1260TIP3    H1 3744   7.180   3.844   1.612 -0.3754  1.0736 -0.3853
 1260TIP3    H2 3745   7.046   3.776   1.600 -0.7808  2.0606 -1.7332
 1261TIP3   OH2 3746   4.263   0.666   5.825  0.0741  0.3018 -0.0731
 1261TIP3    H1 3747   4.285   0.575   5.803 -0.1205  0.1149  0.5012
 1261TIP3    H2 3748   4.346   0.705   5.852  0.2712  0.4671 -0.8694
 1262TIP3   OH2 3749   1.793   2.747   5.467 -0.2628  0.2328 -0.7834
 1262TIP3    H1 3750   1.706   2.717   5.442 -1.4548  1.9459  0.9922
 1262TIP3    H2 3751   1.830   2.782   5.386 -1.4387 -0.0008 -1.4491
 1263TIP3   OH2 3752   3.935   3.523   1.124 -0.3676  0.0551  0.3965
 1263TIP3    H1 3753   3.969   3.493   1.040 -1.8610 -0.9207  0.1025
 1263TIP3    H2 3754   3.934   3.619   1.117  1.8337  0.1080  0.2814
 1264TIP3   OH2 3755   4.767   5.430   1.365  0.2235  0.0344  0.3825
 1264TIP3    H1 3756   4.837   5.366   1.377 -0.1720 -0.0966  2.3599
 1264TIP3    H2 3757   4.712   5.393   1.296  2.2358  0.3114 -1.4398
 1265TIP3   OH2 3758   6.413   1.124   5.907  0.0429 -0.0293 -0.3872
 1265TIP3    H1 3759   6.422   1.213   5.873  1.3760 -0.1800 -0.4728
 1265TIP3    H2 3760   6.422   1.068   5.830  0.4207 -0.2827 -0.1589
 1266TIP3   OH2 3761   6.988   1.729   5.634  0.1197 -0.9163  0.1557
 1266TIP3    H1 3762   7.027   1.642   5.632 -0.1960 -1.0689  0.4657
 1266TIP3    H2 3763   7.061   1.789   5.621  0.1256 -1.2752 -1.9381
 1267TIP3   OH2 3764   5.915   5.761   3.351  0.3114  0.3255 -0.3609
 1267TIP3    H1 3765   5.920   5.781   3.257 -0.1748 -0.4061 -0.5530
 1267TIP3    H2 3766   6.005   5.766   3.381  0.3666  1.5137 -0.6538
 1268TIP3   OH2 3767   3.088   2.181   2.062  0.0020 -0.0603  0.7338
 1268TIP3    H1 3768   2.993   2.188   2.071  0.1331  2.4573  0.8542
 1268TIP3    H2 3769   3.122   2.212   2.146  0.9289 -0.0684  0.3686
 1269TIP3   OH2 3770   0.509   0.506   5.720 -0.6954 -0.3526 -0.0982
 1269TIP3    H1 3771   0.544   0.460   5.797  1.8111 -2.9785 -2.5935
 1269TIP3    H2 3772   0.577   0.568   5.695 -1.0451 -0.2369 -0.7965
 1270TIP3   OH2 3773   1.484   2.381   3.598 -0.1955  0.5688 -0.0707
 1270TIP3    H1 3774   1.450   2.398   3.510 -1.4415  0.2055  0.3129
 1270TIP3    H2 3775   1.539   2.456   3.617 -0.4202  0.9636 -0.9168
 1271TIP3   OH2 3776   4.949   6.510   2.784  0.3709 -0.2784  0.2809
 1271TIP3    H1 3777   4.889   6.518   2.858  1.2154  1.9080  0.7957
 1271TIP3    H2 3778   4.945   6.417   2.760 -2.2410 -0.4496  1.0585
 1272TIP3   OH2 3779   4.486   5.738   0.525 -0.1862 -0.3689 -0.3645
 1272TIP3    H1 3780   4.575   5.709   0.506  0.4196  1.1130  0.1160
 1272TIP3    H2 3781   4.466   5.801   0.455  0.7341  2.4365  1.7435
 1273TIP3   OH2 3782   6.353   6.531   1.614 -0.3801  0.2816  0.7522
 1273TIP3    H1 3783   6.339   6.524   1.520  0.7531  1.6618  0.4561
 1273TIP3    H2 3784   6.412   6.459   1.635  0.0141  0.4586  0.2660
 1274TIP3   OH2 3785   2.745   2.005   1.594  0.1871  0.1152  0.5348
 1274TIP3    H1 3786   2.726   2.088   1.552 -0.3723 -0.4990 -0.4485
 1274TIP3    H2 3787   2.659   1.968   1.616  0.3671 -0.8045 -0.2422
 1275TIP3   OH2 3788   4.155   0.264   2.819 -0.2340 -0.4142 -0.0917
 1275TIP3    H1 3789   4.075   0.238   2.865 -0.1579  0.6565  0.7006
 1275TIP3    H2 3790   4.185   0.342   2.866  1.6964 -1.2207  0.1212
 1276TIP3   OH2 3791   6.480   2.994   5.713  0.2372 -0.3094 -0.0364
 1276TIP3    H1 3792   6.390   3.000   5.682 -0.0480 -0.7696  0.6745
 1276TIP3    H2 3793   6.479   2.922   5.776  1.1522 -0.4714 -0.1868
 1277TIP3   OH2 3794   2.101   0.655   5.728 -0.1696 -0.0911  0.2917
 1277TIP3    H1 3795   2.158   0.726   5.757  0.2476  0.2877 -1.3490
 1277TIP3    H2 3796   2.038   0.697   5.670 -1.6504 -0.6466  1.4378
 1278TIP3   OH2 3797   4.249   3.363   3.563 -0.0036 -0.1909 -0.2879
 1278TIP3    H1 3798   4.158   3.359   3.533 -0.3989  3.9725 -0.2523
 1278TIP3    H2 3799   4.242   3.386   3.656  1.2055 -2.3659  0.4146
 1279TIP3   OH2 3800   3.995   2.995   4.682 -0.2679  0.2008  0.0156
 1279TIP3    H1 3801   4.065   2.953   4.732 -0.7883 -1.4168 -0.5331
 1279TIP3    H2 3802   4.032   3.079   4.655 -0.0393  1.2438  3.2165
 1280TIP3   OH2 3803   1.741   4.143   3.597  0.0690 -0.1334  0.4595
 1280TIP3    H1 3804   1.705   4.155   3.509 -0.3744 -1.0937  0.4966
 1280TIP3    H2 3805   1.804   4.214   3.607 -1.3807  1.2401  0.1667
 1281TIP3   OH2 3806   0.436   6.753   2.039 -0.0886 -0.6566 -0.5632
 1281TIP3    H1 3807   0.386   6.673   2.022 -0.4023 -1.2027  2.4226
 1281TIP3    H2 3808   0.521   6.723   2.070  0.4095  0.2259 -1.0248
 1282TIP3   OH2 3809   2.020   4.660   0.463 -0.0241  0.9158  0.0218
 1282TIP3    H1 3810   1.951   4.644   0.527  1.1003 -1.7923  0.7160
 1282TIP3    H2 3811   1.982   4.633   0.380 -0.2640  0.7060  0.1957
 1283TIP3   OH2 3812   3.263   4.956   1.192  0.1892 -0.7082  0.1273
 1283TIP3    H1 3813   3.187   4.962   1.249 -1.3659 -1.0426 -1.8163
 1283TIP3    H2 3814   3.233   4.989   1.108  3.1115  2.3508  0.0520
 1284TIP3   OH2 3815   1.349   1.405   1.482  0.1441 -0.3561 -0.1023
 1284TIP3    H1 3816   1.442   1.387   1.498  0.1892  0.2377  0.3721
 1284TIP3    H2 3817   1.326   1.350   1.408  0.9205 -0.4050 -0.3190
 1285TIP3   OH2 3818   5.316   0.933   5.370  0.5994  0.2081 -0.4152
 1285TIP3    H1 3819   5.345   0.999   5.433 -0.2567  0.9910 -0.8296
 1285TIP3    H2 3820   5.376   0.944   5.296  1.0138 -0.0876 -0.1331
 1286TIP3   OH2 3821   5.487   4.449   0.237  0.2080 -0.2968  0.0046
 1286TIP3    H1 3822   5.552   4.503   0.281 -0.7022  1.7095 -0.9967
 1286TIP3    H2 3823   5.412   4.507   0.225 -0.5613 -1.5748 -1.7657
 1287TIP3   OH2 3824   3.498   1.526   5.535  0.4082  0.0739 -0.4911
 1287TIP3    H1 3825   3.523   1.445   5.490  0.2378 -0.0840 -0.3037
 1287TIP3    H2 3826   3.534   1.516   5.624  0.2422  0.1282 -0.4163
 1288TIP3   OH2 3827   6.775   6.677   5.372 -0.2804 -0.4060 -0.0344
 1288TIP3    H1 3828   6.779   6.723   5.288 -1.5922 -0.6914 -0.2751
 1288TIP3    H2 3829   6.744   6.589   5.350 -2.2043 -0.0068  0.8864
 1289TIP3   OH2 3830   3.532   5.347   5.594  0.0919 -0.4980 -0.3529
 1289TIP3    H1 3831   3.598   5.403   5.636  0.9352 -1.3924 -0.4337
 1289TIP3    H2 3832   3.542   5.365   5.501  0.0601 -0.4614 -0.3494
 1290TIP3   OH2 3833   5.389   3.754   0.136  0.6297  0.5513 -0.1224
 1290TIP3    H1 3834   5.393   3.750   0.232 -0.3542 -0.6993 -0.0949
 1290TIP3    H2 3835   5.424   3.840   0.114 -0.9683  1.7044  1.4902
 1291TIP3   OH2 3836   1.653   1.006   0.879  0.4392 -0.6173 -0.5838
 1291TIP3    H1 3837   1.687   1.094   0.894 -1.3393  0.1424 -0.8236
 1291TIP3    H2 3838   1.639   0.970   0.967  2.0886 -1.0884 -0.4673
 1292TIP3   OH2 3839   5.394   0.950   5.679 -0.1020  0.5364 -0.3333
 1292TIP3    H1 3840   5.387   1.032   5.631 -2.0086 -0.6685 -2.2955
 1292TIP3    H2 3841   5.308   0.939   5.719 -0.5668 -1.3781 -1.7233
 1293TIP3   OH2 3842   6.870   2.599   1.881 -0.0412 -0.6738 -0.2694
 1293TIP3    H1 3843   6.858   2.677   1.827 -0.0470 -0.2021  0.3934
 1293TIP3    H2 3844   6.871   2.632   1.971 -0.4767 -1.4850  0.0504
 1294TIP3   OH2 3845   0.689   5.273   0.245 -0.1743 -0.2303  0.2574
 1294TIP3    H1 3846   0.715   5.198   0.299 -1.0921  0.2207  1.3762
 1294TIP3    H2 3847   0.645   5.332   0.306  1.0655  1.5272 -0.4543
 1295TIP3   OH2 3848   5.373   4.654   1.935 -0.0740 -0.1103 -0.0699
 1295TIP3    H1 3849   5.292   4.614   1.966 -0.2521  1.0110  0.9797
 1295TIP3    H2 3850   5.376   4.739   1.979  0.3236  1.0239 -2.1682
 1296TIP3   OH2 3851   2.743   0.483   3.983  0.1170 -0.2867 -0.1399
 1296TIP3    H1 3852   2.753   0.467   3.889  0.7052  0.2962 -0.1892
 1296TIP3    H2 3853   2.649   0.494   3.996 -0.4620 -4.0691 -0.0210
 1297TIP3   OH2 3854   1.560   5.331   4.114  0.5239  0.0651 -0.0022
 1297TIP3    H1 3855   1.648   5.297   4.100  0.9970  1.2372 -0.0201
 1297TIP3    H2 3856   1.547   5.326   4.209  1.4178  1.7006  0.2517
 1298TIP3   OH2 3857   3.562   4.916   4.192 -0.4198  0.6348  0.3169
 1298TIP3    H1 3858   3.581   4.993   4.244 -0.4073 -0.4378  1.9719
 1298TIP3    H2 3859   3.640   4.860   4.202 -0.1978  0.6094 -1.2858
 1299TIP3   OH2 3860   4.377   5.254   2.370 -0.2777  0.4410  0.4479
 1299TIP3    H1 3861   4.468   5.232   2.390  0.2729  1.3883 -0.8927
 1299TIP3    H2 3862   4.335   5.169   2.357  0.3028 -0.0271  1.4316
 1300TIP3   OH2 3863   0.423   6.010   1.214  0.2849  0.0658 -0.4309
 1300TIP3    H1 3864   0.329   6.001   1.230  0.3275 -1.8787 -0.9856
 1300TIP3    H2 3865   0.464   5.947   1.273  1.1222 -0.1617 -1.2237
 1301TIP3   OH2 3866   3.364   3.201   2.986 -0.0740  0.0266  0.2303
 1301TIP3    H1 3867   3.391   3.182   3.076  1.6650 -2.8180 -0.7598
 1301TIP3    H2 3868   3.272   3.174   2.982 -0.5734  1.4249  1.4275
 1302TIP3   OH2 3869   3.949   6.644   1.260  0.1167  0.0179  0.1113
 1302TIP3    H1 3870   4.014   6.690   1.207  1.2773  1.1033  2.3415
 1302TIP3    H2 3871   3.865   6.672   1.224  0.8444  1.7046 -0.3754
 1303TIP3   OH2 3872   6.507   4.881   4.705  0.5803 -0.0571  0.7109
 1303TIP3    H1 3873   6.559   4.962   4.703  0.7911 -0.1516  1.6774
 1303TIP3    H2 3874   6.419   4.908   4.678  1.0944  0.1070 -0.9365
 1304TIP3   OH2 3875   4.686   6.805   2.015  0.0323 -0.3827  0.1445
 1304TIP3    H1 3876   4.658   6.807   2.106 -2.0607 -0.0710 -0.4496
 1304TIP3    H2 3877   4.729   6.719   2.005  0.7901 -0.1984  1.5151
 1305TIP3   OH2 3878   2.228   3.488   1.516 -0.5344 -0.1747 -1.0341
 1305TIP3    H1 3879   2.294   3.556   1.527 -0.1025 -0.4465 -1.8501
 1305TIP3    H2 3880   2.157   3.513   1.576  0.3168  0.0951 -0.1181
 1306TIP3   OH2 3881   0.546   1.776   1.322 -0.1942 -0.3434 -0.2029
 1306TIP3    H1 3882   0.452   1.760   1.316  0.0735 -1.7734 -1.2787
 1306TIP3    H2 3883   0.553   1.863   1.362 -1.9347 -0.6160  0.8299
 1307TIP3   OH2 3884   2.707   2.872   4.802  0.5558 -0.1046  0.3851
 1307TIP3    H1 3885   2.789   2.917   4.783  0.2136 -0.5138 -2.5890
 1307TIP3    H2 3886   2.732   2.780   4.809  0.3365 -0.2804 -0.9440
 1308TIP3   OH2 3887   4.378   1.325   3.519 -0.6063 -0.0094 -0.3122
 1308TIP3    H1 3888   4.412   1.415   3.515 -0.8203  0.1367  0.7723
 1308TIP3    H2 3889   4.338   1.319   3.606 -2.1365 -0.6181 -1.0267
 1309TIP3   OH2 3890   7.127   4.250   0.131  0.2683  0.6670 -0.5599
 1309TIP3    H1 3891   7.051   4.220   0.082  0.9836  0.5051 -1.6088
 1309TIP3    H2 3892   7.128   4.345   0.119  1.2914  0.4915 -2.1919
 1310TIP3   OH2 3893   1.750   0.677   5.318 -0.7194  0.4870  0.4481
 1310TIP3    H1 3894   1.812   0.641   5.381  0.6757  1.3192 -0.3961
 1310TIP3    H2 3895   1.712   0.601   5.275 -0.1047 -0.0347  0.8119
 1311TIP3   OH2 3896   3.323   3.411   2.514 -0.0437 -0.6869 -0.1459
 1311TIP3    H1 3897   3.365   3.358   2.581 -1.0338 -0.3968  0.7241
 1311TIP3    H2 3898   3.361   3.498   2.524  1.4763 -1.1429 -1.4811
 1312TIP3   OH2 3899   1.476   3.754   1.236 -0.3079  0.1303  0.2237
 1312TIP3    H1 3900   1.510   3.785   1.152 -0.0550 -0.2515  0.1844
 1312TIP3    H2 3901   1.382   3.741   1.220 -0.0921 -0.8889 -0.2881
 1313TIP3   OH2 3902   4.633   2.138   5.292  0.2016 -0.2466 -0.2179
 1313TIP3    H1 3903   4.728   2.140   5.297  0.1930  1.0754 -0.1220
 1313TIP3    H2 3904   4.613   2.069   5.229  1.2549  0.0074 -0.8491
 1314TIP3   OH2 3905   7.026   5.530   4.707  0.0490  0.3075  0.0198
 1314TIP3    H1 3906   6.979   5.610   4.685  0.2749 -0.0117 -1.8459
 1314TIP3    H2 3907   7.072   5.550   4.788 -3.0430  0.7194  1.8609
 1315TIP3   OH2 3908   3.922   4.319   3.203 -0.5867 -0.4016 -0.2666
 1315TIP3    H1 3909   3.842   4.345   3.159 -0.5199  0.7811  0.2798
 1315TIP3    H2 3910   3.965   4.401   3.228  0.3549 -1.0155  0.2323
 1316TIP3   OH2 3911   2.196   4.875   0.551 -0.4549 -0.2736  0.3077
 1316TIP3    H1 3912   2.129   4.807   0.542 -0.5476 -0.3391  1.3102
 1316TIP3    H2 3913   2.196   4.921   0.467 -0.4200 -1.4854 -0.3794
 1317TIP3   OH2 3914   1.490   6.435   4.906  0.5811  0.1674 -0.0272
 1317TIP3    H1 3915   1.548   6.464   4.835  0.5513  0.1724 -0.0493
 1317TIP3    H2 3916   1.433   6.510   4.923  0.3663  0.0498 -0.2248
 1318TIP3   OH2 3917   0.732   5.783   0.280  0.1552  0.1630 -0.7606
 1318TIP3    H1 3918   0.827   5.778   0.280  0.1027 -1.1799 -0.1028
 1318TIP3    H2 3919   0.711   5.841   0.353  0.4000 -2.4022  1.4580
 1319TIP3   OH2 3920   2.581   0.463   4.515 -0.6503 -0.2376  0.2936
 1319TIP3    H1 3921   2.538   0.472   4.430  1.6735 -0.1317 -0.9382
 1319TIP3    H2 3922   2.640   0.389   4.505  0.9755  0.8770  1.2152
 1320TIP3   OH2 3923   4.285   0.262   5.013  0.0031 -0.2592  0.5435
 1320TIP3    H1 3924   4.215   0.242   4.951 -0.0219  2.6795 -0.5408
 1320TIP3    H2 3925   4.257   0.222   5.095 -0.9478 -2.5284 -0.7766
 1321TIP3   OH2 3926   2.406   0.694   4.257 -0.0268 -0.1856 -0.5962
 1321TIP3    H1 3927   2.452   0.775   4.281 -0.1444  0.4484 -2.3309
 1321TIP3    H2 3928   2.368   0.714   4.171 -1.3576 -1.5817 -0.3548
 1322TIP3   OH2 3929   6.963   0.118   4.305 -0.2182 -0.3913 -0.2533
 1322TIP3    H1 3930   6.911   0.138   4.227  1.5244  0.2537 -1.3123
 1322TIP3    H2 3931   7.012   0.039   4.282 -0.1548 -0.5495  0.4199
 1323TIP3   OH2 3932   5.491   5.167   2.933 -0.1774  0.0465 -0.4526
 1323TIP3    H1 3933   5.485   5.262   2.933  0.1473  0.0708 -0.8843
 1323TIP3    H2 3934   5.415   5.138   2.983 -0.9381  0.4903 -1.3291
 1324TIP3   OH2 3935   1.371   5.602   0.416 -0.5195  0.0695  0.8308
 1324TIP3    H1 3936   1.403   5.670   0.356  0.5578  0.1583  1.4726
 1324TIP3    H2 3937   1.418   5.523   0.389 -2.1056 -0.5537 -0.2047
 1325TIP3   OH2 3938   1.848   1.321   1.824 -0.0012 -0.0102  0.1727
 1325TIP3    H1 3939   1.755   1.310   1.842 -0.2281  1.2533 -0.1043
 1325TIP3    H2 3940   1.875   1.393   1.881  0.6920 -0.0562 -0.0864
 1326TIP3   OH2 3941   5.165   1.868   0.866  0.3170  0.1012 -0.1344
 1326TIP3    H1 3942   5.183   1.927   0.940  1.6837  0.6870 -0.9072
 1326TIP3    H2 3943   5.100   1.915   0.813 -1.5548 -0.8075  1.2153
 1327TIP3   OH2 3944   1.850   2.009   3.137 -0.0278  0.2142  0.1671
 1327TIP3    H1 3945   1.921   2.068   3.162  0.0195  0.0400  0.4555
 1327TIP3    H2 3946   1.894   1.928   3.111 -0.1106  0.1547  0.2095
 1328TIP3   OH2 3947   0.531   3.366   5.103 -0.3718 -0.4097  1.2721
 1328TIP3    H1 3948   0.442   3.401   5.100  0.8129  2.8162 -0.3154
 1328TIP3    H2 3949   0.563   3.374   5.013  1.7642 -0.7953  1.9461
 1329TIP3   OH2 3950   0.732   1.932   3.289 -0.3366 -0.5485 -0.4772
 1329TIP3    H1 3951   0.781   1.993   3.343  1.4204 -2.9671  0.8721
 1329TIP3    H2 3952   0.658   1.905   3.344 -0.8160 -0.0727 -0.8717
 1330TIP3   OH2 3953   2.892   0.766   4.942 -0.7081 -0.0364  0.0640
 1330TIP3    H1 3954   2.864   0.676   4.953 -3.1017  0.7790  1.3002
 1330TIP3    H2 3955   2.977   0.760   4.897 -1.1278 -2.8217 -0.4964
 1331TIP3   OH2 3956   3.703   2.632   3.849  0.2090  0.2356 -0.2172
 1331TIP3    H1 3957   3.793   2.656   3.825 -0.0471  2.2316  0.6624
 1331TIP3    H2 3958   3.667   2.711   3.888 -1.9470 -0.5425 -0.5369
 1332TIP3   OH2 3959   5.694   5.636   2.772  0.3161 -0.0397 -0.2947
 1332TIP3    H1 3960   5.621   5.584   2.738 -0.8274  1.1111  0.3021
 1332TIP3    H2 3961   5.764   5.622   2.709 -1.1536  0.6378 -2.1980
 1333TIP3   OH2 3962   6.472   4.763   4.943 -0.6945 -0.2658  0.3059
 1333TIP3    H1 3963   6.432   4.679   4.917 -4.9943  1.3534  0.7810
 1333TIP3    H2 3964   6.478   4.813   4.861  1.3935 -0.7550  0.1036
 1334TIP3   OH2 3965   4.098   5.779   4.552 -0.0512  0.1494  0.3879
 1334TIP3    H1 3966   4.065   5.856   4.506 -2.0039  0.2724  1.8814
 1334TIP3    H2 3967   4.156   5.815   4.619 -0.8298  0.3318  0.9762
 1335TIP3   OH2 3968   1.730   5.322   2.913 -0.3267 -0.1955 -0.1161
 1335TIP3    H1 3969   1.819   5.307   2.882 -0.0254  1.2138 -0.0250
 1335TIP3    H2 3970   1.731   5.294   3.005 -0.4365 -1.6675 -0.5372
 1336TIP3   OH2 3971   4.169   5.276   4.512  0.3683 -0.2164 -0.3963
 1336TIP3    H1 3972   4.239   5.235   4.462  0.9748  1.3272 -0.8723
 1336TIP3    H2 3973   4.204   5.361   4.538 -0.7277 -0.0938  0.8234
 1337TIP3   OH2 3974   6.336   6.340   3.006 -0.2101 -0.1518 -0.6805
 1337TIP3    H1 3975   6.345   6.422   3.054 -0.3937 -0.2077 -0.5478
 1337TIP3    H2 3976   6.416   6.333   2.954 -0.5268  0.4796 -1.2642
 1338TIP3   OH2 3977   1.683   6.697   3.516  0.6904  0.7672 -0.2832
 1338TIP3    H1 3978   1.726   6.710   3.432 -1.1614  0.4774 -1.3245
 1338TIP3    H2 3979   1.625   6.773   3.525 -1.7845 -0.9162 -1.0285
 1339TIP3   OH2 3980   1.508   5.239   2.396  0.2317  0.4239  0.3660
 1339TIP3    H1 3981   1.436   5.179   2.417  1.2561 -0.6781  0.8155
 1339TIP3    H2 3982   1.504   5.306   2.464  0.1529 -0.1010  0.8858
 1340TIP3   OH2 3983   0.492   3.144   5.261  0.2313 -0.6155 -0.3498
 1340TIP3    H1 3984   0.572   3.115   5.306  0.4637 -0.9723 -0.9835
 1340TIP3    H2 3985   0.518   3.221   5.211  0.4397 -1.3588 -1.4014
 1341TIP3   OH2 3986   2.715   2.780   1.861 -0.4384  0.1581 -0.3746
 1341TIP3    H1 3987   2.790   2.837   1.880 -0.2239  0.1076 -1.0591
 1341TIP3    H2 3988   2.667   2.777   1.944 -0.1907  0.9401 -0.1878
 1342TIP3   OH2 3989   1.209   4.225   1.804  0.4765 -0.3115 -0.1442
 1342TIP3    H1 3990   1.257   4.143   1.820  0.6871 -0.2868 -0.6415
 1342TIP3    H2 3991   1.242   4.285   1.871  0.6948 -0.4788 -0.0992
 1343TIP3   OH2 3992   5.493  -0.011   2.252 -0.1656  0.0898 -0.2652
 1343TIP3    H1 3993   5.513   0.082   2.261 -1.8687  0.4747 -0.0964
 1343TIP3    H2 3994   5.398  -0.014   2.241  0.0365 -1.5069 -2.0743
 1344TIP3   OH2 3995   4.409   4.048   2.472  0.5693 -0.5995 -0.5627
 1344TIP3    H1 3996   4.401   3.955   2.452 -0.8874 -0.4124 -0.9589
 1344TIP3    H2 3997   4.334   4.089   2.428  0.0136  0.4840  1.2897
 1345TIP3   OH2 3998   0.210   2.246   1.175  0.6450  0.1553  0.0212
 1345TIP3    H1 3999   0.231   2.248   1.082 -0.7231  0.3905 -0.3100
 1345TIP3    H2 4000   0.137   2.184   1.181  0.1562  0.7875  0.7944
 1346TIP3   OH2 4001   2.169   2.860   3.339  0.2841 -0.1309 -0.4170
 1346TIP3    H1 4002   2.090   2.817   3.307  0.8728 -2.7537  1.3681
 1346TIP3    H2 4003   2.239   2.828   3.281  0.1772  2.0440 -1.8827
 1347TIP3   OH2 4004   6.912   3.877   2.013 -1.0924  0.0421 -0.4009
 1347TIP3    H1 4005   6.908   3.882   1.918  0.8053 -1.0980 -0.5948
 1347TIP3    H2 4006   6.963   3.955   2.039  1.2605 -1.3195 -0.6669
 1348TIP3   OH2 4007   5.771   4.543   2.448  0.0307 -0.3331 -0.0828
 1348TIP3    H1 4008   5.774   4.616   2.510 -1.5123  0.4754 -0.9131
 1348TIP3    H2 4009   5.734   4.471   2.498  0.5129 -0.2371  0.4276
 1349TIP3   OH2 4010   4.064   0.386   5.467  0.1619 -0.2826  0.1983
 1349TIP3    H1 4011   4.080   0.386   5.561  1.5059  1.4968  0.0165
 1349TIP3    H2 4012   3.998   0.455   5.454  1.3345  0.7914 -0.3105
 1350TIP3   OH2 4013   6.719   4.330   0.177  0.0639 -0.0016  0.3891
 1350TIP3    H1 4014   6.758   4.391   0.115  0.3765  0.3073  0.8862
 1350TIP3    H2 4015   6.625   4.348   0.173 -0.0006 -0.4416 -0.4771
 1351TIP3   OH2 4016   5.391   0.931   3.751  0.3313  0.5450 -0.3991
 1351TIP3    H1 4017   5.483   0.943   3.728  0.8356 -1.2405  0.5258
 1351TIP3    H2 4018   5.392   0.884   3.834 -1.3970 -0.8474 -1.0849
 1352TIP3   OH2 4019   3.273   4.438   5.604  0.1406 -0.1268  0.5933
 1352TIP3    H1 4020   3.365   4.454   5.584  0.0920  0.7183  1.0049
 1352TIP3    H2 4021   3.268   4.344   5.621  0.6241 -0.4542 -0.9727
 1353TIP3   OH2 4022   1.911   2.433   3.228  0.9832  0.4134 -0.3116
 1353TIP3    H1 4023   1.904   2.391   3.143  0.0730 -1.0048  0.4265
 1353TIP3    H2 4024   1.859   2.513   3.220  1.4377  0.6275 -1.2629
 1354TIP3   OH2 4025   1.964   1.896   3.446 -0.3581  0.2710  0.2815
 1354TIP3    H1 4026   1.880   1.924   3.411  0.4228  1.4132 -0.7607
 1354TIP3    H2 4027   2.024   1.901   3.372  0.6182 -0.6444  0.9737
 1355TIP3   OH2 4028   5.492   4.021   0.153  0.3263 -0.0281 -0.1597
 1355TIP3    H1 4029   5.579   4.044   0.187  0.3141  1.1537 -0.8823
 1355TIP3    H2 4030   5.433   4.086   0.192 -0.2850 -0.9510  0.4948
 1356TIP3   OH2 4031   3.578   3.587   2.286  0.4276 -0.4858  0.2508
 1356TIP3    H1 4032   3.641   3.603   2.216  0.3890 -0.0848  0.3057
 1356TIP3    H2 4033   3.619   3.520   2.341  0.2224 -1.1953 -0.4505
 1357TIP3   OH2 4034   2.040   4.088   1.430  0.0451  0.0830 -0.4715
 1357TIP3    H1 4035   2.132   4.071   1.408  0.2135  0.8012 -0.3493
 1357TIP3    H2 4036   2.020   4.026   1.500  0.0434 -0.9688 -1.3725
 1358TIP3   OH2 4037   1.600   3.601   4.384  0.0271  0.5985 -0.4741
 1358TIP3    H1 4038   1.621   3.690   4.354 -1.0906  0.6756 -1.0923
 1358TIP3    H2 4039   1.674   3.577   4.440  0.2670  1.9929 -0.1400
 1359TIP3   OH2 4040   2.062   0.369   4.617 -0.1676 -0.0574 -1.0125
 1359TIP3    H1 4041   2.135   0.356   4.557 -0.1735  0.2736 -1.0945
 1359TIP3    H2 4042   2.018   0.449   4.586  0.8127  1.0857  0.3887
 1360TIP3   OH2 4043   6.205   4.134   2.396  0.0715  0.4032 -0.2362
 1360TIP3    H1 4044   6.154   4.059   2.426 -0.9239  0.8848 -0.6843
 1360TIP3    H2 4045   6.167   4.209   2.442  0.8809  0.6756  0.0041
 1361TIP3   OH2 4046   5.795   5.310   2.426  0.4962  0.3294  0.3136
 1361TIP3    H1 4047   5.784   5.357   2.343 -0.5999  0.0746  0.2962
 1361TIP3    H2 4048   5.821   5.221   2.400  0.0414  0.2181  0.2331
 1362TIP3   OH2 4049   2.661   4.013   4.253 -0.2345 -0.1775  0.0294
 1362TIP3    H1 4050   2.658   4.038   4.161  0.5981  0.0546  0.0575
 1362TIP3    H2 4051   2.614   4.084   4.298  0.9788  0.6860 -0.0263
 1363TIP3   OH2 4052   1.584   3.968   0.658 -0.2416  0.4953 -0.1289
 1363TIP3    H1 4053   1.596   3.978   0.564  0.7170  0.9323  0.0252
 1363TIP3    H2 4054   1.492   3.988   0.674 -0.2317  1.1573 -0.8748
 1364TIP3   OH2 4055   3.907   6.169   2.068  0.2561  0.7542  0.2000
 1364TIP3    H1 4056   3.947   6.222   1.999  0.0842  2.0801  1.0762
 1364TIP3    H2 4057   3.816   6.198   2.071  0.1994  0.5169  0.7975
 1365TIP3   OH2 4058   3.568   3.905   4.871 -0.4754  0.7556 -0.0571
 1365TIP3    H1 4059   3.526   3.851   4.937  0.3283  2.7607  2.2184
 1365TIP3    H2 4060   3.497   3.961   4.838 -0.2867  2.0577  1.6079
 1366TIP3   OH2 4061   6.840   0.952   0.931 -0.1935 -0.3151  0.3332
 1366TIP3    H1 4062   6.747   0.932   0.938 -0.2374 -0.0608  0.5108
 1366TIP3    H2 4063   6.871   0.899   0.858 -0.1944 -1.4030  1.1056
 1367TIP3   OH2 4064   5.703   3.433   1.769 -0.6343  0.2186 -0.0643
 1367TIP3    H1 4065   5.631   3.374   1.747  1.0156 -1.0452 -2.5468
 1367TIP3    H2 4066   5.764   3.424   1.696  2.2241  0.9276  2.0756
 1368TIP3   OH2 4067   2.868   6.441   1.237  0.0672  0.0519  0.1633
 1368TIP3    H1 4068   2.866   6.489   1.154 -0.2524 -0.8757 -0.3763
 1368TIP3    H2 4069   2.776   6.418   1.253  0.3318 -1.3404 -0.1655
 1369TIP3   OH2 4070   5.991   6.622   5.473  0.4341  0.3394 -0.0110
 1369TIP3    H1 4071   6.061   6.644   5.411  0.8665  0.7805  0.6298
 1369TIP3    H2 4072   5.992   6.526   5.476  0.8803  0.3349 -0.1518
 1370TIP3   OH2 4073   4.060   0.513   4.030  0.0231  0.8874  0.0224
 1370TIP3    H1 4074   4.003   0.523   4.106  0.3874  2.2822  0.1449
 1370TIP3    H2 4075   4.100   0.600   4.019  0.9694  0.3460 -0.9640
 1371TIP3   OH2 4076   0.708   0.553   0.632 -0.3993  0.3262 -0.2687
 1371TIP3    H1 4077   0.773   0.606   0.680 -1.1635  1.1249 -0.0880
 1371TIP3    H2 4078   0.742   0.464   0.637  0.7960  0.7490 -0.3571
 1372TIP3   OH2 4079   5.188   2.542   1.651  0.2558 -0.4782 -0.0258
 1372TIP3    H1 4080   5.232   2.627   1.639  0.4924 -0.3036  1.8891
 1372TIP3    H2 4081   5.095   2.561   1.635  0.3119  0.1292  0.3395
 1373TIP3   OH2 4082   5.947   3.984   0.827 -0.2322  0.2664 -0.0684
 1373TIP3    H1 4083   5.983   3.939   0.903  1.1654  0.8024 -0.3886
 1373TIP3    H2 4084   5.854   3.995   0.848 -0.5358 -2.3125  0.2059
 1374TIP3   OH2 4085   1.452   3.216   4.730 -0.0718  0.2288 -0.7444
 1374TIP3    H1 4086   1.521   3.240   4.669  1.0971 -0.0225  0.4367
 1374TIP3    H2 4087   1.426   3.299   4.770  0.0258  0.2447 -0.7130
 1375TIP3   OH2 4088   5.679   0.974   5.726 -0.0534  0.5298  0.0437
 1375TIP3    H1 4089   5.681   0.885   5.761  1.1283  0.3777 -0.3423
 1375TIP3    H2 4090   5.588   0.989   5.702 -0.3382 -0.4272  0.4882
 1376TIP3   OH2 4091   1.545   0.377   1.503 -0.5744 -0.5733 -0.0333
 1376TIP3    H1 4092   1.496   0.437   1.446  0.0523 -0.0644 -0.0511
 1376TIP3    H2 4093   1.549   0.296   1.453  0.7662  0.1418 -1.1606
 1377TIP3   OH2 4094   6.476   4.582   2.534 -0.1931 -0.0561 -0.2357
 1377TIP3    H1 4095   6.440   4.501   2.570  1.6589 -0.1398  1.5817
 1377TIP3    H2 4096   6.482   4.565   2.440 -2.6152 -0.8567 -0.3323
 1378TIP3   OH2 4097   0.744   4.533   3.192 -0.3845 -1.0281 -0.1007
 1378TIP3    H1 4098   0.790   4.504   3.114  0.8847 -0.3441  0.3766
 1378TIP3    H2 4099   0.726   4.453   3.241  1.2479 -1.2198  0.2135
 1379TIP3   OH2 4100   0.948   3.462   4.218  0.1714  0.4094  0.2035
 1379TIP3    H1 4101   0.898   3.380   4.215  0.1823  0.3898  0.5160
 1379TIP3    H2 4102   1.036   3.435   4.244  0.0592  0.5702  0.7649
 1380TIP3   OH2 4103   0.299   3.549   1.804  0.4381  0.2517 -0.5466
 1380TIP3    H1 4104   0.263   3.585   1.723  0.3752  0.1673 -0.5568
 1380TIP3    H2 4105   0.246   3.471   1.821 -0.2556  0.8593  0.1475
 1381TIP3   OH2 4106   5.384   4.898   2.544 -0.8553  0.6081  0.3216
 1381TIP3    H1 4107   5.418   4.836   2.480 -1.5282 -0.7714  1.2528
 1381TIP3    H2 4108   5.336   4.963   2.492 -0.0223  0.4489 -0.6785
 1382TIP3   OH2 4109   5.089   1.278   4.202 -0.2571  0.3121  0.5482
 1382TIP3    H1 4110   5.140   1.359   4.208  1.5807 -0.6275 -1.0310
 1382TIP3    H2 4111   4.998   1.305   4.213  0.2110  2.7340 -0.8797
 1383TIP3   OH2 4112   6.705   0.223   2.175  0.3599 -0.0245  0.0016
 1383TIP3    H1 4113   6.633   0.166   2.202  1.2612 -0.5023  1.4906
 1383TIP3    H2 4114   6.666   0.311   2.172 -0.2532 -0.2429  0.9930
 1384TIP3   OH2 4115   0.860   2.176   1.385 -0.2529 -0.0913  0.1689
 1384TIP3    H1 4116   0.883   2.163   1.477 -2.4581  0.2959  0.8140
 1384TIP3    H2 4117   0.810   2.258   1.384 -1.1178 -0.6084 -1.2068
 1385TIP3   OH2 4118   6.083   1.344   3.403  0.1559  0.5310  0.2048
 1385TIP3    H1 4119   6.122   1.326   3.318 -0.2196  2.0850 -0.3209
 1385TIP3    H2 4120   6.069   1.257   3.441  2.5909 -0.1314 -0.2395
 1386TIP3   OH2 4121   5.412   0.656   1.163 -0.3797  0.1008  0.5179
 1386TIP3    H1 4122   5.506   0.654   1.145 -0.5011 -0.4232 -0.1066
 1386TIP3    H2 4123   5.387   0.564   1.168 -0.8693  0.2371  0.6124
 1387TIP3   OH2 4124   4.090   2.560   4.411 -0.0099  0.3848  0.1876
 1387TIP3    H1 4125   4.172   2.600   4.441  0.0649  0.8626 -0.6363
 1387TIP3    H2 4126   4.028   2.633   4.411 -0.7445 -0.2008  1.8957
 1388TIP3   OH2 4127   4.073   3.084   3.050 -0.2796 -0.3066 -0.7461
 1388TIP3    H1 4128   4.030   3.165   3.024  1.5246  1.5101  1.4819
 1388TIP3    H2 4129   4.137   3.067   2.980 -0.1247  0.6672 -0.8512
 1389TIP3   OH2 4130   1.980   0.646   0.994  0.2064  0.2437  0.0075
 1389TIP3    H1 4131   1.948   0.666   1.082  0.5615 -1.3353  0.5182
 1389TIP3    H2 4132   2.057   0.703   0.984  1.4571 -1.0690  1.5891
 1390TIP3   OH2 4133   1.180   2.026   1.714  0.3085 -0.0585  0.5705
 1390TIP3    H1 4134   1.165   2.090   1.784 -1.0575 -0.7728  0.9833
 1390TIP3    H2 4135   1.205   1.946   1.759 -0.4206 -0.4822  0.2492
 1391TIP3   OH2 4136   2.532   3.558   5.442 -0.0528 -0.2497 -0.2527
 1391TIP3    H1 4137   2.585   3.501   5.386  1.2174  1.9136 -1.4046
 1391TIP3    H2 4138   2.581   3.563   5.524  0.4734  0.1276 -0.5853
 1392TIP3   OH2 4139   1.960   6.778   5.179  0.0283  0.6395 -0.8022
 1392TIP3    H1 4140   1.959   6.758   5.273 -1.4862  0.8377 -0.7469
 1392TIP3    H2 4141   2.035   6.729   5.145  0.8142  0.8447  0.5602
 1393TIP3   OH2 4142   2.312   6.318   3.009  0.8650  0.1447 -0.3447
 1393TIP3    H1 4143   2.400   6.309   3.045  0.4492 -0.1747  0.6145
 1393TIP3    H2 4144   2.254   6.322   3.085  0.1681  1.9302 -0.9122
 1394TIP3   OH2 4145   7.092   0.492   4.956  0.1477 -0.2322 -0.6477
 1394TIP3    H1 4146   7.180   0.515   4.924 -0.6345  1.4802 -1.6847
 1394TIP3    H2 4147   7.076   0.554   5.026  0.1889 -1.3017  0.3405
 1395TIP3   OH2 4148   1.557   2.394   1.992 -0.2794  0.8337 -0.0422
 1395TIP3    H1 4149   1.627   2.420   2.052 -1.5279  1.7979  1.0578
 1395TIP3    H2 4150   1.546   2.300   2.007  0.6704  0.7033 -0.1234
 1396TIP3   OH2 4151   4.833   4.848   1.257 -0.2051  0.3032  0.1894
 1396TIP3    H1 4152   4.778   4.840   1.334 -0.3791  1.8518  0.2691
 1396TIP3    H2 4153   4.897   4.777   1.264 -0.0403  0.5974  1.8999
 1397TIP3   OH2 4154   3.280   1.514   4.439 -0.5427 -0.1845  0.1264
 1397TIP3    H1 4155   3.341   1.505   4.513 -0.5093 -0.4994  0.0589
 1397TIP3    H2 4156   3.215   1.578   4.470 -0.0722  0.3013  0.1276
 1398TIP3   OH2 4157   5.875   5.967   1.863 -0.3178 -0.2775  0.3426
 1398TIP3    H1 4158   5.855   6.061   1.870  1.1729 -0.0280  2.1197
 1398TIP3    H2 4159   5.838   5.929   1.943  2.2377 -0.5108  1.5245
 1399TIP3   OH2 4160   5.188   6.743   3.586 -0.0322  0.1124  0.0703
 1399TIP3    H1 4161   5.275   6.782   3.580  0.0320  0.1112  0.9250
 1399TIP3    H2 4162   5.200   6.653   3.557  0.0876  0.3383 -0.5955
 1400TIP3   OH2 4163   3.721   0.535   4.993  0.1051  0.5111 -0.3775
 1400TIP3    H1 4164   3.656   0.468   5.012 -0.2119  0.2299 -2.2698
 1400TIP3    H2 4165   3.802   0.487   4.977  0.0363  0.6000 -1.0488
 1401TIP3   OH2 4166   0.584   0.694   0.437  0.3619  0.0867  0.3926
 1401TIP3    H1 4167   0.591   0.622   0.499  3.6252  1.1251  1.4335
 1401TIP3    H2 4168   0.675   0.716   0.415 -0.5809  2.0728 -2.0689
 1402TIP3   OH2 4169   1.347   6.590   0.402 -0.0472 -0.4161 -0.1115
 1402TIP3    H1 4170   1.286   6.617   0.333 -3.2640  1.4852  3.1351
 1402TIP3    H2 4171   1.337   6.495   0.407 -2.6874 -0.1869  0.1632
 1403TIP3   OH2 4172   1.323   2.382   2.142  0.1706 -0.1835 -0.3261
 1403TIP3    H1 4173   1.265   2.379   2.065 -0.2359 -0.2021 -0.0240
 1403TIP3    H2 4174   1.410   2.401   2.106  0.5129 -2.7603 -1.0936
 1404TIP3   OH2 4175   7.160   0.361   5.813 -0.2246  0.6185  0.4202
 1404TIP3    H1 4176   7.254   0.346   5.826 -0.3125  0.3829  0.7972
 1404TIP3    H2 4177   7.121   0.342   5.898 -0.7615 -0.5576 -0.0627
 1405TIP3   OH2 4178   6.841   0.477   0.204 -0.3213 -0.2559 -0.0713
 1405TIP3    H1 4179   6.811   0.556   0.159  1.4992  0.1818 -0.6255
 1405TIP3    H2 4180   6.861   0.507   0.294 -0.3084 -0.2379 -0.0800
 1406TIP3   OH2 4181   5.533   5.206   2.190 -0.0544  0.3279  0.0180
 1406TIP3    H1 4182   5.611   5.256   2.216  0.2123 -0.0542 -0.0545
 1406TIP3    H2 4183   5.553   5.116   2.213 -0.1319  0.0978 -0.8030
 1407TIP3   OH2 4184   5.798   6.713   4.072  0.0960  0.3229 -0.2776
 1407TIP3    H1 4185   5.832   6.644   4.016 -0.9388 -1.2236  0.9089
 1407TIP3    H2 4186   5.703   6.701   4.071 -0.0654  1.4060  0.3506
 1408TIP3   OH2 4187   5.504   2.653   2.463 -0.8951  0.4207  0.5714
 1408TIP3    H1 4188   5.500   2.736   2.510 -0.9698  0.1634  1.0239
 1408TIP3    H2 4189   5.419   2.647   2.418 -1.8004 -0.4273  2.2968
 1409TIP3   OH2 4190   6.151   0.965   1.617 -0.5084 -0.0637  0.0320
 1409TIP3    H1 4191   6.165   0.992   1.708 -2.9547 -0.6649  0.6894
 1409TIP3    H2 4192   6.106   1.039   1.577 -2.3359 -0.9699  0.2920
 1410TIP3   OH2 4193   6.950   5.283   4.556 -0.5446 -0.1912  0.6854
 1410TIP3    H1 4194   7.013   5.255   4.489 -2.0911 -1.3632 -0.3453
 1410TIP3    H2 4195   7.004   5.328   4.621  0.9395  1.6600 -1.6484
 1411TIP3   OH2 4196   6.786   4.276   3.232 -0.0901  0.0954 -0.0242
 1411TIP3    H1 4197   6.782   4.194   3.280  3.7695 -0.2959 -0.0952
 1411TIP3    H2 4198   6.703   4.320   3.253 -1.4851 -2.9729  1.4501
 1412TIP3   OH2 4199   5.621   1.964   1.731 -0.7893 -0.2385 -0.1927
 1412TIP3    H1 4200   5.592   1.946   1.820 -2.5217  0.2625 -0.6152
 1412TIP3    H2 4201   5.614   1.880   1.685  0.3544 -0.5553  0.1850
 1413TIP3   OH2 4202   0.307   3.527   0.345 -0.2736 -0.2699  0.6557
 1413TIP3    H1 4203   0.300   3.471   0.268  1.9780 -1.4946  1.2455
 1413TIP3    H2 4204   0.312   3.616   0.310  0.2112 -0.7679 -0.5837
 1414TIP3   OH2 4205   0.569   3.816   0.843 -0.3320  0.1179  0.9977
 1414TIP3    H1 4206   0.645   3.797   0.789 -0.5417 -0.1152  0.7844
 1414TIP3    H2 4207   0.517   3.878   0.791 -1.1083 -0.9877  0.4235
 1415TIP3   OH2 4208   4.864   4.379   0.487  0.2004 -0.0096  0.1608
 1415TIP3    H1 4209   4.956   4.396   0.469  0.0911 -0.6432 -1.1496
 1415TIP3    H2 4210   4.865   4.297   0.536  0.3738  0.5028  1.0383
 1416TIP3   OH2 4211   0.110   6.633   2.784 -0.5207  0.3788  0.0443
 1416TIP3    H1 4212   0.201   6.657   2.800 -0.4902 -0.0202  0.4785
 1416TIP3    H2 4213   0.103   6.626   2.688  0.0254 -0.0728  0.0332
 1417TIP3   OH2 4214   2.542   3.203   4.015 -0.0058  0.1774  0.0979
 1417TIP3    H1 4215   2.448   3.186   4.016  0.2254 -1.2352 -0.2704
 1417TIP3    H2 4216   2.581   3.119   3.991  1.2064  1.3340 -2.2984
 1418TIP3   OH2 4217   6.832   2.356   5.265  0.3812  0.3102 -0.2050
 1418TIP3    H1 4218   6.897   2.290   5.242 -0.1283  0.0460 -0.9426
 1418TIP3    H2 4219   6.836   2.361   5.361  0.8352 -0.3712 -0.1774
 1419TIP3   OH2 4220   3.413   1.171   4.652 -0.7907  0.5284  0.3511
 1419TIP3    H1 4221   3.338   1.174   4.711 -1.5769  1.1006 -0.6535
 1419TIP3    H2 4222   3.450   1.259   4.655 -2.5248  1.4430 -2.0848
 1420TIP3   OH2 4223   2.986   6.762   3.171 -0.4373 -0.0066 -0.1010
 1420TIP3    H1 4224   3.078   6.759   3.145 -0.0568 -0.2880  1.1978
 1420TIP3    H2 4225   2.966   6.673   3.200 -0.7125  0.3741  0.9152
 1421TIP3   OH2 4226   0.407   5.048   5.871 -0.4317  0.1901 -0.3455
 1421TIP3    H1 4227   0.480   5.108   5.889  0.5717 -1.1657  0.3050
 1421TIP3    H2 4228   0.354   5.094   5.806  0.8775  1.3254 -0.6644
 1422TIP3   OH2 4229   3.188   1.595   1.306 -0.3970  0.2021 -0.5152
 1422TIP3    H1 4230   3.195   1.525   1.372  0.9122  1.0571  0.3008
 1422TIP3    H2 4231   3.116   1.567   1.249 -2.1663 -0.1955  1.7530
 1423TIP3   OH2 4232   4.890   0.218   3.721 -0.2427 -0.1927 -0.0535
 1423TIP3    H1 4233   4.889   0.128   3.689  1.1195 -0.6382  1.0422
 1423TIP3    H2 4234   4.979   0.248   3.703 -0.5967  0.8320 -0.1292
 1424TIP3   OH2 4235   1.367   5.800   5.814  0.1782  0.1122  0.5684
 1424TIP3    H1 4236   1.282   5.838   5.792  0.5185  0.2599 -0.5449
 1424TIP3    H2 4237   1.429   5.872   5.799  0.8040 -0.7701 -1.2931
 1425TIP3   OH2 4238   7.205   1.751   3.713 -0.1023 -0.2948 -0.2034
 1425TIP3    H1 4239   7.136   1.686   3.699 -0.4360  0.2838 -1.3414
 1425TIP3    H2 4240   7.175   1.802   3.788 -1.1003  0.1553 -0.8801
 1426TIP3   OH2 4241   4.265   2.692   2.559  0.1072  0.4253  0.0726
 1426TIP3    H1 4242   4.314   2.655   2.633 -0.1738  0.2167  0.1601
 1426TIP3    H2 4243   4.193   2.740   2.600 -0.3516 -0.1213 -0.0652
 1427TIP3   OH2 4244   3.982   4.078   2.142 -0.4951 -0.2777  0.0255
 1427TIP3    H1 4245   4.065   4.055   2.184 -0.7261 -0.1985  0.5403
 1427TIP3    H2 4246   4.000   4.077   2.048  0.7035  1.9437  0.1572
 1428TIP3   OH2 4247   6.451   3.383   4.768  0.0916 -0.5396  0.4614
 1428TIP3    H1 4248   6.404   3.311   4.809  2.3080 -2.1742  0.2958
 1428TIP3    H2 4249   6.492   3.429   4.841  1.6569 -1.6990  0.3554
 1429TIP3   OH2 4250   5.156   4.593   0.287  0.1951 -0.0415  0.1176
 1429TIP3    H1 4251   5.063   4.614   0.286  0.3852  0.8870  0.5534
 1429TIP3    H2 4252   5.160   4.497   0.292 -0.7147 -0.2502 -2.3282
 1430TIP3   OH2 4253   5.345   2.202   0.463 -0.1109  0.3386 -0.1131
 1430TIP3    H1 4254   5.279   2.203   0.395  1.2051  0.6669 -1.4455
 1430TIP3    H2 4255   5.380   2.113   0.462  1.6132  0.9729 -1.6500
 1431TIP3   OH2 4256   5.290   1.518   4.034  0.1944  0.5756  0.1295
 1431TIP3    H1 4257   5.246   1.553   4.112 -1.2055  0.2504 -0.4813
 1431TIP3    H2 4258   5.249   1.563   3.961  0.5346 -0.1031 -0.4908
 1432TIP3   OH2 4259   5.636   0.850   2.039  0.0519 -0.3743  0.2595
 1432TIP3    H1 4260   5.626   0.790   1.965  0.8412 -1.3452  0.9190
 1432TIP3    H2 4261   5.728   0.877   2.035 -0.3594  1.0386 -0.1985
 1433TIP3   OH2 4262   4.618   2.446   5.735 -0.1226  0.1287  0.6238
 1433TIP3    H1 4263   4.704   2.417   5.706  0.0665 -0.7721  1.9880
 1433TIP3    H2 4264   4.579   2.489   5.659  0.1025 -2.6112 -1.1311
 1434TIP3   OH2 4265   6.891   3.364   0.587 -0.2400 -0.5389  0.0055
 1434TIP3    H1 4266   6.983   3.356   0.609  0.1254  2.2199 -0.1830
 1434TIP3    H2 4267   6.891   3.386   0.494 -1.0826 -0.3773  0.0378
 1435TIP3   OH2 4268   5.921   4.067   0.548  0.4387 -0.1930  0.1553
 1435TIP3    H1 4269   5.980   4.085   0.621 -0.3548  2.1944  0.2876
 1435TIP3    H2 4270   5.976   4.075   0.470  1.2162 -2.4317  0.4201
 1436TIP3   OH2 4271   5.939   2.308   2.297  0.1608 -0.6085 -0.2905
 1436TIP3    H1 4272   5.939   2.383   2.237  0.6453  0.8089  1.3969
 1436TIP3    H2 4273   5.876   2.331   2.365  1.1728 -1.1876  0.8929
 1437TIP3   OH2 4274   4.480   6.038   1.205 -0.0595 -0.2899  0.6833
 1437TIP3    H1 4275   4.498   5.951   1.240 -2.7885 -0.8975  0.7775
 1437TIP3    H2 4276   4.385   6.045   1.205 -0.0823  1.4314 -2.3849
 1438TIP3   OH2 4277   0.633   2.245   2.641 -0.4394  0.4189 -0.2466
 1438TIP3    H1 4278   0.567   2.237   2.709 -0.9441  0.5682 -0.7076
 1438TIP3    H2 4279   0.585   2.278   2.565 -0.8157 -3.4976 -1.9770
 1439TIP3   OH2 4280   1.316   2.366   0.905  0.0456  0.6141 -0.0621
 1439TIP3    H1 4281   1.345   2.380   0.815  0.6131  0.1686  0.0393
 1439TIP3    H2 4282   1.240   2.309   0.898  0.2806  0.3194 -0.2504
 1440TIP3   OH2 4283   6.011   3.624   2.835  0.1449 -0.3603 -0.1644
 1440TIP3    H1 4284   6.057   3.574   2.767 -0.9220 -0.2831 -0.9636
 1440TIP3    H2 4285   5.919   3.600   2.825 -0.0861 -0.0086  0.9789
 1441TIP3   OH2 4286   3.847   2.543   5.095  0.5372 -0.0613 -0.1214
 1441TIP3    H1 4287   3.917   2.533   5.160 -0.4351  0.2767  1.0246
 1441TIP3    H2 4288   3.779   2.592   5.141  0.6832  2.1530 -2.0800
 1442TIP3   OH2 4289   2.240   6.732   1.439 -0.3478 -0.0578  0.1778
 1442TIP3    H1 4290   2.154   6.706   1.405 -0.7296 -0.6896  1.5373
 1442TIP3    H2 4291   2.227   6.740   1.533  0.8949  0.6897  0.3135
 1443TIP3   OH2 4292   6.680   4.414   3.575 -0.3213 -0.3961  0.0447
 1443TIP3    H1 4293   6.708   4.434   3.486 -0.9705 -0.8901 -0.2853
 1443TIP3    H2 4294   6.602   4.359   3.564 -1.2625  0.7125  0.9158
 1444TIP3   OH2 4295   6.863   2.511   2.303 -0.3842  0.4856  0.6062
 1444TIP3    H1 4296   6.888   2.429   2.261 -0.6512  0.3311  0.7510
 1444TIP3    H2 4297   6.870   2.576   2.233  0.6616  0.4934  0.6944
 1445TIP3   OH2 4298   4.869   1.258   5.609 -0.0840 -0.4209  0.0204
 1445TIP3    H1 4299   4.943   1.229   5.555 -0.1620  0.0830 -0.3699
 1445TIP3    H2 4300   4.811   1.304   5.548  0.1443  0.7386  0.6433
 1446TIP3   OH2 4301   5.072   4.980   2.644  0.4813  0.3262  0.0779
 1446TIP3    H1 4302   5.023   5.053   2.683 -0.7822 -0.2808 -0.3298
 1446TIP3    H2 4303   5.133   4.953   2.713 -0.5436  0.3752  1.0344
 1447TIP3   OH2 4304   3.892   5.244   4.516  0.3495 -0.6466  0.2068
 1447TIP3    H1 4305   3.878   5.338   4.521 -0.3149 -0.7067 -0.3067
 1447TIP3    H2 4306   3.986   5.232   4.529  0.2566 -0.0159  1.5457
 1448TIP3   OH2 4307   5.304   3.439   0.677  0.9101  0.1238  0.1490
 1448TIP3    H1 4308   5.395   3.453   0.705  1.8641 -1.9833 -1.6231
 1448TIP3    H2 4309   5.305   3.353   0.634 -1.6241  0.6672 -1.1719
 1449TIP3   OH2 4310   0.313   3.103   4.069  0.2021  0.0271 -0.4491
 1449TIP3    H1 4311   0.251   3.175   4.069 -0.8503 -0.8024  1.2318
 1449TIP3    H2 4312   0.262   3.027   4.040  0.1558 -0.8152  1.6396
 1450TIP3   OH2 4313   2.520   4.838   3.199 -0.2795  0.8002 -0.2260
 1450TIP3    H1 4314   2.549   4.840   3.108 -0.0292  1.0127 -0.1434
 1450TIP3    H2 4315   2.597   4.864   3.249  0.1699 -1.2265  0.2031
 1451TIP3   OH2 4316   0.799   2.489   4.612 -0.4757 -0.6194  0.2323
 1451TIP3    H1 4317   0.822   2.563   4.669  0.7533 -0.0308 -0.9569
 1451TIP3    H2 4318   0.798   2.413   4.670  0.0305  0.0596  1.1645
 1452TIP3   OH2 4319   4.122   6.382   5.618 -0.3414  0.1925  0.1663
 1452TIP3    H1 4320   4.066   6.451   5.655  0.6936  0.0593  2.1376
 1452TIP3    H2 4321   4.129   6.404   5.525 -1.5910  1.6424  0.3698
 1453TIP3   OH2 4322   1.003   4.603   2.199  0.0595 -0.2006 -0.4459
 1453TIP3    H1 4323   0.964   4.673   2.146  1.4214 -0.4789 -1.8722
 1453TIP3    H2 4324   1.088   4.638   2.226 -0.5041 -0.1498  1.4307
 1454TIP3   OH2 4325   5.151   3.133   4.603  0.3905  0.3698 -0.2799
 1454TIP3    H1 4326   5.071   3.114   4.554  0.6518 -2.0691  0.0796
 1454TIP3    H2 4327   5.185   3.046   4.626  1.1381  1.3590  2.7894
 1455TIP3   OH2 4328   4.961   0.383   0.645  0.1182  0.6365 -0.2729
 1455TIP3    H1 4329   4.938   0.456   0.587  0.3476  0.2180 -0.9022
 1455TIP3    H2 4330   4.878   0.338   0.659 -0.1989  1.5129  0.8446
 1456TIP3   OH2 4331   3.141   2.723   1.660 -0.9602 -0.0959  0.1004
 1456TIP3    H1 4332   3.170   2.799   1.709 -0.3116 -0.6660  0.6105
 1456TIP3    H2 4333   3.052   2.746   1.631 -0.4344  1.2172 -0.5526
 1457TIP3   OH2 4334   2.494   4.836   2.910  0.0327  0.3157  0.2169
 1457TIP3    H1 4335   2.529   4.920   2.881 -0.4946  0.2233 -0.7256
 1457TIP3    H2 4336   2.513   4.776   2.838 -0.2732 -0.1864  0.5514
 1458TIP3   OH2 4337   4.881   2.370   3.455 -0.2406  0.1129 -0.7788
 1458TIP3    H1 4338   4.879   2.393   3.547 -1.1718  0.5332 -0.8903
 1458TIP3    H2 4339   4.843   2.282   3.451 -0.0593  0.0324 -0.7495
 1459TIP3   OH2 4340   4.570   4.342   1.778 -0.1432  0.5439  0.3995
 1459TIP3    H1 4341   4.594   4.320   1.868  0.9746 -0.6981 -0.1657
 1459TIP3    H2 4342   4.546   4.435   1.782 -1.5897  0.1523  2.2269
 1460TIP3   OH2 4343   0.729   4.523   1.721  0.0277 -0.2406  0.9517
 1460TIP3    H1 4344   0.820   4.525   1.751  0.5615 -0.5266 -0.5548
 1460TIP3    H2 4345   0.686   4.595   1.767  0.4474 -1.4494  3.3502
 1461TIP3   OH2 4346   0.920   4.796   5.858  0.3480 -0.1378  0.0655
 1461TIP3    H1 4347   0.958   4.756   5.935  3.4442 -0.2166 -1.3581
 1461TIP3    H2 4348   0.963   4.752   5.784 -1.0904  1.2104 -1.6789
 1462TIP3   OH2 4349   3.146   2.128   5.554  0.5331 -0.1336 -0.2662
 1462TIP3    H1 4350   3.209   2.063   5.584  2.0031  1.3065 -0.1174
 1462TIP3    H2 4351   3.147   2.122   5.459  0.2898 -0.6562 -0.2382
 1463TIP3   OH2 4352   2.373   6.241   2.406  0.2148 -0.0701 -1.0307
 1463TIP3    H1 4353   2.379   6.238   2.502 -0.4988 -1.2791 -1.0030
 1463TIP3    H2 4354   2.346   6.330   2.386 -0.8267 -0.1364 -0.0245
 1464TIP3   OH2 4355   4.260   3.539   3.784  0.7911 -0.0554  0.2700
 1464TIP3    H1 4356   4.190   3.589   3.826  0.2041  0.0870 -0.8630
 1464TIP3    H2 4357   4.339   3.592   3.798  0.6525 -0.0953  1.3276
 1465TIP3   OH2 4358   4.525   1.817   0.446 -0.0440  0.1964  0.0454
 1465TIP3    H1 4359   4.517   1.759   0.370  0.8105  0.2292 -0.0831
 1465TIP3    H2 4360   4.619   1.838   0.450  0.0835 -0.5206  1.6340
 1466TIP3   OH2 4361   1.271   6.098   1.893  0.5119  0.1577 -0.8277
 1466TIP3    H1 4362   1.204   6.165   1.881 -0.9423 -1.3058 -1.1876
 1466TIP3    H2 4363   1.354   6.146   1.886 -0.4162  2.3851  1.6993
 1467TIP3   OH2 4364   5.913   1.957   2.407  0.0542  0.1920  0.0981
 1467TIP3    H1 4365   5.998   1.964   2.449  0.2534  1.4438 -0.4698
 1467TIP3    H2 4366   5.931   1.911   2.324 -0.2427 -1.7180  1.0267
 1468TIP3   OH2 4367   3.546   5.986   3.284  0.1519 -0.1061  0.0599
 1468TIP3    H1 4368   3.533   6.028   3.370 -1.7089 -0.6707  0.0811
 1468TIP3    H2 4369   3.635   6.012   3.259 -0.3028  2.4953  0.8265
 1469TIP3   OH2 4370   7.108   1.288   2.013 -0.0326  0.0386  0.0627
 1469TIP3    H1 4371   7.055   1.233   2.071 -2.0719  1.6828 -0.0927
 1469TIP3    H2 4372   7.121   1.369   2.063  1.6877 -0.0232 -0.2356
 1470TIP3   OH2 4373   5.998   0.240   3.339  0.0851 -0.1358  0.4314
 1470TIP3    H1 4374   5.947   0.248   3.420 -1.0216 -0.2635 -0.2246
 1470TIP3    H2 4375   5.997   0.328   3.302 -0.7100 -0.3907 -0.1808
 1471TIP3   OH2 4376   4.118   2.243   4.034  0.5607  0.0543 -0.1417
 1471TIP3    H1 4377   4.045   2.196   3.994  0.1924 -1.0586  1.6819
 1471TIP3    H2 4378   4.077   2.318   4.078  0.1840 -1.4159  2.2055
 1472TIP3   OH2 4379   3.777   2.414   0.409  0.5241 -0.8206  0.2513
 1472TIP3    H1 4380   3.809   2.326   0.389  0.0814 -0.9464  0.0824
 1472TIP3    H2 4381   3.758   2.452   0.323  0.8723 -0.4966  0.3137
 1473TIP3   OH2 4382   0.852   3.845   4.798 -0.3854  0.2078 -0.3440
 1473TIP3    H1 4383   0.894   3.814   4.878 -0.0852  2.1602  0.3100
 1473TIP3    H2 4384   0.875   3.780   4.732 -0.2096 -1.1780  1.0287
 1474TIP3   OH2 4385   0.457   1.189   2.962  0.2830  0.1394 -0.4312
 1474TIP3    H1 4386   0.392   1.253   2.931  0.2582 -0.6195 -2.0220
 1474TIP3    H2 4387   0.507   1.166   2.884  0.6804 -1.3470  0.2288
 1475TIP3   OH2 4388   0.141   3.399   1.008  0.2953  0.3596  0.2614
 1475TIP3    H1 4389   0.155   3.455   0.932  2.2885  0.6416  0.7771
 1475TIP3    H2 4390   0.201   3.433   1.074  1.5450 -2.3183  0.6334
 1476TIP3   OH2 4391   5.929   5.253   3.269  0.1181 -0.4184 -0.2773
 1476TIP3    H1 4392   5.948   5.271   3.361  0.2898  0.5021 -0.4876
 1476TIP3    H2 4393   5.906   5.160   3.267  1.7291 -0.8523  0.4417
 1477TIP3   OH2 4394   1.994   4.523   3.924  0.3642 -0.4236  0.3394
 1477TIP3    H1 4395   2.072   4.547   3.974  0.3835 -1.0527  0.6291
 1477TIP3    H2 4396   1.933   4.491   3.990  0.6613 -1.9644 -0.0910
 1478TIP3   OH2 4397   4.411   6.008   2.750  0.4472 -0.1883  0.2037
 1478TIP3    H1 4398   4.429   6.004   2.844  0.5371  0.9289  0.2444
 1478TIP3    H2 4399   4.316   6.007   2.743  0.4358 -1.8214  0.2081
 1479TIP3   OH2 4400   2.942   1.190   1.822 -0.2727 -0.0176  0.7345
 1479TIP3    H1 4401   2.971   1.102   1.798 -0.5060 -0.0852  0.7003
 1479TIP3    H2 4402   2.948   1.193   1.917  3.5874  1.2366  0.6267
 1480TIP3   OH2 4403   2.480   6.320   4.585 -0.4222  0.4659 -0.3926
 1480TIP3    H1 4404   2.387   6.341   4.579  0.0292  2.8302 -0.1452
 1480TIP3    H2 4405   2.495   6.307   4.679 -0.7500 -1.4618 -0.5674
 1481TIP3   OH2 4406   2.465   0.724   5.580 -0.0482  0.1239  0.0122
 1481TIP3    H1 4407   2.395   0.751   5.520  0.9222  1.0603 -0.7217
 1481TIP3    H2 4408   2.531   0.793   5.574  1.0198 -0.8128  0.5753
 1482TIP3   OH2 4409   3.428   1.087   2.217  0.4911 -0.5912 -0.3114
 1482TIP3    H1 4410   3.403   1.159   2.160  0.0841 -0.6093 -0.1600
 1482TIP3    H2 4411   3.446   1.128   2.301 -0.9578 -0.7886  0.1290
 1483TIP3   OH2 4412   5.268   0.528   0.059  0.1037 -0.1214 -0.2937
 1483TIP3    H1 4413   5.333   0.483   0.005  0.5387  1.3963 -1.0615
 1483TIP3    H2 4414   5.311   0.537   0.144  0.4487 -0.1353 -0.4643
 1484TIP3   OH2 4415   1.208   0.704   5.162 -0.0300 -0.0384 -0.5619
 1484TIP3    H1 4416   1.257   0.645   5.219 -1.8132 -0.3349  0.7684
 1484TIP3    H2 4417   1.253   0.701   5.078  2.3077 -0.1096  0.6339
 1485TIP3   OH2 4418   2.175   5.669   3.654  0.5163  0.1814  0.4611
 1485TIP3    H1 4419   2.265   5.647   3.631  0.6277  0.9073  0.1938
 1485TIP3    H2 4420   2.123   5.630   3.584  0.5813 -0.5906  0.8298
 1486TIP3   OH2 4421   0.439   1.638   4.824  0.3855 -0.5477  0.1867
 1486TIP3    H1 4422   0.530   1.613   4.809  1.4378  1.5436  2.2379
 1486TIP3    H2 4423   0.412   1.680   4.743  1.6653 -0.1955 -0.0817
 1487TIP3   OH2 4424   7.110   3.370   4.713 -0.1824  0.7013  0.2643
 1487TIP3    H1 4425   7.176   3.302   4.702  0.3755  1.5386 -2.5780
 1487TIP3    H2 4426   7.036   3.341   4.659 -1.1837  0.9057  1.4891
 1488TIP3   OH2 4427   2.437   5.661   3.110 -0.2544 -0.2791  0.3097
 1488TIP3    H1 4428   2.508   5.724   3.114 -2.5148  2.8610 -2.9555
 1488TIP3    H2 4429   2.367   5.699   3.164 -1.5866  0.1128 -1.5631
 1489TIP3   OH2 4430   2.776   6.573   5.500  0.8082 -0.4448  0.4446
 1489TIP3    H1 4431   2.821   6.623   5.568 -0.2321  0.2228  0.6718
 1489TIP3    H2 4432   2.800   6.617   5.418  0.4594  0.0124  0.5796
 1490TIP3   OH2 4433   4.514   0.526   1.694  0.5087  0.4357  0.2435
 1490TIP3    H1 4434   4.511   0.441   1.650 -0.6227  1.4845 -1.8954
 1490TIP3    H2 4435   4.435   0.527   1.748  0.4984  0.1446  0.2391
 1491TIP3   OH2 4436   2.235   1.094   2.148  0.3213  0.2393  0.3664
 1491TIP3    H1 4437   2.298   1.043   2.199  0.3933  0.1895  0.2277
 1491TIP3    H2 4438   2.217   1.041   2.071  0.5892  0.5372  0.0964
 1492TIP3   OH2 4439   4.711   6.128   2.779  0.1887 -0.9790  0.4254
 1492TIP3    H1 4440   4.649   6.200   2.782 -0.3962 -1.4869  0.9521
 1492TIP3    H2 4441   4.708   6.090   2.867  1.4306 -0.8649  0.5394
 1493TIP3   OH2 4442   6.091   3.244   0.762 -0.4718 -0.2537  0.1507
 1493TIP3    H1 4443   6.019   3.259   0.701  1.4065  1.3522 -1.8073
 1493TIP3    H2 4444   6.082   3.314   0.827 -1.1884 -0.6252  0.4651
 1494TIP3   OH2 4445   4.533   4.529   2.771 -0.6081 -0.5226 -0.2756
 1494TIP3    H1 4446   4.546   4.491   2.857  2.1136 -2.6428 -1.4627
 1494TIP3    H2 4447   4.507   4.455   2.716 -1.2124  0.5561 -1.4897
 1495TIP3   OH2 4448   5.744   3.423   1.242 -0.0947 -0.3251  0.4029
 1495TIP3    H1 4449   5.823   3.380   1.210 -1.0429 -3.0005  1.3890
 1495TIP3    H2 4450   5.673   3.366   1.213 -1.6967  1.7665 -0.0662
 1496TIP3   OH2 4451   6.097   5.002   2.746 -0.2336  0.1334  0.0805
 1496TIP3    H1 4452   6.042   5.072   2.713 -0.9165 -0.2534  0.3830
 1496TIP3    H2 4453   6.071   4.925   2.695 -1.2685 -0.4655  1.4506
 1497TIP3   OH2 4454   1.107   2.507   1.741 -0.0654 -0.2430 -0.1700
 1497TIP3    H1 4455   1.178   2.455   1.702  1.5039  1.7308 -0.0894
 1497TIP3    H2 4456   1.088   2.574   1.676  0.4850  1.2739  1.1747
 1498TIP3   OH2 4457   4.857   1.462   2.967 -0.2668 -0.2455  0.9075
 1498TIP3    H1 4458   4.831   1.431   2.880  0.8822 -0.3437  0.5830
 1498TIP3    H2 4459   4.859   1.558   2.958  0.0206 -0.2632  0.7707
 1499TIP3   OH2 4460   4.927   5.457   2.634 -0.8220 -0.3599  0.1499
 1499TIP3    H1 4461   4.860   5.503   2.582 -0.6626 -1.1741 -0.8092
 1499TIP3    H2 4462   5.006   5.460   2.580 -1.0947 -2.7022 -0.4838
 1500TIP3   OH2 4463   0.203   1.431   1.929  0.8550 -0.5359  0.0224
 1500TIP3    H1 4464   0.202   1.381   2.011  1.3071 -1.3248 -0.4401
 1500TIP3    H2 4465   0.128   1.489   1.935  0.7219 -0.7828  0.8793
 1501TIP3   OH2 4466   1.635   0.838   2.283 -0.5742  0.3064 -0.8812
 1501TIP3    H1 4467   1.632   0.787   2.202  1.3552  0.6063 -1.1959
 1501TIP3    H2 4468   1.612   0.775   2.352  0.2243 -0.5964 -1.4162
 1502TIP3   OH2 4469   7.093   2.377   5.543  0.1044 -0.0665  0.2951
 1502TIP3    H1 4470   7.087   2.447   5.608 -3.3336  0.3634 -0.2915
 1502TIP3    H2 4471   7.016   2.323   5.560  1.3995 -2.3766 -0.8065
 1503TIP3   OH2 4472   0.111   5.292   3.483 -0.2029 -0.7744  0.1147
 1503TIP3    H1 4473   0.187   5.295   3.424 -1.5784  2.0737 -1.7585
 1503TIP3    H2 4474   0.147   5.312   3.569  1.3538 -0.8367 -0.4831
 1504TIP3   OH2 4475   4.903   1.271   0.157  0.4224  0.1113 -0.4433
 1504TIP3    H1 4476   4.869   1.302   0.073  0.0980 -1.9228 -1.1317
 1504TIP3    H2 4477   4.958   1.196   0.134  2.4904  1.0767  0.9756
 1505TIP3   OH2 4478   1.669   4.062   4.883  0.1038 -0.2287 -0.2811
 1505TIP3    H1 4479   1.756   4.028   4.902 -1.0841 -1.9447  2.8682
 1505TIP3    H2 4480   1.640   4.013   4.806  1.7459  0.1574 -1.1874
 1506TIP3   OH2 4481   2.610   5.396   4.851 -0.0981 -0.4250  0.0189
 1506TIP3    H1 4482   2.691   5.388   4.802 -0.0946  0.6548 -0.1714
 1506TIP3    H2 4483   2.619   5.334   4.923  1.0839  0.0202  0.2631
 1507TIP3   OH2 4484   2.915   6.632   4.706  0.2238  0.0534 -0.2314
 1507TIP3    H1 4485   2.839   6.625   4.649  0.2627  0.9053 -0.3951
 1507TIP3    H2 4486   2.883   6.604   4.792  0.0456 -0.7664 -0.5532
 1508TIP3   OH2 4487  -0.026   0.559   3.968  0.6356 -0.0924  0.6769
 1508TIP3    H1 4488  -0.020   0.651   3.992  1.9705 -0.1075  0.4825
 1508TIP3    H2 4489   0.049   0.518   4.010  0.3016 -1.0172  0.4053
 1509TIP3   OH2 4490   4.973   3.868   2.899  0.2734 -0.5659 -0.0706
 1509TIP3    H1 4491   4.878   3.867   2.884  0.3079 -0.2536 -0.3255
 1509TIP3    H2 4492   4.985   3.933   2.968  0.1045 -2.0754  1.4373
 1510TIP3   OH2 4493   1.558   4.701   2.958 -0.1100 -0.4101 -0.2157
 1510TIP3    H1 4494   1.620   4.664   2.895  0.9774  2.2369 -0.8227
 1510TIP3    H2 4495   1.566   4.646   3.036  4.2460  0.6707  0.3332
 1511TIP3   OH2 4496   0.282   6.698   4.690 -0.0273  0.1073  0.7978
 1511TIP3    H1 4497   0.225   6.723   4.762 -0.6239 -1.5285  0.9363
 1511TIP3    H2 4498   0.275   6.770   4.627 -4.4975 -1.1614 -0.4965
 1512TIP3   OH2 4499   0.978   3.482   5.381 -0.3858 -0.0385 -0.7076
 1512TIP3    H1 4500   1.015   3.505   5.296  1.8000 -1.9720 -0.3556
 1512TIP3    H2 4501   0.902   3.427   5.361  1.2899 -2.1973 -1.4889
 1513TIP3   OH2 4502   7.167   3.157   1.320 -0.3253 -0.2070  0.3904
 1513TIP3    H1 4503   7.117   3.080   1.346  0.4706 -0.7723  0.2530
 1513TIP3    H2 4504   7.215   3.130   1.241  0.8390  0.0663  0.9810
 1514TIP3   OH2 4505   3.920   1.129   3.684  0.1415  0.1101 -0.6605
 1514TIP3    H1 4506   4.007   1.119   3.722 -0.2759 -0.6436  0.1439
 1514TIP3    H2 4507   3.906   1.224   3.682 -0.9585  0.3071  3.9223
 1515TIP3   OH2 4508   1.736   2.899   0.094 -0.0602 -0.0118 -0.3331
 1515TIP3    H1 4509   1.779   2.870   0.175  0.3069  0.8074 -0.2259
 1515TIP3    H2 4510   1.792   2.970   0.061 -0.8493  0.4650 -0.6680
 1516TIP3   OH2 4511   0.726   2.688   0.064 -0.0142  0.7886  0.0247
 1516TIP3    H1 4512   0.773   2.621   0.114  1.7842  2.3219  0.4601
 1516TIP3    H2 4513   0.723   2.764   0.121 -3.8675  0.5906  0.3898
 1517TIP3   OH2 4514   6.413   4.161   2.229 -0.6099  0.3128  0.4917
 1517TIP3    H1 4515   6.344   4.158   2.296  0.7704 -2.3301  1.9680
 1517TIP3    H2 4516   6.418   4.072   2.195  0.8232  0.8854 -0.9543
 1518TIP3   OH2 4517   1.091   5.701   2.269  0.2756 -0.3393  0.0101
 1518TIP3    H1 4518   1.001   5.732   2.281  0.3844 -0.7673  2.2243
 1518TIP3    H2 4519   1.138   5.777   2.234 -0.7242  0.1716 -0.2554
 1519TIP3   OH2 4520   6.611   3.177   5.149  0.7572 -0.0570  0.5269
 1519TIP3    H1 4521   6.530   3.226   5.167  1.1395  0.3252  1.2464
 1519TIP3    H2 4522   6.644   3.216   5.068  1.0348  0.8677  1.0669
 1520TIP3   OH2 4523   6.339   1.798   3.843  0.3173 -0.6420  0.2169
 1520TIP3    H1 4524   6.422   1.825   3.883  0.1978 -0.0299  0.0630
 1520TIP3    H2 4525   6.296   1.745   3.910  0.3669 -0.0844  0.6991
 1521TIP3   OH2 4526   0.668   5.111   0.016 -0.1579 -0.1072 -0.5513
 1521TIP3    H1 4527   0.656   5.156   0.099  2.2900  0.1289 -0.2397
 1521TIP3    H2 4528   0.623   5.166  -0.048 -1.7861 -0.1194  0.5273
 1522TIP3   OH2 4529   3.833   1.069   4.281 -0.5670 -0.0311  0.6625
 1522TIP3    H1 4530   3.764   1.124   4.318 -0.3941 -1.0119  2.5711
 1522TIP3    H2 4531   3.913   1.098   4.326  0.7122  2.2828 -2.7428
 1523TIP3   OH2 4532   1.736   3.984   0.444 -0.3067 -0.4396 -0.3904
 1523TIP3    H1 4533   1.822   3.957   0.411  0.1751  1.6031 -0.9335
 1523TIP3    H2 4534   1.736   4.079   0.437 -1.2607 -0.0540  2.9317
 1524TIP3   OH2 4535   1.205   4.334   4.759 -0.5052 -0.1284  0.4183
 1524TIP3    H1 4536   1.222   4.359   4.668 -0.4410  1.1213  0.7585
 1524TIP3    H2 4537   1.292   4.328   4.799 -0.5741  0.6589  0.7184
 1525TIP3   OH2 4538   3.630   1.408   1.469 -0.6449 -0.4806  0.0515
 1525TIP3    H1 4539   3.638   1.354   1.547 -0.3414 -1.2206 -0.4819
 1525TIP3    H2 4540   3.688   1.482   1.485  0.2051 -1.1421  0.1085
 1526TIP3   OH2 4541   6.486   2.249   5.510 -0.0106 -0.1222 -0.1563
 1526TIP3    H1 4542   6.499   2.324   5.451 -1.5471 -1.0250 -1.7612
 1526TIP3    H2 4543   6.425   2.193   5.462  0.3200 -1.9177  1.4509
 1527TIP3   OH2 4544   7.231   1.707   0.305  0.0720  0.7817 -0.2631
 1527TIP3    H1 4545   7.188   1.766   0.243  1.1389  0.6032 -1.2108
 1527TIP3    H2 4546   7.164   1.641   0.325 -0.5472  1.2901 -0.6043
 1528TIP3   OH2 4547   3.409   1.076   4.200 -0.1666 -0.2806 -0.3934
 1528TIP3    H1 4548   3.399   1.126   4.281  0.3361 -0.8565  0.0359
 1528TIP3    H2 4549   3.492   1.030   4.210 -0.8053 -1.5351 -0.5862
 1529TIP3   OH2 4550   5.556   5.649   2.389  0.3461  0.4238  0.1145
 1529TIP3    H1 4551   5.554   5.744   2.389 -0.8665  0.4281 -1.5292
 1529TIP3    H2 4552   5.525   5.624   2.476 -0.6201  1.5238  0.0997
 1530TIP3   OH2 4553   0.287   1.282   1.134  0.4806  0.2008  0.0248
 1530TIP3    H1 4554   0.311   1.355   1.076  0.8246 -1.1423 -1.5834
 1530TIP3    H2 4555   0.298   1.204   1.081 -1.6374 -0.9469  1.1275
 1531TIP3   OH2 4556   6.128   4.019   3.965  0.3668 -0.0674 -0.5921
 1531TIP3    H1 4557   6.119   4.060   4.051  1.0906  1.5810 -1.2539
 1531TIP3    H2 4558   6.141   3.926   3.984 -1.7071 -0.1291  0.9674
 1532TIP3   OH2 4559   1.049   5.126   3.782 -0.2136 -0.3782  0.4556
 1532TIP3    H1 4560   1.027   5.066   3.854  0.0267 -2.5460 -1.1681
 1532TIP3    H2 4561   0.993   5.202   3.796  0.4281 -0.3425  3.3809
 1533TIP3   OH2 4562   3.107   5.790   1.197  0.0252  0.1549  0.0458
 1533TIP3    H1 4563   3.099   5.699   1.166 -0.8037  0.2796 -0.1342
 1533TIP3    H2 4564   3.039   5.837   1.148 -0.3168  0.6444  0.9806
 1534TIP3   OH2 4565   3.665   0.753   0.782  0.0145  0.4615  0.2442
 1534TIP3    H1 4566   3.698   0.788   0.865  1.4010 -0.2323  0.0109
 1534TIP3    H2 4567   3.570   0.755   0.792  0.1332 -0.9179  2.4372
 1535TIP3   OH2 4568   6.204   1.404   2.413  0.0929 -0.2365  0.0571
 1535TIP3    H1 4569   6.167   1.448   2.336  1.6292  1.2831  0.1289
 1535TIP3    H2 4570   6.128   1.384   2.468 -0.9338 -0.4529 -1.3763
 1536TIP3   OH2 4571   0.948   1.750   0.275 -0.2708 -0.0441  0.6020
 1536TIP3    H1 4572   1.021   1.781   0.223 -0.2228 -0.2402  0.5533
 1536TIP3    H2 4573   0.988   1.713   0.354 -0.4183  1.7734  1.5802
 1537TIP3   OH2 4574   0.965   6.120   1.745 -0.0146 -0.5104 -0.3988
 1537TIP3    H1 4575   0.995   6.174   1.672  1.5721 -1.4718 -0.4898
 1537TIP3    H2 4576   1.014   6.153   1.821 -0.8146 -0.2639  0.0230
 1538TIP3   OH2 4577   0.250   0.326   5.075 -0.1127 -0.0282 -0.4089
 1538TIP3    H1 4578   0.234   0.324   5.170 -0.2355 -0.0507 -0.4293
 1538TIP3    H2 4579   0.298   0.408   5.061  0.4737 -0.3435 -0.2438
 1539TIP3   OH2 4580   1.691   3.263   2.879  0.1613  0.2671 -0.3897
 1539TIP3    H1 4581   1.768   3.304   2.839 -0.9873  2.9867  0.0186
 1539TIP3    H2 4582   1.660   3.202   2.812  2.6647 -1.0346 -0.5120
 1540TIP3   OH2 4583   3.100   2.735   4.972 -0.0816 -0.0608  0.0329
 1540TIP3    H1 4584   3.097   2.725   5.067 -0.1634  1.3353  0.2001
 1540TIP3    H2 4585   3.188   2.707   4.948 -0.3456 -1.2585  0.3927
 1541TIP3   OH2 4586   6.463   5.195   2.851  0.2457  0.3232 -0.1014
 1541TIP3    H1 4587   6.375   5.160   2.841  0.1580  0.4827  0.0978
 1541TIP3    H2 4588   6.519   5.135   2.802  0.2231 -0.6048  0.9767
 1542TIP3   OH2 4589   2.861   6.015   4.487  0.7697 -0.1779 -0.2595
 1542TIP3    H1 4590   2.945   6.057   4.506  0.5052 -0.5030  1.8964
 1542TIP3    H2 4591   2.799   6.058   4.546 -0.5634 -0.0953 -1.6575
 1543TIP3   OH2 4592   7.192   4.154   4.251  0.4154 -0.1809  0.1584
 1543TIP3    H1 4593   7.140   4.228   4.221  0.1812 -0.1060  0.7277
 1543TIP3    H2 4594   7.206   4.171   4.345  1.6152 -0.1119 -0.0149
 1544TIP3   OH2 4595   2.486   2.400   0.016  0.2333  0.3749  0.2739
 1544TIP3    H1 4596   2.466   2.449   0.096 -1.4785  0.8435 -0.3951
 1544TIP3    H2 4597   2.515   2.315   0.047 -0.9653  0.3404  1.4251
 1545TIP3   OH2 4598   5.536   0.849   1.754 -0.1525  0.3416 -0.2837
 1545TIP3    H1 4599   5.587   0.772   1.780  0.2564  1.2299  1.7213
 1545TIP3    H2 4600   5.445   0.817   1.751  0.2336 -0.7347 -1.7881
 1546TIP3   OH2 4601   0.040   2.685   3.359  0.2328  0.3285 -0.2546
 1546TIP3    H1 4602   0.066   2.736   3.283  1.4294 -0.3748 -0.3359
 1546TIP3    H2 4603   0.008   2.602   3.322 -1.0428  0.7274 -0.0873
 1547TIP3   OH2 4604   5.213   3.138   2.756  0.8615  0.0830  0.0603
 1547TIP3    H1 4605   5.284   3.151   2.692  1.4932 -0.0743  0.7208
 1547TIP3    H2 4606   5.257   3.108   2.835  0.1292  0.7169  0.7239
 1548TIP3   OH2 4607   6.377   3.210   2.455  0.1912  0.3020 -0.5781
 1548TIP3    H1 4608   6.380   3.240   2.364  1.1825 -0.3095 -0.7518
 1548TIP3    H2 4609   6.468   3.197   2.480 -0.1444 -1.6982 -0.2221
 1549TIP3   OH2 4610   5.176   3.689   2.060 -0.0930  0.6345  0.3454
 1549TIP3    H1 4611   5.247   3.750   2.038  0.0766  0.3863  0.2022
 1549TIP3    H2 4612   5.182   3.621   1.993 -0.7916  0.8799  0.0168
 1550TIP3   OH2 4613   3.930   6.061   1.687 -1.0572 -0.1367 -0.2713
 1550TIP3    H1 4614   4.025   6.051   1.683 -0.8789  1.1664  0.0526
 1550TIP3    H2 4615   3.903   6.001   1.756  0.2232  2.9432  3.3022
 1551TIP3   OH2 4616   5.640   5.988   5.264 -0.7640  0.0563 -0.5198
 1551TIP3    H1 4617   5.586   5.909   5.267  0.1150 -0.6119 -1.5192
 1551TIP3    H2 4618   5.588   6.051   5.215 -1.3480  0.0163  0.0274
 1552TIP3   OH2 4619   5.299   5.918   2.955  0.0858  0.7123 -0.0143
 1552TIP3    H1 4620   5.393   5.902   2.946 -0.2122 -0.7822 -0.8314
 1552TIP3    H2 4621   5.261   5.831   2.967 -1.2165  1.2705  0.0931
 1553TIP3   OH2 4622   1.175   5.398   5.670 -0.5614 -0.4604  0.5580
 1553TIP3    H1 4623   1.259   5.355   5.684 -0.1791  0.8359  2.6956
 1553TIP3    H2 4624   1.176   5.426   5.579  1.6776  0.2783  0.7753
 1554TIP3   OH2 4625   5.219   5.404   4.924  0.1447 -0.5269  0.3236
 1554TIP3    H1 4626   5.165   5.325   4.929  0.1307 -0.5198  0.2809
 1554TIP3    H2 4627   5.307   5.372   4.908  0.2913 -0.5832  1.1792
 1555TIP3   OH2 4628   5.329   3.384   2.476  1.0380 -0.3248  0.0836
 1555TIP3    H1 4629   5.291   3.329   2.408 -0.2183  0.2111  0.3322
 1555TIP3    H2 4630   5.410   3.339   2.501  1.1248 -0.9161 -1.2196
 1556TIP3   OH2 4631   6.205   3.632   3.297 -0.0010 -0.3474  0.1005
 1556TIP3    H1 4632   6.173   3.542   3.290 -2.4624  0.4093  0.5637
 1556TIP3    H2 4633   6.180   3.672   3.213  1.3359 -0.1345 -0.2187
 1557TIP3   OH2 4634   4.242   5.525   4.629  0.0831  0.5059  0.4222
 1557TIP3    H1 4635   4.233   5.614   4.595 -2.6125 -0.9544 -3.2394
 1557TIP3    H2 4636   4.157   5.505   4.668 -0.0706 -1.1075 -0.6602
 1558TIP3   OH2 4637   0.124   3.127   1.088 -0.2304 -0.5072  0.7398
 1558TIP3    H1 4638   0.112   3.066   1.016 -0.0300  0.0183  0.2507
 1558TIP3    H2 4639   0.116   3.214   1.048 -2.9810 -0.1690  1.8257
 1559TIP3   OH2 4640   4.601   5.280   4.016 -0.2010 -0.0766  0.5912
 1559TIP3    H1 4641   4.693   5.302   4.027 -0.5495  1.8462  0.0413
 1559TIP3    H2 4642   4.554   5.351   4.059 -1.4729 -1.8290  2.2795
 1560TIP3   OH2 4643   6.717   0.724   2.977 -0.2302  0.2018 -0.1501
 1560TIP3    H1 4644   6.743   0.811   2.947  0.1480  0.4173  0.7422
 1560TIP3    H2 4645   6.621   0.726   2.976 -0.2297  0.2168 -1.2396
 1561TIP3   OH2 4646   2.714   6.255   2.578 -0.0336 -0.0113 -0.1887
 1561TIP3    H1 4647   2.674   6.267   2.665  1.3791 -1.0356  0.6370
 1561TIP3    H2 4648   2.649   6.290   2.518 -0.1347  2.8864  1.4032
 1562TIP3   OH2 4649   2.110   3.975   4.636  1.0179 -0.4794  0.2730
 1562TIP3    H1 4650   2.056   3.986   4.714  1.8420  0.6103  0.7208
 1562TIP3    H2 4651   2.129   3.881   4.633  1.0996 -0.5153  1.4816
 1563TIP3   OH2 4652   1.568   4.805   0.013  0.3883  0.1912  0.1400
 1563TIP3    H1 4653   1.524   4.856   0.080  0.3887  1.0598 -0.5031
 1563TIP3    H2 4654   1.628   4.867  -0.029 -0.3969 -0.0263 -1.3769
 1564TIP3   OH2 4655   5.246   5.165   3.640  0.1728 -0.4075  0.5193
 1564TIP3    H1 4656   5.223   5.233   3.703  0.8650 -1.2469  1.7267
 1564TIP3    H2 4657   5.185   5.094   3.658 -0.9835  0.0981 -1.1752
 1565TIP3   OH2 4658   1.717   0.087   1.775 -0.2751  0.3597 -0.3907
 1565TIP3    H1 4659   1.782   0.132   1.720 -1.2577  1.7886 -0.4416
 1565TIP3    H2 4660   1.651   0.055   1.712 -0.1609 -0.1674 -0.2479
 1566TIP3   OH2 4661   5.673   1.380   5.027  0.2202 -0.4115  0.3467
 1566TIP3    H1 4662   5.650   1.473   5.020  1.2028 -0.1482  0.5406
 1566TIP3    H2 4663   5.642   1.342   4.944 -0.7947 -0.0573  0.5479
 1567TIP3   OH2 4664   1.531   6.467   3.961  0.3871 -0.2309 -0.0611
 1567TIP3    H1 4665   1.611   6.416   3.949  0.8874  0.4077  0.5065
 1567TIP3    H2 4666   1.546   6.519   4.040 -0.2300  0.5569 -0.4406
 1568TIP3   OH2 4667   4.996   6.698   5.522 -0.5515 -0.0454 -0.2377
 1568TIP3    H1 4668   4.955   6.617   5.491  2.0917 -0.8477 -2.0173
 1568TIP3    H2 4669   4.930   6.766   5.506 -2.4600 -1.6497  0.3628
 1569TIP3   OH2 4670   1.183   0.387   5.801 -0.0543 -0.6492  0.7650
 1569TIP3    H1 4671   1.195   0.304   5.847 -0.8749 -0.8969  0.5481
 1569TIP3    H2 4672   1.269   0.429   5.804  0.4692 -1.6870  0.5068
 1570TIP3   OH2 4673   3.828   4.500   5.721 -0.3586  0.3864 -0.0066
 1570TIP3    H1 4674   3.899   4.437   5.733 -0.7186  0.0270  0.2448
 1570TIP3    H2 4675   3.749   4.453   5.745 -0.6101  0.9959  0.3996
 1571TIP3   OH2 4676   2.659   4.896   0.033 -0.2749  0.0008  0.2291
 1571TIP3    H1 4677   2.641   4.804   0.052  0.4421 -0.5668 -1.5597
 1571TIP3    H2 4678   2.746   4.896  -0.007 -0.5667  1.3461 -0.4962
 1572TIP3   OH2 4679   1.178   1.094   4.225 -0.4911 -0.2612  0.2663
 1572TIP3    H1 4680   1.177   1.004   4.258  0.3523  0.0148  1.0732
 1572TIP3    H2 4681   1.091   1.128   4.247  0.0333 -0.0742  2.3079
 1573TIP3   OH2 4682   2.210   1.799   5.143  0.0780  0.5632 -0.1641
 1573TIP3    H1 4683   2.215   1.862   5.214  1.8020  0.1669  0.1183
 1573TIP3    H2 4684   2.191   1.715   5.185 -4.1093  1.0138 -0.6838
 1574TIP3   OH2 4685   6.604   2.455   0.868  0.0603  0.1048  0.9905
 1574TIP3    H1 4686   6.578   2.451   0.776 -0.2414  0.4364  1.0622
 1574TIP3    H2 4687   6.672   2.388   0.876  1.3431  1.2427  0.1323
 1575TIP3   OH2 4688   0.873   1.233   4.616  0.3469 -0.0673 -0.1503
 1575TIP3    H1 4689   0.779   1.246   4.609  0.3457  0.7351  0.9936
 1575TIP3    H2 4690   0.898   1.188   4.535 -0.4923  2.7806 -2.1556
 1576TIP3   OH2 4691   3.420   0.229   1.667  0.0788  0.8520  0.7533
 1576TIP3    H1 4692   3.473   0.211   1.744 -1.3101  2.1689  2.0696
 1576TIP3    H2 4693   3.457   0.308   1.629  0.9808  0.0138 -0.1884
 1577TIP3   OH2 4694   5.875   0.005   2.319 -0.1873  0.6157 -0.2844
 1577TIP3    H1 4695   5.887   0.038   2.230  0.5417  0.7305 -0.1495
 1577TIP3    H2 4696   5.805   0.060   2.355 -0.3277  0.7226 -0.7087
 1578TIP3   OH2 4697   5.405   5.442   5.399  0.0628 -0.4958  1.0606
 1578TIP3    H1 4698   5.363   5.368   5.442  0.6820 -1.8082 -0.4770
 1578TIP3    H2 4699   5.333   5.504   5.382 -0.8362 -1.6100  0.6574
 1579TIP3   OH2 4700   2.299   3.396   0.833  0.6539  0.1300  0.8679
 1579TIP3    H1 4701   2.245   3.335   0.783 -0.6568  2.6656 -1.0125
 1579TIP3    H2 4702   2.237   3.450   0.882  1.7397  0.4403  1.9771
 1580TIP3   OH2 4703   4.942   4.157   1.702 -0.2148 -0.4018 -0.9277
 1580TIP3    H1 4704   5.008   4.087   1.703 -0.8932 -1.1333 -2.8099
 1580TIP3    H2 4705   4.983   4.229   1.750  0.1501 -2.3621  1.9678
 1581TIP3   OH2 4706   3.679   6.175   4.923  0.1701 -0.0800  0.4229
 1581TIP3    H1 4707   3.743   6.167   4.993  0.4896  0.7160  0.2441
 1581TIP3    H2 4708   3.699   6.260   4.883 -1.4552  0.5370  0.8278
 1582TIP3   OH2 4709   0.680   5.887   1.607 -0.0708  0.4030 -0.7159
 1582TIP3    H1 4710   0.683   5.920   1.697  1.2837 -0.4753 -0.4088
 1582TIP3    H2 4711   0.624   5.949   1.561  0.8411  2.0363  0.2710
 1583TIP3   OH2 4712   2.044   2.602   0.004  0.1058  0.0733  0.5521
 1583TIP3    H1 4713   1.961   2.572   0.040 -0.0271  0.0471  0.2258
 1583TIP3    H2 4714   2.073   2.671   0.064 -0.9375  1.2179 -0.2135
 1584TIP3   OH2 4715   0.454   1.663   4.544 -0.3026 -0.1476 -0.4405
 1584TIP3    H1 4716   0.493   1.577   4.556  1.1702  0.3017 -1.6838
 1584TIP3    H2 4717   0.379   1.647   4.486 -1.3163 -0.8441  1.0018
 1585TIP3   OH2 4718   5.398   0.443   1.931 -0.0707 -0.6153  0.0082
 1585TIP3    H1 4719   5.312   0.430   1.891  0.2319  1.6676 -1.5437
 1585TIP3    H2 4720   5.381   0.500   2.006  0.1084  0.0631 -0.4616
 1586TIP3   OH2 4721   2.979   1.408   4.564  0.3920 -0.4139 -0.1900
 1586TIP3    H1 4722   2.923   1.454   4.627  1.6662  1.8424 -0.6054
 1586TIP3    H2 4723   3.054   1.465   4.552  1.4903 -2.0645 -1.7399
 1587TIP3   OH2 4724  -0.012   1.430   1.506  0.6503  0.0553  0.2770
 1587TIP3    H1 4725  -0.018   1.418   1.601  1.6114  0.6774  0.4294
 1587TIP3    H2 4726   0.049   1.362   1.478  2.1902  1.3091  0.4513
 1588TIP3   OH2 4727   1.816   4.554   1.172 -1.0352  0.1135 -0.6881
 1588TIP3    H1 4728   1.872   4.504   1.231 -1.8237 -0.6884 -0.5875
 1588TIP3    H2 4729   1.865   4.558   1.089 -1.7308 -2.5452 -1.3272
 1589TIP3   OH2 4730   3.614   5.273   2.672  0.1480  0.2174  0.0033
 1589TIP3    H1 4731   3.659   5.279   2.588  1.8627 -1.3565  0.7504
 1589TIP3    H2 4732   3.535   5.222   2.653  1.0108 -0.9715 -0.5059
 1590TIP3   OH2 4733   2.084   5.348   3.123 -0.0439 -0.5309  0.6797
 1590TIP3    H1 4734   2.127   5.300   3.194 -1.3545 -0.6020  1.4457
 1590TIP3    H2 4735   2.065   5.434   3.160 -0.4662 -0.4638  0.3185
 1591TIP3   OH2 4736   2.146   4.529   2.000 -0.4117  0.1481 -0.1288
 1591TIP3    H1 4737   2.200   4.516   1.922 -1.5679 -2.7060 -0.5921
 1591TIP3    H2 4738   2.085   4.598   1.976  2.7399  3.4532  0.3913
 1592TIP3   OH2 4739   1.061   6.709   5.328  0.6239 -0.2227  0.1273
 1592TIP3    H1 4740   1.106   6.672   5.253  0.1918  0.0600 -0.2831
 1592TIP3    H2 4741   1.076   6.647   5.399 -0.1299 -1.2139 -0.5544
 1593TIP3   OH2 4742   5.097   5.356   2.987  0.1736 -0.4638  0.4798
 1593TIP3    H1 4743   5.056   5.279   3.026  1.0923 -1.0885  0.2222
 1593TIP3    H2 4744   5.037   5.428   3.008 -0.9485 -1.3238  0.2922
 1594TIP3   OH2 4745   1.006   3.766   4.990 -0.7718 -0.1217  0.3193
 1594TIP3    H1 4746   1.015   3.798   5.080  0.8170 -0.2354  0.2258
 1594TIP3    H2 4747   1.070   3.817   4.940 -1.5657 -0.1305 -0.7478
 1595TIP3   OH2 4748   6.733   1.102   4.769  0.4684  0.0941 -0.3766
 1595TIP3    H1 4749   6.662   1.144   4.817  0.3965 -0.0800 -0.3342
 1595TIP3    H2 4750   6.777   1.047   4.833 -0.4549 -1.2025 -0.8088
 1596TIP3   OH2 4751   5.783   0.608   2.198  0.0931 -0.2431 -0.0338
 1596TIP3    H1 4752   5.696   0.641   2.173  0.6813  1.1274 -0.3808
 1596TIP3    H2 4753   5.795   0.529   2.145 -0.6180 -0.0068 -0.5677
 1597TIP3   OH2 4754   0.143   0.763   4.105 -0.3759 -0.4685 -0.1643
 1597TIP3    H1 4755   0.136   0.726   4.193 -0.4720 -1.2591 -0.5029
 1597TIP3    H2 4756   0.237   0.775   4.091 -0.3136 -0.9798 -0.2102
 1598TIP3   OH2 4757   4.990   3.572   2.906  0.4263  0.2074  0.5265
 1598TIP3    H1 4758   5.009   3.512   2.834  1.9765 -0.1128  1.1742
 1598TIP3    H2 4759   4.967   3.654   2.863 -0.1220 -0.3827 -0.3451
 1599TIP3   OH2 4760   2.325   6.491   1.589  0.6490  0.2799  0.0421
 1599TIP3    H1 4761   2.290   6.564   1.640 -1.7542 -0.5743 -0.2579
 1599TIP3    H2 4762   2.365   6.532   1.512  1.0991  1.3558  0.8266
 1600TIP3   OH2 4763   0.817   5.399   1.225 -0.0305  0.2075  0.4602
 1600TIP3    H1 4764   0.750   5.447   1.176  0.3403  0.7585  0.4732
 1600TIP3    H2 4765   0.781   5.312   1.238 -1.2856  0.8668  1.5901
 1601TIP3   OH2 4766   3.756   4.631   2.369 -0.0886  0.1514 -0.1246
 1601TIP3    H1 4767   3.681   4.606   2.423  0.6690  0.5431  1.1411
 1601TIP3    H2 4768   3.825   4.569   2.393  0.8574  1.5156  0.8320
 1602TIP3   OH2 4769   1.528   1.336   1.228 -0.4303 -0.5297 -0.2710
 1602TIP3    H1 4770   1.523   1.431   1.215  0.3621 -0.3529  0.5892
 1602TIP3    H2 4771   1.442   1.303   1.200 -1.5220  0.6912  1.4300
 1603TIP3   OH2 4772   5.082   1.382   4.481  0.1811  0.1067  0.2559
 1603TIP3    H1 4773   4.993   1.410   4.459  0.7199 -0.0437 -2.3678
 1603TIP3    H2 4774   5.090   1.296   4.440  0.7325 -1.0690  2.6568
 1604TIP3   OH2 4775   5.539   4.127   2.070 -0.0456  0.1582 -0.0151
 1604TIP3    H1 4776   5.516   4.203   2.124  2.4179 -0.5590  2.2579
 1604TIP3    H2 4777   5.528   4.052   2.128  1.1503 -0.8145 -0.9995
 1605TIP3   OH2 4778   1.256   4.272   5.277 -0.1352 -0.5222 -0.1646
 1605TIP3    H1 4779   1.249   4.368   5.281 -2.3786 -0.6907  1.5154
 1605TIP3    H2 4780   1.348   4.255   5.299  0.0730  1.2166  0.5356
 1606TIP3   OH2 4781   1.497   1.926   4.216 -0.4176 -0.5377 -0.3383
 1606TIP3    H1 4782   1.405   1.944   4.196 -0.2923 -0.5442 -0.9476
 1606TIP3    H2 4783   1.527   1.870   4.144  0.3913  0.4817 -0.8303
 1607TIP3   OH2 4784   3.790   4.869   3.126 -0.4219  0.1366 -0.6883
 1607TIP3    H1 4785   3.782   4.791   3.182  0.6145 -0.5634 -1.4823
 1607TIP3    H2 4786   3.830   4.837   3.045  0.0710  1.5073 -1.0169
 1608TIP3   OH2 4787   0.404   0.915   1.948 -0.3161 -0.2062 -0.7820
 1608TIP3    H1 4788   0.440   1.003   1.948  0.8264 -0.5219  2.6412
 1608TIP3    H2 4789   0.312   0.926   1.925 -0.2600  1.9221 -0.1697
 1609TIP3   OH2 4790   5.926   2.494   5.420  0.0096 -0.0779 -0.2054
 1609TIP3    H1 4791   5.852   2.541   5.382 -2.4817 -2.5383  1.1950
 1609TIP3    H2 4792   5.919   2.512   5.514 -0.6539 -2.5862  0.2946
 1610TIP3   OH2 4793   6.289   0.187   3.577  0.0187  0.1301 -0.2468
 1610TIP3    H1 4794   6.368   0.230   3.547 -1.4877  1.9120 -1.8850
 1610TIP3    H2 4795   6.253   0.145   3.499  0.5453 -2.8519  0.9550
 1611TIP3   OH2 4796   3.916   4.111   5.569  0.1595 -0.4041  0.0109
 1611TIP3    H1 4797   3.880   4.046   5.509  0.2382  0.4636 -0.9907
 1611TIP3    H2 4798   3.961   4.174   5.513  2.5715 -0.9955  1.1400
 1612TIP3   OH2 4799   1.096   5.590   0.473 -0.1550  0.3777  0.2628
 1612TIP3    H1 4800   1.070   5.524   0.538 -1.1417  1.4275  0.9634
 1612TIP3    H2 4801   1.190   5.578   0.464 -0.0316  0.0120  1.6896
 1613TIP3   OH2 4802   6.502   4.396   3.191  0.2603  0.2060 -0.4827
 1613TIP3    H1 4803   6.426   4.453   3.178 -0.6213 -1.2696 -2.4335
 1613TIP3    H2 4804   6.515   4.354   3.105  2.3590 -0.6899  0.2221
 1614TIP3   OH2 4805   6.299   4.261   0.383  0.2745 -0.1168 -0.1363
 1614TIP3    H1 4806   6.204   4.257   0.377  0.2798  0.1004 -0.3675
 1614TIP3    H2 4807   6.326   4.170   0.399  0.1316 -0.4041 -1.4600
 1615TIP3   OH2 4808   2.621   3.514   5.701  0.1175  0.1917 -0.3431
 1615TIP3    H1 4809   2.673   3.572   5.755  0.3740 -0.0732 -0.3062
 1615TIP3    H2 4810   2.530   3.531   5.727  0.1602  0.8549 -0.6066
 1616TIP3   OH2 4811   4.236   2.940   4.459 -0.0430  0.3405 -0.7484
 1616TIP3    H1 4812   4.244   2.848   4.484 -0.0072  0.1351 -1.4947
 1616TIP3    H2 4813   4.287   2.987   4.524 -0.4678 -0.1201 -0.0697
 1617TIP3   OH2 4814   4.060   4.053   0.824 -0.2004 -0.2740  0.0687
 1617TIP3    H1 4815   3.991   4.107   0.864 -0.5333  0.1741 -1.0758
 1617TIP3    H2 4816   4.136   4.110   0.820 -0.4031 -0.0475 -0.6695
 1618TIP3   OH2 4817   5.258   5.223   0.277 -0.4500  0.5819  0.4543
 1618TIP3    H1 4818   5.343   5.215   0.234 -1.8056  0.8758 -2.5090
 1618TIP3    H2 4819   5.250   5.143   0.329  0.2785 -1.1328 -1.8885
 1619TIP3   OH2 4820   7.124   4.399   2.183  0.3495 -0.2744 -0.2214
 1619TIP3    H1 4821   7.106   4.385   2.090  2.9945 -0.3277 -0.7999
 1619TIP3    H2 4822   7.125   4.494   2.193 -0.0392 -0.2695 -0.2106
 1620TIP3   OH2 4823   0.207   6.328   5.309 -0.1886 -0.5716 -0.0183
 1620TIP3    H1 4824   0.279   6.302   5.366 -1.0409  1.3584  2.1085
 1620TIP3    H2 4825   0.218   6.423   5.299 -2.1466 -0.3144 -0.0608
 1621TIP3   OH2 4826   2.867   4.905   4.126  0.1176 -0.8020 -0.5422
 1621TIP3    H1 4827   2.796   4.931   4.185  0.7348  0.3702 -0.2833
 1621TIP3    H2 4828   2.834   4.928   4.039  0.4153  0.3641 -0.3653
 1622TIP3   OH2 4829   1.500   0.951   1.371 -0.1440 -0.2943  0.2176
 1622TIP3    H1 4830   1.501   1.023   1.434 -2.6606  1.5945 -1.6130
 1622TIP3    H2 4831   1.419   0.903   1.390 -1.6652  1.0920 -2.1419
 1623TIP3   OH2 4832   5.569   0.155   0.454  0.1709 -0.8079  0.0247
 1623TIP3    H1 4833   5.518   0.204   0.389  1.6967 -0.6544 -1.1043
 1623TIP3    H2 4834   5.620   0.092   0.403  3.9137  1.4606  0.5938
 1624TIP3   OH2 4835   1.355   4.444   0.818  0.4585  0.3876  0.0061
 1624TIP3    H1 4836   1.304   4.428   0.898 -0.2768  0.7572 -0.3813
 1624TIP3    H2 4837   1.300   4.502   0.766  1.8348  1.8953  0.1451
 1625TIP3   OH2 4838   5.461   4.394   2.041 -0.5582  0.6566 -0.2143
 1625TIP3    H1 4839   5.421   4.454   1.978 -0.7813  1.5257  0.7157
 1625TIP3    H2 4840   5.437   4.430   2.126  0.5937  0.0955  0.3717
 1626TIP3   OH2 4841   5.096   3.457   3.234 -0.7993  0.3434 -0.8211
 1626TIP3    H1 4842   5.030   3.400   3.196 -0.2881 -0.4234 -0.5770
 1626TIP3    H2 4843   5.151   3.484   3.160 -0.3921 -0.3616 -0.7820
 1627TIP3   OH2 4844   3.637   5.885   2.906  0.5860 -0.4991 -0.2212
 1627TIP3    H1 4845   3.698   5.863   2.976 -0.5937  1.5639  1.5829
 1627TIP3    H2 4846   3.564   5.825   2.918  1.1002 -1.2448 -0.7525
 1628TIP3   OH2 4847   1.190   1.806   0.161  0.4770  0.2353 -0.5447
 1628TIP3    H1 4848   1.246   1.757   0.101 -0.2431 -0.1661 -0.8944
 1628TIP3    H2 4849   1.198   1.897   0.133 -0.8523 -0.0852 -2.0960
 1629TIP3   OH2 4850   0.265   3.830   3.837  0.1827  0.5072  0.4284
 1629TIP3    H1 4851   0.215   3.911   3.836  0.1756  0.5227  1.3791
 1629TIP3    H2 4852   0.280   3.810   3.744  1.3080  2.2606  0.1988
 1630TIP3   OH2 4853   2.422   2.375   0.448  0.2937 -0.4868  0.3108
 1630TIP3    H1 4854   2.492   2.315   0.472  0.0689 -0.2353  1.6815
 1630TIP3    H2 4855   2.435   2.451   0.505 -0.5752 -0.0809 -0.0208
 1631TIP3   OH2 4856   4.182   4.952   5.008  0.1742 -0.1705  0.0838
 1631TIP3    H1 4857   4.243   4.986   5.074 -0.6834 -0.6350  1.1645
 1631TIP3    H2 4858   4.192   5.011   4.934 -0.3434  1.6947  1.4145
 1632TIP3   OH2 4859   3.534   6.358   5.778  0.1219  0.0362  0.1769
 1632TIP3    H1 4860   3.528   6.453   5.763 -1.8288  0.1533  1.2995
 1632TIP3    H2 4861   3.567   6.350   5.867 -1.8134 -0.2136  0.9326
 1633TIP3   OH2 4862   6.402   4.767   4.339 -0.2815  0.2819  0.2188
 1633TIP3    H1 4863   6.483   4.716   4.334  0.2590  1.1017  0.4558
 1633TIP3    H2 4864   6.338   4.707   4.377  1.1657  0.7349  3.7158
 1634TIP3   OH2 4865   3.657   4.987   5.087 -0.0723 -0.2401  0.0866
 1634TIP3    H1 4866   3.742   5.011   5.051 -0.2432  0.1422 -0.0724
 1634TIP3    H2 4867   3.674   4.909   5.140  0.2441 -0.6073 -0.5426
 1635TIP3   OH2 4868   2.920   2.355   3.931  0.2274  0.0645  0.0806
 1635TIP3    H1 4869   2.839   2.330   3.975 -0.6286  1.8244 -0.3930
 1635TIP3    H2 4870   2.977   2.386   4.002 -0.7503  1.8711  0.1468
 1636TIP3   OH2 4871   0.634   0.914   3.307 -0.0900 -0.0848  0.6795
 1636TIP3    H1 4872   0.553   0.961   3.291  0.7848  0.8331 -1.5185
 1636TIP3    H2 4873   0.610   0.821   3.302 -0.8295  0.1556 -1.4602
 1637TIP3   OH2 4874   1.399   3.796   5.653  0.1052 -0.1205 -0.0191
 1637TIP3    H1 4875   1.433   3.831   5.570  0.6321  0.6931  0.5239
 1637TIP3    H2 4876   1.379   3.705   5.634  0.8789 -0.1333 -0.8548
 1638TIP3   OH2 4877   2.703   1.300   2.843  0.4347 -0.6493  0.5372
 1638TIP3    H1 4878   2.697   1.373   2.905 -1.1929  0.7771 -1.1588
 1638TIP3    H2 4879   2.791   1.309   2.805  0.3150  0.3964  0.4542
 1639TIP3   OH2 4880   4.446   4.852   4.059 -0.0997  0.1775  0.2176
 1639TIP3    H1 4881   4.537   4.851   4.028 -0.2546  0.3716 -0.2414
 1639TIP3    H2 4882   4.442   4.926   4.119 -0.1331  0.5876 -0.2921
 1640TIP3   OH2 4883   1.310   6.662   5.899  0.4252  0.4322 -0.0677
 1640TIP3    H1 4884   1.226   6.625   5.928 -1.0594  3.3525 -0.2971
 1640TIP3    H2 4885   1.316   6.639   5.806  0.4369 -0.6738  0.1903
 1641TIP3   OH2 4886   7.083   0.617   5.196 -0.0561  0.4934  0.4785
 1641TIP3    H1 4887   7.083   0.633   5.290  1.3294 -0.6040  0.7092
 1641TIP3    H2 4888   7.168   0.649   5.166  0.4873 -1.2193  0.0405
 1642TIP3   OH2 4889   0.222   0.489   3.802  0.5115  0.2101  0.3728
 1642TIP3    H1 4890   0.176   0.474   3.885  1.4734  1.0358  1.0686
 1642TIP3    H2 4891   0.263   0.405   3.782 -1.6599 -0.7078 -0.5310
 1643TIP3   OH2 4892   0.899   2.416   2.962 -0.1468  0.1323  0.0271
 1643TIP3    H1 4893   0.947   2.356   2.905  0.6020 -1.5286  2.2578
 1643TIP3    H2 4894   0.849   2.359   3.021 -0.3816  1.7189  1.4493
 1644TIP3   OH2 4895   1.917   1.699   5.864  0.4169 -0.2500 -0.1302
 1644TIP3    H1 4896   2.002   1.673   5.828  1.0363  0.8841  0.4694
 1644TIP3    H2 4897   1.861   1.622   5.850  1.6227 -1.1389 -0.2275
 1645TIP3   OH2 4898   5.670   4.629   1.864 -0.1304 -0.1416  0.3375
 1645TIP3    H1 4899   5.576   4.614   1.856  0.2948 -2.2668 -1.6849
 1645TIP3    H2 4900   5.692   4.685   1.790  0.3548 -0.5223  0.1898
 1646TIP3   OH2 4901   5.028   5.463   4.533  0.3976  0.2159 -0.1446
 1646TIP3    H1 4902   5.098   5.509   4.580  1.4379 -0.5274 -0.9461
 1646TIP3    H2 4903   4.954   5.466   4.594  1.1639  0.8563  0.7966
 1647TIP3   OH2 4904   2.683   1.197   4.875  0.2928 -0.0837  0.5691
 1647TIP3    H1 4905   2.667   1.216   4.783  0.7507 -0.1063  0.4811
 1647TIP3    H2 4906   2.605   1.228   4.920 -0.0077 -0.2382  0.1524
 1648TIP3   OH2 4907   5.944   2.364   3.614 -0.0831 -0.0494 -0.7430
 1648TIP3    H1 4908   6.030   2.336   3.582 -0.1225 -2.2815  0.8226
 1648TIP3    H2 4909   5.958   2.452   3.649  0.9360  0.6412 -2.7316
 1649TIP3   OH2 4910   3.845   3.460   5.358 -0.2377 -0.3095  0.1950
 1649TIP3    H1 4911   3.914   3.454   5.424 -0.2211  2.5940  0.5314
 1649TIP3    H2 4912   3.764   3.447   5.406 -0.2012  1.3919  0.7560
 1650TIP3   OH2 4913   3.923   0.116   1.797  0.2649 -0.3794 -0.0077
 1650TIP3    H1 4914   3.947   0.024   1.798  0.8356 -0.2371 -0.4480
 1650TIP3    H2 4915   3.920   0.141   1.890 -2.4362 -1.4680  0.3001
 1651TIP3   OH2 4916   0.656   5.100   4.908  0.4132 -0.1269 -0.6034
 1651TIP3    H1 4917   0.574   5.104   4.858 -0.1968 -1.9367  0.1763
 1651TIP3    H2 4918   0.724   5.107   4.842 -0.3653  0.8435 -1.3312
 1652TIP3   OH2 4919   5.967   0.693   1.317  0.1949 -0.4869  0.1650
 1652TIP3    H1 4920   6.003   0.615   1.359  0.2860 -0.9985 -0.8326
 1652TIP3    H2 4921   6.039   0.729   1.266 -0.6088 -1.4725 -1.7815
 1653TIP3   OH2 4922   1.321   6.225   5.305 -0.2739  0.8237 -0.3951
 1653TIP3    H1 4923   1.414   6.239   5.291 -0.0415  0.1829  0.4763
 1653TIP3    H2 4924   1.313   6.131   5.323 -0.9994  0.9846  0.1809
 1654TIP3   OH2 4925   2.070   3.555   3.112  0.1421 -0.2849 -0.3476
 1654TIP3    H1 4926   2.041   3.490   3.176  1.5063  1.0594  1.7984
 1654TIP3    H2 4927   2.151   3.520   3.076  0.0626 -0.4602 -0.3553
 1655TIP3   OH2 4928   2.957   2.417   0.122 -0.0536 -0.4004 -0.1605
 1655TIP3    H1 4929   3.043   2.374   0.123  0.0355 -0.2516 -0.8915
 1655TIP3    H2 4930   2.947   2.449   0.033  0.2856  1.9652  0.5924
 1656TIP3   OH2 4931   1.740   2.733   2.761 -0.1433  0.4320 -0.2080
 1656TIP3    H1 4932   1.750   2.739   2.666  3.5542 -0.6681 -0.0535
 1656TIP3    H2 4933   1.780   2.649   2.784 -1.5551  0.3608  2.2781
 1657TIP3   OH2 4934   5.907   1.381   1.678 -0.0612 -0.5799 -0.0418
 1657TIP3    H1 4935   5.821   1.393   1.639  0.8240  1.8070 -1.4939
 1657TIP3    H2 4936   5.956   1.329   1.614 -0.2793 -1.6370  0.6231
 1658TIP3   OH2 4937   6.378   1.490   2.953 -0.0970  0.4549  0.7196
 1658TIP3    H1 4938   6.397   1.584   2.950  2.7016 -0.0355 -2.0681
 1658TIP3    H2 4939   6.331   1.472   2.871 -0.2179 -0.6660  1.0140
 1659TIP3   OH2 4940   6.059   3.886   2.476  0.0918  0.1150 -0.1545
 1659TIP3    H1 4941   5.989   3.836   2.434  0.0487 -1.1899  1.3716
 1659TIP3    H2 4942   6.045   3.873   2.570  1.6347  0.8936  0.2191
 1660TIP3   OH2 4943   4.264   5.820   1.526  0.0601  0.4851 -0.1006
 1660TIP3    H1 4944   4.198   5.751   1.518 -1.6216  1.7213  2.1111
 1660TIP3    H2 4945   4.341   5.776   1.563 -1.1233 -0.1922  1.6791
 1661TIP3   OH2 4946   3.861   1.547   3.402 -0.0396  0.3438  0.6885
 1661TIP3    H1 4947   3.827   1.517   3.486 -1.3317  2.0334  0.8188
 1661TIP3    H2 4948   3.954   1.564   3.418  0.6120 -2.6896  0.7932
 1662TIP3   OH2 4949   1.600   4.970   2.854  0.2870 -0.3624  0.3269
 1662TIP3    H1 4950   1.560   4.885   2.869 -0.2727 -0.3090 -0.7862
 1662TIP3    H2 4951   1.639   4.964   2.767  2.4846 -0.3080  1.2411
 1663TIP3   OH2 4952   1.127   5.490   3.813  0.1936  0.5238  0.1557
 1663TIP3    H1 4953   1.152   5.568   3.862 -0.7663  1.1792 -0.3779
 1663TIP3    H2 4954   1.185   5.421   3.847  1.3213  1.5381  0.3520
 1664TIP3   OH2 4955   5.667   2.225   3.908  0.1653 -0.0433  0.6647
 1664TIP3    H1 4956   5.622   2.289   3.963 -1.0311  0.2278 -0.5968
 1664TIP3    H2 4957   5.615   2.145   3.917 -0.4467  0.1999 -0.6060
 1665TIP3   OH2 4958   2.045   4.822   3.479 -0.6867  0.2104 -0.4202
 1665TIP3    H1 4959   2.139   4.815   3.495 -0.1554 -2.7057 -3.5336
 1665TIP3    H2 4960   2.018   4.733   3.456 -3.4612  1.5210 -2.8996
 1666TIP3   OH2 4961   3.601   5.896   0.395 -0.3287  0.3341  0.1569
 1666TIP3    H1 4962   3.695   5.911   0.392 -0.1666 -0.7581 -1.5516
 1666TIP3    H2 4963   3.562   5.981   0.374  0.2580  0.8140  0.9890
 1667TIP3   OH2 4964   6.645   0.237   5.145 -0.3292 -0.2805 -0.8152
 1667TIP3    H1 4965   6.703   0.212   5.217 -1.1461 -2.4435 -0.8334
 1667TIP3    H2 4966   6.699   0.227   5.066  0.2426  1.0379 -0.6165
 1668TIP3   OH2 4967   6.836   1.501   2.902 -0.6105 -0.0444 -0.0093
 1668TIP3    H1 4968   6.879   1.436   2.846 -0.8756  0.2245 -0.5297
 1668TIP3    H2 4969   6.787   1.556   2.842 -1.0916  0.1072  0.5125
 1669TIP3   OH2 4970   6.312   0.711   4.696  0.0168 -1.2201 -0.0780
 1669TIP3    H1 4971   6.232   0.764   4.687  0.1803 -0.9291  0.1670
 1669TIP3    H2 4972   6.317   0.662   4.614 -0.2715 -1.0415 -0.2073
 1670TIP3   OH2 4973   1.669   6.308   4.646  0.4505  0.4920 -0.5765
 1670TIP3    H1 4974   1.691   6.247   4.716  0.3636  0.6461 -0.4124
 1670TIP3    H2 4975   1.748   6.361   4.634  0.3365  0.7172 -0.3307
 1671TIP3   OH2 4976   4.882   0.815   1.781  0.0183  0.1194  0.1773
 1671TIP3    H1 4977   4.911   0.889   1.835  0.6238 -0.5304  0.7523
 1671TIP3    H2 4978   4.791   0.836   1.760  0.0902  0.8875  0.5781
 1672TIP3   OH2 4979   3.772   5.215   0.538  0.1098  0.1017 -0.0087
 1672TIP3    H1 4980   3.742   5.140   0.488 -1.8942 -1.4161  3.1518
 1672TIP3    H2 4981   3.851   5.185   0.582 -0.3573 -0.0001  0.7853
 1673TIP3   OH2 4982   4.332   4.419   3.129 -0.0474 -0.3089  0.0932
 1673TIP3    H1 4983   4.421   4.414   3.093  0.6107 -1.9613  1.7747
 1673TIP3    H2 4984   4.323   4.510   3.157  0.1117  0.5521 -2.3582
 1674TIP3   OH2 4985   3.037   3.625   4.666 -0.5350 -0.7680  0.0043
 1674TIP3    H1 4986   2.989   3.544   4.652 -1.3506 -0.0815 -1.4345
 1674TIP3    H2 4987   2.997   3.688   4.604  0.8164  0.4038  0.2618
 1675TIP3   OH2 4988   4.322   0.412   4.639  0.4878  0.2765  0.2057
 1675TIP3    H1 4989   4.344   0.319   4.646 -0.8267 -0.2944 -2.0521
 1675TIP3    H2 4990   4.393   0.449   4.585  0.5336  0.4003  0.3483
 1676TIP3   OH2 4991   1.480   1.332   5.232  0.0396  0.0283  0.3890
 1676TIP3    H1 4992   1.556   1.275   5.223  0.1241  0.2745 -0.5995
 1676TIP3    H2 4993   1.405   1.273   5.222  0.1081  0.2572 -2.4535
 1677TIP3   OH2 4994   5.531   4.650   0.926  0.0310  0.0044 -0.1088
 1677TIP3    H1 4995   5.585   4.627   0.850  2.5238 -0.6952  1.7480
 1677TIP3    H2 4996   5.523   4.569   0.975 -1.5869  0.4405  0.4023
 1678TIP3   OH2 4997   0.954   0.916   5.819 -0.2392 -0.1260  0.1887
 1678TIP3    H1 4998   1.032   0.956   5.858 -0.6764  1.1939 -0.2315
 1678TIP3    H2 4999   0.985   0.832   5.785  1.0340  0.4113 -0.0514
 1679TIP3   OH2 5000   3.981   6.083   4.609 -0.6037 -0.2348  0.3619
 1679TIP3    H1 5001   4.063   6.051   4.645 -0.2789  0.2441  0.0711
 1679TIP3    H2 5002   3.989   6.179   4.614 -1.1217 -0.1852  0.2855
 1680TIP3   OH2 5003   4.325   5.879   5.015 -0.4503  0.3140  0.2274
 1680TIP3    H1 5004   4.361   5.967   5.009 -1.4083  1.0436  3.4237
 1680TIP3    H2 5005   4.402   5.823   5.027 -0.0140  1.2371  2.0677
 1681TIP3   OH2 5006   4.508   4.606   1.763 -0.0266  0.2402 -0.0302
 1681TIP3    H1 5007   4.442   4.568   1.705  0.3718  2.1795 -1.8452
 1681TIP3    H2 5008   4.461   4.673   1.813 -0.0191 -0.3282  0.7565
 1682TIP3   OH2 5009   1.892   0.212   1.355  0.4082 -0.1552 -0.1472
 1682TIP3    H1 5010   1.872   0.267   1.431 -0.2973  1.4315 -1.4388
 1682TIP3    H2 5011   1.875   0.123   1.386 -0.8265  0.5239  1.2741
 1683TIP3   OH2 5012   5.958   2.233   4.001  0.3216 -0.4230  0.2827
 1683TIP3    H1 5013   5.887   2.212   3.940 -0.7425  1.4912  0.7768
 1683TIP3    H2 5014   5.921   2.218   4.087 -0.0919  2.0709  0.6098
 1684TIP3   OH2 5015   0.771   4.148   1.918  0.1595 -0.5401  0.3025
 1684TIP3    H1 5016   0.684   4.171   1.886 -0.9566 -3.4931  0.8636
 1684TIP3    H2 5017   0.802   4.226   1.964 -0.9787  1.5028 -2.2067
 1685TIP3   OH2 5018   1.842   2.443   1.129 -0.1248 -0.3481  0.4219
 1685TIP3    H1 5019   1.860   2.535   1.108 -1.6466 -0.1686 -0.2832
 1685TIP3    H2 5020   1.746   2.438   1.129 -0.0537 -2.0293  0.0844
 1686TIP3   OH2 5021   0.552   4.701   3.995  0.9552 -0.6416  0.4706
 1686TIP3    H1 5022   0.555   4.613   4.033  1.8794 -0.7181  0.2486
 1686TIP3    H2 5023   0.535   4.686   3.902 -0.8209 -0.4782  0.7432
 1687TIP3   OH2 5024   0.614   4.675   3.697 -0.0334  0.5197 -0.2201
 1687TIP3    H1 5025   0.632   4.680   3.603 -2.3398 -0.0650 -0.7443
 1687TIP3    H2 5026   0.667   4.746   3.735  2.4459 -0.4521 -1.6544
 1688TIP3   OH2 5027   6.287   5.546   4.757 -0.3781  0.2374 -0.0274
 1688TIP3    H1 5028   6.347   5.568   4.685  0.3134  2.1348  1.0397
 1688TIP3    H2 5029   6.344   5.507   4.824 -0.6730  0.2615  0.2364
 1689TIP3   OH2 5030   2.275   5.129   2.396 -0.4525  0.5951  0.2291
 1689TIP3    H1 5031   2.249   5.118   2.304  0.0594  0.0800  0.1418
 1689TIP3    H2 5032   2.211   5.077   2.444  0.6175 -1.0210 -0.0200
 1690TIP3   OH2 5033   2.037   3.793   3.859 -0.5275 -0.2709 -0.6919
 1690TIP3    H1 5034   2.096   3.806   3.784  0.7602 -0.1123  0.3054
 1690TIP3    H2 5035   2.009   3.881   3.883  1.1705 -0.0466  0.6144
 1691TIP3   OH2 5036   4.196   4.455   2.261 -0.1621 -0.0516  0.5536
 1691TIP3    H1 5037   4.228   4.486   2.345  0.0229 -2.0667  1.2683
 1691TIP3    H2 5038   4.222   4.524   2.199 -0.0708  1.3413  2.0636
 1692TIP3   OH2 5039   3.448   3.341   2.759  0.5098  0.1946 -0.1946
 1692TIP3    H1 5040   3.522   3.395   2.790  0.6543  0.9037 -1.6992
 1692TIP3    H2 5041   3.414   3.301   2.839  1.9490  0.5721  0.6589
 1693TIP3   OH2 5042   4.558   4.756   4.439  0.6999  0.3303 -0.2966
 1693TIP3    H1 5043   4.644   4.796   4.425  2.2227 -2.4311  0.5260
 1693TIP3    H2 5044   4.522   4.802   4.515  1.2257  1.7644 -0.8774
 1694TIP3   OH2 5045   6.029   6.529   0.348  0.3840 -0.1883 -0.1213
 1694TIP3    H1 5046   6.054   6.445   0.388  1.4053  0.6091  0.9876
 1694TIP3    H2 5047   5.979   6.504   0.270  0.6692 -1.8267  0.1756
 1695TIP3   OH2 5048   0.183   2.662   2.776 -0.7652  0.8315  0.7442
 1695TIP3    H1 5049   0.278   2.654   2.780 -0.9326 -0.6647  2.3013
 1695TIP3    H2 5050   0.169   2.751   2.743  1.1531  0.7754 -0.3906
 1696TIP3   OH2 5051   1.041   0.627   5.782  0.2153 -0.0997 -0.1046
 1696TIP3    H1 5052   1.122   0.675   5.803  0.8182 -0.5808 -1.2595
 1696TIP3    H2 5053   1.068   0.535   5.779  0.0788 -0.1063 -2.4479
 1697TIP3   OH2 5054   2.034   4.018   3.487  0.1972 -0.5437 -0.6214
 1697TIP3    H1 5055   1.997   4.008   3.575  1.9128 -0.3836  0.1536
 1697TIP3    H2 5056   1.987   3.954   3.434  1.0391 -2.6870  1.0501
 1698TIP3   OH2 5057   2.115   3.267   4.291  0.8379 -0.7303 -0.7795
 1698TIP3    H1 5058   2.102   3.246   4.199 -0.3272 -3.5355 -0.0726
 1698TIP3    H2 5059   2.120   3.183   4.335 -4.5145  0.1255  2.4391
 1699TIP3   OH2 5060   0.082   5.710   3.389  0.4877  0.0352 -0.2055
 1699TIP3    H1 5061   0.020   5.776   3.420 -0.6667 -0.6496 -1.0076
 1699TIP3    H2 5062   0.064   5.633   3.442 -0.3271 -0.6040 -1.3766
 1700TIP3   OH2 5063   1.985   2.227   1.622  0.7193  0.0744 -0.3586
 1700TIP3    H1 5064   2.080   2.220   1.622  0.7510  0.4147  0.3403
 1700TIP3    H2 5065   1.962   2.243   1.530  1.2397 -1.0639 -0.7080
 1701TIP3   OH2 5066   3.217   1.336   0.968  0.2300 -0.5463  0.6752
 1701TIP3    H1 5067   3.164   1.285   0.906 -0.3714 -0.1396  0.8452
 1701TIP3    H2 5068   3.188   1.305   1.054 -1.8623  1.6827  0.8765
 1702TIP3   OH2 5069   5.595   3.204  -0.006 -0.5830  0.0069  0.3084
 1702TIP3    H1 5070   5.523   3.141  -0.011 -0.1489 -0.5520  0.8575
 1702TIP3    H2 5071   5.559   3.280   0.039 -0.3858 -0.9694  2.2504
 1703TIP3   OH2 5072   6.721   4.386   0.453  0.1240  0.1558  0.6652
 1703TIP3    H1 5073   6.709   4.298   0.488 -0.7387  0.2023  0.4999
 1703TIP3    H2 5074   6.712   4.376   0.358  0.1044  0.4065  0.6391
 1704TIP3   OH2 5075   5.662   4.561   0.392  0.0468 -0.1161 -0.1909
 1704TIP3    H1 5076   5.683   4.471   0.419  1.2862  0.1504 -0.2180
 1704TIP3    H2 5077   5.745   4.596   0.361 -0.8798  0.3247 -2.3071
 1705TIP3   OH2 5078   7.020   5.485   0.127 -0.2329 -0.4372 -0.7941
 1705TIP3    H1 5079   7.034   5.423   0.199 -1.9000  1.1334  1.0164
 1705TIP3    H2 5080   6.975   5.558   0.168 -0.7572  0.7916 -3.3857
 1706TIP3   OH2 5081   1.679   5.439   1.691 -0.3304 -0.2529  0.4404
 1706TIP3    H1 5082   1.723   5.447   1.776 -0.8365 -1.7518  0.8783
 1706TIP3    H2 5083   1.587   5.431   1.713 -0.5488  0.1486 -0.3106
 1707TIP3   OH2 5084   5.517   3.678   2.857 -0.1470 -0.0309 -0.4868
 1707TIP3    H1 5085   5.424   3.692   2.873  0.2408  0.0818  2.1436
 1707TIP3    H2 5086   5.559   3.700   2.940  2.3210  0.6220 -1.8046
 1708TIP3   OH2 5087   2.736   2.339   5.909  0.3170 -0.0091 -0.2312
 1708TIP3    H1 5088   2.786   2.259   5.895  0.5279  0.0286  0.2933
 1708TIP3    H2 5089   2.683   2.348   5.830  0.6821 -0.3797 -0.5224
 1709TIP3   OH2 5090   0.075   1.252   4.518 -0.1950  0.1151 -0.1058
 1709TIP3    H1 5091   0.139   1.236   4.587 -0.5158 -1.3810 -0.1095
 1709TIP3    H2 5092   0.006   1.304   4.559 -0.0083 -0.1039  0.4889
 1710TIP3   OH2 5093   5.442   5.249   1.718 -0.2416  0.1009 -0.1764
 1710TIP3    H1 5094   5.399   5.257   1.632 -1.4151  4.2038  0.6043
 1710TIP3    H2 5095   5.376   5.207   1.773 -0.6204  0.1461 -0.5822
 1711TIP3   OH2 5096   2.404   1.297   2.255  0.1849 -0.3186  0.0397
 1711TIP3    H1 5097   2.393   1.202   2.255 -1.4624 -0.1860 -1.4802
 1711TIP3    H2 5098   2.462   1.315   2.181 -1.0928 -0.0449 -0.9302
 1712TIP3   OH2 5099   6.719   3.154   0.710 -0.9205  0.2316 -0.0768
 1712TIP3    H1 5100   6.771   3.221   0.666 -2.0049  2.2198  1.5035
 1712TIP3    H2 5101   6.784   3.093   0.746  0.0438 -0.2240 -2.4173
 1713TIP3   OH2 5102   6.118   2.392   5.638 -0.1375 -0.0890  0.0508
 1713TIP3    H1 5103   6.144   2.436   5.557  0.2634  2.0263  1.2461
 1713TIP3    H2 5104   6.195   2.398   5.695 -0.1549 -2.2157  0.3675
 1714TIP3   OH2 5105   1.584   3.934   5.818  0.1055 -0.2427  0.4438
 1714TIP3    H1 5106   1.552   4.025   5.818  0.4195 -0.1314  0.7668
 1714TIP3    H2 5107   1.509   3.883   5.788 -0.5925 -0.0489  1.7731
 1715TIP3   OH2 5108   6.459   3.934   0.863  0.4478 -0.0775  0.6047
 1715TIP3    H1 5109   6.375   3.889   0.865  0.8849 -0.8962  1.3721
 1715TIP3    H2 5110   6.519   3.872   0.820  0.9862 -0.1039  1.3782
 1716TIP3   OH2 5111   4.524   3.016   0.558  0.5709 -0.2986  0.8600
 1716TIP3    H1 5112   4.529   3.052   0.647  3.0699 -0.2868  0.7822
 1716TIP3    H2 5113   4.483   3.085   0.507 -0.6643 -0.1951  1.9304
 1717TIP3   OH2 5114   3.331   0.538   0.881  0.2163 -0.2632  0.4909
 1717TIP3    H1 5115   3.425   0.541   0.899  0.5205  0.9305 -1.1079
 1717TIP3    H2 5116   3.293   0.597   0.946  0.5535 -0.6685  1.0762
 1718TIP3   OH2 5117   3.907   0.855   3.259  0.2477  0.7712 -0.6390
 1718TIP3    H1 5118   3.955   0.931   3.226 -0.0084  0.6623 -1.2691
 1718TIP3    H2 5119   3.947   0.837   3.345  1.0031  0.9769 -0.9384
 1719TIP3   OH2 5120   3.728   2.304   4.127  0.0018 -0.2633 -0.1954
 1719TIP3    H1 5121   3.736   2.210   4.113  0.8517 -0.3061  0.4808
 1719TIP3    H2 5122   3.673   2.335   4.055 -0.5691 -1.3230 -0.2339
 1720TIP3   OH2 5123   6.758   6.274   1.436  0.3566 -0.2701 -0.4264
 1720TIP3    H1 5124   6.839   6.326   1.439  1.4381 -1.8674 -0.6246
 1720TIP3    H2 5125   6.749   6.239   1.525 -0.7691  0.8282 -0.0958
 1721TIP3   OH2 5126   2.131   6.135   1.664 -0.4337 -0.4019 -0.4251
 1721TIP3    H1 5127   2.158   6.225   1.650 -0.4882 -0.4058 -0.5512
 1721TIP3    H2 5128   2.213   6.085   1.666 -0.4784 -0.5564 -1.7739
 1722TIP3   OH2 5129   2.162   1.414   5.784  0.2218  0.0465  0.4188
 1722TIP3    H1 5130   2.240   1.358   5.780  0.1749  0.0626 -1.3875
 1722TIP3    H2 5131   2.099   1.363   5.835  1.0583 -0.4083  1.0283
 1723TIP3   OH2 5132   6.105   0.834   1.115  0.6455  0.0528 -0.2691
 1723TIP3    H1 5133   6.142   0.758   1.071 -2.0811 -0.8071 -1.2483
 1723TIP3    H2 5134   6.071   0.888   1.044 -0.1398  0.7058  0.5876
 1724TIP3   OH2 5135   6.399   0.550   4.491 -0.0307  0.2070  0.0712
 1724TIP3    H1 5136   6.377   0.566   4.399  1.4095  0.7747 -0.2069
 1724TIP3    H2 5137   6.346   0.475   4.516 -0.9752  0.4882 -1.0121
 1725TIP3   OH2 5138   1.123   2.574   2.257 -0.3276  0.3885  0.6001
 1725TIP3    H1 5139   1.196   2.513   2.262 -0.5808 -0.1454 -1.3040
 1725TIP3    H2 5140   1.074   2.546   2.179 -0.9126  2.5197  0.1421
 1726TIP3   OH2 5141   1.221   3.584   0.012  0.8335 -0.0872  0.3333
 1726TIP3    H1 5142   1.316   3.582   0.012  0.8303 -2.2976 -0.2491
 1726TIP3    H2 5143   1.195   3.517   0.076 -0.3611  1.1931  1.2646
 1727TIP3   OH2 5144   2.608   2.693   3.278  0.3142  0.3275  0.2284
 1727TIP3    H1 5145   2.674   2.627   3.256 -0.3514 -0.4790  0.6243
 1727TIP3    H2 5146   2.657   2.776   3.277  0.8109  0.0655 -1.9315
 1728TIP3   OH2 5147   1.895   0.277   4.947 -0.4703 -0.5054  0.0789
 1728TIP3    H1 5148   1.820   0.335   4.935  0.3361  0.5342 -0.0873
 1728TIP3    H2 5149   1.877   0.202   4.890 -1.8907 -0.7994  0.8799
 1729TIP3   OH2 5150   1.769   1.016   1.228 -0.3349 -0.5736 -0.5170
 1729TIP3    H1 5151   1.765   1.086   1.163 -0.5476 -1.9794 -2.0799
 1729TIP3    H2 5152   1.684   1.019   1.272  0.3901  1.4150  0.8839
 1730TIP3   OH2 5153   2.294   3.209   0.228  0.1037 -0.1929  0.2382
 1730TIP3    H1 5154   2.258   3.124   0.253  0.6881 -0.6970 -0.5696
 1730TIP3    H2 5155   2.375   3.217   0.279  1.0567 -1.0153 -1.0755
 1731TIP3   OH2 5156   2.390   5.237   0.915 -0.5509 -1.5654 -0.4923
 1731TIP3    H1 5157   2.391   5.178   0.840 -1.6879 -1.0741 -0.9189
 1731TIP3    H2 5158   2.461   5.299   0.897 -0.8655 -1.4045 -1.2199
 1732TIP3   OH2 5159   4.643   3.135   1.832 -0.1837  0.2914 -0.0631
 1732TIP3    H1 5160   4.600   3.066   1.882  0.2490  0.2093  0.1939
 1732TIP3    H2 5161   4.613   3.216   1.871 -0.8829  0.2628 -0.5174
 1733TIP3   OH2 5162   2.525   0.687   3.206  0.7511 -0.2707 -0.5109
 1733TIP3    H1 5163   2.534   0.714   3.115  2.0418 -0.2563 -0.3929
 1733TIP3    H2 5164   2.473   0.607   3.203  2.4345 -1.3828 -1.4550
 1734TIP3   OH2 5165   5.021   5.324   1.262  0.2376  0.4772 -0.3201
 1734TIP3    H1 5166   5.015   5.229   1.249 -3.3557  0.6617 -0.9769
 1734TIP3    H2 5167   5.034   5.359   1.175  0.9384  0.6378 -0.1549
 1735TIP3   OH2 5168   3.624   1.399   1.013  0.3585 -0.6599  0.0359
 1735TIP3    H1 5169   3.653   1.319   0.970  0.6935 -0.5978  0.1410
 1735TIP3    H2 5170   3.548   1.427   0.963  1.2322 -0.1313 -1.0520
 1736TIP3   OH2 5171   3.869   5.763   3.086 -0.5570  0.3507  0.5410
 1736TIP3    H1 5172   3.956   5.756   3.125  0.8526  0.0944 -2.3457
 1736TIP3    H2 5173   3.866   5.694   3.021 -2.7276  0.7279  0.1409
 1737TIP3   OH2 5174   2.294   3.679   4.099  0.1197 -0.2540  0.1919
 1737TIP3    H1 5175   2.256   3.631   4.025  0.1785  2.1094 -1.4575
 1737TIP3    H2 5176   2.258   3.635   4.176 -0.8620 -2.0900 -1.2268
 1738TIP3   OH2 5177   2.717   3.785   4.381 -0.3810 -0.4575 -0.2288
 1738TIP3    H1 5178   2.681   3.794   4.469 -2.1683 -0.5621 -0.9248
 1738TIP3    H2 5179   2.698   3.869   4.338 -0.8413 -0.9380 -0.9775
 1739TIP3   OH2 5180   0.668   4.710   5.766 -0.3885 -0.3901 -0.7061
 1739TIP3    H1 5181   0.756   4.724   5.802 -0.4598  0.1885 -0.7489
 1739TIP3    H2 5182   0.679   4.637   5.705 -0.3152 -1.5663  0.6462
 1740TIP3   OH2 5183   1.624   3.366   4.209 -0.0480  0.4863 -0.0423
 1740TIP3    H1 5184   1.607   3.460   4.209  0.6592  0.6852 -2.5710
 1740TIP3    H2 5185   1.695   3.354   4.273  1.3324  2.0339 -1.1950
 1741TIP3   OH2 5186   2.935   3.989   5.448 -0.2757  0.1214  0.0409
 1741TIP3    H1 5187   2.948   4.046   5.373  0.0780 -1.7248 -1.3761
 1741TIP3    H2 5188   2.904   3.907   5.411 -0.1145 -0.8450  1.9220
 1742TIP3   OH2 5189   2.151   1.815   4.612 -0.2861 -0.0334 -0.2355
 1742TIP3    H1 5190   2.093   1.750   4.651  0.3036  0.2405  1.1661
 1742TIP3    H2 5191   2.117   1.899   4.643  1.3887  0.0870  1.4429
 1743TIP3   OH2 5192   6.231   5.776   4.554 -0.1328 -0.1080 -0.6529
 1743TIP3    H1 5193   6.248   5.827   4.475 -0.5536 -0.9380 -1.2936
 1743TIP3    H2 5194   6.317   5.747   4.583 -0.1203 -1.6322 -2.0708
 1744TIP3   OH2 5195   1.631   4.521   3.162  0.6034  0.3605 -0.1500
 1744TIP3    H1 5196   1.724   4.502   3.177  0.6671  0.0423 -0.8761
 1744TIP3    H2 5197   1.593   4.437   3.134  0.6409  0.9772 -2.2441
 1745TIP3   OH2 5198   6.756   5.796   3.517  0.3161 -0.3614 -0.1504
 1745TIP3    H1 5199   6.709   5.777   3.598 -1.1926 -0.4949 -1.0308
 1745TIP3    H2 5200   6.688   5.809   3.452  1.4990 -0.0054 -1.3636
 1746TIP3   OH2 5201   3.945   1.402   2.190 -0.1056 -0.0987  0.0849
 1746TIP3    H1 5202   3.926   1.319   2.146  0.0746 -0.0887 -0.0105
 1746TIP3    H2 5203   3.963   1.463   2.118 -0.2634  0.0288  0.1540
 1747TIP3   OH2 5204   1.750   5.610   4.638  0.3127 -0.0204  0.1929
 1747TIP3    H1 5205   1.697   5.557   4.698  0.2034 -2.4951 -1.9082
 1747TIP3    H2 5206   1.687   5.643   4.574  0.8431 -0.1228 -0.3886
 1748TIP3   OH2 5207   2.196   2.040   2.049 -0.7137  0.1962  0.1152
 1748TIP3    H1 5208   2.256   2.002   1.985 -1.3124  0.1928 -0.4638
 1748TIP3    H2 5209   2.209   2.135   2.040 -1.0645  0.2118 -0.2949
 1749TIP3   OH2 5210   5.111   3.216   2.027 -0.5764  0.6645  0.2516
 1749TIP3    H1 5211   5.100   3.156   1.954  0.3281 -2.4694  2.4585
 1749TIP3    H2 5212   5.024   3.255   2.039 -1.0195  0.3877 -1.7033
 1750TIP3   OH2 5213   2.839   5.909   1.562 -0.7518  0.1334 -0.0551
 1750TIP3    H1 5214   2.803   5.984   1.610 -1.8585 -0.9747  0.9334
 1750TIP3    H2 5215   2.810   5.923   1.472 -1.6822  0.4842  0.2795
 1751TIP3   OH2 5216   6.260   2.256   0.665 -0.1193  0.1596 -0.2554
 1751TIP3    H1 5217   6.189   2.313   0.694 -1.1312 -0.4059 -1.5429
 1751TIP3    H2 5218   6.239   2.171   0.704  2.0923  0.8241  2.7883
 1752TIP3   OH2 5219   0.936   1.212   4.261  0.0622 -0.4040  0.0294
 1752TIP3    H1 5220   0.851   1.187   4.223  0.2900 -1.4682  0.2005
 1752TIP3    H2 5221   0.926   1.306   4.280 -1.1296 -0.5397  0.1859
 1753TIP3   OH2 5222   4.895   2.383   1.531  0.3599 -0.4731 -0.0396
 1753TIP3    H1 5223   4.977   2.335   1.522  1.7807  1.5207  1.3206
 1753TIP3    H2 5224   4.922   2.475   1.538 -1.8814  0.1434  1.6902
 1754TIP3   OH2 5225   5.783   3.439   3.208  0.1850 -0.2961 -0.0483
 1754TIP3    H1 5226   5.692   3.449   3.182  0.0909  0.6360  0.5811
 1754TIP3    H2 5227   5.809   3.526   3.239  1.2344 -0.5866 -0.0507
 1755TIP3   OH2 5228   5.435   4.455   5.118 -0.3833 -0.1459 -0.1273
 1755TIP3    H1 5229   5.368   4.417   5.061 -0.1959 -0.1282 -0.3597
 1755TIP3    H2 5230   5.518   4.436   5.075 -0.1075 -1.5678  0.9596
 1756TIP3   OH2 5231   1.350   3.515   4.542  0.1324 -0.6090  0.1206
 1756TIP3    H1 5232   1.337   3.531   4.635 -1.0317  1.3265 -0.3028
 1756TIP3    H2 5233   1.433   3.557   4.521  0.5561 -1.3277  0.3265
 1757TIP3   OH2 5234   5.904   4.465   0.751  0.1020 -0.3813  0.5593
 1757TIP3    H1 5235   5.961   4.398   0.713 -0.8124 -0.5446 -0.5702
 1757TIP3    H2 5236   5.834   4.415   0.793  0.9103 -0.1912  2.2309
 1758TIP3   OH2 5237   4.513   2.389   4.372 -0.3918 -0.1892  0.3980
 1758TIP3    H1 5238   4.420   2.388   4.349 -0.1546 -1.5727 -0.5574
 1758TIP3    H2 5239   4.519   2.454   4.443 -1.5896  2.1422 -1.4928
 1759TIP3   OH2 5240   3.949   3.814   4.971 -0.4111  0.0206  0.1933
 1759TIP3    H1 5241   3.910   3.756   5.037 -1.0186 -0.2579 -0.3829
 1759TIP3    H2 5242   3.883   3.815   4.900  0.9345 -1.0582 -1.1507
 1760TIP3   OH2 5243   7.097   1.711   3.371 -0.6766  0.0096 -0.1669
 1760TIP3    H1 5244   7.159   1.784   3.374 -0.1646 -0.3705 -0.9992
 1760TIP3    H2 5245   7.017   1.748   3.334 -0.6319  0.2901  0.0159
 1761TIP3   OH2 5246   0.532   0.718   3.016 -0.7158  0.1496  0.4342
 1761TIP3    H1 5247   0.571   0.643   2.971 -0.0841 -0.4020  1.8386
 1761TIP3    H2 5248   0.444   0.688   3.040 -0.7112  0.1080  0.4005
 1762TIP3   OH2 5249   2.358   4.119   4.071 -0.0125 -0.0413  0.1514
 1762TIP3    H1 5250   2.325   4.062   4.140 -1.0539  0.7380  0.3287
 1762TIP3    H2 5251   2.444   4.085   4.050  0.0139 -0.7352  1.3291
 1763TIP3   OH2 5252   0.196   4.614   3.731 -0.3194  0.0416 -0.1254
 1763TIP3    H1 5253   0.173   4.610   3.824  1.2074  0.1837  0.2965
 1763TIP3    H2 5254   0.138   4.680   3.694 -1.9005 -1.0021  0.4134
 1764TIP3   OH2 5255   4.979   0.642   2.521  0.0097  0.0191 -0.0434
 1764TIP3    H1 5256   5.066   0.618   2.550 -0.4715 -1.9977 -0.0911
 1764TIP3    H2 5257   4.992   0.681   2.435  0.8540 -0.4625 -0.1408
 1765TIP3   OH2 5258   4.599   6.235   0.373 -0.3969  0.2498 -0.3146
 1765TIP3    H1 5259   4.622   6.279   0.454  0.6701 -0.8788  0.0155
 1765TIP3    H2 5260   4.681   6.227   0.325 -0.7287 -0.5408 -0.7782
 1766TIP3   OH2 5261   1.155   1.060   1.908  0.8462  0.3962 -0.4350
 1766TIP3    H1 5262   1.153   1.105   1.823  3.7400  1.1379 -0.2367
 1766TIP3    H2 5263   1.236   1.090   1.949  0.4450 -1.3276  1.8490
 1767TIP3   OH2 5264   1.965   2.662   0.459  0.2747  0.3801  0.2499
 1767TIP3    H1 5265   1.981   2.585   0.404 -0.4842  0.8511 -0.6570
 1767TIP3    H2 5266   1.890   2.705   0.419 -0.6809  0.4389  1.9986
 1768TIP3   OH2 5267   3.475   3.673   2.512 -0.7567 -0.6279  0.1667
 1768TIP3    H1 5268   3.525   3.646   2.589 -0.9628  0.9078  0.8762
 1768TIP3    H2 5269   3.525   3.640   2.438 -0.8504 -2.6233  0.9450
 1769TIP3   OH2 5270   1.514   1.989   1.537  0.2522  0.3369  0.1168
 1769TIP3    H1 5271   1.454   2.063   1.550  1.5238  1.0369  2.4219
 1769TIP3    H2 5272   1.519   1.946   1.622  0.0403 -2.1132 -1.0127
 1770TIP3   OH2 5273   4.935   6.753   0.092  0.4349  0.9589 -0.2488
 1770TIP3    H1 5274   4.845   6.780   0.074 -0.6636 -1.1184  1.6255
 1770TIP3    H2 5275   4.964   6.709   0.011 -0.5849  0.8089 -0.5435
 1771TIP3   OH2 5276   5.760   5.331   3.526  0.4115  0.4260  0.0794
 1771TIP3    H1 5277   5.726   5.400   3.470  0.5255  0.1988 -0.2760
 1771TIP3    H2 5278   5.686   5.272   3.540  0.7914 -0.4323 -1.2504
 1772TIP3   OH2 5279   1.341   2.428   1.656  0.0420  0.0284 -0.4440
 1772TIP3    H1 5280   1.387   2.509   1.636 -0.3256  0.3853  0.1227
 1772TIP3    H2 5281   1.410   2.363   1.669  0.4435  0.7477  1.2325
 1773TIP3   OH2 5282   6.412   0.793   0.184  0.4182  0.0024 -0.7081
 1773TIP3    H1 5283   6.330   0.761   0.222  1.2994 -1.5082  0.0039
 1773TIP3    H2 5284   6.415   0.885   0.208 -0.4614 -0.2276  0.3812
 1774TIP3   OH2 5285   6.110   0.156   5.067 -0.1096 -0.2030 -0.1108
 1774TIP3    H1 5286   6.076   0.120   5.149  0.4216  0.8943  0.6126
 1774TIP3    H2 5287   6.080   0.247   5.066  0.1401 -0.1141 -1.0047
 1775TIP3   OH2 5288   6.222   3.307   0.378 -0.4750 -0.7644  0.0199
 1775TIP3    H1 5289   6.311   3.277   0.395 -0.9552 -1.9135  0.6195
 1775TIP3    H2 5290   6.198   3.357   0.456  0.2375  1.0723 -0.8764
 1776TIP3   OH2 5291   0.952   0.511   0.033  0.5694  0.0681  0.0947
 1776TIP3    H1 5292   0.988   0.536   0.118  0.3755  0.8009 -0.0346
 1776TIP3    H2 5293   1.015   0.543  -0.031  0.8630 -0.7419 -0.0369
 1777TIP3   OH2 5294   5.323   0.416   1.059  0.1724  0.2620  0.0601
 1777TIP3    H1 5295   5.266   0.386   1.129  0.8776 -0.6160  0.2756
 1777TIP3    H2 5296   5.286   0.377   0.980  1.7298 -2.2857  0.4618
 1778TIP3   OH2 5297   2.356   6.278   3.968 -0.4695  0.4322  0.0634
 1778TIP3    H1 5298   2.435   6.230   3.992 -0.1799  0.4525 -0.7927
 1778TIP3    H2 5299   2.365   6.293   3.873 -1.2894  0.8164  0.0347
 1779TIP3   OH2 5300   4.948   5.203   2.749 -0.1901  0.3184 -0.0551
 1779TIP3    H1 5301   4.928   5.287   2.708 -0.6411  0.5046  0.5369
 1779TIP3    H2 5302   4.995   5.226   2.830  1.5865 -0.0727 -0.9155
 1780TIP3   OH2 5303   1.504   2.941   5.201  0.0096 -0.2990  0.1470
 1780TIP3    H1 5304   1.541   2.881   5.136 -1.2255 -3.3605  2.0239
 1780TIP3    H2 5305   1.410   2.942   5.181 -0.0851  0.4062  0.6200
 1781TIP3   OH2 5306   2.835   5.554   1.258  0.2685 -0.1700  0.0072
 1781TIP3    H1 5307   2.881   5.584   1.179  0.2568 -0.4383 -0.1030
 1781TIP3    H2 5308   2.882   5.596   1.330  0.1163  0.2842 -0.1554
 1782TIP3   OH2 5309   1.376   4.680   5.532  0.2921 -0.6867  0.5004
 1782TIP3    H1 5310   1.342   4.766   5.506  3.1609  0.0220 -1.3632
 1782TIP3    H2 5311   1.348   4.670   5.623 -1.4866  1.4649  0.2920
 1783TIP3   OH2 5312   3.393   3.025   2.424  0.3469 -0.4704  0.2591
 1783TIP3    H1 5313   3.426   3.021   2.334 -2.1161  0.0915 -0.7524
 1783TIP3    H2 5314   3.453   3.083   2.469  1.3898 -0.4126 -1.1368
 1784TIP3   OH2 5315   0.307   4.532   1.893 -0.0352  0.0057 -0.1984
 1784TIP3    H1 5316   0.290   4.439   1.878 -1.1037  0.5270 -2.7931
 1784TIP3    H2 5317   0.220   4.571   1.899  0.3758  0.6434  2.8813
 1785TIP3   OH2 5318   5.237   6.631   2.808  0.1117  0.3906  0.1236
 1785TIP3    H1 5319   5.144   6.639   2.827  0.1671 -0.4199  0.8108
 1785TIP3    H2 5320   5.248   6.670   2.721 -0.5611  2.0893  0.7666
 1786TIP3   OH2 5321   3.892   2.628   1.610  0.4027  0.3811  0.1687
 1786TIP3    H1 5322   3.825   2.560   1.602  0.0318  0.7990 -0.2641
 1786TIP3    H2 5323   3.917   2.626   1.702  0.3868 -0.3336  0.1665
 1787TIP3   OH2 5324   4.146   2.980   1.514 -0.5652 -0.0827 -0.6120
 1787TIP3    H1 5325   4.223   3.035   1.497 -1.7124  1.8805  0.3244
 1787TIP3    H2 5326   4.083   3.004   1.446 -1.0833 -0.2747 -0.2031
 1788TIP3   OH2 5327   3.893   0.801   5.019  0.2548  0.0512 -0.7743
 1788TIP3    H1 5328   3.902   0.890   5.053  1.6701 -0.3569  0.0279
 1788TIP3    H2 5329   3.893   0.746   5.098  0.0676 -0.7010 -1.2916
 1789TIP3   OH2 5330   5.253   2.617   5.424  0.1753  0.5405  0.0082
 1789TIP3    H1 5331   5.311   2.619   5.348  0.5111 -0.4299  0.2213
 1789TIP3    H2 5332   5.308   2.643   5.498  0.1481  0.3708  0.0906
 1790TIP3   OH2 5333   2.070   0.286   1.599 -0.8963 -0.1502 -0.6065
 1790TIP3    H1 5334   2.078   0.356   1.534  0.8276  1.0417  0.7982
 1790TIP3    H2 5335   1.982   0.297   1.635 -0.4879  1.6629 -0.0590
 1791TIP3   OH2 5336   3.102   0.495   0.735 -0.7006  0.2531  0.6709
 1791TIP3    H1 5337   3.181   0.503   0.788 -1.0662  0.9104  1.1269
 1791TIP3    H2 5338   3.046   0.435   0.784 -0.3350 -0.5469  0.1440
 1792TIP3   OH2 5339   1.471   5.077   4.492 -0.1731  0.1189 -0.3955
 1792TIP3    H1 5340   1.527   5.128   4.551 -0.1277 -1.1719  0.6997
 1792TIP3    H2 5341   1.532   5.025   4.440 -0.2661  0.4249 -0.8167
 1793TIP3   OH2 5342   6.400   3.862   1.233  0.1823  0.1778 -0.3356
 1793TIP3    H1 5343   6.330   3.843   1.170  0.4958  2.2579 -1.3878
 1793TIP3    H2 5344   6.363   3.929   1.290  0.5325 -0.4037  0.5911
 1794TIP3   OH2 5345   1.542   0.829   4.574 -0.0461  0.2106 -0.5756
 1794TIP3    H1 5346   1.530   0.761   4.640  1.7506  0.1043 -0.3098
 1794TIP3    H2 5347   1.487   0.802   4.501  1.0426 -1.8477 -0.6922
 1795TIP3   OH2 5348   3.848   6.088   4.382 -0.5760  0.0446 -0.6099
 1795TIP3    H1 5349   3.774   6.139   4.415  0.5303  2.1978 -1.2624
 1795TIP3    H2 5350   3.908   6.081   4.456 -0.7448 -0.3784 -0.5091
 1796TIP3   OH2 5351   0.565   1.412   3.191  1.0750 -0.4267  0.2754
 1796TIP3    H1 5352   0.555   1.468   3.114  3.2054  1.9146  1.5462
 1796TIP3    H2 5353   0.652   1.374   3.181  0.8153 -1.1882  0.8709
 1797TIP3   OH2 5354   6.605   3.002   0.987 -0.3045 -0.0796  0.2356
 1797TIP3    H1 5355   6.651   3.086   0.982  1.8881 -1.2138  0.1126
 1797TIP3    H2 5356   6.541   3.005   0.916 -0.1959  1.4244  0.1691
 1798TIP3   OH2 5357   6.928   1.122   1.678 -0.4056 -0.1073 -0.5015
 1798TIP3    H1 5358   6.967   1.201   1.717 -0.1593 -0.6080  0.2925
 1798TIP3    H2 5359   6.955   1.125   1.586  2.8833 -1.1853  0.2837
 1799TIP3   OH2 5360   1.313   1.138   3.266  0.1847  0.1403 -0.0904
 1799TIP3    H1 5361   1.325   1.068   3.330 -1.5188  0.1490  0.2937
 1799TIP3    H2 5362   1.261   1.098   3.196 -1.0284  1.0502  0.2494
 1800TIP3   OH2 5363   6.891   1.774   0.315 -0.5379  0.1531 -0.0027
 1800TIP3    H1 5364   6.811   1.748   0.270 -0.0719 -3.5708  1.0296
 1800TIP3    H2 5365   6.950   1.803   0.245 -1.2594 -1.4490 -1.3421
 1801TIP3   OH2 5366   2.573   4.363   4.877  0.1474  0.1093 -0.1504
 1801TIP3    H1 5367   2.595   4.456   4.879 -0.5356  0.2527  1.5518
 1801TIP3    H2 5368   2.491   4.359   4.827  0.8876  0.2308 -1.4266
 1802TIP3   OH2 5369   6.792   4.682   0.193 -0.3737 -0.1662 -0.6199
 1802TIP3    H1 5370   6.752   4.714   0.112  1.2089  2.8739 -0.3312
 1802TIP3    H2 5371   6.718   4.670   0.253 -1.2486  1.4540 -1.3057
 1803TIP3   OH2 5372   0.552   6.655   1.471  0.1134  0.4070  0.6404
 1803TIP3    H1 5373   0.632   6.638   1.421 -0.0325 -0.2016  0.6133
 1803TIP3    H2 5374   0.580   6.717   1.539  0.1900  1.6744 -0.5045
 1804TIP3   OH2 5375   0.959   2.592   3.178 -0.7114 -0.1098 -0.1518
 1804TIP3    H1 5376   0.973   2.662   3.114  1.7016  1.2193  1.6847
 1804TIP3    H2 5377   0.963   2.511   3.126  0.3567  0.9440 -1.8021
 1805TIP3   OH2 5378   3.105   1.150   2.542 -0.4538 -0.4102 -0.3248
 1805TIP3    H1 5379   3.053   1.085   2.495 -0.1780 -0.6529 -0.2918
 1805TIP3    H2 5380   3.170   1.100   2.590 -0.1006 -0.0966 -0.4728
 1806TIP3   OH2 5381   1.659   6.756   5.149 -0.1370 -0.5335 -0.2914
 1806TIP3    H1 5382   1.665   6.757   5.053 -0.1728 -1.4032 -0.3072
 1806TIP3    H2 5383   1.694   6.841   5.176 -1.1299  0.1654 -1.1294
 1807TIP3   OH2 5384   5.709   6.589   2.266 -0.6327 -0.7922 -0.0412
 1807TIP3    H1 5385   5.677   6.499   2.273  0.4359 -1.3919 -2.0837
 1807TIP3    H2 5386   5.688   6.614   2.176 -0.8195  0.9909  0.4663
 1808TIP3   OH2 5387   1.780   4.181   2.158  0.2973  0.3444  0.1720
 1808TIP3    H1 5388   1.848   4.239   2.122  1.1208 -0.4171  0.4736
 1808TIP3    H2 5389   1.702   4.202   2.106  0.9198  0.7813 -0.6213
 1809TIP3   OH2 5390   5.179   0.770   1.950 -0.2489 -0.3963  0.2647
 1809TIP3    H1 5391   5.089   0.745   1.967 -0.1628 -0.2892  0.8993
 1809TIP3    H2 5392   5.203   0.722   1.870 -0.6701 -0.8979  0.4350
 1810TIP3   OH2 5393   3.369   2.277   3.354  0.0193  0.9017 -0.2126
 1810TIP3    H1 5394   3.330   2.303   3.271 -0.9478 -0.6674 -0.2837
 1810TIP3    H2 5395   3.349   2.348   3.414 -0.7224  1.2854 -0.9094
 1811TIP3   OH2 5396   4.128   4.669   4.024 -0.0109  0.3033 -0.2735
 1811TIP3    H1 5397   4.090   4.621   4.098  2.8624 -0.8030  0.6200
 1811TIP3    H2 5398   4.190   4.730   4.064 -0.1838  1.4626 -1.6859
 1812TIP3   OH2 5399   2.680   4.746   2.457 -0.0489  0.1375 -0.3999
 1812TIP3    H1 5400   2.613   4.752   2.525  0.9328 -0.5770  0.6764
 1812TIP3    H2 5401   2.656   4.813   2.393 -0.5184  1.4698  1.0975
 1813TIP3   OH2 5402   4.397   1.885   2.140  0.1380  0.3850 -0.2556
 1813TIP3    H1 5403   4.317   1.937   2.132 -0.6477 -0.7705 -0.1803
 1813TIP3    H2 5404   4.434   1.884   2.052 -1.4330 -1.3522 -0.9750
 1814TIP3   OH2 5405   1.212   6.123   2.304  0.2578  0.6138  0.2580
 1814TIP3    H1 5406   1.200   6.044   2.251 -0.4954  2.4319 -2.4577
 1814TIP3    H2 5407   1.125   6.162   2.309  0.8537  1.9746  0.3498
 1815TIP3   OH2 5408   1.057   5.025   4.431  0.1745 -0.3265 -0.2052
 1815TIP3    H1 5409   1.027   5.100   4.481 -0.1458 -0.4875 -0.1551
 1815TIP3    H2 5410   1.088   5.063   4.348 -0.3794 -0.1816 -0.3503
 1816TIP3   OH2 5411   1.326   6.207   3.103 -0.0171  0.1298 -0.2368
 1816TIP3    H1 5412   1.276   6.219   3.184  0.3587  1.2605 -0.1627
 1816TIP3    H2 5413   1.269   6.152   3.048 -0.5389 -0.1343  0.5463
 1817TIP3   OH2 5414   0.661   2.038   3.049 -0.2104  0.1718  0.3896
 1817TIP3    H1 5415   0.692   1.981   3.119  0.5897  1.9980  1.5991
 1817TIP3    H2 5416   0.605   2.102   3.093 -1.1778  0.2692 -0.9350
 1818TIP3   OH2 5417   4.110   0.227   4.090  0.2228  0.1011 -0.0570
 1818TIP3    H1 5418   4.035   0.286   4.092 -0.4664 -0.7708  0.4741
 1818TIP3    H2 5419   4.182   0.279   4.127  0.0262  1.1086 -1.0537
 1819TIP3   OH2 5420   3.407   3.283   0.026 -0.0506  0.2556 -0.4469
 1819TIP3    H1 5421   3.458   3.247   0.098  0.7331 -1.1956 -1.6812
 1819TIP3    H2 5422   3.471   3.326  -0.031 -0.7471  2.0160  0.0325
 1820TIP3   OH2 5423   4.444   2.900   3.297  0.6997  0.0022 -0.4926
 1820TIP3    H1 5424   4.405   2.815   3.316  0.5071 -0.6017 -3.1943
 1820TIP3    H2 5425   4.375   2.963   3.315 -0.3667 -0.7553 -1.7784
 1821TIP3   OH2 5426   3.997   4.624   4.759  0.2580 -0.1531 -0.3356
 1821TIP3    H1 5427   3.985   4.532   4.735  0.4874  0.1220 -1.5371
 1821TIP3    H2 5428   4.011   4.669   4.676  0.3717  0.9395  0.2631
 1822TIP3   OH2 5429   6.686   6.432   5.276 -0.0004 -0.4240 -0.2670
 1822TIP3    H1 5430   6.730   6.372   5.216 -0.2185 -2.4530  1.4662
 1822TIP3    H2 5431   6.637   6.375   5.335  0.1200  1.4413  1.7759
 1823TIP3   OH2 5432   1.700   5.570   0.219 -0.2961 -0.2451  0.0958
 1823TIP3    H1 5433   1.624   5.518   0.194 -0.4042 -0.1446  0.2174
 1823TIP3    H2 5434   1.739   5.521   0.292 -0.7994  0.2129  0.6726
 1824TIP3   OH2 5435   3.326   6.572   0.578 -0.3309 -0.1075 -0.1027
 1824TIP3    H1 5436   3.324   6.493   0.525  0.8186 -0.3039  0.1243
 1824TIP3    H2 5437   3.417   6.579   0.608 -1.2238 -0.9833  3.3133
 1825TIP3   OH2 5438   4.631   0.724   0.805 -0.3027 -0.7078 -0.6003
 1825TIP3    H1 5439   4.685   0.740   0.728  0.3688 -1.5496 -0.3147
 1825TIP3    H2 5440   4.566   0.795   0.804  1.8876  1.4551  0.0296
 1826TIP3   OH2 5441   4.353   5.887   3.290 -0.6710  0.5378  0.1165
 1826TIP3    H1 5442   4.392   5.805   3.260 -0.9090  1.0833 -1.8316
 1826TIP3    H2 5443   4.371   5.890   3.384  1.3940 -0.6086 -0.1864
 1827TIP3   OH2 5444   5.745   0.224   4.638 -0.5537 -0.0761  0.4766
 1827TIP3    H1 5445   5.668   0.228   4.694 -0.7219  0.6492  0.2035
 1827TIP3    H2 5446   5.809   0.281   4.681 -1.6357  2.8209 -1.4634
 1828TIP3   OH2 5447   5.484   1.034   4.743  0.0328 -0.3009 -0.0133
 1828TIP3    H1 5448   5.549   0.964   4.734  0.6405  0.2920 -0.3011
 1828TIP3    H2 5449   5.458   1.054   4.653 -0.2348 -0.2319  0.0779
 1829TIP3   OH2 5450   3.230   2.258   2.286  0.0301 -0.0292  0.1318
 1829TIP3    H1 5451   3.224   2.351   2.265 -0.2371  0.0049  0.3533
 1829TIP3    H2 5452   3.323   2.243   2.303 -0.0064  0.3240  0.6638
 1830TIP3   OH2 5453   2.452   1.279   2.922 -0.4259  0.6639 -0.0285
 1830TIP3    H1 5454   2.442   1.216   2.994 -0.5291  0.3713 -0.2956
 1830TIP3    H2 5455   2.540   1.262   2.888 -1.1269 -0.6485 -1.3168
 1831TIP3   OH2 5456   0.166   1.392   0.862 -0.6643 -0.3021 -0.6725
 1831TIP3    H1 5457   0.128   1.480   0.872  0.4218  0.0908  0.1852
 1831TIP3    H2 5458   0.261   1.406   0.870 -0.5794 -1.9984  3.2584
 1832TIP3   OH2 5459   6.447   5.004   4.145  0.5773  0.2566  0.4284
 1832TIP3    H1 5460   6.465   4.921   4.188 -0.1167 -0.2743 -0.2844
 1832TIP3    H2 5461   6.484   4.995   4.057  1.5388  1.1418  0.7288
 1833TIP3   OH2 5462   6.247   1.338   3.190 -0.2730  0.2171 -0.0253
 1833TIP3    H1 5463   6.297   1.394   3.248 -1.1274  1.4951 -0.4640
 1833TIP3    H2 5464   6.259   1.376   3.103  2.0064 -2.3749 -0.9830
 1834TIP3   OH2 5465   1.687   2.657   3.395  0.2412 -0.2583 -0.4643
 1834TIP3    H1 5466   1.768   2.694   3.430 -0.4494  0.8112  0.0387
 1834TIP3    H2 5467   1.697   2.664   3.300 -1.0756  4.2041 -0.4982
 1835TIP3   OH2 5468   4.413   6.284   1.873 -0.4249 -0.4970  0.5240
 1835TIP3    H1 5469   4.497   6.240   1.863  0.5483  1.4738 -0.6056
 1835TIP3    H2 5470   4.436   6.374   1.897 -2.2938 -0.4073  2.2363
 1836TIP3   OH2 5471   6.855   2.895   0.498  0.4756 -0.2484 -0.3963
 1836TIP3    H1 5472   6.858   2.819   0.556  1.1827  1.8073  2.4766
 1836TIP3    H2 5473   6.894   2.864   0.416 -1.1231 -3.4741 -0.1218
 1837TIP3   OH2 5474   2.155   1.677   1.665  0.3798  0.6030 -0.2204
 1837TIP3    H1 5475   2.072   1.721   1.652  1.3118  2.1497 -1.2414
 1837TIP3    H2 5476   2.151   1.643   1.754 -1.7840 -0.4118 -0.6467
 1838TIP3   OH2 5477   5.270   4.856   2.782  0.1204  0.3144 -0.4824
 1838TIP3    H1 5478   5.313   4.799   2.846  0.6199 -0.5558 -1.5677
 1838TIP3    H2 5479   5.337   4.873   2.716  0.1660  2.6341  0.0643
 1839TIP3   OH2 5480   0.627   3.507   3.398  0.2468  0.3088  0.0740
 1839TIP3    H1 5481   0.707   3.455   3.410  0.4349 -0.1855 -2.5330
 1839TIP3    H2 5482   0.648   3.592   3.436  1.6365 -0.1485  0.3973
 1840TIP3   OH2 5483   4.852   3.062   4.784 -0.5755  0.1396 -0.4722
 1840TIP3    H1 5484   4.904   3.138   4.810 -0.8440  0.3563 -0.5527
 1840TIP3    H2 5485   4.828   3.079   4.693 -0.4947 -0.1240 -0.5439
 1841TIP3   OH2 5486   0.221   0.493   1.497  0.0435 -0.4394 -0.4091
 1841TIP3    H1 5487   0.203   0.403   1.526 -1.5700  0.1496  0.5483
 1841TIP3    H2 5488   0.224   0.544   1.578 -0.8352  0.6468 -1.0193
 1842TIP3   OH2 5489   4.815   1.184   4.901 -0.2000 -0.0507 -0.1717
 1842TIP3    H1 5490   4.848   1.136   4.825  0.4627  0.2658 -0.0863
 1842TIP3    H2 5491   4.722   1.160   4.906 -0.1361 -0.4385 -0.7981
 1843TIP3   OH2 5492   4.584   5.441   2.518 -0.0624 -0.0835 -0.2729
 1843TIP3    H1 5493   4.586   5.515   2.456  0.8513  0.8145  0.7692
 1843TIP3    H2 5494   4.597   5.482   2.604 -0.3080 -1.4002  0.4140
 1844TIP3   OH2 5495   4.105   3.373   5.583 -0.2313 -0.0604 -0.0673
 1844TIP3    H1 5496   4.143   3.294   5.620  1.3939  0.7892  0.1990
 1844TIP3    H2 5497   4.151   3.385   5.499 -0.2097  0.7493  0.0491
 1845TIP3   OH2 5498   5.112   1.597   0.806  0.1605  0.4214 -0.1687
 1845TIP3    H1 5499   5.070   1.574   0.724  1.1577 -0.3788 -0.4700
 1845TIP3    H2 5500   5.101   1.692   0.813 -0.7015  0.3753 -0.7735
 1846TIP3   OH2 5501   2.101   6.228   0.943 -0.6775  0.1129  0.4513
 1846TIP3    H1 5502   2.043   6.288   0.896 -2.1411 -1.7024 -0.2101
 1846TIP3    H2 5503   2.041   6.169   0.990  0.6810 -0.8841  0.9931
 1847TIP3   OH2 5504   5.012   3.328   5.447 -0.0495 -1.0135  0.1039
 1847TIP3    H1 5505   4.965   3.315   5.364 -1.0175 -0.2878  0.5225
 1847TIP3    H2 5506   5.104   3.336   5.421 -0.4321  0.1612 -1.0197
 1848TIP3   OH2 5507   6.588   5.095   5.116  0.1919  0.0313  0.4945
 1848TIP3    H1 5508   6.661   5.077   5.175  0.3480 -0.4820  0.1514
 1848TIP3    H2 5509   6.628   5.113   5.032 -0.0872 -0.5973  0.2223
 1849TIP3   OH2 5510   4.020   1.510   1.226 -0.1729 -0.3296  0.3716
 1849TIP3    H1 5511   3.988   1.535   1.313 -0.1406  0.6722  0.1088
 1849TIP3    H2 5512   4.100   1.562   1.214  1.0748 -2.1274  0.6522
 1850TIP3   OH2 5513   5.053   4.306   2.215  0.0932 -0.0916  0.1780
 1850TIP3    H1 5514   5.115   4.290   2.286  0.4810  0.5364 -0.0135
 1850TIP3    H2 5515   5.097   4.370   2.159 -0.2645 -0.4852 -0.5581
 1851TIP3   OH2 5516   0.281   2.235   0.903 -0.2496 -0.0827  0.5925
 1851TIP3    H1 5517   0.370   2.207   0.923 -0.6722 -1.5060  0.5604
 1851TIP3    H2 5518   0.292   2.320   0.860  1.0210  0.2246  1.4731
 1852TIP3   OH2 5519   6.282   4.095   3.376  0.4975 -0.6901 -0.1156
 1852TIP3    H1 5520   6.283   4.026   3.443  1.1655  0.5458  1.2113
 1852TIP3    H2 5521   6.349   4.069   3.314  1.3563 -0.8112  0.8335
 1853TIP3   OH2 5522   5.200   0.562   0.391  0.3417  0.0192 -0.1578
 1853TIP3    H1 5523   5.218   0.622   0.463 -0.3742 -1.3153  1.1765
 1853TIP3    H2 5524   5.215   0.475   0.428 -1.2827 -0.7559 -1.2385
 1854TIP3   OH2 5525   3.107   3.939   1.554  0.1126  0.3666 -0.3225
 1854TIP3    H1 5526   3.189   3.990   1.556  0.6129 -0.4225  1.5900
 1854TIP3    H2 5527   3.108   3.896   1.469  2.8791 -1.4277  0.4885
 1855TIP3   OH2 5528   3.795   2.666   5.883  0.6578  0.3408  0.2010
 1855TIP3    H1 5529   3.851   2.662   5.806 -2.5835  1.1280 -2.4214
 1855TIP3    H2 5530   3.780   2.760   5.897 -0.0507  0.1556  0.7724
 1856TIP3   OH2 5531   6.046   1.444   3.966 -0.0561 -0.1063  0.2021
 1856TIP3    H1 5532   5.981   1.388   4.008  0.0904 -0.0456  0.5101
 1856TIP3    H2 5533   6.091   1.387   3.903  0.2569 -0.3971  0.6863
 1857TIP3   OH2 5534   3.854   1.031   2.967 -0.2347 -0.0983 -0.1683
 1857TIP3    H1 5535   3.811   1.117   2.961  0.3533  0.3052  1.0036
 1857TIP3    H2 5536   3.799   0.981   3.027 -0.7901 -0.6944 -1.1541
 1858TIP3   OH2 5537   0.143   6.756   2.528 -0.2045  0.1241 -0.4041
 1858TIP3    H1 5538   0.058   6.771   2.486 -0.8315 -1.2655  0.2855
 1858TIP3    H2 5539   0.182   6.685   2.478 -1.3109 -2.1210  1.6825
 1859TIP3   OH2 5540   6.549   1.699   5.725 -0.0667 -0.6830  0.1354
 1859TIP3    H1 5541   6.635   1.713   5.765 -0.8937  2.5267  1.0967
 1859TIP3    H2 5542   6.557   1.615   5.680  3.8322 -0.1594 -0.5318
 1860TIP3   OH2 5543   6.661   0.697   0.197  0.0714  0.4851  0.4485
 1860TIP3    H1 5544   6.570   0.707   0.170  0.0682  0.6547  0.5214
 1860TIP3    H2 5545   6.656   0.672   0.290  0.0706 -0.4146  0.2183
 1861TIP3   OH2 5546   1.198   3.834   5.830 -0.3812  0.3327  0.2867
 1861TIP3    H1 5547   1.237   3.790   5.906  0.5642  0.3635 -0.1614
 1861TIP3    H2 5548   1.268   3.836   5.765 -1.2656  0.0179 -0.7136
 1862TIP3   OH2 5549   2.752   5.956   2.487  0.4790 -0.2668 -0.5666
 1862TIP3    H1 5550   2.677   5.987   2.539 -0.7047 -2.9163 -0.5319
 1862TIP3    H2 5551   2.828   5.969   2.544 -0.5201 -1.2344  1.0582
 1863TIP3   OH2 5552   2.388   4.658   3.392  0.2386  0.2785  0.1625
 1863TIP3    H1 5553   2.433   4.699   3.319 -2.0702 -0.4705 -1.7899
 1863TIP3    H2 5554   2.381   4.566   3.368 -1.4128  0.1904  0.8676
 1864TIP3   OH2 5555   0.387   4.990   2.901 -0.1670  0.6776 -0.5069
 1864TIP3    H1 5556   0.395   5.057   2.969  0.4893 -1.5663  1.7732
 1864TIP3    H2 5557   0.322   4.929   2.936 -1.0990  0.2981 -2.7342
 1865TIP3   OH2 5558   4.331   1.194   3.111 -0.3391 -0.3373  0.4986
 1865TIP3    H1 5559   4.256   1.247   3.139  0.2021  0.4335  0.5017
 1865TIP3    H2 5560   4.384   1.254   3.058 -0.3644 -1.2215 -0.5820
 1866TIP3   OH2 5561   2.908   3.713   0.936 -0.0938 -0.1903 -0.0369
 1866TIP3    H1 5562   2.952   3.628   0.936  0.1612 -0.0705  0.7918
 1866TIP3    H2 5563   2.906   3.739   0.844  0.2045 -0.8969 -0.2521
 1867TIP3   OH2 5564   6.799   4.825   0.925 -0.1925 -0.3226 -0.2692
 1867TIP3    H1 5565   6.746   4.818   0.845 -1.0243 -1.5131  0.3505
 1867TIP3    H2 5566   6.856   4.748   0.922 -0.1854 -0.3383  0.2517
 1868TIP3   OH2 5567   3.663   2.531   1.403  0.4228  0.0858  0.1178
 1868TIP3    H1 5568   3.625   2.572   1.481  0.2686  0.8100 -0.3300
 1868TIP3    H2 5569   3.590   2.489   1.359  0.5920 -0.7507  0.6117
 1869TIP3   OH2 5570   3.051   1.114   2.885 -0.3982 -0.3115 -0.0731
 1869TIP3    H1 5571   2.997   1.131   2.962 -2.9838  0.9706 -2.0080
 1869TIP3    H2 5572   3.000   1.051   2.834  1.1955 -1.0466 -0.8089
 1870TIP3   OH2 5573   6.518   3.747   3.284  0.1925  0.0244 -0.0547
 1870TIP3    H1 5574   6.605   3.785   3.274 -0.5475  1.4147 -1.6519
 1870TIP3    H2 5575   6.533   3.653   3.286  1.7302  0.2373 -0.3034
 1871TIP3   OH2 5576   6.247   4.103   1.063  0.1596  0.4763 -0.2192
 1871TIP3    H1 5577   6.196   4.022   1.059  0.0253  0.5321  0.3510
 1871TIP3    H2 5578   6.187   4.168   1.098  0.3835  0.7327 -0.3122
 1872TIP3   OH2 5579   4.870   1.427   5.266  0.6133 -0.2765 -0.1920
 1872TIP3    H1 5580   4.914   1.344   5.247  0.4363 -0.3115 -0.4563
 1872TIP3    H2 5581   4.820   1.446   5.187 -1.8868 -1.5106  0.9608
 1873TIP3   OH2 5582   6.540   1.697   1.617  0.2429  0.3138  0.2942
 1873TIP3    H1 5583   6.620   1.738   1.583  0.5027  0.1943  0.7499
 1873TIP3    H2 5584   6.490   1.769   1.655  0.1344  0.3887  0.0095
 1874TIP3   OH2 5585   3.593   4.796   5.733 -0.0608 -0.7294 -0.0901
 1874TIP3    H1 5586   3.524   4.849   5.773  0.3975  0.3576 -0.7034
 1874TIP3    H2 5587   3.562   4.781   5.644  1.2279  1.2426 -0.9419
 1875TIP3   OH2 5588   6.977   5.585   2.272  0.2078 -0.0055  0.0550
 1875TIP3    H1 5589   6.971   5.542   2.357  0.0895  3.0870  1.7559
 1875TIP3    H2 5590   6.886   5.595   2.243  0.0620  1.3020  0.9039
 1876TIP3   OH2 5591   6.871   2.367   0.113 -0.2422  0.1118 -0.3825
 1876TIP3    H1 5592   6.780   2.380   0.139  0.5435  0.7673  2.3035
 1876TIP3    H2 5593   6.896   2.285   0.155  0.0255 -0.9303 -2.4238
 1877TIP3   OH2 5594   2.897   4.237   2.124 -0.2546 -0.2430  0.2993
 1877TIP3    H1 5595   2.916   4.147   2.098  2.4240  0.1306  0.6498
 1877TIP3    H2 5596   2.960   4.289   2.073 -1.5722  1.4153  0.3000
 1878TIP3   OH2 5597   1.480   0.569   3.096  0.5991 -0.4321  0.1092
 1878TIP3    H1 5598   1.532   0.492   3.074  1.5778  0.1932  0.1697
 1878TIP3    H2 5599   1.536   0.621   3.153  0.0906  0.4988 -0.2127
 1879TIP3   OH2 5600   4.213   6.030   1.212 -0.1439 -0.3978  0.1872
 1879TIP3    H1 5601   4.169   5.965   1.267  0.8482 -3.2396 -2.0933
 1879TIP3    H2 5602   4.162   6.032   1.131  1.0132  0.1266 -0.5565
 1880TIP3   OH2 5603   4.025   5.908   3.627 -0.0041  0.0204 -0.1874
 1880TIP3    H1 5604   3.969   5.959   3.568  1.1838  0.6760 -0.7930
 1880TIP3    H2 5605   3.994   5.929   3.715  0.3482  1.6708 -0.4341
 1881TIP3   OH2 5606   0.665   2.727   4.814 -0.1699 -0.4336  0.6931
 1881TIP3    H1 5607   0.696   2.803   4.764  0.4212 -0.3116  1.2343
 1881TIP3    H2 5608   0.570   2.733   4.810 -0.1574 -0.7819 -0.9468
 1882TIP3   OH2 5609   2.052   0.692   3.576  0.3949  0.0674 -0.2039
 1882TIP3    H1 5610   2.062   0.779   3.615 -1.4195 -0.5386  1.8227
 1882TIP3    H2 5611   2.007   0.708   3.493  1.6597  1.1580 -0.7268
 1883TIP3   OH2 5612   2.851   1.162   3.106  0.1659 -0.3150  0.4122
 1883TIP3    H1 5613   2.855   1.253   3.134  3.2349 -0.0319 -0.5376
 1883TIP3    H2 5614   2.884   1.112   3.180  2.6832 -0.1346 -0.4917
 1884TIP3   OH2 5615   4.100   4.755   4.537 -0.2833 -0.2678 -0.4226
 1884TIP3    H1 5616   4.124   4.828   4.480 -0.2866 -0.7010 -0.9850
 1884TIP3    H2 5617   4.136   4.678   4.494 -0.3676 -0.6160  0.1147
 1885TIP3   OH2 5618   5.142   4.327   0.355  0.4305 -0.0040 -0.2276
 1885TIP3    H1 5619   5.204   4.304   0.424 -0.3663  1.1759  0.9390
 1885TIP3    H2 5620   5.124   4.245   0.310 -1.2912 -1.5197  2.8928
 1886TIP3   OH2 5621   1.459   0.148   3.525  0.2237 -0.0772 -0.0545
 1886TIP3    H1 5622   1.438   0.156   3.432  0.9346 -1.2999 -0.3381
 1886TIP3    H2 5623   1.399   0.209   3.569  0.5156  1.2274 -1.3836
 1887TIP3   OH2 5624   1.361   5.955   1.225  0.2745  0.9773 -0.2636
 1887TIP3    H1 5625   1.434   6.008   1.258  0.5522  1.4638 -1.5948
 1887TIP3    H2 5626   1.372   5.871   1.269  1.2657  1.2544  0.0600
 1888TIP3   OH2 5627   0.892   1.895   0.599  0.0236 -0.3736 -0.1689
 1888TIP3    H1 5628   0.876   1.958   0.669 -1.3734  0.7796 -1.4863
 1888TIP3    H2 5629   0.977   1.920   0.563 -0.2366  0.3711 -0.2723
 1889TIP3   OH2 5630   3.729   2.774   0.449 -0.1208  0.4528  0.4381
 1889TIP3    H1 5631   3.692   2.753   0.364 -2.1742 -0.2724  1.4515
 1889TIP3    H2 5632   3.669   2.838   0.487  0.7184  0.7213  1.3772
 1890TIP3   OH2 5633   4.657   4.319   4.846  0.2628  0.1525 -0.3465
 1890TIP3    H1 5634   4.616   4.406   4.852  0.6101  0.2217  1.5031
 1890TIP3    H2 5635   4.692   4.316   4.757  0.4319  1.9997 -0.3805
 1891TIP3   OH2 5636   1.545   6.400   5.516 -0.1562 -0.0674  0.1779
 1891TIP3    H1 5637   1.528   6.318   5.469 -0.2651 -0.5280  1.0027
 1891TIP3    H2 5638   1.597   6.452   5.454 -2.5261  0.4535 -1.5047
 1892TIP3   OH2 5639   3.646   3.417   3.927  0.0440 -0.1024  0.3505
 1892TIP3    H1 5640   3.688   3.357   3.865 -2.4447 -0.2163 -1.3416
 1892TIP3    H2 5641   3.587   3.362   3.978  0.2145  0.4066  1.1173
 1893TIP3   OH2 5642   2.666   4.417   0.401  0.2241  0.0628 -0.3123
 1893TIP3    H1 5643   2.580   4.413   0.442  0.8014 -0.9443  0.8631
 1893TIP3    H2 5644   2.727   4.396   0.472  1.4153  0.4124 -1.2038
 1894TIP3   OH2 5645   4.410   0.524   2.736 -0.4094 -0.0725  0.0291
 1894TIP3    H1 5646   4.350   0.599   2.744  0.5269  0.7047 -0.0179
 1894TIP3    H2 5647   4.404   0.480   2.820  0.3572  1.1092  0.7343
 1895TIP3   OH2 5648   2.122   1.299   5.122 -0.5142  0.1270  0.0441
 1895TIP3    H1 5649   2.178   1.221   5.131 -0.3295  0.3919  1.4314
 1895TIP3    H2 5650   2.033   1.264   5.125 -0.4315 -0.0855  0.1058
 1896TIP3   OH2 5651   0.624   3.931   2.018  0.6942 -0.0368  0.0670
 1896TIP3    H1 5652   0.640   3.900   1.929 -1.6227  0.7045 -0.6651
 1896TIP3    H2 5653   0.661   4.019   2.021  5.2352 -1.7010  1.4665
 1897TIP3   OH2 5654   0.495   1.055   5.528  0.1550 -0.4691  0.3739
 1897TIP3    H1 5655   0.521   0.969   5.493  0.2505 -0.7671  1.1611
 1897TIP3    H2 5656   0.494   1.043   5.623 -1.9744 -0.2129  0.4349
 1898TIP3   OH2 5657   2.925   4.407   1.543 -0.6227  0.5581  0.1057
 1898TIP3    H1 5658   2.933   4.498   1.515  0.2188  0.1391 -1.0969
 1898TIP3    H2 5659   3.015   4.376   1.548 -0.9263 -0.4375 -0.3241
 1899TIP3   OH2 5660   6.065   6.680   1.270 -0.1575 -0.2192  0.0788
 1899TIP3    H1 5661   5.985   6.656   1.319 -0.9126  1.7256 -0.1205
 1899TIP3    H2 5662   6.043   6.663   1.179 -0.4982  0.6346 -0.0097
 1900TIP3   OH2 5663   0.341   2.452   1.299 -0.0471  0.0624 -0.3486
 1900TIP3    H1 5664   0.278   2.451   1.371 -1.2005  2.0483 -1.2446
 1900TIP3    H2 5665   0.326   2.369   1.253 -1.6988  0.2895 -0.2735
 1901TIP3   OH2 5666   2.711   5.598   5.554 -0.4069 -0.4306  1.0740
 1901TIP3    H1 5667   2.698   5.629   5.643 -3.5895  3.1491 -0.3452
 1901TIP3    H2 5668   2.790   5.644   5.524 -0.4010 -0.1695  1.4891
 1902TIP3   OH2 5669   3.178   0.985   5.420  0.5510 -0.3437  0.3225
 1902TIP3    H1 5670   3.211   0.962   5.507  0.4189 -3.3807 -0.3525
 1902TIP3    H2 5671   3.153   1.077   5.429  2.1626 -0.0347  2.9728
 1903TIP3   OH2 5672   0.347   1.769   1.835  0.2899 -0.1252  0.0473
 1903TIP3    H1 5673   0.254   1.767   1.813 -0.1355  1.1404  1.5347
 1903TIP3    H2 5674   0.391   1.780   1.751 -1.0136  0.9789 -0.5364
 1904TIP3   OH2 5675   1.008   6.196   2.592 -0.7271 -0.4374  0.1599
 1904TIP3    H1 5676   0.932   6.174   2.647  0.0830  0.9468  1.9295
 1904TIP3    H2 5677   0.971   6.247   2.520 -1.7642 -1.9535 -0.4349
 1905TIP3   OH2 5678   2.537   3.367   1.289 -0.8877  0.0897 -0.4725
 1905TIP3    H1 5679   2.547   3.302   1.220 -0.3316 -0.1712 -0.1535
 1905TIP3    H2 5680   2.492   3.321   1.360 -1.1212  0.2504 -0.5150
 1906TIP3   OH2 5681   1.077   2.186   0.904  0.4238  0.2117  0.1866
 1906TIP3    H1 5682   1.071   2.120   0.973 -0.7713  1.0656  0.9258
 1906TIP3    H2 5683   1.044   2.267   0.944  0.6946  0.9816 -1.0703
 1907TIP3   OH2 5684   4.647   3.964   3.869 -0.1234  0.4587 -0.5657
 1907TIP3    H1 5685   4.595   3.985   3.947 -0.1676 -1.8905  0.1201
 1907TIP3    H2 5686   4.582   3.947   3.801 -0.3105 -1.7839  0.1045
 1908TIP3   OH2 5687   2.266   4.111   5.024 -0.3654 -0.4229  0.1091
 1908TIP3    H1 5688   2.219   4.048   4.968  1.5926 -1.5326 -0.3989
 1908TIP3    H2 5689   2.358   4.092   5.008  0.2690  0.8769  1.9333
 1909TIP3   OH2 5690   6.392   2.396   5.734  0.2612 -0.7061  0.2496
 1909TIP3    H1 5691   6.456   2.467   5.733 -1.1224  0.6060 -1.2849
 1909TIP3    H2 5692   6.425   2.333   5.670  1.1398 -1.1730  1.1235
 1910TIP3   OH2 5693   5.900   4.791   1.953  0.3765  0.1189  0.0636
 1910TIP3    H1 5694   5.902   4.869   1.898  0.8612  0.1064  0.0561
 1910TIP3    H2 5695   5.812   4.755   1.942  0.3302  0.3624 -0.3550
 1911TIP3   OH2 5696   2.710   5.018   3.318 -0.1442  0.3943  0.3540
 1911TIP3    H1 5697   2.787   5.034   3.374  0.0045 -2.1632  0.9883
 1911TIP3    H2 5698   2.736   5.051   3.232  2.1222 -1.2768  0.3040
 1912TIP3   OH2 5699   5.519   6.574   0.242  0.3130  0.1976  0.9188
 1912TIP3    H1 5700   5.449   6.557   0.180  1.3386  0.3983 -0.3315
 1912TIP3    H2 5701   5.478   6.628   0.310 -0.9924 -0.5970  0.7952
 1913TIP3   OH2 5702   2.350   0.458   2.826 -0.4680 -1.0201  0.5744
 1913TIP3    H1 5703   2.441   0.439   2.801 -0.1786 -0.0428  0.8156
 1913TIP3    H2 5704   2.346   0.554   2.827 -1.4470 -1.0593  0.7828
 1914TIP3   OH2 5705   1.265   5.618   4.842 -0.3130 -0.1778  0.0431
 1914TIP3    H1 5706   1.195   5.648   4.900  1.1887 -0.6705  2.2439
 1914TIP3    H2 5707   1.322   5.695   4.833 -0.8106  0.0656 -1.3153
 1915TIP3   OH2 5708   1.063   2.300   2.774 -0.2454  0.3388 -0.5780
 1915TIP3    H1 5709   1.032   2.214   2.802  0.3317  0.8162  1.7124
 1915TIP3    H2 5710   1.039   2.305   2.681 -0.4815 -2.1772 -0.7186
 1916TIP3   OH2 5711   2.321   1.703   2.735  0.1327  0.2193 -0.1762
 1916TIP3    H1 5712   2.401   1.661   2.707  1.1046  0.9865  1.2918
 1916TIP3    H2 5713   2.347   1.756   2.811 -2.0477 -0.7571  1.3462
 1917TIP3   OH2 5714   6.883   4.181   0.022  0.3332 -0.2120 -0.5131
 1917TIP3    H1 5715   6.909   4.239  -0.050 -1.5753  1.1475 -0.1713
 1917TIP3    H2 5716   6.832   4.236   0.080 -0.8683 -2.0511  0.2710
 1918TIP3   OH2 5717   5.198   2.778   0.754 -0.1490 -0.5146 -0.2107
 1918TIP3    H1 5718   5.229   2.756   0.842 -2.6893 -0.4269  0.8140
 1918TIP3    H2 5719   5.104   2.757   0.756 -0.7576  1.5574 -2.1996
 1919TIP3   OH2 5720   6.453   3.365   0.648 -0.0360  0.3608  0.1882
 1919TIP3    H1 5721   6.365   3.404   0.646 -0.8156 -1.3581 -0.6307
 1919TIP3    H2 5722   6.441   3.279   0.687  1.5940  0.7177  1.6158
 1920TIP3   OH2 5723   0.604   0.645   3.317  0.5632  0.8012  0.0976
 1920TIP3    H1 5724   0.621   0.611   3.230  1.1361  2.5155 -0.5092
 1920TIP3    H2 5725   0.664   0.598   3.374 -0.9515 -1.5287 -0.0915
 1921TIP3   OH2 5726   1.559   5.984   5.829 -0.0855 -0.2217 -0.1767
 1921TIP3    H1 5727   1.629   6.020   5.882  0.7718 -0.9918 -0.7580
 1921TIP3    H2 5728   1.505   6.059   5.805 -0.4656  0.1543  1.7036
 1922TIP3   OH2 5729   2.761   5.307   5.172 -0.3075  0.2738  0.4180
 1922TIP3    H1 5730   2.842   5.350   5.144 -0.9773  1.3397  0.0503
 1922TIP3    H2 5731   2.765   5.308   5.267  0.7731 -1.0124  0.4262
 1923TIP3   OH2 5732   5.048   2.596   5.117 -0.6248  0.1697  0.1816
 1923TIP3    H1 5733   5.026   2.584   5.209 -2.7138 -0.0662 -0.2927
 1923TIP3    H2 5734   4.993   2.534   5.070  0.2264  0.4398 -1.2605
 1924TIP3   OH2 5735   3.566   3.642   5.431 -0.0644 -0.4385  0.0598
 1924TIP3    H1 5736   3.514   3.716   5.461  0.5584 -0.0160  0.0997
 1924TIP3    H2 5737   3.503   3.585   5.386 -0.8975 -0.7975  1.6265
 1925TIP3   OH2 5738   3.321   2.337   5.796  0.1017  0.2418  0.4311
 1925TIP3    H1 5739   3.397   2.394   5.790 -0.9594  1.4962 -2.8517
 1925TIP3    H2 5740   3.259   2.371   5.732 -2.2433 -2.2363  1.1710
 1926TIP3   OH2 5741   6.935   2.251   2.164 -0.0693 -0.0585 -0.1866
 1926TIP3    H1 5742   6.871   2.181   2.177  0.4057 -1.2966 -3.4948
 1926TIP3    H2 5743   7.016   2.206   2.141  0.3014  1.5118 -2.2619
 1927TIP3   OH2 5744   5.197   4.682   4.567  0.4417 -0.0669  0.1271
 1927TIP3    H1 5745   5.106   4.672   4.540  0.5159 -1.1123  0.2391
 1927TIP3    H2 5746   5.248   4.646   4.494  0.6616 -2.2188  1.2508
 1928TIP3   OH2 5747   3.622   0.822   0.403 -0.0602  0.0347 -0.1843
 1928TIP3    H1 5748   3.604   0.769   0.481  1.3947 -0.7568 -0.3523
 1928TIP3    H2 5749   3.633   0.757   0.333  1.6335  0.5412 -0.4213
 1929TIP3   OH2 5750   5.799   0.594   4.131 -0.1081  0.6420  0.3300
 1929TIP3    H1 5751   5.759   0.649   4.198  0.1670 -0.6191  1.5856
 1929TIP3    H2 5752   5.893   0.609   4.140 -0.0868  0.6979  0.0160
 1930TIP3   OH2 5753   2.254   0.100   1.609 -0.1597  0.2710  0.1361
 1930TIP3    H1 5754   2.181   0.162   1.619 -1.3118 -0.9545 -0.2860
 1930TIP3    H2 5755   2.301   0.131   1.532 -0.6126  0.7444  0.0410
 1931TIP3   OH2 5756   6.075   4.416   5.559  0.2952 -0.0863 -0.1706
 1931TIP3    H1 5757   6.103   4.507   5.556 -0.0084  0.1508  2.1509
 1931TIP3    H2 5758   5.980   4.420   5.546  0.1931  0.0208  0.5482
 1932TIP3   OH2 5759   0.824   4.666   0.701  0.0190 -0.1118 -0.0531
 1932TIP3    H1 5760   0.869   4.582   0.694  2.4789  0.9401  1.5805
 1932TIP3    H2 5761   0.773   4.659   0.781 -1.1435 -0.5932 -0.8155
 1933TIP3   OH2 5762   1.775   0.202   4.565 -0.4767 -0.2606 -0.2671
 1933TIP3    H1 5763   1.819   0.282   4.592 -1.9327  0.3386  0.4118
 1933TIP3    H2 5764   1.840   0.156   4.511  1.5034 -0.1171  1.8236
 1934TIP3   OH2 5765   2.742   4.135   2.839  0.0005  0.0900  0.0876
 1934TIP3    H1 5766   2.730   4.201   2.907  3.2101  0.0935  0.8072
 1934TIP3    H2 5767   2.820   4.086   2.866  1.0280 -0.3570 -3.2382
 1935TIP3   OH2 5768   5.863   5.170   4.036  0.0752 -0.0750 -0.3482
 1935TIP3    H1 5769   5.895   5.183   4.125  0.1869 -0.0072 -0.3978
 1935TIP3    H2 5770   5.816   5.087   4.039 -2.3211  1.2070  0.4444
 1936TIP3   OH2 5771   4.710   2.285   1.351  0.0431 -0.0696 -0.1032
 1936TIP3    H1 5772   4.781   2.309   1.410  0.0079 -0.2003 -0.0067
 1936TIP3    H2 5773   4.725   2.337   1.273  0.8384 -0.8566 -0.4951
 1937TIP3   OH2 5774   3.889   2.215   1.171 -0.0047 -0.3794 -0.6326
 1937TIP3    H1 5775   3.899   2.310   1.178 -1.3762 -0.1121 -1.8343
 1937TIP3    H2 5776   3.872   2.187   1.261 -0.8605  0.7038 -0.4215
 1938TIP3   OH2 5777   5.565   2.727   3.382  0.0997  0.1803  0.5692
 1938TIP3    H1 5778   5.653   2.692   3.369  0.2490  0.4969  0.7149
 1938TIP3    H2 5779   5.578   2.821   3.394 -0.6329  1.0881 -4.0409
 1939TIP3   OH2 5780   5.913   2.877   1.964 -0.4516 -0.4824  0.3527
 1939TIP3    H1 5781   5.846   2.918   2.020 -0.3372  0.6771 -0.3158
 1939TIP3    H2 5782   5.872   2.875   1.877  0.1841 -0.2193  0.0426
 1940TIP3   OH2 5783   0.437   4.752   5.109  0.6709  1.0419 -0.2962
 1940TIP3    H1 5784   0.449   4.667   5.152 -0.1572  0.4985 -1.1283
 1940TIP3    H2 5785   0.516   4.763   5.056  1.1401  1.1702  0.3977
 1941TIP3   OH2 5786   1.184   6.107   2.905 -0.1096 -0.0518  0.5038
 1941TIP3    H1 5787   1.109   6.137   2.853  0.1660 -0.9303 -0.4363
 1941TIP3    H2 5788   1.148   6.037   2.960 -0.0249 -0.3522  0.1808
 1942TIP3   OH2 5789   1.461   1.473   4.433  0.6169  0.2433  0.0586
 1942TIP3    H1 5790   1.507   1.520   4.363  0.7612  0.1208  0.0708
 1942TIP3    H2 5791   1.530   1.437   4.488  0.5023  1.3783  0.9750
 1943TIP3   OH2 5792   2.925   5.775   2.787 -0.0471  0.3670  0.0209
 1943TIP3    H1 5793   2.848   5.766   2.842  0.7152 -1.1889  0.9159
 1943TIP3    H2 5794   2.936   5.689   2.747  0.6102  0.8808 -0.9420
 1944TIP3   OH2 5795   1.344   6.808   1.409  0.1794 -0.4546 -0.3225
 1944TIP3    H1 5796   1.409   6.753   1.453 -1.9101 -3.1484 -0.2953
 1944TIP3    H2 5797   1.301   6.749   1.347 -2.7621  0.8944  0.2537
 1945TIP3   OH2 5798   6.147   5.937   1.806 -0.5111  0.4878  0.1798
 1945TIP3    H1 5799   6.054   5.951   1.826 -0.4280  0.9318  0.2618
 1945TIP3    H2 5800   6.149   5.854   1.758 -1.5307  2.5367 -3.8766
 1946TIP3   OH2 5801   5.735   3.960   2.882  0.1188 -0.0683 -0.3964
 1946TIP3    H1 5802   5.712   3.898   2.951 -0.0508  0.0290 -0.3654
 1946TIP3    H2 5803   5.827   3.943   2.865 -0.5317 -2.2596 -2.3117
 1947TIP3   OH2 5804   4.094   1.066   2.515  0.0171  0.1765 -0.0315
 1947TIP3    H1 5805   4.099   1.159   2.496  0.7475  0.3858  1.0663
 1947TIP3    H2 5806   4.000   1.047   2.519 -0.1320  0.7535 -0.7547
 1948TIP3   OH2 5807   1.365   4.740   2.700 -0.2463  0.6708 -0.5972
 1948TIP3    H1 5808   1.453   4.713   2.727 -0.5011 -0.0620 -0.4860
 1948TIP3    H2 5809   1.372   4.748   2.604 -0.4608 -1.0071 -0.7943
 1949TIP3   OH2 5810   3.539   3.140   0.221 -0.2343  0.2195 -0.1342
 1949TIP3    H1 5811   3.495   3.069   0.266 -1.3677  1.6360  1.1033
 1949TIP3    H2 5812   3.630   3.134   0.250  0.0018 -1.4665 -1.0800
 1950TIP3   OH2 5813   5.309   5.020   5.344 -0.0716 -0.5250 -0.0050
 1950TIP3    H1 5814   5.298   4.925   5.346  0.0382 -0.5293  1.1083
 1950TIP3    H2 5815   5.237   5.052   5.291  0.2337 -1.2715 -0.8856
 1951TIP3   OH2 5816   6.511   0.236   4.672  0.1913  0.3149 -0.3653
 1951TIP3    H1 5817   6.505   0.145   4.644  0.4589  0.3078 -0.4074
 1951TIP3    H2 5818   6.552   0.281   4.599  2.5196 -0.0208  0.6333
 1952TIP3   OH2 5819   3.149   1.642   3.919 -0.2349 -0.1580  0.0588
 1952TIP3    H1 5820   3.089   1.709   3.888 -0.4467  0.0243  0.8320
 1952TIP3    H2 5821   3.119   1.622   4.008 -0.4188 -1.5708 -0.2999
 1953TIP3   OH2 5822   4.835   4.114   2.006 -0.1872 -0.8830  0.0616
 1953TIP3    H1 5823   4.778   4.158   2.070 -0.7195  0.6162 -1.3644
 1953TIP3    H2 5824   4.841   4.024   2.037  0.3390 -0.0079  2.7219
 1954TIP3   OH2 5825   0.978   6.040   0.413  0.2042  0.0784 -0.5364
 1954TIP3    H1 5826   0.962   6.024   0.320  0.7826 -0.8074 -0.4880
 1954TIP3    H2 5827   0.958   5.957   0.455 -0.0683  0.4821  0.1432
 1955TIP3   OH2 5828   3.363   1.477   0.233  0.5108  0.1491  0.1196
 1955TIP3    H1 5829   3.452   1.460   0.262  0.4304 -1.1619 -0.3383
 1955TIP3    H2 5830   3.343   1.406   0.172  0.5649  2.5758 -2.9741
 1956TIP3   OH2 5831   6.517   0.930   2.442  0.3439 -0.3632 -0.0432
 1956TIP3    H1 5832   6.524   0.844   2.401  0.4691  0.7221 -2.4759
 1956TIP3    H2 5833   6.456   0.978   2.387  1.1283  1.4587  0.5861
 1957TIP3   OH2 5834   3.621   5.293   0.307 -0.0329 -0.1849 -0.3018
 1957TIP3    H1 5835   3.643   5.345   0.230  1.4076 -0.9750 -0.4535
 1957TIP3    H2 5836   3.693   5.308   0.368 -0.6493 -0.3653  0.4827
 1958TIP3   OH2 5837   2.219   2.397   0.881 -0.2205  0.2933 -0.3631
 1958TIP3    H1 5838   2.150   2.410   0.946  0.2431  0.6820  0.0643
 1958TIP3    H2 5839   2.197   2.459   0.811 -1.8460 -1.5109 -1.5670
 1959TIP3   OH2 5840   0.107   3.697   2.597  0.8632  0.0856 -0.0221
 1959TIP3    H1 5841   0.081   3.765   2.659 -0.9021 -0.8541  0.3336
 1959TIP3    H2 5842   0.178   3.736   2.546  2.7952  0.7310  2.9130
 1960TIP3   OH2 5843   6.304   5.920   0.227 -0.1414  0.2252  0.1156
 1960TIP3    H1 5844   6.238   5.962   0.171 -0.9025  1.9964  2.1889
 1960TIP3    H2 5845   6.383   5.972   0.214 -0.0262  0.0138 -0.0412
 1961TIP3   OH2 5846   6.877   4.937   1.501  0.7656 -0.3088 -0.1509
 1961TIP3    H1 5847   6.839   4.874   1.564 -1.8567  0.5081 -0.7850
 1961TIP3    H2 5848   6.857   5.022   1.539  2.5949  0.1843 -0.2459
 1962TIP3   OH2 5849   6.828   5.768   2.058 -0.1404  0.2901 -0.2961
 1962TIP3    H1 5850   6.740   5.792   2.088 -0.2486 -0.2446 -0.1775
 1962TIP3    H2 5851   6.831   5.673   2.068 -0.5949 -0.1029 -3.0600
 1963TIP3   OH2 5852   0.614   2.726   5.498 -0.5658 -0.1892 -0.1893
 1963TIP3    H1 5853   0.621   2.727   5.593 -0.4460 -0.6001 -0.1904
 1963TIP3    H2 5854   0.670   2.654   5.471 -0.1968  0.2508 -0.6074
 1964TIP3   OH2 5855   6.690   1.485   3.341 -0.9279  0.2979  0.6417
 1964TIP3    H1 5856   6.707   1.419   3.275  1.0622  1.8915 -0.5689
 1964TIP3    H2 5857   6.750   1.465   3.413 -1.2753  0.0396  0.8640
 1965TIP3   OH2 5858   3.202   5.359   3.231 -0.1269  0.5870 -0.0862
 1965TIP3    H1 5859   3.273   5.399   3.280 -0.8103  0.1444  1.3037
 1965TIP3    H2 5860   3.238   5.276   3.200  0.2716  0.8181 -0.2500
 1966TIP3   OH2 5861   3.832   3.677   2.133  0.3659 -0.3101  0.0148
 1966TIP3    H1 5862   3.827   3.761   2.089 -1.1590  0.8545  2.2355
 1966TIP3    H2 5863   3.872   3.696   2.218 -0.9253 -1.5867  0.9696
 1967TIP3   OH2 5864   1.289   3.777   0.680 -0.0592 -0.0561 -0.3970
 1967TIP3    H1 5865   1.212   3.720   0.681  0.2958 -0.5471  0.8987
 1967TIP3    H2 5866   1.259   3.859   0.718 -0.2085  0.1308 -0.9123
 1968TIP3   OH2 5867   6.556   2.344   2.221  0.4208 -0.2393 -0.0575
 1968TIP3    H1 5868   6.587   2.258   2.194 -1.1478 -0.7553 -0.3602
 1968TIP3    H2 5869   6.548   2.393   2.139  0.5845 -0.0700  0.0291
 1969TIP3   OH2 5870   0.203   2.207   5.136 -0.1557  0.1429  0.1735
 1969TIP3    H1 5871   0.188   2.223   5.229  0.4334 -0.1566  0.3285
 1969TIP3    H2 5872   0.151   2.273   5.091  0.5601  1.1308  0.7521
 1970TIP3   OH2 5873   4.939   5.828   3.981  1.4174  0.1294 -0.7610
 1970TIP3    H1 5874   5.005   5.896   3.971  1.6487  0.0761  0.2673
 1970TIP3    H2 5875   4.880   5.862   4.049  2.0493 -1.0658  0.4401
 1971TIP3   OH2 5876   6.170   1.790   5.579  0.1018  0.9354  0.2453
 1971TIP3    H1 5877   6.241   1.847   5.548 -1.4034  2.0340 -1.4245
 1971TIP3    H2 5878   6.122   1.843   5.642  0.7139  0.2053  1.3523
 1972TIP3   OH2 5879   1.244   6.639   1.236  0.7588 -0.0939 -0.2049
 1972TIP3    H1 5880   1.163   6.665   1.193  0.2103  0.8095  1.3022
 1972TIP3    H2 5881   1.227   6.550   1.267  0.0408  0.3527  0.7432
 1973TIP3   OH2 5882   3.769   2.597   3.036  0.3882 -0.2916  0.9223
 1973TIP3    H1 5883   3.816   2.597   2.953  1.8091  0.2622  1.6965
 1973TIP3    H2 5884   3.814   2.531   3.089 -2.1819 -2.6457  0.4081
 1974TIP3   OH2 5885   3.707   6.710   1.103 -0.2686 -0.3251 -0.1925
 1974TIP3    H1 5886   3.740   6.714   1.013 -0.9918 -0.3474 -0.4674
 1974TIP3    H2 5887   3.625   6.760   1.100  0.8488  1.6875  0.9885
 1975TIP3   OH2 5888   3.379   2.570   4.502  0.5992  0.0937  0.2033
 1975TIP3    H1 5889   3.351   2.538   4.416 -0.6979  3.2977 -0.6760
 1975TIP3    H2 5890   3.299   2.576   4.553  1.0192  0.5851  0.8131
 1976TIP3   OH2 5891   1.586   3.196   5.215  0.0991 -0.0708  0.0237
 1976TIP3    H1 5892   1.552   3.107   5.217  0.8006 -0.3322  1.1533
 1976TIP3    H2 5893   1.668   3.189   5.166 -0.5766  0.2429 -1.1871
 1977TIP3   OH2 5894   7.015   0.071   1.519  0.2371 -0.1990 -0.4922
 1977TIP3    H1 5895   6.995   0.148   1.572 -0.6796  0.0976 -1.2381
 1977TIP3    H2 5896   6.999  -0.003   1.577 -2.2458  0.0518 -0.7121
 1978TIP3   OH2 5897   1.352   2.298   5.837  0.3172 -0.1385 -0.4577
 1978TIP3    H1 5898   1.261   2.269   5.838  0.2073  0.2161 -0.1620
 1978TIP3    H2 5899   1.368   2.321   5.745  0.1067 -0.1923 -0.5099
 1979TIP3   OH2 5900   1.911   5.077   0.714 -0.1911 -0.5524 -0.0125
 1979TIP3    H1 5901   1.976   5.141   0.744  0.6464 -1.3398 -0.1091
 1979TIP3    H2 5902   1.926   5.000   0.769 -1.0173 -0.7589 -0.0688
 1980TIP3   OH2 5903   6.744   4.861   1.873 -0.1335  0.4447  0.6434
 1980TIP3    H1 5904   6.677   4.929   1.872  0.6448  1.2272  0.5545
 1980TIP3    H2 5905   6.731   4.817   1.957 -1.7466 -0.4551 -0.0285
 1981TIP3   OH2 5906   2.611   6.653   2.732  0.0804  0.8143 -0.3159
 1981TIP3    H1 5907   2.664   6.660   2.812 -0.0314 -2.3875  0.1534
 1981TIP3    H2 5908   2.675   6.664   2.661  1.4753 -2.5400  0.2439
 1982TIP3   OH2 5909   3.679   0.179   5.285  0.1930  0.1764  0.0515
 1982TIP3    H1 5910   3.737   0.253   5.263  0.1712 -0.1569 -1.1687
 1982TIP3    H2 5911   3.738   0.110   5.315  0.3578  0.0961 -0.4631
 1983TIP3   OH2 5912   3.302   5.721   2.591 -0.5468 -0.3356 -0.8427
 1983TIP3    H1 5913   3.373   5.766   2.638 -0.8021 -1.0175  0.2346
 1983TIP3    H2 5914   3.276   5.783   2.522  1.0686 -0.0515 -1.2645
 1984TIP3   OH2 5915   5.302   3.041   1.472 -0.2027 -0.2690 -0.4112
 1984TIP3    H1 5916   5.266   3.116   1.426 -0.7010 -0.3859 -0.2163
 1984TIP3    H2 5917   5.375   3.076   1.523 -2.3887  0.7552  2.2604
 1985TIP3   OH2 5918   6.400   0.149   2.425 -0.8541 -0.3639 -0.8765
 1985TIP3    H1 5919   6.343   0.225   2.423 -1.0391 -0.4282  0.6844
 1985TIP3    H2 5920   6.424   0.134   2.334 -0.3274  1.9139 -1.1592
 1986TIP3   OH2 5921   0.966   3.574   1.368 -0.5818  0.2501  0.8581
 1986TIP3    H1 5922   0.901   3.559   1.299 -0.1845  1.1053  0.2947
 1986TIP3    H2 5923   0.944   3.509   1.435  0.8644 -2.7620 -1.3357
 1987TIP3   OH2 5924   6.171   4.866   5.294  0.4540 -1.1014  0.6058
 1987TIP3    H1 5925   6.146   4.951   5.330  0.9232 -1.1593  1.0770
 1987TIP3    H2 5926   6.258   4.880   5.257  0.2029 -1.1826 -0.0239
 1988TIP3   OH2 5927   2.678   1.931   0.756  0.3077 -0.0475 -0.3781
 1988TIP3    H1 5928   2.770   1.921   0.779 -0.2775 -0.7791  1.8557
 1988TIP3    H2 5929   2.635   1.956   0.837 -1.4428  0.5787 -1.4384
 1989TIP3   OH2 5930   4.611   5.778   5.812 -0.1793  0.7124 -0.2327
 1989TIP3    H1 5931   4.696   5.801   5.850  0.3909  1.5491 -1.9353
 1989TIP3    H2 5932   4.561   5.860   5.816 -0.5737  0.4662 -0.1154
 1990TIP3   OH2 5933   1.452   4.623   3.368 -0.2783 -0.3906  0.3386
 1990TIP3    H1 5934   1.472   4.711   3.334  1.5322  0.2350  2.7632
 1990TIP3    H2 5935   1.530   4.572   3.348 -0.1329 -0.6300  1.4918
 1991TIP3   OH2 5936   7.047   4.216   1.415  0.1054  0.0970 -0.1380
 1991TIP3    H1 5937   6.973   4.158   1.397  1.4564 -1.6831 -0.3229
 1991TIP3    H2 5938   7.067   4.256   1.330  0.6848 -1.1086 -0.5922
 1992TIP3   OH2 5939   6.269   6.095   3.793 -0.1503 -0.7178  0.0090
 1992TIP3    H1 5940   6.329   6.021   3.784  0.8856  0.1225 -0.2197
 1992TIP3    H2 5941   6.207   6.068   3.860  0.5589 -1.5691  0.3460
 1993TIP3   OH2 5942   3.536   1.745   0.628  0.1016  0.2453  0.5898
 1993TIP3    H1 5943   3.467   1.751   0.562 -0.6352 -1.6636  1.0954
 1993TIP3    H2 5944   3.616   1.727   0.578 -0.6051 -2.1502  0.1733
 1994TIP3   OH2 5945   0.623   0.306   2.598 -0.6160 -0.5115 -0.2112
 1994TIP3    H1 5946   0.580   0.251   2.532 -0.9498  0.9934 -1.2803
 1994TIP3    H2 5947   0.560   0.374   2.617 -0.3100 -0.6296  1.3080
 1995TIP3   OH2 5948   0.919   0.257   3.871 -0.3086 -0.1330  0.5720
 1995TIP3    H1 5949   0.998   0.231   3.919 -0.1845  0.7100  0.8413
 1995TIP3    H2 5950   0.952   0.308   3.797 -0.5149 -1.2223 -0.2982
 1996TIP3   OH2 5951   4.537   3.110   2.600  0.7094 -0.1982 -0.6275
 1996TIP3    H1 5952   4.475   3.157   2.657  2.5111  0.1635  1.1564
 1996TIP3    H2 5953   4.555   3.171   2.529  0.6585  0.5664  0.0018
 1997TIP3   OH2 5954   2.721   0.835   0.310 -0.1394 -0.2091 -0.3612
 1997TIP3    H1 5955   2.629   0.850   0.334 -0.2968  0.3245 -1.2564
 1997TIP3    H2 5956   2.764   0.918   0.332  0.3833 -0.8615  1.1821
 1998TIP3   OH2 5957   1.977   5.482   2.218  0.0154  0.4941 -0.4982
 1998TIP3    H1 5958   1.934   5.405   2.181 -0.1865 -0.1085  0.9103
 1998TIP3    H2 5959   1.923   5.506   2.294  1.3875  0.5343  0.5188
 1999TIP3   OH2 5960   3.798   3.872   0.156  0.4752 -0.7176 -0.5034
 1999TIP3    H1 5961   3.762   3.916   0.079  1.6829  0.0065 -0.6877
 1999TIP3    H2 5962   3.882   3.916   0.171  2.1177 -3.4332 -1.1263
 2000TIP3   OH2 5963   0.471   1.330   0.478 -0.0865  0.2582  0.8292
 2000TIP3    H1 5964   0.501   1.421   0.488  1.3109  0.2338 -1.9632
 2000TIP3    H2 5965   0.390   1.337   0.427  0.8284 -0.0466 -0.7383
 2001TIP3   OH2 5966   0.568   0.108   0.829  0.2874  0.6227 -0.0983
 2001TIP3    H1 5967   0.493   0.087   0.772  1.0591 -0.0692 -0.8913
 2001TIP3    H2 5968   0.529   0.127   0.914 -0.6702 -1.7027  0.0426
 2002TIP3   OH2 5969   5.818   4.860   0.937 -0.2952 -0.2043  0.1910
 2002TIP3    H1 5970   5.882   4.792   0.953 -0.5569 -0.3866  0.4713
 2002TIP3    H2 5971   5.796   4.893   1.024 -0.0420  0.3573  0.0481
 2003TIP3   OH2 5972   4.447   6.472   1.594 -0.2409 -0.1268  0.5513
 2003TIP3    H1 5973   4.451   6.544   1.656 -1.7697 -0.1664  0.7276
 2003TIP3    H2 5974   4.382   6.500   1.529 -0.7336 -1.2598  0.5338
 2004TIP3   OH2 5975   5.342   3.781   3.160  0.2922 -0.1628  0.1865
 2004TIP3    H1 5976   5.277   3.826   3.214  1.1265  0.4222  0.7111
 2004TIP3    H2 5977   5.302   3.778   3.073 -0.6661 -0.2924  0.6130
 2005TIP3   OH2 5978   2.256   2.932   0.657 -0.4565 -0.4217  0.1341
 2005TIP3    H1 5979   2.169   2.894   0.656 -0.3450 -0.6773  0.0331
 2005TIP3    H2 5980   2.275   2.952   0.565 -0.9947  0.9976  0.3095
 2006TIP3   OH2 5981   3.913   6.038   5.558  0.0267  0.1097 -0.3431
 2006TIP3    H1 5982   3.998   6.065   5.592  0.7397 -0.3549 -1.6710
 2006TIP3    H2 5983   3.859   6.023   5.636  2.0369 -2.4615  0.6975
 2007TIP3   OH2 5984   1.980   0.711   1.562 -0.0926  0.4911  0.5869
 2007TIP3    H1 5985   2.059   0.656   1.566 -0.9237 -0.7829 -0.1055
 2007TIP3    H2 5986   2.013   0.798   1.540  1.0778 -0.1262 -0.1825
 2008TIP3   OH2 5987   5.316   4.713   0.494 -0.3642  0.6273  0.1279
 2008TIP3    H1 5988   5.315   4.656   0.570 -2.5670 -0.1453 -0.3919
 2008TIP3    H2 5989   5.248   4.677   0.436  1.1041  1.2696 -2.1323
 2009TIP3   OH2 5990   0.758   4.917   3.780 -0.2631  0.7390 -0.0198
 2009TIP3    H1 5991   0.845   4.888   3.807 -0.5006 -0.5111 -0.5260
 2009TIP3    H2 5992   0.746   5.001   3.823  1.2071  0.9366  0.0342
 2010TIP3   OH2 5993   6.496   3.263   0.336  0.6444 -0.1058 -0.6025
 2010TIP3    H1 5994   6.561   3.199   0.363  1.0793  0.5198 -0.1413
 2010TIP3    H2 5995   6.519   3.284   0.246 -0.2858 -1.5521 -1.2097
 2011TIP3   OH2 5996   2.835   5.098   5.749 -0.3742 -0.3101 -0.3185
 2011TIP3    H1 5997   2.901   5.080   5.682  0.0691 -0.0280  0.0342
 2011TIP3    H2 5998   2.765   5.036   5.730 -0.7382  0.4731 -1.7061
 2012TIP3   OH2 5999   6.018   0.423   3.062  0.4510 -0.4488 -0.3074
 2012TIP3    H1 6000   6.099   0.449   3.018  0.0026 -0.9971 -1.5055
 2012TIP3    H2 6001   6.005   0.489   3.130  1.7658 -0.2113 -0.2740
 2013TIP3   OH2 6002   6.201   5.808   0.928 -0.0081  0.5058  0.2950
 2013TIP3    H1 6003   6.180   5.892   0.968  1.6969  0.9960  0.2501
 2013TIP3    H2 6004   6.155   5.809   0.844  0.4129  1.6508  0.0498
 2014TIP3   OH2 6005   2.824   2.149   0.931  0.4403  0.9069 -0.2011
 2014TIP3    H1 6006   2.880   2.076   0.906  0.7182  0.7380  0.8772
 2014TIP3    H2 6007   2.757   2.110   0.986  0.0581  1.3312 -0.3546
 2015TIP3   OH2 6008   0.539   0.927   1.211 -0.4122  0.2452 -0.1890
 2015TIP3    H1 6009   0.461   0.874   1.195 -1.1272  1.1088  0.3293
 2015TIP3    H2 6010   0.612   0.866   1.197 -1.1420 -0.4467 -1.2028
 2016TIP3   OH2 6011   0.118   4.228   3.354  0.1570 -0.4764 -0.2841
 2016TIP3    H1 6012   0.047   4.293   3.360 -0.0316 -0.7935  1.2505
 2016TIP3    H2 6013   0.195   4.274   3.388  0.8817  0.0532 -2.4622
 2017TIP3   OH2 6014   0.308   1.667   3.689 -0.5448 -0.3869 -0.3758
 2017TIP3    H1 6015   0.236   1.636   3.745 -0.0159 -0.3431  0.3499
 2017TIP3    H2 6016   0.308   1.762   3.703 -0.0920 -0.4309 -0.0472
 2018TIP3   OH2 6017   6.745   0.198   1.021 -0.0949  0.0410  0.1386
 2018TIP3    H1 6018   6.673   0.239   0.972  0.8934  0.6122 -0.9053
 2018TIP3    H2 6019   6.770   0.264   1.085 -0.0065  0.1482 -0.0056
 2019TIP3   OH2 6020   2.340   4.018   2.534 -0.2242 -0.1685  0.0136
 2019TIP3    H1 6021   2.407   4.015   2.466 -0.3574  0.5568 -0.1599
 2019TIP3    H2 6022   2.341   4.109   2.565  2.4273 -1.1837  3.6179
 2020TIP3   OH2 6023   7.143   4.236   4.835  0.1919  0.0395 -0.1553
 2020TIP3    H1 6024   7.087   4.159   4.846  0.8207 -0.2429  1.3477
 2020TIP3    H2 6025   7.225   4.211   4.878  0.2255  1.7206  0.8464
 2021TIP3   OH2 6026   0.136   4.393   0.610 -0.4768  0.2250  0.2180
 2021TIP3    H1 6027   0.125   4.321   0.547 -0.1897  1.9251 -1.9159
 2021TIP3    H2 6028   0.225   4.425   0.594 -0.1730  0.3377  1.9657
 2022TIP3   OH2 6029   1.973   6.215   2.403  0.0536  0.0472  0.1377
 2022TIP3    H1 6030   2.060   6.220   2.363  0.1643  0.5000  0.4289
 2022TIP3    H2 6031   1.946   6.124   2.391  1.2921 -0.5387  1.5860
 2023TIP3   OH2 6032   0.350   3.857   0.341  0.0482 -0.3918  0.5693
 2023TIP3    H1 6033   0.442   3.834   0.357  1.1690  2.4241 -1.0669
 2023TIP3    H2 6034   0.333   3.827   0.252 -0.1757  0.1815  0.4117
 2024TIP3   OH2 6035   3.319   3.407   3.305  0.4681  0.5744 -0.7185
 2024TIP3    H1 6036   3.377   3.429   3.379 -0.3321 -1.4638  0.5737
 2024TIP3    H2 6037   3.234   3.393   3.345 -0.6696  2.1661 -2.4373
 2025TIP3   OH2 6038   0.851   0.205   2.063 -0.4075  0.0964 -0.2176
 2025TIP3    H1 6039   0.859   0.111   2.047  0.0404  0.0265  0.3850
 2025TIP3    H2 6040   0.940   0.239   2.048 -0.6620  0.4971 -0.8708
 2026TIP3   OH2 6041   3.978   5.796   0.224 -0.1941 -0.7757 -0.1488
 2026TIP3    H1 6042   3.991   5.891   0.229 -1.2117 -0.5462 -1.2420
 2026TIP3    H2 6043   4.015   5.762   0.305 -0.5398  0.6445  0.6396
 2027TIP3   OH2 6044   0.350   0.245   1.940  0.1214 -0.2089  0.1346
 2027TIP3    H1 6045   0.417   0.180   1.962  0.2311 -0.0823  0.1765
 2027TIP3    H2 6046   0.287   0.241   2.012 -0.0501 -0.5095 -0.0327
 2028TIP3   OH2 6047   0.354   1.612   3.297 -0.4982  0.0901  0.2180
 2028TIP3    H1 6048   0.266   1.598   3.332  0.0093  2.3576  2.7362
 2028TIP3    H2 6049   0.412   1.561   3.353 -0.1552 -1.6817 -1.6479
 2029TIP3   OH2 6050   6.983   0.410   2.159 -0.2679  0.2239 -0.4265
 2029TIP3    H1 6051   7.029   0.446   2.235  0.8002 -0.2501 -0.8321
 2029TIP3    H2 6052   6.894   0.396   2.190  0.1126  0.1727  0.7052
 2030TIP3   OH2 6053   1.944   3.621   4.084 -0.6546 -0.0084  0.1893
 2030TIP3    H1 6054   1.962   3.695   4.026 -1.5117 -0.5516 -0.8202
 2030TIP3    H2 6055   1.954   3.544   4.028 -2.5546 -0.4986  0.4564
 2031TIP3   OH2 6056   2.529   5.275   4.597  0.4473  0.4793 -0.5378
 2031TIP3    H1 6057   2.590   5.335   4.554  1.0993  0.4950  0.3584
 2031TIP3    H2 6058   2.520   5.310   4.686  0.4129 -0.4414 -0.1655
 2032TIP3   OH2 6059   0.497   5.734   5.210 -0.6196  0.0208 -0.3319
 2032TIP3    H1 6060   0.499   5.830   5.206 -1.3769  0.0219 -0.8397
 2032TIP3    H2 6061   0.582   5.707   5.174 -0.9178  0.4766 -1.4371
 2033TIP3   OH2 6062   5.687   2.424   1.211 -0.1541  0.4194  0.4583
 2033TIP3    H1 6063   5.779   2.407   1.228  0.0258  0.1054 -0.7472
 2033TIP3    H2 6064   5.643   2.341   1.226 -0.0908  0.3175  0.1029
 2034TIP3   OH2 6065   0.825   0.066   3.295  0.2491 -0.3057  0.4827
 2034TIP3    H1 6066   0.809  -0.028   3.297  0.4573 -0.4127 -1.1241
 2034TIP3    H2 6067   0.918   0.074   3.276  0.4455  0.2465  1.6016
 2035TIP3   OH2 6068   1.697   3.277   3.644 -0.2113  0.5633  0.0440
 2035TIP3    H1 6069   1.601   3.275   3.644 -0.2086 -0.0768 -0.4482
 2035TIP3    H2 6070   1.721   3.219   3.572  0.5410  1.1365 -0.1742
 2036TIP3   OH2 6071   1.227   3.520   2.847  0.3680 -0.0383 -0.0474
 2036TIP3    H1 6072   1.173   3.553   2.776  0.9985  1.4239  0.1089
 2036TIP3    H2 6073   1.178   3.538   2.926  0.2234 -0.5252 -0.0194
 2037TIP3   OH2 6074   5.241   1.683   2.460 -0.0726  0.1863  0.0957
 2037TIP3    H1 6075   5.248   1.588   2.452 -0.5629  0.2562 -1.5162
 2037TIP3    H2 6076   5.326   1.710   2.494 -0.0141 -0.8429  0.8193
 2038TIP3   OH2 6077   3.755   2.593   4.364 -0.0979 -0.1588  0.1506
 2038TIP3    H1 6078   3.786   2.682   4.381  0.4255 -0.1159 -0.9753
 2038TIP3    H2 6079   3.696   2.602   4.290  1.0893 -0.9367 -0.9253
 2039TIP3   OH2 6080   3.294   4.556   3.232  0.0978  0.9095  0.4610
 2039TIP3    H1 6081   3.256   4.517   3.310 -1.3461  2.3679  0.5426
 2039TIP3    H2 6082   3.347   4.629   3.265 -0.9355  1.8575  0.0958
 2040TIP3   OH2 6083   6.295   0.462   3.641 -0.2071 -0.1189 -0.0034
 2040TIP3    H1 6084   6.314   0.368   3.638  0.6378  0.0299  0.5094
 2040TIP3    H2 6085   6.373   0.501   3.679 -0.3529  0.8526 -0.6714
 2041TIP3   OH2 6086   7.037   1.393   3.119  0.2218  0.1797  0.1452
 2041TIP3    H1 6087   7.010   1.302   3.105 -0.5359  0.4619 -0.3290
 2041TIP3    H2 6088   6.963   1.445   3.086  0.8691  0.9764 -0.0899
 2042TIP3   OH2 6089   3.473   5.583   0.036 -0.3835  0.0785  1.0566
 2042TIP3    H1 6090   3.461   5.611   0.127  0.0026 -1.1482  1.5019
 2042TIP3    H2 6091   3.389   5.598  -0.006 -1.3725 -1.7309  2.2824
 2043TIP3   OH2 6092   0.726   4.721   0.459  0.1418  0.5576 -0.7726
 2043TIP3    H1 6093   0.737   4.641   0.408 -0.5697  0.0448 -0.1507
 2043TIP3    H2 6094   0.752   4.696   0.548 -2.3737  0.2968 -0.0321
 2044TIP3   OH2 6095   2.981   4.011   2.685 -0.1857  0.3659  0.4614
 2044TIP3    H1 6096   2.902   3.972   2.648  0.4250  0.3409 -0.8888
 2044TIP3    H2 6097   3.053   3.961   2.646  0.5094  0.3933  1.6607
 2045TIP3   OH2 6098   4.379   2.057   0.564  0.3504 -0.2800 -0.1961
 2045TIP3    H1 6099   4.438   1.982   0.556  0.0272 -0.4476 -1.1234
 2045TIP3    H2 6100   4.393   2.107   0.484 -1.0821 -0.5686 -0.6659
 2046TIP3   OH2 6101   1.694   0.826   5.877  0.8098 -0.5759 -0.1129
 2046TIP3    H1 6102   1.767   0.887   5.883  0.0628  0.3590 -0.2678
 2046TIP3    H2 6103   1.709   0.778   5.796  1.8776 -1.2497  0.4573
 2047TIP3   OH2 6104   3.776   0.278   3.787  0.0450  0.2301  0.7291
 2047TIP3    H1 6105   3.853   0.336   3.783 -1.6327  2.6415  0.9110
 2047TIP3    H2 6106   3.756   0.270   3.880 -0.4106  0.3225  0.6424
 2048TIP3   OH2 6107   4.604   2.031   4.531  0.6254  0.1764 -0.3710
 2048TIP3    H1 6108   4.681   2.029   4.475 -0.0097  0.4541 -1.2715
 2048TIP3    H2 6109   4.531   2.048   4.472 -0.2268 -0.7569  0.3797
 2049TIP3   OH2 6110   1.202   6.215   3.383  0.0033 -0.0800  0.7167
 2049TIP3    H1 6111   1.202   6.181   3.473  1.8907 -0.7447  0.5106
 2049TIP3    H2 6112   1.124   6.176   3.343  0.5320 -1.8646  1.3333
 2050TIP3   OH2 6113   2.239   0.931   5.750 -0.6793 -0.7606  0.2374
 2050TIP3    H1 6114   2.222   0.979   5.668 -3.2505 -1.9325 -0.0078
 2050TIP3    H2 6115   2.229   0.998   5.818 -1.3654 -0.3330 -0.2601
 2051TIP3   OH2 6116   5.011   5.981   2.525 -0.5033  0.5353  0.3516
 2051TIP3    H1 6117   5.021   6.072   2.554 -1.1657  0.8577 -0.3946
 2051TIP3    H2 6118   5.007   5.930   2.606 -0.6959  1.2312  0.7897
 2052TIP3   OH2 6119   1.080   5.674   5.076 -0.1927 -0.5323  0.2249
 2052TIP3    H1 6120   1.151   5.693   5.137 -0.4380  0.0846  0.3285
 2052TIP3    H2 6121   1.019   5.747   5.087 -0.6090 -0.8084 -0.2096
 2053TIP3   OH2 6122   0.021   4.891   5.522  0.3977 -0.2708  0.3398
 2053TIP3    H1 6123   0.092   4.946   5.489  0.4674 -0.5720 -0.0114
 2053TIP3    H2 6124   0.026   4.811   5.470 -1.0514  0.2356 -0.6612
 2054TIP3   OH2 6125   2.938   6.199   1.602  0.1591 -0.3583  0.3536
 2054TIP3    H1 6126   2.988   6.257   1.546 -1.1172  0.2473 -0.1992
 2054TIP3    H2 6127   2.952   6.232   1.690  0.7906 -0.2562  0.2179
 2055TIP3   OH2 6128   2.592   6.187   4.105  0.2714 -0.0531 -0.5018
 2055TIP3    H1 6129   2.659   6.256   4.114  0.4787  0.0075 -2.1605
 2055TIP3    H2 6130   2.640   6.106   4.122  0.5957  0.0520 -0.8783
 2056TIP3   OH2 6131   4.104   5.860   4.024  0.1039 -0.1593  0.1123
 2056TIP3    H1 6132   4.115   5.829   4.113 -0.1402  1.2724  0.6717
 2056TIP3    H2 6133   4.139   5.790   3.969  1.4651 -0.5074  1.3788
 2057TIP3   OH2 6134   3.478   5.621   5.085  0.1163  0.3245 -0.1112
 2057TIP3    H1 6135   3.428   5.636   5.004 -1.0784  1.1513  0.7479
 2057TIP3    H2 6136   3.553   5.680   5.077 -0.2428  0.7494 -0.4188
 2058TIP3   OH2 6137   6.197   1.130   0.834 -0.0314  0.4022 -0.1809
 2058TIP3    H1 6138   6.237   1.210   0.870  0.4732 -0.0116  0.1907
 2058TIP3    H2 6139   6.271   1.072   0.817 -0.3778  0.1125 -0.6981
 2059TIP3   OH2 6140   0.910   6.397   4.447 -0.3748 -0.1675 -0.0588
 2059TIP3    H1 6141   0.990   6.381   4.498  0.0639  0.1664 -0.6300
 2059TIP3    H2 6142   0.917   6.488   4.420 -1.3707  0.1182  0.5937
 2060TIP3   OH2 6143   4.383   2.633   0.521  0.3031 -0.1175 -0.1623
 2060TIP3    H1 6144   4.462   2.685   0.538 -2.1592  3.6383  1.1154
 2060TIP3    H2 6145   4.370   2.638   0.427  0.5597  0.9922 -0.1534
 2061TIP3   OH2 6146   6.598   0.963   1.494  0.1866 -0.8056  0.6909
 2061TIP3    H1 6147   6.642   0.986   1.412 -1.6607 -0.5433 -0.2786
 2061TIP3    H2 6148   6.579   1.048   1.535  1.4738 -0.9447  1.6296
 2062TIP3   OH2 6149   3.119   3.957   1.052 -0.3369 -0.0285 -0.3572
 2062TIP3    H1 6150   3.142   3.913   1.133 -0.6322 -0.0160 -0.2646
 2062TIP3    H2 6151   3.065   3.893   1.005  2.5444 -1.4051 -2.0793
 2063TIP3   OH2 6152   6.597   0.481   2.136 -0.1185 -0.0203  0.3095
 2063TIP3    H1 6153   6.604   0.463   2.043  1.7596  0.2450  0.3601
 2063TIP3    H2 6154   6.504   0.493   2.151 -0.4921 -0.4158 -1.4580
 2064TIP3   OH2 6155   4.659   1.931   3.257  0.4268  0.3681 -0.0805
 2064TIP3    H1 6156   4.631   1.903   3.170 -0.2882  0.9861 -0.0664
 2064TIP3    H2 6157   4.590   1.900   3.315 -1.3470  3.5255 -0.2674
 2065TIP3   OH2 6158   1.060   1.643   5.503 -0.5914  0.4798  0.1501
 2065TIP3    H1 6159   1.102   1.657   5.588  2.7512 -2.7281 -0.7180
 2065TIP3    H2 6160   1.116   1.688   5.440 -0.5652 -0.7099 -0.7120
 2066TIP3   OH2 6161   4.623   6.456   4.395 -0.1464  0.0456  0.1684
 2066TIP3    H1 6162   4.622   6.540   4.350  0.4282  0.4928  0.9798
 2066TIP3    H2 6163   4.713   6.424   4.384  0.0398  0.2321  1.1321
 2067TIP3   OH2 6164   3.472   1.095   0.291 -0.3850  0.3178 -0.1933
 2067TIP3    H1 6165   3.415   1.027   0.327 -0.7717  0.1129 -1.1609
 2067TIP3    H2 6166   3.550   1.092   0.346 -1.2249  0.4882  1.0491
 2068TIP3   OH2 6167   1.717   0.081   5.462  0.1140  0.6915 -0.0338
 2068TIP3    H1 6168   1.755   0.108   5.378 -1.6731 -0.1784 -1.1902
 2068TIP3    H2 6169   1.735  -0.013   5.467  1.8665  1.0581  1.5244
 2069TIP3   OH2 6170   3.630   6.250   5.309  0.0826 -0.5348  0.3701
 2069TIP3    H1 6171   3.706   6.298   5.338 -0.1196 -0.0814  0.1607
 2069TIP3    H2 6172   3.582   6.312   5.254 -0.3025 -0.8958  0.2933
 2070TIP3   OH2 6173   4.910   0.911   2.899  0.1736 -0.3607 -0.5259
 2070TIP3    H1 6174   4.949   0.951   2.977  0.7995 -0.4195 -0.7984
 2070TIP3    H2 6175   4.986   0.883   2.846 -0.2162 -2.2006 -0.1889
 2071TIP3   OH2 6176   4.244   4.087   5.390 -0.1063 -0.3642  0.0158
 2071TIP3    H1 6177   4.328   4.131   5.397 -0.2783 -0.1053  0.4477
 2071TIP3    H2 6178   4.179   4.157   5.398 -0.3716 -0.6410  0.2941
 2072TIP3   OH2 6179   5.285   6.213   3.568  0.1669 -0.2930 -0.2237
 2072TIP3    H1 6180   5.375   6.199   3.539 -0.7378 -2.4970 -2.2134
 2072TIP3    H2 6181   5.238   6.134   3.542 -2.6159  1.2523 -0.2641
 2073TIP3   OH2 6182   6.328   3.835   3.458  0.5201  0.4400 -0.4421
 2073TIP3    H1 6183   6.275   3.759   3.433  0.7002  0.6957 -1.6467
 2073TIP3    H2 6184   6.415   3.817   3.423  0.8337  0.7419  0.1633
 2074TIP3   OH2 6185   1.366   3.777   3.865 -0.4251 -0.3216 -0.4255
 2074TIP3    H1 6186   1.340   3.806   3.778 -0.4730 -0.0125 -0.3103
 2074TIP3    H2 6187   1.379   3.858   3.914  0.0948 -0.4870 -0.2873
 2075TIP3   OH2 6188   0.126   2.282   5.391  0.0422 -0.0775 -0.1646
 2075TIP3    H1 6189   0.178   2.329   5.456 -0.6436  0.1984  0.1875
 2075TIP3    H2 6190   0.035   2.304   5.411 -0.2761 -1.2408 -0.2324
 2076TIP3   OH2 6191   3.736   6.601   2.243 -0.1862 -0.0585  0.0379
 2076TIP3    H1 6192   3.642   6.584   2.246  0.2787 -3.0122 -0.0398
 2076TIP3    H2 6193   3.764   6.572   2.156  0.6710  1.9403 -0.4279
 2077TIP3   OH2 6194   5.713   0.139   0.682  0.2236  0.7251 -0.2655
 2077TIP3    H1 6195   5.667   0.156   0.600 -0.7488  1.9780  0.5025
 2077TIP3    H2 6196   5.645   0.107   0.741  1.2817 -2.3329 -0.4940
 2078TIP3   OH2 6197   4.387   1.151   2.298  0.7379  0.1432  0.8156
 2078TIP3    H1 6198   4.401   1.231   2.248  0.3010  0.4264  1.1406
 2078TIP3    H2 6199   4.314   1.171   2.356 -0.7442 -1.1200 -0.4914
 2079TIP3   OH2 6200   1.159   5.836   0.769  0.1070 -0.1147  0.0327
 2079TIP3    H1 6201   1.213   5.878   0.836 -1.1597  1.2367  0.2497
 2079TIP3    H2 6202   1.213   5.764   0.735  1.9111  1.0273  0.4146
 2080TIP3   OH2 6203   0.707   2.086   2.425  0.5455  0.2714 -0.0041
 2080TIP3    H1 6204   0.787   2.032   2.421  0.7663  0.6508 -1.3367
 2080TIP3    H2 6205   0.729   2.155   2.487  0.4017 -0.9013  1.4237
 2081TIP3   OH2 6206   2.484   0.917   5.282  0.3102  0.3324 -0.2837
 2081TIP3    H1 6207   2.569   0.901   5.242  0.2069  0.9998 -0.7783
 2081TIP3    H2 6208   2.477   1.012   5.289  0.1909  0.2325  1.0430
 2082TIP3   OH2 6209   3.321   6.234   0.149 -0.8665  0.3246  0.3004
 2082TIP3    H1 6210   3.264   6.181   0.092  0.3417 -0.0049 -0.6487
 2082TIP3    H2 6211   3.390   6.173   0.175  0.5958  1.4093 -0.8686
 2083TIP3   OH2 6212   3.003   3.256   1.513  0.2251  0.1163  0.2873
 2083TIP3    H1 6213   3.017   3.319   1.584 -2.0532 -1.2710  2.1126
 2083TIP3    H2 6214   2.978   3.309   1.438  1.7369  1.5551  0.7338
 2084TIP3   OH2 6215   6.308   3.986   1.454  0.1508 -0.1674 -0.0923
 2084TIP3    H1 6216   6.350   4.053   1.507 -0.2451 -0.9589  1.2762
 2084TIP3    H2 6217   6.232   4.030   1.416 -0.6269 -0.0199  1.5117
 2085TIP3   OH2 6218   0.202   6.617   0.821 -0.1927 -0.4646  0.1989
 2085TIP3    H1 6219   0.222   6.701   0.861  1.7803 -0.7703 -0.0363
 2085TIP3    H2 6220   0.166   6.564   0.892 -0.5204  0.2543  0.5771
 2086TIP3   OH2 6221   7.063   6.810   3.240  0.0671  0.3894  0.1751
 2086TIP3    H1 6222   7.031   6.721   3.233 -2.2354  1.1710 -0.2681
 2086TIP3    H2 6223   7.128   6.808   3.310  0.5238 -1.7151 -0.2578
 2087TIP3   OH2 6224   5.159   2.769   2.781  0.0175 -0.2718 -0.0720
 2087TIP3    H1 6225   5.136   2.731   2.696 -1.5911  0.4483  0.0119
 2087TIP3    H2 6226   5.253   2.753   2.790  0.3066  0.0239 -2.1849
 2088TIP3   OH2 6227   2.178   5.042   0.996  0.8787 -0.4434  0.2611
 2088TIP3    H1 6228   2.243   5.111   0.981  1.5275 -1.2717 -0.9581
 2088TIP3    H2 6229   2.137   5.028   0.911  1.0453 -1.8247  0.3813
 2089TIP3   OH2 6230   1.785   0.610   2.146 -0.1090  0.6575 -0.1998
 2089TIP3    H1 6231   1.739   0.528   2.158  0.6923  0.1732 -0.3405
 2089TIP3    H2 6232   1.837   0.621   2.226 -0.7239  1.3701  0.1102
 2090TIP3   OH2 6233   2.882   0.042   3.159  0.8482 -0.0242 -0.0891
 2090TIP3    H1 6234   2.881   0.135   3.184  0.5685 -0.2212  0.6468
 2090TIP3    H2 6235   2.851  -0.004   3.237  0.1427 -0.6719 -0.7498
 2091TIP3   OH2 6236   1.594   6.290   5.260  0.1036  0.3304 -0.0924
 2091TIP3    H1 6237   1.637   6.215   5.218  0.7420  0.6905 -0.1045
 2091TIP3    H2 6238   1.609   6.363   5.201 -1.7464  0.2056 -0.7788
 2092TIP3   OH2 6239   4.415   2.231   3.075  0.2890  0.1105  0.1163
 2092TIP3    H1 6240   4.335   2.242   3.127 -1.5587  0.6041 -2.5625
 2092TIP3    H2 6241   4.395   2.158   3.017  2.4486 -0.7759  0.4225
 2093TIP3   OH2 6242   1.949   2.666   1.037  0.2898  0.8301  0.0680
 2093TIP3    H1 6243   2.043   2.654   1.028  0.0721 -0.3653 -0.9589
 2093TIP3    H2 6244   1.933   2.755   1.003  0.9881  0.8603 -0.1971
 2094TIP3   OH2 6245   1.941   2.091   4.055 -0.1595 -0.3477 -0.2254
 2094TIP3    H1 6246   1.911   2.104   4.145 -0.2153  0.3621 -0.3410
 2094TIP3    H2 6247   1.861   2.086   4.003 -0.1524 -1.4939 -0.1529
 2095TIP3   OH2 6248   5.626   6.436   3.531 -0.3594  0.3768  0.0866
 2095TIP3    H1 6249   5.680   6.441   3.452 -0.2377  0.4412  0.1730
 2095TIP3    H2 6250   5.590   6.348   3.530  0.3338  0.0850  0.4104
 2096TIP3   OH2 6251   6.604   4.628   0.368 -0.6732 -0.0100  0.3131
 2096TIP3    H1 6252   6.680   4.575   0.392 -1.1167 -0.5122  0.6332
 2096TIP3    H2 6253   6.541   4.565   0.331 -0.7350  0.4717 -0.4443
 2097TIP3   OH2 6254   4.914   4.619   4.537 -0.0850  0.3912 -0.1836
 2097TIP3    H1 6255   4.899   4.658   4.451 -0.6609  0.1635 -0.1922
 2097TIP3    H2 6256   4.827   4.612   4.576 -0.1286 -1.7657 -0.5675
 2098TIP3   OH2 6257   1.699   2.810   5.060  0.5103 -0.6800 -0.7612
 2098TIP3    H1 6258   1.686   2.879   4.995  2.5482 -1.1020 -1.7073
 2098TIP3    H2 6259   1.700   2.729   5.010 -1.2826 -1.3823  0.2646
 2099TIP3   OH2 6260   0.738   3.810   0.028 -0.5135  0.2499 -0.5667
 2099TIP3    H1 6261   0.791   3.740  -0.010 -0.6413  0.0055 -0.3068
 2099TIP3    H2 6262   0.797   3.856   0.087 -0.5839 -0.0274 -0.2708
 2100TIP3   OH2 6263   0.655   1.772   2.127  0.1671  0.0411 -0.2363
 2100TIP3    H1 6264   0.646   1.862   2.158 -2.0384  0.2531 -1.2805
 2100TIP3    H2 6265   0.637   1.718   2.204  1.0633  0.4920  0.2928
 2101TIP3   OH2 6266   3.455   2.582   0.984 -0.5859  0.8260  0.1595
 2101TIP3    H1 6267   3.462   2.540   1.070  1.9657 -0.8012 -0.7293
 2101TIP3    H2 6268   3.476   2.673   1.000 -0.1565  0.5473  1.2603
 2102TIP3   OH2 6269   5.227   4.411   4.933 -0.4560  0.2827  0.5507
 2102TIP3    H1 6270   5.157   4.348   4.949  0.2894 -0.4680  0.9733
 2102TIP3    H2 6271   5.187   4.480   4.880 -2.2183  1.2482  2.9627
 2103TIP3   OH2 6272   7.191   4.536   1.492 -0.2430  0.2514 -0.0525
 2103TIP3    H1 6273   7.097   4.533   1.511  0.0836 -1.5183  1.5603
 2103TIP3    H2 6274   7.197   4.521   1.398 -1.5143 -2.9192  0.2432
 2104TIP3   OH2 6275   5.583   2.559   2.082  0.2052 -0.0747  0.3634
 2104TIP3    H1 6276   5.571   2.653   2.070 -1.7060 -0.3326  0.0059
 2104TIP3    H2 6277   5.675   2.550   2.109  0.1611  1.9700  1.4140
 2105TIP3   OH2 6278   3.104   5.876   4.819  0.4539  0.2310  0.2671
 2105TIP3    H1 6279   3.074   5.933   4.748 -1.5488 -2.8442 -1.6307
 2105TIP3    H2 6280   3.190   5.846   4.791 -0.6263 -1.5526 -1.4374
 2106TIP3   OH2 6281   4.306   0.033   0.930  0.1788  0.2068 -0.7122
 2106TIP3    H1 6282   4.369   0.078   0.874 -0.1683 -0.0747 -1.3358
 2106TIP3    H2 6283   4.261   0.104   0.976 -0.3109  0.5075 -1.6318
 2107TIP3   OH2 6284   2.003   4.334   0.577 -0.1243  0.3658 -0.0525
 2107TIP3    H1 6285   1.970   4.393   0.509 -1.3439  1.4032  1.3624
 2107TIP3    H2 6286   2.071   4.384   0.622 -1.8252  1.1644  1.7757
 2108TIP3   OH2 6287   5.880   6.349   2.134  0.0631 -0.1882  0.3739
 2108TIP3    H1 6288   5.806   6.405   2.156  0.0178 -0.3610  0.6613
 2108TIP3    H2 6289   5.866   6.326   2.042  1.0376  1.7614 -0.3233
 2109TIP3   OH2 6290   5.969   3.704   4.998 -0.1113  0.5543  0.5964
 2109TIP3    H1 6291   6.037   3.762   4.963  0.0573  0.6489  1.0745
 2109TIP3    H2 6292   5.897   3.710   4.935 -0.7103  2.4420  1.3786
 2110TIP3   OH2 6293   3.109   4.610   3.456  0.4868  0.4326 -0.1354
 2110TIP3    H1 6294   3.046   4.625   3.527  1.4431  0.1969  0.7979
 2110TIP3    H2 6295   3.066   4.643   3.378 -0.1541  1.7349  0.7419
 2111TIP3   OH2 6296   2.139   6.639   5.427 -0.0368  0.1034 -0.3001
 2111TIP3    H1 6297   2.205   6.706   5.440 -1.8072  1.9850 -0.6024
 2111TIP3    H2 6298   2.180   6.576   5.367  1.4158  1.2862 -0.5981
 2112TIP3   OH2 6299   2.390   4.839   4.382  0.2308  0.9218  0.2772
 2112TIP3    H1 6300   2.361   4.750   4.400  1.1073  0.8036  1.2008
 2112TIP3    H2 6301   2.360   4.857   4.292 -1.9624  0.5510  0.8898
 2113TIP3   OH2 6302   0.362   4.733   4.653 -0.0713 -0.1906  0.1167
 2113TIP3    H1 6303   0.298   4.728   4.582 -0.0912 -0.1534  0.1321
 2113TIP3    H2 6304   0.343   4.657   4.708 -0.4243  0.0966  0.3931
 2114TIP3   OH2 6305   6.962   1.481   0.065  0.3740  0.6862  0.0778
 2114TIP3    H1 6306   6.942   1.531   0.144 -3.0876  1.3060 -1.0074
 2114TIP3    H2 6307   6.913   1.400   0.075  1.7996 -0.2868 -0.4508
 2115TIP3   OH2 6308   1.128   6.502   3.945  0.2643  0.0446  0.1725
 2115TIP3    H1 6309   1.162   6.505   3.856 -1.1722  1.1299 -0.3788
 2115TIP3    H2 6310   1.199   6.537   3.999  0.9465 -0.1130 -0.6074
 2116TIP3   OH2 6311   6.060   1.331   1.293 -0.0355 -0.4402  0.2230
 2116TIP3    H1 6312   6.120   1.386   1.244 -2.0696 -0.1338 -2.1157
 2116TIP3    H2 6313   6.018   1.391   1.355 -1.3127  0.4632 -1.4311
 2117TIP3   OH2 6314   1.606   1.635   0.974  0.4160  0.3185  0.4667
 2117TIP3    H1 6315   1.515   1.661   0.964 -0.2096 -1.6330  0.6888
 2117TIP3    H2 6316   1.626   1.651   1.066 -0.8451 -2.3973  1.3222
 2118TIP3   OH2 6317   0.248   1.762   1.038  0.1832  0.1940  0.1654
 2118TIP3    H1 6318   0.296   1.771   1.121  1.9948  1.2384 -0.9352
 2118TIP3    H2 6319   0.192   1.839   1.034 -0.7514 -0.4132  0.8824
 2119TIP3   OH2 6320   0.711   4.003   5.766  0.2521 -0.2233 -0.0934
 2119TIP3    H1 6321   0.764   3.953   5.828  1.5397  0.0397 -0.9585
 2119TIP3    H2 6322   0.766   4.077   5.740 -0.4960  0.0122 -1.0756
 2120TIP3   OH2 6323   0.969   5.103   5.433 -0.6290 -0.0004  0.0677
 2120TIP3    H1 6324   0.934   5.115   5.521 -1.4426  0.4876 -0.3121
 2120TIP3    H2 6325   0.897   5.128   5.375  0.0253  0.0576 -0.7373
 2121TIP3   OH2 6326   5.878   3.685   3.297  0.5190 -0.2123 -0.0021
 2121TIP3    H1 6327   5.851   3.763   3.346  0.0302 -0.3158 -0.1103
 2121TIP3    H2 6328   5.969   3.670   3.325  0.0304 -0.6660  1.3902
 2122TIP3   OH2 6329   4.381   3.968   1.728  0.1395  0.4929 -0.4803
 2122TIP3    H1 6330   4.471   3.949   1.754  0.0581  2.5961  1.7437
 2122TIP3    H2 6331   4.346   3.884   1.696  2.4796 -0.6464 -0.2280
 2123TIP3   OH2 6332   4.185   0.319   1.091 -0.2643 -0.0950 -0.6344
 2123TIP3    H1 6333   4.273   0.355   1.077  0.0776 -1.3760 -1.9673
 2123TIP3    H2 6334   4.190   0.275   1.176 -0.5593  2.4580  0.8222
 2124TIP3   OH2 6335   2.609   2.597   0.306  0.0086  0.3697  0.3188
 2124TIP3    H1 6336   2.687   2.548   0.329 -0.3646 -1.1658 -1.4779
 2124TIP3    H2 6337   2.603   2.666   0.373  0.2443 -2.2818  3.3203
 2125TIP3   OH2 6338   5.642   6.300   1.265 -0.3271 -0.0728 -0.1719
 2125TIP3    H1 6339   5.714   6.278   1.324 -1.0181 -0.5665  0.4947
 2125TIP3    H2 6340   5.582   6.226   1.270 -2.6657  1.7770  2.0362
 2126TIP3   OH2 6341   4.045   2.555   0.915  0.0242 -0.2928  1.0091
 2126TIP3    H1 6342   4.103   2.575   0.841 -0.3183  2.2951  1.3279
 2126TIP3    H2 6343   4.069   2.466   0.941  3.3667  0.3717  0.6718
 2127TIP3   OH2 6344   4.022   2.811   1.836 -0.2639  0.3016 -0.1491
 2127TIP3    H1 6345   3.951   2.874   1.849 -2.3817 -1.4493 -2.3019
 2127TIP3    H2 6346   3.987   2.729   1.871  1.2462 -0.3542 -0.1086
 2128TIP3   OH2 6347   6.797   2.551   3.247 -0.1329 -0.4227  0.0035
 2128TIP3    H1 6348   6.714   2.587   3.216  0.1358 -0.0956 -0.3289
 2128TIP3    H2 6349   6.789   2.456   3.232 -1.2314 -0.6505  1.7883
 2129TIP3   OH2 6350   1.792   0.661   3.136  0.2801  0.4364 -0.2860
 2129TIP3    H1 6351   1.857   0.639   3.069 -0.4628  0.9524 -1.2113
 2129TIP3    H2 6352   1.746   0.579   3.153  0.4416  0.3094 -0.4603
 2130TIP3   OH2 6353   1.779   3.912   5.300 -0.0198  0.5110 -0.0291
 2130TIP3    H1 6354   1.839   3.838   5.308  0.4066  0.6837 -1.3899
 2130TIP3    H2 6355   1.833   3.989   5.315 -0.1504  0.6219 -0.1237
 2131TIP3   OH2 6356   7.097   4.756   1.061  0.1204  0.5542 -0.1899
 2131TIP3    H1 6357   7.168   4.700   1.092  0.5554  0.9795 -0.4029
 2131TIP3    H2 6358   7.035   4.696   1.020  0.7851  0.2657 -0.8015
 2132TIP3   OH2 6359   5.712   5.538   0.560  0.0364 -0.4983  0.4840
 2132TIP3    H1 6360   5.622   5.517   0.532  0.9365 -1.7486 -1.7862
 2132TIP3    H2 6361   5.756   5.453   0.565  0.9781  0.0527  2.1078
 2133TIP3   OH2 6362   4.367   1.190   1.682  0.0511  0.0355 -0.2497
 2133TIP3    H1 6363   4.446   1.239   1.657  0.3249 -0.0201  0.5045
 2133TIP3    H2 6364   4.298   1.257   1.685  0.2513  0.2335 -0.0409
 2134TIP3   OH2 6365   1.256   2.394   3.757 -0.4207  0.5450 -0.2183
 2134TIP3    H1 6366   1.337   2.364   3.715  0.3568 -0.6927  2.0027
 2134TIP3    H2 6367   1.196   2.320   3.749 -0.2366  0.2646  0.8582
 2135TIP3   OH2 6368   1.062   2.970   1.337  0.0104 -0.3694  0.0111
 2135TIP3    H1 6369   0.980   2.935   1.374 -1.7939  2.5692 -0.8498
 2135TIP3    H2 6370   1.087   2.906   1.270 -1.1967 -1.6677  0.7274
 2136TIP3   OH2 6371   6.488   3.193   3.637 -0.4208 -0.0656  0.0588
 2136TIP3    H1 6372   6.429   3.223   3.705  0.2235  0.4375  0.4044
 2136TIP3    H2 6373   6.480   3.257   3.566 -1.1579 -0.6369 -0.3898
 2137TIP3   OH2 6374   6.837   4.961   3.827  0.0729  0.1198  0.0071
 2137TIP3    H1 6375   6.850   4.969   3.733 -2.0194 -0.3302 -0.3817
 2137TIP3    H2 6376   6.889   5.031   3.865  1.3294  0.0075 -1.4389
 2138TIP3   OH2 6377   3.213   1.990   0.801 -0.0755 -0.7480  0.7695
 2138TIP3    H1 6378   3.236   2.005   0.709 -1.2069  0.6640  0.6752
 2138TIP3    H2 6379   3.293   1.955   0.840  1.3314  1.2474 -0.1512
 2139TIP3   OH2 6380   4.642   3.474   3.751 -0.1295 -0.4749 -0.0875
 2139TIP3    H1 6381   4.621   3.549   3.807  0.0074  0.4647 -1.2536
 2139TIP3    H2 6382   4.584   3.405   3.782 -2.6870  1.0789 -1.0466
 2140TIP3   OH2 6383   2.375   4.967   1.259  0.6380  0.2868 -0.6802
 2140TIP3    H1 6384   2.434   4.961   1.183  1.0638 -0.4200 -0.3034
 2140TIP3    H2 6385   2.420   5.027   1.318  2.0501 -1.7776  0.4963
 2141TIP3   OH2 6386   4.681   4.433   2.400 -0.1210 -0.3403 -0.3789
 2141TIP3    H1 6387   4.769   4.435   2.437 -1.0653 -1.2809  2.1248
 2141TIP3    H2 6388   4.665   4.523   2.371  1.6526 -0.1737 -0.9716
 2142TIP3   OH2 6389   2.170   3.000   2.467 -0.1076 -1.0782  0.2007
 2142TIP3    H1 6390   2.175   3.055   2.389 -0.1232 -0.5560  0.5642
 2142TIP3    H2 6391   2.212   2.918   2.441 -0.4794 -1.0643 -0.4816
 2143TIP3   OH2 6392   5.808   3.781   2.419  0.3343  1.0703  0.3207
 2143TIP3    H1 6393   5.739   3.718   2.399  1.7153 -0.9157  1.5001
 2143TIP3    H2 6394   5.790   3.810   2.508  1.7518 -0.5668  1.1913
 2144TIP3   OH2 6395   3.242   4.787   5.676  0.0786 -0.2766  0.3964
 2144TIP3    H1 6396   3.312   4.818   5.619  0.5704  0.3775  1.3308
 2144TIP3    H2 6397   3.286   4.762   5.757 -0.7097 -0.2977  0.8312
 2145TIP3   OH2 6398   1.448   2.666   0.756 -0.5446 -0.1003  0.1887
 2145TIP3    H1 6399   1.481   2.673   0.846 -0.4478 -0.1215  0.1548
 2145TIP3    H2 6400   1.378   2.731   0.751 -0.8490 -0.4037  0.4131
 2146TIP3   OH2 6401   1.120   4.682   1.688  0.3746  0.3898  0.1660
 2146TIP3    H1 6402   1.130   4.587   1.674  3.3025  0.1834  2.6719
 2146TIP3    H2 6403   1.196   4.720   1.644 -0.4622  1.5594 -0.3007
 2147TIP3   OH2 6404   4.204   4.819   1.505  0.3165  0.3317 -0.2504
 2147TIP3    H1 6405   4.161   4.740   1.472  0.5843  0.8661 -1.9717
 2147TIP3    H2 6406   4.132   4.881   1.517  0.0797 -0.1827  1.2894
 2148TIP3   OH2 6407   6.667   1.035   1.998 -0.4658 -0.2456  0.5280
 2148TIP3    H1 6408   6.681   0.977   1.924  1.2995  0.8425 -0.0512
 2148TIP3    H2 6409   6.620   0.982   2.062  2.2267 -2.8191  0.6061
 2149TIP3   OH2 6410   0.842   1.588   1.243  0.2231  0.3315  0.4496
 2149TIP3    H1 6411   0.906   1.553   1.305 -1.6776 -0.0193  2.3233
 2149TIP3    H2 6412   0.894   1.611   1.166  2.2480 -2.3128  0.8537
 2150TIP3   OH2 6413   4.118   4.121   3.833  0.5709  0.0027  0.0850
 2150TIP3    H1 6414   4.124   4.046   3.892 -1.3150  0.4385  0.9102
 2150TIP3    H2 6415   4.074   4.086   3.755  0.2992  0.1142  0.1905
 2151TIP3   OH2 6416   4.429   6.512   5.724  0.3392 -0.0216 -0.2625
 2151TIP3    H1 6417   4.510   6.534   5.678  0.5138 -1.6200 -0.8058
 2151TIP3    H2 6418   4.384   6.452   5.664 -0.8220  0.1558  0.4171
 2152TIP3   OH2 6419   0.270   4.139   0.082  0.2331  0.4221  0.0934
 2152TIP3    H1 6420   0.275   4.190   0.001 -1.8027  0.5746  0.0172
 2152TIP3    H2 6421   0.295   4.201   0.151 -2.3330  1.6702  0.0179
 2153TIP3   OH2 6422   0.147   2.675   0.036  0.3833 -0.1233 -0.1214
 2153TIP3    H1 6423   0.190   2.594   0.009 -1.2931 -1.1312  0.0768
 2153TIP3    H2 6424   0.158   2.734  -0.039  0.8812 -0.8398 -0.6279
 2154TIP3   OH2 6425   1.598   1.808   4.905  0.3801  0.0337 -0.1613
 2154TIP3    H1 6426   1.548   1.757   4.842 -2.3709  2.1683  0.1293
 2154TIP3    H2 6427   1.533   1.840   4.967  1.9672  3.4225 -0.0376
 2155TIP3   OH2 6428   5.979   1.014   0.913 -0.2221 -0.9259 -0.1617
 2155TIP3    H1 6429   5.945   1.066   0.986 -0.6446 -1.0216 -0.2863
 2155TIP3    H2 6430   6.063   1.054   0.891  0.9930 -2.2109  1.8134
 2156TIP3   OH2 6431   5.960   4.641   0.971  0.2502  0.2516 -0.3403
 2156TIP3    H1 6432   6.052   4.643   0.999 -0.1480 -1.1259  1.2776
 2156TIP3    H2 6433   5.952   4.560   0.920  0.0114  0.5155 -0.7198
 2157TIP3   OH2 6434   1.590   2.530   5.819  0.4583 -0.3198  0.0562
 2157TIP3    H1 6435   1.553   2.490   5.897  0.2854 -0.8729 -0.3046
 2157TIP3    H2 6436   1.622   2.616   5.849 -1.3986  0.3200  0.3026
 2158TIP3   OH2 6437   3.619   5.519   2.145 -0.4015  0.0845 -0.0771
 2158TIP3    H1 6438   3.555   5.452   2.124  0.7136 -0.6836 -1.1642
 2158TIP3    H2 6439   3.567   5.592   2.179 -1.6460 -1.2401  0.9803
 2159TIP3   OH2 6440   6.310   3.574   4.478 -0.6235  0.2754 -0.0816
 2159TIP3    H1 6441   6.361   3.604   4.553  0.0835  1.3748 -0.9533
 2159TIP3    H2 6442   6.364   3.598   4.402 -0.4891 -2.3482 -0.9182
 2160TIP3   OH2 6443   2.520   6.624   2.120 -0.2970 -0.1376 -0.5577
 2160TIP3    H1 6444   2.508   6.638   2.214 -0.2748 -0.0567 -0.5670
 2160TIP3    H2 6445   2.589   6.686   2.095 -1.1196  0.6961 -0.8503
 2161TIP3   OH2 6446   0.368   4.799   1.129  0.1889 -0.5795 -0.3367
 2161TIP3    H1 6447   0.425   4.763   1.060 -0.8614 -0.6204 -1.2028
 2161TIP3    H2 6448   0.288   4.825   1.083 -0.0293  0.6080  0.6683
 2162TIP3   OH2 6449   2.921   2.218   4.984 -0.5224  0.7288  0.4434
 2162TIP3    H1 6450   2.963   2.198   4.900  1.2434  1.2861  1.1340
 2162TIP3    H2 6451   2.932   2.313   4.993 -0.5062  0.6421  1.3819
 2163TIP3   OH2 6452   5.802   1.191   2.797  0.1935  0.0368  0.2644
 2163TIP3    H1 6453   5.845   1.274   2.776  0.3193 -0.5827 -2.4021
 2163TIP3    H2 6454   5.770   1.159   2.712  0.4872 -2.8004  1.1067
 2164TIP3   OH2 6455   3.073   3.058   2.229 -0.7485  0.9735  0.3559
 2164TIP3    H1 6456   3.122   3.138   2.247  0.2048  0.1438  1.6587
 2164TIP3    H2 6457   3.076   3.049   2.134  2.4913  0.4867  0.3944
 2165TIP3   OH2 6458   2.203   4.379   5.026  0.6666  0.2735  0.3296
 2165TIP3    H1 6459   2.228   4.286   5.031 -0.1182  0.0810  0.6718
 2165TIP3    H2 6460   2.207   4.410   5.116  0.6663  0.5088  0.2487
 2166TIP3   OH2 6461   2.354   3.944   0.362  0.2193 -0.1099 -0.4500
 2166TIP3    H1 6462   2.437   3.914   0.326 -0.0767 -0.0985 -1.1493
 2166TIP3    H2 6463   2.317   3.866   0.405  0.8493  0.0300  0.3748
 2167TIP3   OH2 6464   2.309   5.153   0.102 -0.2177  0.5034 -0.5779
 2167TIP3    H1 6465   2.370   5.207   0.053 -0.2647  0.4008 -0.7519
 2167TIP3    H2 6466   2.267   5.098   0.036  0.8208 -0.7306 -0.2505
 2168TIP3   OH2 6467   5.737   2.781   5.791 -0.9487 -0.2806  0.3860
 2168TIP3    H1 6468   5.643   2.801   5.788 -0.7000  0.9975  0.3055
 2168TIP3    H2 6469   5.777   2.844   5.730  0.1349  0.4443  1.7623
 2169TIP3   OH2 6470   2.998   3.194   5.433 -0.2712 -0.0884 -0.1308
 2169TIP3    H1 6471   3.028   3.260   5.496  0.5160 -1.3682  0.8895
 2169TIP3    H2 6472   3.046   3.115   5.456  0.1661 -0.5859 -2.4795
 2170TIP3   OH2 6473   3.369   4.072   2.935 -0.3552  0.7943  0.1481
 2170TIP3    H1 6474   3.386   4.039   2.846 -1.3376  0.2737  0.1262
 2170TIP3    H2 6475   3.299   4.015   2.967 -0.5550  1.4898  0.9592
 2171TIP3   OH2 6476   1.069   3.261   3.568 -0.4329 -0.0742  0.2119
 2171TIP3    H1 6477   1.151   3.219   3.541 -0.0693  0.7558 -0.0004
 2171TIP3    H2 6478   1.016   3.189   3.603 -1.9032 -1.8228 -4.6684
 2172TIP3   OH2 6479   6.406   1.219   0.636 -0.5449 -0.5159 -0.0213
 2172TIP3    H1 6480   6.390   1.278   0.563 -0.3654 -0.0014  0.3487
 2172TIP3    H2 6481   6.444   1.140   0.597  2.8294  1.0313 -0.1812
 2173TIP3   OH2 6482   5.358   3.119   3.726 -0.0126  0.1372  0.2974
 2173TIP3    H1 6483   5.403   3.190   3.681 -1.6140  0.8154 -0.2819
 2173TIP3    H2 6484   5.330   3.157   3.809 -0.0562 -0.1024  0.3940
 2174TIP3   OH2 6485   6.403   2.448   3.968 -0.1944  0.2700  0.3606
 2174TIP3    H1 6486   6.405   2.470   3.875  0.3063  0.0359  0.3092
 2174TIP3    H2 6487   6.480   2.493   4.005 -1.8587  2.6240  1.2053
 2175TIP3   OH2 6488   7.205   3.438   1.411  0.1154 -0.1144 -0.7709
 2175TIP3    H1 6489   7.218   3.359   1.360  1.3361 -0.2557 -0.2730
 2175TIP3    H2 6490   7.143   3.413   1.480  0.8877 -0.7882 -0.3065
 2176TIP3   OH2 6491   6.818   1.361   0.912  0.2367 -0.2465 -0.1671
 2176TIP3    H1 6492   6.820   1.321   0.998  1.2997  2.0365  0.9385
 2176TIP3    H2 6493   6.725   1.360   0.888 -0.3115  0.5298  1.7457
 2177TIP3   OH2 6494   3.733   3.682   4.076  0.4208  0.5126  0.3745
 2177TIP3    H1 6495   3.750   3.588   4.081 -0.5338  0.3458  0.7346
 2177TIP3    H2 6496   3.706   3.706   4.165  0.9274  1.1899  0.3555
 2178TIP3   OH2 6497   0.643   6.575   2.256 -0.1841 -0.4398 -0.2381
 2178TIP3    H1 6498   0.737   6.572   2.241 -0.2336  0.3153 -0.7065
 2178TIP3    H2 6499   0.632   6.634   2.331 -0.2491 -0.9509  0.1620
 2179TIP3   OH2 6500   1.842   5.426   3.826 -0.5153  0.1944  0.6065
 2179TIP3    H1 6501   1.848   5.337   3.792  0.5743  0.6760 -0.5238
 2179TIP3    H2 6502   1.908   5.430   3.896  1.0340  0.7247 -0.8293
 2180TIP3   OH2 6503   2.706   2.924   3.182 -0.2640  0.0914 -0.1031
 2180TIP3    H1 6504   2.756   2.979   3.243  0.1284  0.5055 -0.7834
 2180TIP3    H2 6505   2.710   2.972   3.099 -0.6750 -0.5346 -0.4842
 2181TIP3   OH2 6506   2.591   2.738   0.080  0.2483 -0.5072 -0.8455
 2181TIP3    H1 6507   2.684   2.748   0.059  0.3626  0.4280  0.0008
 2181TIP3    H2 6508   2.588   2.669   0.146  0.5749  0.6816  0.4671
 2182TIP3   OH2 6509   4.652   0.224   5.623  0.1386  0.3608 -0.3755
 2182TIP3    H1 6510   4.676   0.132   5.612  0.3436  0.3664 -0.0158
 2182TIP3    H2 6511   4.613   0.227   5.711  0.2983  0.6470 -0.3133
 2183TIP3   OH2 6512   3.508   4.011   4.347  0.4773 -0.0693 -0.0095
 2183TIP3    H1 6513   3.478   3.943   4.286  3.0170  0.8877 -2.5288
 2183TIP3    H2 6514   3.468   4.092   4.314 -0.5479  0.0711  1.4867
 2184TIP3   OH2 6515   3.350   2.588   5.625  0.3256 -0.7223 -0.0421
 2184TIP3    H1 6516   3.443   2.565   5.622  0.3507 -0.7027  0.4491
 2184TIP3    H2 6517   3.349   2.678   5.659  0.0052 -1.8035  3.2158
 2185TIP3   OH2 6518   3.853   1.540   1.020  0.7487 -0.2130 -0.9971
 2185TIP3    H1 6519   3.929   1.518   1.075  0.8661 -1.9400 -1.7804
 2185TIP3    H2 6520   3.792   1.467   1.033 -0.6318  0.9603 -0.6856
 2186TIP3   OH2 6521   2.676   6.344   3.858 -0.1728  0.3259 -0.7499
 2186TIP3    H1 6522   2.749   6.353   3.919 -1.2966  1.1410  0.5423
 2186TIP3    H2 6523   2.655   6.433   3.832  0.1850 -0.0036 -2.2536
 2187TIP3   OH2 6524   0.419   6.372   0.328  0.0455 -0.5073 -0.5249
 2187TIP3    H1 6525   0.438   6.284   0.361 -0.3357 -0.7371 -0.8999
 2187TIP3    H2 6526   0.325   6.383   0.344  0.0631 -0.2237 -0.6119
 2188TIP3   OH2 6527   6.820   0.537   3.150 -0.1396 -0.1360 -0.4134
 2188TIP3    H1 6528   6.908   0.509   3.125  0.1183 -0.8314  1.1612
 2188TIP3    H2 6529   6.796   0.602   3.084  1.2036 -0.5601 -1.3613
 2189TIP3   OH2 6530   2.893   3.187   0.325 -0.7210 -0.8152  0.0150
 2189TIP3    H1 6531   2.843   3.179   0.244 -0.6390 -0.2050 -0.0991
 2189TIP3    H2 6532   2.972   3.234   0.299 -0.1418 -1.6614  0.2203
 2190TIP3   OH2 6533   1.677   2.085   2.195  0.3255  0.0142  0.4429
 2190TIP3    H1 6534   1.754   2.105   2.142  1.0064 -1.5496  0.7986
 2190TIP3    H2 6535   1.713   2.050   2.277 -0.7640 -0.7960  0.5927
 2191TIP3   OH2 6536   4.197   4.969   0.504 -0.3521 -0.1995 -0.3560
 2191TIP3    H1 6537   4.137   5.041   0.522 -0.7623 -0.1614 -1.7375
 2191TIP3    H2 6538   4.162   4.928   0.424  0.0109 -1.7724  0.2507
 2192TIP3   OH2 6539   2.232   2.829   3.002 -0.5103 -0.1599 -0.1442
 2192TIP3    H1 6540   2.276   2.783   3.074  0.0688  1.2819  0.4855
 2192TIP3    H2 6541   2.205   2.760   2.942  0.9456 -1.2657  0.3883
 2193TIP3   OH2 6542   1.567   2.893   4.321 -0.1195  0.3410  0.2942
 2193TIP3    H1 6543   1.524   2.973   4.291 -0.4244  0.2103  0.3809
 2193TIP3    H2 6544   1.660   2.908   4.304 -0.2910  0.2122 -0.8803
 2194TIP3   OH2 6545   3.782   3.361   5.885 -0.2694 -0.0365  0.0393
 2194TIP3    H1 6546   3.702   3.388   5.931 -0.8488 -1.5833 -0.0008
 2194TIP3    H2 6547   3.765   3.384   5.794 -0.5953 -0.1590  0.0642
 2195TIP3   OH2 6548   6.042   3.528   3.777  0.2371 -0.2114  0.4481
 2195TIP3    H1 6549   6.056   3.458   3.840 -0.2597  0.3412  1.1903
 2195TIP3    H2 6550   6.108   3.594   3.799 -0.4503  0.3321  0.9153
 2196TIP3   OH2 6551   2.077   3.099   3.205  0.1046 -0.1827  0.0687
 2196TIP3    H1 6552   2.122   3.020   3.234  0.8589  0.1785 -0.0864
 2196TIP3    H2 6553   2.098   3.106   3.112 -0.3881 -0.0829 -0.0359
 2197TIP3   OH2 6554   0.918   2.875   2.718  0.6326  0.0725 -0.5208
 2197TIP3    H1 6555   0.938   2.967   2.697 -0.9706  0.5517 -0.0992
 2197TIP3    H2 6556   0.907   2.833   2.634 -0.9626  0.8470 -0.7351
 2198TIP3   OH2 6557   3.904   2.177   5.805 -0.3564  0.4820 -0.1489
 2198TIP3    H1 6558   3.982   2.209   5.761  0.5572 -0.0261  1.0471
 2198TIP3    H2 6559   3.836   2.242   5.785  0.4704  1.1454 -0.8542
 2199TIP3   OH2 6560   6.142   0.379   1.942  0.0942  0.4714  0.0245
 2199TIP3    H1 6561   6.059   0.379   1.990 -0.6966  3.1834 -1.1219
 2199TIP3    H2 6562   6.124   0.330   1.862 -0.4703  1.1305 -0.2633
 2200TIP3   OH2 6563   4.640   3.057   4.949 -0.1253 -0.1016 -0.4034
 2200TIP3    H1 6564   4.623   2.967   4.921 -0.3807  0.2678 -1.4903
 2200TIP3    H2 6565   4.710   3.087   4.892 -0.5722  0.6367 -0.5860
 2201TIP3   OH2 6566   4.117   4.643   0.886  0.2823  0.2747  0.1309
 2201TIP3    H1 6567   4.055   4.585   0.931  0.7660  0.3177  0.8763
 2201TIP3    H2 6568   4.170   4.585   0.831 -0.3420  0.2261 -0.4232
 2202TIP3   OH2 6569   0.828   0.816   0.395 -0.2318 -0.2905 -0.0580
 2202TIP3    H1 6570   0.820   0.911   0.400 -0.3992 -0.2985 -0.1675
 2202TIP3    H2 6571   0.874   0.800   0.313  0.4349 -0.2713  0.3038
 2203TIP3   OH2 6572   4.347   4.480   1.578  0.0818 -0.0605 -0.3550
 2203TIP3    H1 6573   4.403   4.403   1.571  0.4320  0.0913  0.6399
 2203TIP3    H2 6574   4.278   4.454   1.639  0.0044  0.2974 -0.2897
 2204TIP3   OH2 6575   7.077   3.739   5.200 -0.1006  0.6135 -0.0004
 2204TIP3    H1 6576   6.989   3.701   5.212  0.4558 -0.8925 -0.4733
 2204TIP3    H2 6577   7.061   3.821   5.153 -1.2701  0.4425  0.0548
 2205TIP3   OH2 6578   3.785   0.355   3.491  0.4451  0.3075 -0.5933
 2205TIP3    H1 6579   3.710   0.362   3.549  0.6057  1.6505 -0.5151
 2205TIP3    H2 6580   3.839   0.286   3.530 -0.3633 -0.1198 -0.2147
 2206TIP3   OH2 6581   3.498   2.213   2.190  0.1494  0.6141 -0.4775
 2206TIP3    H1 6582   3.588   2.239   2.168  0.2040 -0.7843 -2.0795
 2206TIP3    H2 6583   3.460   2.186   2.106 -1.7651  1.1361  0.1842
 2207TIP3   OH2 6584   3.801   5.339   3.034  0.4763  0.6103  0.1130
 2207TIP3    H1 6585   3.867   5.319   2.968  1.3445 -0.6486  1.3072
 2207TIP3    H2 6586   3.762   5.422   3.004  3.5038  2.1699  0.0453
 2208TIP3   OH2 6587   3.497   5.893   2.670 -0.2256 -0.0285  0.0307
 2208TIP3    H1 6588   3.524   5.902   2.761 -1.7105  1.7720  0.3497
 2208TIP3    H2 6589   3.513   5.979   2.631 -0.4517 -0.5069 -1.1777
 2209TIP3   OH2 6590   3.968   3.423   2.226 -0.4594 -0.6881  0.4127
 2209TIP3    H1 6591   3.926   3.349   2.183  0.9258 -1.5311  0.4463
 2209TIP3    H2 6592   3.912   3.498   2.206 -1.1989 -1.5213 -0.7162
 2210TIP3   OH2 6593   6.375   4.350   4.435  0.4246  0.3498  0.0663
 2210TIP3    H1 6594   6.425   4.276   4.398  0.2455 -0.3513  1.1784
 2210TIP3    H2 6595   6.321   4.380   4.362  0.5953 -0.5397 -0.4513
 2211TIP3   OH2 6596   6.897   3.382   3.562  0.2429 -0.1681  0.2885
 2211TIP3    H1 6597   6.979   3.408   3.604 -0.3621  0.8263  0.9090
 2211TIP3    H2 6598   6.923   3.346   3.478  1.3105  0.2195  0.4361
 2212TIP3   OH2 6599   3.996   1.458   4.884 -0.5140 -0.0042 -0.0014
 2212TIP3    H1 6600   4.062   1.514   4.924 -0.3079  0.4801 -1.0027
 2212TIP3    H2 6601   4.035   1.431   4.801 -0.9648 -0.9432  0.0782
 2213TIP3   OH2 6602   6.495   4.180   2.686 -0.7493 -0.6667  0.3940
 2213TIP3    H1 6603   6.457   4.092   2.680  0.5103 -1.2156  0.2692
 2213TIP3    H2 6604   6.420   4.239   2.671 -0.9041 -1.6978 -4.6244
 2214TIP3   OH2 6605   6.569   5.974   3.878  0.1018 -0.1157 -0.4443
 2214TIP3    H1 6606   6.588   6.019   3.960  0.7059 -1.8514  0.4213
 2214TIP3    H2 6607   6.631   6.011   3.815  0.3400  0.4987  0.1405
 2215TIP3   OH2 6608   5.098   0.948   4.862  0.0369  0.6059  0.3677
 2215TIP3    H1 6609   5.053   1.007   4.801 -0.5336  0.7671  0.9373
 2215TIP3    H2 6610   5.032   0.926   4.927  1.1181  1.9226  2.0158
 2216TIP3   OH2 6611   0.338   6.581   2.368 -0.3121 -0.3971 -0.6137
 2216TIP3    H1 6612   0.431   6.579   2.391 -0.3035  0.7701 -0.4877
 2216TIP3    H2 6613   0.309   6.491   2.380  0.7679 -0.7487 -0.5072
 2217TIP3   OH2 6614   3.321   1.150   2.967  0.0404  0.0825  0.0960
 2217TIP3    H1 6615   3.231   1.154   2.934  0.4786  1.2184 -1.0694
 2217TIP3    H2 6616   3.344   1.058   2.965 -1.5441 -0.4010  1.7226
 2218TIP3   OH2 6617   6.127   6.319   0.847  0.0427 -0.0888 -0.4252
 2218TIP3    H1 6618   6.147   6.243   0.901  3.0460  0.4836 -0.5657
 2218TIP3    H2 6619   6.059   6.366   0.896 -0.1877 -1.6193  0.8063
 2219TIP3   OH2 6620   3.134   1.619   4.871 -0.4122  0.1663 -0.0137
 2219TIP3    H1 6621   3.156   1.565   4.948  0.5405 -1.0030 -1.0610
 2219TIP3    H2 6622   3.044   1.648   4.888 -0.1369  0.1457  1.6563
 2220TIP3   OH2 6623   0.833   1.490   1.557  0.4598 -0.6699  0.1133
 2220TIP3    H1 6624   0.822   1.568   1.503 -1.3822 -1.2513 -0.4199
 2220TIP3    H2 6625   0.927   1.472   1.555  0.8479  1.2376 -0.1369
 2221TIP3   OH2 6626   2.573   3.542   4.563 -0.7778  0.1393 -1.1143
 2221TIP3    H1 6627   2.631   3.478   4.524 -1.7121 -0.1733 -2.0243
 2221TIP3    H2 6628   2.594   3.624   4.518  0.4481  0.5111  0.0810
 2222TIP3   OH2 6629   5.570   0.635   0.558  0.3598 -0.1398  0.0191
 2222TIP3    H1 6630   5.534   0.699   0.619  2.2720  0.2446  0.8046
 2222TIP3    H2 6631   5.644   0.679   0.516  0.3014 -1.0734 -1.1379
 2223TIP3   OH2 6632   6.628   5.477   2.555  0.0665 -0.3152  0.3924
 2223TIP3    H1 6633   6.680   5.430   2.620  2.7420  0.7383 -0.8422
 2223TIP3    H2 6634   6.554   5.512   2.605  1.9874  0.4745  2.9314
 2224TIP3   OH2 6635   5.821   1.957   4.460 -0.1202 -0.0068  0.0948
 2224TIP3    H1 6636   5.813   1.905   4.379 -2.1782 -0.2391  0.3887
 2224TIP3    H2 6637   5.771   1.907   4.525 -1.2226  1.7701  0.6686
 2225TIP3   OH2 6638   3.553   3.605   4.578  0.1137 -0.4388 -0.1828
 2225TIP3    H1 6639   3.542   3.567   4.665  0.4939 -2.5103 -1.0008
 2225TIP3    H2 6640   3.467   3.595   4.537  0.2946 -0.6589 -0.5045
 2226TIP3   OH2 6641   3.882   2.360   2.366  0.0430  0.3612  0.0117
 2226TIP3    H1 6642   3.815   2.313   2.414 -0.8529  1.3471 -0.2450
 2226TIP3    H2 6643   3.965   2.334   2.407 -0.5556 -0.2794  0.8207
 2227TIP3   OH2 6644   6.864   0.059   2.482  0.3244 -0.2300 -0.9589
 2227TIP3    H1 6645   6.775   0.044   2.514  0.9674 -1.1000  0.5433
 2227TIP3    H2 6646   6.880   0.152   2.498 -0.7040  0.2187 -2.3553
 2228TIP3   OH2 6647   5.582   3.667   5.035  0.1401 -0.4473  0.1732
 2228TIP3    H1 6648   5.628   3.746   5.004  0.5508 -0.6074  0.3595
 2228TIP3    H2 6649   5.559   3.620   4.955  0.3434 -0.3861  0.0762
 2229TIP3   OH2 6650   1.332   1.059   0.566 -0.2230  0.0837  0.2085
 2229TIP3    H1 6651   1.419   1.052   0.527 -0.5605  2.3609 -1.1538
 2229TIP3    H2 6652   1.275   1.086   0.494 -1.3633  2.0462  1.7162
 2230TIP3   OH2 6653   4.791   6.322   4.771 -0.5085 -0.3414  0.5328
 2230TIP3    H1 6654   4.837   6.399   4.737 -2.0384  0.5646  0.4471
 2230TIP3    H2 6655   4.806   6.254   4.705  0.3344  0.0482  0.3027
 2231TIP3   OH2 6656   0.610   3.830   0.349 -0.3417  0.2972  0.1243
 2231TIP3    H1 6657   0.682   3.874   0.304 -0.7780  1.3053  0.3847
 2231TIP3    H2 6658   0.651   3.754   0.391  0.5066  0.6745  0.0049
 2232TIP3   OH2 6659   0.499   2.493   3.040 -0.2770 -0.1910 -0.3365
 2232TIP3    H1 6660   0.425   2.437   3.014 -0.5562  0.6116 -1.3422
 2232TIP3    H2 6661   0.457   2.569   3.081  0.1148 -0.8760  1.4120
 2233TIP3   OH2 6662   6.949   4.627   1.816  0.2453  0.1014 -0.5983
 2233TIP3    H1 6663   6.880   4.646   1.879  2.1343  1.8016  1.1409
 2233TIP3    H2 6664   6.941   4.534   1.798 -1.2065 -0.1686  1.1501
 2234TIP3   OH2 6665   6.665   0.191   1.824 -0.1673  0.1931 -0.0765
 2234TIP3    H1 6666   6.725   0.158   1.891  0.1871  1.7207  0.3948
 2234TIP3    H2 6667   6.631   0.113   1.781  2.0758 -0.7506 -0.2722
 2235TIP3   OH2 6668   5.417   6.388   1.551 -0.3482 -0.8132 -0.1255
 2235TIP3    H1 6669   5.370   6.462   1.514  1.6168  0.9026  0.6499
 2235TIP3    H2 6670   5.440   6.334   1.476 -0.5545  0.1212 -0.8733
 2236TIP3   OH2 6671   3.855   6.391   5.393 -0.1854  0.4220  0.4706
 2236TIP3    H1 6672   3.852   6.484   5.416  0.0295  0.6013 -0.1981
 2236TIP3    H2 6673   3.939   6.381   5.348 -1.4543  0.5426 -2.1166
 2237TIP3   OH2 6674   3.962   2.474   5.353 -0.1116  0.6402  0.0465
 2237TIP3    H1 6675   4.054   2.459   5.332 -0.3532  1.1965 -1.5046
 2237TIP3    H2 6676   3.919   2.390   5.337  0.2313  0.1118  1.6562
 2238TIP3   OH2 6677   4.188   3.613   2.045 -0.0362 -0.3644 -0.2032
 2238TIP3    H1 6678   4.252   3.546   2.022  0.9846  0.6936 -0.5629
 2238TIP3    H2 6679   4.110   3.590   1.995  0.2509 -1.3475 -0.2174
 2239TIP3   OH2 6680   3.195   0.620   0.504  0.4498  0.1295  0.1083
 2239TIP3    H1 6681   3.152   0.567   0.571 -1.2605  1.0529 -0.2081
 2239TIP3    H2 6682   3.278   0.646   0.544  0.0099 -0.3612  1.3930
 2240TIP3   OH2 6683   1.229   6.557   1.534  0.7031 -0.0555 -0.3132
 2240TIP3    H1 6684   1.136   6.541   1.552  0.2665  1.1314 -1.3355
 2240TIP3    H2 6685   1.266   6.583   1.619  0.1268 -0.5914  0.1109
 2241TIP3   OH2 6686   3.271   1.283   2.053  0.2814 -0.2197  0.2083
 2241TIP3    H1 6687   3.291   1.334   1.974 -0.6416 -0.2351 -0.0475
 2241TIP3    H2 6688   3.177   1.296   2.066  0.1701 -1.2987  0.5386
 2242TIP3   OH2 6689   5.538   0.089   0.103 -0.7195  0.2360  0.0500
 2242TIP3    H1 6690   5.457   0.127   0.136 -0.8336 -0.8138  1.0332
 2242TIP3    H2 6691   5.510   0.016   0.048 -0.4457 -1.3883  1.9877
 2243TIP3   OH2 6692   2.360   1.240   5.836  0.1127  0.0753  0.5815
 2243TIP3    H1 6693   2.435   1.271   5.887 -0.3850 -0.3169  1.5888
 2243TIP3    H2 6694   2.396   1.173   5.777  0.6860  0.4696  0.4806
 2244TIP3   OH2 6695   1.201   4.446   0.299  0.1547  0.3204 -0.3066
 2244TIP3    H1 6696   1.238   4.518   0.248  1.2167  0.0593  0.0740
 2244TIP3    H2 6697   1.227   4.367   0.251 -1.2179  0.1730 -0.8654
 2245TIP3   OH2 6698   7.136   0.246   3.831  0.4267  0.2834 -0.8631
 2245TIP3    H1 6699   7.097   0.322   3.875  0.1384 -0.7062  0.6771
 2245TIP3    H2 6700   7.221   0.235   3.874  0.0821 -0.7916 -0.4339
 2246TIP3   OH2 6701   5.039   1.506   1.266  0.3256  0.1139  0.2160
 2246TIP3    H1 6702   5.049   1.473   1.355  0.2506 -0.1674  0.1183
 2246TIP3    H2 6703   4.957   1.555   1.267  0.2166 -0.0700  0.2449
 2247TIP3   OH2 6704   5.467   4.311   2.321 -0.0845  0.2358 -0.3323
 2247TIP3    H1 6705   5.388   4.259   2.332 -0.2987  0.3885 -1.1020
 2247TIP3    H2 6706   5.441   4.400   2.346 -0.1167  0.2560 -0.4379
 2248TIP3   OH2 6707   2.655   3.215   0.101  0.4363 -0.0013  0.0093
 2248TIP3    H1 6708   2.606   3.144   0.142 -2.3542  0.8504 -1.5929
 2248TIP3    H2 6709   2.646   3.288   0.162 -3.2981  1.1218 -1.5770
 2249TIP3   OH2 6710   2.374   0.694   1.366 -0.5405 -0.6983  0.0138
 2249TIP3    H1 6711   2.371   0.676   1.460 -1.7928  0.6668  0.2701
 2249TIP3    H2 6712   2.456   0.742   1.353 -0.4008 -0.8208  0.4256
 2250TIP3   OH2 6713   4.962   2.828   5.561 -0.4019 -0.1823  0.8357
 2250TIP3    H1 6714   4.950   2.793   5.649  0.9712  0.8529  1.4850
 2250TIP3    H2 6715   4.952   2.923   5.571 -1.1084 -0.1144 -0.3087
 2251TIP3   OH2 6716   2.850   4.567   5.413  0.4543  0.0060 -0.2702
 2251TIP3    H1 6717   2.813   4.478   5.407  0.8183 -0.0858 -1.3952
 2251TIP3    H2 6718   2.817   4.601   5.496 -2.2444 -0.0362 -1.2344
 2252TIP3   OH2 6719   5.886   6.560   1.433 -0.1821  0.4245  1.0485
 2252TIP3    H1 6720   5.812   6.622   1.431  0.5833  1.3785 -1.0986
 2252TIP3    H2 6721   5.884   6.523   1.521 -3.0737  0.5829  1.1582
 2253TIP3   OH2 6722   1.747   3.591   5.724 -0.3727  0.6224  0.2355
 2253TIP3    H1 6723   1.699   3.584   5.806  0.0664  0.8461  0.5126
 2253TIP3    H2 6724   1.784   3.504   5.709 -0.4668  0.5776  0.2648
 2254TIP3   OH2 6725   6.456   3.883   2.179  0.2315 -0.1853 -0.1176
 2254TIP3    H1 6726   6.531   3.852   2.230 -1.3007 -0.5091  2.1217
 2254TIP3    H2 6727   6.391   3.813   2.188 -0.2951 -0.0024 -2.1556
 2255TIP3   OH2 6728   0.950   0.108   2.961  0.5352  0.8063 -0.2458
 2255TIP3    H1 6729   0.921   0.165   2.889  1.3239  0.2447 -1.0188
 2255TIP3    H2 6730   0.868   0.078   3.001  0.0666  0.8059 -1.1645
 2256TIP3   OH2 6731   1.935   4.602   5.384  0.4557 -0.2998 -0.7159
 2256TIP3    H1 6732   1.843   4.623   5.367  0.7364  2.7031  0.8670
 2256TIP3    H2 6733   1.932   4.534   5.452 -0.6475  0.6273  0.2076
 2257TIP3   OH2 6734   6.767   2.617   1.340 -0.2444 -0.6027 -0.1031
 2257TIP3    H1 6735   6.763   2.548   1.273  0.4112 -0.7874  0.0367
 2257TIP3    H2 6736   6.733   2.695   1.297  0.1516 -0.7260 -0.6537
 2258TIP3   OH2 6737   4.524   1.158   4.346  0.0754  0.3493 -0.8440
 2258TIP3    H1 6738   4.511   1.252   4.358 -0.1656  0.3454 -1.0660
 2258TIP3    H2 6739   4.524   1.123   4.435 -0.0434  0.5313 -0.7714
 2259TIP3   OH2 6740   2.994   3.106   5.060  0.6879  0.4350  0.1819
 2259TIP3    H1 6741   2.946   3.187   5.044  2.2216  1.0378 -1.7254
 2259TIP3    H2 6742   2.947   3.064   5.132 -1.0041  2.3008  0.2429
 2260TIP3   OH2 6743   2.537   3.226   0.359  0.3984 -0.3233 -0.1643
 2260TIP3    H1 6744   2.582   3.193   0.437  0.3597 -0.6797 -0.2878
 2260TIP3    H2 6745   2.469   3.283   0.393  0.9396  0.2205  0.0265
 2261TIP3   OH2 6746   0.730   5.612   5.137 -0.5158 -0.3024 -0.2248
 2261TIP3    H1 6747   0.714   5.525   5.101  0.7530  0.2026 -2.1054
 2261TIP3    H2 6748   0.801   5.599   5.200 -0.5648 -0.6626 -0.2403
 2262TIP3   OH2 6749   4.551   1.106   4.896  0.1324  0.1072  0.2410
 2262TIP3    H1 6750   4.486   1.161   4.940  0.6387 -0.2329  1.4298
 2262TIP3    H2 6751   4.551   1.024   4.944  0.7399 -0.2578 -0.3600
 2263TIP3   OH2 6752   3.509   4.961   4.572 -0.2257 -0.0818  0.2575
 2263TIP3    H1 6753   3.497   4.866   4.582 -0.8639 -0.2983 -1.9529
 2263TIP3    H2 6754   3.421   4.994   4.550  0.2497  0.8027 -0.3586
 2264TIP3   OH2 6755   1.239   1.622   4.481  0.3081  0.3283  0.0601
 2264TIP3    H1 6756   1.252   1.575   4.564 -1.7961 -1.9161 -0.7933
 2264TIP3    H2 6757   1.271   1.562   4.414  0.0722  1.2592 -0.9058
 2265TIP3   OH2 6758   2.199   0.662   4.431 -0.1130  0.1925  0.3577
 2265TIP3    H1 6759   2.280   0.670   4.382 -0.4885  0.4017 -0.2445
 2265TIP3    H2 6760   2.137   0.623   4.370 -0.8041  1.1626  0.4085
 2266TIP3   OH2 6761   6.977   2.811   2.828  0.1511 -0.3477  0.6362
 2266TIP3    H1 6762   6.994   2.719   2.848 -0.2455 -0.3477  0.9635
 2266TIP3    H2 6763   7.016   2.860   2.901  0.2185 -0.2610  0.5435
 2267TIP3   OH2 6764   6.185   1.724   3.593 -0.0719 -0.0428 -0.6532
 2267TIP3    H1 6765   6.147   1.811   3.578 -2.3377 -0.7412  0.6697
 2267TIP3    H2 6766   6.248   1.737   3.663 -1.6884  0.3011  0.8139
 2268TIP3   OH2 6767   6.131   2.194   2.490 -0.0044 -0.1926  0.6802
 2268TIP3    H1 6768   6.082   2.155   2.562  0.0343  0.3999  1.0315
 2268TIP3    H2 6769   6.065   2.215   2.424  0.2473 -3.9021 -1.0371
 2269TIP3   OH2 6770   2.737   1.225   3.861  0.0235 -0.0697  0.6052
 2269TIP3    H1 6771   2.737   1.249   3.954  0.8942  0.8345  0.3970
 2269TIP3    H2 6772   2.816   1.171   3.851 -0.1727 -0.3233  0.4273
 2270TIP3   OH2 6773   3.940   4.349   1.408  0.3184  0.4035  0.1434
 2270TIP3    H1 6774   4.015   4.291   1.393 -0.7477 -1.3593  1.2475
 2270TIP3    H2 6775   3.979   4.435   1.425  2.0922 -0.4638  0.6852
 2271TIP3   OH2 6776   0.314   3.803   3.539 -0.3621  0.3620  0.0378
 2271TIP3    H1 6777   0.285   3.848   3.460  0.4765  0.8261 -0.0163
 2271TIP3    H2 6778   0.265   3.721   3.540 -2.3101  1.4592  0.3950
 2272TIP3   OH2 6779   0.742   2.843   0.497 -0.1038 -0.3268  0.3729
 2272TIP3    H1 6780   0.648   2.838   0.477 -0.1270  0.4888  0.2225
 2272TIP3    H2 6781   0.785   2.839   0.412 -0.0121 -0.4867  0.4268
 2273TIP3   OH2 6782   7.105   4.926   1.364  0.0207 -0.5099  0.4196
 2273TIP3    H1 6783   7.021   4.924   1.410  0.8292  0.6405  2.0426
 2273TIP3    H2 6784   7.088   4.977   1.285 -0.6294  0.4641  1.1664
 2274TIP3   OH2 6785   3.216   2.734   0.633 -0.1290  0.8117 -0.0692
 2274TIP3    H1 6786   3.139   2.790   0.623  0.2111  1.0206 -1.6462
 2274TIP3    H2 6787   3.232   2.698   0.546  0.2745 -0.9556  0.6891
 2275TIP3   OH2 6788   4.591   3.746   1.561 -0.3941  1.0073 -0.2966
 2275TIP3    H1 6789   4.652   3.807   1.519  1.4311 -0.3202  0.2821
 2275TIP3    H2 6790   4.645   3.700   1.626 -1.0067 -2.8224 -2.2133
 2276TIP3   OH2 6791   3.578   6.493   1.479 -0.0733  0.4372  0.2733
 2276TIP3    H1 6792   3.669   6.464   1.484 -0.2134 -0.5224 -1.7017
 2276TIP3    H2 6793   3.560   6.498   1.385 -2.9016 -2.2447  0.5027
 2277TIP3   OH2 6794   2.056   4.009   2.526 -0.0378 -0.0995 -0.2038
 2277TIP3    H1 6795   2.038   3.920   2.495  0.6565 -0.1899 -0.3541
 2277TIP3    H2 6796   2.151   4.013   2.534 -0.1449 -0.7324  3.7319
 2278TIP3   OH2 6797   4.740   3.286   2.769 -0.3443  0.5607 -0.3624
 2278TIP3    H1 6798   4.830   3.257   2.787  0.2182  1.4598 -1.5656
 2278TIP3    H2 6799   4.731   3.366   2.819  0.7335  2.2896 -2.7166
 2279TIP3   OH2 6800   5.575   6.367   2.245 -0.3989 -0.1916  0.0502
 2279TIP3    H1 6801   5.508   6.385   2.311 -0.3681 -0.1598  0.0736
 2279TIP3    H2 6802   5.557   6.278   2.216  0.0303 -0.4744  0.6283
 2280TIP3   OH2 6803   0.645   5.451   5.447 -0.5777  1.1162  0.2416
 2280TIP3    H1 6804   0.737   5.473   5.431 -0.0523  2.2471  3.8551
 2280TIP3    H2 6805   0.648   5.369   5.496 -1.6558  0.3417 -0.9298
 2281TIP3   OH2 6806   2.623   5.996   5.640 -0.1424  0.2066 -0.4164
 2281TIP3    H1 6807   2.598   5.997   5.547  0.3953 -0.1375 -0.5703
 2281TIP3    H2 6808   2.717   6.017   5.639 -0.1127  0.0921  0.0392
 2282TIP3   OH2 6809   5.095   5.017   1.620 -0.1719 -0.0862  0.1132
 2282TIP3    H1 6810   5.112   5.039   1.712 -0.3925  0.6167 -0.0065
 2282TIP3    H2 6811   5.000   5.015   1.613 -0.1692 -1.4196  0.1834
 2283TIP3   OH2 6812   2.696   0.938   3.081  0.2010  0.3968  0.2931
 2283TIP3    H1 6813   2.746   1.014   3.051 -1.5700  1.0938 -1.0283
 2283TIP3    H2 6814   2.651   0.968   3.160 -0.4178  0.6912 -0.1709
 2284TIP3   OH2 6815   7.021   4.634   2.891 -0.1022  0.4732  0.1166
 2284TIP3    H1 6816   7.055   4.716   2.927  0.8749  0.1987 -0.1677
 2284TIP3    H2 6817   6.956   4.605   2.956  0.0020  1.1345  0.5324
 2285TIP3   OH2 6818   4.550   4.503   1.135 -0.5304  0.2556 -0.2778
 2285TIP3    H1 6819   4.620   4.482   1.196  0.3512  1.1808 -0.9497
 2285TIP3    H2 6820   4.471   4.506   1.190 -0.0453 -0.6827  0.4995
 2286TIP3   OH2 6821   4.250   6.150   4.444  0.1292 -0.4081 -0.5778
 2286TIP3    H1 6822   4.346   6.144   4.446  0.2748  0.1811 -2.5484
 2286TIP3    H2 6823   4.228   6.210   4.515  1.2243 -0.5547 -0.0959
 2287TIP3   OH2 6824   7.033   5.958   0.321 -0.3660 -0.4053  0.1384
 2287TIP3    H1 6825   6.964   5.894   0.300 -0.9216  0.5615 -1.1179
 2287TIP3    H2 6826   6.993   6.014   0.388 -1.0526  0.4942 -0.9824
 2288TIP3   OH2 6827   1.150   3.782   3.293  0.0328 -0.1829 -0.7071
 2288TIP3    H1 6828   1.232   3.764   3.246 -1.2324 -2.3625 -2.2525
 2288TIP3    H2 6829   1.168   3.863   3.341  2.8700 -0.2268 -1.4800
 2289TIP3   OH2 6830   5.057   5.285   1.922 -0.4793  0.0488  0.1005
 2289TIP3    H1 6831   4.971   5.286   1.879 -0.1921 -1.7365 -0.6150
 2289TIP3    H2 6832   5.041   5.324   2.008 -1.9801 -0.0963 -0.0783
 2290TIP3   OH2 6833   0.466   2.625   0.941  0.2339 -0.1973 -0.1810
 2290TIP3    H1 6834   0.523   2.660   0.872 -1.2511  0.1710 -1.2784
 2290TIP3    H2 6835   0.524   2.575   0.997  1.8449  1.2264 -0.5166
 2291TIP3   OH2 6836   3.825   2.209   5.366  0.2298 -0.1449  0.6435
 2291TIP3    H1 6837   3.789   2.144   5.425  0.6348 -1.1425 -0.1891
 2291TIP3    H2 6838   3.828   2.166   5.281  1.9454  0.4179  0.3839
 2292TIP3   OH2 6839   3.771   2.609   0.955  0.1736 -0.2655 -0.3476
 2292TIP3    H1 6840   3.852   2.580   0.914  1.3227  2.7535 -0.4281
 2292TIP3    H2 6841   3.707   2.609   0.883  0.6714 -0.5741 -0.7965
 2293TIP3   OH2 6842   3.181   5.966   3.654  0.1497 -0.0197 -0.3893
 2293TIP3    H1 6843   3.160   5.894   3.713  1.5546 -0.4404 -0.3673
 2293TIP3    H2 6844   3.257   6.008   3.695 -1.2623  2.1712  0.1782
 2294TIP3   OH2 6845   7.090   4.831   2.245 -0.0999  0.4879 -0.7008
 2294TIP3    H1 6846   7.051   4.845   2.159 -1.6115 -1.4033 -0.3923
 2294TIP3    H2 6847   7.050   4.898   2.300  0.1414  1.0986 -1.2571
 2295TIP3   OH2 6848   0.374   6.320  -0.031 -0.0070 -0.0163  0.0204
 2295TIP3    H1 6849   0.328   6.242  -0.001 -0.9657  0.5839  0.1865
 2295TIP3    H2 6850   0.397   6.367   0.050 -0.4740  0.4309 -0.0955
 2296TIP3   OH2 6851   4.445   6.271   0.904 -0.4613 -1.0633  0.4531
 2296TIP3    H1 6852   4.356   6.261   0.871 -1.2744  2.3649  1.2112
 2296TIP3    H2 6853   4.435   6.278   0.999  0.3144  1.2681  0.4192
 2297TIP3   OH2 6854   6.544   3.623   1.282 -0.8492 -0.3120 -0.4491
 2297TIP3    H1 6855   6.488   3.688   1.240 -1.0520 -0.4870 -0.4492
 2297TIP3    H2 6856   6.625   3.625   1.231 -0.8209  0.0057 -0.3928
 2298TIP3   OH2 6857   5.939   6.138   0.684 -0.3909  0.3248  0.6873
 2298TIP3    H1 6858   5.865   6.078   0.699  0.9604 -1.2687  1.3597
 2298TIP3    H2 6859   5.994   6.128   0.762  1.2062  0.4233 -0.3818
 2299TIP3   OH2 6860   2.281   1.937   1.049  0.3220 -0.1373 -0.1232
 2299TIP3    H1 6861   2.318   1.982   0.973 -1.4419  2.1528  0.2581
 2299TIP3    H2 6862   2.187   1.933   1.031 -0.1160  0.2966  1.7945
 2300TIP3   OH2 6863   6.247   5.538   4.211 -0.2478  0.2818 -0.0069
 2300TIP3    H1 6864   6.213   5.529   4.301 -0.6197 -0.2096 -0.1903
 2300TIP3    H2 6865   6.287   5.454   4.192 -0.7772  0.1414 -0.5457
 2301TIP3   OH2 6866   5.840   2.193   4.254 -0.2895  0.5201 -0.0151
 2301TIP3    H1 6867   5.768   2.247   4.284 -1.0478  0.6721 -1.9306
 2301TIP3    H2 6868   5.834   2.113   4.306 -1.5802  0.7197  0.1773
 2302TIP3   OH2 6869   2.599   6.538   3.293 -0.2524  0.2938 -0.1767
 2302TIP3    H1 6870   2.631   6.583   3.371 -0.1208 -0.9714  0.5332
 2302TIP3    H2 6871   2.582   6.608   3.230 -2.9131  1.6870  1.8450
 2303TIP3   OH2 6872   2.986   2.768   2.170 -0.4810  0.3982  0.2439
 2303TIP3    H1 6873   2.967   2.834   2.103 -0.4052 -0.4928 -0.6723
 2303TIP3    H2 6874   3.022   2.818   2.243  1.1427  1.2146 -1.0617
 2304TIP3   OH2 6875  -0.018   1.389   5.855 -0.0495 -0.4284  0.0179
 2304TIP3    H1 6876   0.069   1.429   5.860  0.5316 -1.4371 -1.4029
 2304TIP3    H2 6877  -0.038   1.386   5.761  0.0013 -3.5059  0.0084
 2305TIP3   OH2 6878   2.101   2.800   1.445  0.6031 -0.0440  0.2228
 2305TIP3    H1 6879   2.133   2.769   1.530 -0.1676  0.7742  0.8251
 2305TIP3    H2 6880   2.008   2.819   1.460  0.3322 -0.3898 -0.9468
 2306TIP3   OH2 6881   5.511   2.784   0.797  0.3082 -0.6835  0.7013
 2306TIP3    H1 6882   5.463   2.751   0.721 -0.6568  1.4445  0.3174
 2306TIP3    H2 6883   5.516   2.709   0.857 -0.5124 -1.8930 -0.6779
 2307TIP3   OH2 6884   0.956   5.725   3.698  0.0947 -0.0500 -0.2170
 2307TIP3    H1 6885   0.966   5.768   3.783  0.2488 -0.2628 -0.1266
 2307TIP3    H2 6886   0.998   5.639   3.709 -1.7647 -0.9578  0.1639
 2308TIP3   OH2 6887   1.831   3.362   2.163 -0.7376 -0.1320  1.0753
 2308TIP3    H1 6888   1.912   3.394   2.202 -0.5781 -0.1106  0.7347
 2308TIP3    H2 6889   1.793   3.438   2.120 -2.6205  0.7026  3.9153
 2309TIP3   OH2 6890   2.577   4.629   4.766 -0.0360 -0.8166 -0.4257
 2309TIP3    H1 6891   2.511   4.645   4.833  0.3753 -0.6161 -0.0696
 2309TIP3    H2 6892   2.547   4.678   4.690  0.1016 -0.0928 -0.0195
 2310TIP3   OH2 6893   5.062   3.619   0.389  0.2552 -0.2279  0.1463
 2310TIP3    H1 6894   4.980   3.577   0.363 -0.5268  1.9577 -1.1403
 2310TIP3    H2 6895   5.056   3.624   0.485 -1.3007  0.1944  0.0600
 2311TIP3   OH2 6896   3.765   3.390   1.472 -0.2681 -0.0352 -0.0052
 2311TIP3    H1 6897   3.758   3.318   1.535 -1.3141  0.6962  0.7297
 2311TIP3    H2 6898   3.690   3.379   1.414 -0.5461  0.5689  0.2301
 2312TIP3   OH2 6899   2.243   3.717   3.647 -0.4303  0.1982 -0.2229
 2312TIP3    H1 6900   2.329   3.711   3.605 -0.1640  0.6059  0.2595
 2312TIP3    H2 6901   2.194   3.642   3.612 -0.5231  1.0018 -1.9752
 2313TIP3   OH2 6902   2.352   5.962   4.822  0.2428  0.4409  0.0250
 2313TIP3    H1 6903   2.379   5.921   4.904  1.8111 -1.4183 -1.3349
 2313TIP3    H2 6904   2.354   5.891   4.758  1.1516  2.2548 -2.0821
 2314TIP3   OH2 6905   1.170   3.449   1.069  0.3206 -0.0099  0.0883
 2314TIP3    H1 6906   1.081   3.414   1.062 -0.0755  0.8830  0.4390
 2314TIP3    H2 6907   1.204   3.411   1.150 -0.7561  1.7288  1.4460
 2315TIP3   OH2 6908   2.489   4.742   4.110  0.3323  0.4513 -0.8895
 2315TIP3    H1 6909   2.421   4.808   4.097 -0.1423  0.6704  2.0459
 2315TIP3    H2 6910   2.442   4.658   4.102  0.0666  0.5630 -0.5076
 2316TIP3   OH2 6911   3.476   4.798   3.941  0.0571 -0.0199 -0.4160
 2316TIP3    H1 6912   3.556   4.819   3.893 -0.1341 -2.0169 -1.6981
 2316TIP3    H2 6913   3.490   4.836   4.028  1.9011  0.6322 -0.9446
 2317TIP3   OH2 6914   0.485   4.480   3.442 -0.6620 -0.0249 -0.6368
 2317TIP3    H1 6915   0.511   4.419   3.512 -1.0831 -1.2484 -1.5210
 2317TIP3    H2 6916   0.558   4.542   3.436 -0.4033 -0.1853  0.5496
 2318TIP3   OH2 6917   2.941   0.457   2.997  0.4186  0.5103 -0.2058
 2318TIP3    H1 6918   2.993   0.463   2.918 -0.3559 -0.6699 -0.8361
 2318TIP3    H2 6919   2.924   0.548   3.022  1.3653  0.8917 -0.9079
 2319TIP3   OH2 6920   0.021   0.915   0.203 -0.8319  0.5198  0.3243
 2319TIP3    H1 6921   0.055   1.004   0.193 -0.8207  0.6012  1.0241
 2319TIP3    H2 6922   0.097   0.864   0.233 -1.6550  1.0826  3.7897
 2320TIP3   OH2 6923   7.092   3.508   2.669 -0.2777  0.4515 -0.2066
 2320TIP3    H1 6924   7.104   3.414   2.657  0.0851  0.4878 -0.1452
 2320TIP3    H2 6925   7.102   3.545   2.582 -1.0886  0.3685 -0.3411
 2321TIP3   OH2 6926   2.966   2.501   4.946  0.4223 -0.0693 -0.0330
 2321TIP3    H1 6927   3.000   2.584   4.914 -0.5490  0.6739  0.7732
 2321TIP3    H2 6928   2.871   2.511   4.942  0.2820 -1.3966 -0.5240
 2322TIP3   OH2 6929   3.040   5.956   1.743 -0.3736  0.4313  0.5762
 2322TIP3    H1 6930   2.979   5.940   1.671 -1.5960  1.2654  1.3858
 2322TIP3    H2 6931   3.007   5.902   1.815 -0.7288  1.6213  1.3209
 2323TIP3   OH2 6932   1.388   3.858   2.927 -0.8702 -0.0003 -0.2357
 2323TIP3    H1 6933   1.452   3.808   2.876  0.9114 -0.3419  2.1437
 2323TIP3    H2 6934   1.407   3.949   2.906  1.5975  0.0083  1.5593
 2324TIP3   OH2 6935   1.499   0.381   1.123 -0.4045 -0.1605 -0.1114
 2324TIP3    H1 6936   1.462   0.425   1.047 -0.2487  0.3302  0.0947
 2324TIP3    H2 6937   1.482   0.440   1.196  1.3011  0.3839 -0.1057
 2325TIP3   OH2 6938   4.855   3.966   5.286  0.0210 -0.1559  0.3946
 2325TIP3    H1 6939   4.828   4.057   5.290  2.6269  0.7631 -0.9020
 2325TIP3    H2 6940   4.773   3.917   5.278 -1.4017  2.1023  0.2662
 2326TIP3   OH2 6941   4.520   2.966   1.983  0.3900 -0.2027  0.1896
 2326TIP3    H1 6942   4.469   2.887   1.967 -0.9911  1.0201 -1.9668
 2326TIP3    H2 6943   4.497   2.992   2.073 -0.6075 -1.2037  0.2426
 2327TIP3   OH2 6944   0.658   4.691   3.414  0.1402 -0.4892 -0.3865
 2327TIP3    H1 6945   0.690   4.642   3.338  0.9826  0.7904 -0.8922
 2327TIP3    H2 6946   0.670   4.783   3.390  0.8906 -0.0540  1.4810
 2328TIP3   OH2 6947   5.835   3.954   5.235  0.2589 -0.0139 -0.0110
 2328TIP3    H1 6948   5.889   3.986   5.162 -0.5056  1.0146 -0.1353
 2328TIP3    H2 6949   5.787   4.031   5.265 -1.3654 -0.9735 -0.0840
 2329TIP3   OH2 6950   4.548   0.500   4.505  0.1594  0.0627  0.4930
 2329TIP3    H1 6951   4.585   0.475   4.420  1.3490 -0.1365  1.0391
 2329TIP3    H2 6952   4.624   0.506   4.563 -0.6041  0.4493  1.4866
 2330TIP3   OH2 6953   0.966   1.646   3.353 -0.3963  0.3423 -0.0348
 2330TIP3    H1 6954   0.976   1.574   3.290 -0.2923 -0.6023  1.0169
 2330TIP3    H2 6955   0.913   1.711   3.307 -1.7448 -1.0344 -0.5515
 2331TIP3   OH2 6956   0.719   2.440   5.465  0.2377 -0.5650  0.2000
 2331TIP3    H1 6957   0.673   2.412   5.545  0.1648 -1.4962 -0.1600
 2331TIP3    H2 6958   0.656   2.424   5.395 -1.3597  4.0227  0.2501
 2332TIP3   OH2 6959   3.654   6.434   2.486 -0.0061 -0.0581  0.0076
 2332TIP3    H1 6960   3.601   6.514   2.481  0.3222  0.0979 -1.6871
 2332TIP3    H2 6961   3.744   6.465   2.480  0.1330 -0.5343 -0.4131
 2333TIP3   OH2 6962   6.354   0.169   1.062  0.1611 -0.4734  0.2018
 2333TIP3    H1 6963   6.419   0.222   1.017  1.5820 -1.8022  0.5910
 2333TIP3    H2 6964   6.337   0.216   1.144  0.6119 -0.1019  0.0838
 2334TIP3   OH2 6965   3.512   2.287   3.597 -0.1689  0.3584 -0.6784
 2334TIP3    H1 6966   3.478   2.199   3.613 -0.9593  0.5577 -1.1990
 2334TIP3    H2 6967   3.503   2.299   3.502  1.8928  0.2168 -0.9524
 2335TIP3   OH2 6968   5.810   1.259   0.179 -0.4978  0.6059  0.2308
 2335TIP3    H1 6969   5.872   1.186   0.177 -0.9822  0.1649  0.9366
 2335TIP3    H2 6970   5.833   1.307   0.259 -2.0234 -0.4303  1.3340
 2336TIP3   OH2 6971   0.117   1.851   5.853 -0.2960 -0.6188 -0.1811
 2336TIP3    H1 6972   0.189   1.914   5.863 -0.4779 -0.5095  0.4816
 2336TIP3    H2 6973   0.103   1.845   5.758  1.1529 -1.2859 -0.3731
 2337TIP3   OH2 6974   3.230   5.687   5.237  0.1559 -0.3764  0.1819
 2337TIP3    H1 6975   3.153   5.635   5.215 -1.3138  2.1473 -1.0725
 2337TIP3    H2 6976   3.300   5.650   5.184 -1.2498 -0.0642 -2.0350
 2338TIP3   OH2 6977   1.162   1.191   0.809 -0.4424 -0.5239  0.7130
 2338TIP3    H1 6978   1.239   1.134   0.808 -0.2731 -0.4691  3.2910
 2338TIP3    H2 6979   1.125   1.184   0.721  1.9520 -1.2962 -0.3114
 2339TIP3   OH2 6980   3.488   1.739   2.179 -0.1439 -0.0052 -0.2419
 2339TIP3    H1 6981   3.428   1.809   2.202 -1.1645 -0.3442 -1.7479
 2339TIP3    H2 6982   3.436   1.659   2.187  0.0697 -0.3014 -1.6077
 2340TIP3   OH2 6983   3.122   5.864   0.132  0.1737 -0.2785 -0.2933
 2340TIP3    H1 6984   3.059   5.896   0.197  0.1923 -0.1497 -0.3399
 2340TIP3    H2 6985   3.126   5.769   0.148 -0.6104 -0.4050 -0.7972
 2341TIP3   OH2 6986   4.934   0.271   1.419 -0.4326 -0.1243  0.0944
 2341TIP3    H1 6987   4.890   0.342   1.371  0.6377  0.6673  0.2495
 2341TIP3    H2 6988   4.892   0.272   1.505  0.1610  0.9325  0.3963
 2342TIP3   OH2 6989   4.154   1.131   5.703  0.2904 -0.0734 -0.6755
 2342TIP3    H1 6990   4.081   1.161   5.649  0.6824 -0.1417 -1.2484
 2342TIP3    H2 6991   4.134   1.039   5.721  0.2430 -0.0984 -0.8506
 2343TIP3   OH2 6992   6.218   2.680   3.948 -0.3303  0.0821  0.2276
 2343TIP3    H1 6993   6.195   2.720   3.864 -1.1471 -1.0174 -0.1034
 2343TIP3    H2 6994   6.212   2.586   3.932  1.9486 -0.2346  0.8558
 2344TIP3   OH2 6995   2.836   0.273   2.815  0.5185  0.3871 -0.1633
 2344TIP3    H1 6996   2.813   0.347   2.871  1.8162  0.9428 -0.3397
 2344TIP3    H2 6997   2.757   0.257   2.763  0.4793  2.1943 -0.7161
 2345TIP3   OH2 6998   4.185   1.704   0.366 -1.0586 -0.4346  0.4715
 2345TIP3    H1 6999   4.123   1.657   0.422 -1.0017 -2.0193 -0.7437
 2345TIP3    H2 7000   4.139   1.716   0.283 -0.3063 -0.2225  0.0764
 2346TIP3   OH2 7001   1.205   3.698   1.179  0.2315  0.2701 -0.2130
 2346TIP3    H1 7002   1.129   3.684   1.235  0.9759 -0.3557  0.6782
 2346TIP3    H2 7003   1.207   3.622   1.120 -0.1440  0.5672 -0.6119
 2347TIP3   OH2 7004   2.616   4.070   0.837  0.7885 -1.0712 -0.1523
 2347TIP3    H1 7005   2.610   4.098   0.746 -0.0784 -0.3893  0.0932
 2347TIP3    H2 7006   2.700   4.104   0.868  1.1915 -1.5055 -0.7522
 2348TIP3   OH2 7007   5.123   4.879   5.807 -0.3446 -0.1069  0.1574
 2348TIP3    H1 7008   5.192   4.943   5.791 -0.8453 -0.0368 -2.1523
 2348TIP3    H2 7009   5.051   4.930   5.845 -0.1954  0.4281 -0.2627
 2349TIP3   OH2 7010   6.763   5.403   0.040 -0.6460 -0.0069 -0.2658
 2349TIP3    H1 7011   6.828   5.429   0.105 -0.9566 -0.7295  0.3455
 2349TIP3    H2 7012   6.812   5.397  -0.042 -0.3424  1.3447 -0.2035
 2350TIP3   OH2 7013   3.499   2.828   2.584 -0.1371 -0.0244  0.0654
 2350TIP3    H1 7014   3.438   2.755   2.577 -0.7005  0.5424 -1.1515
 2350TIP3    H2 7015   3.467   2.893   2.522  1.5427  0.4045 -0.4224
 2351TIP3   OH2 7016   1.078   3.215   1.945 -0.4955  0.5554 -0.0677
 2351TIP3    H1 7017   1.019   3.207   1.871 -0.3533 -1.0871 -0.0381
 2351TIP3    H2 7018   1.022   3.244   2.018 -0.5314  2.7819 -0.8828
 2352TIP3   OH2 7019   4.487   0.845   1.452  0.2832  0.0971 -0.1809
 2352TIP3    H1 7020   4.397   0.818   1.433  0.1865  0.6093 -0.4688
 2352TIP3    H2 7021   4.486   0.940   1.441  0.7356  0.1652  0.3337
 2353TIP3   OH2 7022   3.606   5.857   4.418  0.4506  0.0695  0.2950
 2353TIP3    H1 7023   3.572   5.809   4.494 -0.2443  0.2773  0.1239
 2353TIP3    H2 7024   3.696   5.878   4.442  0.8424 -1.4885  0.2978
 2354TIP3   OH2 7025   7.019   2.627   3.948  0.5461 -0.0723  0.2346
 2354TIP3    H1 7026   7.004   2.672   4.030  0.1948  1.2285 -0.5117
 2354TIP3    H2 7027   6.935   2.634   3.901  1.4125  1.3495 -1.2024
 2355TIP3   OH2 7028   5.871   2.348   2.904 -0.4210  0.2978  0.4045
 2355TIP3    H1 7029   5.897   2.264   2.943 -1.0660  0.0216  0.2454
 2355TIP3    H2 7030   5.800   2.326   2.845  0.9884  0.6026 -1.5034
 2356TIP3   OH2 7031   2.752   3.953   3.201  0.4104 -0.1897  0.1269
 2356TIP3    H1 7032   2.775   3.906   3.120  0.0522 -0.4548  0.1769
 2356TIP3    H2 7033   2.835   3.989   3.232  1.4420 -3.6998  1.9842
 2357TIP3   OH2 7034   4.637   1.714   1.379  0.0855 -0.5280 -0.2248
 2357TIP3    H1 7035   4.603   1.803   1.391 -1.4379 -1.2710  1.5965
 2357TIP3    H2 7036   4.558   1.661   1.367  0.9282 -1.7437 -0.5220
 2358TIP3   OH2 7037   4.357   2.799   5.078  0.0764  0.1652  0.0909
 2358TIP3    H1 7038   4.408   2.754   5.146 -2.4117 -0.6219  1.5908
 2358TIP3    H2 7039   4.390   2.889   5.079  3.1568 -0.8474 -0.9068
 2359TIP3   OH2 7040   3.503   5.717   2.325 -0.0371 -0.1769 -0.4516
 2359TIP3    H1 7041   3.474   5.738   2.414 -0.1587  0.8223 -0.7138
 2359TIP3    H2 7042   3.423   5.723   2.272 -0.0658 -1.2730 -0.5657
 2360TIP3   OH2 7043   4.122   0.731   5.310  0.0683  0.0827 -0.2009
 2360TIP3    H1 7044   4.202   0.761   5.266  0.8870 -1.1602  0.3870
 2360TIP3    H2 7045   4.103   0.646   5.270  0.8692 -1.1178  1.7887
 2361TIP3   OH2 7046   6.500   2.682   0.993  0.4493  0.3585  0.5679
 2361TIP3    H1 7047   6.561   2.621   0.950 -1.5094  0.1265 -2.1358
 2361TIP3    H2 7048   6.533   2.769   0.969 -0.4696  0.2344 -1.3492
 2362TIP3   OH2 7049   0.968   5.843   5.507 -0.0200  0.1942  0.5978
 2362TIP3    H1 7050   0.890   5.795   5.482  0.1224 -0.2255  0.9415
 2362TIP3    H2 7051   0.956   5.930   5.470 -0.1973 -0.1598 -0.1883
 2363TIP3   OH2 7052   4.735   0.050   5.368  0.0453  0.0676 -0.0458
 2363TIP3    H1 7053   4.826   0.034   5.341 -0.2877  0.4209 -1.4929
 2363TIP3    H2 7054   4.704   0.116   5.306 -2.2053 -2.3940 -1.7878
 2364TIP3   OH2 7055   3.276   0.702   0.135 -0.2690  0.3250  0.1580
 2364TIP3    H1 7056   3.341   0.649   0.088  0.0496  2.3066 -1.8365
 2364TIP3    H2 7057   3.192   0.677   0.096 -0.0534  1.6273 -1.2519
 2365TIP3   OH2 7058   5.576   3.014   2.868  0.2013  0.3174  0.2836
 2365TIP3    H1 7059   5.661   2.970   2.864  0.4741  0.8691 -0.0558
 2365TIP3    H2 7060   5.597   3.107   2.861 -0.4297  0.4577  0.2487
 2366TIP3   OH2 7061   3.127   1.831   0.514  0.1582  0.0784  0.0039
 2366TIP3    H1 7062   3.189   1.786   0.456  0.7303  0.8810 -0.0300
 2366TIP3    H2 7063   3.151   1.924   0.507  0.7889  0.1259  2.1823
 2367TIP3   OH2 7064   0.238   2.061   5.495  0.6740  0.5756 -0.2373
 2367TIP3    H1 7065   0.195   2.119   5.433  0.5250  0.0660 -0.6237
 2367TIP3    H2 7066   0.198   2.081   5.580  0.1102  0.5399 -0.4881
 2368TIP3   OH2 7067   1.514   4.350   2.944 -0.7532 -0.1251 -0.2909
 2368TIP3    H1 7068   1.470   4.296   2.879  0.6010 -0.6691 -0.7890
 2368TIP3    H2 7069   1.450   4.360   3.015 -1.4847 -1.2986 -0.7671
 2369TIP3   OH2 7070   2.397   5.016   4.573 -0.2214 -0.0745 -0.2290
 2369TIP3    H1 7071   2.468   5.077   4.587  1.2665 -2.1186  1.9013
 2369TIP3    H2 7072   2.414   4.979   4.486  0.1636  0.8529 -0.5590
 2370TIP3   OH2 7073   5.558   4.816   1.135 -0.0239  0.0954  0.1053
 2370TIP3    H1 7074   5.565   4.753   1.063  0.2130 -0.0539  0.2580
 2370TIP3    H2 7075   5.470   4.853   1.126  0.0247  0.1174 -0.2945
 2371TIP3   OH2 7076   2.259   6.267   5.587 -0.1384 -0.2624 -0.3733
 2371TIP3    H1 7077   2.198   6.338   5.604 -0.1999 -0.6565  1.2051
 2371TIP3    H2 7078   2.215   6.213   5.521 -1.9839 -1.0436  1.3788
 2372TIP3   OH2 7079   0.907   5.242   4.152  0.9810 -0.1485  0.0285
 2372TIP3    H1 7080   0.932   5.153   4.179  0.1937 -0.5769 -0.6120
 2372TIP3    H2 7081   0.986   5.294   4.164  2.5334 -1.6427 -2.8557
 2373TIP3   OH2 7082   4.491   1.160   3.327  0.3181 -0.2495 -0.4099
 2373TIP3    H1 7083   4.446   1.146   3.244  0.5659 -0.5011 -0.5072
 2373TIP3    H2 7084   4.421   1.171   3.391  0.1150 -0.8053 -0.5304
 2374TIP3   OH2 7085   4.486   4.105   4.866 -0.2248 -0.7153 -0.0636
 2374TIP3    H1 7086   4.408   4.124   4.918 -2.8042 -2.4321 -2.9428
 2374TIP3    H2 7087   4.540   4.184   4.874 -2.8955  1.1618  1.0070
 2375TIP3   OH2 7088   1.506   2.074   3.492 -0.1910  0.3511 -0.6270
 2375TIP3    H1 7089   1.530   2.109   3.407  1.7144 -0.3551 -0.4422
 2375TIP3    H2 7090   1.544   2.136   3.555 -0.1879  0.0313 -0.3077
 2376TIP3   OH2 7091   3.232   0.319   2.358  0.1718 -0.1840 -0.0027
 2376TIP3    H1 7092   3.272   0.232   2.358  2.8979  0.9705 -0.8177
 2376TIP3    H2 7093   3.222   0.340   2.451  2.4714 -0.1772  0.3074
 2377TIP3   OH2 7094   0.675   0.521   1.295 -0.3633 -0.5140  0.5368
 2377TIP3    H1 7095   0.630   0.550   1.375  0.8787 -2.2055  1.9556
 2377TIP3    H2 7096   0.607   0.477   1.244 -1.0573  0.0624  0.9505
 2378TIP3   OH2 7097   2.035   1.771   1.097 -0.1289  0.7964 -0.1298
 2378TIP3    H1 7098   2.019   1.823   1.176  0.8744  0.6692  0.1828
 2378TIP3    H2 7099   1.975   1.806   1.032 -0.7981  1.0780  0.6145
 2379TIP3   OH2 7100   4.277   3.474   4.664  0.7267  0.1528  0.6331
 2379TIP3    H1 7101   4.272   3.543   4.730  0.7666  0.8678 -0.1021
 2379TIP3    H2 7102   4.194   3.481   4.616  1.5888  1.0598 -0.7774
 2380TIP3   OH2 7103   4.046   4.289   5.400 -0.1502 -0.6172 -0.1074
 2380TIP3    H1 7104   3.985   4.293   5.326  0.8050 -1.2955 -0.9473
 2380TIP3    H2 7105   4.076   4.379   5.411 -1.6569 -0.1811  0.6330
 2381TIP3   OH2 7106   2.683   2.441   0.939 -0.0494 -0.3006 -0.0963
 2381TIP3    H1 7107   2.758   2.395   0.977  1.4224  2.5906  0.8450
 2381TIP3    H2 7108   2.672   2.403   0.852  2.9708 -0.4079 -0.5276
 2382TIP3   OH2 7109   4.144   4.080   1.913  0.1371 -0.1254 -0.6513
 2382TIP3    H1 7110   4.182   4.057   1.829 -1.2960 -0.4162 -1.2375
 2382TIP3    H2 7111   4.092   4.159   1.896 -1.3339 -1.0080 -0.3780
 2383TIP3   OH2 7112   1.536   2.531   2.855  0.1939  0.5748  0.1586
 2383TIP3    H1 7113   1.544   2.449   2.807  1.5458 -0.1838  1.5863
 2383TIP3    H2 7114   1.573   2.597   2.795  0.9573 -0.1887 -0.2390
 2384TIP3   OH2 7115   4.811   3.926   0.901 -0.5881  0.0489 -0.4407
 2384TIP3    H1 7116   4.771   3.903   0.817  0.3445  1.3054 -1.2847
 2384TIP3    H2 7117   4.857   3.847   0.929 -0.9003 -0.3812 -1.1415
 2385TIP3   OH2 7118   4.248   2.016   1.364 -0.4253  0.1695 -0.3529
 2385TIP3    H1 7119   4.340   1.998   1.382 -0.7333 -1.1770 -0.0453
 2385TIP3    H2 7120   4.243   2.112   1.362  0.7023  0.3038  1.0812
 2386TIP3   OH2 7121   3.605   2.066   0.383  0.2262 -0.4333 -0.8331
 2386TIP3    H1 7122   3.695   2.097   0.379  0.0913 -0.0185 -0.7247
 2386TIP3    H2 7123   3.585   2.064   0.477 -1.0941  3.1312 -0.8592
 2387TIP3   OH2 7124   1.019   3.834   4.146  0.0026 -0.1076 -0.7804
 2387TIP3    H1 7125   0.984   3.768   4.086  0.8932 -0.3097 -1.0913
 2387TIP3    H2 7126   1.090   3.789   4.192  1.0561  0.8139 -1.4692
 2388TIP3   OH2 7127   6.116   0.648   2.029  0.0449 -0.6105 -0.0949
 2388TIP3    H1 7128   6.108   0.571   1.974 -0.2645 -0.2509 -0.5603
 2388TIP3    H2 7129   6.162   0.712   1.974 -0.3014 -0.2349  0.0441
 2389TIP3   OH2 7130   6.300   3.643   3.854  0.0141  0.1946 -0.1175
 2389TIP3    H1 7131   6.324   3.661   3.945  1.5112 -0.7718 -0.2876
 2389TIP3    H2 7132   6.371   3.679   3.802 -0.5128  0.1655 -0.8748
 2390TIP3   OH2 7133   1.295   2.271   4.496  0.8463 -0.2388 -0.3871
 2390TIP3    H1 7134   1.311   2.330   4.569  0.6268  1.9811 -2.0156
 2390TIP3    H2 7135   1.382   2.244   4.467  0.9167 -1.4835  0.9265
 2391TIP3   OH2 7136   2.463   2.629   0.859  0.0718 -0.1447  0.1019
 2391TIP3    H1 7137   2.400   2.616   0.930  1.5985  0.0558  1.5428
 2391TIP3    H2 7138   2.541   2.582   0.887  1.2047  1.1499 -0.7714
 2392TIP3   OH2 7139   2.921   3.331   1.251 -0.2952 -0.1708  0.1554
 2392TIP3    H1 7140   2.882   3.283   1.178  1.4009 -2.4826  0.6597
 2392TIP3    H2 7141   3.001   3.368   1.215 -0.6362  0.7147  0.2772
 2393TIP3   OH2 7142   5.995   0.998   3.308  0.2488  0.4809  0.1567
 2393TIP3    H1 7143   6.079   1.031   3.276 -0.1145  0.6255 -0.6737
 2393TIP3    H2 7144   5.963   0.942   3.237 -0.0691 -0.0701  0.7328
 2394TIP3   OH2 7145   2.678   1.690   5.053  0.4926  0.1098 -1.1922
 2394TIP3    H1 7146   2.675   1.746   4.975 -0.3840  1.1915 -0.4143
 2394TIP3    H2 7147   2.762   1.646   5.047  2.3479  3.2493 -0.6855
 2395TIP3   OH2 7148   4.222   4.395   2.572  0.2721 -0.2192  0.2044
 2395TIP3    H1 7149   4.314   4.377   2.550 -0.0230 -0.0567 -1.2397
 2395TIP3    H2 7150   4.223   4.410   2.667  1.6188 -0.9227  0.3316
 2396TIP3   OH2 7151   0.879   1.521   4.146  0.0666 -0.0554  0.0863
 2396TIP3    H1 7152   0.880   1.517   4.241 -1.2052 -1.1383  0.0791
 2396TIP3    H2 7153   0.873   1.614   4.125 -0.0396  0.1657  1.0622
 2397TIP3   OH2 7154   3.045   6.346   1.406 -0.0339 -0.1398 -0.5636
 2397TIP3    H1 7155   3.107   6.417   1.385 -0.3140  0.2750 -0.0055
 2397TIP3    H2 7156   2.974   6.357   1.342 -0.3291  0.4125 -0.1528
 2398TIP3   OH2 7157   4.732   0.909   2.139  0.2183 -0.2710 -0.1319
 2398TIP3    H1 7158   4.758   0.829   2.094  2.3643 -0.8592  1.9620
 2398TIP3    H2 7159   4.656   0.883   2.191  0.3659 -0.7103 -0.1308
 2399TIP3   OH2 7160   2.201   2.730   0.963 -0.3293  0.1318  0.0578
 2399TIP3    H1 7161   2.244   2.740   0.879 -1.5332  0.6644 -0.5320
 2399TIP3    H2 7162   2.173   2.819   0.986 -1.1583 -0.1896  0.3633
 2400TIP3   OH2 7163   5.452   0.288   1.699 -0.3340 -0.0924  0.1061
 2400TIP3    H1 7164   5.400   0.209   1.683 -0.5566  0.1222 -0.2525
 2400TIP3    H2 7165   5.443   0.305   1.792 -1.7034  0.4948 -0.1146
 2401TIP3   OH2 7166   3.538   2.123   0.981 -0.2185 -0.2762 -0.3065
 2401TIP3    H1 7167   3.458   2.150   1.027  0.2254 -0.7017  0.7487
 2401TIP3    H2 7168   3.569   2.203   0.938 -1.2611 -0.1353 -0.8196
 2402TIP3   OH2 7169   6.742   1.125   4.030  0.2095  0.7290 -0.2883
 2402TIP3    H1 7170   6.708   1.039   4.006  0.3565  0.0818  1.7005
 2402TIP3    H2 7171   6.832   1.108   4.060  0.0887  1.5003  0.5387
 2403TIP3   OH2 7172   0.823   5.496   4.066 -0.3223 -0.2781  0.1818
 2403TIP3    H1 7173   0.790   5.484   3.977  0.0415 -0.9230  0.1238
 2403TIP3    H2 7174   0.831   5.407   4.100  2.0633 -0.2301 -0.0811
 2404TIP3   OH2 7175   0.393   0.546   5.105 -0.1400 -0.2666  0.2622
 2404TIP3    H1 7176   0.460   0.589   5.052 -1.2463  2.0157  0.6173
 2404TIP3    H2 7177   0.420   0.561   5.195 -1.7964  1.9714  0.4559
 2405TIP3   OH2 7178   6.274   1.366   0.944  0.4112 -0.1613 -0.2114
 2405TIP3    H1 7179   6.220   1.437   0.909  1.0030  0.5763  0.3479
 2405TIP3    H2 7180   6.296   1.394   1.033 -0.2969 -1.5846  0.4328
 2406TIP3   OH2 7181   5.141   6.196   3.042 -0.8275  0.1859 -0.0924
 2406TIP3    H1 7182   5.157   6.102   3.030 -0.6225 -0.1192  2.1949
 2406TIP3    H2 7183   5.228   6.235   3.048 -0.9173  0.3379  0.2287
 2407TIP3   OH2 7184   6.246   2.532   0.216  0.2320 -0.1774 -0.5236
 2407TIP3    H1 7185   6.154   2.511   0.198  0.2490  1.1445 -2.3400
 2407TIP3    H2 7186   6.295   2.464   0.170  0.1814 -0.0863 -0.7136
 2408TIP3   OH2 7187   5.363   3.501   4.144 -0.7885  0.1488  0.1855
 2408TIP3    H1 7188   5.411   3.431   4.188  0.7993  0.1130 -1.4395
 2408TIP3    H2 7189   5.389   3.580   4.191  0.4125  0.0451 -0.2466
 2409TIP3   OH2 7190   1.107   6.127   5.155 -0.2772 -0.0151  0.5726
 2409TIP3    H1 7191   1.111   6.152   5.248  0.2211 -1.7551  1.0555
 2409TIP3    H2 7192   1.047   6.052   5.154  0.7021 -0.7950 -0.3217
 2410TIP3   OH2 7193   5.650   3.120   4.701  0.1043 -0.0306  0.1716
 2410TIP3    H1 7194   5.716   3.053   4.715  0.7863  0.5006 -0.4108
 2410TIP3    H2 7195   5.566   3.074   4.709  0.4022 -0.2877  3.4400
 2411TIP3   OH2 7196   3.175   0.496   1.483  0.1844  0.2914  0.8789
 2411TIP3    H1 7197   3.100   0.441   1.506 -0.5203  2.1907  3.7181
 2411TIP3    H2 7198   3.141   0.557   1.417 -0.0487 -0.3944  0.3596
 2412TIP3   OH2 7199   4.950   6.076   4.915  0.3136 -0.2947  0.1599
 2412TIP3    H1 7200   4.999   6.082   4.833 -0.8440  2.8198 -0.4592
 2412TIP3    H2 7201   4.863   6.045   4.889  0.3544 -0.6238  0.4179
 2413TIP3   OH2 7202   0.563   1.952   0.900 -0.5064 -0.1845 -0.0891
 2413TIP3    H1 7203   0.534   1.866   0.872 -1.1554  0.3876 -1.2107
 2413TIP3    H2 7204   0.647   1.965   0.855 -1.4757  0.6702 -1.7430
 2414TIP3   OH2 7205   4.289   1.155   4.965 -0.1861  0.6779 -0.1803
 2414TIP3    H1 7206   4.245   1.125   5.044  1.6495 -0.3534  0.4995
 2414TIP3    H2 7207   4.246   1.106   4.894 -0.5093  0.1248  0.3848
 2415TIP3   OH2 7208   0.643   6.057   4.371  0.1802  0.8605  0.2205
 2415TIP3    H1 7209   0.675   6.099   4.292 -1.0840  0.0070 -0.7779
 2415TIP3    H2 7210   0.552   6.085   4.379  0.5513  1.7160  1.9334
 2416TIP3   OH2 7211   4.510   0.907   2.363  0.8727 -0.2829  0.1540
 2416TIP3    H1 7212   4.438   0.845   2.351  0.9252 -0.7393  1.8591
 2416TIP3    H2 7213   4.470   0.993   2.351 -0.4348 -0.4293  2.7555
 2417TIP3   OH2 7214   5.878   1.371   0.440 -0.1893  0.8147 -0.1289
 2417TIP3    H1 7215   5.903   1.305   0.504 -1.8334 -1.3259 -1.5652
 2417TIP3    H2 7216   5.959   1.391   0.393  0.5872  0.8541  1.1854
 2418TIP3   OH2 7217   3.471   4.627   0.464  0.3079  0.3632 -0.2524
 2418TIP3    H1 7218   3.458   4.673   0.546  0.1902 -2.2483  1.3105
 2418TIP3    H2 7219   3.383   4.597   0.439  0.5413 -0.1279 -0.5063
 2419TIP3   OH2 7220   2.980   3.285   4.146  0.6284  0.1085  0.1673
 2419TIP3    H1 7221   2.889   3.287   4.115  0.1168 -1.3120  1.4180
 2419TIP3    H2 7222   3.010   3.375   4.140 -0.7008  0.5175 -0.7440
 2420TIP3   OH2 7223   5.944   2.246   0.036 -0.4952  0.4938 -0.1416
 2420TIP3    H1 7224   6.027   2.286   0.010 -1.1864  1.6151 -0.6749
 2420TIP3    H2 7225   5.908   2.211  -0.045 -0.0351 -1.0185  0.2716
 2421TIP3   OH2 7226   7.216   1.614   3.027 -0.1172  0.5139 -0.1196
 2421TIP3    H1 7227   7.153   1.562   3.077 -0.0988  0.2162 -0.4063
 2421TIP3    H2 7228   7.176   1.701   3.021 -0.6060  0.2692 -0.4844
 2422TIP3   OH2 7229   0.563   0.948   2.293  0.0001 -0.8625  0.6675
 2422TIP3    H1 7230   0.533   0.915   2.378 -3.7602  0.3886  0.0254
 2422TIP3    H2 7231   0.588   0.869   2.244 -1.7469 -2.0775  1.6050
 2423TIP3   OH2 7232   2.193   2.394   5.316 -0.0461 -0.1204 -0.1935
 2423TIP3    H1 7233   2.164   2.461   5.254  2.6666 -1.2262 -2.9517
 2423TIP3    H2 7234   2.138   2.318   5.297 -0.2817  0.0293 -0.1120
 2424TIP3   OH2 7235   6.642   2.611   1.588 -0.2024 -0.5229  0.0391
 2424TIP3    H1 7236   6.694   2.602   1.508 -1.7159 -1.7354 -0.8806
 2424TIP3    H2 7237   6.681   2.684   1.635  0.4795  0.5167 -2.0359
 2425TIP3   OH2 7238   2.136   1.421   5.503 -0.0187 -0.2147  0.5532
 2425TIP3    H1 7239   2.171   1.443   5.589  0.4122 -0.9287  0.5662
 2425TIP3    H2 7240   2.047   1.388   5.521 -0.0455 -0.0642  0.6938
 2426TIP3   OH2 7241   1.991   1.105   0.933  0.3547 -0.2687 -0.3184
 2426TIP3    H1 7242   2.061   1.166   0.959  1.3464 -1.4580 -0.1031
 2426TIP3    H2 7243   1.974   1.054   1.012 -2.5050  1.5497  0.3933
 2427TIP3   OH2 7244   2.659   4.941   1.021 -0.0715  0.3439 -0.3553
 2427TIP3    H1 7245   2.745   4.981   1.013 -0.0974  0.3702 -0.5037
 2427TIP3    H2 7246   2.647   4.892   0.940 -0.5568  1.0462 -0.7225
 2428TIP3   OH2 7247   4.013   1.555   3.815 -0.1579  0.3887  0.3892
 2428TIP3    H1 7248   4.054   1.574   3.899  1.9752 -1.1673 -0.1986
 2428TIP3    H2 7249   4.051   1.619   3.755 -0.1915  0.2481  0.2189
 2429TIP3   OH2 7250   2.314   0.658   0.030  0.2850 -0.1594  0.0967
 2429TIP3    H1 7251   2.231   0.629   0.067 -0.0076 -0.7527 -0.9812
 2429TIP3    H2 7252   2.291   0.731  -0.027  0.2841 -1.1778 -1.2591
 2430TIP3   OH2 7253   3.967   1.220   1.551 -0.4699  0.1577 -0.2928
 2430TIP3    H1 7254   3.915   1.153   1.596  2.2680 -0.9923  1.4592
 2430TIP3    H2 7255   3.999   1.177   1.472  0.8173 -0.4764  0.5420
 2431TIP3   OH2 7256   4.560   5.208   5.686 -0.5206  0.1449 -0.3575
 2431TIP3    H1 7257   4.592   5.127   5.726 -1.2825 -0.5083 -1.0232
 2431TIP3    H2 7258   4.636   5.266   5.684 -0.2086 -0.1855  1.0411
 2432TIP3   OH2 7259   5.547   5.572   0.843 -0.2752  0.1637 -0.1115
 2432TIP3    H1 7260   5.510   5.616   0.767  0.1103  1.6573  0.5281
 2432TIP3    H2 7261   5.642   5.583   0.833 -0.1926 -0.2267  0.2280
 2433TIP3   OH2 7262   4.185   0.706   4.901 -0.6176  0.5031 -0.1518
 2433TIP3    H1 7263   4.273   0.704   4.939 -0.5752 -0.3831 -0.2688
 2433TIP3    H2 7264   4.127   0.720   4.976 -0.6454 -2.5483  0.5460
 2434TIP3   OH2 7265   3.742   4.485   3.915 -0.0338 -0.1850 -0.2426
 2434TIP3    H1 7266   3.740   4.572   3.953 -2.6679 -0.3624  0.2115
 2434TIP3    H2 7267   3.805   4.491   3.844  0.3271  1.8913  0.1999
 2435TIP3   OH2 7268   6.162   6.108   4.330 -0.0128 -0.0135 -0.4674
 2435TIP3    H1 7269   6.224   6.153   4.273  0.7051  1.9886  1.7130
 2435TIP3    H2 7270   6.197   6.020   4.339  1.3099  0.4275 -1.0209
 2436TIP3   OH2 7271   0.781   1.692   0.730  0.2566 -0.3255 -0.8606
 2436TIP3    H1 7272   0.795   1.755   0.660 -0.1790  0.2295 -0.4614
 2436TIP3    H2 7273   0.715   1.632   0.695 -1.0171  0.7705 -0.4446
 2437TIP3   OH2 7274   0.645   2.899   3.638 -0.3135  0.2632  0.0331
 2437TIP3    H1 7275   0.604   2.938   3.561  2.1640  3.1308 -0.0377
 2437TIP3    H2 7276   0.727   2.862   3.605  0.6249  1.2458  1.1502
 2438TIP3   OH2 7277   3.964   5.015   4.164 -0.2927  0.5122 -0.0916
 2438TIP3    H1 7278   3.968   5.077   4.092  3.1654 -0.3137 -0.7642
 2438TIP3    H2 7279   3.891   5.046   4.218 -0.7422  3.2143 -2.0555
 2439TIP3   OH2 7280   5.531   2.730   0.022  0.3452  0.3776  0.0149
 2439TIP3    H1 7281   5.506   2.652  -0.028  1.0643 -0.2937  0.6619
 2439TIP3    H2 7282   5.551   2.696   0.110  0.1441  1.3719  0.4654
 2440TIP3   OH2 7283   0.086   2.913   4.853 -0.7842 -0.5173 -0.6275
 2440TIP3    H1 7284   0.071   2.853   4.926  0.6745 -1.0341 -0.7270
 2440TIP3    H2 7285   0.157   2.970   4.882 -0.2980 -0.6175 -1.5641
 2441TIP3   OH2 7286   6.272   3.006   0.937  0.1928  0.3266 -0.5423
 2441TIP3    H1 7287   6.201   2.968   0.885 -0.2166 -0.8202  0.8042
 2441TIP3    H2 7288   6.328   3.049   0.872 -1.9160  1.6501 -1.6256
 2442TIP3   OH2 7289   1.661   2.410   1.459 -0.4368 -0.3164  0.6991
 2442TIP3    H1 7290   1.673   2.382   1.550 -1.1583 -0.8278  0.6405
 2442TIP3    H2 7291   1.605   2.343   1.420 -1.6997  0.8723  0.3927
 2443TIP3   OH2 7292   1.936   3.401   5.111  0.3866 -0.1268 -0.1809
 2443TIP3    H1 7293   1.884   3.478   5.137  0.4870  0.0089 -0.3888
 2443TIP3    H2 7294   1.990   3.383   5.188 -1.2629 -1.3815  0.7682
 2444TIP3   OH2 7295   3.870   0.349   5.225 -0.1137  0.5556  0.2454
 2444TIP3    H1 7296   3.871   0.441   5.250 -0.6597 -0.1041  2.9791
 2444TIP3    H2 7297   3.962   0.321   5.231 -0.2942  0.2587  2.4242
 2445TIP3   OH2 7298   0.361   5.705   4.453 -0.2464  0.3412  0.5822
 2445TIP3    H1 7299   0.348   5.794   4.420  1.4661  1.1220  1.8537
 2445TIP3    H2 7300   0.412   5.717   4.533  0.9366 -1.8426  0.2252
 2446TIP3   OH2 7301   4.739   5.768   4.373 -0.9383  0.2394 -0.3261
 2446TIP3    H1 7302   4.745   5.673   4.381 -1.3204  0.2065 -0.4099
 2446TIP3    H2 7303   4.656   5.791   4.416 -0.6172  0.5879  0.1167
 2447TIP3   OH2 7304   1.093   3.198   5.707 -0.1343 -0.0824  0.0029
 2447TIP3    H1 7305   1.174   3.218   5.755  0.3984  0.8388 -1.2415
 2447TIP3    H2 7306   1.117   3.207   5.615 -1.1497 -1.7768 -0.4750
 2448TIP3   OH2 7307   0.333   4.428   5.735  0.3096  0.1072 -0.1855
 2448TIP3    H1 7308   0.240   4.406   5.726  0.2602  0.0300  0.4978
 2448TIP3    H2 7309   0.334   4.512   5.780  0.4168  2.7392 -4.5006
 2449TIP3   OH2 7310   4.891   4.571   0.807 -0.1252 -0.2772  0.0804
 2449TIP3    H1 7311   4.945   4.493   0.795  0.9416  0.1942  1.4789
 2449TIP3    H2 7312   4.805   4.537   0.834  0.3798 -0.9874  0.8495
 2450TIP3   OH2 7313   6.028   2.960   2.764  0.2225 -0.7017 -0.0477
 2450TIP3    H1 7314   6.021   3.046   2.804 -0.9964 -0.5792 -0.4668
 2450TIP3    H2 7315   5.964   2.961   2.693 -1.4830 -2.6386  1.2837
 2451TIP3   OH2 7316   4.432   0.992   4.168  0.2306 -0.3077  0.1102
 2451TIP3    H1 7317   4.392   0.925   4.224  1.2958 -1.1684 -0.1086
 2451TIP3    H2 7318   4.478   1.049   4.229  0.2195 -0.4149  0.2201
 2452TIP3   OH2 7319   3.926   2.438   5.660 -0.1080  0.3417  0.3968
 2452TIP3    H1 7320   3.831   2.444   5.650 -0.6138 -3.7897  0.9221
 2452TIP3    H2 7321   3.958   2.428   5.570 -0.8255 -2.7938  0.3694
 2453TIP3   OH2 7322   3.040   5.296   4.838  0.4537 -0.0695  0.0867
 2453TIP3    H1 7323   3.096   5.373   4.833  0.2631  0.3054  2.5331
 2453TIP3    H2 7324   3.096   5.223   4.810  1.3105  0.6534 -0.0923
 2454TIP3   OH2 7325   3.901   2.535   4.850 -0.2220 -0.0566  0.0763
 2454TIP3    H1 7326   3.877   2.512   4.940  1.0442 -0.2027  0.3894
 2454TIP3    H2 7327   3.993   2.559   4.855  0.1542 -1.0556 -1.3591
 2455TIP3   OH2 7328   7.042   6.398   0.363  0.0826 -0.1035  0.0644
 2455TIP3    H1 7329   7.098   6.419   0.288 -0.3136 -0.6117 -0.3766
 2455TIP3    H2 7330   6.960   6.369   0.324 -0.1879 -0.1953  0.7012
 2456TIP3   OH2 7331   3.954   2.770  -0.024  0.8859  0.3996 -1.1690
 2456TIP3    H1 7332   4.001   2.815   0.046  0.3054  0.0938 -0.5795
 2456TIP3    H2 7333   3.978   2.678  -0.015  0.3229  0.2712 -0.9847
 2457TIP3   OH2 7334   0.807   3.966   1.023  0.8008 -0.1844 -0.2030
 2457TIP3    H1 7335   0.772   4.019   0.953  1.4339  0.6862  0.1169
 2457TIP3    H2 7336   0.796   4.019   1.102 -1.8158 -1.9745  0.7570
 2458TIP3   OH2 7337   1.982   2.551   4.116 -0.0700 -0.3971 -0.0660
 2458TIP3    H1 7338   1.898   2.508   4.101  1.2390 -2.9256 -0.8669
 2458TIP3    H2 7339   2.023   2.501   4.187  0.8470  0.6484  0.1728
 2459TIP3   OH2 7340   1.259   3.415   3.288 -0.6243 -0.2719  0.1626
 2459TIP3    H1 7341   1.283   3.327   3.257  1.4885  0.3010 -0.0043
 2459TIP3    H2 7342   1.277   3.472   3.213 -2.9481  0.2297 -0.0756
 2460TIP3   OH2 7343   1.582   5.849   3.611 -0.3112 -0.6875  0.3183
 2460TIP3    H1 7344   1.591   5.904   3.534  0.7975 -0.5022  0.5675
 2460TIP3    H2 7345   1.661   5.795   3.613  0.0677 -0.1357  1.7330
 2461TIP3   OH2 7346   1.749   1.488   4.530 -0.3960 -0.1700 -0.2407
 2461TIP3    H1 7347   1.771   1.576   4.559 -0.9905 -0.6046  1.6317
 2461TIP3    H2 7348   1.828   1.459   4.483  0.7270  0.5140  1.1328
 2462TIP3   OH2 7349   3.692   0.904   2.578 -0.4851  0.3099  0.1596
 2462TIP3    H1 7350   3.619   0.842   2.584  1.5116 -2.0636  3.1783
 2462TIP3    H2 7351   3.686   0.955   2.659  1.9626 -1.0432  1.3044
 2463TIP3   OH2 7352   3.588   2.693   0.723  0.3210 -0.6915  0.6771
 2463TIP3    H1 7353   3.665   2.746   0.703  0.6803 -0.3635  2.7247
 2463TIP3    H2 7354   3.520   2.757   0.745 -0.8394 -0.9432 -1.8708
 2464TIP3   OH2 7355   0.475   4.608   0.768  0.1562  0.1895 -0.1969
 2464TIP3    H1 7356   0.492   4.538   0.832  2.3092  1.1724  0.4037
 2464TIP3    H2 7357   0.506   4.687   0.811 -2.1036  1.5463 -0.9210
 2465TIP3   OH2 7358   0.576   3.509   0.344 -0.5378  0.4969 -0.2966
 2465TIP3    H1 7359   0.484   3.535   0.340 -1.0604 -0.9878  1.0872
 2465TIP3    H2 7360   0.591   3.488   0.436  0.9258 -0.1987 -0.6644
 2466TIP3   OH2 7361   2.794   3.388   2.041  0.3685 -0.3509 -0.5671
 2466TIP3    H1 7362   2.839   3.371   2.124  0.7537  0.3438 -0.6261
 2466TIP3    H2 7363   2.716   3.333   2.045 -0.3278  0.6651  0.8544
 2467TIP3   OH2 7364   2.270   6.482   2.293  0.0976 -0.0139 -0.9768
 2467TIP3    H1 7365   2.294   6.569   2.326 -0.4311  0.1360 -0.9791
 2467TIP3    H2 7366   2.266   6.494   2.198  1.4596 -0.4046 -1.0950
 2468TIP3   OH2 7367   5.043   5.448   5.301 -0.3683 -0.2304 -0.0542
 2468TIP3    H1 7368   5.019   5.358   5.278  0.9049 -0.4285 -0.7398
 2468TIP3    H2 7369   5.052   5.493   5.217 -1.7220  0.7677  0.3072
 2469TIP3   OH2 7370   2.599   0.980   4.019 -0.3428 -0.0497  0.1242
 2469TIP3    H1 7371   2.667   0.929   4.063  1.3370  0.8598 -1.2406
 2469TIP3    H2 7372   2.627   1.071   4.030 -0.3087  0.2526 -1.9973
 2470TIP3   OH2 7373   0.738   1.873   5.596 -0.0299  0.4468  0.1985
 2470TIP3    H1 7374   0.734   1.813   5.522 -0.1700  0.5389  0.1341
 2470TIP3    H2 7375   0.831   1.872   5.622 -0.2454 -0.8002  1.0144
 2471TIP3   OH2 7376   2.113   2.430   4.318  0.1693 -0.3706  0.1924
 2471TIP3    H1 7377   2.139   2.499   4.379  1.4923  0.0814 -0.8338
 2471TIP3    H2 7378   2.108   2.351   4.373  1.3924  0.0094  0.8913
 2472TIP3   OH2 7379   1.407   5.968   2.808 -0.1527  0.1383 -0.6941
 2472TIP3    H1 7380   1.410   5.977   2.713  0.2894 -1.1376 -0.8170
 2472TIP3    H2 7381   1.348   6.037   2.837 -0.0028  0.7801 -1.8592
 2473TIP3   OH2 7382   6.063   3.104   0.335 -0.3754 -0.0196  0.6330
 2473TIP3    H1 7383   6.122   3.175   0.310 -0.5857 -0.2276 -0.5063
 2473TIP3    H2 7384   5.988   3.149   0.373 -0.5852  0.3999 -0.2400
 2474TIP3   OH2 7385   5.602   4.397   1.645  0.0592 -0.7121  0.6058
 2474TIP3    H1 7386   5.546   4.324   1.671  1.4129 -1.0449  2.8641
 2474TIP3    H2 7387   5.543   4.472   1.642 -0.8266 -1.3609  1.1711
 2475TIP3   OH2 7388   1.408   1.287   0.977  0.4487  0.2069  0.7607
 2475TIP3    H1 7389   1.399   1.202   1.018  2.1046 -0.7526 -0.7378
 2475TIP3    H2 7390   1.339   1.289   0.911 -0.1566  0.4084  1.3944
 2476TIP3   OH2 7391   2.793   5.391   0.248 -0.2044 -0.2160 -0.3064
 2476TIP3    H1 7392   2.888   5.388   0.261 -0.5413 -1.4500  2.6547
 2476TIP3    H2 7393   2.773   5.307   0.207 -0.3935 -2.3694  3.6765
 2477TIP3   OH2 7394   4.539   2.482   2.943 -0.4879  0.2310  0.3311
 2477TIP3    H1 7395   4.603   2.425   2.902 -0.0166  0.8998  0.1276
 2477TIP3    H2 7396   4.480   2.422   2.989 -0.8873 -0.5197 -1.1007
 2478TIP3   OH2 7397   6.823   6.101   3.284 -0.2235  0.1131  0.1545
 2478TIP3    H1 7398   6.797   6.017   3.245 -1.3349  0.2499  0.5667
 2478TIP3    H2 7399   6.831   6.160   3.209  1.2338 -0.4935 -0.2156
 2479TIP3   OH2 7400   4.072   2.422   1.534 -0.1494 -0.4054  0.2723
 2479TIP3    H1 7401   4.083   2.514   1.510  0.2096  0.0200  1.8925
 2479TIP3    H2 7402   3.981   2.415   1.562 -0.5068 -0.8395 -0.9763
 2480TIP3   OH2 7403   6.464   1.401   2.464 -0.0108 -0.1228 -0.5842
 2480TIP3    H1 7404   6.369   1.390   2.469  0.1770 -1.9965 -0.5629
 2480TIP3    H2 7405   6.488   1.363   2.380  0.6780  0.8604 -0.8539
 2481TIP3   OH2 7406   0.110   4.154   2.890 -0.5369  0.4522  0.2851
 2481TIP3    H1 7407   0.070   4.108   2.964 -1.4132  1.5744  0.5372
 2481TIP3    H2 7408   0.195   4.182   2.922  0.1310 -1.1784  0.0404
 2482TIP3   OH2 7409   6.532   0.716   1.865 -0.3425  0.0036 -0.1109
 2482TIP3    H1 7410   6.582   0.775   1.809  0.2953  0.1757  0.6169
 2482TIP3    H2 7411   6.583   0.636   1.869 -0.2024  0.1139  0.4882
 2483TIP3   OH2 7412   5.720   4.909   0.243  0.6334  0.0241 -0.3037
 2483TIP3    H1 7413   5.728   4.932   0.336  2.1371  2.0309 -0.8388
 2483TIP3    H2 7414   5.811   4.904   0.212  0.2019  1.9512 -2.1688
 2484TIP3   OH2 7415   6.864   3.444   0.935  0.2604 -0.6408  0.4695
 2484TIP3    H1 7416   6.939   3.453   0.876 -0.2116  3.0094  0.2350
 2484TIP3    H2 7417   6.788   3.465   0.881 -0.5710 -0.8568  1.5218
 2485TIP3   OH2 7418   3.830   2.163   3.241 -0.2835  0.2546  0.3279
 2485TIP3    H1 7419   3.831   2.070   3.216 -0.8538  0.1713  0.5955
 2485TIP3    H2 7420   3.825   2.161   3.337 -0.9815  0.5490  0.3081
 2486TIP3   OH2 7421   2.503   1.019   5.731 -0.1922 -0.4578 -0.5677
 2486TIP3    H1 7422   2.559   1.002   5.807  1.1196 -0.9508 -1.5911
 2486TIP3    H2 7423   2.423   0.970   5.748 -1.0883  1.6448  1.7364
 2487TIP3   OH2 7424   0.603   3.134   4.447  0.1107  0.0880 -0.2685
 2487TIP3    H1 7425   0.675   3.087   4.489 -0.1005  0.7664  0.9021
 2487TIP3    H2 7426   0.581   3.081   4.371  1.6421 -0.2895 -0.4767
 2488TIP3   OH2 7427   4.416   5.778   4.695  0.1532 -0.4805  0.0970
 2488TIP3    H1 7428   4.481   5.710   4.712  2.7275  1.7596 -0.1257
 2488TIP3    H2 7429   4.425   5.798   4.602 -0.7356 -0.0137  0.0983
 2489TIP3   OH2 7430   5.504   6.618   1.652  0.4546 -0.7034  0.3393
 2489TIP3    H1 7431   5.531   6.674   1.579  0.0150  1.7043  1.9049
 2489TIP3    H2 7432   5.496   6.531   1.614  1.9030  0.1336 -2.0769
 2490TIP3   OH2 7433   0.298   4.918   2.072 -0.4005  0.2159 -0.6993
 2490TIP3    H1 7434   0.259   5.002   2.048 -0.2521  0.1942 -1.0157
 2490TIP3    H2 7435   0.255   4.895   2.154 -0.3380  0.6714 -0.5355
 2491TIP3   OH2 7436   2.098   1.276   1.461 -0.2069 -0.3388  0.2762
 2491TIP3    H1 7437   2.173   1.226   1.430  1.0968  1.7633 -0.1487
 2491TIP3    H2 7438   2.121   1.367   1.444 -1.2608  0.6620  3.5806
 2492TIP3   OH2 7439   0.638   5.170   1.207 -0.3585 -0.5987  0.7559
 2492TIP3    H1 7440   0.601   5.227   1.274 -0.5634 -0.0411  0.1745
 2492TIP3    H2 7441   0.625   5.081   1.240 -0.1544 -0.3174  1.6075
 2493TIP3   OH2 7442   2.610   1.596   1.605  0.3870  0.3324 -0.2913
 2493TIP3    H1 7443   2.539   1.532   1.619 -0.4017  1.1813 -0.3293
 2493TIP3    H2 7444   2.608   1.613   1.511  0.3207  0.7176 -0.2204
 2494TIP3   OH2 7445   2.732   4.940   5.499 -0.3059 -0.0854 -0.4607
 2494TIP3    H1 7446   2.704   4.922   5.589 -0.7946  0.7434 -0.4317
 2494TIP3    H2 7447   2.827   4.951   5.506 -0.3610  0.1415 -0.0078
 2495TIP3   OH2 7448   2.332   0.958   3.584 -0.0001  0.2389  0.5193
 2495TIP3    H1 7449   2.379   0.937   3.665  0.4027  0.6206  0.3869
 2495TIP3    H2 7450   2.309   1.051   3.593 -0.0082  0.2666  0.2258
 2496TIP3   OH2 7451   4.884   4.929   2.260 -0.1634 -0.3396  0.5909
 2496TIP3    H1 7452   4.949   4.967   2.319  1.0474  0.2375 -1.0295
 2496TIP3    H2 7453   4.848   5.004   2.212  1.1735 -1.0249 -1.5966
 2497TIP3   OH2 7454   7.062   3.422   1.129 -0.1572 -0.0870 -0.4151
 2497TIP3    H1 7455   7.002   3.407   1.056  0.5333 -3.3516 -0.4434
 2497TIP3    H2 7456   7.143   3.378   1.103  0.1445 -1.2698  2.2027
 2498TIP3   OH2 7457   6.611   3.111   4.308  0.5823 -0.2796 -0.6005
 2498TIP3    H1 7458   6.595   3.186   4.364  0.3121  0.5777 -1.7890
 2498TIP3    H2 7459   6.607   3.036   4.367  0.2577  0.5778  0.5043
 2499TIP3   OH2 7460   2.214   3.210   5.698  0.5195 -0.3405  0.0379
 2499TIP3    H1 7461   2.142   3.193   5.637  1.7384 -0.6561 -1.3807
 2499TIP3    H2 7462   2.263   3.280   5.657  1.5682 -0.7952  0.4888
 2500TIP3   OH2 7463   1.576   3.688   0.683 -0.0652  0.1872 -0.1624
 2500TIP3    H1 7464   1.481   3.681   0.673 -0.1307  1.6204 -0.8148
 2500TIP3    H2 7465   1.595   3.780   0.663  1.6646 -0.4884 -1.9196
 2501TIP3   OH2 7466   0.696   1.307   1.701  0.1819  0.2838  0.3409
 2501TIP3    H1 7467   0.726   1.383   1.651  0.0791  0.2216  0.1794
 2501TIP3    H2 7468   0.619   1.339   1.748 -1.1706 -0.2527 -1.3883
 2502TIP3   OH2 7469   1.935   5.070   1.146  0.1831 -0.2300 -0.3754
 2502TIP3    H1 7470   2.012   5.089   1.092 -0.5304 -0.2263 -1.4310
 2502TIP3    H2 7471   1.965   5.007   1.211  0.9252 -0.6991 -1.1674
 2503TIP3   OH2 7472   5.168   6.106   0.589 -1.1768 -0.0132  0.6597
 2503TIP3    H1 7473   5.108   6.064   0.528 -1.7673 -0.4481  1.5225
 2503TIP3    H2 7474   5.239   6.140   0.534 -0.5998 -2.2401 -0.0834
 2504TIP3   OH2 7475   0.440   1.348   2.395 -0.1746 -0.0094  0.0417
 2504TIP3    H1 7476   0.514   1.315   2.446  0.2768  0.6955 -0.1466
 2504TIP3    H2 7477   0.422   1.280   2.331 -0.1645 -0.5069  0.5663
 2505TIP3   OH2 7478   4.922   5.383   4.877  0.2514 -0.0422 -0.3695
 2505TIP3    H1 7479   4.972   5.323   4.822 -1.0216  0.3187 -1.9861
 2505TIP3    H2 7480   4.914   5.337   4.961  3.5080  0.0229  0.1014
 2506TIP3   OH2 7481   2.994   3.921   3.717 -0.4293  0.3266  0.2649
 2506TIP3    H1 7482   3.075   3.897   3.763 -0.6305 -3.1109 -0.8955
 2506TIP3    H2 7483   3.020   3.991   3.657  1.7909 -0.9355 -0.3265
 2507TIP3   OH2 7484   0.388   2.295   4.554 -0.1091 -0.0114 -0.2254
 2507TIP3    H1 7485   0.443   2.339   4.619 -0.0473  1.7053 -1.3953
 2507TIP3    H2 7486   0.338   2.365   4.513 -0.5469 -1.1164 -1.6680
 2508TIP3   OH2 7487   1.745   5.849   1.590 -0.3696  0.2287  0.1475
 2508TIP3    H1 7488   1.749   5.879   1.681 -0.2710 -0.7441  0.4664
 2508TIP3    H2 7489   1.798   5.769   1.589 -0.6824  0.0297 -0.6886
 2509TIP3   OH2 7490   3.950   5.002   3.457 -0.5371  0.2411  0.1783
 2509TIP3    H1 7491   3.929   5.026   3.367 -0.3332 -0.0927  0.0413
 2509TIP3    H2 7492   4.034   5.046   3.474  0.2022 -0.9457 -0.3151
 2510TIP3   OH2 7493   2.306   6.147   5.142 -0.5480 -0.0420  0.1269
 2510TIP3    H1 7494   2.340   6.077   5.086  2.8665  1.0799  0.5826
 2510TIP3    H2 7495   2.232   6.182   5.093  0.6548 -0.8264 -2.4461
 2511TIP3   OH2 7496   2.989   6.151   3.781 -0.2434  0.1472 -0.4635
 2511TIP3    H1 7497   3.055   6.089   3.749  0.4672 -0.5801  2.1723
 2511TIP3    H2 7498   3.039   6.229   3.805 -0.3636 -0.2243  1.0818
 2512TIP3   OH2 7499   3.329   0.259   0.534  0.3895 -0.2308 -0.1483
 2512TIP3    H1 7500   3.382   0.332   0.566  1.3965 -0.5253 -1.0820
 2512TIP3    H2 7501   3.277   0.296   0.462 -1.3492  0.2582  1.2753
 2513TIP3   OH2 7502   2.469   6.755   4.034  0.1800 -0.0098  0.0911
 2513TIP3    H1 7503   2.503   6.711   4.112 -0.2148  0.5015  0.5629
 2513TIP3    H2 7504   2.379   6.777   4.056  0.1483  0.3801 -0.4095
 2514TIP3   OH2 7505   1.076   0.143   2.449  0.4617 -0.2956  0.1352
 2514TIP3    H1 7506   1.098   0.068   2.505  1.3031 -0.7042 -0.7044
 2514TIP3    H2 7507   1.098   0.114   2.360 -1.7400  0.0032 -0.5472
 2515TIP3   OH2 7508   6.913   1.323   2.467  0.3354  0.1931  0.1855
 2515TIP3    H1 7509   6.949   1.379   2.399 -0.8507  0.8384  0.0656
 2515TIP3    H2 7510   6.829   1.363   2.490 -0.8613 -1.8390 -0.3566
 2516TIP3   OH2 7511   7.027   0.385   3.404  0.0409  0.3407  0.0115
 2516TIP3    H1 7512   6.952   0.436   3.374 -0.3411 -1.0233 -1.4950
 2516TIP3    H2 7513   7.063   0.436   3.477 -1.1762  1.9951 -0.4789
 2517TIP3   OH2 7514   1.904   5.462   5.090  0.0659 -1.0272 -0.0887
 2517TIP3    H1 7515   1.864   5.488   5.173 -1.0887 -0.8516 -0.6694
 2517TIP3    H2 7516   1.978   5.407   5.114  0.5204  0.0663  1.0845
 2518TIP3   OH2 7517   6.672   1.729   3.260  0.6331  0.2541  0.4629
 2518TIP3    H1 7518   6.669   1.635   3.276 -1.3714  0.4883  1.7886
 2518TIP3    H2 7519   6.640   1.768   3.341  1.1741  2.0796 -0.1565
 2519TIP3   OH2 7520   3.502   5.979   1.398 -0.5163  0.1172  0.0017
 2519TIP3    H1 7521   3.553   5.977   1.479 -1.7220 -0.9272  0.7927
 2519TIP3    H2 7522   3.566   5.970   1.328  0.4078 -0.8575  0.9438
 2520TIP3   OH2 7523   1.438   2.632   4.050  0.1877 -0.2847 -0.1415
 2520TIP3    H1 7524   1.465   2.623   3.959  0.4408  0.9701 -0.2012
 2520TIP3    H2 7525   1.391   2.551   4.069 -1.4785  0.1918 -1.9370
 2521TIP3   OH2 7526   4.529   1.055   0.045 -0.3646 -0.5886 -0.2103
 2521TIP3    H1 7527   4.614   1.056   0.089 -0.1997  1.6246 -0.4645
 2521TIP3    H2 7528   4.468   1.025   0.112  0.3527 -0.3738  0.5628
 2522TIP3   OH2 7529   5.997   1.587   1.426 -0.1533 -0.0156 -0.3560
 2522TIP3    H1 7530   6.028   1.661   1.374 -0.8241  1.1078  0.7693
 2522TIP3    H2 7531   5.905   1.578   1.402 -0.1618 -0.2691 -0.2352
 2523TIP3   OH2 7532   6.442   6.479   4.439 -0.0584 -0.1965 -0.5059
 2523TIP3    H1 7533   6.456   6.569   4.469 -0.3321 -0.1398 -0.5508
 2523TIP3    H2 7534   6.362   6.451   4.483  1.1284 -1.1523  1.2197
 2524TIP3   OH2 7535   0.698   4.802   1.845  0.1234  0.1542  0.6876
 2524TIP3    H1 7536   0.780   4.845   1.819  0.4592 -0.1891  1.1719
 2524TIP3    H2 7537   0.629   4.864   1.819  0.6008  0.9902  1.3689
 2525TIP3   OH2 7538   0.817   0.287   5.149 -0.0874  0.2266  0.3045
 2525TIP3    H1 7539   0.764   0.357   5.188 -0.0622 -0.5148  1.7448
 2525TIP3    H2 7540   0.756   0.215   5.135 -0.1704  0.5831 -1.4238
 2526TIP3   OH2 7541   6.780   5.372   2.802 -0.6759 -0.6160  0.4438
 2526TIP3    H1 7542   6.838   5.428   2.750 -0.2360 -1.9248 -0.5124
 2526TIP3    H2 7543   6.766   5.421   2.883  0.8892  0.2242  0.2409
 2527TIP3   OH2 7544   6.748   5.251   1.971  0.3136 -0.2664  0.0934
 2527TIP3    H1 7545   6.840   5.274   1.983  0.1575  0.5581 -0.2331
 2527TIP3    H2 7546   6.734   5.177   2.030  0.8052  0.5490  1.2708
 2528TIP3   OH2 7547   7.194   5.593   2.115  0.0295 -0.2160 -0.3150
 2528TIP3    H1 7548   7.117   5.572   2.169  1.4051 -2.2819  0.9919
 2528TIP3    H2 7549   7.173   5.557   2.029 -1.3387  1.2710 -0.6663
 2529TIP3   OH2 7550   2.112   3.790   1.442  0.1340  0.4449 -0.6646
 2529TIP3    H1 7551   2.022   3.803   1.471  0.0182 -2.7575  0.8266
 2529TIP3    H2 7552   2.107   3.717   1.381  1.6755  0.7016 -1.1478
 2530TIP3   OH2 7553   0.922   6.553   3.006  0.1162  0.1557  0.2955
 2530TIP3    H1 7554   0.972   6.593   3.077 -0.0370  0.3059  0.3196
 2530TIP3    H2 7555   0.832   6.583   3.020  0.2177  0.8300 -0.4144
 2531TIP3   OH2 7556   3.421   4.656   5.362  0.1686  0.3062  0.0737
 2531TIP3    H1 7557   3.451   4.678   5.274  1.8797 -0.6971  0.3468
 2531TIP3    H2 7558   3.432   4.737   5.412  1.4972  0.2657 -0.1124
 2532TIP3   OH2 7559   1.842   3.484   3.725 -0.1345  0.3846 -0.5690
 2532TIP3    H1 7560   1.775   3.418   3.707 -0.6036  0.7578 -0.1902
 2532TIP3    H2 7561   1.902   3.442   3.787 -1.5576  0.9994  1.3031
 2533TIP3   OH2 7562   1.916   3.604   4.908  0.1623  0.6189 -0.1303
 2533TIP3    H1 7563   1.832   3.650   4.903  0.1783  0.5659 -1.5968
 2533TIP3    H2 7564   1.892   3.512   4.925 -0.2483  0.2925 -2.1054
 2534TIP3   OH2 7565   4.763   0.478   4.647  0.5288 -0.4976 -0.1978
 2534TIP3    H1 7566   4.832   0.413   4.637  1.4917  0.7926 -3.2438
 2534TIP3    H2 7567   4.809   0.562   4.653 -0.7130  0.0874  2.4496
 2535TIP3   OH2 7568   5.777   4.309   0.474  0.0738  0.0189  0.3073
 2535TIP3    H1 7569   5.778   4.287   0.567 -0.8784 -0.2216  0.2671
 2535TIP3    H2 7570   5.799   4.228   0.429  2.8489  0.6298  0.3654
 2536TIP3   OH2 7571   5.906   5.562   2.588 -0.3368 -0.5009 -0.3692
 2536TIP3    H1 7572   5.997   5.542   2.608  0.7434  3.2476 -0.8152
 2536TIP3    H2 7573   5.893   5.529   2.499  1.0798  0.2168 -0.8624
 2537TIP3   OH2 7574   1.378   4.863   0.724 -0.1269 -0.1700  0.3923
 2537TIP3    H1 7575   1.473   4.872   0.722 -0.2327  1.1852  0.4962
 2537TIP3    H2 7576   1.363   4.770   0.738  1.1801 -0.4412  0.1235
 2538TIP3   OH2 7577   0.878   1.499   5.267 -0.0233 -0.7077  0.3369
 2538TIP3    H1 7578   0.951   1.476   5.210  0.1289  1.4751 -0.4368
 2538TIP3    H2 7579   0.800   1.487   5.213 -0.0123 -0.2976  0.2289
 2539TIP3   OH2 7580   3.728   6.221   1.696 -0.0636 -0.0760  0.0728
 2539TIP3    H1 7581   3.804   6.173   1.730 -0.0360  0.4483  0.7730
 2539TIP3    H2 7582   3.762   6.268   1.620  0.0212 -0.7782 -0.3377
 2540TIP3   OH2 7583   3.421   5.349   2.077  1.1145 -0.2219 -0.1684
 2540TIP3    H1 7584   3.343   5.405   2.082  1.7342  0.6361 -0.0318
 2540TIP3    H2 7585   3.438   5.341   1.983 -0.5344 -2.4050 -0.3567
 2541TIP3   OH2 7586   1.279   0.434   0.790 -0.0173  0.3409 -0.2873
 2541TIP3    H1 7587   1.184   0.435   0.777  0.1064  1.8881 -1.2383
 2541TIP3    H2 7588   1.292   0.477   0.875 -0.0792  1.8489 -1.0145
 2542TIP3   OH2 7589   5.848   0.929   0.123 -0.0851  0.1512 -0.3058
 2542TIP3    H1 7590   5.899   0.853   0.151 -0.8796 -0.2985 -0.0499
 2542TIP3    H2 7591   5.802   0.900   0.044  1.1045  0.9904 -1.3449
 2543TIP3   OH2 7592   6.874   4.926   0.517  0.6056  0.6310  0.0538
 2543TIP3    H1 7593   6.786   4.888   0.514  0.7535  0.1799  1.0151
 2543TIP3    H2 7594   6.931   4.853   0.541  1.4784  0.5679 -1.9709
 2544TIP3   OH2 7595   0.818   0.831   1.114  0.3588  0.0417 -0.6918
 2544TIP3    H1 7596   0.747   0.820   1.051 -1.0421  1.5619  0.5207
 2544TIP3    H2 7597   0.852   0.742   1.127 -2.5828 -1.1039  0.0500
 2545TIP3   OH2 7598   1.847   0.187   0.510  0.4147 -0.0839 -0.0870
 2545TIP3    H1 7599   1.900   0.109   0.530  0.5231  0.5915  2.7034
 2545TIP3    H2 7600   1.784   0.192   0.581  1.2076  3.0119  0.5617
 2546TIP3   OH2 7601   5.926   4.520   0.321  0.4478  0.4857  0.0014
 2546TIP3    H1 7602   5.934   4.468   0.241  2.5022  0.1490  0.3726
 2546TIP3    H2 7603   5.925   4.456   0.392 -2.8554  0.6824  0.2861
 2547TIP3   OH2 7604   3.089   3.719   2.819  0.5300 -0.0541  0.0774
 2547TIP3    H1 7605   3.015   3.751   2.872 -0.1970 -0.0692 -0.9076
 2547TIP3    H2 7606   3.152   3.686   2.884 -0.1999  0.2110  0.9484
 2548TIP3   OH2 7607   6.378   3.373   3.859 -0.3920 -0.1088 -0.2891
 2548TIP3    H1 7608   6.363   3.466   3.844 -0.1238 -0.0920 -0.4594
 2548TIP3    H2 7609   6.323   3.351   3.935  0.2166  0.3810  0.3024
 2549TIP3   OH2 7610   4.470   4.454   5.855  0.1937  0.5744  0.0089
 2549TIP3    H1 7611   4.377   4.436   5.867  0.3083  0.4706  0.7755
 2549TIP3    H2 7612   4.481   4.545   5.885  0.2586  0.7512 -0.5320
 2550TIP3   OH2 7613   0.770   4.783   2.607 -0.5418  0.1930  0.4730
 2550TIP3    H1 7614   0.704   4.850   2.627  0.9302  1.9656 -0.3751
 2550TIP3    H2 7615   0.760   4.767   2.513  0.5667  0.8782  0.2231
 2551TIP3   OH2 7616   4.938   1.930   1.566  0.3097  0.1019  0.2005
 2551TIP3    H1 7617   4.898   1.967   1.487 -2.9344  0.4983  1.8412
 2551TIP3    H2 7618   4.965   2.007   1.617  1.1646 -0.1180  0.0987
 2552TIP3   OH2 7619   4.294   5.836   3.572 -0.6848  0.0295 -0.3539
 2552TIP3    H1 7620   4.201   5.845   3.594 -0.5082 -0.0092  0.4327
 2552TIP3    H2 7621   4.340   5.862   3.652 -0.0396 -0.7076 -0.4730
 2553TIP3   OH2 7622   4.725   1.024   1.125 -0.2516 -0.2247 -0.5298
 2553TIP3    H1 7623   4.801   1.053   1.075  0.9891  2.6467  2.6305
 2553TIP3    H2 7624   4.762   0.977   1.200 -1.2674  2.7731  2.0470
 2554TIP3   OH2 7625   1.312   3.042   1.052 -0.2161 -0.9485 -0.2724
 2554TIP3    H1 7626   1.275   3.059   1.139 -1.5665  0.7264 -1.0988
 2554TIP3    H2 7627   1.307   2.947   1.041 -0.1461 -1.1741  1.4095
 2555TIP3   OH2 7628   2.841   2.199   4.185 -0.4585 -0.0680  1.0403
 2555TIP3    H1 7629   2.844   2.244   4.269 -1.9728  1.2335  0.4537
 2555TIP3    H2 7630   2.748   2.191   4.165 -0.1619 -1.6171  0.1319
 2556TIP3   OH2 7631   7.186   4.024   1.092 -0.3922  0.4516  0.0726
 2556TIP3    H1 7632   7.227   4.024   1.179  0.6937  1.9253 -0.4125
 2556TIP3    H2 7633   7.092   4.031   1.110 -0.1719  0.8364  1.1260
 2557TIP3   OH2 7634   5.532   6.672   4.015 -0.0437  0.4503 -0.0148
 2557TIP3    H1 7635   5.527   6.582   4.046  1.1221  0.1150 -0.7412
 2557TIP3    H2 7636   5.507   6.667   3.923 -0.2301  0.9068  0.0110
 2558TIP3   OH2 7637   6.532   0.548   2.623  0.4663  0.3450  0.2368
 2558TIP3    H1 7638   6.444   0.562   2.658 -0.5185  0.2257 -2.0110
 2558TIP3    H2 7639   6.590   0.583   2.690 -1.3371  1.7481  1.1635
 2559TIP3   OH2 7640   3.289   5.687   1.649  0.1577 -0.3555  0.8527
 2559TIP3    H1 7641   3.381   5.674   1.670  0.3808  0.3138  0.3396
 2559TIP3    H2 7642   3.290   5.739   1.568 -0.6656  1.0083  1.6748
 2560TIP3   OH2 7643   6.516   6.286   5.458 -0.4623  0.3045 -0.5999
 2560TIP3    H1 7644   6.540   6.198   5.429 -0.5381  0.2663 -0.5451
 2560TIP3    H2 7645   6.536   6.287   5.551  0.4723  0.6600 -0.7874
 2561TIP3   OH2 7646   0.923   1.745   2.204  0.0151  0.7508  0.4687
 2561TIP3    H1 7647   0.830   1.735   2.228  0.1316  0.4884  0.8233
 2561TIP3    H2 7648   0.938   1.677   2.139  0.3783 -0.3357  1.6470
 2562TIP3   OH2 7649   7.188   5.507   1.257  0.0453 -0.2869 -0.0126
 2562TIP3    H1 7650   7.195   5.580   1.196  0.2475 -0.3822 -0.1036
 2562TIP3    H2 7651   7.147   5.437   1.207  2.4817 -1.2367 -0.8350
 2563TIP3   OH2 7652   4.457   3.320   1.110 -0.8276 -0.1726 -0.3077
 2563TIP3    H1 7653   4.378   3.345   1.158  0.3108  2.3703  0.4088
 2563TIP3    H2 7654   4.521   3.389   1.131  1.0952 -1.2993 -2.0827
 2564TIP3   OH2 7655   3.956   0.802   2.835  0.6971  0.1771 -0.7329
 2564TIP3    H1 7656   3.910   0.881   2.865  0.3985  0.3875 -1.7138
 2564TIP3    H2 7657   3.893   0.759   2.776  1.4697  0.0627 -1.4913
 2565TIP3   OH2 7658   6.553   1.864   2.025  0.2714 -0.5272 -0.0826
 2565TIP3    H1 7659   6.538   1.925   1.953 -0.5254 -0.6998 -0.0740
 2565TIP3    H2 7660   6.500   1.787   2.003  1.0901 -1.1389  0.0114
 2566TIP3   OH2 7661   2.007   0.975   2.493 -0.6574  0.3927  0.1306
 2566TIP3    H1 7662   2.006   0.879   2.489  0.3337  0.3751  0.0457
 2566TIP3    H2 7663   1.919   0.999   2.521 -0.4084 -0.6190  1.9066
 2567TIP3   OH2 7664   6.494   2.382   0.624 -0.2525  0.4808 -1.1052
 2567TIP3    H1 7665   6.421   2.322   0.637  0.7927 -0.5712  0.2390
 2567TIP3    H2 7666   6.560   2.330   0.577  0.7085  0.5138  0.1669
 2568TIP3   OH2 7667   6.646   1.159   1.675 -0.0865  0.6445 -0.1849
 2568TIP3    H1 7668   6.614   1.160   1.765 -1.0419  2.3225 -0.5066
 2568TIP3    H2 7669   6.732   1.116   1.680 -0.7713 -0.6208  1.2724
 2569TIP3   OH2 7670   0.685   5.678   2.481  0.0830  0.2839  0.2287
 2569TIP3    H1 7671   0.778   5.662   2.463  0.0364  0.0123  0.2380
 2569TIP3    H2 7672   0.665   5.623   2.556  0.1237  0.9806  0.7619
 2570TIP3   OH2 7673   6.548   0.627   0.946 -0.0110  0.4640  0.1855
 2570TIP3    H1 7674   6.632   0.621   0.991 -0.3224 -2.2523  0.5903
 2570TIP3    H2 7675   6.500   0.695   0.994  1.2318  0.6850  1.1684
 2571TIP3   OH2 7676   7.156   2.629   1.622 -0.2092 -0.1618 -0.1714
 2571TIP3    H1 7677   7.150   2.667   1.710  1.1667  1.5237 -0.7498
 2571TIP3    H2 7678   7.089   2.675   1.572 -0.9849 -1.1152 -0.0520
 2572TIP3   OH2 7679   3.174   1.704   3.177 -0.6220  0.6369 -0.0421
 2572TIP3    H1 7680   3.210   1.663   3.099 -1.9354  0.0890 -0.3897
 2572TIP3    H2 7681   3.153   1.630   3.235  0.2904  1.0312  0.8194
 2573TIP3   OH2 7682   0.816   1.778   1.742  0.2454  0.3721  0.2667
 2573TIP3    H1 7683   0.815   1.867   1.778  0.3814  0.3251  0.3875
 2573TIP3    H2 7684   0.728   1.744   1.760  0.0590  0.6287 -0.1509
 2574TIP3   OH2 7685   4.058   1.928   2.777  0.6169  0.1883  0.1188
 2574TIP3    H1 7686   4.055   1.899   2.868  1.3052 -1.1342 -0.2586
 2574TIP3    H2 7687   4.099   1.856   2.730 -0.9416  0.2742 -1.4752
 2575TIP3   OH2 7688   4.907   5.920   3.164 -0.4361  0.0568 -0.5244
 2575TIP3    H1 7689   4.941   5.842   3.120  1.5512  0.0152  0.9358
 2575TIP3    H2 7690   4.948   5.918   3.250  0.7230  3.3778 -0.8540
 2576TIP3   OH2 7691   5.016   1.053   5.415  0.0337 -0.2661  0.1021
 2576TIP3    H1 7692   5.103   1.018   5.435 -0.5395 -2.3558 -0.7859
 2576TIP3    H2 7693   5.023   1.083   5.324 -0.0881 -0.1633  0.1272
 2577TIP3   OH2 7694   5.050   3.507   1.375  0.1104  0.6389 -0.5733
 2577TIP3    H1 7695   4.970   3.538   1.418  1.4291  0.3097  2.3351
 2577TIP3    H2 7696   5.114   3.577   1.388  0.8926  0.0247 -0.9840
 2578TIP3   OH2 7697   1.273   2.506   2.962  0.4403 -0.1716 -0.3314
 2578TIP3    H1 7698   1.207   2.545   2.904  2.5000  1.3611 -1.7924
 2578TIP3    H2 7699   1.357   2.538   2.928  1.8989 -1.0585  2.1714
 2579TIP3   OH2 7700   2.048   1.397   3.517 -0.2274 -0.1478 -0.2276
 2579TIP3    H1 7701   2.059   1.487   3.547 -0.3080  0.4114 -1.8209
 2579TIP3    H2 7702   1.954   1.380   3.525 -0.0842 -0.4655  1.0307
 2580TIP3   OH2 7703   5.558   1.926   2.066  0.0680 -0.3150  0.1589
 2580TIP3    H1 7704   5.652   1.945   2.063 -0.0209  0.0437 -0.7659
 2580TIP3    H2 7705   5.520   2.001   2.111  0.1427 -0.0853 -0.1572
 2581TIP3   OH2 7706   5.199   5.298   4.381  0.3749  0.0654 -0.8813
 2581TIP3    H1 7707   5.138   5.367   4.408  0.3952  0.8036 -2.6102
 2581TIP3    H2 7708   5.160   5.218   4.416 -2.0385  0.4118 -2.4812
 2582TIP3   OH2 7709   1.261   4.113   1.203  0.6526 -0.0535 -0.2791
 2582TIP3    H1 7710   1.353   4.125   1.226  0.6029  0.6235 -0.4068
 2582TIP3    H2 7711   1.261   4.039   1.142  0.9403 -0.9653  0.7941
 2583TIP3   OH2 7712   1.714   5.933   4.688  0.1306 -0.6591 -0.1824
 2583TIP3    H1 7713   1.624   5.964   4.679 -0.4224 -2.4057 -1.0672
 2583TIP3    H2 7714   1.731   5.933   4.782 -1.3572 -1.8152  0.1085
 2584TIP3   OH2 7715   4.719   0.126   1.034  0.3964  0.2383 -0.1149
 2584TIP3    H1 7716   4.672   0.053   0.994 -2.8442  0.3305  3.0368
 2584TIP3    H2 7717   4.759   0.089   1.113  2.2425  1.1136 -0.5755
 2585TIP3   OH2 7718   4.768   5.110   4.316  0.4358  0.5930  0.1113
 2585TIP3    H1 7719   4.785   5.170   4.389  1.4305 -0.2584  0.5892
 2585TIP3    H2 7720   4.804   5.155   4.239  3.1129 -0.2281  0.7736
 2586TIP3   OH2 7721   4.003   6.661   3.678 -0.0096  0.2467  0.4149
 2586TIP3    H1 7722   4.019   6.704   3.594  0.8651  2.2545  1.5277
 2586TIP3    H2 7723   4.078   6.686   3.732  0.0385 -1.9533  1.4667
 2587TIP3   OH2 7724   3.037   3.676   2.105  0.5168  0.5109 -0.4322
 2587TIP3    H1 7725   3.076   3.763   2.098 -0.9631  1.3895  1.4128
 2587TIP3    H2 7726   3.092   3.631   2.169  0.3428  0.6485 -0.1859
 2588TIP3   OH2 7727   6.823   3.185   5.326  0.0075 -0.3747 -0.1197
 2588TIP3    H1 7728   6.773   3.174   5.245  0.1341  0.9287 -0.4032
 2588TIP3    H2 7729   6.767   3.146   5.393 -1.3565  0.8994 -0.4504
 2589TIP3   OH2 7730   5.790   3.836   4.809 -0.4319 -0.5773  0.1861
 2589TIP3    H1 7731   5.774   3.784   4.731  0.7574  1.0990 -1.2458
 2589TIP3    H2 7732   5.791   3.927   4.778  1.6417  0.0550  1.8317
 2590TIP3   OH2 7733   2.494   6.232   5.491 -0.3058  0.1168 -0.3085
 2590TIP3    H1 7734   2.425   6.244   5.556  0.3335 -0.3674  0.4873
 2590TIP3    H2 7735   2.452   6.187   5.418 -0.5364 -1.5040  0.7723
 2591TIP3   OH2 7736   4.723   0.844   0.591 -0.6573 -0.2894 -0.2182
 2591TIP3    H1 7737   4.651   0.859   0.530  0.5912 -1.3701 -2.0673
 2591TIP3    H2 7738   4.799   0.883   0.548  0.0248  0.1497  1.3330
 2592TIP3   OH2 7739   5.748   3.419   4.008 -0.1213  0.3884  0.1041
 2592TIP3    H1 7740   5.810   3.464   3.951 -0.4656 -0.0245 -0.6104
 2592TIP3    H2 7741   5.737   3.478   4.083 -0.3685  1.3725 -0.6886
 2593TIP3   OH2 7742   0.186   0.364   0.816  0.1170 -0.0558 -0.3762
 2593TIP3    H1 7743   0.172   0.363   0.721 -1.8214 -0.5965 -0.1210
 2593TIP3    H2 7744   0.190   0.271   0.840  0.7458  0.0802  0.0766
 2594TIP3   OH2 7745   2.437   1.367   1.545 -0.0080 -0.8299 -0.0687
 2594TIP3    H1 7746   2.521   1.328   1.520  0.3302 -0.2346  0.1389
 2594TIP3    H2 7747   2.385   1.363   1.465  0.1787 -1.2848 -0.1763
 2595TIP3   OH2 7748   4.643   1.012   3.503  0.0276 -0.2735 -0.9670
 2595TIP3    H1 7749   4.665   1.076   3.570  0.9036 -2.2378  0.7126
 2595TIP3    H2 7750   4.612   1.065   3.429  1.6036  2.1082 -0.0318
 2596TIP3   OH2 7751   4.298   0.931   2.643  0.3609  0.3800  0.0447
 2596TIP3    H1 7752   4.222   0.955   2.589 -0.2339 -1.7825 -0.1787
 2596TIP3    H2 7753   4.369   0.984   2.608 -0.1903 -0.3542 -2.4046
 2597TIP3   OH2 7754   5.324   2.239   3.086 -0.2074 -0.0135  0.3455
 2597TIP3    H1 7755   5.392   2.183   3.049 -0.1366  0.1039  0.2980
 2597TIP3    H2 7756   5.370   2.317   3.115 -0.4165  0.3536 -0.2870
 2598TIP3   OH2 7757   0.201   1.423   2.949 -0.2510 -0.0157 -0.0611
 2598TIP3    H1 7758   0.228   1.469   2.869  1.6796 -0.3977  0.3222
 2598TIP3    H2 7759   0.156   1.489   3.001 -2.8086 -0.0908 -2.0089
 2599TIP3   OH2 7760   4.582   4.917   0.250 -0.2562  0.5796  0.0070
 2599TIP3    H1 7761   4.513   4.957   0.303 -1.1970 -0.8256 -0.1068
 2599TIP3    H2 7762   4.660   4.920   0.306 -0.7210  0.9797  0.6490
 2600TIP3   OH2 7763   6.895   3.896   1.243 -0.3272 -0.1875  0.0713
 2600TIP3    H1 7764   6.899   3.832   1.314 -1.8118 -0.9852 -0.5230
 2600TIP3    H2 7765   6.917   3.846   1.165  0.1232  0.4155 -0.1922
 2601TIP3   OH2 7766   5.032   2.742   1.864  0.1617  0.8279  0.1327
 2601TIP3    H1 7767   4.956   2.794   1.889  0.1064  1.6618 -1.6598
 2601TIP3    H2 7768   5.036   2.748   1.769 -0.2566 -3.0378 -0.2719
 2602TIP3   OH2 7769   2.676   4.529   3.198  0.1583 -0.1232  0.1781
 2602TIP3    H1 7770   2.713   4.607   3.157 -1.2433 -0.3582 -1.6487
 2602TIP3    H2 7771   2.752   4.474   3.217  0.9302  0.3219 -1.4488
 2603TIP3   OH2 7772   1.838   2.122   4.827  0.6146  0.5745  0.7942
 2603TIP3    H1 7773   1.911   2.181   4.847  0.7100  0.3062  1.2603
 2603TIP3    H2 7774   1.847   2.050   4.890 -0.0946  0.5780  0.9183
 2604TIP3   OH2 7775   2.264   1.061   3.016  0.2828  0.4677  0.1644
 2604TIP3    H1 7776   2.209   1.136   3.040  0.1751  0.9761 -1.5536
 2604TIP3    H2 7777   2.277   1.014   3.099 -0.5552  1.7693  1.0825
 2605TIP3   OH2 7778   6.580   6.457   0.904  0.3108 -0.2659 -0.0087
 2605TIP3    H1 7779   6.641   6.439   0.833 -0.4436  0.9008 -0.9836
 2605TIP3    H2 7780   6.579   6.376   0.955  1.0192 -1.0633 -1.2038
 2606TIP3   OH2 7781   6.037   6.489   4.707 -0.5606  0.1964  0.5026
 2606TIP3    H1 7782   6.007   6.453   4.790 -0.8720  1.7379  1.0847
 2606TIP3    H2 7783   6.035   6.584   4.719 -0.1087  0.4452 -1.0921
 2607TIP3   OH2 7784   2.898   0.283   5.743  0.0570  0.8496 -0.1603
 2607TIP3    H1 7785   2.811   0.323   5.748  0.7230  2.5541 -1.2101
 2607TIP3    H2 7786   2.939   0.303   5.827 -0.5376  0.0250  0.3460
 2608TIP3   OH2 7787   4.618   2.539   3.267  0.2502  0.2276 -0.3081
 2608TIP3    H1 7788   4.670   2.462   3.242  2.0029  1.3202 -0.1566
 2608TIP3    H2 7789   4.673   2.586   3.330 -0.8801  1.5005 -0.2298
 2609TIP3   OH2 7790   6.591   5.450   1.318  0.0842 -0.1294 -0.1158
 2609TIP3    H1 7791   6.550   5.380   1.368 -0.3541 -1.4718 -2.2237
 2609TIP3    H2 7792   6.533   5.464   1.243  1.0970  1.2287 -0.7095
 2610TIP3   OH2 7793   1.064   5.010   0.871  0.2582 -0.1191 -0.7950
 2610TIP3    H1 7794   0.992   5.073   0.864  0.1713 -0.3328 -2.0636
 2610TIP3    H2 7795   1.050   4.967   0.955  0.8665  2.1991  0.5878
 2611TIP3   OH2 7796   0.406   2.041   4.229 -0.2402  0.0450  0.4228
 2611TIP3    H1 7797   0.457   2.011   4.304  0.1694 -0.4314 -0.0424
 2611TIP3    H2 7798   0.339   2.098   4.267 -0.0231 -0.1740  1.1471
 2612TIP3   OH2 7799   2.169   3.084   2.929  0.7995 -0.0738 -0.3839
 2612TIP3    H1 7800   2.186   3.002   2.975 -0.4218 -0.1517 -0.0419
 2612TIP3    H2 7801   2.101   3.063   2.865  1.7759  0.2626 -1.5785
 2613TIP3   OH2 7802   6.696   1.443   5.704  0.3513 -0.1128  0.6364
 2613TIP3    H1 7803   6.762   1.405   5.762 -0.0155 -1.9339 -0.0821
 2613TIP3    H2 7804   6.729   1.429   5.616 -0.4017  0.1260  0.3036
 2614TIP3   OH2 7805   3.231   1.236   1.244  0.3766 -0.1732  0.0939
 2614TIP3    H1 7806   3.281   1.285   1.308  0.2712  0.4068 -0.2587
 2614TIP3    H2 7807   3.277   1.152   1.236 -0.0262 -0.5406  1.4475
 2615TIP3   OH2 7808   5.976   1.647   5.330  0.7627  0.1290 -0.0758
 2615TIP3    H1 7809   6.031   1.668   5.405  0.7228  1.5712 -0.4349
 2615TIP3    H2 7810   5.985   1.722   5.271  0.1240 -0.5965 -1.1294
 2616TIP3   OH2 7811   0.269   1.941   4.987 -0.3462  1.0244 -0.2499
 2616TIP3    H1 7812   0.216   2.020   4.993 -2.3765 -0.1730 -1.2461
 2616TIP3    H2 7813   0.253   1.907   4.899 -1.1638 -1.5190  0.7728
 2617TIP3   OH2 7814   3.800   4.715   4.251  0.3900 -0.0370  0.0058
 2617TIP3    H1 7815   3.875   4.661   4.227  0.3783 -0.7236  1.4250
 2617TIP3    H2 7816   3.824   4.753   4.335 -0.6059  0.2338  0.1823
 2618TIP3   OH2 7817   3.173   3.292   0.243 -0.6743  0.4177 -0.0431
 2618TIP3    H1 7818   3.231   3.290   0.167 -0.2773  0.3434  0.2573
 2618TIP3    H2 7819   3.228   3.263   0.316 -0.7132  1.6443  0.5009
 2619TIP3   OH2 7820   5.691   4.454   4.992 -0.3308  0.1903  0.5980
 2619TIP3    H1 7821   5.719   4.494   4.910 -1.8027  1.0854  0.4809
 2619TIP3    H2 7822   5.745   4.496   5.059  0.3776 -0.0150  0.1633
 2620TIP3   OH2 7823   0.146   1.295   2.183 -0.1335  0.1309  0.3173
 2620TIP3    H1 7824   0.193   1.247   2.251 -2.2617 -2.3392  0.1837
 2620TIP3    H2 7825   0.111   1.373   2.228  0.8629  0.0228  1.3067
 2621TIP3   OH2 7826   2.361   5.145   2.976  0.1949 -0.6865 -0.0464
 2621TIP3    H1 7827   2.375   5.234   3.009  0.1228 -0.6049 -0.2309
 2621TIP3    H2 7828   2.446   5.119   2.940  0.6377 -1.2833  1.3783
 2622TIP3   OH2 7829   5.922   0.687   5.027 -0.4378  1.1950 -0.3904
 2622TIP3    H1 7830   5.906   0.673   5.120  0.2272  1.0301 -0.2948
 2622TIP3    H2 7831   6.003   0.737   5.023  0.9738 -1.0001 -0.9260
 2623TIP3   OH2 7832   4.064   3.989   2.952 -0.3403  0.6028  0.1755
 2623TIP3    H1 7833   4.135   4.028   3.003 -0.6457  1.5441 -0.1121
 2623TIP3    H2 7834   4.072   4.027   2.865  0.4539 -1.3295 -0.6600
 2624TIP3   OH2 7835   2.310   0.447   1.253  0.0632 -0.3264 -0.2093
 2624TIP3    H1 7836   2.219   0.434   1.227 -0.6408  0.9942  1.3811
 2624TIP3    H2 7837   2.308   0.524   1.311  1.9541 -1.1163  1.0333
 2625TIP3   OH2 7838   4.005   0.097   5.617 -0.2363 -0.0068  0.1317
 2625TIP3    H1 7839   4.068   0.064   5.682  0.2876  1.3529  0.3492
 2625TIP3    H2 7840   4.032   0.188   5.602 -1.0357  0.0312 -1.1698
 2626TIP3   OH2 7841   3.030   0.562   0.108 -0.4249  0.3952 -0.0904
 2626TIP3    H1 7842   3.005   0.496   0.043  0.7390 -1.7217  1.4980
 2626TIP3    H2 7843   2.950   0.581   0.155 -0.9214  0.6917 -1.0278
 2627TIP3   OH2 7844   5.088   0.769   1.257  0.0575 -0.4046 -0.3014
 2627TIP3    H1 7845   4.999   0.738   1.275 -0.4680  0.0694 -1.9317
 2627TIP3    H2 7846   5.075   0.847   1.204  1.4653 -0.7134 -1.1278
 2628TIP3   OH2 7847   7.001   4.934   0.062  0.0542  0.1660  0.0610
 2628TIP3    H1 7848   7.025   4.928   0.155 -0.3038  0.2612  0.1632
 2628TIP3    H2 7849   7.061   4.874   0.018  0.4996  0.4350  0.3002
 2629TIP3   OH2 7850   3.701   4.445   4.302 -0.7204  0.1732  0.4102
 2629TIP3    H1 7851   3.787   4.409   4.325  0.0214  1.1647 -0.7039
 2629TIP3    H2 7852   3.720   4.529   4.261 -2.1714  0.0766 -0.5494
 2630TIP3   OH2 7853   0.387   6.202   4.516  0.8397 -0.0605 -0.5664
 2630TIP3    H1 7854   0.427   6.286   4.538  3.7825 -0.7784 -2.5614
 2630TIP3    H2 7855   0.431   6.139   4.572 -0.2512 -0.4969 -0.1692
 2631TIP3   OH2 7856   0.148   6.008   5.815  0.1994  0.3668 -0.7005
 2631TIP3    H1 7857   0.095   6.077   5.775  0.8627  0.0828 -2.1340
 2631TIP3    H2 7858   0.086   5.938   5.835 -0.2384  0.7507 -0.7024
 2632TIP3   OH2 7859   7.105   6.515   2.236  0.1055 -0.6422  0.0797
 2632TIP3    H1 7860   7.156   6.474   2.305  0.7817 -0.9986 -0.6160
 2632TIP3    H2 7861   7.015   6.490   2.254  0.3664 -1.4013  0.3746
 2633TIP3   OH2 7862   7.081   0.456   3.098 -0.2399 -0.0804 -0.0677
 2633TIP3    H1 7863   7.153   0.458   3.161 -0.5073 -1.6734  0.3254
 2633TIP3    H2 7864   7.094   0.375   3.049 -1.0398  0.2609 -0.8779
 2634TIP3   OH2 7865   4.492   6.493   2.024 -0.1645  0.0045  0.3829
 2634TIP3    H1 7866   4.586   6.478   2.034  0.5393  0.3718 -3.8965
 2634TIP3    H2 7867   4.477   6.577   2.068  1.2598 -0.4611  1.8865
 2635TIP3   OH2 7868   1.985   5.294   4.298 -0.3203  0.0420 -0.2090
 2635TIP3    H1 7869   1.971   5.368   4.357 -1.1651  0.0620 -0.4265
 2635TIP3    H2 7870   1.949   5.218   4.344  0.6954 -0.2878  0.0880
 2636TIP3   OH2 7871   3.335   4.198   2.069 -0.4806  0.2330  0.7346
 2636TIP3    H1 7872   3.428   4.208   2.050 -0.1371 -0.9599  1.6541
 2636TIP3    H2 7873   3.306   4.286   2.093 -0.0345  0.9841 -1.3292
 2637TIP3   OH2 7874   0.808   5.929   2.845  0.2611  0.1896  0.6468
 2637TIP3    H1 7875   0.883   5.870   2.838 -0.1178 -0.1392 -1.0097
 2637TIP3    H2 7876   0.812   5.961   2.935  1.3289 -1.2207  1.1505
 2638TIP3   OH2 7877   5.198   1.770   5.427 -0.5759 -0.2106  0.0602
 2638TIP3    H1 7878   5.149   1.825   5.487 -1.1213  0.7703 -1.2329
 2638TIP3    H2 7879   5.165   1.681   5.443 -0.7307  0.0377  1.1570
 2639TIP3   OH2 7880   1.190   5.784   1.062 -0.0841 -0.2983 -0.1922
 2639TIP3    H1 7881   1.170   5.864   1.111 -1.3239  0.4286 -1.7867
 2639TIP3    H2 7882   1.136   5.716   1.103  1.0484 -0.3902  1.2327
 2640TIP3   OH2 7883   0.495   0.474   1.999  0.1208  0.0579  1.0950
 2640TIP3    H1 7884   0.456   0.395   1.964 -1.8600  0.5842  1.9770
 2640TIP3    H2 7885   0.504   0.533   1.923  0.0493 -0.3987  0.7318
 2641TIP3   OH2 7886   3.804   0.589   3.763 -0.3934 -0.0025  0.3434
 2641TIP3    H1 7887   3.821   0.652   3.832  3.0323  0.0432 -0.3410
 2641TIP3    H2 7888   3.890   0.553   3.741 -1.7706 -2.5488 -1.5373
 2642TIP3   OH2 7889   1.758   1.377   3.328 -0.1243 -0.1566  0.0724
 2642TIP3    H1 7890   1.671   1.379   3.287  0.1358  1.0183 -0.4601
 2642TIP3    H2 7891   1.819   1.384   3.255  0.4826 -1.8416  0.3621
 2643TIP3   OH2 7892   2.990   2.969   4.822 -0.6525  0.0884 -0.4175
 2643TIP3    H1 7893   3.006   3.022   4.900 -1.9195 -0.3348  0.1542
 2643TIP3    H2 7894   3.022   2.882   4.845 -4.3254 -1.0512  1.1359
 2644TIP3   OH2 7895   6.728   3.385   4.069  0.2472 -0.6282 -0.1513
 2644TIP3    H1 7896   6.741   3.395   3.975 -0.3477 -0.8522 -0.2613
 2644TIP3    H2 7897   6.635   3.366   4.079  0.3784 -1.0016  0.4493
 2645TIP3   OH2 7898   4.216   1.287   2.106 -0.3579 -0.6078 -0.0623
 2645TIP3    H1 7899   4.149   1.315   2.042  1.3999  0.3753 -1.5677
 2645TIP3    H2 7900   4.257   1.212   2.064  1.1938  0.3923 -0.4007
 2646TIP3   OH2 7901   6.027   3.534   0.749  0.0398 -0.4165  0.4465
 2646TIP3    H1 7902   6.081   3.512   0.825 -0.2114  1.2226  1.1293
 2646TIP3    H2 7903   5.942   3.558   0.786 -0.7089 -1.4663 -0.5058
 2647TIP3   OH2 7904   2.147   1.611   4.047  0.0715  0.0372  0.2995
 2647TIP3    H1 7905   2.174   1.611   3.956 -0.0846 -1.4190  0.2223
 2647TIP3    H2 7906   2.089   1.686   4.056  0.5396  0.5223 -0.6491
 2648TIP3   OH2 7907   3.427   4.062   0.463 -0.6424 -0.0504 -0.2291
 2648TIP3    H1 7908   3.413   3.985   0.519  0.3869 -0.1004 -0.0092
 2648TIP3    H2 7909   3.516   4.050   0.429  0.2571  1.9066  1.2189
 2649TIP3   OH2 7910   6.703   2.838   1.722 -0.5865  0.1831  0.0173
 2649TIP3    H1 7911   6.721   2.869   1.811  0.2421 -0.6812  0.1655
 2649TIP3    H2 7912   6.718   2.914   1.667 -1.2173  0.7625  0.6207
 2650TIP3   OH2 7913   3.027   4.723   5.284 -0.6963 -0.4293 -0.0805
 2650TIP3    H1 7914   2.950   4.680   5.320 -1.2073  0.8551  0.4221
 2650TIP3    H2 7915   3.099   4.661   5.299 -1.3263 -0.9380  0.9466
 2651TIP3   OH2 7916   3.140   0.769   4.778 -0.5100 -0.4301 -0.5472
 2651TIP3    H1 7917   3.178   0.742   4.694 -0.7503 -2.1303 -0.1494
 2651TIP3    H2 7918   3.172   0.703   4.840 -0.7389  0.5223  0.6072
 2652TIP3   OH2 7919   6.228   4.556   4.038 -0.1910 -0.3746  0.2058
 2652TIP3    H1 7920   6.205   4.647   4.058  0.5684 -0.3378  0.9408
 2652TIP3    H2 7921   6.242   4.555   3.943  1.5950  0.7045  0.4211
 2653TIP3   OH2 7922   5.741   6.064   4.944 -0.0359  0.2770 -0.1271
 2653TIP3    H1 7923   5.806   6.013   4.991 -1.0141 -0.4083  0.5169
 2653TIP3    H2 7924   5.781   6.083   4.860  2.0268  2.0740  1.1445
 2654TIP3   OH2 7925   3.107   2.703   5.233  0.0709 -0.3757  0.0064
 2654TIP3    H1 7926   3.092   2.608   5.240  2.5564 -0.8029  0.1971
 2654TIP3    H2 7927   3.032   2.742   5.278 -0.8317 -2.2567  0.2231
 2655TIP3   OH2 7928   6.669   3.768   0.779  0.6037  0.3522  0.7927
 2655TIP3    H1 7929   6.688   3.674   0.769 -2.9513 -0.3540 -0.6672
 2655TIP3    H2 7930   6.689   3.806   0.693  1.5599  0.8942  1.2353
 2656TIP3   OH2 7931   2.154   5.902   0.836 -0.0481  0.1939  0.2154
 2656TIP3    H1 7932   2.107   5.983   0.818 -0.1575 -0.2835 -1.9335
 2656TIP3    H2 7933   2.246   5.927   0.836 -0.1145  0.4423  0.3502
 2657TIP3   OH2 7934   6.755   0.084   1.457  0.3271 -0.2768  0.1776
 2657TIP3    H1 7935   6.845   0.085   1.426  0.6332 -0.4576  1.0217
 2657TIP3    H2 7936   6.749   0.005   1.511 -0.0604  0.2307  0.9040
 2658TIP3   OH2 7937   5.828   1.789   0.362  1.0253  0.2066  0.1792
 2658TIP3    H1 7938   5.852   1.765   0.272  2.2133  0.9086  0.2795
 2658TIP3    H2 7939   5.743   1.748   0.376  1.2760 -0.7621 -0.9205
 2659TIP3   OH2 7940   4.514   3.673   1.324  0.3905 -0.3898  0.0201
 2659TIP3    H1 7941   4.429   3.715   1.316  1.0855  0.9155 -0.9203
 2659TIP3    H2 7942   4.542   3.692   1.414  0.0797 -0.0076  0.0393
 2660TIP3   OH2 7943   2.977   6.301   4.809  0.2161  0.0136  0.6657
 2660TIP3    H1 7944   2.896   6.338   4.773  0.4519 -0.0559  0.0468
 2660TIP3    H2 7945   2.949   6.220   4.851  0.2304 -1.2210 -1.5168
 2661TIP3   OH2 7946   3.990   1.109   4.493  0.7306 -0.6267 -0.3289
 2661TIP3    H1 7947   4.076   1.152   4.485  1.0757 -1.1157  0.6274
 2661TIP3    H2 7948   3.956   1.138   4.577 -1.2439  1.6200 -1.7932
 2662TIP3   OH2 7949   7.047   2.379   1.592  0.2443 -0.5968  0.0447
 2662TIP3    H1 7950   7.085   2.467   1.588  0.5319 -0.7150  0.1440
 2662TIP3    H2 7951   7.094   2.336   1.664 -0.9106 -0.3515  0.9758
 2663TIP3   OH2 7952   3.821   4.369   5.243  0.2253 -0.4166 -0.2742
 2663TIP3    H1 7953   3.867   4.359   5.159  0.4654 -2.7530  0.0711
 2663TIP3    H2 7954   3.729   4.354   5.221 -0.0140  1.1278 -0.4372
 2664TIP3   OH2 7955   2.424   5.603   3.951 -0.4426 -0.4369  0.1734
 2664TIP3    H1 7956   2.490   5.660   3.912 -1.9977  1.4058  0.0756
 2664TIP3    H2 7957   2.435   5.519   3.906  2.6600 -0.6702  1.1026
 2665TIP3   OH2 7958   4.872   3.779   1.866  0.3474  0.1576 -0.1907
 2665TIP3    H1 7959   4.801   3.836   1.836  1.1158  1.1743 -0.1018
 2665TIP3    H2 7960   4.863   3.778   1.961 -1.4446 -2.2335 -0.2913
 2666TIP3   OH2 7961   6.889   2.047   4.077 -0.2233 -0.2057  0.4881
 2666TIP3    H1 7962   6.939   2.057   3.996  0.1786 -0.1597  0.7433
 2666TIP3    H2 7963   6.955   2.040   4.146 -0.5692  0.5476  0.9106
 2667TIP3   OH2 7964   4.675   4.102   0.073  0.1284  0.1466  0.1741
 2667TIP3    H1 7965   4.672   4.095   0.169  0.9638  2.3223  0.4264
 2667TIP3    H2 7966   4.633   4.186   0.054 -0.5122 -0.5073 -1.4412
 2668TIP3   OH2 7967   2.168   6.109   5.381 -0.4012 -0.4997 -0.2248
 2668TIP3    H1 7968   2.079   6.103   5.348  0.1386 -0.7482 -1.7242
 2668TIP3    H2 7969   2.223   6.114   5.302  0.9022 -0.2468  0.6552
 2669TIP3   OH2 7970   2.723   1.766   3.008  0.0432 -0.4152  0.4187
 2669TIP3    H1 7971   2.754   1.784   2.919  0.0180  1.4227  0.7385
 2669TIP3    H2 7972   2.647   1.823   3.018 -0.0813 -0.7642  1.5458
 2670TIP3   OH2 7973   1.175   5.257   1.881  0.7793 -0.1709 -0.3108
 2670TIP3    H1 7974   1.137   5.257   1.793 -0.6234  1.1173  0.2547
 2670TIP3    H2 7975   1.143   5.337   1.921  2.6519  0.0444  0.8720
 2671TIP3   OH2 7976   5.676   6.545   1.851 -0.9057  0.3750  0.4912
 2671TIP3    H1 7977   5.628   6.561   1.770  0.2822 -0.8744 -0.4871
 2671TIP3    H2 7978   5.704   6.454   1.846 -2.2873 -0.3179  3.1232
 2672TIP3   OH2 7979   3.378   3.738   5.074  0.1771 -0.4797 -0.4895
 2672TIP3    H1 7980   3.310   3.756   5.009  0.5593  1.5382 -0.4179
 2672TIP3    H2 7981   3.343   3.667   5.127 -1.7519  0.3156 -0.6280
 2673TIP3   OH2 7982   5.490   0.077   0.804  0.1513 -0.6101 -0.1899
 2673TIP3    H1 7983   5.469   0.050   0.893 -0.8148 -1.4749 -0.6615
 2673TIP3    H2 7984   5.422   0.141   0.782  0.2883 -0.5228 -0.3602
 2674TIP3   OH2 7985   3.666   3.041   3.871  0.0556 -0.0812 -0.2742
 2674TIP3    H1 7986   3.571   3.051   3.863 -0.0914  0.8496  1.7981
 2674TIP3    H2 7987   3.702   3.122   3.836 -0.0266  0.1854  0.2422
 2675TIP3   OH2 7988   4.091   3.806   1.801 -0.5213  0.4473  0.2149
 2675TIP3    H1 7989   4.046   3.877   1.846 -0.8904  0.4450 -0.1382
 2675TIP3    H2 7990   4.067   3.728   1.851 -1.4494  0.3577 -0.3357
 2676TIP3   OH2 7991   0.320   4.904   2.460  0.2014 -0.2177  0.8697
 2676TIP3    H1 7992   0.342   4.849   2.535  0.6766 -1.0768  0.1338
 2676TIP3    H2 7993   0.251   4.856   2.414 -1.3427  1.1462  1.6704
 2677TIP3   OH2 7994   2.441   5.577   3.527 -0.2046 -0.1741 -0.4493
 2677TIP3    H1 7995   2.408   5.649   3.473  0.1086 -1.4314 -2.3966
 2677TIP3    H2 7996   2.528   5.559   3.493 -0.1392 -1.2550  0.2454
 2678TIP3   OH2 7997   0.089   6.273   4.130  0.3048 -0.2461 -0.3854
 2678TIP3    H1 7998   0.102   6.288   4.224  0.8987 -1.2183 -0.2957
 2678TIP3    H2 7999   0.020   6.207   4.125 -1.5155  1.5721 -0.7385
 2679TIP3   OH2 8000   0.197   0.636   1.744 -0.4765 -0.6437 -0.2089
 2679TIP3    H1 8001   0.164   0.722   1.768  0.4190  0.0272 -1.2719
 2679TIP3    H2 8002   0.140   0.574   1.790 -1.5263  0.5008  0.0725
 2680TIP3   OH2 8003   4.190   3.120   1.222  0.1342  0.3755  0.1469
 2680TIP3    H1 8004   4.252   3.114   1.148 -0.3068 -0.2254 -0.1791
 2680TIP3    H2 8005   4.237   3.171   1.288  1.3304 -0.7855  0.2435
 2681TIP3   OH2 8006   3.381   0.242   0.972 -0.0220  0.1530 -0.2868
 2681TIP3    H1 8007   3.414   0.328   0.944 -0.8834  0.7027  0.3623
 2681TIP3    H2 8008   3.431   0.179   0.918  0.4683  1.0548 -0.9190
 2682TIP3   OH2 8009   6.298   4.803   0.180  0.4198 -0.4629 -0.5739
 2682TIP3    H1 8010   6.289   4.896   0.203 -1.4013 -0.5410 -0.8432
 2682TIP3    H2 8011   6.260   4.757   0.255  1.8667 -1.0473 -0.1684
 2683TIP3   OH2 8012   4.475   0.689   1.944 -0.1270 -0.1174  0.4476
 2683TIP3    H1 8013   4.528   0.726   2.014 -1.1219  0.8672  0.7018
 2683TIP3    H2 8014   4.423   0.620   1.986 -0.8319  0.5719  0.7300
 2684TIP3   OH2 8015   3.992   5.261   1.544 -0.3273 -0.1213 -0.5305
 2684TIP3    H1 8016   3.925   5.321   1.576  0.6111  1.6809 -1.7877
 2684TIP3    H2 8017   3.966   5.176   1.578 -0.7949  1.2001  2.7588
 2685TIP3   OH2 8018   1.841   3.554   4.553 -0.0475 -0.7304 -0.0995
 2685TIP3    H1 8019   1.803   3.543   4.639 -0.9352  0.7901 -0.2742
 2685TIP3    H2 8020   1.917   3.611   4.567  0.2719 -1.1143 -0.2272
 2686TIP3   OH2 8021   4.086   2.457   3.691  0.2702 -0.2024 -0.1422
 2686TIP3    H1 8022   4.056   2.454   3.600  0.2587 -0.2166 -0.1377
 2686TIP3    H2 8023   4.006   2.453   3.743  0.2919 -0.4576 -0.1266
 2687TIP3   OH2 8024   6.283   2.988   0.045 -0.0043  0.4731 -0.4077
 2687TIP3    H1 8025   6.235   2.909   0.069  1.5765 -0.9640 -1.6837
 2687TIP3    H2 8026   6.236   3.022  -0.032 -1.0325  1.1577  0.4941
 2688TIP3   OH2 8027   1.582   6.083   2.091  0.2983  0.7157 -0.9709
 2688TIP3    H1 8028   1.581   6.076   2.187  1.2344  1.6164 -0.8885
 2688TIP3    H2 8029   1.620   6.001   2.061 -0.9216 -0.0011 -0.6354
 2689TIP3   OH2 8030   0.474   4.012   3.328 -0.6808 -0.4409 -0.4753
 2689TIP3    H1 8031   0.380   4.018   3.345 -0.7856  0.6598 -1.2834
 2689TIP3    H2 8032   0.481   3.956   3.251 -0.4309 -2.8992  1.2453
 2690TIP3   OH2 8033   2.073   6.515   1.284  0.3020  0.1676  0.8024
 2690TIP3    H1 8034   2.023   6.541   1.207 -1.5270 -0.8219  1.5842
 2690TIP3    H2 8035   2.006   6.491   1.348  1.7759 -2.4460  1.4905
 2691TIP3   OH2 8036   4.246   2.291   1.380 -0.1548  0.0954 -0.3920
 2691TIP3    H1 8037   4.181   2.323   1.442  0.0663  1.8699 -1.0268
 2691TIP3    H2 8038   4.239   2.349   1.305 -0.4465 -2.0387 -2.0947
 2692TIP3   OH2 8039   6.282   1.073   1.868  0.6489  0.1802 -0.4684
 2692TIP3    H1 8040   6.327   1.156   1.884  0.0288  0.6303 -0.9937
 2692TIP3    H2 8041   6.208   1.074   1.929  0.4400  0.1718 -0.7217
 2693TIP3   OH2 8042   6.554   3.359   4.515 -0.3347 -0.2866  0.5419
 2693TIP3    H1 8043   6.477   3.311   4.487 -0.8768  0.4157  0.7807
 2693TIP3    H2 8044   6.547   3.362   4.611  0.6053 -1.2103  0.6627
 2694TIP3   OH2 8045   1.405   1.029   0.172 -0.0800  0.3321  0.7361
 2694TIP3    H1 8046   1.383   0.936   0.169  1.2908 -0.0029  0.8022
 2694TIP3    H2 8047   1.423   1.052   0.081 -1.0931  0.7224  0.6166
 2695TIP3   OH2 8048   5.442   2.906   2.612  0.0019  0.5403  0.3377
 2695TIP3    H1 8049   5.476   2.990   2.579  0.6151  0.1219 -0.1341
 2695TIP3    H2 8050   5.459   2.908   2.706 -0.1912  1.0394  0.3636
 2696TIP3   OH2 8051   0.507   4.440   0.977  0.0556  0.1738 -0.7096
 2696TIP3    H1 8052   0.497   4.380   1.052  1.4451  1.5754  0.6656
 2696TIP3    H2 8053   0.602   4.449   0.966 -0.1114 -0.0341 -2.7165
 2697TIP3   OH2 8054   2.104   2.845   5.571 -0.1512 -0.3809  0.5338
 2697TIP3    H1 8055   2.045   2.774   5.547  0.9693 -0.4945 -2.2460
 2697TIP3    H2 8056   2.192   2.808   5.565  0.4493 -0.3762  5.1161
 2698TIP3   OH2 8057   6.092   4.244   2.127  0.6243 -0.7280  0.4045
 2698TIP3    H1 8058   6.172   4.211   2.168  2.4997  2.2775 -0.5122
 2698TIP3    H2 8059   6.041   4.281   2.199  0.8579 -1.0925  0.7615
 2699TIP3   OH2 8060   7.201   0.784   4.420 -0.0875  0.4319 -0.0480
 2699TIP3    H1 8061   7.198   0.714   4.485  1.0694 -1.1930 -1.6459
 2699TIP3    H2 8062   7.146   0.752   4.348 -0.9498  1.9710 -0.1161
 2700TIP3   OH2 8063   1.793   2.544   0.029 -0.2201  0.2521  0.1980
 2700TIP3    H1 8064   1.785   2.620  -0.028  0.8299  1.1747  1.2149
 2700TIP3    H2 8065   1.705   2.530   0.064 -0.5025  0.7511 -0.3024
 2701TIP3   OH2 8066   3.115   3.832   1.798  0.2746  0.4301 -0.1765
 2701TIP3    H1 8067   3.088   3.863   1.711 -0.0312  2.2276  0.5151
 2701TIP3    H2 8068   3.174   3.899   1.830 -0.1038  0.1120  1.2650
 2702TIP3   OH2 8069   6.229   1.651   4.030 -0.1792 -0.3273  0.3306
 2702TIP3    H1 8070   6.155   1.595   4.005 -1.4832  0.6738  1.8039
 2702TIP3    H2 8071   6.306   1.597   4.012 -1.0563 -0.6659 -3.2450
 2703TIP3   OH2 8072   6.627   2.535   5.721 -0.4738  0.0328 -0.2322
 2703TIP3    H1 8073   6.647   2.508   5.811 -1.1151 -1.5039 -0.5072
 2703TIP3    H2 8074   6.679   2.475   5.667 -0.1446  0.9008 -0.8871
 2704TIP3   OH2 8075   2.368   5.517   1.723  0.7317  0.1787  0.3836
 2704TIP3    H1 8076   2.382   5.506   1.629  0.4894 -0.4463  0.4139
 2704TIP3    H2 8077   2.455   5.506   1.762  0.7836  0.1240  0.2535
 2705TIP3   OH2 8078   1.595   2.467   1.197  0.5478  0.2522  0.0322
 2705TIP3    H1 8079   1.514   2.429   1.232  0.7305  0.5092  0.7579
 2705TIP3    H2 8080   1.645   2.493   1.275  1.0179  0.7416 -0.4214
 2706TIP3   OH2 8081   6.609   3.510   5.821 -0.8134 -0.4439  0.0227
 2706TIP3    H1 8082   6.558   3.430   5.808 -1.4515 -0.1524  0.6608
 2706TIP3    H2 8083   6.544   3.577   5.842 -0.2606  0.1831 -0.2252
 2707TIP3   OH2 8084   0.838   0.270   4.761  0.0598  0.3330 -0.4408
 2707TIP3    H1 8085   0.873   0.355   4.734 -1.0828  0.8243 -0.4532
 2707TIP3    H2 8086   0.744   0.284   4.766  0.0231 -0.3330  1.6673
 2708TIP3   OH2 8087   1.002   5.872   1.866 -0.4995 -0.1101  0.0479
 2708TIP3    H1 8088   0.985   5.953   1.818  0.3055  1.0351  1.6142
 2708TIP3    H2 8089   1.092   5.850   1.845 -0.4233 -0.0868  0.3464
 2709TIP3   OH2 8090   7.053   0.721   4.724  0.1392 -0.3136 -0.7587
 2709TIP3    H1 8091   6.996   0.779   4.673 -0.8563  0.0979  0.7541
 2709TIP3    H2 8092   7.121   0.779   4.758  1.0309 -0.6570 -1.8718
 2710TIP3   OH2 8093   6.188   4.743   4.627  0.2327  0.2160  0.0548
 2710TIP3    H1 8094   6.272   4.698   4.632  0.8560  1.4205  1.0681
 2710TIP3    H2 8095   6.128   4.687   4.677  1.1164  0.7110  1.7575
 2711TIP3   OH2 8096   1.592   2.963   3.152  0.1628  0.0284 -0.4827
 2711TIP3    H1 8097   1.536   3.015   3.094  0.4377  1.6506  0.6277
 2711TIP3    H2 8098   1.664   2.935   3.097  0.7606  2.0812 -0.8371
 2712TIP3   OH2 8099   5.459   5.058   0.187 -0.6557  0.0518 -0.4231
 2712TIP3    H1 8100   5.551   5.031   0.182 -0.3161  1.2518 -1.1270
 2712TIP3    H2 8101   5.410   4.976   0.195  0.5850 -0.5243  2.2978
 2713TIP3   OH2 8102   6.635   4.147   0.532 -0.0734  0.6194 -0.1508
 2713TIP3    H1 8103   6.602   4.149   0.622 -0.0030 -1.6983 -0.0066
 2713TIP3    H2 8104   6.719   4.102   0.539  0.1709  0.8764 -1.3215
 2714TIP3   OH2 8105   5.437   5.535   2.044 -1.0460 -1.1765 -0.2641
 2714TIP3    H1 8106   5.356   5.585   2.034 -0.5954 -0.0835  1.3001
 2714TIP3    H2 8107   5.407   5.444   2.056 -2.3620 -0.4328  3.5971
 2715TIP3   OH2 8108   4.531   0.390   2.067  0.0620 -0.8869 -0.0041
 2715TIP3    H1 8109   4.619   0.401   2.103 -0.2855 -0.5789  0.7502
 2715TIP3    H2 8110   4.480   0.351   2.138 -0.6091 -0.3402 -0.1782
 2716TIP3   OH2 8111   3.095   3.305   4.819  0.1463  0.5762  0.5525
 2716TIP3    H1 8112   3.004   3.307   4.848  0.0909 -0.3991  0.4770
 2716TIP3    H2 8113   3.089   3.301   4.723  0.2273 -0.7776  0.5876
 2717TIP3   OH2 8114   1.544   5.326   2.694 -0.8773 -0.0831  0.3380
 2717TIP3    H1 8115   1.617   5.319   2.756 -0.3432 -1.3373 -0.3999
 2717TIP3    H2 8116   1.482   5.260   2.724 -0.5317 -0.8352 -0.5360
 2718TIP3   OH2 8117   0.770   1.321   2.137  0.3026 -0.1071  0.3799
 2718TIP3    H1 8118   0.829   1.332   2.062  0.6367 -1.3310  0.4551
 2718TIP3    H2 8119   0.691   1.370   2.112  0.7828  0.3233 -0.3408
 2719TIP3   OH2 8120   2.778   6.667   2.517  0.1118 -0.2385  0.5487
 2719TIP3    H1 8121   2.851   6.606   2.518  0.3149  0.0010  0.5230
 2719TIP3    H2 8122   2.819   6.754   2.519 -0.1867 -0.1057  1.5748
 2720TIP3   OH2 8123   5.730   5.827   4.506 -0.8219  0.4143 -0.0336
 2720TIP3    H1 8124   5.792   5.795   4.440 -0.1802  0.8369  0.3560
 2720TIP3    H2 8125   5.646   5.832   4.459 -0.4057  0.5739 -0.7789
 2721TIP3   OH2 8126   5.432   4.679   2.973 -0.1530  0.0570  0.5918
 2721TIP3    H1 8127   5.506   4.619   2.981 -0.6280 -0.5371  0.5502
 2721TIP3    H2 8128   5.372   4.654   3.044  0.5008  1.7240  1.8099
 2722TIP3   OH2 8129   1.956   1.051   5.418 -0.0008  0.3153  0.3955
 2722TIP3    H1 8130   1.954   0.956   5.431  0.5099  0.4372  1.5240
 2722TIP3    H2 8131   2.031   1.080   5.471  1.8382  1.0049 -2.3687
 2723TIP3   OH2 8132   2.520   6.512   5.587 -0.7738  0.3531 -0.0079
 2723TIP3    H1 8133   2.606   6.539   5.553 -0.4244 -0.8553 -0.1314
 2723TIP3    H2 8134   2.515   6.419   5.567 -1.7491  0.2205  0.7989
 2724TIP3   OH2 8135   6.918   6.785   2.563  0.1161  0.2716  0.3978
 2724TIP3    H1 8136   6.938   6.746   2.648  0.7308  0.1159  0.1854
 2724TIP3    H2 8137   6.994   6.766   2.509 -2.0872 -3.9030 -1.7573
 2725TIP3   OH2 8138   3.291   3.428   4.985 -0.0146  0.3140  0.9969
 2725TIP3    H1 8139   3.210   3.475   5.002 -1.0584 -1.2096  0.4728
 2725TIP3    H2 8140   3.266   3.335   4.987  1.5114 -0.1684 -0.1947
 2726TIP3   OH2 8141   3.498   5.365   3.322 -0.0768  0.2736 -0.1901
 2726TIP3    H1 8142   3.568   5.369   3.387  1.5844 -0.5963 -1.8716
 2726TIP3    H2 8143   3.520   5.434   3.259 -0.6874 -0.0784 -0.7965
 2727TIP3   OH2 8144   3.155   4.278   1.599 -0.6813 -0.5931 -1.0270
 2727TIP3    H1 8145   3.211   4.232   1.537  0.0277 -0.3260 -0.5856
 2727TIP3    H2 8146   3.213   4.336   1.648 -1.0140 -1.6432  0.6981
 2728TIP3   OH2 8147   6.133   2.539   1.598 -0.0548 -0.3479 -0.4661
 2728TIP3    H1 8148   6.184   2.589   1.662  0.7069 -0.7258 -0.7607
 2728TIP3    H2 8149   6.080   2.604   1.553 -0.7934 -0.1039  0.7192
 2729TIP3   OH2 8150   3.803   3.616   3.777 -0.1837 -0.1804 -0.3347
 2729TIP3    H1 8151   3.760   3.598   3.861 -1.4191 -0.1398 -0.9418
 2729TIP3    H2 8152   3.735   3.657   3.724  0.5305 -0.3917 -1.4291
 2730TIP3   OH2 8153   2.263   4.353   3.021 -0.1731  0.2034  0.4934
 2730TIP3    H1 8154   2.170   4.373   3.027 -0.1681 -0.1076  2.0018
 2730TIP3    H2 8155   2.298   4.376   3.108  1.2076  0.5744 -0.1382
 2731TIP3   OH2 8156   5.107   4.630   2.776  0.2163  0.4601  0.0995
 2731TIP3    H1 8157   5.095   4.626   2.681  0.5596 -1.0886  0.1008
 2731TIP3    H2 8158   5.138   4.719   2.792 -0.3431  0.9077 -1.1734
 2732TIP3   OH2 8159   2.506   0.472   4.784  0.3245  0.0518 -0.1785
 2732TIP3    H1 8160   2.511   0.379   4.809  0.6986  0.1574  0.1409
 2732TIP3    H2 8161   2.550   0.475   4.699  0.8356  0.0340  0.0820
 2733TIP3   OH2 8162   4.372   2.109   4.407  0.3303  0.2416  0.3420
 2733TIP3    H1 8163   4.395   2.196   4.374  0.6601 -0.8622 -2.6737
 2733TIP3    H2 8164   4.277   2.114   4.420  0.2804  0.9591 -0.1701
 2734TIP3   OH2 8165   3.911   5.088   0.267  0.1736 -0.2148 -0.7619
 2734TIP3    H1 8166   3.833   5.041   0.297 -0.0363  0.9519  0.6627
 2734TIP3    H2 8167   3.885   5.127   0.183 -0.3701 -0.8213 -0.8798
 2735TIP3   OH2 8168   3.908   5.960   3.863  0.2383  0.5699 -0.5750
 2735TIP3    H1 8169   3.883   6.044   3.903 -1.4022  0.1192 -0.5903
 2735TIP3    H2 8170   3.968   5.921   3.926 -2.0762 -0.0047  1.4519
 2736TIP3   OH2 8171   1.410   3.251   3.608 -0.3310 -0.2896  0.2444
 2736TIP3    H1 8172   1.351   3.218   3.676  0.6048 -0.4964  0.9825
 2736TIP3    H2 8173   1.383   3.206   3.528 -1.1066 -0.4490  0.5880
 2737TIP3   OH2 8174   5.664   6.004   1.221  0.0466  0.0062  0.9134
 2737TIP3    H1 8175   5.593   5.978   1.279 -1.2381 -0.8275 -0.9429
 2737TIP3    H2 8176   5.743   5.994   1.274 -1.1155  0.0211  2.7295
 2738TIP3   OH2 8177   0.566   5.052   4.122  0.0553  0.2041  0.9044
 2738TIP3    H1 8178   0.482   5.026   4.161 -0.3790 -0.3110 -0.3118
 2738TIP3    H2 8179   0.550   5.140   4.088 -0.3298 -0.2823 -0.2221
 2739TIP3   OH2 8180   0.957   2.461   0.628 -0.3032 -0.2275 -0.7007
 2739TIP3    H1 8181   1.005   2.378   0.629 -0.0879 -0.1335  1.2254
 2739TIP3    H2 8182   0.895   2.453   0.701 -0.4310  1.2032 -0.6181
 2740TIP3   OH2 8183   2.411   5.989   0.908  0.3673  0.3005  0.0152
 2740TIP3    H1 8184   2.409   5.910   0.961 -0.3158 -0.8581 -1.6430
 2740TIP3    H2 8185   2.498   5.988   0.867  0.0457 -0.1031 -0.6870
 2741TIP3   OH2 8186   3.316   1.827   3.733  0.2183  0.5527  0.0645
 2741TIP3    H1 8187   3.342   1.824   3.825  0.3272  1.5218  0.0783
 2741TIP3    H2 8188   3.225   1.796   3.733  1.4876 -3.8139 -0.1077
 2742TIP3   OH2 8189   1.480   4.742   1.340  0.0719 -0.2052 -0.2035
 2742TIP3    H1 8190   1.573   4.765   1.336  0.5030 -1.9230 -1.3861
 2742TIP3    H2 8191   1.464   4.727   1.433  1.1425 -0.4369 -0.0344
 2743TIP3   OH2 8192   6.596   2.806   3.811  0.0593 -0.1631  0.0478
 2743TIP3    H1 8193   6.533   2.810   3.740  0.3628 -0.1532 -0.2219
 2743TIP3    H2 8194   6.632   2.895   3.817  0.4603 -0.3096 -0.1755
 2744TIP3   OH2 8195   6.187   5.479   1.408  0.5948  0.1313  0.7593
 2744TIP3    H1 8196   6.098   5.508   1.390  0.7726  0.2769  0.0569
 2744TIP3    H2 8197   6.182   5.384   1.413 -0.1282  0.2517  3.8192
 2745TIP3   OH2 8198   4.257   0.978   3.390 -0.0109  0.1593  0.0880
 2745TIP3    H1 8199   4.176   0.972   3.442 -0.3768  1.3055 -0.3178
 2745TIP3    H2 8200   4.226   0.988   3.299  0.5907  0.4879 -0.0833
 2746TIP3   OH2 8201   2.950   1.589   0.538  0.1638 -0.2382 -0.0285
 2746TIP3    H1 8202   2.990   1.666   0.497 -1.2453 -0.2029 -1.4296
 2746TIP3    H2 8203   2.935   1.616   0.629  0.2405  0.9319 -0.3413
 2747TIP3   OH2 8204   4.475   0.790   4.864  0.1498  0.3622  0.3187
 2747TIP3    H1 8205   4.429   0.778   4.781  1.9892  1.4745 -0.9293
 2747TIP3    H2 8206   4.566   0.769   4.845  0.4160 -0.7554  2.4478
 2748TIP3   OH2 8207   5.572   1.931   4.166 -0.3962 -0.0296 -0.5642
 2748TIP3    H1 8208   5.556   1.968   4.079 -0.6735 -1.4088 -1.1148
 2748TIP3    H2 8209   5.656   1.887   4.158  1.5860  3.0971  0.9945
 2749TIP3   OH2 8210   6.169   0.432   5.649 -0.2290  0.3058 -0.3797
 2749TIP3    H1 8211   6.229   0.359   5.629 -0.4624  0.0651 -0.2100
 2749TIP3    H2 8212   6.185   0.451   5.741  0.3056  0.9152 -0.5911
 2750TIP3   OH2 8213   0.630   6.623   5.614 -0.4640  0.2786  0.0656
 2750TIP3    H1 8214   0.599   6.634   5.704 -0.2740 -1.8717  0.4505
 2750TIP3    H2 8215   0.713   6.670   5.611  1.0349 -1.9999  1.9760
 2751TIP3   OH2 8216   5.654   5.484   5.540  0.4149  0.5815 -0.3537
 2751TIP3    H1 8217   5.614   5.547   5.601 -1.5663 -2.0889  1.3171
 2751TIP3    H2 8218   5.584   5.462   5.479  1.0564 -0.0936 -0.8583
 2752TIP3   OH2 8219   3.974   1.368   0.776 -0.1176 -0.1207 -0.2054
 2752TIP3    H1 8220   4.050   1.425   0.775  1.0958 -1.6730  0.1275
 2752TIP3    H2 8221   3.899   1.428   0.767  1.1427  1.3740 -1.3640
 2753TIP3   OH2 8222   4.469   1.964   2.742 -0.5222 -0.0718  0.1081
 2753TIP3    H1 8223   4.561   1.947   2.722 -0.6536 -0.9870  0.2472
 2753TIP3    H2 8224   4.433   1.878   2.764 -1.2342  0.3836  0.7766
 2754TIP3   OH2 8225   3.696   6.762   5.621 -0.1129 -0.2267  0.6811
 2754TIP3    H1 8226   3.602   6.776   5.636  0.5933  2.8411  3.3081
 2754TIP3    H2 8227   3.725   6.708   5.694  0.3342 -0.5246  0.2937
 2755TIP3   OH2 8228   7.161   2.129   3.588 -0.6950 -0.3135 -0.0373
 2755TIP3    H1 8229   7.157   2.155   3.680 -0.1173 -0.0621 -0.0791
 2755TIP3    H2 8230   7.078   2.159   3.551 -0.9939 -0.5474  0.4344
 2756TIP3   OH2 8231   6.884   6.294   4.802  0.5935 -0.5084 -0.1830
 2756TIP3    H1 8232   6.951   6.324   4.741 -0.5658  0.4432 -1.0133
 2756TIP3    H2 8233   6.806   6.281   4.749 -0.7816  1.4530  1.2049
 2757TIP3   OH2 8234   4.781   5.680   0.157 -0.0311 -0.3022  0.0954
 2757TIP3    H1 8235   4.811   5.678   0.248  0.7321  0.9491 -0.1013
 2757TIP3    H2 8236   4.794   5.591   0.126  4.5978  0.2237 -0.2475
 2758TIP3   OH2 8237   3.441   4.125   3.961 -0.0469 -0.6613 -0.0073
 2758TIP3    H1 8238   3.423   4.216   3.934 -1.6935 -0.9423  0.0808
 2758TIP3    H2 8239   3.497   4.091   3.891 -0.2652  0.1192 -0.5801
 2759TIP3   OH2 8240   1.576   6.488   3.649 -0.3706 -0.5231 -0.5336
 2759TIP3    H1 8241   1.550   6.538   3.726 -1.0820 -0.2139 -0.9653
 2759TIP3    H2 8242   1.605   6.553   3.586  1.8152 -0.8711  0.0257
 2760TIP3   OH2 8243   4.052   1.778   4.675 -0.1614 -0.5212  0.0901
 2760TIP3    H1 8244   4.058   1.765   4.770  0.0306 -0.3825  0.0967
 2760TIP3    H2 8245   4.083   1.867   4.661 -0.4430 -0.4500 -0.0756
 2761TIP3   OH2 8246   0.707   2.782   2.879  0.0128 -0.3089  0.2416
 2761TIP3    H1 8247   0.798   2.798   2.853 -0.0319  0.4366  0.5242
 2761TIP3    H2 8248   0.663   2.757   2.798  0.9110 -2.7948  0.4361
 2762TIP3   OH2 8249   1.115   5.276   5.277 -0.0730 -0.5929  0.0827
 2762TIP3    H1 8250   1.063   5.276   5.197  2.3752 -1.6899 -1.6358
 2762TIP3    H2 8251   1.080   5.204   5.329 -0.5077 -1.0800 -0.8677
 2763TIP3   OH2 8252   7.151   2.117   3.005  0.6557 -0.2973 -0.5519
 2763TIP3    H1 8253   7.201   2.052   2.956  0.9932 -0.9580  0.6401
 2763TIP3    H2 8254   7.210   2.147   3.074  0.1716  0.5833 -0.5012
 2764TIP3   OH2 8255   4.603   3.558   0.616  0.0848  0.1545 -0.1216
 2764TIP3    H1 8256   4.512   3.583   0.603  0.1295 -0.1150 -1.0237
 2764TIP3    H2 8257   4.610   3.471   0.576  0.5247 -0.2155  0.7344
 2765TIP3   OH2 8258   5.790   3.322   2.124  0.4686  0.3505  0.2632
 2765TIP3    H1 8259   5.719   3.367   2.079 -0.1788 -0.3239  0.5871
 2765TIP3    H2 8260   5.831   3.268   2.056 -0.2694 -0.3786  0.3802
 2766TIP3   OH2 8261   3.994   6.185   0.045 -0.6324 -0.2654 -0.0141
 2766TIP3    H1 8262   3.993   6.235   0.127 -2.2961 -0.5531  0.1726
 2766TIP3    H2 8263   4.077   6.209   0.004  0.0852  0.1611  1.5817
 2767TIP3   OH2 8264   4.027   1.965   1.529 -0.4752  0.2120  0.5323
 2767TIP3    H1 8265   4.091   1.975   1.459  1.8336  1.1405  2.6386
 2767TIP3    H2 8266   4.034   1.874   1.555 -2.3548 -0.5281 -1.2264
 2768TIP3   OH2 8267   2.075   0.301   3.044 -0.5451 -0.8509  0.0242
 2768TIP3    H1 8268   2.117   0.383   3.069  0.8226 -1.2577 -0.8320
 2768TIP3    H2 8269   2.043   0.265   3.127 -0.1204 -0.0216  0.5645
 2769TIP3   OH2 8270   6.095   4.112   1.809 -0.4563 -0.4353  0.1589
 2769TIP3    H1 8271   6.191   4.106   1.813 -0.4599 -0.3184  0.4033
 2769TIP3    H2 8272   6.073   4.079   1.721 -0.1392  0.1868 -0.1562
 2770TIP3   OH2 8273   4.718   5.347   0.717  0.0454  0.2455 -0.5405
 2770TIP3    H1 8274   4.642   5.310   0.762 -0.2815 -0.4958 -1.6692
 2770TIP3    H2 8275   4.702   5.331   0.624  1.4238  0.3828 -0.8312
 2771TIP3   OH2 8276   5.612   3.145   1.204 -0.4369  0.1150 -0.2518
 2771TIP3    H1 8277   5.547   3.165   1.136 -1.1767 -1.3235 -0.0064
 2771TIP3    H2 8278   5.583   3.062   1.241 -0.7026  1.4021  2.6570
 2772TIP3   OH2 8279   3.387   6.185   4.490  0.1192 -0.0700 -0.3412
 2772TIP3    H1 8280   3.349   6.176   4.402 -0.2208 -2.5517 -0.0238
 2772TIP3    H2 8281   3.482   6.187   4.474  0.0532 -0.2689 -0.7829
 2773TIP3   OH2 8282   4.188   2.482   4.851  0.3717  0.4286  0.0756
 2773TIP3    H1 8283   4.185   2.423   4.775 -1.6595  0.2247  0.2588
 2773TIP3    H2 8284   4.266   2.536   4.836  1.2942 -1.1002 -0.9876
 2774TIP3   OH2 8285   3.596   0.139   2.438 -0.0748 -0.6988  0.0108
 2774TIP3    H1 8286   3.544   0.170   2.364  0.3315  0.2836  0.1224
 2774TIP3    H2 8287   3.618   0.049   2.416 -1.3569 -0.9504 -0.2870
 2775TIP3   OH2 8288   6.128   4.306   4.590  0.1881 -0.3094  0.0612
 2775TIP3    H1 8289   6.138   4.277   4.681 -1.6144 -1.7945 -0.1711
 2775TIP3    H2 8290   6.218   4.311   4.557  0.7950 -1.4733  1.4032
 2776TIP3   OH2 8291   4.401   1.382   4.206  0.0873 -0.4774 -0.2847
 2776TIP3    H1 8292   4.309   1.361   4.192  0.3066 -0.9019 -1.1232
 2776TIP3    H2 8293   4.449   1.326   4.145  0.7582  1.5705 -1.7337
 2777TIP3   OH2 8294   1.042   4.782   4.868 -0.1790 -0.1536  0.2018
 2777TIP3    H1 8295   1.043   4.702   4.817  2.0686  0.6759 -1.2158
 2777TIP3    H2 8296   1.005   4.756   4.953  0.0122 -2.5484 -0.3753
 2778TIP3   OH2 8297   5.612   4.122   5.332  0.1881  0.3414  0.5764
 2778TIP3    H1 8298   5.525   4.137   5.297 -0.9381 -2.4291  1.8861
 2778TIP3    H2 8299   5.605   4.146   5.425  1.6748  2.7269  0.1526
 2779TIP3   OH2 8300   1.330   2.538   4.978 -0.1376  0.5347 -0.3921
 2779TIP3    H1 8301   1.369   2.455   5.005  0.4021  1.1863  0.9526
 2779TIP3    H2 8302   1.255   2.514   4.924 -0.5090 -0.8464  0.7017
 2780TIP3   OH2 8303   2.506   4.683   3.773  0.0080  0.1604  0.0983
 2780TIP3    H1 8304   2.439   4.751   3.783 -0.9432 -0.4465 -1.6355
 2780TIP3    H2 8305   2.557   4.711   3.696 -0.5089 -1.1294 -0.7546
 2781TIP3   OH2 8306   6.260   2.976   3.429 -0.8875 -0.7192 -0.1857
 2781TIP3    H1 8307   6.182   3.028   3.451 -1.1107 -1.3557  0.5628
 2781TIP3    H2 8308   6.315   3.037   3.379 -1.8374 -0.2474 -0.6938
 2782TIP3   OH2 8309   6.715   4.751   1.626  0.5427 -0.4055 -0.5988
 2782TIP3    H1 8310   6.703   4.658   1.647  1.0790 -0.1837  0.7704
 2782TIP3    H2 8311   6.734   4.792   1.710  0.6540  0.8982 -1.2445
 2783TIP3   OH2 8312   3.516   1.508   4.277  0.3296  0.2413  0.4935
 2783TIP3    H1 8313   3.510   1.452   4.200  0.6922  1.7373 -0.6489
 2783TIP3    H2 8314   3.425   1.528   4.299  0.2322  2.4025 -1.5388
 2784TIP3   OH2 8315   3.542   0.499   5.445 -0.4232  0.0308  0.2210
 2784TIP3    H1 8316   3.543   0.491   5.350  0.4394 -0.1554  0.2371
 2784TIP3    H2 8317   3.510   0.588   5.461  0.1204  0.3251 -0.2725
 2785TIP3   OH2 8318   3.355   2.128   4.859 -0.4564  0.1149  0.4225
 2785TIP3    H1 8319   3.337   2.106   4.767  0.8609  0.3527  0.0741
 2785TIP3    H2 8320   3.368   2.044   4.902 -0.0147  0.0321  0.1360
 2786TIP3   OH2 8321   1.209   5.312   1.597  0.8595  0.3748  0.0291
 2786TIP3    H1 8322   1.275   5.289   1.531 -0.0822  0.2850 -0.9001
 2786TIP3    H2 8323   1.126   5.308   1.551  0.0845 -0.4180  1.4098
 2787TIP3   OH2 8324   5.023   3.874   4.067  0.8272 -0.1412 -0.5603
 2787TIP3    H1 8325   4.956   3.942   4.074 -0.6759 -1.5658 -0.4615
 2787TIP3    H2 8326   5.081   3.891   4.141  0.8011  1.3390 -0.8429
 2788TIP3   OH2 8327   0.223   2.169   4.380  0.0318  0.0171 -0.2194
 2788TIP3    H1 8328   0.139   2.131   4.405  1.1037 -0.7502  2.6862
 2788TIP3    H2 8329   0.271   2.176   4.463  3.4500 -1.0690 -1.9450
 2789TIP3   OH2 8330   4.941   6.238   2.676  0.0598  0.9114  0.5304
 2789TIP3    H1 8331   4.893   6.264   2.597  3.2648 -1.0053 -2.2960
 2789TIP3    H2 8332   4.876   6.194   2.730 -2.3587  2.6610 -0.7423
 2790TIP3   OH2 8333   6.312   5.262   3.771  0.4110  0.1031  0.4609
 2790TIP3    H1 8334   6.254   5.338   3.765 -1.1520 -0.8985  1.8512
 2790TIP3    H2 8335   6.392   5.295   3.812 -0.8239  0.7620  2.4770
 2791TIP3   OH2 8336   3.460   4.903   5.509  0.0738  0.7402  0.4827
 2791TIP3    H1 8337   3.550   4.934   5.500 -0.6376  3.0283  0.6168
 2791TIP3    H2 8338   3.420   4.919   5.423 -0.3901  0.4552  0.6410
 2792TIP3   OH2 8339   6.094   2.045   0.170 -0.1303  0.4700 -0.2260
 2792TIP3    H1 8340   6.034   2.080   0.105  0.5878 -0.3322 -1.3420
 2792TIP3    H2 8341   6.181   2.066   0.137  0.3455 -2.1357 -0.8704
 2793TIP3   OH2 8342   6.768   5.262   1.124 -0.0047 -0.4986 -0.4326
 2793TIP3    H1 8343   6.757   5.180   1.173  0.3770 -0.6377 -0.5771
 2793TIP3    H2 8344   6.698   5.319   1.157  1.5375  0.1850  1.8472
 2794TIP3   OH2 8345   0.260   6.275   2.646  0.2796 -0.1023  0.4162
 2794TIP3    H1 8346   0.331   6.333   2.673  0.7505 -1.1294  1.5042
 2794TIP3    H2 8347   0.204   6.268   2.723 -0.4351 -0.1411 -0.0932
 2795TIP3   OH2 8348   5.597   5.434   1.383  0.3284  0.2378  0.2452
 2795TIP3    H1 8349   5.527   5.471   1.329  0.4842 -0.6303 -0.5635
 2795TIP3    H2 8350   5.588   5.479   1.467  1.2553  3.0472 -1.0166
 2796TIP3   OH2 8351   6.142   4.864   2.523 -0.4549  0.1244  0.3639
 2796TIP3    H1 8352   6.201   4.830   2.591  1.5697  1.5957 -0.5662
 2796TIP3    H2 8353   6.164   4.813   2.445  0.7481  1.6819 -0.3685
 2797TIP3   OH2 8354   2.526   5.863   3.540 -0.0819 -0.3303 -0.1652
 2797TIP3    H1 8355   2.450   5.901   3.585  0.5949  1.7494 -0.6573
 2797TIP3    H2 8356   2.589   5.935   3.535  1.5242 -1.7108 -0.6983
 2798TIP3   OH2 8357   2.985   5.103   0.256 -0.1362  0.7676  0.1771
 2798TIP3    H1 8358   2.931   5.073   0.329 -2.8524  2.5992 -0.9566
 2798TIP3    H2 8359   2.927   5.102   0.180  2.3671 -0.2787 -1.8899
 2799TIP3   OH2 8360   3.787   2.329   1.791  0.5443  0.8100 -0.1359
 2799TIP3    H1 8361   3.815   2.247   1.831  0.9660  0.3768 -1.2893
 2799TIP3    H2 8362   3.790   2.312   1.697  2.3793  2.6838 -0.4844
 2800TIP3   OH2 8363   1.340   3.346   5.298 -0.1198  0.3396 -0.2204
 2800TIP3    H1 8364   1.433   3.324   5.300  0.2758  1.8995  0.4621
 2800TIP3    H2 8365   1.331   3.418   5.361 -2.2169 -1.2880  1.4899
 2801TIP3   OH2 8366   0.613   1.643   1.904  0.2099  0.0407  0.0474
 2801TIP3    H1 8367   0.532   1.685   1.873 -1.3113 -1.4978  1.7171
 2801TIP3    H2 8368   0.643   1.700   1.974 -0.3146 -0.1763  0.4597
 2802TIP3   OH2 8369   3.441   1.485   3.453  0.5676  0.2784 -0.0580
 2802TIP3    H1 8370   3.473   1.466   3.365  0.2724  0.3634 -0.1852
 2802TIP3    H2 8371   3.432   1.580   3.456  0.3665  0.2593 -0.0114
 2803TIP3   OH2 8372   4.711   0.164   4.738  0.8147 -0.0925 -0.4268
 2803TIP3    H1 8373   4.653   0.172   4.814  1.3898 -1.5003  0.2088
 2803TIP3    H2 8374   4.769   0.240   4.743 -0.0720  0.5777 -0.2700
 2804TIP3   OH2 8375   1.608   4.860   3.260 -0.1266  1.0939  0.2348
 2804TIP3    H1 8376   1.679   4.823   3.208 -0.8081 -0.1547  0.1544
 2804TIP3    H2 8377   1.647   4.935   3.304  1.5091 -0.0857  0.8898
 2805TIP3   OH2 8378   0.297   3.366   5.729 -0.4584 -0.1095 -0.4101
 2805TIP3    H1 8379   0.284   3.371   5.824  0.0330 -1.0575 -0.2791
 2805TIP3    H2 8380   0.367   3.428   5.711 -1.0212  0.5809 -0.2566
 2806TIP3   OH2 8381   1.924   2.415   2.490  0.5066 -0.1149  0.2105
 2806TIP3    H1 8382   1.842   2.369   2.508  0.4390  0.4772  1.5293
 2806TIP3    H2 8383   1.992   2.356   2.521  0.4458  0.4266  1.4079
 2807TIP3   OH2 8384   0.020   3.319   5.742  0.1399 -0.2170 -0.0107
 2807TIP3    H1 8385   0.113   3.336   5.729 -0.0594  0.8122 -0.1589
 2807TIP3    H2 8386  -0.012   3.395   5.791 -1.0297  0.4454 -1.7030
 2808TIP3   OH2 8387   3.368   1.362   2.672 -0.3372  0.2774  0.1883
 2808TIP3    H1 8388   3.463   1.354   2.681 -0.3511  0.6710  0.6938
 2808TIP3    H2 8389   3.333   1.299   2.735 -0.4133  0.5949  0.4659
 2809TIP3   OH2 8390   3.885   0.585   1.750 -0.0890 -0.1516  0.4856
 2809TIP3    H1 8391   3.902   0.576   1.843 -0.2153  1.7142  0.7340
 2809TIP3    H2 8392   3.966   0.622   1.714  0.2731 -1.6496 -0.3189
 2810TIP3   OH2 8393   4.451   5.087   0.449  0.6319  0.1165  0.1382
 2810TIP3    H1 8394   4.429   5.114   0.538  0.1745 -1.2518  0.4690
 2810TIP3    H2 8395   4.367   5.063   0.409  1.0968 -2.2930  0.4241
 2811TIP3   OH2 8396   5.206   4.664   3.524  0.2046 -0.3691  0.1974
 2811TIP3    H1 8397   5.276   4.697   3.468  0.5129  1.6577  1.6456
 2811TIP3    H2 8398   5.137   4.638   3.463  1.2457 -0.0793 -1.1725
 2812TIP3   OH2 8399   3.986   6.282   3.778  0.0987 -0.2446 -0.0435
 2812TIP3    H1 8400   4.049   6.211   3.789  1.7006  1.1251 -0.1026
 2812TIP3    H2 8401   4.038   6.357   3.751 -1.6600  0.7671 -0.7882
 2813TIP3   OH2 8402   4.228   6.227   4.169  0.2280 -0.2596  0.4387
 2813TIP3    H1 8403   4.293   6.294   4.190 -2.0307  1.7002  1.7119
 2813TIP3    H2 8404   4.212   6.182   4.253 -1.0607  0.2869  0.5130
 2814TIP3   OH2 8405   1.694   1.850   3.385  0.0618 -0.4587  0.2357
 2814TIP3    H1 8406   1.639   1.915   3.342  0.8494  0.4741  0.6074
 2814TIP3    H2 8407   1.654   1.838   3.471  1.3273  1.4952  1.1785
 2815TIP3   OH2 8408   3.586   1.106   4.449 -0.1896 -0.7519  0.2828
 2815TIP3    H1 8409   3.599   1.199   4.429 -1.6852 -1.0463 -2.6899
 2815TIP3    H2 8410   3.538   1.106   4.532 -1.2193  1.2280 -0.2350
 2816TIP3   OH2 8411   6.133   3.379   5.016 -0.4567  0.1427 -0.1928
 2816TIP3    H1 8412   6.193   3.308   4.993  0.3902  0.3421  1.2296
 2816TIP3    H2 8413   6.139   3.440   4.943  0.0681 -0.4800 -0.6840
 2817TIP3   OH2 8414   1.232   4.365   0.542  0.3809  0.2866 -0.0534
 2817TIP3    H1 8415   1.157   4.370   0.601  1.0627  0.3799  0.8120
 2817TIP3    H2 8416   1.200   4.401   0.459 -0.3807  0.7891  0.4522
 2818TIP3   OH2 8417   3.390   6.597   2.499 -0.2764 -0.0749 -0.1451
 2818TIP3    H1 8418   3.398   6.617   2.592  0.8052  1.4365 -0.5240
 2818TIP3    H2 8419   3.441   6.665   2.455 -1.9084  0.0719 -1.9260
 2819TIP3   OH2 8420   6.194   2.462   2.615  0.1782  0.0215  0.5523
 2819TIP3    H1 8421   6.244   2.493   2.540  0.7659 -0.1558  0.8667
 2819TIP3    H2 8422   6.124   2.408   2.577 -1.0583  1.9420 -0.0298
 2820TIP3   OH2 8423   4.562   6.096   2.533  0.3944  0.9081 -0.0555
 2820TIP3    H1 8424   4.633   6.132   2.588 -0.7360  0.6919  1.6202
 2820TIP3    H2 8425   4.498   6.063   2.596 -1.6452  1.9191 -1.5050
 2821TIP3   OH2 8426   7.016   5.572   4.407  0.2096  0.1070 -0.4958
 2821TIP3    H1 8427   7.073   5.590   4.482 -1.6555  0.2842  0.9426
 2821TIP3    H2 8428   6.939   5.529   4.444 -0.5376 -0.2907 -2.3854
 2822TIP3   OH2 8429   5.267   5.937   2.140  0.1003  0.1609  0.0492
 2822TIP3    H1 8430   5.205   5.899   2.079  0.4994 -1.4103  0.5778
 2822TIP3    H2 8431   5.353   5.915   2.103  0.3403 -0.3339  0.8810
 2823TIP3   OH2 8432   3.408   1.806   5.829  0.2609 -0.8706 -0.6626
 2823TIP3    H1 8433   3.334   1.759   5.792 -0.4921  1.3360 -2.1848
 2823TIP3    H2 8434   3.370   1.861   5.898  0.6138 -0.4509 -0.7945
 2824TIP3   OH2 8435   3.821   2.968   4.481 -0.1475  0.2282  0.6783
 2824TIP3    H1 8436   3.740   2.983   4.530  0.1338  0.3306  1.1183
 2824TIP3    H2 8437   3.889   2.964   4.548  0.1095 -0.6809  0.3750
 2825TIP3   OH2 8438   2.161   3.293   4.580 -0.4274  0.3487 -0.0243
 2825TIP3    H1 8439   2.145   3.214   4.527 -2.7849  1.6169 -1.3867
 2825TIP3    H2 8440   2.139   3.266   4.669 -0.8802 -0.6456 -0.4149
 2826TIP3   OH2 8441   3.350   0.855   4.528  0.0441 -0.2791 -0.0389
 2826TIP3    H1 8442   3.390   0.936   4.561 -0.0528 -0.8662  1.6074
 2826TIP3    H2 8443   3.290   0.884   4.460  0.6928  0.9529 -0.1161
 2827TIP3   OH2 8444   2.731   4.055   1.173 -0.2617 -0.2277  0.1466
 2827TIP3    H1 8445   2.736   4.085   1.264  1.2515  0.5997 -0.1747
 2827TIP3    H2 8446   2.762   4.130   1.122 -1.7287 -0.4310 -1.1220
 2828TIP3   OH2 8447   2.832   2.158   3.146  0.2162  0.1494  0.1514
 2828TIP3    H1 8448   2.822   2.125   3.057 -0.9652  0.3588  0.1847
 2828TIP3    H2 8449   2.846   2.252   3.136 -1.1618  0.3812  0.2078
 2829TIP3   OH2 8450   5.119   1.029   1.183 -0.1153  0.5792  0.1220
 2829TIP3    H1 8451   5.066   1.106   1.164  0.8867  2.0607  2.7175
 2829TIP3    H2 8452   5.202   1.065   1.215 -0.7068 -1.3271  4.6443
 2830TIP3   OH2 8453   1.296   5.132   4.298 -0.0097 -0.3439 -0.2335
 2830TIP3    H1 8454   1.305   5.125   4.394  0.1907  0.7315 -0.1540
 2830TIP3    H2 8455   1.382   5.109   4.265  1.0134  2.5226  0.0856
 2831TIP3   OH2 8456   1.711   1.179   5.659  0.0483 -0.4432  1.2742
 2831TIP3    H1 8457   1.631   1.128   5.651 -0.6956  0.6538  1.5101
 2831TIP3    H2 8458   1.773   1.119   5.701 -1.2708 -0.6754  2.9888
 2832TIP3   OH2 8459   6.228   5.812   1.317  0.3946  0.0623  0.2689
 2832TIP3    H1 8460   6.183   5.751   1.376  0.3228 -1.7622 -1.5796
 2832TIP3    H2 8461   6.263   5.757   1.247  1.3289  2.0315 -0.8959
 2833TIP3   OH2 8462   6.263   0.129   3.316  0.1063  0.1831  0.4957
 2833TIP3    H1 8463   6.176   0.166   3.299 -0.1539 -0.6039  0.0366
 2833TIP3    H2 8464   6.259   0.042   3.277  1.5628  0.6505 -0.7777
 2834TIP3   OH2 8465   1.878   4.710   3.772 -0.0543 -0.0893  0.3954
 2834TIP3    H1 8466   1.838   4.650   3.709 -1.2694  0.4676  0.6037
 2834TIP3    H2 8467   1.926   4.654   3.832 -1.3332 -0.9028  0.7059
 2835TIP3   OH2 8468   5.402   6.573   5.444  0.3458 -0.3376 -0.1519
 2835TIP3    H1 8469   5.349   6.641   5.487  0.3995 -0.9274  0.8747
 2835TIP3    H2 8470   5.353   6.551   5.365 -0.7955 -0.6346  0.6100
 2836TIP3   OH2 8471   5.164   2.090   4.973 -0.0754 -0.3620 -0.2788
 2836TIP3    H1 8472   5.074   2.116   4.992  0.5885  1.3971  0.6527
 2836TIP3    H2 8473   5.204   2.079   5.059  0.2078 -2.7863 -0.6493
 2837TIP3   OH2 8474   6.789   3.592   4.269  0.1756 -0.3557  0.2150
 2837TIP3    H1 8475   6.813   3.670   4.218 -0.6496  0.8067  1.5116
 2837TIP3    H2 8476   6.795   3.520   4.207 -0.8123  0.9979 -1.5612
 2838TIP3   OH2 8477   1.639   5.608   3.845  0.5762 -0.1475  0.9247
 2838TIP3    H1 8478   1.560   5.565   3.811  0.6146  0.5953 -0.1443
 2838TIP3    H2 8479   1.711   5.553   3.815  0.5992  0.4121 -0.0786
 2839TIP3   OH2 8480   3.665   2.886   2.059  0.4969 -0.3758 -0.0790
 2839TIP3    H1 8481   3.716   2.957   2.019  1.0184 -0.6164  0.1460
 2839TIP3    H2 8482   3.626   2.840   1.985  0.1803  0.1199 -0.2296
 2840TIP3   OH2 8483   6.361   0.944   3.355  0.0349  0.0786 -0.2150
 2840TIP3    H1 8484   6.362   0.849   3.350 -2.0351 -0.2322  2.6094
 2840TIP3    H2 8485   6.293   0.971   3.294 -0.3114 -0.3873 -0.0409
 2841TIP3   OH2 8486   5.202   3.759   2.458  0.1154 -0.0063 -0.1240
 2841TIP3    H1 8487   5.140   3.714   2.515  0.0652  0.8220  0.5021
 2841TIP3    H2 8488   5.288   3.722   2.482  0.0311 -0.0523  0.1140
 2842TIP3   OH2 8489   4.987   6.371   1.860 -0.4017  0.1139 -0.6843
 2842TIP3    H1 8490   5.020   6.375   1.771 -0.7869  0.5148 -0.8145
 2842TIP3    H2 8491   5.051   6.421   1.912  1.3128 -2.3877 -0.2418
 2843TIP3   OH2 8492   0.885   0.245   0.969 -0.3383  0.0230  0.5050
 2843TIP3    H1 8493   0.836   0.183   1.022  1.7175 -1.5294  0.7277
 2843TIP3    H2 8494   0.910   0.196   0.891  1.5517  0.4292  0.7949
 2844TIP3   OH2 8495   0.718   3.234   0.691 -0.1985  0.5232  0.1673
 2844TIP3    H1 8496   0.692   3.143   0.707 -0.7203  0.5595 -0.4546
 2844TIP3    H2 8497   0.741   3.236   0.598  0.6063  0.8448  0.3586
 2845TIP3   OH2 8498   4.072   3.718   5.386 -0.8105  0.0997 -0.2652
 2845TIP3    H1 8499   4.080   3.701   5.480  0.2645 -1.9884 -0.6712
 2845TIP3    H2 8500   3.984   3.690   5.363 -0.5442 -0.8469 -0.1397
 2846TIP3   OH2 8501   3.764   3.376   0.708 -0.4647 -0.5623 -0.3365
 2846TIP3    H1 8502   3.804   3.377   0.796  0.7587 -1.3695 -0.8495
 2846TIP3    H2 8503   3.671   3.391   0.724 -0.3681 -1.3083  1.1676
 2847TIP3   OH2 8504   2.331   6.672   2.706  0.2592 -0.7480  0.0449
 2847TIP3    H1 8505   2.423   6.687   2.726  0.2707  0.6820 -0.9043
 2847TIP3    H2 8506   2.299   6.757   2.674 -1.0516 -1.5381 -0.8859
 2848TIP3   OH2 8507   2.809   0.085   0.926  0.2681 -0.2279 -0.4700
 2848TIP3    H1 8508   2.838   0.019   0.989  1.4862  1.0975  0.4192
 2848TIP3    H2 8509   2.726   0.117   0.962  0.4354 -0.2060 -0.1008
 2849TIP3   OH2 8510   3.025   1.807   5.564 -0.0351 -0.0060  0.1363
 2849TIP3    H1 8511   3.093   1.806   5.497 -0.3953  0.4141 -0.2466
 2849TIP3    H2 8512   2.975   1.887   5.545  0.0728  0.3069  1.1263
 2850TIP3   OH2 8513   5.948   0.804   3.130 -0.0974  0.5036 -0.2408
 2850TIP3    H1 8514   5.951   0.853   3.047  1.5372 -0.9094 -1.0780
 2850TIP3    H2 8515   5.878   0.739   3.116  0.0847  0.3539 -0.4617
 2851TIP3   OH2 8516   2.351   6.038   2.196 -0.2602 -0.3549 -0.0740
 2851TIP3    H1 8517   2.321   5.967   2.252 -0.8023 -0.4153 -0.4369
 2851TIP3    H2 8518   2.402   6.094   2.255 -0.2775 -0.7565  0.3325
 2852TIP3   OH2 8519   3.826   1.911   3.688  0.1011  0.2154 -0.0883
 2852TIP3    H1 8520   3.762   1.842   3.706 -0.4023  0.7274  0.1260
 2852TIP3    H2 8521   3.845   1.903   3.595  0.6030 -0.6804  0.0878
 2853TIP3   OH2 8522   1.703   5.811   3.323  0.0598  0.5916  0.7838
 2853TIP3    H1 8523   1.608   5.805   3.327 -0.1930  1.1237 -2.0946
 2853TIP3    H2 8524   1.721   5.905   3.321  0.4622  0.5055 -0.5482
 2854TIP3   OH2 8525   0.252   0.924   4.473  1.2141 -0.1961  0.3184
 2854TIP3    H1 8526   0.318   0.855   4.483 -0.4354 -1.7668  1.0173
 2854TIP3    H2 8527   0.169   0.877   4.463  0.2482  1.6910 -1.2623
 2855TIP3   OH2 8528   0.112   1.516   2.342 -0.0623 -0.2580 -0.0758
 2855TIP3    H1 8529   0.134   1.548   2.429  0.8594  0.9303 -0.7094
 2855TIP3    H2 8530   0.037   1.569   2.315  0.9518  0.8785 -0.7978
 2856TIP3   OH2 8531   3.581   4.438   4.863 -0.2173 -0.1322 -0.1659
 2856TIP3    H1 8532   3.632   4.365   4.899  0.5662  0.6853  0.4546
 2856TIP3    H2 8533   3.510   4.397   4.815  0.0321 -1.2985  0.4256
 2857TIP3   OH2 8534   7.019   0.573   1.112  0.3791  0.2570 -0.0963
 2857TIP3    H1 8535   7.043   0.525   1.033  0.8646  0.1974  0.0841
 2857TIP3    H2 8536   7.101   0.609   1.144 -0.0742  2.0254 -0.7529
 2858TIP3   OH2 8537   5.552   1.012   0.895 -1.0675  0.4091  0.2513
 2858TIP3    H1 8538   5.569   1.027   0.988 -1.8931 -0.1241  0.5019
 2858TIP3    H2 8539   5.496   0.934   0.893 -1.2062  0.5176 -0.6873
 2859TIP3   OH2 8540   2.274   5.309   4.857  0.3088 -0.1490 -0.0009
 2859TIP3    H1 8541   2.320   5.229   4.882  0.1187 -0.3346 -0.2302
 2859TIP3    H2 8542   2.291   5.371   4.928 -0.5445 -0.7913  0.7894
 2860TIP3   OH2 8543   6.921   4.143   5.185  0.0185  0.1367  0.2305
 2860TIP3    H1 8544   6.863   4.067   5.171  0.9981 -0.4525 -0.8293
 2860TIP3    H2 8545   6.935   4.146   5.279 -0.3549 -0.7600  0.3227
 2861TIP3   OH2 8546   6.543   2.571   5.077  0.2263  0.0005  0.1960
 2861TIP3    H1 8547   6.465   2.614   5.112  0.0655 -1.2565  1.4351
 2861TIP3    H2 8548   6.509   2.504   5.018  0.2933 -1.4117  1.7225
 2862TIP3   OH2 8549   1.554   0.199   0.130 -0.0025 -0.2257 -0.2476
 2862TIP3    H1 8550   1.570   0.123   0.074  1.1881 -0.0195 -0.2133
 2862TIP3    H2 8551   1.511   0.263   0.073 -0.4770 -0.6974 -0.4270
 2863TIP3   OH2 8552   7.151   4.080   3.110 -0.0011 -0.1562 -0.0202
 2863TIP3    H1 8553   7.076   4.034   3.072  0.8057 -0.4454 -1.3080
 2863TIP3    H2 8554   7.113   4.138   3.176 -1.5036  0.8154 -1.6824
 2864TIP3   OH2 8555   4.825   1.469   4.420  0.0022  0.0948 -0.0879
 2864TIP3    H1 8556   4.810   1.561   4.401 -1.5735 -0.2730 -0.8077
 2864TIP3    H2 8557   4.795   1.423   4.342  1.3676 -1.0154 -0.0024
 2865TIP3   OH2 8558   2.445   6.711   3.176  0.3645  0.5186 -0.4919
 2865TIP3    H1 8559   2.393   6.667   3.110  1.8587 -1.4780 -0.4347
 2865TIP3    H2 8560   2.487   6.783   3.130  0.0737  0.1810 -1.2955
 2866TIP3   OH2 8561   2.908   5.371   3.194 -0.5756 -0.5084 -0.6142
 2866TIP3    H1 8562   2.874   5.360   3.283 -0.2988 -0.5279 -0.5111
 2866TIP3    H2 8563   3.003   5.375   3.204 -0.4796 -1.4767 -0.9974
 2867TIP3   OH2 8564   5.593   1.102   0.230  0.4291 -0.2793 -0.3450
 2867TIP3    H1 8565   5.656   1.036   0.202 -0.1826 -0.0346 -2.5546
 2867TIP3    H2 8566   5.637   1.186   0.217 -0.0270 -0.1419 -1.1116
 2868TIP3   OH2 8567   5.885   1.156   0.602 -0.2064 -0.1175 -0.0025
 2868TIP3    H1 8568   5.886   1.152   0.698 -1.3087 -0.2108  0.0220
 2868TIP3    H2 8569   5.792   1.147   0.579  0.0502 -0.1290 -1.0816
 2869TIP3   OH2 8570   1.671   4.332   3.825 -1.5870  0.1810  0.2698
 2869TIP3    H1 8571   1.670   4.394   3.752  0.2383 -0.4199 -0.3226
 2869TIP3    H2 8572   1.658   4.247   3.784  0.5806 -0.2858  0.4407
 2870TIP3   OH2 8573   4.925   2.669   0.822  0.2241 -0.2616  0.0621
 2870TIP3    H1 8574   4.845   2.633   0.785 -1.4420  1.3358  1.8637
 2870TIP3    H2 8575   4.897   2.709   0.905  2.9813 -0.0637  0.9982
 2871TIP3   OH2 8576   1.986   5.893   3.136 -1.2268  0.2125  0.7172
 2871TIP3    H1 8577   1.907   5.844   3.112 -0.8367 -0.0218 -0.1415
 2871TIP3    H2 8578   1.993   5.961   3.069  0.7549 -1.4101 -0.8833
 2872TIP3   OH2 8579   1.111   2.838   1.887 -0.2522  0.5209  0.1011
 2872TIP3    H1 8580   1.159   2.833   1.969 -0.4441  0.6987  0.2226
 2872TIP3    H2 8581   1.051   2.763   1.890  0.0708  0.2513 -0.0863
 2873TIP3   OH2 8582   2.286   4.105   4.466  0.0450 -0.3859 -0.6450
 2873TIP3    H1 8583   2.272   4.079   4.375 -2.0792  0.9324 -0.7742
 2873TIP3    H2 8584   2.231   4.045   4.517  1.5794 -1.4220 -0.1218
 2874TIP3   OH2 8585   0.448   5.133   2.340  0.3331  0.4085 -0.0576
 2874TIP3    H1 8586   0.398   5.065   2.385 -0.8560  0.3178 -1.4274
 2874TIP3    H2 8587   0.539   5.102   2.341 -0.1436 -1.0797 -0.3991
 2875TIP3   OH2 8588   1.597   1.445   2.092 -0.6047  0.8661  0.4027
 2875TIP3    H1 8589   1.674   1.424   2.145 -0.8983 -0.6990  0.2273
 2875TIP3    H2 8590   1.542   1.499   2.150  0.2232  1.2990  0.8060
 2876TIP3   OH2 8591   3.439   6.615   3.679  0.0113  0.9995 -0.3336
 2876TIP3    H1 8592   3.531   6.639   3.688  0.3747  0.0386 -1.3406
 2876TIP3    H2 8593   3.401   6.685   3.626  0.4098  0.8421 -0.8285
 2877TIP3   OH2 8594   0.635   5.891   0.852 -0.4025 -0.7162 -0.0682
 2877TIP3    H1 8595   0.684   5.924   0.777 -0.9457 -1.5116 -0.7927
 2877TIP3    H2 8596   0.681   5.811   0.877 -1.2089 -1.3867 -0.6578
 2878TIP3   OH2 8597   6.266   0.278   2.769  0.0063 -0.0077  0.2494
 2878TIP3    H1 8598   6.269   0.336   2.845  1.9202 -1.8712  1.7152
 2878TIP3    H2 8599   6.308   0.197   2.799  2.2161 -0.3449 -3.1963
 2879TIP3   OH2 8600   2.152   0.255   3.891  0.1558 -0.0022 -0.0548
 2879TIP3    H1 8601   2.167   0.197   3.816 -0.4773 -1.3910  0.8493
 2879TIP3    H2 8602   2.237   0.258   3.936  0.1884 -0.2478 -0.0992
 2880TIP3   OH2 8603   6.950   2.751   1.485 -0.5775  0.5031  0.8159
 2880TIP3    H1 8604   6.945   2.837   1.445 -0.3042 -0.0643 -0.4928
 2880TIP3    H2 8605   6.898   2.695   1.428  1.6868 -0.8054 -0.0783
 2881TIP3   OH2 8606   4.586   4.134   0.345  0.2419 -0.0458 -0.1492
 2881TIP3    H1 8607   4.584   4.165   0.435  2.6037 -0.9677  0.2935
 2881TIP3    H2 8608   4.586   4.038   0.353 -0.4814 -0.1500 -1.1905
 2882TIP3   OH2 8609   0.054   3.601   4.685 -0.1168  0.2365 -0.4723
 2882TIP3    H1 8610  -0.011   3.667   4.709  0.8037  0.0251  3.1408
 2882TIP3    H2 8611   0.002   3.531   4.644 -2.0866  0.5469  1.2945
 2883TIP3   OH2 8612   2.046   5.817   1.811 -0.1586  0.8312  0.1092
 2883TIP3    H1 8613   2.115   5.858   1.760 -1.0005  0.3014 -1.5230
 2883TIP3    H2 8614   2.082   5.731   1.834  0.0006  0.8376 -0.1091
 2884TIP3   OH2 8615   5.554   6.578   3.271  0.5662  0.0767  0.3781
 2884TIP3    H1 8616   5.480   6.529   3.235  0.8160  0.9680 -1.4501
 2884TIP3    H2 8617   5.539   6.577   3.366 -0.7757 -1.3328  0.1924
 2885TIP3   OH2 8618   5.832   0.227   5.402  0.0239  0.2535 -0.2657
 2885TIP3    H1 8619   5.746   0.204   5.438  0.7647 -1.8916  0.2919
 2885TIP3    H2 8620   5.852   0.312   5.440 -2.0763  1.1039 -0.8694
 2886TIP3   OH2 8621   1.576   3.186   1.019 -0.2482 -0.2367  0.3047
 2886TIP3    H1 8622   1.560   3.249   1.089 -1.0159 -0.3623  0.2436
 2886TIP3    H2 8623   1.499   3.129   1.018 -0.2142 -0.2857 -0.5910
 2887TIP3   OH2 8624   1.290   2.776   2.094 -0.3931 -0.2440 -0.1185
 2887TIP3    H1 8625   1.248   2.700   2.135 -1.5401  0.2583 -0.3086
 2887TIP3    H2 8626   1.366   2.740   2.049 -2.1417 -1.7040 -2.1190
 2888TIP3   OH2 8627   6.855   5.752   4.830 -0.1950  0.1941 -0.0788
 2888TIP3    H1 8628   6.867   5.832   4.880 -2.5032  1.1593 -0.8984
 2888TIP3    H2 8629   6.761   5.732   4.839  0.3132 -2.5086  0.1875
 2889TIP3   OH2 8630   6.035   0.741   0.142 -0.2118  0.0998  0.1145
 2889TIP3    H1 8631   6.099   0.752   0.213  0.2754  1.1584 -0.4722
 2889TIP3    H2 8632   6.001   0.653   0.155 -0.2444  0.3108  1.7635
 2890TIP3   OH2 8633   2.306   1.793   3.591  0.0575  0.0606  0.6630
 2890TIP3    H1 8634   2.231   1.848   3.571 -0.8384 -1.3915 -0.1277
 2890TIP3    H2 8635   2.347   1.776   3.506  1.4676  1.0492  1.1051
 2891TIP3   OH2 8636   6.233   3.074   3.032  0.0897  0.1948 -0.1063
 2891TIP3    H1 8637   6.290   3.063   2.956 -0.0754  0.2392 -0.2367
 2891TIP3    H2 8638   6.180   2.994   3.034 -2.0270  1.4378 -1.8124
 2892TIP3   OH2 8639   4.630   6.085   0.046  0.2534  0.1719 -0.1833
 2892TIP3    H1 8640   4.690   6.015   0.024  0.3160 -0.1287  0.8850
 2892TIP3    H2 8641   4.639   6.096   0.141 -2.6397 -1.1377  0.3771
 2893TIP3   OH2 8642   6.603   6.451   3.108 -0.0579 -0.0011 -0.1642
 2893TIP3    H1 8643   6.638   6.413   3.188  0.1218  0.3182 -0.0891
 2893TIP3    H2 8644   6.636   6.395   3.038  2.1657  1.3385 -0.2630
 2894TIP3   OH2 8645   0.160   2.945   1.942 -0.0989  0.4941  0.4661
 2894TIP3    H1 8646   0.161   2.853   1.917  0.4949  0.7683 -0.6080
 2894TIP3    H2 8647   0.183   2.991   1.861 -0.4536  1.5870  0.9739
 2895TIP3   OH2 8648   7.034   5.189  -0.013  0.2397 -0.1963  0.4526
 2895TIP3    H1 8649   7.033   5.231   0.073 -1.4251 -0.6884  0.7150
 2895TIP3    H2 8650   7.019   5.096   0.005 -0.6046 -0.2342 -0.3845
 2896TIP3   OH2 8651   4.230   1.996   3.488 -0.4783  0.8251 -0.2568
 2896TIP3    H1 8652   4.198   2.072   3.440  1.0452  1.6020 -0.0981
 2896TIP3    H2 8653   4.245   2.027   3.577  0.2911  0.3902 -0.2214
 2897TIP3   OH2 8654   6.866   6.638   4.494  0.2291  0.0088  0.4014
 2897TIP3    H1 8655   6.890   6.718   4.541  0.9883  0.5295 -0.8302
 2897TIP3    H2 8656   6.800   6.596   4.550  0.0506  1.3278  1.2204
 2898TIP3   OH2 8657   0.056   4.877   4.626 -0.0979  0.1453 -0.3239
 2898TIP3    H1 8658   0.038   4.828   4.545 -1.1782  1.0883 -0.6852
 2898TIP3    H2 8659   0.030   4.817   4.696 -0.9452 -0.0027 -0.7471
 2899TIP3   OH2 8660   4.493   3.407   5.285  0.7562  0.0357 -0.7267
 2899TIP3    H1 8661   4.550   3.480   5.310 -0.7427  0.2997  2.3704
 2899TIP3    H2 8662   4.499   3.346   5.358  0.9581 -2.4304 -2.6609
 2900TIP3   OH2 8663   1.589   5.208   4.696 -0.1738 -0.3120  0.0136
 2900TIP3    H1 8664   1.669   5.241   4.737  0.6121  1.7203 -2.8072
 2900TIP3    H2 8665   1.518   5.248   4.746  0.7073  1.4917 -0.0877
 2901TIP3   OH2 8666   7.227   3.954   2.184  0.2557  0.2762  0.2847
 2901TIP3    H1 8667   7.212   3.864   2.154 -1.4944  0.9267 -0.9194
 2901TIP3    H2 8668   7.153   3.972   2.242  0.7037  0.9006  0.6743
 2902TIP3   OH2 8669   4.913   0.331   0.116 -0.5075  0.3731  0.6037
 2902TIP3    H1 8670   4.918   0.421   0.084  0.7686 -0.1278 -0.7093
 2902TIP3    H2 8671   4.836   0.294   0.073 -1.9887  1.2210  2.3473
 2903TIP3   OH2 8672   6.307   0.450   3.017 -0.4407  0.3026  0.2270
 2903TIP3    H1 8673   6.368   0.523   3.014  0.7340 -0.6604 -0.2842
 2903TIP3    H2 8674   6.356   0.379   3.058 -1.1203 -0.5769 -0.4184
 2904TIP3   OH2 8675   3.150   0.736   2.588  0.3049 -0.6821  0.4993
 2904TIP3    H1 8676   3.185   0.821   2.615  0.2265 -1.2101  2.4404
 2904TIP3    H2 8677   3.209   0.707   2.518  0.4834  0.8302 -0.0141
 2905TIP3   OH2 8678   1.535   0.989   4.169  0.0859 -0.2741 -0.0788
 2905TIP3    H1 8679   1.544   1.053   4.098 -1.8225 -0.2645 -0.3636
 2905TIP3    H2 8680   1.598   0.921   4.148 -0.4003 -0.2507 -1.7885
 2906TIP3   OH2 8681   3.388   1.098   3.736 -0.1984  0.8455 -0.0888
 2906TIP3    H1 8682   3.418   1.162   3.672  1.1762  0.7348  0.4254
 2906TIP3    H2 8683   3.397   1.014   3.692  3.4453  0.4484  1.0659
 2907TIP3   OH2 8684   1.347   2.630   5.243 -0.1263 -0.3043 -0.0767
 2907TIP3    H1 8685   1.345   2.620   5.148 -0.3015  1.3013 -0.2723
 2907TIP3    H2 8686   1.271   2.685   5.263  0.4933  0.2335  0.8782
 2908TIP3   OH2 8687   6.048   4.317   2.556 -0.4822  0.3367  0.0213
 2908TIP3    H1 8688   6.031   4.352   2.468  1.3578  1.6698  0.1413
 2908TIP3    H2 8689   5.996   4.373   2.614 -0.5555  0.4026 -0.1063
 2909TIP3   OH2 8690   4.485   0.435   5.000  0.2011 -0.3398 -0.4663
 2909TIP3    H1 8691   4.417   0.374   5.028  0.2663  0.3541  1.3330
 2909TIP3    H2 8692   4.487   0.427   4.905 -0.5553 -2.3004 -0.3584
 2910TIP3   OH2 8693   0.137   6.186   3.356 -0.0899  0.2299  0.9039
 2910TIP3    H1 8694   0.167   6.111   3.305  1.5583  0.6496  1.1733
 2910TIP3    H2 8695   0.098   6.245   3.292 -0.4594 -0.3917  0.5423
 2911TIP3   OH2 8696   0.444   2.209   1.606 -0.2670 -1.2583 -0.4305
 2911TIP3    H1 8697   0.420   2.293   1.645 -1.3755 -0.8055 -1.9661
 2911TIP3    H2 8698   0.461   2.152   1.681  1.7010  0.6097  0.6763
 2912TIP3   OH2 8699   2.036   6.047   5.759 -0.1897  0.4978 -0.2870
 2912TIP3    H1 8700   2.110   6.081   5.810  0.5625  0.2072 -1.1736
 2912TIP3    H2 8701   2.002   6.124   5.713  0.9178  0.2596 -1.5500
 2913TIP3   OH2 8702   3.499   6.436   0.078  0.2923 -0.1018  0.5208
 2913TIP3    H1 8703   3.420   6.384   0.069 -0.0465  0.6239 -0.9718
 2913TIP3    H2 8704   3.516   6.470  -0.009  2.5994 -0.7230  0.6455
 2914TIP3   OH2 8705   5.966   0.505   3.346  0.1233  0.3666  0.1416
 2914TIP3    H1 8706   6.034   0.556   3.389  1.1871 -0.7854 -0.0943
 2914TIP3    H2 8707   5.919   0.462   3.418  1.3652 -0.9006  0.2498
 2915TIP3   OH2 8708   4.671   0.612   2.257 -0.0365  0.4347 -0.2673
 2915TIP3    H1 8709   4.591   0.600   2.308 -0.7302 -0.2901 -1.4890
 2915TIP3    H2 8710   4.716   0.528   2.264  2.5426  1.8455  3.4416
 2916TIP3   OH2 8711   2.097   3.918   2.034  0.6773 -0.6525  0.3754
 2916TIP3    H1 8712   2.065   3.978   2.101 -0.8202 -1.1821  0.1758
 2916TIP3    H2 8713   2.053   3.835   2.053  0.7460 -0.9971 -0.8501
 2917TIP3   OH2 8714   5.492   1.119   1.970 -0.0208 -0.0887 -0.8127
 2917TIP3    H1 8715   5.495   1.158   2.057 -1.0071 -0.2022 -0.7209
 2917TIP3    H2 8716   5.552   1.045   1.975  1.8038  1.3045 -0.9620
 2918TIP3   OH2 8717   2.818   0.269   1.685  0.0985  0.4369 -0.3341
 2918TIP3    H1 8718   2.890   0.290   1.745 -0.3132  0.5695  0.1199
 2918TIP3    H2 8719   2.822   0.337   1.618  1.8897 -0.8942 -1.6693
 2919TIP3   OH2 8720   6.448   3.619   0.905  0.0494 -0.2358  0.0887
 2919TIP3    H1 8721   6.520   3.659   0.856  0.6433  0.3500  1.4022
 2919TIP3    H2 8722   6.372   3.674   0.883  1.0521  2.5251  2.7389
 2920TIP3   OH2 8723   2.879   3.723   1.399  0.3624 -0.1239  0.1203
 2920TIP3    H1 8724   2.862   3.759   1.312 -0.2086 -0.4343  0.1006
 2920TIP3    H2 8725   2.856   3.630   1.392  1.6993 -0.4868  0.2071
 2921TIP3   OH2 8726   0.756   3.190   4.826 -0.1915  0.3270  0.0352
 2921TIP3    H1 8727   0.706   3.269   4.805 -1.2874 -0.6955 -1.4123
 2921TIP3    H2 8728   0.835   3.222   4.869 -0.1684  2.2859 -1.3477
 2922TIP3   OH2 8729   5.578   4.063   3.221 -0.1781 -0.6399  0.1806
 2922TIP3    H1 8730   5.538   4.051   3.308  0.1709 -0.4979  0.3616
 2922TIP3    H2 8731   5.504   4.065   3.161 -0.4912  0.2144  0.5748
 2923TIP3   OH2 8732   0.155   4.556   3.455 -0.0260 -0.4201 -0.2701
 2923TIP3    H1 8733   0.241   4.536   3.417 -0.2447 -2.0330  0.0262
 2923TIP3    H2 8734   0.173   4.567   3.549 -0.3052 -2.0358 -0.0047
 2924TIP3   OH2 8735   2.631   2.327   0.699 -0.3040 -0.0666  0.0375
 2924TIP3    H1 8736   2.625   2.234   0.676  0.9893 -0.5564  1.5646
 2924TIP3    H2 8737   2.698   2.362   0.641 -1.2104  0.0852 -0.9548
 2925TIP3   OH2 8738   2.998   5.549   0.635  0.3858  0.0833 -0.1760
 2925TIP3    H1 8739   3.083   5.525   0.600  0.7773 -1.4533  1.6400
 2925TIP3    H2 8740   3.014   5.629   0.686  1.3862 -1.5377  2.2415
 2926TIP3   OH2 8741   5.482   3.640   0.998 -0.1147 -0.0132 -0.0884
 2926TIP3    H1 8742   5.535   3.658   1.075 -0.3572 -0.8258  0.2817
 2926TIP3    H2 8743   5.519   3.695   0.929  1.4164 -0.8006  0.0691
 2927TIP3   OH2 8744   2.510   2.905   4.282  0.0777 -0.1981 -0.0128
 2927TIP3    H1 8745   2.535   2.827   4.232 -0.1841 -0.0237 -0.4195
 2927TIP3    H2 8746   2.447   2.950   4.226 -1.5233 -0.8677  1.1770
 2928TIP3   OH2 8747   2.151   5.902   4.303 -0.3032  0.8237  0.6238
 2928TIP3    H1 8748   2.172   5.896   4.396  0.2977  0.2104  0.4607
 2928TIP3    H2 8749   2.208   5.971   4.270  0.6664 -0.0493  0.4096
 2929TIP3   OH2 8750   1.676   4.869   5.321  0.1276 -0.1116 -0.4889
 2929TIP3    H1 8751   1.660   4.963   5.331 -0.2082 -0.2348  0.2307
 2929TIP3    H2 8752   1.649   4.849   5.232 -2.2126  0.0195  0.1217
 2930TIP3   OH2 8753   0.541   0.166   2.381 -0.0188 -0.3004  0.6488
 2930TIP3    H1 8754   0.560   0.218   2.303  0.4028 -1.8941 -0.3830
 2930TIP3    H2 8755   0.587   0.083   2.366 -1.9175 -1.5922  1.4242
 2931TIP3   OH2 8756   1.735   2.823   3.873  0.4001  0.2697  0.0952
 2931TIP3    H1 8757   1.767   2.903   3.830  0.1033  0.5213  0.3365
 2931TIP3    H2 8758   1.642   2.820   3.852  0.6618 -0.7004 -0.9721
 2932TIP3   OH2 8759   1.853   5.586   5.768  0.2371  0.0036 -0.1484
 2932TIP3    H1 8760   1.826   5.641   5.695  1.4697  0.9715  0.0837
 2932TIP3    H2 8761   1.826   5.635   5.846 -0.8316 -0.8942  0.0546
 2933TIP3   OH2 8762   0.689   2.297   2.081 -0.2696 -0.0135 -0.5655
 2933TIP3    H1 8763   0.668   2.383   2.117 -0.2835 -1.0632  2.1449
 2933TIP3    H2 8764   0.612   2.273   2.030 -1.4307  0.4702  0.8863
 2934TIP3   OH2 8765   5.238   0.757   2.682 -0.4938  0.6534  0.2709
 2934TIP3    H1 8766   5.302   0.813   2.638  0.3282 -0.2549  0.2667
 2934TIP3    H2 8767   5.234   0.791   2.772 -1.6522  2.0693 -0.2828
 2935TIP3   OH2 8768   2.854   4.313   0.585 -0.2065  0.5560 -0.1113
 2935TIP3    H1 8769   2.849   4.381   0.651  1.2248 -0.3140  0.9416
 2935TIP3    H2 8770   2.899   4.240   0.628 -0.4774 -0.5584 -1.6120
 2936TIP3   OH2 8771   5.208   6.321   2.695  0.4271  0.0005 -0.5956
 2936TIP3    H1 8772   5.119   6.295   2.671  0.2908  0.8096 -0.9993
 2936TIP3    H2 8773   5.196   6.400   2.749  0.8321 -0.7075  0.5759
 2937TIP3   OH2 8774   2.312   5.331   3.611 -0.2811  0.2798 -0.1448
 2937TIP3    H1 8775   2.351   5.419   3.618 -1.8636  0.9184  1.6705
 2937TIP3    H2 8776   2.357   5.291   3.537  1.9034  1.8930  0.1850
 2938TIP3   OH2 8777   2.357   0.302   2.539  0.0706 -0.1744 -0.0678
 2938TIP3    H1 8778   2.308   0.378   2.506  1.9993  0.6222 -1.3046
 2938TIP3    H2 8779   2.294   0.230   2.537 -1.0989  0.8192 -1.4098
 2939TIP3   OH2 8780   0.825   0.922   1.379 -0.6348 -0.5722 -0.5201
 2939TIP3    H1 8781   0.818   0.908   1.285 -0.8500 -2.5434 -0.2441
 2939TIP3    H2 8782   0.768   0.998   1.396  0.2839  0.5202 -2.0935
 2940TIP3   OH2 8783   4.599   1.349   1.641 -0.4976  0.3637 -0.3270
 2940TIP3    H1 8784   4.640   1.430   1.671 -0.7908  0.6834 -0.7703
 2940TIP3    H2 8785   4.663   1.281   1.661  0.2206  0.8451 -0.9233
 2941TIP3   OH2 8786   6.047   5.611   2.943 -0.6383  0.1860 -0.4756
 2941TIP3    H1 8787   6.044   5.605   2.847  1.1199 -1.0272 -0.4874
 2941TIP3    H2 8788   6.018   5.524   2.972 -0.4954  0.3304  0.0872
 2942TIP3   OH2 8789   7.083   0.953   5.457  0.5071  0.2694 -0.4234
 2942TIP3    H1 8790   7.135   0.943   5.536 -0.4196  0.1443  0.1932
 2942TIP3    H2 8791   7.058   0.863   5.433  1.9517  0.1694 -1.6919
 2943TIP3   OH2 8792   0.478   4.878   1.575  0.1949  0.5151  0.3263
 2943TIP3    H1 8793   0.387   4.880   1.545 -0.9861 -0.1251  3.4953
 2943TIP3    H2 8794   0.482   4.947   1.641  0.8035 -1.9628  3.0614
 2944TIP3   OH2 8795   0.066   6.099   3.792 -0.5102  0.0129  0.1302
 2944TIP3    H1 8796   0.149   6.146   3.803  0.1867 -1.2189  0.3935
 2944TIP3    H2 8797  -0.002   6.164   3.812  0.2852  1.5708 -1.8888
 2945TIP3   OH2 8798   0.759   4.903   3.314  0.2097  0.1656 -0.5006
 2945TIP3    H1 8799   0.792   4.859   3.236  1.7443 -1.6976  1.0884
 2945TIP3    H2 8800   0.836   4.944   3.353 -0.4153  0.5578  0.3624
 2946TIP3   OH2 8801   6.546   2.048   1.773 -0.5468 -0.2663 -0.3019
 2946TIP3    H1 8802   6.495   2.016   1.699 -0.2167  0.6494 -0.9391
 2946TIP3    H2 8803   6.515   2.137   1.788 -1.0012 -0.6137  1.0342
 2947TIP3   OH2 8804   6.288   1.841   0.755  0.1201  0.4379 -0.1558
 2947TIP3    H1 8805   6.379   1.811   0.760  1.3683  3.9485  2.8336
 2947TIP3    H2 8806   6.291   1.914   0.693 -0.2520  1.4647  0.9867
 2948TIP3   OH2 8807   3.383   0.275   5.540 -0.0281 -0.3643  0.2614
 2948TIP3    H1 8808   3.461   0.313   5.500 -1.3579  1.3333 -0.8568
 2948TIP3    H2 8809   3.341   0.226   5.468 -0.7415 -0.0248  0.4386
 2949TIP3   OH2 8810   3.836   4.208   0.178  0.1266  0.4855 -0.5449
 2949TIP3    H1 8811   3.921   4.247   0.200  0.2210 -0.4392  0.8261
 2949TIP3    H2 8812   3.796   4.189   0.262 -0.5073 -1.0897 -1.1657
 2950TIP3   OH2 8813   7.022   4.341   1.923  0.0436  0.1697  0.3281
 2950TIP3    H1 8814   7.020   4.258   1.970 -0.0308  0.6048  1.1034
 2950TIP3    H2 8815   7.054   4.318   1.835 -1.2405 -0.8701  0.1134
 2951TIP3   OH2 8816   4.887   4.110   4.675 -0.2914  0.1214 -0.1888
 2951TIP3    H1 8817   4.954   4.170   4.644  0.3331 -0.3337  0.2411
 2951TIP3    H2 8818   4.808   4.135   4.628 -0.2012  1.6564  0.4213
 2952TIP3   OH2 8819   2.466   5.945   2.576  0.0953 -0.0981 -0.0249
 2952TIP3    H1 8820   2.458   5.859   2.535 -0.0037  0.2910 -0.8403
 2952TIP3    H2 8821   2.435   6.007   2.510  3.0511  0.8491 -0.7027
 2953TIP3   OH2 8822   5.881   6.081   4.029  0.1376  0.3042  0.0790
 2953TIP3    H1 8823   5.799   6.092   3.982 -1.3095 -0.0758  2.3540
 2953TIP3    H2 8824   5.893   6.164   4.076 -0.4411 -0.5627  1.8660
 2954TIP3   OH2 8825   6.869   2.294   4.284 -0.9301 -0.2675 -0.3781
 2954TIP3    H1 8826   6.882   2.249   4.367  0.6927 -0.9841 -0.9876
 2954TIP3    H2 8827   6.787   2.343   4.296 -0.5850 -0.1136  1.7226
 2955TIP3   OH2 8828   4.157   3.415   5.087  0.2769 -0.2611  0.2777
 2955TIP3    H1 8829   4.122   3.377   5.007 -1.9285  1.5159  0.3160
 2955TIP3    H2 8830   4.177   3.506   5.064  0.5864 -0.0036  1.4890
 2956TIP3   OH2 8831   0.956   1.696   0.961 -0.2946  0.1815 -0.1228
 2956TIP3    H1 8832   0.921   1.725   0.877  0.1924  0.2036 -0.3255
 2956TIP3    H2 8833   0.996   1.775   0.998  0.3628 -0.0500 -0.3261
 2957TIP3   OH2 8834   4.318   3.959   0.060  0.4251 -0.6211  0.5510
 2957TIP3    H1 8835   4.262   3.985  -0.013 -0.6574  0.9067  1.8678
 2957TIP3    H2 8836   4.406   3.954   0.023 -0.2194 -0.7209 -1.0202
 2958TIP3   OH2 8837   1.905   1.244   3.889  0.2606  0.4954  0.1244
 2958TIP3    H1 8838   1.903   1.326   3.840 -0.2796  1.0518  1.0332
 2958TIP3    H2 8839   1.971   1.259   3.956 -1.6188  1.2267  1.9411
 2959TIP3   OH2 8840   3.748   2.109   2.477  0.3769  0.5667  0.7492
 2959TIP3    H1 8841   3.670   2.147   2.518  1.0460  0.5154  2.0843
 2959TIP3    H2 8842   3.717   2.025   2.441 -0.9050  1.8907 -1.4747
 2960TIP3   OH2 8843   1.618   1.660   0.604  0.1351  0.2850 -0.6388
 2960TIP3    H1 8844   1.560   1.675   0.529  1.6285  0.0775 -1.8829
 2960TIP3    H2 8845   1.579   1.586   0.651 -1.4703  1.1854 -0.5012
 2961TIP3   OH2 8846   2.569   2.216   0.173 -0.3530 -0.3793 -0.5203
 2961TIP3    H1 8847   2.662   2.236   0.163 -0.4236  0.3915  0.2162
 2961TIP3    H2 8848   2.557   2.206   0.268 -1.7747  3.7308 -0.0672
 2962TIP3   OH2 8849   7.018   2.525   3.520 -0.1372  0.1162 -0.3964
 2962TIP3    H1 8850   7.088   2.556   3.578  0.8392 -3.0462  0.2919
 2962TIP3    H2 8851   6.944   2.582   3.539  0.8215  0.5567  2.4141
 2963TIP3   OH2 8852   4.531   0.486   0.698 -0.3488  0.1160 -0.4482
 2963TIP3    H1 8853   4.586   0.429   0.752  0.0749  0.5656 -0.3905
 2963TIP3    H2 8854   4.550   0.574   0.731 -2.4015  0.1654  0.7242
 2964TIP3   OH2 8855   5.571   3.075   2.267 -0.3965 -0.5092  0.5907
 2964TIP3    H1 8856   5.489   3.026   2.269 -0.7831  0.0234 -0.8942
 2964TIP3    H2 8857   5.578   3.114   2.354 -1.3502 -1.1283  0.9640
 2965TIP3   OH2 8858   4.186   5.373   3.085 -0.1143 -0.1869  0.2898
 2965TIP3    H1 8859   4.154   5.285   3.064 -0.2177 -0.5422  1.8008
 2965TIP3    H2 8860   4.117   5.410   3.141  0.5059  0.3710  0.6968
 2966TIP3   OH2 8861   3.481   1.464   4.652  0.8038 -0.1020 -0.3175
 2966TIP3    H1 8862   3.475   1.519   4.730  0.1926  1.3342 -1.3268
 2966TIP3    H2 8863   3.573   1.472   4.625  0.9773 -0.4732  0.1408
 2967TIP3   OH2 8864   1.747   6.155   4.882 -0.2045 -0.6459  0.2749
 2967TIP3    H1 8865   1.835   6.166   4.918 -1.3659 -0.9716  3.5266
 2967TIP3    H2 8866   1.691   6.141   4.958 -3.3258  0.9230 -1.5243
 2968TIP3   OH2 8867   0.414   0.662   3.880  0.5786 -0.0045 -0.6365
 2968TIP3    H1 8868   0.485   0.603   3.857  0.6091  0.1828 -1.0250
 2968TIP3    H2 8869   0.335   0.616   3.851  0.5412 -0.1921 -0.2463
 2969TIP3   OH2 8870   4.835   4.827   3.830 -0.7973  0.1526 -0.4992
 2969TIP3    H1 8871   4.914   4.841   3.777 -1.5192 -0.2125 -1.7024
 2969TIP3    H2 8872   4.783   4.765   3.780 -1.8194  0.3146  0.3281
 2970TIP3   OH2 8873   0.428   2.240   2.827  0.1601 -0.0856 -0.6081
 2970TIP3    H1 8874   0.390   2.265   2.912 -0.2509 -2.5262  0.0012
 2970TIP3    H2 8875   0.355   2.203   2.778  0.9363 -1.2092 -0.9490
 2971TIP3   OH2 8876   5.493   4.688   3.436  0.3273  0.0140 -0.3333
 2971TIP3    H1 8877   5.484   4.664   3.344  0.6908 -1.1812 -0.0792
 2971TIP3    H2 8878   5.543   4.616   3.475  1.8948  1.4143  0.4068
 2972TIP3   OH2 8879   6.840   0.372   1.240 -0.3564 -0.3339  0.1199
 2972TIP3    H1 8880   6.744   0.369   1.243 -0.4187 -1.8715 -1.6770
 2972TIP3    H2 8881   6.859   0.463   1.218 -1.6888 -0.7604 -3.5285
 2973TIP3   OH2 8882   1.441   5.326   4.907  0.2961 -0.4749  0.1088
 2973TIP3    H1 8883   1.369   5.265   4.924 -0.1134 -0.1081 -0.2945
 2973TIP3    H2 8884   1.406   5.412   4.928  0.9688 -0.3956  0.9478
 2974TIP3   OH2 8885   6.445   4.904  -0.024  0.3160  0.3876 -0.1482
 2974TIP3    H1 8886   6.399   4.860   0.048  0.3526  2.3703  1.1506
 2974TIP3    H2 8887   6.538   4.896  -0.001  0.6295 -1.9936 -1.8269
 2975TIP3   OH2 8888   1.913   5.350   1.532 -0.7452 -0.3164 -0.2211
 2975TIP3    H1 8889   1.975   5.277   1.536 -1.7411 -1.1245  1.7695
 2975TIP3    H2 8890   1.837   5.319   1.581 -1.4304  1.8584  0.1671
 2976TIP3   OH2 8891   2.846   5.312   1.031 -0.0887  0.5641  0.0066
 2976TIP3    H1 8892   2.841   5.298   1.126  3.0683 -1.4005  0.0282
 2976TIP3    H2 8893   2.908   5.385   1.021 -0.2086  0.5924 -0.5460
 2977TIP3   OH2 8894   3.640   2.261   5.793  0.1021  0.2451 -0.3758
 2977TIP3    H1 8895   3.624   2.171   5.763  0.9734 -0.1283  0.2435
 2977TIP3    H2 8896   3.645   2.254   5.888  0.5963  0.8773 -0.3470
 2978TIP3   OH2 8897   1.942   4.164   5.164 -0.0699 -0.4327 -0.2929
 2978TIP3    H1 8898   1.994   4.126   5.093  0.2730  1.2401 -0.9836
 2978TIP3    H2 8899   1.855   4.176   5.126 -0.2173 -0.6413 -0.0294
 2979TIP3   OH2 8900   1.545   6.662   1.199 -0.4145  0.3385 -0.4182
 2979TIP3    H1 8901   1.453   6.639   1.187 -0.0083 -0.3688 -2.5895
 2979TIP3    H2 8902   1.551   6.754   1.176 -0.5616  0.3653 -0.3456
 2980TIP3   OH2 8903   2.602   3.134   5.187 -0.2575  0.2670 -0.0820
 2980TIP3    H1 8904   2.600   3.162   5.096 -0.6512  0.7617  0.0762
 2980TIP3    H2 8905   2.510   3.129   5.213 -0.1252  1.7627  0.7688
 2981TIP3   OH2 8906   2.601   5.802   0.506 -0.0440  0.6461 -0.2844
 2981TIP3    H1 8907   2.627   5.723   0.459  2.1892  0.9891  0.2664
 2981TIP3    H2 8908   2.582   5.865   0.437  2.4339  0.9099 -0.8151
 2982TIP3   OH2 8909   4.573   4.435   3.024 -0.1258  0.0883 -0.7123
 2982TIP3    H1 8910   4.619   4.483   3.093 -1.3740  1.0811 -0.5459
 2982TIP3    H2 8911   4.582   4.343   3.049  0.9082  0.3181 -0.1603
 2983TIP3   OH2 8912   5.997   0.156   1.346  0.2815  0.2071 -0.5270
 2983TIP3    H1 8913   5.980   0.106   1.425  0.9194  1.8908  0.7324
 2983TIP3    H2 8914   5.948   0.110   1.277  1.0408 -2.2320  0.4727
 2984TIP3   OH2 8915   0.324   3.816   5.543  0.3691 -0.3903 -0.6951
 2984TIP3    H1 8916   0.414   3.847   5.532  0.9905 -2.0190 -0.6117
 2984TIP3    H2 8917   0.276   3.891   5.577  1.5782  0.6659 -1.2371
 2985TIP3   OH2 8918   0.372   0.071   0.626 -0.3930 -0.2007  0.4996
 2985TIP3    H1 8919   0.356   0.120   0.546 -1.3875 -0.8588  0.2717
 2985TIP3    H2 8920   0.363  -0.021   0.600  0.8142 -0.4871  1.0476
 2986TIP3   OH2 8921   2.665   5.913   4.080 -0.4538  0.0137  0.2542
 2986TIP3    H1 8922   2.650   5.975   4.009  0.0056  0.9329  0.9453
 2986TIP3    H2 8923   2.758   5.889   4.073 -0.3537  0.2705  0.6692
 2987TIP3   OH2 8924   0.305   2.427   1.708 -0.2041  0.6222  0.4399
 2987TIP3    H1 8925   0.304   2.476   1.625 -0.1582 -1.7676 -1.0664
 2987TIP3    H2 8926   0.220   2.384   1.710  0.6823 -1.2194  0.4011
 2988TIP3   OH2 8927   4.453   1.578   5.505 -0.5682  0.2343 -0.1055
 2988TIP3    H1 8928   4.410   1.546   5.584  1.9703 -0.9097  0.8961
 2988TIP3    H2 8929   4.453   1.674   5.515 -1.7987  0.2049  0.3957
 2989TIP3   OH2 8930   4.822   1.449   2.702 -0.4989  1.0036  0.3255
 2989TIP3    H1 8931   4.884   1.405   2.643 -0.4728  1.3138  0.1222
 2989TIP3    H2 8932   4.769   1.503   2.644 -1.6788 -0.0745  0.3486
 2990TIP3   OH2 8933   0.605   1.994   5.784  0.1223 -0.0071  0.3213
 2990TIP3    H1 8934   0.647   1.947   5.856  0.2241  0.5560  0.6315
 2990TIP3    H2 8935   0.653   1.967   5.706  0.3824 -0.1722  0.5412
 2991TIP3   OH2 8936   3.008   5.009   1.251 -0.4286  0.0814 -0.4792
 2991TIP3    H1 8937   2.946   5.075   1.284 -0.8791 -0.0451 -1.0532
 2991TIP3    H2 8938   2.952   4.944   1.209 -0.0218 -0.8978  0.4562
 2992TIP3   OH2 8939   3.914   4.236   4.379 -0.2529  0.0362  0.5637
 2992TIP3    H1 8940   3.850   4.217   4.310 -0.8006 -0.3595  1.1639
 2992TIP3    H2 8941   3.940   4.149   4.412 -0.2823  0.2288  1.1055
 2993TIP3   OH2 8942   1.737   0.734   4.400 -0.3774  0.5353  0.4744
 2993TIP3    H1 8943   1.661   0.764   4.450 -1.4317  1.4337 -1.5414
 2993TIP3    H2 8944   1.701   0.712   4.314  1.5249  0.0786 -0.2374
 2994TIP3   OH2 8945   0.598   3.314   2.112  0.1533  0.2058 -0.1784
 2994TIP3    H1 8946   0.626   3.228   2.144 -0.9051 -0.3524 -0.7099
 2994TIP3    H2 8947   0.505   3.320   2.135  0.4095  1.5852  0.6373
 2995TIP3   OH2 8948   3.060   2.573   1.971  0.0508 -0.3727  0.2307
 2995TIP3    H1 8949   3.021   2.521   2.041  0.4711  0.7287  1.3160
 2995TIP3    H2 8950   3.075   2.659   2.010 -1.1786  0.7849 -1.6817
 2996TIP3   OH2 8951   4.730   1.006   5.417 -0.8712 -0.0454 -0.0687
 2996TIP3    H1 8952   4.703   1.078   5.360 -0.4019 -0.8754 -1.3760
 2996TIP3    H2 8953   4.825   1.015   5.423 -0.5066 -1.7798 -2.0469
 2997TIP3   OH2 8954   2.554   2.856   2.356 -0.7808 -0.0847 -0.0369
 2997TIP3    H1 8955   2.639   2.813   2.365 -1.2993 -1.2577 -0.4327
 2997TIP3    H2 8956   2.491   2.789   2.381 -1.6707  0.1870 -1.4076
 2998TIP3   OH2 8957   3.735   4.775   1.662  0.6312 -0.1111  0.1004
 2998TIP3    H1 8958   3.702   4.686   1.650 -1.8544  0.6644  0.7041
 2998TIP3    H2 8959   3.747   4.808   1.573  0.7521 -0.7623 -0.1291
 2999TIP3   OH2 8960   3.404   5.186   3.532 -0.4121 -0.5608 -0.3475
 2999TIP3    H1 8961   3.415   5.228   3.447 -0.2204 -1.1283 -0.6054
 2999TIP3    H2 8962   3.478   5.127   3.540 -0.3837 -0.4579  0.2517
 3000TIP3   OH2 8963   3.389   4.388   3.823 -0.1668 -0.3363  0.2561
 3000TIP3    H1 8964   3.329   4.370   3.750 -0.4656 -2.6807  0.9720
 3000TIP3    H2 8965   3.390   4.483   3.831 -2.6621 -0.1504 -0.7331
 3001TIP3   OH2 8966   2.276   0.921   3.285  0.3955 -0.1179 -0.7929
 3001TIP3    H1 8967   2.274   0.955   3.374  0.3757 -1.0511 -0.4236
 3001TIP3    H2 8968   2.312   0.833   3.293  1.7400  0.2953 -1.8955
 3002TIP3   OH2 8969   2.517   6.799   5.686  0.6755  0.4397 -0.0435
 3002TIP3    H1 8970   2.487   6.720   5.641 -1.3975  0.4530  1.1539
 3002TIP3    H2 8971   2.607   6.780   5.712  0.4996 -1.1825 -0.5553
 3003TIP3   OH2 8972   4.496   1.585   4.376  0.7124 -0.0854  0.1283
 3003TIP3    H1 8973   4.489   1.671   4.335  1.4255  0.8257  1.7941
 3003TIP3    H2 8974   4.476   1.523   4.306  0.3287  1.4200 -1.1552
 3004TIP3   OH2 8975   6.531   5.295   0.134  0.3739 -0.2564 -0.0799
 3004TIP3    H1 8976   6.503   5.269   0.046 -0.7420 -0.5743  0.3508
 3004TIP3    H2 8977   6.599   5.360   0.119  0.4689 -0.5851 -1.1821
 3005TIP3   OH2 8978   5.784   2.382   2.503  0.0030 -0.1606 -0.0757
 3005TIP3    H1 8979   5.828   2.330   2.570  0.0915  0.7618  0.6013
 3005TIP3    H2 8980   5.718   2.432   2.550 -0.4725 -0.0795 -0.8005
 3006TIP3   OH2 8981   1.675   0.782   0.714  0.2516 -0.0258  0.5692
 3006TIP3    H1 8982   1.679   0.837   0.793  0.0454 -0.8483  1.1723
 3006TIP3    H2 8983   1.729   0.705   0.735 -0.5304 -0.6790  0.2627
 3007TIP3   OH2 8984   2.393   0.215   3.095 -0.1675 -0.0981 -0.9465
 3007TIP3    H1 8985   2.471   0.172   3.060  0.2711  1.3092 -1.7907
 3007TIP3    H2 8986   2.340   0.144   3.130  0.5246 -1.3153 -2.2719
 3008TIP3   OH2 8987   4.445   0.453   0.989 -0.0931 -0.0272 -0.2933
 3008TIP3    H1 8988   4.495   0.419   1.064  1.9995  0.6030 -1.3287
 3008TIP3    H2 8989   4.475   0.543   0.979 -0.9250  0.1449 -1.3964
 3009TIP3   OH2 8990   1.297   3.247   0.036 -0.3061  0.1718  0.0219
 3009TIP3    H1 8991   1.219   3.296   0.062 -1.3200 -0.8402 -1.0138
 3009TIP3    H2 8992   1.282   3.158   0.069  0.9504  0.2126  0.8090
 3010TIP3   OH2 8993   5.081   2.395   3.249  0.0350 -0.5875  0.1319
 3010TIP3    H1 8994   5.005   2.367   3.300 -1.0179 -0.0584 -1.0940
 3010TIP3    H2 8995   5.102   2.482   3.284 -1.3523  0.2404 -0.9809
 3011TIP3   OH2 8996   5.360   2.754   1.608  0.2503 -0.2668 -0.0423
 3011TIP3    H1 8997   5.388   2.822   1.669 -0.0083 -2.1392  2.3316
 3011TIP3    H2 8998   5.432   2.745   1.546  2.6394 -1.2131  2.6319
 3012TIP3   OH2 8999   5.103   3.586   4.079  0.0677 -0.1741  0.1975
 3012TIP3    H1 9000   5.108   3.682   4.072 -0.4364  0.0885  2.5007
 3012TIP3    H2 9001   5.194   3.558   4.081  0.2286  0.0802 -1.9308
 3013TIP3   OH2 9002   2.997   4.058   4.103  0.0819  0.3474 -0.2735
 3013TIP3    H1 9003   2.919   4.002   4.103 -0.1121  0.6041 -0.8849
 3013TIP3    H2 9004   2.970   4.136   4.151  0.0575  0.3061 -0.2204
 3014TIP3   OH2 9005   2.240   3.843   2.254 -0.1822  0.5388 -0.5439
 3014TIP3    H1 9006   2.286   3.773   2.208 -0.0673 -0.2693  0.7422
 3014TIP3    H2 9007   2.173   3.872   2.192 -1.8398 -2.3769 -0.2835
 3015TIP3   OH2 9008   4.615   1.751   2.250 -0.3384  0.2748  0.2851
 3015TIP3    H1 9009   4.691   1.807   2.265 -1.0936  1.0217  1.5384
 3015TIP3    H2 9010   4.546   1.812   2.224 -1.8303  0.3883  3.8687
 3016TIP3   OH2 9011   1.622   4.763   3.570 -0.4669  0.0669  0.4196
 3016TIP3    H1 9012   1.684   4.751   3.498 -0.2411  0.3850  0.5610
 3016TIP3    H2 9013   1.545   4.802   3.528 -0.1255  0.7743  0.4405
 3017TIP3   OH2 9014   4.574   2.733   3.080  0.3376  0.3227  0.1694
 3017TIP3    H1 9015   4.546   2.769   3.164  0.0753 -0.8370  0.5964
 3017TIP3    H2 9016   4.575   2.638   3.094  1.5183  0.1741 -0.7537
 3018TIP3   OH2 9017   5.216   3.902   0.439  0.2084 -0.0200  0.2775
 3018TIP3    H1 9018   5.136   3.857   0.464 -1.0107  1.1617 -1.2993
 3018TIP3    H2 9019   5.284   3.834   0.442 -0.5535 -0.7893  2.7548
 3019TIP3   OH2 9020   7.137   5.476   3.357  0.1314  0.2308 -0.0490
 3019TIP3    H1 9021   7.189   5.517   3.289 -0.0241  0.7449  0.1351
 3019TIP3    H2 9022   7.192   5.406   3.392  0.9904  1.2088  0.6252
 3020TIP3   OH2 9023   5.793   3.186   0.930  0.4165  0.0276 -0.0095
 3020TIP3    H1 9024   5.729   3.117   0.946  1.5001 -0.8550  0.7174
 3020TIP3    H2 9025   5.811   3.181   0.836  0.4549 -0.6680  0.0301
 3021TIP3   OH2 9026   2.211   0.930   1.389 -0.2553 -0.0035 -0.8355
 3021TIP3    H1 9027   2.265   0.980   1.451 -1.1421 -0.7825  0.6158
 3021TIP3    H2 9028   2.256   0.846   1.380  0.7260  0.6596 -2.5397
 3022TIP3   OH2 9029   1.926   5.035   3.812  0.0984  0.1497  0.0475
 3022TIP3    H1 9030   2.008   5.085   3.804  0.2810 -0.2607 -0.9046
 3022TIP3    H2 9031   1.931   4.993   3.898  1.1077 -0.2160 -0.1696
 3023TIP3   OH2 9032   3.818   0.891   1.637  0.0556 -0.2062 -0.1874
 3023TIP3    H1 9033   3.780   0.957   1.580 -1.7715 -1.5639 -0.6413
 3023TIP3    H2 9034   3.886   0.849   1.584 -1.3335 -1.1666 -1.2894
 3024TIP3   OH2 9035   2.883   0.391   4.413 -0.6956 -0.0173  0.4476
 3024TIP3    H1 9036   2.844   0.306   4.431 -0.6730 -0.0227  0.4698
 3024TIP3    H2 9037   2.887   0.396   4.318 -1.5204  0.3248  0.4244
 3025TIP3   OH2 9038   4.543   5.113   2.065 -0.1042  0.0540  0.4909
 3025TIP3    H1 9039   4.541   5.050   1.993 -0.0377 -0.0147  0.5494
 3025TIP3    H2 9040   4.490   5.186   2.034 -1.7472 -0.8075  1.1438
 3026TIP3   OH2 9041   6.194   3.506   4.785  0.3705  0.1749  0.1811
 3026TIP3    H1 9042   6.150   3.564   4.723  0.4056 -0.2343 -0.2253
 3026TIP3    H2 9043   6.271   3.473   4.737  0.4782 -0.0272  0.4897
 3027TIP3   OH2 9044   1.794   2.071   0.388  0.5612  0.2545  0.2808
 3027TIP3    H1 9045   1.851   2.124   0.443  0.1394  0.0686  0.9108
 3027TIP3    H2 9046   1.830   1.983   0.393  1.4995  0.5348 -1.0887
 3028TIP3   OH2 9047   2.851   4.493   2.722  0.3130  0.1227  0.2544
 3028TIP3    H1 9048   2.881   4.513   2.810  0.8855  0.2915  0.0266
 3028TIP3    H2 9049   2.889   4.407   2.702 -0.6213 -0.3711  0.5348
 3029TIP3   OH2 9050   2.140   3.546   2.298 -0.3999 -0.1286  0.8557
 3029TIP3    H1 9051   2.215   3.500   2.261 -1.1690 -0.9476  0.2799
 3029TIP3    H2 9052   2.175   3.631   2.324  0.2064  0.5709 -1.8456
 3030TIP3   OH2 9053   0.109   4.607   1.109 -0.0727 -0.6825  0.1649
 3030TIP3    H1 9054   0.182   4.663   1.133 -0.5189 -0.1370  0.2802
 3030TIP3    H2 9055   0.149   4.535   1.061  0.3435  0.7641 -1.8104
 3031TIP3   OH2 9056   1.020   2.466   3.950  0.3693  0.4119  0.1961
 3031TIP3    H1 9057   1.099   2.497   3.905 -0.5361  0.8666 -1.1202
 3031TIP3    H2 9058   0.995   2.539   4.008  0.1987  0.7771 -0.3316
 3032TIP3   OH2 9059   3.784   5.975   1.008 -0.9663  0.3109  0.2593
 3032TIP3    H1 9060   3.726   6.033   0.959 -1.7742 -1.8830 -1.5825
 3032TIP3    H2 9061   3.742   5.889   1.003  0.3520 -0.5753  2.5305
 3033TIP3   OH2 9062   4.171   2.287   4.682 -0.1738 -0.0754  0.1113
 3033TIP3    H1 9063   4.123   2.295   4.600 -1.4852 -0.7966  0.7670
 3033TIP3    H2 9064   4.209   2.200   4.680 -1.5887 -0.7526  0.9314
 3034TIP3   OH2 9065   6.510   5.648   3.317  0.4535 -0.1198 -0.0236
 3034TIP3    H1 9066   6.527   5.565   3.362 -0.8225  0.1565  1.0488
 3034TIP3    H2 9067   6.487   5.709   3.387 -1.5788  0.3425 -1.0073
 3035TIP3   OH2 9068   1.861   5.607   3.223  0.0719  0.3553  0.4031
 3035TIP3    H1 9069   1.805   5.665   3.274 -2.2867 -0.8667 -0.6409
 3035TIP3    H2 9070   1.859   5.643   3.134  0.8540  0.1934  0.3076
 3036TIP3   OH2 9071   2.257   0.091   4.284  0.0060 -0.5655 -0.2250
 3036TIP3    H1 9072   2.308   0.010   4.295  0.2216 -0.4636 -0.4732
 3036TIP3    H2 9073   2.201   0.074   4.208  0.7338 -0.1385 -0.8749
 3037TIP3   OH2 9074   4.725   2.940   3.219  0.2750 -0.1757  0.0661
 3037TIP3    H1 9075   4.704   2.870   3.158 -0.5271  1.3272 -1.4422
 3037TIP3    H2 9076   4.667   2.925   3.294  0.2987 -1.2430 -0.1198
 3038TIP3   OH2 9077   3.754   2.000   1.083 -0.2130  0.7333  0.1291
 3038TIP3    H1 9078   3.814   2.074   1.088 -0.5660  0.9857  0.7739
 3038TIP3    H2 9079   3.670   2.039   1.059 -0.4352  0.5667  0.6278
 3039TIP3   OH2 9080   6.879   3.670   5.786 -0.1560  0.5690  0.1671
 3039TIP3    H1 9081   6.810   3.610   5.759  0.2210  0.6090 -0.9008
 3039TIP3    H2 9082   6.847   3.708   5.868 -2.0126  1.6063 -0.9880
 3040TIP3   OH2 9083   1.220   5.692   5.557 -0.8189  0.3762 -0.4160
 3040TIP3    H1 9084   1.142   5.743   5.539 -1.5902 -0.8238 -0.6237
 3040TIP3    H2 9085   1.278   5.751   5.606 -2.3851  0.8924  0.9045
 3041TIP3   OH2 9086   3.455   5.622   4.263 -0.5369  0.0647 -0.3538
 3041TIP3    H1 9087   3.392   5.677   4.310 -0.3749  1.0273 -1.2284
 3041TIP3    H2 9088   3.408   5.596   4.184  0.1502  0.8047 -1.0212
 3042TIP3   OH2 9089   6.201   6.103   5.475  0.0007 -0.1744  0.2626
 3042TIP3    H1 9090   6.207   6.194   5.445 -2.7927 -0.7054 -2.3602
 3042TIP3    H2 9091   6.127   6.102   5.536  1.1396 -0.4477  1.7070
 3043TIP3   OH2 9092   6.301   1.565   5.453 -0.5444 -0.2351 -0.1085
 3043TIP3    H1 9093   6.273   1.654   5.475 -0.8951 -1.2613  4.8339
 3043TIP3    H2 9094   6.394   1.573   5.433 -0.9372  1.3699 -1.5326
 3044TIP3   OH2 9095   4.720   2.221   0.156 -0.0359 -0.2417  0.4357
 3044TIP3    H1 9096   4.796   2.171   0.188  0.5933 -0.5190 -1.3793
 3044TIP3    H2 9097   4.713   2.295   0.217  1.2938 -0.5527  1.0141
 3045TIP3   OH2 9098   3.670   5.433   1.022 -0.4115 -0.0077 -0.0892
 3045TIP3    H1 9099   3.615   5.480   0.960 -0.2554  0.8842  0.4212
 3045TIP3    H2 9100   3.759   5.443   0.988 -0.3984 -0.0849 -0.0775
 3046TIP3   OH2 9101   1.579   6.212   0.701 -0.3488 -0.5957  0.2257
 3046TIP3    H1 9102   1.620   6.126   0.715  2.2949  0.2104 -1.7466
 3046TIP3    H2 9103   1.523   6.199   0.624  0.3059 -0.5166 -0.2753
 3047TIP3   OH2 9104   3.516   2.504   3.146  0.1456  0.1113  0.0540
 3047TIP3    H1 9105   3.546   2.502   3.055 -1.4674 -1.3017 -0.4883
 3047TIP3    H2 9106   3.512   2.412   3.172  0.1265  0.4729  1.4210
 3048TIP3   OH2 9107   2.294   4.186   0.700 -0.4233  0.1776 -0.4775
 3048TIP3    H1 9108   2.254   4.191   0.786 -0.7106  0.5752 -0.6316
 3048TIP3    H2 9109   2.257   4.107   0.661  0.3448 -0.4660  0.0777
 3049TIP3   OH2 9110   4.893   1.503   0.975 -0.2235  0.0284 -0.2788
 3049TIP3    H1 9111   4.881   1.572   1.041 -0.6306 -0.4357  0.1389
 3049TIP3    H2 9112   4.955   1.541   0.912 -0.7674  0.9430 -0.2884
 3050TIP3   OH2 9113   1.671   6.330   1.967  0.5215  0.0204  0.5362
 3050TIP3    H1 9114   1.735   6.288   1.910 -0.2864 -0.4868 -0.0198
 3050TIP3    H2 9115   1.639   6.259   2.023  0.5970  0.3115  0.9502
 3051TIP3   OH2 9116   2.419   6.748   3.661 -0.2309 -0.2832  0.3018
 3051TIP3    H1 9117   2.390   6.741   3.569 -0.5442  1.9770  0.1760
 3051TIP3    H2 9118   2.344   6.716   3.711 -1.2632  1.2708 -0.1735
 3052TIP3   OH2 9119   6.233   2.489   5.025 -0.0665 -0.1167 -0.2984
 3052TIP3    H1 9120   6.273   2.414   4.982  1.3377  0.4747 -0.0529
 3052TIP3    H2 9121   6.222   2.461   5.116 -0.0287 -0.2014 -0.3197
 3053TIP3   OH2 9122   2.817   0.455   3.722 -0.2257  0.1970  0.1669
 3053TIP3    H1 9123   2.907   0.454   3.689 -0.2280  0.1577  0.1626
 3053TIP3    H2 9124   2.785   0.366   3.708 -0.4488  0.3514 -0.3276
 3054TIP3   OH2 9125   1.156   0.066   0.136  0.0706 -0.2503 -0.0211
 3054TIP3    H1 9126   1.119   0.121   0.206 -0.6321 -1.3485  0.5115
 3054TIP3    H2 9127   1.080   0.018   0.101  0.7766 -1.5971  0.2057
 3055TIP3   OH2 9128   5.026   1.695   1.660  0.1905  0.8417 -0.3573
 3055TIP3    H1 9129   4.985   1.653   1.585  0.8257  0.7103 -0.6429
 3055TIP3    H2 9130   5.014   1.789   1.645 -1.5981  0.7968  0.4913
 3056TIP3   OH2 9131   5.351   0.913   4.385 -0.2826 -0.3667 -0.0696
 3056TIP3    H1 9132   5.395   0.988   4.427 -1.3866  0.7764 -0.8983
 3056TIP3    H2 9133   5.375   0.920   4.293  0.1313 -1.4433 -0.0626
 3057TIP3   OH2 9134   2.687   5.854   4.929  0.0320  0.1751  0.1872
 3057TIP3    H1 9135   2.705   5.833   4.838  2.7209 -0.1413  0.7053
 3057TIP3    H2 9136   2.661   5.771   4.968 -0.1794  0.1146 -0.0814
 3058TIP3   OH2 9137   4.716   3.545   2.910 -0.2644  0.2585 -0.2057
 3058TIP3    H1 9138   4.665   3.507   2.981 -0.1867  0.2370 -0.1609
 3058TIP3    H2 9139   4.805   3.550   2.945 -0.4231  1.2268  0.0822
 3059TIP3   OH2 9140   5.679   5.386   4.369 -0.1745 -0.2057  0.8096
 3059TIP3    H1 9141   5.647   5.445   4.301  1.4502  0.5431  0.6493
 3059TIP3    H2 9142   5.602   5.365   4.421 -1.2426  0.0891 -0.5926
 3060TIP3   OH2 9143   6.663   4.655   5.825 -0.2816 -0.2777 -0.1746
 3060TIP3    H1 9144   6.611   4.726   5.785 -1.7404 -0.4370  1.3436
 3060TIP3    H2 9145   6.608   4.578   5.818  0.7563 -1.0045 -0.6262
 3061TIP3   OH2 9146   4.056   4.540   3.306 -0.1700  0.2394 -0.3186
 3061TIP3    H1 9147   4.030   4.592   3.230  0.2240  1.3538  0.2872
 3061TIP3    H2 9148   4.139   4.579   3.335  0.2646 -0.8922  0.0063
 3062TIP3   OH2 9149   0.549   1.417   4.038  0.1262 -0.4437 -0.1633
 3062TIP3    H1 9150   0.571   1.360   3.964 -0.6522  1.6893 -2.1619
 3062TIP3    H2 9151   0.455   1.432   4.029  0.2310  0.7589  0.5953
 3063TIP3   OH2 9152   0.115   1.882   4.634 -0.3800  0.3952  0.3427
 3063TIP3    H1 9153   0.186   1.946   4.643  0.9678 -0.7529 -1.3259
 3063TIP3    H2 9154   0.112   1.863   4.540 -1.2040 -1.4388  0.6859
 3064TIP3   OH2 9155   4.027   0.416   3.787 -0.6995  0.0288 -0.1557
 3064TIP3    H1 9156   4.051   0.431   3.878 -0.7743 -0.7496  0.0003
 3064TIP3    H2 9157   4.093   0.464   3.736 -0.3167 -0.0163  0.2981
 3065TIP3   OH2 9158   5.572   0.931   2.791  0.1355 -0.3152 -0.1573
 3065TIP3    H1 9159   5.611   0.963   2.872  0.0573 -0.3364 -0.1119
 3065TIP3    H2 9160   5.479   0.952   2.798  0.2350  0.2694 -0.5233
 3066TIP3   OH2 9161   0.883   4.133   2.729  0.0393  0.4147 -0.0308
 3066TIP3    H1 9162   0.847   4.107   2.814 -1.0418 -0.4570 -0.7209
 3066TIP3    H2 9163   0.849   4.221   2.715 -2.5662 -0.6478 -0.9845
 3067TIP3   OH2 9164   2.727   5.013   4.703  0.5729 -0.4165  0.0882
 3067TIP3    H1 9165   2.721   5.058   4.787 -0.8799 -0.1678 -0.1300
 3067TIP3    H2 9166   2.772   4.931   4.723  2.1618  0.5441  0.7111
 3068TIP3   OH2 9167   0.913   1.037   0.910  0.0084  0.3290  0.1515
 3068TIP3    H1 9168   0.986   1.078   0.955 -0.4796 -0.0796  1.3310
 3068TIP3    H2 9169   0.835   1.067   0.957 -0.4287 -1.1079  0.3982
 3069TIP3   OH2 9170   3.147   4.205   2.352  0.7828  0.7995 -0.6913
 3069TIP3    H1 9171   3.164   4.271   2.284  0.8983  1.6710  0.1559
 3069TIP3    H2 9172   3.124   4.257   2.429  2.4037 -0.1068  0.4381
 3070TIP3   OH2 9173   6.838   6.685   5.643  0.3177  0.3051  0.0372
 3070TIP3    H1 9174   6.931   6.688   5.621 -0.0004  2.0327 -1.2352
 3070TIP3    H2 9175   6.793   6.717   5.565 -1.3954 -0.7512  0.5224
 3071TIP3   OH2 9176   0.072   3.151   4.668 -0.8954 -0.3870 -0.3033
 3071TIP3    H1 9177   0.139   3.142   4.736  0.0714  2.3375 -0.8026
 3071TIP3    H2 9178   0.004   3.087   4.693  1.7365 -3.2101  0.2701
 3072TIP3   OH2 9179   4.761   1.212   1.385  0.2038 -0.1194 -0.0178
 3072TIP3    H1 9180   4.764   1.304   1.411 -2.2435 -0.4966  1.9311
 3072TIP3    H2 9181   4.738   1.214   1.292 -0.1838  1.2188  0.0874
 3073TIP3   OH2 9182   2.187   0.157   0.686  0.3173 -0.2694  0.2652
 3073TIP3    H1 9183   2.225   0.176   0.772 -3.6613 -0.1990  2.2549
 3073TIP3    H2 9184   2.164   0.064   0.690  1.7859 -0.7716 -1.5795
 3074TIP3   OH2 9185   4.237   1.748   2.471 -0.1303 -0.1146 -0.9531
 3074TIP3    H1 9186   4.250   1.675   2.532  1.2143  1.4630  0.7721
 3074TIP3    H2 9187   4.315   1.802   2.481 -1.7176  2.3571 -0.9860
 3075TIP3   OH2 9188   1.121   5.887   5.741  0.1758  0.4466  0.2653
 3075TIP3    H1 9189   1.058   5.869   5.671  0.0127  0.4852  0.4018
 3075TIP3    H2 9190   1.103   5.978   5.766 -0.3629  0.1539  0.9633
 3076TIP3   OH2 9191   0.313   2.436   0.727  0.3183 -0.1461 -0.6774
 3076TIP3    H1 9192   0.360   2.466   0.649 -0.4188  1.4995 -0.5350
 3076TIP3    H2 9193   0.221   2.448   0.705  0.1122  1.8799  0.9621
 3077TIP3   OH2 9194   1.609   1.988   0.178 -0.7066  0.7808 -0.1379
 3077TIP3    H1 9195   1.669   2.015   0.248 -0.3748 -0.0044 -0.1107
 3077TIP3    H2 9196   1.656   2.009   0.097  0.4401 -1.5048 -0.1396
 3078TIP3   OH2 9197   5.582   4.553   0.673  0.3264 -0.1925  0.2045
 3078TIP3    H1 9198   5.619   4.567   0.586 -1.5020  0.1285 -0.5827
 3078TIP3    H2 9199   5.614   4.466   0.699 -0.4079 -1.0343 -1.5329
 3079TIP3   OH2 9200   4.237   5.332   4.023  0.0268 -0.2428  0.5243
 3079TIP3    H1 9201   4.152   5.299   3.996 -0.2345  1.8063 -1.4500
 3079TIP3    H2 9202   4.300   5.283   3.969  0.0179 -0.7260  0.9405
 3080TIP3   OH2 9203   6.088   3.880   2.009 -0.4600 -0.2904 -0.5122
 3080TIP3    H1 9204   6.087   3.964   1.963  1.9399 -1.1544 -2.3700
 3080TIP3    H2 9205   6.003   3.875   2.053 -0.8489  2.8665 -0.7083
 3081TIP3   OH2 9206   3.367   1.292   5.004  0.1075 -0.2707  0.6737
 3081TIP3    H1 9207   3.398   1.202   4.991  0.4537 -0.0983  0.2656
 3081TIP3    H2 9208   3.278   1.282   5.036 -0.3462 -0.7680 -0.6454
 3082TIP3   OH2 9209   1.846   3.405   1.762  0.3404 -0.4225  0.0730
 3082TIP3    H1 9210   1.754   3.429   1.756 -0.1697 -2.2023  0.0643
 3082TIP3    H2 9211   1.853   3.325   1.709  2.0586  0.0968 -0.5444
 3083TIP3   OH2 9212   7.218   0.189   1.374  0.9729 -0.6325 -0.1553
 3083TIP3    H1 9213   7.164   0.138   1.434 -0.0651 -1.3943 -1.6767
 3083TIP3    H2 9214   7.170   0.188   1.291  1.3083  2.1737 -0.4781
 3084TIP3   OH2 9215   6.002   4.692   5.086  0.2442 -0.1800  0.5314
 3084TIP3    H1 9216   5.973   4.627   5.149 -1.8570  0.8368  0.7120
 3084TIP3    H2 9217   6.070   4.741   5.132  1.5294 -1.8945  0.5478
 3085TIP3   OH2 9218   4.795   2.284   1.772 -0.4911  0.6349  0.2810
 3085TIP3    H1 9219   4.810   2.324   1.687  0.2683  0.1019  0.1520
 3085TIP3    H2 9220   4.811   2.354   1.835 -1.7538  1.2259 -0.0250
 3086TIP3   OH2 9221   0.684   0.055   3.015 -0.7099 -0.0108 -0.1577
 3086TIP3    H1 9222   0.639   0.115   2.955  0.5839  0.6914 -0.4851
 3086TIP3    H2 9223   0.632   0.057   3.095 -0.2453  2.2901  0.1606
 3087TIP3   OH2 9224   0.607   4.562   0.015 -0.0445 -0.3405  0.4550
 3087TIP3    H1 9225   0.537   4.627   0.018  0.7799  0.5884  0.0418
 3087TIP3    H2 9226   0.564   4.483  -0.019 -1.0910 -0.0769  1.1217
 3088TIP3   OH2 9227   6.845   3.178   1.062  0.4910  0.3081  0.0860
 3088TIP3    H1 9228   6.848   3.269   1.035  0.8258  0.2699 -0.0095
 3088TIP3    H2 9229   6.881   3.178   1.151  1.7926  0.0942 -0.4045
 3089TIP3   OH2 9230   0.454   5.299   4.623  0.4019 -0.4020  0.5483
 3089TIP3    H1 9231   0.452   5.285   4.528 -0.8314  1.3699  0.2580
 3089TIP3    H2 9232   0.546   5.289   4.646  0.6964 -1.1113 -0.7840
 3090TIP3   OH2 9233   3.728   3.917   0.773 -0.8982  0.2012 -0.6391
 3090TIP3    H1 9234   3.794   3.969   0.727 -0.0233 -0.4285 -0.1423
 3090TIP3    H2 9235   3.655   3.911   0.712 -0.8360  1.5920 -0.8969
 3091TIP3   OH2 9236   3.130   4.954   1.664 -0.1909  0.2701 -0.0587
 3091TIP3    H1 9237   3.138   4.859   1.667 -0.0317  0.2426 -1.0008
 3091TIP3    H2 9238   3.210   4.984   1.621 -0.8801  0.7020 -1.1008
 3092TIP3   OH2 9239   2.208   0.751   4.994 -0.2047 -0.5257  0.0473
 3092TIP3    H1 9240   2.133   0.774   4.940 -0.8993 -2.2652  0.2064
 3092TIP3    H2 9241   2.171   0.733   5.081  0.6020  0.1090  0.5335
 3093TIP3   OH2 9242   0.748   6.098   1.030 -0.3470  0.0368  0.0364
 3093TIP3    H1 9243   0.690   6.035   0.987 -1.1646  0.5772  0.3384
 3093TIP3    H2 9244   0.836   6.066   1.010 -0.7086 -0.0584 -1.5587
 3094TIP3   OH2 9245   1.469   6.240   3.572 -0.3401 -0.3924 -0.4079
 3094TIP3    H1 9246   1.485   6.334   3.587 -2.4431  0.0088 -0.4417
 3094TIP3    H2 9247   1.507   6.223   3.486 -1.9187  1.0078 -1.4439
 3095TIP3   OH2 9248   1.068   6.219   5.567  0.3075  0.3876 -0.1963
 3095TIP3    H1 9249   0.993   6.244   5.620  1.4964  0.4714  1.5506
 3095TIP3    H2 9250   1.031   6.177   5.489 -1.5480 -1.5691  1.6103
 3096TIP3   OH2 9251   4.832   4.908   5.230  0.2432  0.2320 -0.8590
 3096TIP3    H1 9252   4.796   4.875   5.312  1.2196 -1.1021 -0.9382
 3096TIP3    H2 9253   4.760   4.902   5.168 -0.3357  0.7175 -0.2574
 3097TIP3   OH2 9254   6.042   5.149   0.956 -0.0288 -0.3411 -0.4909
 3097TIP3    H1 9255   6.081   5.103   1.030 -0.8136 -0.3823 -0.0909
 3097TIP3    H2 9256   6.007   5.230   0.994 -0.4320 -0.3599 -0.8071
 3098TIP3   OH2 9257   3.471   4.516   0.738  0.8755  0.0487  0.1964
 3098TIP3    H1 9258   3.544   4.572   0.715  0.3858  0.2924 -0.8016
 3098TIP3    H2 9259   3.442   4.478   0.655  1.4558 -2.0235  0.8914
 3099TIP3   OH2 9260   6.727   1.512   2.576  0.5291 -0.7827 -0.3442
 3099TIP3    H1 9261   6.721   1.576   2.647  2.6908 -1.7364  0.7866
 3099TIP3    H2 9262   6.636   1.494   2.552 -0.1934  2.2634 -0.3573
 3100TIP3   OH2 9263   1.481   1.170   4.793 -0.1623 -0.2565  0.0458
 3100TIP3    H1 9264   1.522   1.132   4.715 -0.5865  1.7629 -1.2450
 3100TIP3    H2 9265   1.551   1.173   4.858  0.5858 -0.7336 -0.7171
 3101TIP3   OH2 9266   2.767   6.640   2.983 -0.0498  0.5218 -0.4354
 3101TIP3    H1 9267   2.763   6.601   3.071 -0.6914  1.6203  0.0428
 3101TIP3    H2 9268   2.823   6.717   2.994  0.0414  0.5406 -1.0391
 3102TIP3   OH2 9269   4.159   4.348   3.665 -0.0360  0.3554 -0.6122
 3102TIP3    H1 9270   4.074   4.374   3.630 -0.1878  0.9990  0.2355
 3102TIP3    H2 9271   4.139   4.289   3.737  0.2138  1.1623  0.1244
 3103TIP3   OH2 9272   5.049   5.641   3.550  0.7356  0.0850  0.1203
 3103TIP3    H1 9273   5.141   5.639   3.526  0.6920 -0.2362 -0.0168
 3103TIP3    H2 9274   5.047   5.618   3.643  0.6887 -1.1667 -0.1780
 3104TIP3   OH2 9275   5.876   3.779   5.441  0.2088 -0.2319 -0.4739
 3104TIP3    H1 9276   5.854   3.833   5.366 -0.0796  1.4982  0.8091
 3104TIP3    H2 9277   5.793   3.739   5.467 -0.2601  1.2833  0.5015
 3105TIP3   OH2 9278   4.409   4.865   3.208  0.6975 -0.2685  0.0501
 3105TIP3    H1 9279   4.438   4.948   3.246  3.5137 -1.0858 -0.1094
 3105TIP3    H2 9280   4.464   4.853   3.131 -0.7759 -1.5462 -0.8566
 3106TIP3   OH2 9281   4.316   4.590   1.293  0.0825 -0.4167  0.0565
 3106TIP3    H1 9282   4.351   4.561   1.377  1.3893  2.3039  0.5830
 3106TIP3    H2 9283   4.224   4.607   1.309  0.5527  1.1563  1.3263
 3107TIP3   OH2 9284   2.497   1.656   0.030  0.1962 -0.4289 -0.7555
 3107TIP3    H1 9285   2.414   1.625  -0.008  0.5330 -0.1360 -1.7741
 3107TIP3    H2 9286   2.487   1.751   0.033  0.3847 -0.4144 -0.6091
 3108TIP3   OH2 9287   0.236   5.537   2.896 -0.5185  0.1662 -0.0335
 3108TIP3    H1 9288   0.327   5.517   2.920 -0.2879  0.5224 -0.5882
 3108TIP3    H2 9289   0.240   5.559   2.803 -0.9908  1.3266  0.1981
 3109TIP3   OH2 9290   4.350   6.305   1.160  0.2057 -0.1782 -0.8134
 3109TIP3    H1 9291   4.270   6.253   1.165  1.2167 -1.7591 -0.3042
 3109TIP3    H2 9292   4.399   6.282   1.238  0.5099  1.9499 -0.3201
 3110TIP3   OH2 9293   1.470   4.739   4.351 -0.6078  0.1181  0.2998
 3110TIP3    H1 9294   1.437   4.758   4.263 -0.1976 -3.1109 -0.6716
 3110TIP3    H2 9295   1.396   4.759   4.409 -1.2649  1.1962 -0.8620
 3111TIP3   OH2 9296   0.990   5.387   1.433 -0.1407 -0.4214 -0.0461
 3111TIP3    H1 9297   1.001   5.477   1.463  1.7616 -0.4022 -0.6578
 3111TIP3    H2 9298   0.934   5.394   1.356 -2.3059 -0.1150  1.4757
 3112TIP3   OH2 9299   6.455   0.369   5.465 -0.0592 -0.6801  0.3888
 3112TIP3    H1 9300   6.410   0.322   5.534  0.0630 -0.9469  0.2903
 3112TIP3    H2 9301   6.419   0.333   5.384 -0.2350 -0.3374  0.3113
 3113TIP3   OH2 9302   0.677   4.017   4.381  0.0693  0.0968  0.5886
 3113TIP3    H1 9303   0.766   4.004   4.350  0.0166  0.5359  0.2505
 3113TIP3    H2 9304   0.677   3.981   4.470  0.1836 -1.2936  0.0557
 3114TIP3   OH2 9305   2.728   2.027   4.954  0.1182 -0.1855  0.1368
 3114TIP3    H1 9306   2.665   2.062   5.018 -0.5301 -0.9152 -0.0868
 3114TIP3    H2 9307   2.803   2.087   4.959 -0.7782  0.9899  0.0656
 3115TIP3   OH2 9308   4.597   1.205   5.246 -0.0399  0.3614  0.2453
 3115TIP3    H1 9309   4.534   1.251   5.301  0.1962  1.6752 -0.5396
 3115TIP3    H2 9310   4.568   1.222   5.157  0.3232 -0.6631 -0.0842
 3116TIP3   OH2 9311   6.491   0.133   3.935  0.4638 -0.3893  0.1644
 3116TIP3    H1 9312   6.472   0.180   3.854  3.0125  1.5323  0.5399
 3116TIP3    H2 9313   6.412   0.082   3.953 -0.7856  0.3836 -2.6324
 3117TIP3   OH2 9314   4.487   3.323   5.026  0.5019  0.4338 -0.3989
 3117TIP3    H1 9315   4.542   3.247   5.047  0.3812 -0.0567 -1.8098
 3117TIP3    H2 9316   4.478   3.369   5.110  0.5020 -1.1438  0.4995
 3118TIP3   OH2 9317   1.881   6.473   4.634 -0.2290  0.4485  0.9976
 3118TIP3    H1 9318   1.927   6.431   4.561  0.8037 -0.8693  2.3277
 3118TIP3    H2 9319   1.951   6.510   4.688 -1.0732  3.0305  0.4382
 3119TIP3   OH2 9320   0.245   1.966   0.217  0.4443 -0.3535 -0.1514
 3119TIP3    H1 9321   0.209   1.877   0.211 -0.2562 -0.1291  0.6557
 3119TIP3    H2 9322   0.325   1.962   0.164 -0.8062 -0.8316 -2.1262
 3120TIP3   OH2 9323   2.704   5.461   4.317 -0.3872 -0.0758  0.0997
 3120TIP3    H1 9324   2.738   5.500   4.236  0.0627 -0.2408  0.2053
 3120TIP3    H2 9325   2.700   5.533   4.379 -2.2236  0.3942 -0.5088
 3121TIP3   OH2 9326   6.125   5.355   0.703 -0.4012 -0.2387  0.0518
 3121TIP3    H1 9327   6.181   5.422   0.663 -0.4311 -0.1443  0.1642
 3121TIP3    H2 9328   6.160   5.272   0.673  0.8631 -0.2582  1.4463
 3122TIP3   OH2 9329   6.277   4.337   1.551 -0.2650  0.5925  0.4452
 3122TIP3    H1 9330   6.361   4.317   1.509 -0.6719  0.5652 -0.3527
 3122TIP3    H2 9331   6.301   4.354   1.643  1.0693  3.8027 -0.3634
 3123TIP3   OH2 9332   0.952   1.786   4.461 -0.7330 -0.6908  0.3727
 3123TIP3    H1 9333   1.015   1.837   4.512 -0.5424  3.3408 -3.2564
 3123TIP3    H2 9334   0.983   1.696   4.468  2.4116  0.3675  2.7689
 3124TIP3   OH2 9335   0.280   0.731   5.733  0.4476 -0.3316  0.1954
 3124TIP3    H1 9336   0.369   0.718   5.702  0.3743 -0.7333  0.1489
 3124TIP3    H2 9337   0.246   0.803   5.680  0.0471 -1.5270 -1.2485
 3125TIP3   OH2 9338   3.290   0.991   0.805 -0.1887 -0.4413  0.2614
 3125TIP3    H1 9339   3.332   1.034   0.730 -3.2417  2.2757 -0.1102
 3125TIP3    H2 9340   3.344   1.016   0.880 -0.2891  1.8177 -0.3441
 3126TIP3   OH2 9341   2.996   0.275   0.877  0.4737 -0.2093  0.2759
 3126TIP3    H1 9342   3.050   0.290   0.955 -1.9500  0.3274  1.9998
 3126TIP3    H2 9343   2.955   0.190   0.892 -0.6183  0.2482 -0.0048
 3127TIP3   OH2 9344   6.222   3.767   0.842  0.3525  0.5443 -0.2739
 3127TIP3    H1 9345   6.189   3.783   0.930  0.8655 -1.5331  0.3730
 3127TIP3    H2 9346   6.145   3.739   0.792  0.3119  0.2316 -0.0426
 3128TIP3   OH2 9347   2.765   2.715   3.954  0.5024 -0.1042 -0.0566
 3128TIP3    H1 9348   2.835   2.778   3.934  0.6769  0.0620  1.0552
 3128TIP3    H2 9349   2.774   2.648   3.886  0.4611  0.9466 -1.1250
 3129TIP3   OH2 9350   1.873   5.057   4.308 -0.3973  0.2051 -0.8008
 3129TIP3    H1 9351   1.804   5.005   4.349  0.2344  1.4770  2.2184
 3129TIP3    H2 9352   1.955   5.015   4.336  0.0680  1.2199 -0.5510
 3130TIP3   OH2 9353   4.951   3.085   3.274 -0.9945 -0.1349 -0.0592
 3130TIP3    H1 9354   4.882   3.020   3.258 -1.2442 -0.5189  2.2334
 3130TIP3    H2 9355   5.032   3.035   3.270 -0.8271  0.2091 -2.1759
 3131TIP3   OH2 9356   4.884   5.904   0.688  0.1612 -0.5860  0.1143
 3131TIP3    H1 9357   4.915   5.899   0.778  1.8305 -2.3995 -0.4846
 3131TIP3    H2 9358   4.795   5.938   0.695  0.0790 -1.1134  2.4731
 3132TIP3   OH2 9359   0.241   3.413   5.412  0.6329  0.7089  0.5211
 3132TIP3    H1 9360   0.223   3.408   5.506  0.3330 -1.1292  0.4085
 3132TIP3    H2 9361   0.328   3.452   5.406  1.8347 -1.5405  1.7449
 3133TIP3   OH2 9362   5.880   3.072   1.330  0.4414  0.1242 -0.2195
 3133TIP3    H1 9363   5.935   3.126   1.273 -1.2911  0.7500 -1.4157
 3133TIP3    H2 9364   5.790   3.094   1.304 -0.3711 -1.8494  0.6651
 3134TIP3   OH2 9365   3.071   1.337   4.909  0.4802  0.2091 -0.4816
 3134TIP3    H1 9366   3.129   1.325   4.833  1.7555 -0.7301  0.5986
 3134TIP3    H2 9367   3.038   1.249   4.927 -0.1768  0.5085 -0.2174
 3135TIP3   OH2 9368   0.913   5.884   5.112  0.4273 -0.5750  0.1701
 3135TIP3    H1 9369   0.844   5.819   5.102 -1.0054  0.8642  0.4099
 3135TIP3    H2 9370   0.880   5.945   5.177  2.4165 -0.4321  1.1376
 3136TIP3   OH2 9371   6.842   0.473   4.165 -0.2226  0.1636 -0.5088
 3136TIP3    H1 9372   6.900   0.406   4.129 -0.7948 -0.6760  0.1268
 3136TIP3    H2 9373   6.759   0.429   4.179 -0.3490  0.7669  0.7614
 3137TIP3   OH2 9374   1.441   6.757   5.408 -0.1705 -0.0203 -0.6480
 3137TIP3    H1 9375   1.516   6.701   5.388  0.7233  0.7133  0.4746
 3137TIP3    H2 9376   1.467   6.805   5.487 -1.5485  0.7772 -0.6342
 3138TIP3   OH2 9377   5.493   5.891   0.437 -0.4477  0.0694 -0.4997
 3138TIP3    H1 9378   5.412   5.923   0.400  0.6455  1.9974 -1.3551
 3138TIP3    H2 9379   5.561   5.917   0.374  1.0209  0.0671  1.0032
 3139TIP3   OH2 9380   4.931   2.523   4.024 -0.2950  0.3522 -0.6016
 3139TIP3    H1 9381   5.025   2.535   4.013  0.0287  0.2327  1.5125
 3139TIP3    H2 9382   4.891   2.588   3.967  1.1996  3.4000  1.5335
 3140TIP3   OH2 9383   4.496   1.111   1.398  0.3315  0.2175  0.0866
 3140TIP3    H1 9384   4.591   1.116   1.408  0.3853 -0.8176  0.2507
 3140TIP3    H2 9385   4.481   1.111   1.304  0.4535  0.8185  0.0616
 3141TIP3   OH2 9386   0.136   0.489   4.810  0.2548 -0.4825 -0.6300
 3141TIP3    H1 9387   0.151   0.403   4.847  2.9929  1.2594  2.9433
 3141TIP3    H2 9388   0.217   0.510   4.764  1.0412  1.3792  1.4516
 3142TIP3   OH2 9389   5.006   2.102   3.074 -0.2961 -0.1257  0.2881
 3142TIP3    H1 9390   4.955   2.023   3.093  0.0147 -0.7507 -1.3081
 3142TIP3    H2 9391   4.943   2.162   3.035 -0.0633 -0.5109 -0.7215
 3143TIP3   OH2 9392   6.987   5.702   1.312 -0.0893 -0.0095 -0.0804
 3143TIP3    H1 9393   7.062   5.653   1.345  1.8595  2.0420 -1.1730
 3143TIP3    H2 9394   6.957   5.652   1.236 -0.5704 -1.4104  0.9899
 3144TIP3   OH2 9395   3.628   2.553   2.482  0.0542 -0.3304  0.2521
 3144TIP3    H1 9396   3.608   2.623   2.420 -1.2634  1.1351  2.2156
 3144TIP3    H2 9397   3.719   2.570   2.508 -0.0405  0.2648  0.2189
 3145TIP3   OH2 9398   4.222   6.154   3.227 -0.1088  0.8148 -0.2821
 3145TIP3    H1 9399   4.235   6.062   3.252 -0.4023 -0.9136 -5.2833
 3145TIP3    H2 9400   4.309   6.193   3.238 -0.1965  0.3951  2.8961
 3146TIP3   OH2 9401   6.485   5.441   4.452 -0.2727 -0.2914  0.8953
 3146TIP3    H1 9402   6.518   5.357   4.420  0.0743 -0.4738  1.7092
 3146TIP3    H2 9403   6.389   5.432   4.449 -0.2459 -1.0108  1.6970
 3147TIP3   OH2 9404   0.970   0.907   4.373 -0.2012 -0.2078 -0.4035
 3147TIP3    H1 9405   1.022   0.839   4.330 -0.2830 -0.6574  0.1938
 3147TIP3    H2 9406   0.909   0.937   4.306  1.5677  1.1522 -1.4981
 3148TIP3   OH2 9407   5.910   0.966   3.568 -0.3133  0.0614 -0.2745
 3148TIP3    H1 9408   5.889   1.055   3.596  1.4516  0.0974  1.1002
 3148TIP3    H2 9409   5.938   0.976   3.477 -5.4949  0.0286 -2.2359
 3149TIP3   OH2 9410   6.328   1.485   2.128 -0.2792 -0.1067  0.3098
 3149TIP3    H1 9411   6.290   1.534   2.055  1.1273  1.4137  0.5318
 3149TIP3    H2 9412   6.422   1.491   2.115 -0.0347 -1.6394  1.1127
 3150TIP3   OH2 9413   4.662   4.573   3.311 -0.1949 -0.5982  0.4291
 3150TIP3    H1 9414   4.730   4.603   3.251  0.9495 -2.2874  0.8230
 3150TIP3    H2 9415   4.625   4.653   3.348 -1.6060  0.6385 -3.1375
 3151TIP3   OH2 9416   5.474   2.006   4.613  0.0492  0.0615  0.3896
 3151TIP3    H1 9417   5.399   1.971   4.661 -1.1906  1.3480 -0.5315
 3151TIP3    H2 9418   5.448   2.002   4.521  1.3328  0.0414  0.0070
 3152TIP3   OH2 9419   0.225   4.947   5.145 -0.2667 -0.4667  0.8731
 3152TIP3    H1 9420   0.184   4.985   5.067 -1.2748 -0.9583  1.1355
 3152TIP3    H2 9421   0.300   4.897   5.111 -0.2968 -0.1267  0.2924
 3153TIP3   OH2 9422   2.226   3.154   2.241  0.4417  0.3087  0.6787
 3153TIP3    H1 9423   2.305   3.197   2.272  1.3157 -1.3397  0.8013
 3153TIP3    H2 9424   2.243   3.137   2.148 -0.7088  1.9547  0.1137
 3154TIP3   OH2 9425   6.780   0.632   4.814  0.4140  0.2459 -0.0894
 3154TIP3    H1 9426   6.735   0.666   4.737 -1.5665 -2.3662 -0.2188
 3154TIP3    H2 9427   6.873   0.636   4.791  0.0325  1.8259 -1.5753
 3155TIP3   OH2 9428   0.464   4.088   4.697 -0.1987 -0.4011  0.4885
 3155TIP3    H1 9429   0.516   4.066   4.774 -0.1618  1.7460  1.1555
 3155TIP3    H2 9430   0.477   4.183   4.687 -1.7356 -0.3170 -1.0119
 3156TIP3   OH2 9431   6.952   0.936   4.957  0.7151 -0.0815 -0.0759
 3156TIP3    H1 9432   6.919   0.915   5.044  0.5177  1.5450  0.2777
 3156TIP3    H2 9433   7.047   0.940   4.968  0.7223 -0.3378 -0.0429
 3157TIP3   OH2 9434   0.734   3.384   5.680  0.3483  0.5682  0.3617
 3157TIP3    H1 9435   0.808   3.440   5.658 -0.7337  1.5298 -1.0564
 3157TIP3    H2 9436   0.657   3.433   5.651 -0.7077 -1.2927 -0.1840
 3158TIP3   OH2 9437   2.877   0.913   2.777 -0.0808  0.0219  0.1325
 3158TIP3    H1 9438   2.899   0.825   2.808  3.0955 -0.1539 -2.1704
 3158TIP3    H2 9439   2.825   0.898   2.698  1.2051  0.1586 -0.7540
 3159TIP3   OH2 9440   5.704   3.248   3.012 -0.1295  0.0272  0.4363
 3159TIP3    H1 9441   5.735   3.325   3.060  1.0560  0.1991 -0.5859
 3159TIP3    H2 9442   5.783   3.208   2.977 -1.0001  0.6779 -2.5517
 3160TIP3   OH2 9443   2.716   3.887   5.631  0.1609 -0.2200  0.2036
 3160TIP3    H1 9444   2.740   3.862   5.720 -1.9344  2.3823  1.6492
 3160TIP3    H2 9445   2.755   3.973   5.618 -0.3072 -0.1722 -1.0640
 3161TIP3   OH2 9446   1.338   0.346   3.706  0.0420  0.1021 -0.1492
 3161TIP3    H1 9447   1.343   0.440   3.725 -0.1365 -0.3106  2.3511
 3161TIP3    H2 9448   1.245   0.330   3.691  0.0577  0.2975 -0.4691
 3162TIP3   OH2 9449   3.292   2.390   0.472 -0.3673 -0.5098  0.2760
 3162TIP3    H1 9450   3.368   2.441   0.501 -1.0113  1.0271 -0.6275
 3162TIP3    H2 9451   3.221   2.454   0.466 -1.3646 -1.6380 -0.3237
 3163TIP3   OH2 9452   1.843   1.824   0.708  0.3776 -0.5006  0.5077
 3163TIP3    H1 9453   1.768   1.770   0.683 -0.1114  0.7398 -0.8506
 3163TIP3    H2 9454   1.919   1.767   0.696 -0.0244 -0.6478 -1.8504
 3164TIP3   OH2 9455   0.749   2.955   4.691  0.0884  0.4556  0.0459
 3164TIP3    H1 9456   0.751   3.032   4.748  0.3042  0.1025  0.5227
 3164TIP3    H2 9457   0.838   2.950   4.656  1.1218 -1.4717  2.6137
 3165TIP3   OH2 9458   5.437   4.576   2.635 -0.2019 -0.3340 -0.0373
 3165TIP3    H1 9459   5.528   4.604   2.635  0.3306 -1.9417 -0.9524
 3165TIP3    H2 9460   5.421   4.544   2.724  1.2633 -3.3343 -0.7342
 3166TIP3   OH2 9461   2.098   4.795   5.493 -0.3827 -0.3131 -0.0368
 3166TIP3    H1 9462   2.030   4.737   5.460  1.0932 -1.6728 -0.8022
 3166TIP3    H2 9463   2.181   4.752   5.469  0.7932  2.1861 -0.8311
 3167TIP3   OH2 9464   1.175   0.810   4.163  0.6451 -0.0394  0.0656
 3167TIP3    H1 9465   1.199   0.871   4.093  2.4098 -2.0116 -1.1792
 3167TIP3    H2 9466   1.173   0.724   4.119  0.1157 -1.1288  2.1085
 3168TIP3   OH2 9467   6.540   0.334   0.907 -0.1629 -0.1899  0.3874
 3168TIP3    H1 9468   6.549   0.427   0.927 -0.0403 -0.0714 -0.2044
 3168TIP3    H2 9469   6.494   0.332   0.823  1.2285 -0.6286 -0.3905
 3169TIP3   OH2 9470   3.229   0.029   5.619  0.4079  0.4100  0.0216
 3169TIP3    H1 9471   3.180   0.111   5.624  0.9479  0.7252  0.3274
 3169TIP3    H2 9472   3.293   0.035   5.691 -0.5600 -0.9698  1.0480
 3170TIP3   OH2 9473   1.829   1.491   0.981 -0.1790  0.0378 -0.3992
 3170TIP3    H1 9474   1.757   1.553   0.969  0.0523  0.3761 -0.0840
 3170TIP3    H2 9475   1.883   1.531   1.051  0.0550 -0.4391 -0.3050
 3171TIP3   OH2 9476   2.393   5.019   0.718  0.3569 -0.1091  0.0900
 3171TIP3    H1 9477   2.332   5.062   0.657  1.6447  0.5553 -0.7936
 3171TIP3    H2 9478   2.463   4.986   0.661  0.0589 -2.2724  0.9008
 3172TIP3   OH2 9479   6.780   2.321   1.870 -0.1104  0.1999 -0.1942
 3172TIP3    H1 9480   6.810   2.409   1.850 -0.6778  0.2532 -0.8334
 3172TIP3    H2 9481   6.848   2.285   1.928  2.0761 -0.3033 -2.8785
 3173TIP3   OH2 9482   2.724   0.559   1.689  0.4678 -0.2444  0.6312
 3173TIP3    H1 9483   2.665   0.492   1.655 -1.2526  1.5088  0.0072
 3173TIP3    H2 9484   2.712   0.555   1.784  0.4301 -0.8418  0.6069
 3174TIP3   OH2 9485   4.912   2.716   5.815  0.9555 -0.1201  0.7196
 3174TIP3    H1 9486   4.829   2.726   5.860  0.2680  0.4554 -0.6189
 3174TIP3    H2 9487   4.977   2.707   5.885 -0.0513  0.7870  1.8000
 3175TIP3   OH2 9488   0.991   5.748   2.748 -0.0573  0.1425  0.2211
 3175TIP3    H1 9489   0.971   5.667   2.702 -1.8208  0.3494  0.5498
 3175TIP3    H2 9490   1.048   5.797   2.689 -2.2731  0.4292 -1.7901
 3176TIP3   OH2 9491   6.265   2.196   4.964 -0.2165 -0.2185  0.2515
 3176TIP3    H1 9492   6.242   2.130   5.029  0.4111  1.3477  2.1533
 3176TIP3    H2 9493   6.336   2.156   4.913 -0.8256 -1.5307  0.3888
 3177TIP3   OH2 9494   6.767   2.313   5.574  0.2945  0.3971 -0.2867
 3177TIP3    H1 9495   6.825   2.238   5.559 -0.0666 -0.1953  1.1451
 3177TIP3    H2 9496   6.680   2.281   5.547  0.1822  0.3724  0.0960
 3178TIP3   OH2 9497   6.133   2.747   0.555 -0.5208  0.2262 -0.1183
 3178TIP3    H1 9498   6.222   2.711   0.543 -0.4912  0.8366 -2.2311
 3178TIP3    H2 9499   6.147   2.836   0.586 -0.5040 -0.3674  1.7124
 3179TIP3   OH2 9500   4.729   0.643   5.505  0.1316 -0.5153 -0.5939
 3179TIP3    H1 9501   4.696   0.665   5.418 -1.0462 -2.7878 -0.8022
 3179TIP3    H2 9502   4.798   0.578   5.489  1.3447  0.5414  0.1131
 3180TIP3   OH2 9503   1.903   1.317   4.886 -0.4145  0.5432 -0.1332
 3180TIP3    H1 9504   1.956   1.330   4.807  0.2388  1.0068  0.3731
 3180TIP3    H2 9505   1.873   1.226   4.879  0.6844  0.1743 -0.2890
 3181TIP3   OH2 9506   0.715   6.758   5.346  0.0590  0.7247 -0.5000
 3181TIP3    H1 9507   0.632   6.786   5.384 -0.6108  0.5930 -1.7879
 3181TIP3    H2 9508   0.781   6.781   5.411 -0.9428  1.1949  0.3767
 3182TIP3   OH2 9509   1.915   6.667   4.863 -0.3866  0.5325  0.2203
 3182TIP3    H1 9510   1.832   6.710   4.884  0.2832  1.1240  1.8415
 3182TIP3    H2 9511   1.950   6.640   4.948  0.2857 -1.2584 -0.5712
 3183TIP3   OH2 9512   0.188   5.233   0.928 -0.2147  0.2264  0.7542
 3183TIP3    H1 9513   0.279   5.202   0.924 -0.5946 -1.3725  2.8739
 3183TIP3    H2 9514   0.145   5.189   0.854  0.5130  0.2064  0.3318
 3184TIP3   OH2 9515   4.562   4.093   3.607 -0.2021  0.1757 -0.5027
 3184TIP3    H1 9516   4.485   4.142   3.578 -0.3528 -0.0048 -0.4149
 3184TIP3    H2 9517   4.536   4.001   3.598 -0.0480  0.1155 -0.3407
 3185TIP3   OH2 9518   2.546   4.197   4.406 -0.3117 -0.1466  0.1231
 3185TIP3    H1 9519   2.551   4.288   4.375 -1.2821 -0.8518 -2.2762
 3185TIP3    H2 9520   2.460   4.190   4.448  0.6381  0.5582  2.3660
 3186TIP3   OH2 9521   3.882   5.487   0.527  0.0841  0.6086 -0.0824
 3186TIP3    H1 9522   3.798   5.532   0.530  0.7671  1.9033  1.6933
 3186TIP3    H2 9523   3.860   5.394   0.519 -1.4490  1.0228 -1.0871
 3187TIP3   OH2 9524   7.087   3.555   0.802  0.3587  0.4699 -0.1236
 3187TIP3    H1 9525   7.086   3.638   0.755  0.4032  0.6038  0.1101
 3187TIP3    H2 9526   7.171   3.554   0.847  0.3629  0.2933 -0.1363
 3188TIP3   OH2 9527   3.603   4.182   2.685 -0.3141 -0.1805  0.2591
 3188TIP3    H1 9528   3.561   4.148   2.606  0.3260 -1.7467  0.5372
 3188TIP3    H2 9529   3.685   4.221   2.654 -0.0508 -0.8148  0.1264
 3189TIP3   OH2 9530   5.269   6.101   1.688  0.5838  0.1140 -0.1445
 3189TIP3    H1 9531   5.229   6.165   1.629 -0.1351 -0.5985 -0.4323
 3189TIP3    H2 9532   5.197   6.067   1.740  1.3286  1.5602  2.0193
 3190TIP3   OH2 9533   6.980   5.520   5.719  0.0082 -0.2870  0.9976
 3190TIP3    H1 9534   6.900   5.570   5.707 -0.2948 -1.0010 -0.1105
 3190TIP3    H2 9535   7.002   5.533   5.811 -0.6923  0.9126  1.0203
 3191TIP3   OH2 9536   3.720   4.635   3.555  0.5789 -0.5669 -0.7190
 3191TIP3    H1 9537   3.727   4.722   3.595 -1.8629 -0.5012 -0.2978
 3191TIP3    H2 9538   3.691   4.652   3.466 -0.4473 -0.9265 -0.4711
 3192TIP3   OH2 9539   1.056   4.558   5.085  0.2203  0.2731  0.7023
 3192TIP3    H1 9540   1.084   4.489   5.026  0.5789  0.2953  0.8419
 3192TIP3    H2 9541   1.127   4.565   5.149  2.0183  3.2713 -1.3646
 3193TIP3   OH2 9542   5.559   1.324   4.773 -0.2499 -0.1141 -0.3890
 3193TIP3    H1 9543   5.550   1.419   4.770 -1.4250 -0.1189  1.5371
 3193TIP3    H2 9544   5.471   1.291   4.756 -0.1995 -0.7905  0.5813
 3194TIP3   OH2 9545   4.876   1.160   3.635  0.4445  0.2488  0.0029
 3194TIP3    H1 9546   4.894   1.116   3.552 -0.5552  2.5180 -1.5234
 3194TIP3    H2 9547   4.963   1.175   3.674  0.8637 -1.7679 -0.0764
 3195TIP3   OH2 9548   1.488   0.585   3.694  0.2130  0.2172 -0.2822
 3195TIP3    H1 9549   1.552   0.570   3.764 -0.7991 -2.0978  0.2568
 3195TIP3    H2 9550   1.506   0.674   3.664  1.8464  0.6531  1.7133
 3196TIP3   OH2 9551   2.369   0.903   2.321 -0.0585 -0.1625 -0.4454
 3196TIP3    H1 9552   2.286   0.860   2.342 -0.4964 -1.1245 -3.6194
 3196TIP3    H2 9553   2.435   0.834   2.334 -0.0741 -0.1704 -0.4064
 3197TIP3   OH2 9554   6.043   2.582   2.814  0.0185 -0.1926  0.7088
 3197TIP3    H1 9555   6.114   2.554   2.757 -0.2907 -0.4361  0.4362
 3197TIP3    H2 9556   6.000   2.501   2.842  0.2515 -0.0790  1.4019
 3198TIP3   OH2 9557   4.562   2.646   5.193  0.8510  0.6004  0.3853
 3198TIP3    H1 9558   4.556   2.557   5.225  0.2936 -0.1539 -1.6565
 3198TIP3    H2 9559   4.655   2.668   5.198  1.1563 -0.5230 -0.1081
 3199TIP3   OH2 9560   7.072   0.800   2.453  0.2181 -0.3293  0.3995
 3199TIP3    H1 9561   7.144   0.835   2.400  0.1564  0.9986  1.1458
 3199TIP3    H2 9562   7.114   0.767   2.532  0.1310 -0.7455  0.2742
 3200TIP3   OH2 9563   5.785   2.254   3.286  0.1571  0.8410  0.2402
 3200TIP3    H1 9564   5.842   2.323   3.252  0.1719  0.6801 -0.0669
 3200TIP3    H2 9565   5.699   2.296   3.295  0.2353  0.9810  0.3476
 3201TIP3   OH2 9566   4.387   0.790   0.187 -0.6100 -0.1233  0.0097
 3201TIP3    H1 9567   4.480   0.771   0.180 -0.8118 -0.9342 -0.7121
 3201TIP3    H2 9568   4.356   0.731   0.256 -0.8268 -0.8535 -0.6937
 3202TIP3   OH2 9569   5.870   6.442   3.672  0.1819  0.4948  0.1887
 3202TIP3    H1 9570   5.786   6.464   3.632  0.5514  1.2208 -0.2221
 3202TIP3    H2 9571   5.914   6.527   3.683  0.9371  0.1092  0.2067
 3203TIP3   OH2 9572   0.506   6.465   5.195  0.0180  0.5920  0.0795
 3203TIP3    H1 9573   0.495   6.372   5.174 -0.3020  1.1768 -2.7073
 3203TIP3    H2 9574   0.584   6.468   5.251 -0.0101 -1.3507  0.2776
 3204TIP3   OH2 9575   3.189   3.875   3.264 -0.2683  0.2916 -0.2087
 3204TIP3    H1 9576   3.252   3.877   3.336  1.9933  1.8731 -2.0688
 3204TIP3    H2 9577   3.113   3.923   3.297  0.5802  0.7161  1.2141
 3205TIP3   OH2 9578   2.328   6.056   3.650  0.3478 -0.0196 -0.0279
 3205TIP3    H1 9579   2.291   6.030   3.734  0.3758  1.3902  0.4396
 3205TIP3    H2 9580   2.337   6.151   3.656  0.8241  0.0435 -1.4361
 3206TIP3   OH2 9581   1.748   0.644   1.704 -0.2834  0.7359  0.1103
 3206TIP3    H1 9582   1.830   0.655   1.655 -0.7387  1.0358 -0.5910
 3206TIP3    H2 9583   1.760   0.695   1.784 -0.0869  1.4285 -0.3561
 3207TIP3   OH2 9584   5.354   0.830   4.875  0.0469 -0.1464  0.5719
 3207TIP3    H1 9585   5.268   0.873   4.878 -0.1616 -0.1262 -2.4935
 3207TIP3    H2 9586   5.413   0.897   4.840  0.5529 -1.1644 -0.5768
 3208TIP3   OH2 9587   4.021   4.045   5.126 -0.5599  0.1358 -0.6084
 3208TIP3    H1 9588   3.994   3.971   5.071  0.2149  0.4495 -1.4324
 3208TIP3    H2 9589   3.977   4.030   5.210 -0.9021 -0.9320 -0.9649
 3209TIP3   OH2 9590   0.341   2.039   0.674  0.5596  0.4397 -0.3935
 3209TIP3    H1 9591   0.375   1.955   0.705 -1.9656 -0.3920  0.3984
 3209TIP3    H2 9592   0.290   2.073   0.747  0.7020  2.1987 -1.0636
 3210TIP3   OH2 9593   1.228   0.509   5.487 -0.0367  0.6164 -0.4789
 3210TIP3    H1 9594   1.240   0.484   5.396  1.0213  1.5174 -0.6158
 3210TIP3    H2 9595   1.250   0.431   5.538 -1.2772 -0.0908 -0.9992
 3211TIP3   OH2 9596   4.764   6.130   4.541 -0.9758 -0.0659  0.1049
 3211TIP3    H1 9597   4.816   6.062   4.584 -2.2392 -1.5295 -0.6104
 3211TIP3    H2 9598   4.815   6.154   4.464 -1.5599 -1.8600 -0.8703
 3212TIP3   OH2 9599   2.559   3.271   0.829 -0.4378 -0.9013  0.3363
 3212TIP3    H1 9600   2.466   3.290   0.823 -0.4509 -1.1718 -0.4801
 3212TIP3    H2 9601   2.585   3.302   0.916 -1.7425 -2.8364  1.4927
 3213TIP3   OH2 9602   4.200   1.701   2.207  0.5865  0.6333 -0.3036
 3213TIP3    H1 9603   4.280   1.746   2.182 -0.0454  0.9668 -1.8607
 3213TIP3    H2 9604   4.191   1.718   2.301  1.1350  2.5277 -0.5581
 3214TIP3   OH2 9605   5.287   1.429   2.866  0.1789 -0.7036 -0.2387
 3214TIP3    H1 9606   5.263   1.369   2.936  0.2747 -0.1330  0.3006
 3214TIP3    H2 9607   5.378   1.452   2.885 -0.5436  1.4636  0.9933
 3215TIP3   OH2 9608   6.730   5.013   0.271  0.3398 -0.2252  0.0119
 3215TIP3    H1 9609   6.822   5.039   0.272  0.3623 -0.3271  0.4704
 3215TIP3    H2 9610   6.717   4.965   0.353  0.4211 -2.1140 -1.0196
 3216TIP3   OH2 9611   2.823   1.182   0.060  0.4318 -0.1791  0.4763
 3216TIP3    H1 9612   2.843   1.276   0.055  0.3387 -0.1785  0.1248
 3216TIP3    H2 9613   2.799   1.168   0.152  0.9714  0.0354  0.6544
 3217TIP3   OH2 9614   2.155   5.219   3.831 -0.2237 -0.0358  0.5910
 3217TIP3    H1 9615   2.201   5.275   3.769  1.1427 -1.7487 -0.0437
 3217TIP3    H2 9616   2.152   5.270   3.912  0.5982  1.0996 -0.0587
 3218TIP3   OH2 9617   4.818   4.899   0.403  0.2756  0.5388  0.8538
 3218TIP3    H1 9618   4.890   4.951   0.437  2.5514 -1.0923 -1.1352
 3218TIP3    H2 9619   4.813   4.823   0.461  0.9918  0.0912  0.3546
 3219TIP3   OH2 9620   2.517   6.460   1.818 -0.0565 -0.4379 -0.1629
 3219TIP3    H1 9621   2.461   6.430   1.746 -0.6528 -0.6907  0.3920
 3219TIP3    H2 9622   2.577   6.387   1.834 -1.1156 -1.1307  0.7908
 3220TIP3   OH2 9623   0.802   0.825   5.466 -0.0926  0.4373  0.2427
 3220TIP3    H1 9624   0.848   0.906   5.491 -0.4087  1.1373 -1.3039
 3220TIP3    H2 9625   0.849   0.796   5.388  0.1831 -1.0547  0.9387
 3221TIP3   OH2 9626   2.038   1.822   2.605  0.1516 -0.0075  0.7253
 3221TIP3    H1 9627   2.061   1.745   2.553  0.8293  1.7539 -1.7534
 3221TIP3    H2 9628   2.122   1.866   2.620 -0.3412  0.8018  1.1609
 3222TIP3   OH2 9629   3.399   3.771   1.103 -0.0623 -0.2690  0.6579
 3222TIP3    H1 9630   3.458   3.695   1.101  0.4045  0.1007 -0.0457
 3222TIP3    H2 9631   3.369   3.781   1.012 -1.7536 -0.8543  1.1153
 3223TIP3   OH2 9632   1.762   5.906   4.434  0.0807 -0.4177  0.0745
 3223TIP3    H1 9633   1.738   5.923   4.525  1.0623  0.0966  0.2557
 3223TIP3    H2 9634   1.679   5.901   4.387 -0.3838  1.1544  0.6795
 3224TIP3   OH2 9635   1.857   1.894   5.029 -0.6450  0.2929 -0.7463
 3224TIP3    H1 9636   1.785   1.846   4.989  0.9089  0.1196 -3.6147
 3224TIP3    H2 9637   1.893   1.833   5.093 -2.6250  0.1753  0.3400
 3225TIP3   OH2 9638   5.207   0.457   4.478 -0.2629  0.6117  0.6927
 3225TIP3    H1 9639   5.148   0.532   4.464 -0.6265  0.1952 -0.0603
 3225TIP3    H2 9640   5.177   0.418   4.560  0.3921  1.7092  1.4800
 3226TIP3   OH2 9641   6.884   0.838   0.074  0.0210  0.4342 -0.2036
 3226TIP3    H1 9642   6.828   0.837  -0.004  0.7553 -1.9778 -0.7858
 3226TIP3    H2 9643   6.832   0.792   0.141  0.3305  0.3658 -0.0084
 3227TIP3   OH2 9644   6.497   6.440   4.942  0.1152 -0.2147  0.2307
 3227TIP3    H1 9645   6.435   6.395   4.999  0.1379  1.7583  1.9370
 3227TIP3    H2 9646   6.442   6.496   4.887  0.1507 -1.5839 -1.2938
 3228TIP3   OH2 9647   3.159   4.315   5.161 -0.1010  0.2597  0.4225
 3228TIP3    H1 9648   3.148   4.379   5.232  0.3120  0.2683  0.4831
 3228TIP3    H2 9649   3.142   4.365   5.081 -0.1655  0.3504  0.4923
 3229TIP3   OH2 9650   3.603   0.654   2.314  0.5335  0.3252 -0.0942
 3229TIP3    H1 9651   3.640   0.677   2.229  0.5804  1.1119  0.1323
 3229TIP3    H2 9652   3.582   0.561   2.307  0.4808  0.4023 -0.9798
 3230TIP3   OH2 9653   4.755   0.319   4.062  0.1475  0.1434  0.2143
 3230TIP3    H1 9654   4.838   0.295   4.020  0.4210  0.6810  0.4309
 3230TIP3    H2 9655   4.690   0.260   4.024  0.3113  0.8788 -1.2356
 3231TIP3   OH2 9656   4.107   2.090   4.387  0.5385 -0.2782  0.0122
 3231TIP3    H1 9657   4.101   2.034   4.310  0.6175  1.4857 -1.3498
 3231TIP3    H2 9658   4.037   2.059   4.445  2.2592 -3.4743  0.5606
 3232TIP3   OH2 9659   1.585   1.275   1.768  0.3631  0.7221 -0.1718
 3232TIP3    H1 9660   1.540   1.191   1.770  1.5537  0.0660  0.0497
 3232TIP3    H2 9661   1.596   1.295   1.675  0.3853  0.4635 -0.2249
 3233TIP3   OH2 9662   6.532   1.253   2.978 -0.0957 -0.1908  0.1888
 3233TIP3    H1 9663   6.494   1.338   2.955  0.9763  0.0126 -0.9842
 3233TIP3    H2 9664   6.588   1.272   3.054  0.8360  0.3704 -0.6112
 3234TIP3   OH2 9665   7.054   0.432   5.569  0.2738  0.6029  0.1253
 3234TIP3    H1 9666   7.053   0.355   5.513  0.4193 -0.2706  1.2700
 3234TIP3    H2 9667   7.090   0.400   5.652 -1.8306  1.3189  1.4139
 3235TIP3   OH2 9668   1.333   0.888   3.361  0.3758  0.2522  0.0801
 3235TIP3    H1 9669   1.312   0.813   3.416  0.3610  1.0618  1.2237
 3235TIP3    H2 9670   1.427   0.881   3.346  0.5134  0.3753  0.8039
 3236TIP3   OH2 9671   3.271   5.140   3.075 -0.4444 -0.4571 -0.1244
 3236TIP3    H1 9672   3.212   5.065   3.083 -0.3399 -0.6128 -0.6940
 3236TIP3    H2 9673   3.359   5.101   3.076 -0.4058 -0.4237 -1.0870
 3237TIP3   OH2 9674   2.580   4.386   3.658 -0.2077  0.2045  0.1685
 3237TIP3    H1 9675   2.549   4.471   3.691 -0.3042 -0.0966  0.8714
 3237TIP3    H2 9676   2.513   4.324   3.685 -0.3119 -0.0437 -0.6574
 3238TIP3   OH2 9677   6.010   4.845   4.410  0.3068  0.4821 -0.3194
 3238TIP3    H1 9678   6.051   4.775   4.461 -1.4641 -0.9522 -0.7640
 3238TIP3    H2 9679   6.022   4.923   4.463  1.0585 -0.4224  0.9048
 3239TIP3   OH2 9680   4.848   0.261   3.388  0.2864 -0.1104  0.0555
 3239TIP3    H1 9681   4.886   0.176   3.365  1.6204  0.3192  0.5567
 3239TIP3    H2 9682   4.920   0.323   3.374 -0.6106  0.9093 -0.1012
 3240TIP3   OH2 9683   1.846   3.048   3.722  0.1056  0.3368  0.2042
 3240TIP3    H1 9684   1.874   3.057   3.631  1.4687  0.2621  0.5946
 3240TIP3    H2 9685   1.803   3.131   3.743 -0.3770  0.2842 -0.5461
 3241TIP3   OH2 9686   3.748   1.278   2.988 -0.0110  0.2717 -0.4759
 3241TIP3    H1 9687   3.736   1.363   3.028 -1.1086 -0.5924  1.1250
 3241TIP3    H2 9688   3.702   1.283   2.904 -0.2636  1.1694 -0.2855
 3242TIP3   OH2 9689   1.803   5.209   4.082 -0.2399 -0.4289  0.2855
 3242TIP3    H1 9690   1.846   5.179   4.162 -1.2436  0.7520  1.3186
 3242TIP3    H2 9691   1.870   5.260   4.036 -0.2512  0.6996  1.4645
 3243TIP3   OH2 9692   4.166   5.901   2.587  0.2949 -0.1195 -0.1468
 3243TIP3    H1 9693   4.085   5.921   2.635  0.1376 -0.8198 -0.1118
 3243TIP3    H2 9694   4.200   5.987   2.561 -0.7091  0.1666 -0.5693
 3244TIP3   OH2 9695   2.710   1.043   2.005  0.4747 -0.2882  0.2639
 3244TIP3    H1 9696   2.802   1.038   2.029  0.2913  0.5695  1.2217
 3244TIP3    H2 9697   2.676   1.117   2.055 -0.7812 -0.7154  0.0796
 3245TIP3   OH2 9698   3.383   6.642   1.758 -0.4295  0.3356 -0.7249
 3245TIP3    H1 9699   3.434   6.583   1.813 -1.3666 -0.3064 -0.5305
 3245TIP3    H2 9700   3.293   6.609   1.762 -1.0065  1.8246 -0.5226
 3246TIP3   OH2 9701   5.867   0.057   2.038 -0.1953  0.0766  0.3681
 3246TIP3    H1 9702   5.798   0.070   1.972 -0.5102  0.1054  0.6992
 3246TIP3    H2 9703   5.943   0.027   1.988  0.6724  3.3792 -0.5146
 3247TIP3   OH2 9704   5.447   1.151   4.506 -0.3760  0.4034 -0.2008
 3247TIP3    H1 9705   5.512   1.165   4.437 -0.6989 -0.9274 -0.7941
 3247TIP3    H2 9706   5.423   1.239   4.534  0.7615  0.9373 -0.8410
 3248TIP3   OH2 9707   3.437   6.343   5.113  0.0123 -0.5287  0.0836
 3248TIP3    H1 9708   3.343   6.327   5.106 -0.3904  1.8029 -0.5110
 3248TIP3    H2 9709   3.477   6.278   5.055 -1.3653 -0.4335 -1.0207
 3249TIP3   OH2 9710   6.289   4.406   5.213 -0.2696  0.1596  0.4493
 3249TIP3    H1 9711   6.327   4.337   5.159 -1.0760 -0.1568  0.2728
 3249TIP3    H2 9712   6.194   4.392   5.207 -0.4371  1.1658  0.5517
 3250TIP3   OH2 9713   1.616   4.630   0.309 -0.1608 -0.0775  0.0333
 3250TIP3    H1 9714   1.624   4.600   0.219 -2.6716 -1.0241  0.0358
 3250TIP3    H2 9715   1.571   4.558   0.354 -1.5702  1.5241  1.3126
 3251TIP3   OH2 9716   6.682   1.172   0.375 -0.3897  0.7083  0.4124
 3251TIP3    H1 9717   6.655   1.161   0.284 -1.1418  1.8013  0.4890
 3251TIP3    H2 9718   6.705   1.084   0.404  2.6192  0.6348 -1.6646
 3252TIP3   OH2 9719   6.669   3.804   4.917 -0.0496  0.0319 -0.3372
 3252TIP3    H1 9720   6.701   3.714   4.913 -0.6689 -0.2655  0.7897
 3252TIP3    H2 9721   6.688   3.840   4.830  1.3145 -0.7889 -0.4121
 3253TIP3   OH2 9722   2.506   2.054   5.865 -0.1621 -0.5814  0.7253
 3253TIP3    H1 9723   2.558   2.002   5.927  2.1673 -1.0426 -1.4473
 3253TIP3    H2 9724   2.508   2.003   5.784 -2.2729  0.4686 -0.0558
 3254TIP3   OH2 9725   6.405   3.144   3.280 -0.3922  0.1006  0.3253
 3254TIP3    H1 9726   6.432   3.139   3.189 -0.5348 -0.0324  0.2905
 3254TIP3    H2 9727   6.376   3.235   3.292 -0.1419  0.1828  0.3045
 3255TIP3   OH2 9728   1.217   0.228   5.504 -0.2374  0.0225 -0.1249
 3255TIP3    H1 9729   1.150   0.165   5.477 -1.1227 -0.0880  2.1192
 3255TIP3    H2 9730   1.299   0.179   5.499 -0.3078  0.0504 -2.5528
 3256TIP3   OH2 9731   2.617   2.853   5.466  0.1136 -0.4365 -0.2643
 3256TIP3    H1 9732   2.559   2.825   5.395 -0.3990  1.6310 -0.7111
 3256TIP3    H2 9733   2.567   2.917   5.515  1.2723 -0.1739  0.6322
 3257TIP3   OH2 9734   7.069   2.813   1.794 -0.4782  0.1470  0.1081
 3257TIP3    H1 9735   6.978   2.845   1.800 -1.6254 -2.8625  0.3668
 3257TIP3    H2 9736   7.104   2.824   1.883 -0.3782  1.7633 -0.1021
 3258TIP3   OH2 9737   6.062   1.438   2.164  0.2679  0.2451  0.5091
 3258TIP3    H1 9738   6.154   1.433   2.142  0.8567  0.0793  2.7418
 3258TIP3    H2 9739   6.021   1.483   2.090  2.3072  1.3064 -0.0337
 3259TIP3   OH2 9740   6.283   1.878   2.674 -0.5377 -0.0549 -0.2430
 3259TIP3    H1 9741   6.355   1.904   2.731 -0.0962 -1.5735 -0.0637
 3259TIP3    H2 9742   6.309   1.792   2.640 -2.4796 -0.8732  0.2128
 3260TIP3   OH2 9743   3.005   0.077   0.361  0.4847 -0.2887 -0.1349
 3260TIP3    H1 9744   2.932   0.088   0.301  0.4093 -2.5103 -0.5318
 3260TIP3    H2 9745   2.980   0.127   0.439 -1.3921 -0.9036 -0.3020
 3261TIP3   OH2 9746   1.224   5.438   1.196 -0.0795 -0.4640 -0.1654
 3261TIP3    H1 9747   1.189   5.527   1.205 -1.1639 -0.8622 -0.2919
 3261TIP3    H2 9748   1.318   5.448   1.209 -0.2467  0.6266  0.3392
 3262TIP3   OH2 9749   6.987   3.373   1.612 -0.3912 -0.1212 -0.1411
 3262TIP3    H1 9750   6.919   3.326   1.564 -1.1611  0.7664  0.0630
 3262TIP3    H2 9751   7.009   3.316   1.685 -1.3344 -0.1633  0.1209
 3263TIP3   OH2 9752   3.973   4.271   5.798 -0.0236  0.7111 -0.1397
 3263TIP3    H1 9753   4.001   4.228   5.878  0.2495 -0.4750 -0.8414
 3263TIP3    H2 9754   3.938   4.200   5.744  2.8222  0.8401 -2.3883
 3264TIP3   OH2 9755   5.299   1.159   4.940  0.1100  0.4351  0.4046
 3264TIP3    H1 9756   5.228   1.175   4.877 -0.2612 -1.8861  0.1454
 3264TIP3    H2 9757   5.368   1.117   4.887  0.8208  0.7305  1.0805
 3265TIP3   OH2 9758   2.086   0.435   2.760 -0.1509  0.1615  0.4324
 3265TIP3    H1 9759   2.044   0.353   2.785  1.1412 -0.4658  0.6552
 3265TIP3    H2 9760   2.180   0.415   2.762  0.3667  2.3374  3.0769
 3266TIP3   OH2 9761   1.107   1.853   3.908 -0.4353 -0.3314 -0.3356
 3266TIP3    H1 9762   1.100   1.819   3.997 -2.9913  2.1939  0.5856
 3266TIP3    H2 9763   1.028   1.822   3.864 -1.1660  1.5696 -0.4582
 3267TIP3   OH2 9764   4.118   5.367   0.639  0.4441 -0.2195 -0.5152
 3267TIP3    H1 9765   4.132   5.301   0.571 -0.0939  0.8286 -1.6732
 3267TIP3    H2 9766   4.036   5.410   0.614 -0.1974 -0.3332  1.2460
 3268TIP3   OH2 9767   1.984   6.689   3.600  1.2626 -0.9340 -0.0548
 3268TIP3    H1 9768   2.040   6.725   3.669  0.7447  1.1503 -0.6350
 3268TIP3    H2 9769   1.898   6.728   3.616  0.3261 -2.8703 -0.0881
 3269TIP3   OH2 9770   1.991   6.141   4.995  0.3748 -0.2645 -1.1224
 3269TIP3    H1 9771   1.971   6.138   5.089  0.2160 -0.8097 -1.1727
 3269TIP3    H2 9772   2.005   6.050   4.971 -0.2584 -0.1961 -1.7773
 3270TIP3   OH2 9773   1.649   3.343   1.557 -0.0248 -0.5982  0.1581
 3270TIP3    H1 9774   1.610   3.339   1.644 -3.0552 -1.7369 -1.1115
 3270TIP3    H2 9775   1.663   3.252   1.532  0.7016 -0.2968 -0.6189
 3271TIP3   OH2 9776   6.932   6.052   0.544 -0.1317 -0.4260  0.2100
 3271TIP3    H1 9777   6.914   5.961   0.567  0.5072 -0.1557  1.9954
 3271TIP3    H2 9778   6.852   6.099   0.568  0.0244 -0.3432  0.5820
 3272TIP3   OH2 9779   6.791   3.815   3.235  0.0200  0.1184 -0.1310
 3272TIP3    H1 9780   6.811   3.732   3.277 -2.1435  0.2281  1.2636
 3272TIP3    H2 9781   6.862   3.828   3.172  0.6391 -2.5486 -0.0883
 3273TIP3   OH2 9782   4.204   2.261   2.161  0.2989 -0.6569  0.3021
 3273TIP3    H1 9783   4.264   2.277   2.088  1.7062 -1.3594  1.2547
 3273TIP3    H2 9784   4.164   2.177   2.141 -0.1827 -0.3097 -0.2105
 3274TIP3   OH2 9785   3.591   3.964   1.008 -0.2716 -0.1432 -0.7096
 3274TIP3    H1 9786   3.639   3.947   0.927 -0.4362 -1.0151 -0.6302
 3274TIP3    H2 9787   3.522   3.898   1.010  0.3555 -0.8041  0.6490
 3275TIP3   OH2 9788   5.445   6.364   4.270 -0.2456 -0.0038  0.1025
 3275TIP3    H1 9789   5.511   6.354   4.201 -1.2588  1.3236 -1.1016
 3275TIP3    H2 9790   5.495   6.388   4.348  0.7013  1.2211 -0.8482
 3276TIP3   OH2 9791   4.725   0.415   3.696  0.4511 -1.0800  0.5600
 3276TIP3    H1 9792   4.797   0.355   3.714  1.2866 -0.4493 -0.5452
 3276TIP3    H2 9793   4.689   0.385   3.612  1.3130  0.3123 -0.3588
 3277TIP3   OH2 9794   1.513   1.842   1.806 -0.1713  0.1889 -0.5154
 3277TIP3    H1 9795   1.444   1.837   1.872 -1.8746 -0.4707 -2.2544
 3277TIP3    H2 9796   1.548   1.754   1.801  1.1913  0.6168  0.6805
 3278TIP3   OH2 9797   4.623   3.864   4.897  0.1100  0.0287  0.4539
 3278TIP3    H1 9798   4.589   3.946   4.860  0.4532  0.6739  1.5059
 3278TIP3    H2 9799   4.546   3.820   4.933 -0.0311  0.0406  0.1704
 3279TIP3   OH2 9800   6.280   6.665   3.534 -0.0088  0.0360  0.2306
 3279TIP3    H1 9801   6.287   6.758   3.559 -0.6661  0.1742 -0.0848
 3279TIP3    H2 9802   6.244   6.667   3.445  1.3326 -0.4824 -0.3603
 3280TIP3   OH2 9803   1.472   1.339   2.429 -0.2392  0.1606 -0.3014
 3280TIP3    H1 9804   1.507   1.293   2.353  1.0214  0.4053  0.1086
 3280TIP3    H2 9805   1.482   1.277   2.501 -0.5559  0.2798 -0.1511
 3281TIP3   OH2 9806   1.312   1.506   1.764 -0.0510  0.0190 -0.5304
 3281TIP3    H1 9807   1.403   1.518   1.791 -0.4718 -0.8062  1.4487
 3281TIP3    H2 9808   1.317   1.488   1.670  1.9440 -1.2156 -0.2459
 3282TIP3   OH2 9809   4.337   6.761   2.024  0.2606 -0.2003 -0.0984
 3282TIP3    H1 9810   4.391   6.743   2.100 -0.6867  1.1559  0.9438
 3282TIP3    H2 9811   4.289   6.841   2.046  1.5128  1.5071 -2.9421
 3283TIP3   OH2 9812   2.086   2.554   5.538 -0.0742 -0.2666 -0.2558
 3283TIP3    H1 9813   2.106   2.461   5.553  0.7492 -0.1337 -0.4928
 3283TIP3    H2 9814   2.015   2.552   5.474 -2.1962 -0.7882  1.9484
 3284TIP3   OH2 9815   3.820   0.592   5.386  0.0245 -0.0014  0.0224
 3284TIP3    H1 9816   3.779   0.671   5.350  0.5879  0.3188  0.0659
 3284TIP3    H2 9817   3.747   0.532   5.401 -0.4535  0.6252  0.2814
 3285TIP3   OH2 9818   5.924   3.166   5.411 -0.2890  0.5385  0.3440
 3285TIP3    H1 9819   5.919   3.145   5.318 -0.1845 -0.0590  0.4700
 3285TIP3    H2 9820   5.978   3.245   5.415  1.7089 -0.7463  0.0663
 3286TIP3   OH2 9821   2.263   6.491   4.639  0.2766 -0.2509 -0.6279
 3286TIP3    H1 9822   2.208   6.441   4.579 -1.5268 -0.5889  1.2112
 3286TIP3    H2 9823   2.266   6.579   4.602  1.2830 -1.0119 -2.4829
 3287TIP3   OH2 9824   3.669   0.375   2.943  0.1899 -0.5961  0.2984
 3287TIP3    H1 9825   3.690   0.374   3.036  0.4266 -1.4359  0.2477
 3287TIP3    H2 9826   3.733   0.315   2.903  0.7078  0.4783 -0.5435
 3288TIP3   OH2 9827   1.131   3.406   4.422  0.0229 -0.2256 -0.1973
 3288TIP3    H1 9828   1.215   3.434   4.460 -0.4865  1.0209  0.0568
 3288TIP3    H2 9829   1.107   3.329   4.473 -0.7170  1.4809  2.2175
 3289TIP3   OH2 9830   2.636   5.240   1.646  0.1497  0.3602  0.8507
 3289TIP3    H1 9831   2.707   5.286   1.601  0.2595  0.9578  1.6249
 3289TIP3    H2 9832   2.593   5.308   1.698  1.0651 -0.5985  2.9934
 3290TIP3   OH2 9833   1.955   3.188   4.801  0.3018 -0.4108 -0.4169
 3290TIP3    H1 9834   1.913   3.134   4.735 -0.4241  0.8434 -1.0190
 3290TIP3    H2 9835   1.890   3.255   4.822  1.0234  0.0053  0.5926
 3291TIP3   OH2 9836   2.856   6.637   2.238  0.4996 -0.1337 -0.4313
 3291TIP3    H1 9837   2.907   6.564   2.202 -1.0109 -0.7399 -1.4657
 3291TIP3    H2 9838   2.809   6.599   2.312  0.1853 -0.0548 -0.5887
 3292TIP3   OH2 9839   1.337   0.600   4.575 -0.5983  0.2235  0.4368
 3292TIP3    H1 9840   1.392   0.532   4.534  0.5092  1.1793  0.2955
 3292TIP3    H2 9841   1.330   0.572   4.666  0.4030  0.2410  0.5364
 3293TIP3   OH2 9842   2.385   4.870   0.235  0.3314 -0.5445  0.2486
 3293TIP3    H1 9843   2.366   4.822   0.154  1.3216  1.3290 -1.1587
 3293TIP3    H2 9844   2.452   4.818   0.279  0.0432 -1.4002 -0.3061
 3294TIP3   OH2 9845   4.498   6.203   1.566  0.5159 -0.0460 -0.1560
 3294TIP3    H1 9846   4.593   6.186   1.563  0.7390  1.2513 -1.0394
 3294TIP3    H2 9847   4.491   6.294   1.591 -0.5060 -0.1198 -0.1655
 3295TIP3   OH2 9848   1.248   3.004   0.151  0.4074  0.0615 -0.0612
 3295TIP3    H1 9849   1.332   3.026   0.190  0.2286 -0.8382  0.8714
 3295TIP3    H2 9850   1.226   2.919   0.189 -0.9010  0.2679 -0.3297
 3296TIP3   OH2 9851   4.645   5.178   2.512  0.0575 -0.1773 -0.1354
 3296TIP3    H1 9852   4.619   5.270   2.524 -0.3642 -0.3129 -0.0025
 3296TIP3    H2 9853   4.736   5.183   2.480  0.2549  0.2665  0.4818
 3297TIP3   OH2 9854   4.836   4.384   4.001 -0.0049 -0.1069 -0.3369
 3297TIP3    H1 9855   4.762   4.370   3.941  1.0984  0.6418 -1.9583
 3297TIP3    H2 9856   4.868   4.295   4.019  0.2965 -0.3245 -1.7701
 3298TIP3   OH2 9857   3.113   0.118   1.314 -0.3735  0.0216 -0.4816
 3298TIP3    H1 9858   3.099   0.196   1.261  0.9671  0.8306  0.2921
 3298TIP3    H2 9859   3.177   0.067   1.264  2.0769  1.5002  0.9325
 3299TIP3   OH2 9860   2.515   2.276   2.104 -0.7544 -0.3471 -0.2623
 3299TIP3    H1 9861   2.428   2.282   2.067 -0.7211 -0.2013 -0.3158
 3299TIP3    H2 9862   2.504   2.301   2.196 -0.4041  1.8151 -0.7651
 3300TIP3   OH2 9863   6.197   1.068   3.146 -0.1562 -0.0555 -0.2616
 3300TIP3    H1 9864   6.221   1.155   3.178 -1.9281  0.5309 -0.4422
 3300TIP3    H2 9865   6.241   1.061   3.061  2.7689 -0.7492  1.1750
 3301TIP3   OH2 9866   5.033   5.410   1.014 -0.4735  0.2271 -0.7693
 3301TIP3    H1 9867   5.106   5.459   0.977  0.6245  1.3705  2.5560
 3301TIP3    H2 9868   4.956   5.447   0.972  0.5510  2.7902 -0.5863
 3302TIP3   OH2 9869   2.623   3.103   2.436 -0.0717  0.0296  0.1415
 3302TIP3    H1 9870   2.592   3.015   2.412 -0.9602 -0.0093  1.3631
 3302TIP3    H2 9871   2.683   3.127   2.365 -3.7976  0.6585 -3.1927
 3303TIP3   OH2 9872   4.580   0.336   1.194  0.5001  0.0601 -0.2473
 3303TIP3    H1 9873   4.571   0.292   1.278  1.9544 -0.1724 -0.1850
 3303TIP3    H2 9874   4.645   0.283   1.146  0.0532  0.4597 -1.3298
 3304TIP3   OH2 9875   6.626   4.027   1.114  0.9871 -0.4057 -0.6943
 3304TIP3    H1 9876   6.658   3.946   1.155  1.3918 -0.3116 -0.8213
 3304TIP3    H2 9877   6.532   4.011   1.100  1.0765 -0.8831 -0.7823
 3305TIP3   OH2 9878   6.598   5.166   4.361  0.8058  0.3664 -0.0804
 3305TIP3    H1 9879   6.522   5.138   4.411 -0.1264  1.1020 -1.0290
 3305TIP3    H2 9880   6.632   5.086   4.323  0.9868 -0.0732  0.9845
 3306TIP3   OH2 9881   5.897   2.389   5.095  0.0559  0.0602 -0.0171
 3306TIP3    H1 9882   5.928   2.379   5.185 -1.8709 -1.1817  0.5993
 3306TIP3    H2 9883   5.914   2.304   5.055 -1.3709 -0.2643 -0.0013
 3307TIP3   OH2 9884   6.567   1.299   0.852 -0.3114 -0.0208  0.0902
 3307TIP3    H1 9885   6.500   1.354   0.892 -0.2872 -0.1441  0.3008
 3307TIP3    H2 9886   6.535   1.282   0.764 -0.1190  0.6864 -0.1257
 3308TIP3   OH2 9887   1.233   5.905   2.150 -0.2285 -0.9779 -0.2063
 3308TIP3    H1 9888   1.230   5.973   2.082  0.0075 -1.2275 -0.4663
 3308TIP3    H2 9889   1.322   5.871   2.146  0.9383  1.3287  2.5142
 3309TIP3   OH2 9890   5.678   6.605   0.953 -0.5585 -0.5007  0.0588
 3309TIP3    H1 9891   5.618   6.585   1.025  0.1212 -0.6373  0.5920
 3309TIP3    H2 9892   5.620   6.632   0.881 -1.2180  0.2622  0.8485
 3310TIP3   OH2 9893   0.806   5.347   1.684  0.0565  0.0981 -0.3060
 3310TIP3    H1 9894   0.741   5.394   1.736 -0.4900  0.8604 -1.6415
 3310TIP3    H2 9895   0.880   5.408   1.678  1.0394 -0.8386  1.3714
 3311TIP3   OH2 9896   5.880   1.360   4.415 -0.6900 -0.0558 -0.1903
 3311TIP3    H1 9897   5.785   1.370   4.411 -0.5051  2.4835 -0.2314
 3311TIP3    H2 9898   5.901   1.297   4.346 -2.5527 -3.7170  2.2516
 3312TIP3   OH2 9899   4.716   2.145   3.418 -0.1202 -0.4929 -0.1624
 3312TIP3    H1 9900   4.706   2.060   3.374 -1.6102 -0.9834  1.0321
 3312TIP3    H2 9901   4.694   2.127   3.510  0.5443  0.9884  0.3143
 3313TIP3   OH2 9902   4.430   5.211   4.894 -0.1101 -0.0194 -0.1118
 3313TIP3    H1 9903   4.418   5.160   4.975 -2.1129  0.5477 -0.0019
 3313TIP3    H2 9904   4.472   5.292   4.923  1.0828 -0.6654  0.0310
 3314TIP3   OH2 9905   1.466   6.775   2.206 -0.1114 -0.1917 -0.5404
 3314TIP3    H1 9906   1.506   6.700   2.161  0.4444 -0.5761  0.5700
 3314TIP3    H2 9907   1.482   6.759   2.299 -2.6145 -0.2102 -0.0458
 3315TIP3   OH2 9908   4.964   0.369   1.088  0.2996 -0.0209 -0.1331
 3315TIP3    H1 9909   4.915   0.451   1.081  0.2608 -0.1125 -1.1041
 3315TIP3    H2 9910   4.995   0.367   1.178 -0.0708  0.8510  0.0241
 3316TIP3   OH2 9911   6.211   3.338   3.147  0.0157 -0.4870 -0.7174
 3316TIP3    H1 9912   6.126   3.349   3.188  0.3491  0.0527 -0.1655
 3316TIP3    H2 9913   6.213   3.245   3.121  0.1726 -1.1228  1.3572
 3317TIP3   OH2 9914   6.181   5.561   3.228  0.3623  0.4141 -0.1530
 3317TIP3    H1 9915   6.146   5.586   3.143 -1.0453  1.0602  0.5894
 3317TIP3    H2 9916   6.188   5.643   3.276  1.4768  0.0997  0.2608
 3318TIP3   OH2 9917   0.924   1.516   1.880 -0.1472 -0.1371  0.0764
 3318TIP3    H1 9918   0.830   1.525   1.865 -0.0909 -0.0064 -0.2140
 3318TIP3    H2 9919   0.936   1.425   1.904 -0.2873 -0.2653 -0.3368
 3319TIP3   OH2 9920   2.363   1.310   2.685  0.6788 -0.0009  0.1611
 3319TIP3    H1 9921   2.289   1.366   2.706 -0.5206 -1.7230  0.7189
 3319TIP3    H2 9922   2.414   1.306   2.766  0.0457 -0.7703  0.5244
 3320TIP3   OH2 9923   5.694   0.128   4.130 -0.0890  0.3467 -0.9700
 3320TIP3    H1 9924   5.661   0.110   4.218  0.0044  1.9096 -0.6001
 3320TIP3    H2 9925   5.620   0.108   4.072 -0.9871  1.6532 -0.3239
 3321TIP3   OH2 9926   2.657   0.158   2.241 -0.8032  0.2531 -0.0318
 3321TIP3    H1 9927   2.571   0.132   2.210 -1.3157  1.5831  0.2361
 3321TIP3    H2 9928   2.700   0.196   2.164  0.3712 -2.2444 -0.7230
 3322TIP3   OH2 9929   5.305   2.250   0.725  0.1951  0.5380  0.4026
 3322TIP3    H1 9930   5.270   2.339   0.731  0.4555  0.5886  1.2488
 3322TIP3    H2 9931   5.326   2.239   0.632  0.4516  1.4683  0.3430
 3323TIP3   OH2 9932   5.224   6.030   5.219 -0.4747  0.3088 -0.7403
 3323TIP3    H1 9933   5.286   6.078   5.272 -1.1660  0.0870  0.3001
 3323TIP3    H2 9934   5.229   6.070   5.132 -0.5622  1.8107 -0.0728
 3324TIP3   OH2 9935   5.410   1.948   0.525 -0.0175 -0.4269  0.1095
 3324TIP3    H1 9936   5.388   1.940   0.618  0.5823 -1.0083  0.2058
 3324TIP3    H2 9937   5.465   1.872   0.507  0.1848 -0.1089 -0.6279
 3325TIP3   OH2 9938   1.839   4.619   3.478 -0.0919 -0.0436 -0.3781
 3325TIP3    H1 9939   1.894   4.560   3.425  0.8409 -0.4016  0.9401
 3325TIP3    H2 9940   1.765   4.565   3.504 -0.2482 -0.0421 -0.8104
 3326TIP3   OH2 9941   7.004   1.407   5.139 -0.4495  0.3272  0.1527
 3326TIP3    H1 9942   6.992   1.463   5.063  1.1895  0.4148 -0.0918
 3326TIP3    H2 9943   6.956   1.327   5.119  1.0275 -0.1931 -1.6178
 3327TIP3   OH2 9944   4.809   6.544   4.034 -0.5067 -0.3028  0.3891
 3327TIP3    H1 9945   4.742   6.487   3.995 -0.3794  0.5451 -1.1675
 3327TIP3    H2 9946   4.892   6.502   4.012 -0.4563 -0.1365  0.2573
 3328TIP3   OH2 9947   4.078   5.140   3.907 -0.5094  0.0045  0.4783
 3328TIP3    H1 9948   4.147   5.151   3.842 -0.8082  1.1048  0.3149
 3328TIP3    H2 9949   3.997   5.156   3.860 -0.8113 -0.3158  0.8769
 3329TIP3   OH2 9950   5.217   2.475   1.203 -0.3174  0.3580 -0.0422
 3329TIP3    H1 9951   5.209   2.555   1.255  0.8618  0.1284  0.5463
 3329TIP3    H2 9952   5.237   2.407   1.268  0.7252 -0.0239 -0.7440
 3330TIP3   OH2 9953   3.866   2.077   1.844  0.3354 -0.1881 -0.1155
 3330TIP3    H1 9954   3.803   2.007   1.859 -0.9143  0.6534 -1.3187
 3330TIP3    H2 9955   3.951   2.033   1.846 -0.4331 -1.8043 -1.1399
 3331TIP3   OH2 9956   2.514   2.077   3.931  0.4195  0.1235 -0.6642
 3331TIP3    H1 9957   2.441   2.016   3.922  1.5116 -1.1200 -1.3827
 3331TIP3    H2 9958   2.575   2.051   3.863  2.7323 -0.5597  1.5318
 3332TIP3   OH2 9959   4.741   2.469   2.186  0.6468 -0.0254  1.1682
 3332TIP3    H1 9960   4.649   2.462   2.161  1.0023 -0.8620  0.0167
 3332TIP3    H2 9961   4.748   2.554   2.229 -0.2373  1.0059 -0.6339
 3333TIP3   OH2 9962   0.025   1.360   5.346  0.6706  1.0152  0.6830
 3333TIP3    H1 9963   0.033   1.270   5.377 -1.9774  0.5930  0.4308
 3333TIP3    H2 9964  -0.030   1.354   5.268 -2.1366  3.0287  2.3116
 3334TIP3   OH2 9965   6.339   2.210   3.199 -0.3859 -0.0297  0.3162
 3334TIP3    H1 9966   6.412   2.154   3.227  0.3277  0.0776 -1.2598
 3334TIP3    H2 9967   6.262   2.154   3.207  0.2211 -1.0105 -0.5152
 3335TIP3   OH2 9968   7.084   5.919   3.275 -0.0541  0.1151  0.4999
 3335TIP3    H1 9969   7.104   5.948   3.186  0.7994 -0.8976  0.3383
 3335TIP3    H2 9970   7.022   5.847   3.263 -1.1740  0.9939  0.8284
 3336TIP3   OH2 9971   5.286   3.992   2.311  0.1361 -0.3109 -0.2244
 3336TIP3    H1 9972   5.371   3.949   2.300 -0.5194 -1.3227 -1.5900
 3336TIP3    H2 9973   5.231   3.925   2.353  0.1657  0.5541  1.2522
 3337TIP3   OH2 9974   7.079   1.685   4.231 -0.6534  0.4551 -0.4807
 3337TIP3    H1 9975   7.139   1.712   4.162  0.3210  0.1646  0.2371
 3337TIP3    H2 9976   7.096   1.746   4.303 -2.0892  1.1485 -0.6780
 3338TIP3   OH2 9977   0.454   0.720   4.145 -0.6516  0.0078 -0.0505
 3338TIP3    H1 9978   0.505   0.639   4.152  0.9302  0.9562 -0.2878
 3338TIP3    H2 9979   0.420   0.719   4.056 -0.7096 -0.4189 -0.0283
 3339TIP3   OH2 9980   2.924   2.040   3.356 -0.1308 -0.1486 -0.1503
 3339TIP3    H1 9981   2.902   1.952   3.325  0.5014 -0.4904  0.3692
 3339TIP3    H2 9982   2.899   2.097   3.283 -0.2477 -0.7835 -0.6175
 3340TIP3   OH2 9983   1.663   6.157   0.013  0.0566  0.4165 -0.4077
 3340TIP3    H1 9984   1.613   6.189   0.088  0.5593 -1.2048  0.6794
 3340TIP3    H2 9985   1.622   6.074  -0.010  0.0539  0.7864 -1.8118
 3341TIP3   OH2 9986   0.703   3.542   2.714 -0.2937 -0.2011  0.2205
 3341TIP3    H1 9987   0.787   3.544   2.669  0.2604  2.8413  1.1904
 3341TIP3    H2 9988   0.690   3.449   2.735  1.7930 -1.0390 -1.6989
 3342TIP3   OH2 9989   2.908   0.343   4.132 -0.4197 -0.3188 -0.3224
 3342TIP3    H1 9990   2.920   0.269   4.073 -0.8157  0.0960 -0.9441
 3342TIP3    H2 9991   2.848   0.402   4.085 -0.9505 -0.0913  0.5975
 3343TIP3   OH2 9992   0.676   5.025   0.944 -0.1712 -0.3697  0.1494
 3343TIP3    H1 9993   0.745   5.090   0.927 -0.8357  0.5087  0.7187
 3343TIP3    H2 9994   0.635   5.054   1.025 -1.5980 -0.5218 -0.4768
 3344TIP3   OH2 9995   1.557   3.931   1.031  0.6993 -0.7561  0.1040
 3344TIP3    H1 9996   1.462   3.939   1.028  0.7459  0.3407  1.0101
 3344TIP3    H2 9997   1.582   3.903   0.943 -0.4287 -0.7575 -0.2277
 3345TIP3   OH2 9998   1.094   0.050   3.247  0.1983  0.0848  0.2705
 3345TIP3    H1 9999   1.120  -0.027   3.197  1.2154  1.7826 -2.0270
 3345TIP3    H210000   1.176   0.083   3.284  0.0026  0.8093  0.0787
 3346TIP3   OH210001   0.221   2.834   1.653  0.5212  0.3122  0.2493
 3346TIP3    H110002   0.297   2.782   1.626 -0.0371  0.9612 -3.0766
 3346TIP3    H210003   0.244   2.924   1.631 -0.2615  0.8876  1.6362
 3347TIP3   OH210004   5.780   4.750   5.785  0.3802 -0.4860  0.0288
 3347TIP3    H110005   5.772   4.665   5.741 -2.1449 -0.5844  0.5321
 3347TIP3    H210006   5.766   4.730   5.878 -2.3023  0.6481 -0.0486
 3348TIP3   OH210007   1.720   6.397   4.325 -0.1074 -0.0587 -0.6422
 3348TIP3    H110008   1.632   6.362   4.343 -0.3944  1.2144  0.6886
 3348TIP3    H210009   1.724   6.403   4.230 -1.8751  0.7878 -0.7120
 3349TIP3   OH210010   2.786   4.514   0.747 -0.0614 -0.2180  0.0647
 3349TIP3    H110011   2.711   4.491   0.801  0.7198 -1.0817  0.8349
 3349TIP3    H210012   2.758   4.590   0.697 -1.5208 -0.6833  0.1395
 3350TIP3   OH210013   4.818   1.543   1.482 -0.4783  0.1993 -0.4370
 3350TIP3    H110014   4.807   1.567   1.574 -1.9859 -0.4585 -0.4165
 3350TIP3    H210015   4.778   1.614   1.433  1.7838  1.3806 -0.7058
 3351TIP3   OH210016   0.452   4.996   4.411  0.0851 -0.1249  0.2103
 3351TIP3    H110017   0.424   4.914   4.370  0.2467  0.4768 -1.1518
 3351TIP3    H210018   0.535   4.974   4.453 -0.4871 -0.9551  0.9478
 3352TIP3   OH210019   1.588   2.058   3.208 -0.2402 -0.8198 -0.0242
 3352TIP3    H110020   1.530   2.057   3.132 -0.6428 -2.4253  0.2650
 3352TIP3    H210021   1.675   2.038   3.173  0.2108  1.5970 -0.4588
 3353TIP3   OH210022   2.457   3.717   5.228 -0.2507  0.4399  0.2558
 3353TIP3    H110023   2.499   3.688   5.308  0.9736  1.9247  0.2002
 3353TIP3    H210024   2.394   3.649   5.208 -1.8742  0.8384  3.4185
 3354TIP3   OH210025   0.041   3.485   0.187 -0.0796  0.2779 -0.1929
 3354TIP3    H110026   0.082   3.535   0.116  1.0134 -0.5565 -0.1696
 3354TIP3    H210027   0.081   3.398   0.181  0.3286  0.2976  1.6918
 3355TIP3   OH210028   3.047   3.481   2.475  0.2173 -0.1300  0.0124
 3355TIP3    H110029   3.116   3.415   2.473 -1.3345 -1.8155 -0.8229
 3355TIP3    H210030   3.093   3.564   2.472  2.2338 -1.1573  0.6874
 3356TIP3   OH210031   6.775   3.916   5.160 -0.1008 -0.1049 -0.5749
 3356TIP3    H110032   6.717   3.868   5.100  0.7707 -0.8186 -0.8743
 3356TIP3    H210033   6.727   3.918   5.242 -1.5726  1.3812 -1.4091
 3357TIP3   OH210034   3.261   4.111   4.172 -0.1046  0.1206  0.0161
 3357TIP3    H110035   3.184   4.075   4.128  0.8322 -2.9499  0.6059
 3357TIP3    H210036   3.325   4.123   4.103 -0.2502  0.1277 -0.1184
 3358TIP3   OH210037   4.092   0.089   3.858  0.0409  0.1306 -0.6334
 3358TIP3    H110038   4.184   0.062   3.861  0.1727  0.6272  0.4149
 3358TIP3    H210039   4.084   0.153   3.929 -0.6918  1.4386 -1.8322
 3359TIP3   OH210040   3.600   4.796   1.004 -0.6386  0.8062 -0.0496
 3359TIP3    H110041   3.660   4.855   1.050 -0.4976  1.1307 -0.6424
 3359TIP3    H210042   3.607   4.713   1.052  0.2562  0.8526 -0.0877
 3360TIP3   OH210043   4.164   4.964   4.346 -0.0302 -0.0909 -0.2443
 3360TIP3    H110044   4.253   4.985   4.317  0.2680 -0.2405  0.5263
 3360TIP3    H210045   4.107   4.991   4.274  0.3281  3.1771  0.5639
 3361TIP3   OH210046   1.249   0.646   3.463  0.0808  0.2654 -0.0874
 3361TIP3    H110047   1.303   0.598   3.525  0.6673  1.1038  0.0726
 3361TIP3    H210048   1.225   0.582   3.396 -1.2118 -0.8652  1.3703
 3362TIP3   OH210049   5.990   1.003   2.933  0.7112  0.4018  0.3748
 3362TIP3    H110050   6.085   1.014   2.943  0.7107 -0.1917  1.0922
 3362TIP3    H210051   5.958   1.090   2.909  1.2754  0.8970  1.3705
 3363TIP3   OH210052   2.344   4.022   1.055  0.2229 -0.4809 -0.5823
 3363TIP3    H110053   2.276   3.996   0.993 -0.2816  0.2815 -0.3709
 3363TIP3    H210054   2.373   3.939   1.095  0.5607 -0.9717 -1.8188
 3364TIP3   OH210055   3.272   0.006   3.501  0.1126 -0.4561  0.3268
 3364TIP3    H110056   3.290   0.090   3.542 -3.3983  0.1843  0.8510
 3364TIP3    H210057   3.288  -0.059   3.570  2.2248 -0.2533  0.0998
 3365TIP3   OH210058   4.651   1.625   2.503 -0.5465 -0.4881  0.0769
 3365TIP3    H110059   4.657   1.688   2.431 -0.6175  0.1292  0.5961
 3365TIP3    H210060   4.558   1.606   2.510 -0.5408 -0.5391  0.0120
 3366TIP3   OH210061   2.621   6.175   1.853 -0.2739 -0.2343 -0.1407
 3366TIP3    H110062   2.637   6.092   1.807 -0.6503 -1.0417  1.1191
 3366TIP3    H210063   2.698   6.188   1.908 -1.0912 -0.8571  1.2136
 3367TIP3   OH210064   0.206   6.738   4.271 -0.1713 -0.8515  0.5150
 3367TIP3    H110065   0.207   6.818   4.219  0.4412 -1.0915  0.1540
 3367TIP3    H210066   0.258   6.759   4.349 -1.7787 -0.2206  1.4666
 3368TIP3   OH210067   1.774   5.706   0.918  0.1655 -0.5733  0.1868
 3368TIP3    H110068   1.759   5.727   1.010 -0.6806  3.9335 -0.7066
 3368TIP3    H210069   1.691   5.670   0.888  0.0494 -0.9471  0.9289
 3369TIP3   OH210070   3.808   4.176   1.590 -0.8860 -0.0160  0.2715
 3369TIP3    H110071   3.821   4.245   1.525 -0.3979 -0.2345  0.1314
 3369TIP3    H210072   3.822   4.095   1.541  2.3813 -0.1485  1.2237
 3370TIP3   OH210073   4.003   3.877   5.828 -0.0873 -0.2574 -0.2241
 3370TIP3    H110074   4.047   3.923   5.757 -1.5452 -0.2847 -1.1800
 3370TIP3    H210075   3.940   3.820   5.785  1.7247 -3.3326  0.8959
 3371TIP3   OH210076   3.138   6.702   1.970 -0.2920 -0.4070 -0.8407
 3371TIP3    H110077   3.060   6.648   1.979  0.9433 -2.3112 -1.0489
 3371TIP3    H210078   3.138   6.756   2.049 -0.3740 -2.3735  0.5961
 3372TIP3   OH210079   0.570   0.071   5.061  0.2889  0.2121  0.8220
 3372TIP3    H110080   0.561   0.111   5.148 -1.0015 -1.1306  1.3527
 3372TIP3    H210081   0.523   0.130   5.003  2.2251  1.7957  0.7556
 3373TIP3   OH210082   1.216   4.929   4.716 -0.2497  0.0422 -0.0299
 3373TIP3    H110083   1.157   4.968   4.652 -0.3752  1.3746  0.8579
 3373TIP3    H210084   1.159   4.888   4.780 -0.1500 -0.2361 -0.1155
 3374TIP3   OH210085   2.922   3.966   1.996  0.1633  0.3995 -0.5857
 3374TIP3    H110086   3.003   3.922   2.022 -0.8151 -1.6698 -0.8176
 3374TIP3    H210087   2.944   4.011   1.914  0.8374 -1.0396 -1.2307
 3375TIP3   OH210088   4.789   1.455   4.999  0.3671 -0.0371  0.1291
 3375TIP3    H110089   4.847   1.509   4.946 -1.2501  1.2847 -0.3948
 3375TIP3    H210090   4.797   1.367   4.962  1.3618  0.2965 -0.4822
 3376TIP3   OH210091   5.497   3.872   5.358 -0.1172 -0.5733 -0.5609
 3376TIP3    H110092   5.405   3.889   5.337 -0.1026 -1.0440 -1.0545
 3376TIP3    H210093   5.545   3.946   5.320 -0.1846 -0.9439 -1.3984
 3377TIP3   OH210094   6.855   0.647   2.516  0.0308 -0.0749  0.3719
 3377TIP3    H110095   6.818   0.636   2.429  0.4656  0.3915  0.1219
 3377TIP3    H210096   6.932   0.702   2.502  0.0652  0.0568  1.0587
 3378TIP3   OH210097   3.555   0.297   4.022 -0.0993  0.4519 -0.3264
 3378TIP3    H110098   3.587   0.209   4.001 -0.6839  0.4023 -1.0503
 3378TIP3    H210099   3.467   0.283   4.056 -0.1833  0.7560 -0.4172
 3379TIP3   OH210100   3.068   5.213   1.467  0.0179 -0.1864  0.5532
 3379TIP3    H110101   3.080   5.121   1.489 -1.6022 -1.0165 -1.6377
 3379TIP3    H210102   3.119   5.226   1.388 -2.4689 -0.2524 -1.1914
 3380TIP3   OH210103   1.508   3.303   2.590 -0.0076 -0.0603  0.4983
 3380TIP3    H110104   1.549   3.220   2.613 -0.5558 -0.3887  0.2938
 3380TIP3    H210105   1.492   3.297   2.496 -0.2089  0.2083  0.5160
 3381TIP3   OH210106   5.884   5.617   0.840 -0.1397  0.4499 -0.2561
 3381TIP3    H110107   5.891   5.703   0.882  0.5051  0.1322  0.2982
 3381TIP3    H210108   5.966   5.606   0.793  0.2699 -0.3495  0.6190
 3382TIP3   OH210109   2.352   0.857   1.990  0.1627  0.4503  0.1711
 3382TIP3    H110110   2.269   0.901   1.969 -0.0724 -0.8110 -1.7791
 3382TIP3    H210111   2.412   0.884   1.920  0.9095  0.0240  0.6363
 3383TIP3   OH210112   2.385   5.525   4.212 -0.1420 -0.0227 -0.1580
 3383TIP3    H110113   2.292   5.522   4.234 -0.1359  1.4237  0.1946
 3383TIP3    H210114   2.388   5.568   4.126  0.1040 -1.7414 -1.0344
 3384TIP3   OH210115   3.999   6.087   3.360  0.5275  0.4606  0.0630
 3384TIP3    H110116   4.067   6.025   3.387  1.4043  0.2816 -2.2852
 3384TIP3    H210117   4.044   6.146   3.298 -1.3744  0.4269 -1.4451
 3385TIP3   OH210118   3.553   0.613   3.057 -0.5582 -0.0044 -0.1450
 3385TIP3    H110119   3.460   0.598   3.040 -0.9431  0.6068  1.2689
 3385TIP3    H210120   3.597   0.537   3.020 -1.5926 -0.1926 -1.0284
 3386TIP3   OH210121   0.694   6.701   0.024 -0.2273 -0.2963 -0.0993
 3386TIP3    H110122   0.653   6.780   0.058 -0.6412  0.3094 -1.8946
 3386TIP3    H210123   0.622   6.651  -0.014  0.4215 -0.0443 -1.7382
 3387TIP3   OH210124   5.253   1.576   4.733  0.5904  0.3179 -0.5679
 3387TIP3    H110125   5.236   1.482   4.729  0.0583  0.4473 -1.8982
 3387TIP3    H210126   5.184   1.611   4.789  1.5464 -0.2122  1.0234
 3388TIP3   OH210127   1.532   0.134   2.400 -0.1796  0.0776 -0.6286
 3388TIP3    H110128   1.537   0.042   2.425 -0.0752  0.2300 -0.0801
 3388TIP3    H210129   1.530   0.133   2.304  1.5580 -0.4104 -0.6848
 3389TIP3   OH210130   5.843   6.413   5.803  0.3582 -0.1338  0.2550
 3389TIP3    H110131   5.769   6.357   5.824 -0.3860 -0.4843 -2.8942
 3389TIP3    H210132   5.811   6.502   5.818 -0.3616 -0.3257 -0.1360
 3390TIP3   OH210133   1.235   1.077   2.442 -0.3060  0.1563  0.0930
 3390TIP3    H110134   1.290   1.083   2.520 -0.9022  0.4601  0.4961
 3390TIP3    H210135   1.286   1.025   2.380  0.5759  0.7309  0.3340
 3391TIP3   OH210136   1.039   6.611   3.265  0.2409  0.1926 -0.3037
 3391TIP3    H110137   0.990   6.682   3.307 -0.8236 -0.5935 -0.1692
 3391TIP3    H210138   0.983   6.534   3.276  0.4236 -0.2567 -2.2297
 3392TIP3   OH210139   5.361   2.592   0.632  0.1703  0.0414 -0.1995
 3392TIP3    H110140   5.331   2.582   0.542 -1.8746 -0.5657  0.5093
 3392TIP3    H210141   5.320   2.673   0.662  2.4836  1.3802 -0.3893
 3393TIP3   OH210142   1.779   5.328   3.188 -0.1140  0.1208  0.4812
 3393TIP3    H110143   1.846   5.385   3.227  0.9904 -1.1338  0.5068
 3393TIP3    H210144   1.696   5.365   3.216  0.5969  1.2050  1.2171
 3394TIP3   OH210145   6.444   1.403   3.599  0.2835  0.2955 -0.3292
 3394TIP3    H110146   6.368   1.380   3.652  0.4357 -0.3979 -0.4096
 3394TIP3    H210147   6.516   1.407   3.662  0.8033 -2.1571 -0.6666
 3395TIP3   OH210148   7.084   6.014   2.994 -0.5021  0.3852 -0.3460
 3395TIP3    H110149   7.153   5.951   2.973 -1.4430 -1.2962  1.3501
 3395TIP3    H210150   7.023   6.007   2.920 -1.0470 -1.4274  0.2197
 3396TIP3   OH210151   5.620   6.294   1.696  0.5625  0.2669  0.1987
 3396TIP3    H110152   5.558   6.360   1.664  1.6292  1.5374  0.7056
 3396TIP3    H210153   5.595   6.214   1.650 -1.5091  0.7137  0.4402
 3397TIP3   OH210154   3.759   5.472   1.318  0.0074 -0.5058 -0.3593
 3397TIP3    H110155   3.749   5.499   1.227  1.5053 -0.4094 -0.5148
 3397TIP3    H210156   3.805   5.388   1.313  1.7337  0.3711  0.3453
 3398TIP3   OH210157   2.127   1.500   4.523 -0.5150  0.1931  0.3981
 3398TIP3    H110158   2.143   1.422   4.576  0.2783 -0.0161 -0.1290
 3398TIP3    H210159   2.126   1.468   4.433 -0.7686  0.7060  0.2125
 3399TIP3   OH210160   6.746   4.405   0.797  0.4490 -0.0358  0.3669
 3399TIP3    H110161   6.766   4.316   0.766 -0.9077  0.0924 -1.0023
 3399TIP3    H210162   6.720   4.394   0.888 -0.3578 -1.1455  0.0170
 3400TIP3   OH210163   3.745   3.415   1.819 -0.2373 -0.5485 -0.2431
 3400TIP3    H110164   3.660   3.382   1.850  0.3733 -1.0451  0.9756
 3400TIP3    H210165   3.790   3.337   1.786  0.8657 -0.8573  1.8297
 3401TIP3   OH210166   4.386   0.956   2.976 -0.1916 -0.1973 -0.3521
 3401TIP3    H110167   4.475   0.971   2.943 -0.7493  0.2730 -1.7238
 3401TIP3    H210168   4.366   1.034   3.027  0.4645 -0.6695  0.6691
 3402TIP3   OH210169   1.784   0.445   1.170  0.1245  0.1485 -0.0295
 3402TIP3    H110170   1.807   0.366   1.121  0.4212 -0.1461  0.5623
 3402TIP3    H210171   1.689   0.441   1.181  0.1374 -0.1160 -0.0185
 3403TIP3   OH210172   3.409   6.475   5.474 -0.1982 -0.1804  0.3161
 3403TIP3    H110173   3.356   6.428   5.410  0.3378  1.2494 -1.2532
 3403TIP3    H210174   3.495   6.432   5.471  1.2595  2.4474 -3.3144
 3404TIP3   OH210175   2.670   3.981   2.078  0.0945 -0.0637  0.0897
 3404TIP3    H110176   2.748   3.983   2.023 -0.3215  1.9088 -0.5324
 3404TIP3    H210177   2.702   3.996   2.167  0.4813  0.0866 -0.0744
 3405TIP3   OH210178   5.604   1.570   1.902  0.3076 -0.3544 -0.1792
 3405TIP3    H110179   5.538   1.507   1.931  0.6906 -0.6794  0.0050
 3405TIP3    H210180   5.559   1.625   1.838 -0.1556 -0.5312 -0.0078
 3406TIP3   OH210181   0.049   1.616   1.287 -0.5064 -0.4222  0.0120
 3406TIP3    H110182  -0.031   1.596   1.237 -1.0134 -1.1632  1.0828
 3406TIP3    H210183   0.061   1.540   1.345  0.8663 -0.2288  0.0191
 3407TIP3   OH210184   3.368   0.779   0.649  0.5212  0.4389  0.1974
 3407TIP3    H110185   3.326   0.831   0.580  0.7749 -0.7849 -0.9158
 3407TIP3    H210186   3.344   0.823   0.731 -2.2167  0.2633 -0.4357
 3408TIP3   OH210187   2.671   5.722   4.264 -0.5236  0.4051  0.2439
 3408TIP3    H110188   2.657   5.806   4.219 -0.0174 -0.2979 -1.2740
 3408TIP3    H210189   2.602   5.665   4.231  0.4953 -0.4380 -0.4887
 3409TIP3   OH210190   0.873   4.847   3.063  0.6975  0.1386 -0.8004
 3409TIP3    H110191   0.909   4.865   2.976 -2.3017 -1.3101 -2.4977
 3409TIP3    H210192   0.848   4.755   3.060 -1.4750  0.6035  0.8010
 3410TIP3   OH210193   6.330   6.590   0.475  0.3225  0.7083 -0.0419
 3410TIP3    H110194   6.417   6.574   0.513 -0.3656  0.9983  1.7745
 3410TIP3    H210195   6.345   6.593   0.381  2.4005  1.3958  0.2524
 3411TIP3   OH210196   5.470   5.764   5.216  0.5862  0.7311 -0.9354
 3411TIP3    H110197   5.406   5.785   5.148 -0.3514  1.5218  0.1575
 3411TIP3    H210198   5.534   5.708   5.172 -1.0338 -0.3938 -2.0012
 3412TIP3   OH210199   4.901   1.999   5.325 -0.4140  0.2655  0.4316
 3412TIP3    H110200   4.909   1.916   5.278  0.6706  0.7289 -0.2653
 3412TIP3    H210201   4.924   1.978   5.415 -1.8668 -0.5082  0.6540
 3413TIP3   OH210202   3.493   4.803   4.822 -0.1889 -0.1723 -0.3960
 3413TIP3    H110203   3.506   4.767   4.909  1.6352  0.3416 -0.4110
 3413TIP3    H210204   3.486   4.898   4.836 -1.0155 -0.1797 -0.7090
 3414TIP3   OH210205   3.734   2.303   4.401 -0.3360 -0.3136 -0.6756
 3414TIP3    H110206   3.727   2.296   4.305 -0.6460  0.1736 -0.6896
 3414TIP3    H210207   3.752   2.395   4.417 -1.7285 -0.1013 -0.1838
 3415TIP3   OH210208   2.705   4.861   5.763  0.2176  0.1911 -0.3965
 3415TIP3    H110209   2.681   4.847   5.854 -1.0018  0.5585 -0.6492
 3415TIP3    H210210   2.736   4.775   5.733 -0.9372 -0.3507 -0.0953
 3416TIP3   OH210211   5.589   1.297   0.867  0.4712  0.0102  0.0693
 3416TIP3    H110212   5.551   1.354   0.801 -0.8735 -0.2870  0.5477
 3416TIP3    H210213   5.604   1.214   0.822  0.5368  0.1231 -0.1167
 3417TIP3   OH210214   0.238   3.296   2.916 -0.0142 -0.5687 -0.2534
 3417TIP3    H110215   0.279   3.328   2.836 -1.8371 -0.5851 -1.2454
 3417TIP3    H210216   0.247   3.367   2.978  1.4983 -0.5850 -0.4213
 3418TIP3   OH210217   0.364   4.755   2.699  0.1007 -0.2195  0.0935
 3418TIP3    H110218   0.312   4.722   2.774  0.8398  0.5795  0.9793
 3418TIP3    H210219   0.454   4.731   2.721  0.3533  0.2566 -0.4270
 3419TIP3   OH210220   4.832   5.408   3.540 -0.1237 -0.1170  0.1809
 3419TIP3    H110221   4.895   5.426   3.471  2.0247 -1.6004  1.6282
 3419TIP3    H210222   4.810   5.494   3.576  1.5537  0.4233  0.0004
 3420TIP3   OH210223   5.626   3.926   2.626 -0.0286 -0.2503 -0.4283
 3420TIP3    H110224   5.659   3.917   2.715 -1.1131 -0.5297 -0.0452
 3420TIP3    H210225   5.688   3.986   2.584  0.7828 -0.5136  0.3494
 3421TIP3   OH210226   5.333   6.344   3.813  0.6526  0.8129 -0.5393
 3421TIP3    H110227   5.304   6.307   3.730 -1.0616  0.7745  0.0282
 3421TIP3    H210228   5.314   6.438   3.805  0.1761  0.7622 -0.0903
 3422TIP3   OH210229   5.530   4.054   3.508 -0.1751 -0.1343 -0.3402
 3422TIP3    H110230   5.441   4.075   3.480  0.0659 -0.5795 -1.5084
 3422TIP3    H210231   5.519   4.014   3.594 -0.9717  1.0655  0.1332
 3423TIP3   OH210232   4.500   6.324   3.683 -0.2424  0.8230 -0.0696
 3423TIP3    H110233   4.595   6.318   3.669 -0.2824 -0.3847  0.0228
 3423TIP3    H210234   4.491   6.368   3.767  0.3089 -0.5268  0.7349
 3424TIP3   OH210235   0.997   1.401   3.242  0.4537  0.1790 -0.2844
 3424TIP3    H110236   0.947   1.320   3.228 -0.7652  1.0005 -0.9051
 3424TIP3    H210237   1.031   1.423   3.155 -0.0772  0.8663 -0.3236
 3425TIP3   OH210238   0.975   2.238   4.736 -0.1371 -0.3320 -0.3799
 3425TIP3    H110239   0.985   2.159   4.684  1.4116 -1.0319  0.8909
 3425TIP3    H210240   0.884   2.237   4.766  0.0125 -1.9143  0.0637
 3426TIP3   OH210241   3.979   6.099   2.370 -0.7320 -0.2900 -0.3799
 3426TIP3    H110242   3.894   6.106   2.414 -0.8005  1.2766 -0.7042
 3426TIP3    H210243   3.972   6.156   2.293 -0.2693 -2.1960 -1.9053
 3427TIP3   OH210244   1.992   2.963   2.728 -0.8498  0.5423 -0.2918
 3427TIP3    H110245   1.951   2.877   2.715 -1.3836  0.9389 -1.4758
 3427TIP3    H210246   2.071   2.960   2.674 -0.2374  0.3974  0.5967
 3428TIP3   OH210247   4.820   5.117   2.085 -0.9533 -0.4370 -0.5103
 3428TIP3    H110248   4.729   5.146   2.082 -0.6000  0.7416 -3.5635
 3428TIP3    H210249   4.871   5.199   2.088  0.0126 -0.9787 -1.5828
 3429TIP3   OH210250   3.748   3.107   5.419  0.1815 -0.0909 -0.1246
 3429TIP3    H110251   3.716   3.073   5.336  0.5862  0.1611 -0.3886
 3429TIP3    H210252   3.843   3.102   5.413  0.3758  2.5721 -0.8710
 3430TIP3   OH210253   2.132   2.272   2.541 -0.1327  0.0425  0.5332
 3430TIP3    H110254   2.161   2.279   2.632  0.9698  2.1781  0.0859
 3430TIP3    H210255   2.180   2.197   2.506  2.1546  1.2474  0.8494
 3431TIP3   OH210256   4.381   3.074   1.007  0.1811  0.4945 -0.0725
 3431TIP3    H110257   4.442   3.004   1.033 -0.6222  0.2698  1.3074
 3431TIP3    H210258   4.427   3.155   1.028  1.1622  0.4224 -1.7782
 3432TIP3   OH210259   1.632   0.179   1.313  0.3975  0.7604  0.2323
 3432TIP3    H110260   1.604   0.219   1.230 -0.3359 -0.8835 -0.3576
 3432TIP3    H210261   1.727   0.173   1.306  0.5042  2.1760  0.2532
 3433TIP3   OH210262   1.289   4.183   0.225 -0.1104 -0.5756  0.1654
 3433TIP3    H110263   1.288   4.097   0.267 -1.1996  0.7731  3.1568
 3433TIP3    H210264   1.381   4.211   0.231  0.1589 -1.2944 -0.4029
 3434TIP3   OH210265   6.636   5.702   1.025 -0.4259 -0.0389 -0.4627
 3434TIP3    H110266   6.682   5.771   0.978  0.4571 -1.4828 -1.8552
 3434TIP3    H210267   6.705   5.641   1.051 -0.9985  0.3058  2.0878
 3435TIP3   OH210268   3.154   5.263   0.087 -0.5175 -0.4713 -0.0063
 3435TIP3    H110269   3.161   5.177   0.128  1.8137  0.1546  1.0772
 3435TIP3    H210270   3.242   5.280   0.051 -1.3387  0.8343 -1.5524
 3436TIP3   OH210271   1.996   6.594   1.037  0.0381 -0.1102 -0.7356
 3436TIP3    H110272   1.963   6.681   1.018 -1.3572 -0.0386  1.5233
 3436TIP3    H210273   1.927   6.535   1.006  1.1258 -0.4842 -2.5644
 3437TIP3   OH210274   7.019   4.864   4.195  0.2612  0.2131 -0.6200
 3437TIP3    H110275   6.992   4.956   4.198  0.9838  0.5138 -2.2451
 3437TIP3    H210276   6.945   4.818   4.156  0.6881  0.4689 -1.7737
 3438TIP3   OH210277   1.127   1.872   1.113 -0.4326 -0.0737 -0.0473
 3438TIP3    H110278   1.086   1.918   1.186 -2.6334  0.2103 -1.3640
 3438TIP3    H210279   1.207   1.922   1.095 -0.5633  0.6471  1.2739
 3439TIP3   OH210280   3.491   0.823   1.125 -0.1661 -0.0449  0.1030
 3439TIP3    H110281   3.395   0.815   1.123 -0.2253  0.7266 -0.7046
 3439TIP3    H210282   3.512   0.877   1.048  0.8573  0.4030  0.6813
 3440TIP3   OH210283   1.993   3.741   5.320  0.4245  0.0552  0.1407
 3440TIP3    H110284   2.075   3.724   5.366  0.8157 -0.7032 -0.7958
 3440TIP3    H210285   2.019   3.757   5.230 -0.4233  0.2728 -0.0757
 3441TIP3   OH210286   4.702   3.228   0.941 -0.4750 -0.3846  0.0206
 3441TIP3    H110287   4.769   3.260   1.001 -0.6988  0.5642 -0.2058
 3441TIP3    H210288   4.628   3.287   0.956 -1.0412 -1.0363 -0.1688
 3442TIP3   OH210289   5.405   2.109   3.384  0.6871  0.2047  0.2565
 3442TIP3    H110290   5.339   2.080   3.320 -1.2243  0.4930  1.9995
 3442TIP3    H210291   5.356   2.122   3.465  2.6917  1.6929  1.3208
 3443TIP3   OH210292   2.533   0.651   2.924  0.1388 -0.1557 -0.3805
 3443TIP3    H110293   2.559   0.566   2.958  1.6046  0.0083 -1.0068
 3443TIP3    H210294   2.600   0.673   2.860 -0.6693  1.0989 -0.8476
 3444TIP3   OH210295   5.375   2.147   2.803 -0.3559 -0.2821 -0.6453
 3444TIP3    H110296   5.394   2.121   2.713 -1.4118 -1.7509 -0.4832
 3444TIP3    H210297   5.366   2.064   2.851 -1.2343  0.4395  0.4930
 3445TIP3   OH210298   4.998   5.847   5.652 -0.0269 -0.5524 -0.3408
 3445TIP3    H110299   4.964   5.851   5.741 -1.8381  0.2599 -1.0288
 3445TIP3    H210300   5.020   5.938   5.631 -0.2209 -0.6431 -0.9461
 3446TIP3   OH210301   4.995   4.649   3.357 -0.6927  0.3510  0.2958
 3446TIP3    H110302   4.955   4.617   3.277  0.1382 -0.5000  0.2033
 3446TIP3    H210303   4.963   4.739   3.366 -3.0311 -0.4584  0.5342
 3447TIP3   OH210304   3.193   6.728   5.540 -0.3043 -0.3610 -0.2694
 3447TIP3    H110305   3.198   6.697   5.449  0.3346 -0.7527 -0.1035
 3447TIP3    H210306   3.129   6.800   5.537 -1.3576 -1.2750 -0.7772
 3448TIP3   OH210307   6.652   5.369   4.144  0.4159 -0.1477  0.5607
 3448TIP3    H110308   6.614   5.332   4.224  0.0192 -0.3775  0.2709
 3448TIP3    H210309   6.738   5.402   4.171 -0.9861  2.8362  1.8751
 3449TIP3   OH210310   6.246   6.577   3.167  0.4294  0.3020  0.5203
 3449TIP3    H110311   6.150   6.574   3.160  0.4178 -0.4338  0.9549
 3449TIP3    H210312   6.274   6.617   3.085 -0.1619 -1.2417 -0.4967
 3450TIP3   OH210313   6.517   5.940   0.549  0.2295  0.4715  0.2566
 3450TIP3    H110314   6.590   5.882   0.528  0.0944 -0.5028  2.2723
 3450TIP3    H210315   6.490   5.914   0.637 -2.7893  0.5826 -0.5333
 3451TIP3   OH210316   3.499   2.788   1.514 -0.4836 -0.3473  0.1927
 3451TIP3    H110317   3.491   2.707   1.564 -0.6670 -1.6495 -1.8433
 3451TIP3    H210318   3.587   2.820   1.535  0.6315 -2.4645 -0.8366
 3452TIP3   OH210319   0.295   2.564   4.962 -0.4097 -0.0652  0.2793
 3452TIP3    H110320   0.310   2.578   5.055  1.1693 -2.9488  0.5677
 3452TIP3    H210321   0.209   2.521   4.958 -0.1908 -0.5128  0.4479
 3453TIP3   OH210322   5.300   5.433   0.866  0.4565 -0.0863  0.4539
 3453TIP3    H110323   5.313   5.454   0.773  0.0766  2.2218  0.8401
 3453TIP3    H210324   5.379   5.464   0.909  0.1137  0.0106  1.0252
 3454TIP3   OH210325   1.773   3.992   1.903 -0.2033  0.0399  0.0622
 3454TIP3    H110326   1.832   4.003   1.829 -0.7640  1.2314 -0.2265
 3454TIP3    H210327   1.713   4.067   1.898 -1.7953 -1.1661  0.2990
 3455TIP3   OH210328   2.371   4.855   0.974 -0.9522 -0.1169  0.1593
 3455TIP3    H110329   2.456   4.893   0.955 -0.2647 -1.4727  0.4061
 3455TIP3    H210330   2.312   4.930   0.980 -0.0383  0.7612 -1.2680
 3456TIP3   OH210331   3.360   6.406   0.368  1.0197  0.4411 -0.1584
 3456TIP3    H110332   3.425   6.464   0.329  1.8678 -0.6996 -0.5104
 3456TIP3    H210333   3.339   6.343   0.299 -0.4602  0.7673 -0.0414
 3457TIP3   OH210334   2.297   5.717   2.726  0.1057  0.5434  0.0002
 3457TIP3    H110335   2.228   5.695   2.788 -1.1737  1.3602 -1.0783
 3457TIP3    H210336   2.254   5.772   2.660  1.8752  1.4372 -0.4847
 3458TIP3   OH210337   3.710   3.393   5.004 -0.3573 -0.1990  0.3325
 3458TIP3    H110338   3.634   3.335   4.996 -0.5286 -0.0983  1.1793
 3458TIP3    H210339   3.779   3.337   5.039  0.0618 -0.3678 -0.7394
 3459TIP3   OH210340   4.633   4.886   5.000 -0.2408 -0.1016 -0.3109
 3459TIP3    H110341   4.554   4.919   5.044 -1.4314 -1.2653 -1.4992
 3459TIP3    H210342   4.610   4.798   4.972  1.2633 -0.2182 -1.2789
 3460TIP3   OH210343   2.487   0.621   0.216 -0.3551 -0.5273 -0.4616
 3460TIP3    H110344   2.479   0.711   0.247  1.6875 -0.7736  1.0375
 3460TIP3    H210345   2.444   0.621   0.131 -1.0018  1.6921 -0.2071
 3461TIP3   OH210346   6.555   4.790   0.733  0.1107  0.0399  0.7280
 3461TIP3    H110347   6.483   4.813   0.792 -0.9333 -1.3570  0.0653
 3461TIP3    H210348   6.533   4.703   0.702  0.4019  0.8487 -2.0307
 3462TIP3   OH210349   4.340   0.419   3.326 -0.6248 -0.3594 -0.0361
 3462TIP3    H110350   4.390   0.453   3.400 -1.7934 -0.8218  1.0063
 3462TIP3    H210351   4.384   0.338   3.302  0.1225  0.1070 -0.2579
 3463TIP3   OH210352   0.832   1.052   0.039 -0.2433 -0.0804 -0.6573
 3463TIP3    H110353   0.788   1.036  -0.044 -1.1400  0.2173 -0.2573
 3463TIP3    H210354   0.764   1.091   0.095 -0.3867 -2.5432  1.0234
 3464TIP3   OH210355   3.771   0.840   2.132 -0.6165  0.2600 -0.3066
 3464TIP3    H110356   3.865   0.854   2.118 -0.2998 -0.3767  1.0504
 3464TIP3    H210357   3.735   0.836   2.043  0.6317  0.4894 -0.8552
 3465TIP3   OH210358   7.037   5.373   0.577 -0.3746  0.2163 -0.3404
 3465TIP3    H110359   6.971   5.367   0.646 -0.0120  0.5948  0.0423
 3465TIP3    H210360   6.995   5.426   0.509 -0.2295  1.0094  0.1800
 3466TIP3   OH210361   4.534   5.793   1.326  0.1219  0.4641  0.2645
 3466TIP3    H110362   4.504   5.792   1.417 -0.5464 -1.6556  0.0728
 3466TIP3    H210363   4.627   5.816   1.332  0.4368 -0.9436  1.6412
 3467TIP3   OH210364   1.619   6.300   2.559  0.3140  0.3065  0.1658
 3467TIP3    H110365   1.610   6.326   2.651  0.4840  0.7889  0.0508
 3467TIP3    H210366   1.547   6.345   2.515  1.5145  1.8830 -0.2924
 3468TIP3   OH210367   5.396   4.329   3.138 -0.0309  0.7338 -0.9721
 3468TIP3    H110368   5.373   4.237   3.124  0.5268  0.5415 -0.6654
 3468TIP3    H210369   5.444   4.354   3.058  0.5712  0.5023 -0.6868
 3469TIP3   OH210370   5.604   5.928   2.377 -0.2168  0.4858  0.1776
 3469TIP3    H110371   5.593   5.940   2.471 -0.1886 -0.3645  0.2947
 3469TIP3    H210372   5.584   6.014   2.340 -2.5915  0.2514  0.7646
 3470TIP3   OH210373   3.513   3.515   4.852  0.6102 -0.2713 -0.3899
 3470TIP3    H110374   3.586   3.502   4.914  0.1324 -0.6074  0.1199
 3470TIP3    H210375   3.440   3.466   4.891 -1.4696  4.0084  1.8231
 3471TIP3   OH210376   5.142   2.104   2.399 -0.8403 -0.9581 -0.0697
 3471TIP3    H110377   5.072   2.143   2.347 -0.0213 -1.0137 -1.2588
 3471TIP3    H210378   5.139   2.011   2.377  0.4311 -0.7720 -1.1905
 3472TIP3   OH210379   4.605   6.493   2.382  0.3466  0.6888  0.5645
 3472TIP3    H110380   4.519   6.478   2.422  0.3590  1.6641  0.9949
 3472TIP3    H210381   4.657   6.531   2.452  0.4619  2.1700 -0.2716
 3473TIP3   OH210382   6.322   6.236   2.534 -0.0195 -0.3364  0.2458
 3473TIP3    H110383   6.397   6.177   2.540 -0.6235 -1.1691 -0.1358
 3473TIP3    H210384   6.246   6.179   2.550 -0.6401  0.2729 -0.4782
 3474TIP3   OH210385   1.163   6.041   4.863  0.1820 -0.2051 -0.5961
 3474TIP3    H110386   1.147   6.080   4.949  1.7732 -1.0589  0.1293
 3474TIP3    H210387   1.076   6.022   4.829 -0.5910  2.3174 -0.2455
 3475TIP3   OH210388   4.668   4.949   5.787 -0.0755  0.1705 -0.0083
 3475TIP3    H110389   4.604   4.947   5.716 -0.0153 -0.4194 -0.0488
 3475TIP3    H210390   4.668   4.860   5.823  1.2688 -0.0610 -0.5043
 3476TIP3   OH210391   6.795   4.279   2.331 -0.1651 -0.1706  0.0748
 3476TIP3    H110392   6.758   4.245   2.412 -0.0604 -0.3564  0.0453
 3476TIP3    H210393   6.720   4.317   2.285 -0.4760 -1.2642 -0.3514
 3477TIP3   OH210394   4.447   0.824   3.350 -0.5564  0.0586  0.5506
 3477TIP3    H110395   4.510   0.891   3.321 -1.0166 -0.2618 -1.3476
 3477TIP3    H210396   4.363   0.869   3.348 -0.7897 -0.3918 -0.1620
 3478TIP3   OH210397   0.114   2.321   3.203  0.2321 -0.1419 -0.5595
 3478TIP3    H110398   0.019   2.316   3.217  0.1489 -4.2142 -1.3350
 3478TIP3    H210399   0.151   2.305   3.290  0.0551 -2.4034 -0.8398
 3479TIP3   OH210400   5.185   4.369   1.280 -0.3890 -0.0447  0.1351
 3479TIP3    H110401   5.180   4.391   1.187 -0.2677  0.2268  0.1915
 3479TIP3    H210402   5.204   4.452   1.324  1.2481 -0.4549  0.2498
 3480TIP3   OH210403   2.374   5.851   5.086 -0.3001  0.6084  0.2124
 3480TIP3    H110404   2.442   5.866   5.151 -0.8255  0.4288  0.8240
 3480TIP3    H210405   2.327   5.773   5.118 -0.7998  0.7380 -0.1804
 3481TIP3   OH210406   6.722   1.826   3.000  0.1237  0.0676 -0.4844
 3481TIP3    H110407   6.718   1.811   3.095  0.4194  1.7668 -0.1792
 3481TIP3    H210408   6.773   1.906   2.990  0.6539 -0.4363 -2.1362
 3482TIP3   OH210409   0.467   2.694   0.059  0.1179  0.1521  0.1146
 3482TIP3    H110410   0.557   2.662   0.050 -0.3947 -1.4359  0.3474
 3482TIP3    H210411   0.412   2.618   0.038 -1.2061  1.5207 -1.6664
 3483TIP3   OH210412   2.464   2.790   1.440 -0.0033  0.0223  0.0509
 3483TIP3    H110413   2.443   2.760   1.352 -1.5631 -0.2633  0.4961
 3483TIP3    H210414   2.475   2.710   1.491  3.1335  0.1005 -0.2951
 3484TIP3   OH210415   2.990   5.506   2.744  0.2117  0.4825  0.3064
 3484TIP3    H110416   3.025   5.511   2.655 -0.2865  1.8057  0.1573
 3484TIP3    H210417   2.931   5.430   2.742  1.8901 -0.8705  0.1601
 3485TIP3   OH210418   5.909   4.501   3.661  0.0906  0.4050 -0.1192
 3485TIP3    H110419   5.910   4.467   3.572 -1.5711 -0.3380  0.1152
 3485TIP3    H210420   5.922   4.596   3.650 -2.0024  0.6066 -1.3404
 3486TIP3   OH210421   5.019   5.095   5.271  0.0199 -0.2868 -0.5404
 3486TIP3    H110422   4.951   5.033   5.242 -1.1120  0.3098  0.6844
 3486TIP3    H210423   5.030   5.074   5.364 -0.5392  1.4521 -0.0454
 3487TIP3   OH210424   3.623   3.836   5.169  0.4303  0.0127  0.2815
 3487TIP3    H110425   3.700   3.794   5.132  1.0446  1.7223 -0.4843
 3487TIP3    H210426   3.549   3.793   5.126  0.9716 -1.2437  0.5867
 3488TIP3   OH210427   3.028   1.891   3.791 -0.0096 -0.0311  0.4674
 3488TIP3    H110428   3.021   1.968   3.735 -1.8060  0.3326  1.1344
 3488TIP3    H210429   2.956   1.834   3.764 -0.3364 -0.2656  1.7444
 3489TIP3   OH210430   4.956   5.679   0.531  0.1376 -0.2677  0.1290
 3489TIP3    H110431   5.014   5.732   0.476 -0.0372  1.4566  1.4982
 3489TIP3    H210432   4.892   5.742   0.565 -2.1029 -1.9772 -0.7238
 3490TIP3   OH210433   1.085   0.321   1.154  0.2166 -0.4077 -0.2670
 3490TIP3    H110434   1.005   0.290   1.112  0.8218  0.3859 -2.1148
 3490TIP3    H210435   1.155   0.299   1.092  0.9816  2.2412 -0.4535
 3491TIP3   OH210436   0.086   1.090   5.282  0.1412  0.1778  0.7425
 3491TIP3    H110437   0.163   1.033   5.284 -0.1731 -0.3174 -0.2739
 3491TIP3    H210438   0.015   1.036   5.317 -0.1685 -0.1082 -0.2725
 3492TIP3   OH210439   0.577   0.854   0.210 -0.8329 -0.0377  0.1790
 3492TIP3    H110440   0.541   0.769   0.183 -0.7548 -0.3120  0.8937
 3492TIP3    H210441   0.564   0.855   0.305 -2.1184  1.3559  0.0221
 3493TIP3   OH210442   4.419   3.089   2.236 -0.6873  0.5136 -0.2851
 3493TIP3    H110443   4.408   3.021   2.301 -0.5907 -0.4388 -1.2340
 3493TIP3    H210444   4.457   3.163   2.284  1.2793 -0.8342  0.3684
 3494TIP3   OH210445   0.423   0.517   2.297  0.0868 -0.5708  0.4417
 3494TIP3    H110446   0.451   0.602   2.264 -1.7790  0.4828  1.4078
 3494TIP3    H210447   0.478   0.453   2.251  0.9911  1.1014 -0.8745
 3495TIP3   OH210448   1.214   3.781   3.651  0.1960  0.3737  0.3310
 3495TIP3    H110449   1.131   3.750   3.687  1.0095  0.5026  2.4844
 3495TIP3    H210450   1.241   3.713   3.590 -1.0499 -0.1068  0.2918
 3496TIP3   OH210451   2.458   2.338   1.113 -0.3284  0.6282  0.0714
 3496TIP3    H110452   2.428   2.305   1.028  1.7578  0.1488 -0.5283
 3496TIP3    H210453   2.482   2.430   1.095 -0.7418  0.7961  0.3698
 3497TIP3   OH210454   7.106   0.157   2.318 -0.5023 -0.4612 -0.8029
 3497TIP3    H110455   7.058   0.201   2.388 -0.1192  0.7832 -1.3028
 3497TIP3    H210456   7.091   0.211   2.241  0.0254 -1.1863 -1.4214
 3498TIP3   OH210457   1.344   4.506   4.253 -0.0553  0.3302 -0.6745
 3498TIP3    H110458   1.341   4.494   4.348  0.3696  0.0363 -0.6978
 3498TIP3    H210459   1.424   4.557   4.237 -0.4234  0.8718 -0.8245
 3499TIP3   OH210460   6.463   0.068   2.846  0.3782 -0.4249  0.0878
 3499TIP3    H110461   6.536   0.126   2.864  0.4785 -0.6665  0.4687
 3499TIP3    H210462   6.494   0.013   2.773 -0.7262  1.8269 -2.2382
 3500TIP3   OH210463   6.293   6.512   2.031 -0.1337  0.4373  0.4515
 3500TIP3    H110464   6.292   6.510   2.127 -0.3161 -1.6084  0.4563
 3500TIP3    H210465   6.372   6.562   2.009  0.5428 -0.0220  1.6884
 3501TIP3   OH210466   0.977   0.467   0.796 -0.6864  0.6680  0.2504
 3501TIP3    H110467   0.988   0.553   0.837  0.2774  0.0814  1.3049
 3501TIP3    H210468   0.933   0.414   0.863 -1.3043  0.3365 -0.4021
 3502TIP3   OH210469   2.255   5.955   1.258 -0.0870 -0.1273  0.0393
 3502TIP3    H110470   2.249   5.931   1.350 -0.0586  1.7767  0.5824
 3502TIP3    H210471   2.196   6.030   1.249  1.2609  0.8443 -1.0648
 3503TIP3   OH210472   6.903   1.438   1.345 -0.2439 -0.3607  0.1684
 3503TIP3    H110473   6.885   1.448   1.439  0.0472 -0.2803  0.2168
 3503TIP3    H210474   6.957   1.358   1.339 -1.5995 -1.2841 -0.0988
 3504TIP3   OH210475   1.792   6.460   4.059 -0.3338  0.3794  0.1709
 3504TIP3    H110476   1.850   6.413   3.999 -0.3963  0.6253 -0.0865
 3504TIP3    H210477   1.848   6.527   4.099  0.0461 -0.6170  1.3956
 3505TIP3   OH210478   6.690   3.507   0.731 -0.1616 -0.2940 -0.1151
 3505TIP3    H110479   6.605   3.465   0.717 -0.2749  0.4228 -1.8071
 3505TIP3    H210480   6.747   3.467   0.666  0.2099  0.7764 -0.4740
 3506TIP3   OH210481   4.304   2.085   1.074 -0.9221  0.5381 -0.1658
 3506TIP3    H110482   4.259   2.168   1.059  1.1428  2.0154  1.3117
 3506TIP3    H210483   4.272   2.056   1.159 -0.6707  0.4897 -0.0873
 3507TIP3   OH210484   7.040   3.621   3.867  0.5058  0.2417  0.1446
 3507TIP3    H110485   7.055   3.552   3.932 -0.7614  1.2301  1.5712
 3507TIP3    H210486   7.078   3.587   3.786 -1.5232 -2.8886  0.3294
 3508TIP3   OH210487   4.044   4.704   5.050 -0.2431 -0.3243  0.5464
 3508TIP3    H110488   4.049   4.676   4.958  1.7195 -2.1543  1.1295
 3508TIP3    H210489   4.080   4.793   5.050 -1.3027  0.1340 -0.5810
 3509TIP3   OH210490   0.097   2.495   2.522 -0.8742  0.8438 -0.2961
 3509TIP3    H110491   0.099   2.473   2.429  1.3158 -1.4088  0.1884
 3509TIP3    H210492   0.062   2.417   2.565  3.4063 -0.5898  1.1455
 3510TIP3   OH210493   3.115   3.060   4.101 -0.2262  0.1962  0.4015
 3510TIP3    H110494   3.086   3.016   4.181 -1.6178  0.7152  0.2201
 3510TIP3    H210495   3.063   3.140   4.098  1.6387  1.4563  0.2757
 3511TIP3   OH210496   3.755   6.132   2.847  0.0670  0.4992 -0.3957
 3511TIP3    H110497   3.727   6.069   2.914 -0.0123  0.6939 -0.2445
 3511TIP3    H210498   3.675   6.175   2.819 -0.0526 -0.3191 -1.3915
 3512TIP3   OH210499   5.804   6.081   1.007  0.1203  0.1843  0.0343
 3512TIP3    H110500   5.746   6.030   1.064  1.4729 -1.7430 -0.1970
 3512TIP3    H210501   5.882   6.096   1.059  1.0844 -0.9804 -1.0112
 3513TIP3   OH210502   5.777   0.700   3.562 -0.1233  0.7361  0.2452
 3513TIP3    H110503   5.814   0.784   3.536  1.1149  0.0303 -0.3926
 3513TIP3    H210504   5.816   0.683   3.648  1.8503 -0.4190 -0.8071
 3514TIP3   OH210505   1.382   0.074   0.333  0.3404  0.0414  0.2569
 3514TIP3    H110506   1.457   0.114   0.290 -0.4818  1.9365  0.4406
 3514TIP3    H210507   1.314   0.072   0.266  0.1262 -0.3097  0.4803
 3515TIP3   OH210508   4.314   5.845   2.314 -0.0578  0.1412 -0.1060
 3515TIP3    H110509   4.402   5.883   2.322 -0.8409  1.9457  0.4259
 3515TIP3    H210510   4.277   5.888   2.236  0.4845 -2.7308 -2.1175
 3516TIP3   OH210511   2.546   5.571   2.735  0.2054  0.4344 -0.3961
 3516TIP3    H110512   2.567   5.594   2.826  1.2997 -0.6590 -0.3512
 3516TIP3    H210513   2.491   5.643   2.705 -0.5255  0.6104  1.2568
 3517TIP3   OH210514   4.362   3.531   1.617  0.3467  0.1276 -0.8017
 3517TIP3    H110515   4.350   3.626   1.625 -0.6337  0.0076 -0.7622
 3517TIP3    H210516   4.276   3.494   1.634  0.9492 -0.8517  0.2613
 3518TIP3   OH210517   2.249   4.873   2.580 -0.1239  0.1985  0.1326
 3518TIP3    H110518   2.194   4.932   2.631 -0.3129  1.2572 -1.2487
 3518TIP3    H210519   2.206   4.867   2.495  0.6652 -0.8134 -0.2159
 3519TIP3   OH210520   4.404   3.174   3.167 -0.5125 -0.2538  0.2907
 3519TIP3    H110521   4.380   3.219   3.085 -1.5035  0.2306  0.8342
 3519TIP3    H210522   4.424   3.085   3.139  2.3177  0.6369 -0.9468
 3520TIP3   OH210523   0.087   5.179   5.441 -0.2544  0.0518 -0.1633
 3520TIP3    H110524   0.059   5.244   5.506  2.1567  1.8514 -0.7603
 3520TIP3    H210525   0.055   5.213   5.358  0.5529  0.2044 -0.4189
 3521TIP3   OH210526   3.221   1.838   4.186  0.4837 -0.1123 -0.1728
 3521TIP3    H110527   3.175   1.896   4.124  2.3793  0.8718 -0.7439
 3521TIP3    H210528   3.161   1.765   4.199 -0.4037  0.1195 -2.4368
 3522TIP3   OH210529   5.829   3.128   0.103 -0.5306 -0.6178  0.7824
 3522TIP3    H110530   5.832   3.165   0.192  0.0857  1.0556  0.1107
 3522TIP3    H210531   5.748   3.163   0.066 -0.5708 -0.9650  0.5409
 3523TIP3   OH210532   4.374   5.658   2.607 -0.4300  0.1955 -0.1326
 3523TIP3    H110533   4.428   5.737   2.607 -0.5986  0.3214 -0.9630
 3523TIP3    H210534   4.373   5.629   2.698  1.0864  0.1538 -0.1133
 3524TIP3   OH210535   4.937   6.111   4.311 -0.1106  0.3582 -0.2761
 3524TIP3    H110536   5.024   6.138   4.280  0.3270 -1.4256 -0.7242
 3524TIP3    H210537   4.916   6.034   4.259 -0.4136 -1.3584  2.2055
 3525TIP3   OH210538   5.884   3.099   4.324 -0.2507 -0.1033 -0.5253
 3525TIP3    H110539   5.880   3.027   4.387  2.0553  1.4106  1.5232
 3525TIP3    H210540   5.872   3.057   4.239 -3.5241 -2.2424  0.7901
 3526TIP3   OH210541   0.809   2.142   4.353  0.2389 -0.3393 -0.4181
 3526TIP3    H110542   0.793   2.079   4.424  1.2448 -1.8772 -1.5038
 3526TIP3    H210543   0.882   2.195   4.384  0.4580 -0.7905 -0.1482
 3527TIP3   OH210544   0.878   6.327   3.711  1.0967 -0.1756  0.2236
 3527TIP3    H110545   0.823   6.281   3.648  1.2940  0.5304 -0.4886
 3527TIP3    H210546   0.935   6.259   3.747  0.0532 -0.8429  0.6798
 3528TIP3   OH210547   2.350   1.254   0.265  0.1820  0.1740 -0.0261
 3528TIP3    H110548   2.404   1.249   0.344 -0.3378  1.0210  0.3923
 3528TIP3    H210549   2.409   1.287   0.198  0.2065  1.0541  0.4175
 3529TIP3   OH210550   3.780   1.766   4.622  0.1383 -0.1707  0.0071
 3529TIP3    H110551   3.813   1.725   4.542 -1.5469 -2.3142  0.3104
 3529TIP3    H210552   3.859   1.792   4.670  1.2435 -1.0587 -1.2486
 3530TIP3   OH210553   5.192   2.276   4.767 -0.0578 -0.1279 -0.0584
 3530TIP3    H110554   5.282   2.306   4.781 -0.3036  0.3747  0.4902
 3530TIP3    H210555   5.180   2.206   4.831  0.8341 -2.1721 -1.9729
 3531TIP3   OH210556   6.086   2.238   1.658  0.0253 -0.3455  0.5866
 3531TIP3    H110557   6.090   2.332   1.637  0.2591 -0.4489  0.1646
 3531TIP3    H210558   6.008   2.207   1.612  0.1223 -0.4228  0.4757
 3532TIP3   OH210559   6.275   5.547   0.533 -0.1787 -0.4501 -0.1913
 3532TIP3    H110560   6.311   5.505   0.455  2.9890  1.3703  0.1451
 3532TIP3    H210561   6.268   5.640   0.510 -1.7447 -0.2604  0.8772
 3533TIP3   OH210562   3.277   5.373   1.298 -0.2442 -0.3699 -0.1237
 3533TIP3    H110563   3.341   5.304   1.280 -1.5776 -1.6961 -0.0300
 3533TIP3    H210564   3.329   5.447   1.329  1.2909 -1.1266 -0.7768
 3534TIP3   OH210565   1.886   6.272   5.670  0.4183  0.4200 -0.2163
 3534TIP3    H110566   1.806   6.318   5.645  0.5355  1.4232  1.1481
 3534TIP3    H210567   1.956   6.335   5.652  0.7714  0.0720 -0.0662
 3535TIP3   OH210568   6.058   4.998   1.211  0.2199 -0.1188 -0.3846
 3535TIP3    H110569   5.963   4.993   1.199  0.4475 -0.2171 -2.5803
 3535TIP3    H210570   6.076   4.937   1.282 -1.3144 -0.4038 -0.1909
 3536TIP3   OH210571   0.671   4.080   3.953  0.2544  0.1038 -0.6103
 3536TIP3    H110572   0.740   4.026   3.917 -1.1042 -1.9131 -0.3388
 3536TIP3    H210573   0.610   4.018   3.994 -0.8001  1.9192  0.7479
 3537TIP3   OH210574   6.080   6.475   3.472  0.1981 -0.3089  0.2653
 3537TIP3    H110575   6.080   6.552   3.530 -1.4409  0.2925 -0.4737
 3537TIP3    H210576   6.015   6.417   3.511 -3.2533  1.3648 -2.4009
 3538TIP3   OH210577   3.889   3.695   1.526  0.7904  0.4133  0.0124
 3538TIP3    H110578   3.913   3.614   1.481  0.2424  0.8787 -1.1325
 3538TIP3    H210579   3.943   3.694   1.606 -0.0077 -1.6088  0.5897
 3539TIP3   OH210580   7.146   4.695   2.513  0.0350  0.5342 -0.0048
 3539TIP3    H110581   7.233   4.657   2.500 -0.0539 -0.3419  1.7246
 3539TIP3    H210582   7.099   4.630   2.564 -0.9480  1.9025  0.9007
 3540TIP3   OH210583   0.346   2.488   3.371  0.0290  0.0988 -0.0507
 3540TIP3    H110584   0.418   2.448   3.323  1.5886  1.8406  0.7603
 3540TIP3    H210585   0.296   2.413   3.405  0.3120 -1.1544 -2.2025
 3541TIP3   OH210586   1.392   6.620   5.108 -0.2763  0.2473  0.3719
 3541TIP3    H110587   1.440   6.681   5.164 -0.3472  1.5486 -0.9228
 3541TIP3    H210588   1.329   6.579   5.167  1.1600 -0.1497  1.7173
 3542TIP3   OH210589   2.204   5.032   5.448 -0.0843 -0.3626  0.2004
 3542TIP3    H110590   2.157   4.948   5.440  0.1757 -0.8478  2.8825
 3542TIP3    H210591   2.137   5.094   5.477  0.0282  0.0188 -0.3472
 3543TIP3   OH210592   2.870   1.797   1.230  0.1567  0.3835 -0.0848
 3543TIP3    H110593   2.946   1.746   1.255  1.9165  1.5522 -2.5637
 3543TIP3    H210594   2.839   1.756   1.149 -1.1728  0.5928  0.2986
 3544TIP3   OH210595   2.658   2.923   2.650  0.4350 -0.7617  0.2072
 3544TIP3    H110596   2.652   2.856   2.582 -0.9474 -0.1093 -0.3430
 3544TIP3    H210597   2.674   3.004   2.602 -2.2863  0.0007  0.4387
 3545TIP3   OH210598   6.321   3.953   4.519 -0.8428 -0.1477  0.0419
 3545TIP3    H110599   6.379   3.990   4.453 -1.8791  1.2095 -0.1355
 3545TIP3    H210600   6.243   3.926   4.471 -0.8572 -0.8578  0.4519
 3546TIP3   OH210601   5.491   6.453   4.568  0.2465  0.4195  0.3735
 3546TIP3    H110602   5.492   6.546   4.543 -0.8055  0.2086 -0.5127
 3546TIP3    H210603   5.444   6.451   4.652  0.2066  0.6743  0.3572
 3547TIP3   OH210604   3.555   1.082   2.776  0.2544 -0.4275  0.5080
 3547TIP3    H110605   3.487   1.099   2.840  0.7594 -0.2751  1.0115
 3547TIP3    H210606   3.578   1.169   2.742  0.0373 -0.5005  0.1730
 3548TIP3   OH210607   1.884   3.303   5.638  0.1466  0.2493 -0.1337
 3548TIP3    H110608   1.840   3.246   5.701 -2.6499  1.9355 -0.4237
 3548TIP3    H210609   1.905   3.246   5.564 -2.9819 -0.4155 -0.6172
 3549TIP3   OH210610   4.535   0.004   2.122  0.0501 -0.4774  0.2500
 3549TIP3    H110611   4.602   0.013   2.190 -0.6071 -0.5747  0.9311
 3549TIP3    H210612   4.584  -0.009   2.041  0.9388  2.1356  0.2675
 3550TIP3   OH210613   4.210   4.011   5.693 -0.1846 -0.2962  0.0310
 3550TIP3    H110614   4.250   4.044   5.612  1.1022 -1.1432  0.2853
 3550TIP3    H210615   4.228   4.079   5.758  0.8674 -0.6544  0.1347
 3551TIP3   OH210616   4.526   0.577   3.464 -0.0610 -0.2831  0.1688
 3551TIP3    H110617   4.492   0.661   3.435 -1.2078 -0.8037 -0.0630
 3551TIP3    H210618   4.621   0.584   3.452 -0.3258  0.1346 -2.1267
 3552TIP3   OH210619   5.654   4.811   5.272 -0.3315 -0.3023  0.2101
 3552TIP3    H110620   5.588   4.868   5.231 -0.0687 -0.7964 -0.9292
 3552TIP3    H210621   5.613   4.725   5.273  0.5926 -0.7861 -1.2739
 3553TIP3   OH210622   5.544   2.085   1.492  0.0182 -0.1428 -0.3109
 3553TIP3    H110623   5.455   2.060   1.469 -0.6040  0.7898  1.0009
 3553TIP3    H210624   5.558   2.048   1.579  1.1564 -0.8155 -0.7491
 3554TIP3   OH210625   4.189   6.447   3.055 -0.0452 -0.0971 -0.4713
 3554TIP3    H110626   4.139   6.398   3.120  0.3313  0.7821  0.5317
 3554TIP3    H210627   4.137   6.525   3.038  1.3632  1.3664  1.3943
 3555TIP3   OH210628   2.876   5.009   1.689  0.3076  0.1698  0.0882
 3555TIP3    H110629   2.885   5.083   1.748 -0.3995  0.2419  0.1119
 3555TIP3    H210630   2.965   4.974   1.680  0.4033  0.0699  1.3070
 3556TIP3   OH210631   0.617   1.349   4.553 -0.2504 -0.1777  0.2678
 3556TIP3    H110632   0.630   1.332   4.460  0.7019 -1.1967  0.5691
 3556TIP3    H210633   0.524   1.333   4.568 -0.0948 -1.6731 -0.1930
 3557TIP3   OH210634   4.942   4.375   4.248  0.3972  0.2598 -0.0754
 3557TIP3    H110635   4.863   4.416   4.284  0.3519  1.0485 -1.0323
 3557TIP3    H210636   4.935   4.389   4.153  1.3313 -0.3099 -0.2368
 3558TIP3   OH210637   7.058   4.314   3.288  0.0506  0.2239 -0.1989
 3558TIP3    H110638   6.962   4.315   3.291  0.0784  0.1472  0.9669
 3558TIP3    H210639   7.079   4.359   3.206 -0.9598  1.0497 -0.0290
 3559TIP3   OH210640   4.192   5.117   0.806  0.5765  0.7098  0.0244
 3559TIP3    H110641   4.213   5.183   0.871 -2.3548  1.0864  0.7552
 3559TIP3    H210642   4.184   5.035   0.856 -1.0012  0.8701  0.0954
 3560TIP3   OH210643   6.017   0.668   5.301  0.5875  0.1312 -0.2988
 3560TIP3    H110644   6.100   0.674   5.347  0.3385 -1.5040  0.4283
 3560TIP3    H210645   5.963   0.737   5.339  2.3140  2.8943 -2.4767
 3561TIP3   OH210646   1.763   2.816   0.360  0.3341 -0.6468 -0.3342
 3561TIP3    H110647   1.676   2.775   0.355  0.9298 -2.1068  0.5690
 3561TIP3    H210648   1.750   2.893   0.415 -0.5065 -0.5254 -0.6927
 3562TIP3   OH210649   5.013   4.205   5.717 -0.1359 -0.1751 -0.2141
 3562TIP3    H110650   4.921   4.180   5.726 -0.4770  0.6355 -1.2128
 3562TIP3    H210651   5.062   4.126   5.742 -1.0430 -0.1939  1.6828
 3563TIP3   OH210652   0.897   0.589   2.055 -0.0915 -0.6419  0.1637
 3563TIP3    H110653   0.947   0.667   2.035  0.9506 -1.5082 -0.7613
 3563TIP3    H210654   0.842   0.575   1.977 -1.3326 -0.0644  0.9006
 3564TIP3   OH210655   6.744   1.661   2.312 -0.2064 -0.0023  0.1690
 3564TIP3    H110656   6.829   1.654   2.268  0.3987 -0.5322  1.3672
 3564TIP3    H210657   6.726   1.572   2.344 -1.4858 -0.0207 -0.5270
 3565TIP3   OH210658   1.938   6.175   0.011  0.3639 -0.0804  0.0557
 3565TIP3    H110659   1.907   6.227   0.085 -1.8230 -0.0191 -0.8504
 3565TIP3    H210660   1.859   6.147  -0.035  1.4696 -3.4571 -0.0556
 3566TIP3   OH210661   4.017   2.853   0.910 -0.4862  0.2193  0.2107
 3566TIP3    H110662   3.989   2.783   0.852 -1.0697  0.1881  0.5270
 3566TIP3    H210663   4.022   2.813   0.997 -1.3537  0.6846  0.4891
 3567TIP3   OH210664   5.917   1.529   2.473  0.0242  0.5081  0.6104
 3567TIP3    H110665   5.898   1.482   2.554  2.8233 -2.8611 -0.4516
 3567TIP3    H210666   5.967   1.605   2.501  0.0732 -0.0407  2.1082
 3568TIP3   OH210667   5.246   6.596   1.395 -0.0951  0.1719  0.6781
 3568TIP3    H110668   5.256   6.690   1.412  1.2858  0.0659  0.5226
 3568TIP3    H210669   5.161   6.589   1.351 -0.1779  1.3470  0.6196
 3569TIP3   OH210670   6.171   5.463   0.958 -0.2779 -0.1826 -0.8235
 3569TIP3    H110671   6.253   5.512   0.954  1.0833 -1.9242  2.3834
 3569TIP3    H210672   6.164   5.422   0.872  2.6137 -0.5545 -0.9845
 3570TIP3   OH210673   5.005   2.137   5.823 -0.1255 -1.0283  0.1856
 3570TIP3    H110674   4.985   2.049   5.855  0.9113 -2.8291 -3.5791
 3570TIP3    H210675   5.090   2.158   5.860 -0.2707 -1.6943  0.9152
 3571TIP3   OH210676   6.729   2.432   1.147  0.1886 -0.1566 -0.4984
 3571TIP3    H110677   6.816   2.405   1.116 -0.1626 -1.8651 -0.0879
 3571TIP3    H210678   6.674   2.355   1.135 -0.3370 -0.4633  2.8403
 3572TIP3   OH210679   0.558   3.493   1.745 -0.3943 -0.6437  0.0417
 3572TIP3    H110680   0.593   3.519   1.830  1.1667 -0.4596 -0.6387
 3572TIP3    H210681   0.463   3.486   1.760 -0.1363 -0.8059  1.8287
 3573TIP3   OH210682   2.595   4.357   2.996 -0.1428 -0.0649  0.8806
 3573TIP3    H110683   2.583   4.284   3.057 -0.9319  0.3577  1.2481
 3573TIP3    H210684   2.609   4.433   3.051  1.3694 -0.0304  0.4839
 3574TIP3   OH210685   1.693   0.392   2.318  0.2293  0.1398  0.6368
 3574TIP3    H110686   1.704   0.308   2.362 -0.8309 -1.0303 -1.1764
 3574TIP3    H210687   1.602   0.417   2.336  0.3074  0.5130  0.5280
 3575TIP3   OH210688   4.317   2.040   4.736 -0.2357  0.2881  0.2636
 3575TIP3    H110689   4.369   2.021   4.658 -0.9896  2.0898 -0.7535
 3575TIP3    H210690   4.338   1.970   4.798  3.4113  0.9052 -0.0526
 3576TIP3   OH210691   0.370   1.620   2.276 -0.2837  0.6331  0.2810
 3576TIP3    H110692   0.277   1.605   2.294 -0.0745 -0.3405  0.6304
 3576TIP3    H210693   0.415   1.560   2.335  0.4935 -1.7468 -2.4952
 3577TIP3   OH210694   6.035   0.666   4.251 -0.2444  0.0727 -0.7454
 3577TIP3    H110695   6.022   0.620   4.334  1.7909 -2.5173 -1.7304
 3577TIP3    H210696   6.010   0.757   4.270  0.2684 -0.3731  2.7462
 3578TIP3   OH210697   5.704   4.160   2.378  0.1905 -0.6694  0.1176
 3578TIP3    H110698   5.637   4.229   2.369  0.9876  0.0368 -0.6261
 3578TIP3    H210699   5.751   4.183   2.458 -1.1433 -1.8129  1.2836
 3579TIP3   OH210700   1.554   5.507   5.879 -0.0531 -0.2606  0.0369
 3579TIP3    H110701   1.541   5.542   5.791 -0.0981 -1.2481 -0.3638
 3579TIP3    H210702   1.583   5.582   5.930  3.2023 -0.2692 -1.5494
 3580TIP3   OH210703   3.594   3.066   5.200 -0.1716 -0.2180 -0.6719
 3580TIP3    H110704   3.559   3.118   5.127  0.0997  1.5751  0.4063
 3580TIP3    H210705   3.528   2.999   5.215 -0.9401  0.2948 -1.6172
 3581TIP3   OH210706   1.761   1.210   0.250  0.3955 -0.2079 -0.0968
 3581TIP3    H110707   1.736   1.237   0.161  0.5511 -1.2685 -0.4784
 3581TIP3    H210708   1.785   1.118   0.241  2.6826  0.2647  0.6091
 3582TIP3   OH210709   5.475   3.666   5.772 -0.5342 -0.0926 -0.4059
 3582TIP3    H110710   5.400   3.663   5.712 -0.3649  1.2579 -0.7132
 3582TIP3    H210711   5.552   3.668   5.716 -0.4052  2.3839 -0.2452
 3583TIP3   OH210712   0.318   5.721   3.564  0.0787  0.0231  0.4317
 3583TIP3    H110713   0.268   5.786   3.614  0.6921  1.2015 -0.4155
 3583TIP3    H210714   0.295   5.739   3.473 -1.1252 -2.1681  0.2539
 3584TIP3   OH210715   3.884   0.830   4.175  0.2057  0.0077 -0.3838
 3584TIP3    H110716   3.953   0.853   4.112 -0.3408  1.4882 -0.4767
 3584TIP3    H210717   3.861   0.913   4.217  0.7544 -0.9768  2.0267
 3585TIP3   OH210718   0.613   4.926   5.599 -0.7293 -0.0156 -0.4895
 3585TIP3    H110719   0.620   4.846   5.651  1.8602  1.1584  1.1774
 3585TIP3    H210720   0.631   4.898   5.509  2.0118 -1.1230  0.3069
 3586TIP3   OH210721   1.397   0.177   3.007 -0.2318  0.1248 -0.0038
 3586TIP3    H110722   1.482   0.173   3.051 -0.2546 -0.0167  0.0292
 3586TIP3    H210723   1.394   0.264   2.968  0.3729 -0.2336 -0.8759
 3587TIP3   OH210724   5.291   4.329   1.823 -0.0476  0.3634  0.4624
 3587TIP3    H110725   5.288   4.283   1.907  1.6179 -2.3839 -0.8475
 3587TIP3    H210726   5.367   4.292   1.778 -0.6772  1.9784 -2.1465
 3588TIP3   OH210727   4.597   5.821   2.707 -0.3864 -0.5801  0.3005
 3588TIP3    H110728   4.649   5.809   2.786 -1.9769 -1.3637  1.2951
 3588TIP3    H210729   4.529   5.884   2.733 -0.8337 -0.7319 -0.4800
 3589TIP3   OH210730   3.642   6.276   2.087  0.7900  0.3441 -0.0752
 3589TIP3    H110731   3.580   6.329   2.037  1.5546  1.6291  0.3032
 3589TIP3    H210732   3.603   6.271   2.174 -0.7679 -2.2656 -0.7850
 3590TIP3   OH210733   5.852   5.824   4.205  0.0091 -0.2393 -0.2276
 3590TIP3    H110734   5.886   5.840   4.117  1.6752  0.2247  0.4615
 3590TIP3    H210735   5.784   5.889   4.218 -0.5155 -0.5603 -1.3050
 3591TIP3   OH210736   0.380   0.382   5.514 -0.2838 -0.0291 -1.2849
 3591TIP3    H110737   0.321   0.318   5.554  1.8514 -2.1006 -1.2201
 3591TIP3    H210738   0.431   0.417   5.588 -0.6837  0.9743 -1.4630
 3592TIP3   OH210739   0.085   2.867   1.021  0.0212  0.4199 -0.0083
 3592TIP3    H110740   0.099   2.776   1.047  0.4770  0.0698 -1.3659
 3592TIP3    H210741   0.068   2.862   0.926 -0.1593  1.7301 -0.0630
 3593TIP3   OH210742   4.005   0.641   3.088 -0.7441 -0.1709 -0.1731
 3593TIP3    H110743   3.991   0.697   3.164  0.8708 -0.8035  0.6388
 3593TIP3    H210744   4.014   0.702   3.015  0.0843  0.6155  0.5558
 3594TIP3   OH210745   4.656   1.219   4.654 -0.4218  0.2577 -0.6099
 3594TIP3    H110746   4.587   1.194   4.715  0.6376 -0.3533  0.3834
 3594TIP3    H210747   4.657   1.149   4.589  1.4730 -1.6537  1.2776
 3595TIP3   OH210748   4.060   5.567   2.132 -0.2839 -0.3764 -0.7071
 3595TIP3    H110749   4.058   5.650   2.179  1.1372  0.0787 -1.3939
 3595TIP3    H210750   4.065   5.501   2.201  0.5426  0.2211 -0.1651
 3596TIP3   OH210751   4.026   0.175   4.559  0.0840 -0.1245  0.1974
 3596TIP3    H110752   4.099   0.154   4.501  1.5377  0.0596  1.8654
 3596TIP3    H210753   4.054   0.141   4.645 -2.3078 -1.1044  0.6498
 3597TIP3   OH210754   2.721   2.050   1.217 -0.0073  0.3831 -0.1456
 3597TIP3    H110755   2.649   2.033   1.277  1.2309  1.3985  1.7191
 3597TIP3    H210756   2.780   1.976   1.227  0.4260  0.7753  0.2573
 3598TIP3   OH210757   0.397   0.182   4.859  0.2788  0.4352  0.4482
 3598TIP3    H110758   0.359   0.097   4.883  0.1851 -0.0237 -1.1473
 3598TIP3    H210759   0.341   0.246   4.902 -0.2519 -0.2927  0.8816
 3599TIP3   OH210760   4.448   6.071   3.772  0.2070 -0.0416  0.3741
 3599TIP3    H110761   4.386   6.115   3.831  0.9736 -0.2168  1.3410
 3599TIP3    H210762   4.493   6.143   3.727  0.2028  0.1210  0.6287
 3600TIP3   OH210763   1.950   5.089   4.806  0.0364  0.5470  0.6028
 3600TIP3    H110764   2.003   5.114   4.730 -0.8299  0.9462  0.1257
 3600TIP3    H210765   1.997   5.014   4.843 -0.2029 -0.4765 -1.0708
 3601TIP3   OH210766   2.160   3.041   4.415  0.2506  0.2045  0.8603
 3601TIP3    H110767   2.221   2.978   4.377  1.3918  1.3577  0.7279
 3601TIP3    H210768   2.093   2.986   4.457 -1.5116 -1.1810 -3.2402
 3602TIP3   OH210769   3.467   0.116   5.809  0.2475 -0.0232  0.6400
 3602TIP3    H110770   3.526   0.051   5.772  0.5244  0.6606 -0.1598
 3602TIP3    H210771   3.503   0.200   5.781 -0.3466  0.4596  1.2806
 3603TIP3   OH210772   2.533   1.120   0.540  0.0062  0.0924 -0.2232
 3603TIP3    H110773   2.605   1.086   0.593  0.2766 -0.3909 -0.8835
 3603TIP3    H210774   2.455   1.108   0.595  0.0307 -1.9938 -0.5369
 3604TIP3   OH210775   3.788   2.453   0.689  0.2473  0.3461  0.2560
 3604TIP3    H110776   3.815   2.544   0.685 -2.4671  1.2102 -1.2138
 3604TIP3    H210777   3.794   2.422   0.598 -3.6531  0.7652 -0.3323
 3605TIP3   OH210778   1.155   5.669   4.382 -0.9961 -0.4099 -0.5300
 3605TIP3    H110779   1.102   5.645   4.306 -1.3589 -0.5491 -0.2415
 3605TIP3    H210780   1.166   5.586   4.429 -1.3608 -0.2019 -0.0738
 3606TIP3   OH210781   7.179   0.815   2.799 -0.4576  0.2276 -0.0066
 3606TIP3    H110782   7.191   0.824   2.894  0.1593 -0.7955  0.0243
 3606TIP3    H210783   7.172   0.905   2.767  0.1608  0.6106  0.9029
 3607TIP3   OH210784   5.685   1.077   3.023  0.2360  0.0318  0.2409
 3607TIP3    H110785   5.740   1.105   2.950  1.6134 -1.7224  0.5425
 3607TIP3    H210786   5.737   1.095   3.101  0.0429 -0.8944  0.5914
 3608TIP3   OH210787   3.735   1.265   4.989 -0.4035 -0.1065  0.5210
 3608TIP3    H110788   3.814   1.318   4.987 -1.0242  0.8335 -0.5802
 3608TIP3    H210789   3.678   1.308   5.053  0.4673 -1.5972  2.3950
 3609TIP3   OH210790   2.717   1.149   2.385  0.2397  0.2149  0.1464
 3609TIP3    H110791   2.686   1.142   2.475 -0.1992  1.9854  0.1544
 3609TIP3    H210792   2.705   1.061   2.349 -0.6925 -0.2253  1.4556
 3610TIP3   OH210793   6.854   4.824   2.755 -0.6474  0.4770  0.8575
 3610TIP3    H110794   6.900   4.771   2.820 -0.4448  0.9743  1.1313
 3610TIP3    H210795   6.910   4.822   2.678 -0.4902  0.5309  0.9682
 3611TIP3   OH210796   1.618   1.678   5.692 -0.5338 -0.3210  0.1840
 3611TIP3    H110797   1.635   1.682   5.598  1.1871  1.2240  0.5150
 3611TIP3    H210798   1.676   1.744   5.731 -0.5553 -1.5029  2.4232
 3612TIP3   OH210799   6.020   2.621   1.064  0.1029  0.1590  0.6246
 3612TIP3    H110800   5.978   2.668   1.135 -1.5754 -1.0278  0.4695
 3612TIP3    H210801   6.113   2.642   1.073 -0.3437  1.8315  1.7653
 3613TIP3   OH210802   1.206   1.173   1.666 -0.2320 -0.0099 -0.0827
 3613TIP3    H110803   1.222   1.247   1.607  1.2760 -0.1550  0.1086
 3613TIP3    H210804   1.281   1.116   1.654  0.2300  0.0541  2.1082
 3614TIP3   OH210805   1.024   3.857   5.264  0.0540  0.0124  0.2272
 3614TIP3    H110806   1.086   3.810   5.320  0.3065  0.7728  0.6092
 3614TIP3    H210807   0.944   3.864   5.317 -0.1315 -0.3756 -0.0018
 3615TIP3   OH210808   2.091   5.527   1.381 -0.1114  0.0752  0.0911
 3615TIP3    H110809   2.024   5.566   1.324 -1.6094 -0.9995  1.0250
 3615TIP3    H210810   2.042   5.465   1.435  1.4762  0.1320  1.6654
 3616TIP3   OH210811   5.195   2.882   4.341  0.4567 -0.1742 -0.0957
 3616TIP3    H110812   5.157   2.875   4.429 -1.2750 -0.2950 -0.8099
 3616TIP3    H210813   5.223   2.973   4.334  0.8428 -0.2243  0.6564
 3617TIP3   OH210814   2.283   6.583   2.991 -0.4745 -0.2235 -0.1035
 3617TIP3    H110815   2.301   6.490   3.000 -0.4045 -0.2312 -0.3250
 3617TIP3    H210816   2.295   6.601   2.898  0.2849  0.1708  0.0661
 3618TIP3   OH210817   2.954   1.325   2.720 -0.1305 -0.2218  0.2579
 3618TIP3    H110818   2.941   1.359   2.632 -0.3384 -1.9923 -0.4409
 3618TIP3    H210819   3.010   1.249   2.708 -1.6390 -1.5859  1.3907
 3619TIP3   OH210820   3.326   6.054   0.483 -0.6241 -0.4901  0.0396
 3619TIP3    H110821   3.395   6.120   0.480 -0.2527 -0.8106  1.0781
 3619TIP3    H210822   3.244   6.104   0.478 -0.3357 -0.1225 -1.3727
 3620TIP3   OH210823   1.823   4.962   3.521  0.4998 -0.0020  0.1280
 3620TIP3    H110824   1.915   4.934   3.519  0.4796 -0.1654  1.0454
 3620TIP3    H210825   1.808   4.999   3.435  1.8856  1.4378  0.4409
 3621TIP3   OH210826   3.984   4.962   1.505 -0.3035  0.3608 -0.9494
 3621TIP3    H110827   3.940   4.972   1.589  0.0747  0.4315 -0.7548
 3621TIP3    H210828   3.921   4.916   1.450 -0.8591  1.0134 -0.8767
 3622TIP3   OH210829   5.460   6.288   3.019 -0.1970  0.0248  0.1304
 3622TIP3    H110830   5.551   6.305   3.043 -0.9293  1.1040  2.4678
 3622TIP3    H210831   5.465   6.240   2.936  2.4239  1.3121 -0.5438
 3623TIP3   OH210832   6.538   4.405   4.077  0.6802  0.2810  0.4238
 3623TIP3    H110833   6.443   4.415   4.075  0.6890  0.2321 -1.1255
 3623TIP3    H210834   6.570   4.481   4.028  1.3689 -0.4546 -0.2739
 3624TIP3   OH210835   3.073   6.013   0.730  0.0225  0.1035 -0.3113
 3624TIP3    H110836   2.994   6.063   0.753 -0.6502 -0.5180 -1.1691
 3624TIP3    H210837   3.049   5.969   0.648  0.8181 -1.1019  0.0915
 3625TIP3   OH210838   2.816   3.968   1.556  0.2509 -0.1016  0.5055
 3625TIP3    H110839   2.806   3.897   1.492 -2.2076 -1.4847  2.2435
 3625TIP3    H210840   2.909   3.969   1.577  0.7331 -1.1655 -1.3613
 3626TIP3   OH210841   6.226   1.659   0.431  1.3950 -1.0736  0.0519
 3626TIP3    H110842   6.253   1.599   0.501  0.8834 -0.2220  1.0048
 3626TIP3    H210843   6.256   1.745   0.460  2.9981 -0.9462 -1.7557
 3627TIP3   OH210844   5.342   2.949   2.945 -0.1855  0.2253 -0.0966
 3627TIP3    H110845   5.424   2.997   2.946  0.4499 -0.4811 -4.1124
 3627TIP3    H210846   5.362   2.865   2.987  1.5154 -0.3321 -1.8869
 3628TIP3   OH210847   0.689   1.874   3.765 -0.3265  0.1916 -0.1051
 3628TIP3    H110848   0.724   1.945   3.819 -1.0386  0.4559  0.0262
 3628TIP3    H210849   0.660   1.808   3.828  1.5422 -0.8434 -0.2496
 3629TIP3   OH210850   2.798   0.370   1.433 -0.4844 -0.0083  0.4561
 3629TIP3    H110851   2.710   0.406   1.426 -0.3699  0.0896 -0.6596
 3629TIP3    H210852   2.789   0.277   1.412 -0.5948 -0.4225  2.1802
 3630TIP3   OH210853   2.061   3.369   3.304 -0.1485 -0.0092 -0.1719
 3630TIP3    H110854   1.966   3.383   3.311 -0.2678 -0.8468  0.0078
 3630TIP3    H210855   2.069   3.279   3.272  0.6029 -0.2251  0.5980
 3631TIP3   OH210856   6.910   2.997   3.784  0.2857  0.1009  0.1775
 3631TIP3    H110857   6.969   3.010   3.859 -0.0159 -1.1417  0.6465
 3631TIP3    H210858   6.824   3.020   3.817  0.2732  0.4100 -0.0614
 3632TIP3   OH210859   4.097   6.073   2.973  0.7073 -0.5366 -0.1241
 3632TIP3    H110860   4.172   6.093   3.029 -2.4875  0.1348  4.5125
 3632TIP3    H210861   4.062   5.991   3.008 -0.9732 -0.6296 -1.8468
 3633TIP3   OH210862   5.175   2.591   2.037 -0.1592 -0.2522 -0.4604
 3633TIP3    H110863   5.259   2.578   1.994  0.6428 -0.8478  1.1849
 3633TIP3    H210864   5.122   2.639   1.974  2.4737  3.1040 -0.3839
 3634TIP3   OH210865   3.949   4.554   2.735 -0.9047  0.2400  0.7120
 3634TIP3    H110866   4.002   4.622   2.694  0.5491 -1.3062 -0.1285
 3634TIP3    H210867   3.867   4.597   2.759  0.1372  2.3543  0.6291
 3635TIP3   OH210868   6.784   3.087   2.412 -0.1093 -0.3620  0.2374
 3635TIP3    H110869   6.818   3.030   2.481  0.6180 -1.0685 -0.6630
 3635TIP3    H210870   6.851   3.083   2.343 -0.8277  0.2909 -0.5174
 3636TIP3   OH210871   4.690   2.637   1.771 -0.1171  0.3958 -0.0011
 3636TIP3    H110872   4.637   2.705   1.814  0.2069 -0.3603  1.6762
 3636TIP3    H210873   4.625   2.575   1.736 -0.3962  0.0207  1.1256
 3637TIP3   OH210874   2.487   5.304   2.282  0.0942  0.0337 -0.1950
 3637TIP3    H110875   2.575   5.273   2.302  0.2170  0.0647 -0.6773
 3637TIP3    H210876   2.434   5.225   2.277  0.4266 -0.1232 -1.5239
 3638TIP3   OH210877   1.388   0.974   2.250  0.0618 -0.8222  0.2588
 3638TIP3    H110878   1.338   0.894   2.237  0.4567 -1.5204  2.5323
 3638TIP3    H210879   1.477   0.945   2.269  0.5422  0.2377 -0.2620
 3639TIP3   OH210880   4.828   4.367   3.581  0.5398  0.1286 -0.5810
 3639TIP3    H110881   4.919   4.375   3.610  0.6454  2.3881 -1.3257
 3639TIP3    H210882   4.779   4.349   3.660  1.1122  3.7230  0.7999
 3640TIP3   OH210883   0.554   4.503   2.662 -0.5441  0.5416 -0.3462
 3640TIP3    H110884   0.516   4.418   2.639  2.4904 -0.9359 -0.3872
 3640TIP3    H210885   0.557   4.551   2.579  2.2362 -1.3402 -1.4802
 3641TIP3   OH210886   5.221   3.299   3.422 -0.2313 -0.1728 -0.2158
 3641TIP3    H110887   5.160   3.236   3.386 -0.4963 -0.0789  0.0659
 3641TIP3    H210888   5.211   3.377   3.367 -0.8722  0.0843  0.2515
 3642TIP3   OH210889   6.504   1.314   5.519 -0.2728 -0.2615  0.1421
 3642TIP3    H110890   6.559   1.317   5.598 -0.5886  0.4753  0.3440
 3642TIP3    H210891   6.560   1.346   5.449 -0.2491 -0.1273  0.2234
 3643TIP3   OH210892   5.567   3.238   0.642 -0.1647 -0.3796  0.0627
 3643TIP3    H110893   5.555   3.175   0.713 -0.3958 -0.1822  0.1991
 3643TIP3    H210894   5.488   3.230   0.588 -0.4483  0.1734  0.3816
 3644TIP3   OH210895   3.294   5.314   3.838 -0.4694  0.0876 -0.4624
 3644TIP3    H110896   3.363   5.364   3.795 -0.0964  0.3689  0.4404
 3644TIP3    H210897   3.337   5.236   3.872 -0.2827  0.9092  1.2841
 3645TIP3   OH210898   2.598   5.093   2.864  0.2316 -0.2868  0.1786
 3645TIP3    H110899   2.629   5.084   2.774  0.0609 -1.1692  0.1977
 3645TIP3    H210900   2.676   5.115   2.915  0.0049  2.3985 -0.4698
 3646TIP3   OH210901   5.997   4.660   3.102 -0.1612  0.0611 -0.1918
 3646TIP3    H110902   6.022   4.741   3.056 -0.7479  0.3079 -0.0875
 3646TIP3    H210903   6.040   4.667   3.187  0.2446  0.0013 -0.3909
 3647TIP3   OH210904   4.149   2.817   0.567 -0.7930  0.3720 -0.0104
 3647TIP3    H110905   4.224   2.760   0.547 -0.9376  0.0457  0.3709
 3647TIP3    H210906   4.185   2.883   0.626 -1.4696 -1.6896  2.9562
 3648TIP3   OH210907   4.665   0.489   0.416 -0.0008 -0.3425 -0.4290
 3648TIP3    H110908   4.736   0.550   0.438 -0.2191 -0.6577  1.2890
 3648TIP3    H210909   4.617   0.478   0.498 -1.9178 -0.3219 -1.5058
 3649TIP3   OH210910   5.054   2.391   2.338 -0.0687  0.0173  0.0131
 3649TIP3    H110911   4.985   2.331   2.307  0.0106 -0.0394 -0.0522
 3649TIP3    H210912   5.015   2.478   2.330 -0.4190 -0.0663  0.7075
 3650TIP3   OH210913   5.800   5.092   0.813  0.5315 -0.1628 -0.3737
 3650TIP3    H110914   5.879   5.123   0.858  0.9569 -2.3484  0.5400
 3650TIP3    H210915   5.793   5.000   0.840 -2.7842  0.1566  0.2199
 3651TIP3   OH210916   2.848   4.402   0.190 -0.6692 -0.0214  0.0630
 3651TIP3    H110917   2.822   4.314   0.162  0.7947 -0.1326 -1.1227
 3651TIP3    H210918   2.785   4.426   0.258 -2.2036 -1.2390 -0.8644
 3652TIP3   OH210919   2.025   5.590   3.461 -0.3808  0.0180  0.2316
 3652TIP3    H110920   2.046   5.501   3.490  1.0113  0.2827  0.1190
 3652TIP3    H210921   1.962   5.578   3.390 -1.4038 -0.7887  1.2350
 3653TIP3   OH210922   2.435   3.606   1.981  0.2969 -0.0188 -0.2644
 3653TIP3    H110923   2.420   3.700   1.988 -0.8353 -0.2931  1.7311
 3653TIP3    H210924   2.529   3.597   1.965  0.7796  1.4186  1.4921
 3654TIP3   OH210925   0.084   0.720   1.475 -0.2930 -0.1220  0.5077
 3654TIP3    H110926   0.020   0.650   1.462 -1.4527  0.3906  2.9015
 3654TIP3    H210927   0.168   0.676   1.477 -0.7279 -1.0706 -0.7367
 3655TIP3   OH210928   4.405   6.766   0.343 -0.6127 -0.2164 -0.3343
 3655TIP3    H110929   4.377   6.716   0.267 -0.9541 -0.3253 -0.1404
 3655TIP3    H210930   4.426   6.852   0.309 -0.8114 -0.2494 -0.5453
 3656TIP3   OH210931   5.770   2.045   3.095 -0.0717 -0.0903 -0.3914
 3656TIP3    H110932   5.791   2.100   3.170  4.0372  3.2604 -3.5215
 3656TIP3    H210933   5.691   2.085   3.058 -1.2727 -0.8927  1.1497
 3657TIP3   OH210934   0.812   2.475   1.310  0.4758 -0.3377 -0.4289
 3657TIP3    H110935   0.766   2.510   1.386 -2.2921  2.1811 -3.0117
 3657TIP3    H210936   0.887   2.534   1.298  0.4714 -0.2682 -0.1155
 3658TIP3   OH210937   2.565   5.324   5.732  0.6025 -0.5059  0.5455
 3658TIP3    H110938   2.599   5.365   5.812 -1.8871  0.2313  1.2981
 3658TIP3    H210939   2.532   5.239   5.761 -1.0208  0.0842  0.4907
 3659TIP3   OH210940   1.127   3.999   0.748  0.1305 -0.1344  0.3606
 3659TIP3    H110941   1.074   4.074   0.722  1.2947  0.5661 -0.0946
 3659TIP3    H210942   1.064   3.931   0.771 -0.9731  1.2030  1.4947
 3660TIP3   OH210943   2.803   6.214   1.055 -0.3383 -0.6374 -0.2141
 3660TIP3    H110944   2.870   6.267   1.098 -0.0841 -1.0422 -0.1005
 3660TIP3    H210945   2.722   6.233   1.103 -0.1366 -0.7807  0.1857
 3661TIP3   OH210946   5.465   1.599   0.953 -0.1998  0.4581  0.0586
 3661TIP3    H110947   5.457   1.532   0.884 -0.7702  1.0089 -0.4234
 3661TIP3    H210948   5.381   1.598   0.998  0.6761 -0.9449  1.7570
 3662TIP3   OH210949   2.716   6.109   0.112  0.0503 -0.1301 -0.0984
 3662TIP3    H110950   2.657   6.078   0.180 -1.6124 -0.0243 -1.4250
 3662TIP3    H210951   2.659   6.148   0.046  1.4486 -1.2557 -2.1042
 3663TIP3   OH210952   3.551   5.375   4.976  1.0159 -0.1427 -0.3290
 3663TIP3    H110953   3.566   5.468   4.994  3.0083 -0.1830 -1.5730
 3663TIP3    H210954   3.607   5.355   4.901  0.5395 -2.3416 -0.1665
 3664TIP3   OH210955   2.615   5.873   5.220  0.4388  0.1961 -0.1012
 3664TIP3    H110956   2.665   5.795   5.244  0.7831  0.3604 -0.2901
 3664TIP3    H210957   2.650   5.900   5.136  0.3987  0.6232  0.0160
 3665TIP3   OH210958   5.620   0.673   5.378 -0.2437  0.6080  0.1905
 3665TIP3    H110959   5.605   0.658   5.285 -2.2134  1.6602  0.2840
 3665TIP3    H210960   5.697   0.730   5.381  1.7342 -1.8283 -0.5737
 3666TIP3   OH210961   6.250   6.058   4.660  0.2444  0.3642 -0.0822
 3666TIP3    H110962   6.208   6.097   4.736  0.5121 -1.0469  0.8185
 3666TIP3    H210963   6.185   5.998   4.624  0.8120 -0.4588  0.2303
 3667TIP3   OH210964   5.655   2.599   4.695 -0.3472  0.3342 -0.2110
 3667TIP3    H110965   5.721   2.531   4.708 -1.1670 -0.3459  0.5792
 3667TIP3    H210966   5.647   2.641   4.781 -1.4704 -0.0958 -0.0887
 3668TIP3   OH210967   2.195   1.638   0.277 -0.0238 -0.0418  0.2268
 3668TIP3    H110968   2.256   1.563   0.277  0.8468  0.5712 -1.9823
 3668TIP3    H210969   2.109   1.599   0.262  0.3015 -0.6721 -0.0531
 3669TIP3   OH210970   5.708   2.282   5.482 -0.0350  0.2334  0.0539
 3669TIP3    H110971   5.780   2.219   5.490 -0.4051  0.0163  2.4611
 3669TIP3    H210972   5.750   2.368   5.492  0.1121  0.2100 -0.3560
 3670TIP3   OH210973   6.666   5.726   0.483 -0.1599  0.1201 -0.0587
 3670TIP3    H110974   6.648   5.652   0.541  2.0596 -0.2715  0.2360
 3670TIP3    H210975   6.616   5.706   0.403 -1.0084 -0.7661  0.6721
 3671TIP3   OH210976   0.084   1.040   2.093  0.5335 -0.5801 -0.1458
 3671TIP3    H110977   0.086   1.132   2.118 -1.1634 -1.1442  2.4141
 3671TIP3    H210978   0.040   1.040   2.008 -0.9330  0.8850  0.5453
 3672TIP3   OH210979   0.498   1.412   5.787  0.0855 -0.5315 -0.2640
 3672TIP3    H110980   0.544   1.491   5.760  0.7664 -0.7067  0.3623
 3672TIP3    H210981   0.466   1.374   5.705 -0.5166  0.5435 -0.5452
 3673TIP3   OH210982   1.320   3.010   5.564  0.3152  0.0073  0.6222
 3673TIP3    H110983   1.269   3.032   5.486  1.5472  1.4347  0.1804
 3673TIP3    H210984   1.263   2.951   5.614 -1.3784  0.8069 -0.2863
 3674TIP3   OH210985   0.910   4.889   2.274  0.2165  0.1191  0.2691
 3674TIP3    H110986   0.837   4.951   2.277  0.9134  0.9200  1.0188
 3674TIP3    H210987   0.948   4.900   2.187 -1.2722 -1.1851 -0.6092
 3675TIP3   OH210988   4.008   3.486   4.578  0.6129  0.0371 -0.5300
 3675TIP3    H110989   3.989   3.443   4.494  1.0229 -1.3833  0.0807
 3675TIP3    H210990   3.933   3.466   4.633 -0.8848  3.0872 -1.2567
 3676TIP3   OH210991   6.562   2.109   4.456  0.3016 -0.4979  0.1239
 3676TIP3    H110992   6.548   2.076   4.367  0.2587  1.1408 -0.5212
 3676TIP3    H210993   6.655   2.095   4.473  0.3912 -0.4860 -0.3404
 3677TIP3   OH210994   5.505   5.715   1.081  0.3443  0.5318 -0.2817
 3677TIP3    H110995   5.537   5.695   0.994 -0.3206 -0.4113 -0.3166
 3677TIP3    H210996   5.453   5.795   1.070 -0.2083  0.0940 -0.8493
 3678TIP3   OH210997   4.394   6.471   5.015 -0.5616  0.0043  0.6221
 3678TIP3    H110998   4.411   6.544   5.075  0.8324  1.0136 -0.9158
 3678TIP3    H210999   4.482   6.440   4.991 -1.0676 -0.0316 -1.2903
 3679TIP3   OH211000   4.415   0.235   2.245 -0.1126 -0.2181  0.3072
 3679TIP3    H111001   4.463   0.169   2.196 -0.0326  0.8647 -1.1223
 3679TIP3    H211002   4.339   0.188   2.281  1.6056 -1.8127  2.0859
 3680TIP3   OH211003   1.889   6.048   0.807 -0.2418 -0.1846  0.0471
 3680TIP3    H111004   1.803   6.018   0.776 -1.1835 -0.6500  2.7818
 3680TIP3    H211005   1.887   6.143   0.794 -0.8961 -0.2636 -0.5080
 3681TIP3   OH211006   1.062   0.696   0.961 -0.0023 -0.2435 -0.1118
 3681TIP3    H111007   1.121   0.764   0.995 -0.2862 -0.7128  1.4110
 3681TIP3    H211008   0.982   0.743   0.939 -0.1359 -0.0478  0.7597
 3682TIP3   OH211009   3.549   6.288   0.614 -0.0031 -0.7807  0.0660
 3682TIP3    H111010   3.501   6.327   0.688  0.4382 -1.3040  0.6410
 3682TIP3    H211011   3.616   6.352   0.592  2.6503 -2.2902  2.9127
 3683TIP3   OH211012   5.089   6.386   4.937  0.3180  0.3202 -0.6694
 3683TIP3    H111013   5.014   6.341   4.899  0.3335 -0.5765  0.2902
 3683TIP3    H211014   5.070   6.479   4.927  1.2312  0.2515 -4.6314
 3684TIP3   OH211015   6.896   3.975   3.003 -0.1119  0.6962  0.3649
 3684TIP3    H111016   6.935   3.943   2.922 -0.0432 -0.7952  0.9625
 3684TIP3    H211017   6.808   4.003   2.978  0.0050  0.5032 -0.2760
 3685TIP3   OH211018   3.833   2.306   4.699 -0.4006 -0.4688  0.3415
 3685TIP3    H111019   3.840   2.393   4.740 -0.7237 -0.6599  0.8080
 3685TIP3    H211020   3.758   2.314   4.641  0.0907 -0.1808 -0.2643
 3686TIP3   OH211021   3.237   4.352   0.812  0.4672 -0.0823 -0.5689
 3686TIP3    H111022   3.198   4.290   0.750 -1.4579  0.2301  0.2459
 3686TIP3    H211023   3.304   4.397   0.762 -0.7410 -0.1268 -2.3215
 3687TIP3   OH211024   7.132   1.447   0.322  0.5846  0.3484  0.3420
 3687TIP3    H111025   7.065   1.401   0.272 -0.4090  0.9084  1.1231
 3687TIP3    H211026   7.202   1.464   0.259 -0.1644  0.0716 -0.5835
 3688TIP3   OH211027   1.867   0.560   4.558  0.0882  0.0255 -0.0748
 3688TIP3    H111028   1.822   0.611   4.491  2.3333  0.3714 -1.4390
 3688TIP3    H211029   1.893   0.625   4.624 -0.0224  0.0848 -0.0892
 3689TIP3   OH211030   4.574   0.536   0.154  0.3891 -0.1017  0.3329
 3689TIP3    H111031   4.604   0.526   0.244  0.0664 -1.6493  0.3021
 3689TIP3    H211032   4.513   0.463   0.140  0.2122  0.2678 -1.0463
 3690TIP3   OH211033   0.116   5.985   5.341  0.1517 -0.0935  0.0554
 3690TIP3    H111034   0.124   5.892   5.362 -0.8952 -0.4002 -0.8166
 3690TIP3    H211035   0.174   5.998   5.267  0.1530 -0.0924  0.0566
 3691TIP3   OH211036   3.265   4.674   4.600  0.8469 -0.0834 -0.3584
 3691TIP3    H111037   3.329   4.698   4.533  1.3963 -2.8264 -0.9318
 3691TIP3    H211038   3.315   4.668   4.681  0.9183 -0.2850 -0.4172
 3692TIP3   OH211039   6.501   0.963   5.711 -0.6428  0.4426 -0.2771
 3692TIP3    H111040   6.540   0.977   5.624 -0.3203  3.7868  0.2551
 3692TIP3    H211041   6.562   0.904   5.755 -0.8982 -1.4697 -2.3082
 3693TIP3   OH211042   6.173   2.436   1.347 -0.1416  0.8882  0.9940
 3693TIP3    H111043   6.167   2.486   1.429  1.2521 -0.2289  1.8244
 3693TIP3    H211044   6.238   2.483   1.295  1.4561 -0.1889  1.9310
 3694TIP3   OH211045   6.863   4.291   2.968 -0.0908 -0.2403 -0.1182
 3694TIP3    H111046   6.851   4.266   3.059 -0.3421  0.9213  0.1824
 3694TIP3    H211047   6.831   4.381   2.963  1.0344  0.1290 -1.0884
 3695TIP3   OH211048   1.554   5.054   4.151  0.2494 -0.2236 -0.1498
 3695TIP3    H111049   1.581   4.965   4.129 -0.2200 -0.3987 -0.0379
 3695TIP3    H211050   1.636   5.104   4.158  0.4569  0.4161 -4.5280
 3696TIP3   OH211051   3.978   3.728   4.463 -0.3998  0.0290 -0.7946
 3696TIP3    H111052   3.997   3.656   4.523 -0.8302 -1.8426 -2.7738
 3696TIP3    H211053   4.063   3.750   4.425 -0.2272  0.7921 -0.0059
 3697TIP3   OH211054   0.253   2.972   1.288  0.0164  0.1804  0.2701
 3697TIP3    H111055   0.213   3.002   1.207 -2.9324  2.2670  2.2841
 3697TIP3    H211056   0.237   2.878   1.291 -0.5176  0.2127 -1.1665
 3698TIP3   OH211057   4.530   2.346   5.124 -0.0590 -0.2870  0.1931
 3698TIP3    H111058   4.474   2.321   5.051 -1.7590 -0.3980  1.4689
 3698TIP3    H211059   4.515   2.277   5.189  1.5730 -0.3007  0.5883
 3699TIP3   OH211060   2.938   1.394   3.198 -0.4684 -0.0690 -0.5053
 3699TIP3    H111061   2.986   1.438   3.268 -1.2763  0.0850 -0.0294
 3699TIP3    H211062   3.003   1.378   3.130  0.4801 -0.8069  0.5419
 3700TIP3   OH211063   1.828   5.270   0.205 -0.2212 -0.2341  0.2851
 3700TIP3    H111064   1.836   5.215   0.283  1.1571  0.8357  0.9432
 3700TIP3    H211065   1.813   5.358   0.240  1.2210  0.3983 -0.6153
 3701TIP3   OH211066   4.245   1.343   0.531 -0.0854  0.3709  0.4016
 3701TIP3    H111067   4.286   1.352   0.617  0.9239  0.1232 -0.0431
 3701TIP3    H211068   4.303   1.390   0.472 -0.4323 -0.0049 -0.2458
 3702TIP3   OH211069   4.316   4.690   2.409  0.0040 -0.2412  0.6488
 3702TIP3    H111070   4.403   4.721   2.433  0.0883 -0.6986  0.9511
 3702TIP3    H211071   4.291   4.742   2.332  0.5521 -0.1283  0.5494
 3703TIP3   OH211072   5.016   3.109   1.786  0.0202  0.4727  0.3777
 3703TIP3    H111073   4.921   3.106   1.792  0.0001 -1.3336 -0.0990
 3703TIP3    H211074   5.034   3.155   1.704 -0.5000 -0.2933 -0.1784
 3704TIP3   OH211075   0.120   3.011   5.510  0.0723 -0.2959  0.9748
 3704TIP3    H111076   0.173   2.995   5.432 -0.4595 -1.2131  0.7910
 3704TIP3    H211077   0.184   3.029   5.579  0.5219  1.8849  0.0716
 3705TIP3   OH211078   5.432   2.865   5.212  0.1034  0.2750  0.4157
 3705TIP3    H111079   5.436   2.882   5.306 -2.5053  1.7965  0.3589
 3705TIP3    H211080   5.489   2.931   5.173  1.5544 -0.6489  0.9021
 3706TIP3   OH211081   5.834   2.401   4.757 -0.1531  0.2744 -0.1911
 3706TIP3    H111082   5.918   2.435   4.727  0.2068  0.6488  1.1379
 3706TIP3    H211083   5.832   2.310   4.727  0.0383  0.6981 -1.5367
 3707TIP3   OH211084   7.040   1.433   0.733 -0.2685  0.5840  0.2056
 3707TIP3    H111085   7.123   1.473   0.760  0.0179 -0.7338  1.4053
 3707TIP3    H211086   7.002   1.399   0.814 -1.2384 -0.1931 -0.5461
 3708TIP3   OH211087   2.855   2.083   0.415 -0.1640  0.3158  0.0859
 3708TIP3    H111088   2.897   2.063   0.499  0.7756  0.5079 -0.3204
 3708TIP3    H211089   2.852   1.999   0.369 -0.9032  0.1654  0.4094
 3709TIP3   OH211090   1.488   1.837   2.295  0.4656  0.1258 -0.1935
 3709TIP3    H111091   1.452   1.748   2.299 -1.1840  0.7544 -0.0259
 3709TIP3    H211092   1.562   1.831   2.234 -0.4822 -1.0899 -1.2830
 3710TIP3   OH211093   5.051   5.989   1.787  0.3317 -0.4337 -0.5011
 3710TIP3    H111094   5.033   5.985   1.881  0.9855  0.3570 -0.3334
 3710TIP3    H211095   5.025   5.903   1.755 -0.7412 -0.4092  0.2447
 3711TIP3   OH211096   0.299   1.317   3.977 -0.1846 -0.3704  0.0940
 3711TIP3    H111097   0.233   1.301   4.045  0.7467 -0.5766  0.9748
 3711TIP3    H211098   0.314   1.231   3.937  0.3872 -0.5498  0.6844
 3712TIP3   OH211099   6.662   0.383   3.853  0.1836  0.2633 -0.5712
 3712TIP3    H111100   6.672   0.476   3.876 -0.9132  0.1886  0.2532
 3712TIP3    H211101   6.671   0.337   3.936 -1.8282 -0.1622 -0.5606
 3713TIP3   OH211102   3.601   0.287   0.214  0.0531  0.0861 -0.0546
 3713TIP3    H111103   3.595   0.368   0.264 -2.0204 -1.6697  2.8221
 3713TIP3    H211104   3.512   0.253   0.213  0.5354 -1.3805 -2.6844
 3714TIP3   OH211105   0.167   4.377   2.713 -0.8946  0.2880 -0.1776
 3714TIP3    H111106   0.130   4.315   2.776 -0.2298 -0.1966 -0.2571
 3714TIP3    H211107   0.135   4.346   2.628 -0.6265  0.0962 -0.2099
 3715TIP3   OH211108   5.847   0.858   5.416  0.0201  0.1988 -0.4632
 3715TIP3    H111109   5.857   0.913   5.494 -1.8432  0.0219 -0.0452
 3715TIP3    H211110   5.811   0.917   5.349 -0.1952 -0.0809 -0.5964
 3716TIP3   OH211111   6.664   3.048   0.405 -0.3650 -0.2095  0.1730
 3716TIP3    H111112   6.730   3.004   0.458  0.5338 -1.3008 -1.7303
 3716TIP3    H211113   6.582   3.003   0.427 -0.3116  0.3728  1.6911
 3717TIP3   OH211114   4.396   4.209   1.193 -0.5534  0.0091  0.3625
 3717TIP3    H111115   4.367   4.260   1.118  2.6403  3.1957  1.0432
 3717TIP3    H211116   4.483   4.176   1.168 -0.9487 -1.9782  1.3991
 3718TIP3   OH211117   2.734   4.572   4.193 -0.2650 -0.1436 -0.1715
 3718TIP3    H111118   2.823   4.585   4.160 -0.9474  0.7567 -1.7410
 3718TIP3    H211119   2.679   4.628   4.139 -1.8901 -1.1186  0.3770
 3719TIP3   OH211120   4.670   4.289   3.767  0.2949  0.4088 -0.8620
 3719TIP3    H111121   4.626   4.215   3.725 -0.5608  0.1596  0.4016
 3719TIP3    H211122   4.600   4.342   3.802  0.9577  0.8288 -0.1384
 3720TIP3   OH211123   3.289   3.315   3.983  0.6823 -0.0304 -0.3970
 3720TIP3    H111124   3.290   3.326   4.078 -0.9750 -1.1923 -0.2074
 3720TIP3    H211125   3.213   3.260   3.966  0.9087  0.2116 -2.4178
 3721TIP3   OH211126   1.243   3.725   0.384  0.2132  0.8071 -0.0845
 3721TIP3    H111127   1.325   3.674   0.385  0.2779  0.9122  0.0620
 3721TIP3    H211128   1.248   3.778   0.464  0.7256  1.9615 -0.8577
 3722TIP3   OH211129   2.039   4.285   2.121 -0.0951 -0.0769  0.2362
 3722TIP3    H111130   2.076   4.372   2.106  0.3119 -0.1334  0.8777
 3722TIP3    H211131   2.105   4.240   2.172  0.2080 -1.1655 -1.0539
 3723TIP3   OH211132   0.242   4.281   1.764 -0.3524  0.2923 -0.0774
 3723TIP3    H111133   0.150   4.270   1.741 -0.3478  0.0281  0.0280
 3723TIP3    H211134   0.289   4.255   1.684 -0.3406 -0.5158  0.1842
 3724TIP3   OH211135   0.564   5.786   1.343  0.0360 -0.7311 -0.3973
 3724TIP3    H111136   0.473   5.773   1.368  0.6236 -0.3211  2.2842
 3724TIP3    H211137   0.613   5.783   1.426  2.0271  2.5243 -1.2336
 3725TIP3   OH211138   6.559   6.765   2.549 -0.2291  0.0150 -0.5162
 3725TIP3    H111139   6.467   6.749   2.569 -0.1365 -1.5311 -1.1675
 3725TIP3    H211140   6.584   6.692   2.493  0.4725  2.1935 -3.2769
 3726TIP3   OH211141   1.643   3.996   3.792  0.1827 -0.3127 -0.4960
 3726TIP3    H111142   1.673   4.055   3.723  1.9020 -1.6897 -1.0097
 3726TIP3    H211143   1.658   3.908   3.757 -1.2342 -1.0778  0.6786
 3727TIP3   OH211144   0.760   6.456   0.152 -0.4531  0.3313 -0.5374
 3727TIP3    H111145   0.724   6.542   0.173 -2.4535 -0.9536  1.7196
 3727TIP3    H211146   0.692   6.394   0.178  2.0984 -2.1013  0.8885
 3728TIP3   OH211147  -0.013   4.720   4.883 -0.9430  0.5806  0.4372
 3728TIP3    H111148   0.038   4.703   4.962 -2.3297 -1.6252  0.9171
 3728TIP3    H211149  -0.020   4.636   4.839 -1.7206  1.4093 -1.1353
 3729TIP3   OH211150   3.278   6.264   2.539 -0.1691  0.0914 -0.4052
 3729TIP3    H111151   3.272   6.183   2.589  1.7782  0.1216 -0.0369
 3729TIP3    H211152   3.216   6.323   2.581  0.6222 -0.2364  1.3084
 3730TIP3   OH211153   5.684   3.018   2.004 -0.5132 -0.2844  0.0337
 3730TIP3    H111154   5.633   3.059   2.074 -1.2507 -0.2070 -0.5399
 3730TIP3    H211155   5.633   2.940   1.980 -0.2365 -0.3395 -0.3843
 3731TIP3   OH211156   3.988   5.085   5.641  0.3882 -0.7531  0.4737
 3731TIP3    H111157   4.035   5.061   5.561 -2.9315 -3.1194 -0.9921
 3731TIP3    H211158   4.054   5.079   5.710  3.0462 -0.0857 -1.8383
 3732TIP3   OH211159   3.658   4.687   3.289 -0.1267 -0.2615  0.3266
 3732TIP3    H111160   3.664   4.594   3.267 -0.1027  0.0871 -1.2408
 3732TIP3    H211161   3.567   4.710   3.271 -0.1766 -0.0234  0.8782
 3733TIP3   OH211162   3.105   6.590   5.321 -0.5737 -0.0958 -0.3735
 3733TIP3    H111163   3.078   6.559   5.234  0.3386  2.1189 -1.5423
 3733TIP3    H211164   3.029   6.638   5.353 -0.6556 -0.2952 -0.2679
 3734TIP3   OH211165   0.441   1.925   2.947 -0.3439 -0.0466 -0.8412
 3734TIP3    H111166   0.521   1.976   2.962 -0.6643  0.1709  0.2459
 3734TIP3    H211167   0.378   1.960   3.010 -1.1330 -0.5896 -1.3039
 3735TIP3   OH211168   2.501   0.139   1.456 -0.4765  0.1709 -0.4523
 3735TIP3    H111169   2.501   0.090   1.374  1.0279 -0.8912  0.1404
 3735TIP3    H211170   2.566   0.095   1.510 -1.9813  0.3571  1.6206
 3736TIP3   OH211171   5.923   1.483   1.931 -0.2812 -0.5861 -0.3539
 3736TIP3    H111172   5.927   1.449   1.841 -1.2724 -1.0303 -0.2409
 3736TIP3    H211173   5.833   1.512   1.942 -0.0493 -0.0995  0.3544
 3737TIP3   OH211174   5.425   0.029   1.046  0.6955  0.0621 -0.1172
 3737TIP3    H111175   5.365   0.076   1.103  2.5712 -0.7499  2.7700
 3737TIP3    H211176   5.384  -0.057   1.033  0.5259  0.0408  0.5477
 3738TIP3   OH211177   2.296   6.457   2.026  0.0313  0.7268  0.0929
 3738TIP3    H111178   2.364   6.497   1.972 -0.0546  0.1482 -0.4606
 3738TIP3    H211179   2.288   6.368   1.991  0.4447  0.1207  1.4929
 3739TIP3   OH211180   3.229   4.923   0.367  0.2775 -0.0438 -0.2425
 3739TIP3    H111181   3.208   4.904   0.276  2.3771 -0.7354 -0.6370
 3739TIP3    H211182   3.189   5.008   0.384 -0.3347 -0.0082 -1.7303
 3740TIP3   OH211183   3.527   4.107   5.804  0.2909 -0.6707 -0.0195
 3740TIP3    H111184   3.609   4.069   5.837  0.0474 -1.4053 -0.2446
 3740TIP3    H211185   3.546   4.127   5.712  1.0678  1.6561  0.5814
 3741TIP3   OH211186   5.590   1.314   5.707 -0.6053  0.0969 -0.2238
 3741TIP3    H111187   5.633   1.349   5.628  0.3272  2.6479  1.2785
 3741TIP3    H211188   5.504   1.357   5.708 -0.6087  0.0825  0.1422
 3742TIP3   OH211189   6.382   3.366   5.182 -0.0772 -0.6108  0.2171
 3742TIP3    H111190   6.315   3.364   5.113 -1.8689 -1.6207  1.8965
 3742TIP3    H211191   6.449   3.426   5.148 -1.0755 -0.7493 -2.1986
 3743TIP3   OH211192   5.403   4.885   2.082  0.7465  0.3266  0.2520
 3743TIP3    H111193   5.480   4.935   2.109 -0.2869  0.4502  3.4067
 3743TIP3    H211194   5.334   4.950   2.073  0.5585  0.0015 -0.7868
 3744TIP3   OH211195   1.291   3.073   1.438  0.0527  0.8054  0.3944
 3744TIP3    H111196   1.207   3.032   1.417  0.1042  0.5172  0.7480
 3744TIP3    H211197   1.316   3.036   1.523 -0.6436  2.7125  1.4919
 3745TIP3   OH211198   2.576   4.908   0.511 -0.5328  0.4119 -0.1165
 3745TIP3    H111199   2.666   4.943   0.516 -0.4575  0.0821  1.0749
 3745TIP3    H211200   2.580   4.843   0.441 -0.2265  1.4817 -1.1273
 3746TIP3   OH211201   0.847   0.952   4.120 -0.0898  0.4061 -0.2323
 3746TIP3    H111202   0.799   0.880   4.078  0.0680  0.3692 -0.3518
 3746TIP3    H211203   0.921   0.969   4.061  0.6536 -0.2545  0.4715
 3747TIP3   OH211204   1.831   4.304   0.974 -0.1678  0.1453 -0.2802
 3747TIP3    H111205   1.757   4.283   0.917  0.3391  0.1876 -0.9695
 3747TIP3    H211206   1.826   4.240   1.045 -1.4944  0.8243  0.2763
 3748TIP3   OH211207   3.192   0.943   4.078  0.1874 -0.2660  0.5240
 3748TIP3    H111208   3.155   0.943   4.166  0.7444 -0.7173  0.7586
 3748TIP3    H211209   3.280   0.978   4.088  0.0012  0.3691  0.0314
 3749TIP3   OH211210   5.133   1.849   2.288 -0.4765  0.4798 -1.0269
 3749TIP3    H111211   5.182   1.795   2.350 -1.2968  0.8631 -0.0157
 3749TIP3    H211212   5.160   1.817   2.202 -2.1386 -2.7392 -0.5069
 3750TIP3   OH211213   0.394   6.454   0.713  0.5068  0.2215 -0.0231
 3750TIP3    H111214   0.477   6.501   0.711 -0.5487  2.1466 -1.5651
 3750TIP3    H211215   0.338   6.508   0.769 -0.4114  0.2803 -0.9711
 3751TIP3   OH211216   6.754   4.943  -0.020 -0.5289 -0.7867 -0.0765
 3751TIP3    H111217   6.841   4.942   0.019 -0.5439  0.5765  0.0309
 3751TIP3    H211218   6.710   5.017   0.022 -0.2353  1.3995 -3.2536
 3752TIP3   OH211219   4.653   5.414   2.090  0.1026 -0.3345  0.6414
 3752TIP3    H111220   4.629   5.434   2.181 -2.3386 -0.4922  0.1119
 3752TIP3    H211221   4.575   5.372   2.054  0.8210  0.2031 -1.6867
 3753TIP3   OH211222   6.335   0.241   5.258  0.5596 -0.0125 -0.3018
 3753TIP3    H111223   6.241   0.228   5.250  0.7499 -0.9196 -1.3071
 3753TIP3    H211224   6.373   0.156   5.236  1.6524  0.6319 -0.9841
 3754TIP3   OH211225   3.824   0.173   2.944 -0.0637 -0.3045  0.3349
 3754TIP3    H111226   3.895   0.154   3.006 -0.6803  0.6606  1.3717
 3754TIP3    H211227   3.827   0.100   2.881 -0.3627 -2.1587  2.3510
 3755TIP3   OH211228   4.029   3.266   3.312 -0.0664  0.1866 -0.0603
 3755TIP3    H111229   3.952   3.270   3.255  1.0033 -0.0168 -1.5884
 3755TIP3    H211230   4.092   3.213   3.263  0.9973  0.2158  1.2237
 3756TIP3   OH211231   7.170   6.359   1.156 -0.0953 -0.0366  0.6482
 3756TIP3    H111232   7.173   6.265   1.141  0.1534  0.1561 -0.6280
 3756TIP3    H211233   7.085   6.374   1.198 -1.7748 -0.4733 -2.2645
 3757TIP3   OH211234   6.439   6.349   0.291 -0.0216 -1.0094  0.0701
 3757TIP3    H111235   6.377   6.360   0.363 -0.4779 -0.1637 -0.4281
 3757TIP3    H211236   6.433   6.432   0.242  0.1390 -1.6367 -1.0436
 3758TIP3   OH211237   1.145   6.254   4.133  0.1900 -0.2796 -0.4141
 3758TIP3    H111238   1.186   6.252   4.219  0.2218 -2.7462 -0.4299
 3758TIP3    H211239   1.062   6.208   4.145 -0.0582 -0.1709 -1.5821
 3759TIP3   OH211240   6.066   1.869   4.545  0.3401  0.5302  0.1136
 3759TIP3    H111241   5.974   1.886   4.526  0.2706  1.3866  1.1474
 3759TIP3    H211242   6.113   1.896   4.466 -0.3605 -0.8396 -0.8043
 3760TIP3   OH211243   4.788   4.233   2.247  0.6597  0.2290 -0.2711
 3760TIP3    H111244   4.749   4.289   2.313  1.9745 -0.5536  1.2373
 3760TIP3    H211245   4.881   4.256   2.247  0.7002  0.1951 -1.8442
 3761TIP3   OH211246   0.591   5.362   5.079  0.5629  0.1940 -0.2584
 3761TIP3    H111247   0.560   5.306   5.008 -1.1075  0.3439  0.3197
 3761TIP3    H211248   0.555   5.448   5.060  0.3473  0.3073  0.6107
 3762TIP3   OH211249   1.592   0.317   3.822 -0.5056  0.0907 -0.1093
 3762TIP3    H111250   1.588   0.224   3.843  1.8861  0.0826  0.6852
 3762TIP3    H211251   1.510   0.335   3.777 -0.9988 -2.4211 -0.3860
 3763TIP3   OH211252   3.292   4.691   4.137  0.5830 -0.3925  0.1749
 3763TIP3    H111253   3.274   4.599   4.155  0.2614 -0.8529 -2.1408
 3763TIP3    H211254   3.370   4.690   4.081 -0.6968  0.5151 -1.7512
 3764TIP3   OH211255   0.429   6.403   5.634  0.0400  0.6367  0.1963
 3764TIP3    H111256   0.481   6.479   5.607 -0.0694  0.6550  0.0354
 3764TIP3    H211257   0.432   6.344   5.559  1.0720 -0.0250  0.7300
 3765TIP3   OH211258   0.843   2.566   2.722  0.2730 -0.1221  0.0380
 3765TIP3    H111259   0.835   2.557   2.817  1.0743  0.1554  0.1414
 3765TIP3    H211260   0.766   2.521   2.687 -0.2702  0.1642  0.8308
 3766TIP3   OH211261   4.940   1.806   4.124 -0.1983 -0.4424  0.1493
 3766TIP3    H111262   4.863   1.799   4.068  0.8643  0.5591 -1.5100
 3766TIP3    H211263   5.014   1.788   4.067  0.8828 -0.2771  1.4423
 3767TIP3   OH211264   1.964   1.169   3.290  0.5010  0.0122  0.1613
 3767TIP3    H111265   1.943   1.211   3.207  0.6112 -0.0552  0.1002
 3767TIP3    H211266   2.005   1.238   3.342 -0.9139  0.4747  0.7039
 3768TIP3   OH211267   6.711   3.247   4.877  0.1702 -0.1201 -0.4548
 3768TIP3    H111268   6.798   3.210   4.862 -0.2324 -0.9453 -0.7806
 3768TIP3    H211269   6.656   3.210   4.808 -0.3462  0.7578 -0.5354
 3769TIP3   OH211270   1.402   2.861   3.332  0.1403 -0.1065  0.4394
 3769TIP3    H111271   1.479   2.900   3.290 -0.6352  1.5325  0.4638
 3769TIP3    H211272   1.438   2.807   3.402  1.3567 -1.2841 -1.0239
 3770TIP3   OH211273   5.978   5.609   4.318 -0.3818  0.7796  0.3865
 3770TIP3    H111274   6.033   5.583   4.243 -0.3075 -0.7097  0.9265
 3770TIP3    H211275   5.941   5.694   4.292  0.2637  0.6669 -1.0059
 3771TIP3   OH211276   0.159   1.790   4.071  0.0491 -0.1781 -0.0531
 3771TIP3    H111277   0.236   1.824   4.026  0.6710 -0.2777  0.9162
 3771TIP3    H211278   0.089   1.852   4.048  0.2185 -0.4848 -1.5174
 3772TIP3   OH211279   7.187   0.543   4.556  0.0989 -0.1146  0.1643
 3772TIP3    H111280   7.194   0.558   4.650 -1.2417  0.1962  0.2342
 3772TIP3    H211281   7.203   0.449   4.546  0.7607 -0.0592  0.6318
 3773TIP3   OH211282   4.455   1.166   1.937  0.1807  1.0716 -0.0132
 3773TIP3    H111283   4.550   1.168   1.923  0.7932 -1.9348  2.4331
 3773TIP3    H211284   4.418   1.153   1.850  2.0931  1.3303 -0.9231
 3774TIP3   OH211285   3.392   4.861   2.752 -0.7807  0.1558  0.0034
 3774TIP3    H111286   3.401   4.788   2.690  0.7913 -0.6803  1.1412
 3774TIP3    H211287   3.362   4.819   2.833 -0.0725  0.7878  0.6044
 3775TIP3   OH211288   1.686   2.795   4.596  0.4615 -0.0727  0.6146
 3775TIP3    H111289   1.673   2.785   4.502 -0.5914  1.4039  0.5863
 3775TIP3    H211290   1.629   2.729   4.635 -0.4667  0.5124  0.2607
 3776TIP3   OH211291   1.881   1.657   3.564  0.0491  0.1574 -0.5194
 3776TIP3    H111292   1.787   1.670   3.574  0.0810 -0.6176  1.1048
 3776TIP3    H211293   1.912   1.740   3.527 -0.8116  1.8585  2.2346
 3777TIP3   OH211294   0.025   4.008   0.022 -0.1783  0.0811 -0.3633
 3777TIP3    H111295   0.111   4.043   0.044 -0.9178  1.9891 -0.3692
 3777TIP3    H211296  -0.024   4.011   0.105 -0.9648  1.2587 -0.8493
 3778TIP3   OH211297   5.503   5.552   1.657  0.3865 -0.5226  0.1430
 3778TIP3    H111298   5.583   5.552   1.709  0.3440 -0.5148  0.2099
 3778TIP3    H211299   5.458   5.472   1.682  0.7964 -0.9847 -0.5620
 3779TIP3   OH211300   2.390   0.067   3.767  0.2340  0.1538  0.0945
 3779TIP3    H111301   2.477   0.039   3.741 -0.4989 -3.0588  0.6796
 3779TIP3    H211302   2.405   0.144   3.823  2.4502  1.1044 -1.6627
 3780TIP3   OH211303   5.396   2.879   2.202 -0.2445 -0.2558  0.3345
 3780TIP3    H111304   5.396   2.786   2.222  1.5344 -0.6039 -1.1096
 3780TIP3    H211305   5.310   2.895   2.162 -0.4701 -1.3020  0.3794
 3781TIP3   OH211306   4.093   0.380   2.228 -0.2253  0.5587 -0.6309
 3781TIP3    H111307   4.077   0.355   2.320  0.6915 -0.3358 -0.6921
 3781TIP3    H211308   4.124   0.470   2.233  1.1333  0.0808  0.0870
 3782TIP3   OH211309   3.326   2.034   0.529  0.4588 -0.0244 -0.2423
 3782TIP3    H111310   3.330   2.083   0.447  0.6609  0.9791  0.3480
 3782TIP3    H211311   3.398   2.069   0.581  0.3006 -0.6143  0.3874
 3783TIP3   OH211312   6.518   4.589   5.576  0.5022 -0.5009  0.1592
 3783TIP3    H111313   6.521   4.562   5.484 -0.5395  0.4265 -0.1548
 3783TIP3    H211314   6.463   4.523   5.618 -0.1348 -0.1814 -0.1578
 3784TIP3   OH211315   6.907   0.044   4.810 -0.1797 -0.3823  0.2279
 3784TIP3    H111316   6.900   0.069   4.717  1.8599  0.0170  0.1422
 3784TIP3    H211317   6.950   0.119   4.851 -2.5668  0.1798  1.8851
 3785TIP3   OH211318   1.234   1.851   2.918 -0.4554 -0.0555 -0.3319
 3785TIP3    H111319   1.154   1.868   2.869 -0.4107  0.2493 -0.2992
 3785TIP3    H211320   1.241   1.756   2.920 -1.7272 -0.1626  1.1000
 3786TIP3   OH211321   0.903   6.096   0.172 -0.4466  0.7376 -0.2600
 3786TIP3    H111322   0.949   6.178   0.189 -1.1179  1.1011 -0.1909
 3786TIP3    H211323   0.906   6.087   0.076  1.5744 -0.3036 -0.1661
 3787TIP3   OH211324   1.444   0.031   1.060 -0.2056  0.2559  0.1639
 3787TIP3    H111325   1.512   0.024   0.993  2.3508 -0.2020  2.6245
 3787TIP3    H211326   1.447  -0.054   1.105 -1.7207  0.6065  0.9686
 3788TIP3   OH211327   6.160   0.194   4.378 -0.1252 -0.5070 -0.2797
 3788TIP3    H111328   6.209   0.242   4.444 -0.9898  1.0909 -0.7270
 3788TIP3    H211329   6.165   0.102   4.405  0.4026 -0.0105  1.4167
 3789TIP3   OH211330   0.529   1.275   3.435  0.4158 -0.1477 -0.2103
 3789TIP3    H111331   0.518   1.365   3.467  1.2129 -0.3392  0.6580
 3789TIP3    H211332   0.505   1.279   3.342  1.2308  1.1396 -0.3926
 3790TIP3   OH211333   3.242   2.877   1.898  1.0801 -0.2513  0.1972
 3790TIP3    H111334   3.148   2.878   1.915  1.0625 -1.8605  0.3123
 3790TIP3    H211335   3.269   2.968   1.910 -0.2290  0.0034  1.4553
 3791TIP3   OH211336   3.143   0.844   3.827  0.1886 -0.0949  0.2289
 3791TIP3    H111337   3.174   0.864   3.915  0.9884  0.5487 -0.1885
 3791TIP3    H211338   3.051   0.819   3.839  0.1659  0.4183  1.1975
 3792TIP3   OH211339   5.945   5.631   1.424  0.1901  0.2114 -0.5378
 3792TIP3    H111340   5.934   5.683   1.504  0.5946  1.3490 -1.2079
 3792TIP3    H211341   5.861   5.637   1.379  0.6462  1.4083 -1.2600
 3793TIP3   OH211342   1.931   2.704   4.721  0.3710  0.6193  0.0417
 3793TIP3    H111343   1.847   2.748   4.711  0.0130  0.2568  1.3838
 3793TIP3    H211344   1.922   2.649   4.798  2.2728  1.6020  1.0477
 3794TIP3   OH211345   4.518   4.616   2.074  0.5494  0.3127  0.2768
 3794TIP3    H111346   4.529   4.663   2.157  1.0019  0.6139  0.0501
 3794TIP3    H211347   4.431   4.640   2.044  1.1387  1.8279 -0.3311
 3795TIP3   OH211348   3.504   6.218   2.782 -0.1454  0.5770  0.5543
 3795TIP3    H111349   3.467   6.278   2.718  1.8583 -1.0993 -2.4106
 3795TIP3    H211350   3.459   6.239   2.864 -2.0089  3.6538 -1.0898
 3796TIP3   OH211351   3.094   1.903   5.030 -0.3912 -0.1867  0.1879
 3796TIP3    H111352   3.039   1.854   4.969 -1.2019  0.4286  0.4071
 3796TIP3    H211353   3.151   1.956   4.974 -1.6397  0.9429 -0.0620
 3797TIP3   OH211354   1.613   0.734   0.131 -0.5982  0.0507 -0.3747
 3797TIP3    H111355   1.640   0.651   0.093 -1.3646 -1.8036  2.7274
 3797TIP3    H211356   1.561   0.709   0.208  1.9308  3.2714  2.7261
 3798TIP3   OH211357   4.735   2.574   0.273  0.1097  0.0738  0.5569
 3798TIP3    H111358   4.698   2.662   0.270  1.3771  0.6012 -0.4491
 3798TIP3    H211359   4.680   2.527   0.336 -0.7947  1.4731  0.8541
 3799TIP3   OH211360   2.755   2.061   2.910 -0.0918 -0.0591  0.1792
 3799TIP3    H111361   2.754   1.988   2.848 -2.4243  0.2425 -0.2050
 3799TIP3    H211362   2.778   2.137   2.856 -1.2085  0.0495 -0.1749
 3800TIP3   OH211363   6.675   2.039   3.725 -0.2004 -0.6763  0.0469
 3800TIP3    H111364   6.582   2.017   3.740 -0.0187 -0.3928  1.9037
 3800TIP3    H211365   6.688   2.121   3.773  1.3040 -1.3891  0.9305
 3801TIP3   OH211366   1.970   0.926   5.040  0.2997 -0.0540  0.4951
 3801TIP3    H111367   1.952   0.903   4.949  0.2295 -0.3951  0.5938
 3801TIP3    H211368   1.884   0.920   5.083  0.1823  0.8998  0.4164
 3802TIP3   OH211369   6.339   2.841   4.138 -0.8473  0.2355  0.1246
 3802TIP3    H111370   6.406   2.885   4.084 -2.1011  0.6420 -1.1882
 3802TIP3    H211371   6.292   2.785   4.076 -3.0201  1.5019  0.5003
 3803TIP3   OH211372   3.958   1.510   0.322  0.2040  0.1637 -0.2878
 3803TIP3    H111373   3.968   1.415   0.318 -1.6113 -0.0898  0.3120
 3803TIP3    H211374   3.957   1.539   0.231 -1.2221 -0.6651 -0.5659
 3804TIP3   OH211375   6.821   1.590   0.699 -0.2177 -0.0819 -0.3926
 3804TIP3    H111376   6.779   1.521   0.647 -0.1375  0.3432 -1.0289
 3804TIP3    H211377   6.898   1.548   0.737 -1.0074 -0.7690  0.4920
 3805TIP3   OH211378   6.932   1.856   3.236  0.1467  0.2585 -0.1192
 3805TIP3    H111379   6.906   1.948   3.223 -1.2769 -0.3224 -1.7529
 3805TIP3    H211380   6.852   1.807   3.222  1.1231 -1.3194 -0.3612
 3806TIP3   OH211381   4.077   0.205   0.725  0.2116  0.9021  0.4791
 3806TIP3    H111382   4.102   0.262   0.798  0.1895  2.0166 -0.3617
 3806TIP3    H211383   4.120   0.121   0.744  1.9786  1.8083  0.6859
 3807TIP3   OH211384   4.028   2.702   2.322 -0.6298 -0.2348 -0.0200
 3807TIP3    H111385   4.074   2.784   2.338  1.6822 -1.6067  1.0062
 3807TIP3    H211386   4.044   2.683   2.230 -0.3961  0.0358 -0.0362
 3808TIP3   OH211387   4.215   4.266   1.388  0.2959  0.1695 -0.5365
 3808TIP3    H111388   4.272   4.320   1.443  0.3537 -0.4241 -0.0192
 3808TIP3    H211389   4.267   4.250   1.309  2.3101 -3.2640  1.2861
 3809TIP3   OH211390   1.620   6.083   5.108 -0.6404 -0.2720  0.0604
 3809TIP3    H111391   1.634   5.994   5.138 -0.8433  0.3210  2.0666
 3809TIP3    H211392   1.536   6.080   5.060 -0.3417 -1.2413 -0.4128
 3810TIP3   OH211393   3.240   5.151   4.160  0.4684 -0.0296  0.1949
 3810TIP3    H111394   3.320   5.161   4.109  1.7056  0.2564  2.0937
 3810TIP3    H211395   3.240   5.060   4.189 -1.2100 -0.7285 -1.7877
 3811TIP3   OH211396   5.619   3.475   2.543 -0.0303 -0.5202 -0.7080
 3811TIP3    H111397   5.571   3.520   2.473  1.2909  0.6266 -0.9284
 3811TIP3    H211398   5.586   3.386   2.541 -2.1069  0.1892 -0.8763
 3812TIP3   OH211399   0.843   5.510   4.448  0.2565  0.2175 -0.1857
 3812TIP3    H111400   0.837   5.562   4.528  0.3861 -0.0120 -0.0270
 3812TIP3    H211401   0.796   5.562   4.382 -0.1722  0.2286  0.1270
 3813TIP3   OH211402   0.893   2.078   1.111 -0.0797  0.0330 -0.3188
 3813TIP3    H111403   0.885   2.002   1.169  0.5122  0.6757  0.6245
 3813TIP3    H211404   0.906   2.152   1.170  0.4641  0.7173 -1.2776
 3814TIP3   OH211405   6.764   0.707   1.097  0.3261 -0.7843 -0.4015
 3814TIP3    H111406   6.826   0.652   1.145  0.3718 -0.1390  0.3006
 3814TIP3    H211407   6.808   0.792   1.090  0.2209 -0.8029 -1.3871
 3815TIP3   OH211408   2.611   4.129   0.536 -0.1398  0.3069 -0.1675
 3815TIP3    H111409   2.676   4.189   0.575 -0.9946  0.1188  1.6665
 3815TIP3    H211410   2.553   4.186   0.486 -1.5819  1.3082  2.4171
 3816TIP3   OH211411   2.756   6.543   4.474 -0.4540 -0.2862 -0.4291
 3816TIP3    H111412   2.744   6.628   4.430  0.6726 -0.1580 -0.5004
 3816TIP3    H211413   2.832   6.504   4.432  1.0739  0.1043  1.7530
 3817TIP3   OH211414   5.063   0.239   0.311 -0.5568  0.0506 -0.0004
 3817TIP3    H111415   4.996   0.270   0.250 -0.0686 -1.9831 -1.7193
 3817TIP3    H211416   5.040   0.278   0.395 -3.2705  0.2886 -0.7668
 3818TIP3   OH211417   4.308   4.158   0.274  0.1670  0.0589  0.4910
 3818TIP3    H111418   4.394   4.144   0.313 -0.4848 -2.6517  1.2151
 3818TIP3    H211419   4.301   4.090   0.207 -1.5583 -0.0835  0.7706
 3819TIP3   OH211420   2.862   6.526   3.261  0.0212 -0.1356  0.1747
 3819TIP3    H111421   2.851   6.431   3.268 -0.1346 -0.1739 -0.5960
 3819TIP3    H211422   2.800   6.561   3.325  0.7725 -0.5672  1.1737
 3820TIP3   OH211423   2.787   4.714   0.541  0.0784 -0.1892  0.3052
 3820TIP3    H111424   2.847   4.779   0.578 -2.2759  1.3485  1.6745
 3820TIP3    H211425   2.824   4.693   0.455  1.6970  1.8687  0.4254
 3821TIP3   OH211426   5.374   1.567   0.257  0.2163  0.2619 -1.0150
 3821TIP3    H111427   5.358   1.494   0.199 -1.3263  0.5965 -1.0598
 3821TIP3    H211428   5.330   1.641   0.216  1.8058  1.2597 -1.0134
 3822TIP3   OH211429   4.289   3.829   0.326 -0.1002  0.4375  0.3017
 3822TIP3    H111430   4.332   3.839   0.241 -0.1553  2.6221  0.4804
 3822TIP3    H211431   4.247   3.743   0.321  2.3229 -0.7631 -0.7425
 3823TIP3   OH211432   3.682   5.554   4.573  0.4856  0.0336 -0.0331
 3823TIP3    H111433   3.587   5.541   4.573  0.5239 -0.2719 -0.4549
 3823TIP3    H211434   3.710   5.522   4.659  0.3648 -1.1805 -0.4203
 3824TIP3   OH211435   5.814   4.168   3.584  0.2827 -0.0888  0.8774
 3824TIP3    H111436   5.838   4.096   3.642  0.8222 -1.0767 -0.5131
 3824TIP3    H211437   5.725   4.147   3.555  0.4385 -0.2076  0.4740
 3825TIP3   OH211438   5.646   0.564   3.361  0.1586 -0.4508 -0.0158
 3825TIP3    H111439   5.685   0.611   3.435 -0.4554 -0.6330  0.4392
 3825TIP3    H211440   5.698   0.484   3.353 -0.0813 -0.6704  0.5545
 3826TIP3   OH211441   0.395   1.784   2.690 -0.2966 -0.4101 -0.1069
 3826TIP3    H111442   0.481   1.770   2.651 -0.1105 -1.5001  0.6372
 3826TIP3    H211443   0.413   1.833   2.771 -0.2134 -1.7235  0.6957
 3827TIP3   OH211444   1.343   3.984   5.250 -0.0711  0.1527  0.0577
 3827TIP3    H111445   1.327   4.072   5.283 -0.8842  0.1558 -0.3252
 3827TIP3    H211446   1.256   3.947   5.235  0.2622 -0.5980 -0.0929
 3828TIP3   OH211447   4.795   4.669   0.557  0.6495  0.1630 -0.0103
 3828TIP3    H111448   4.759   4.702   0.639  2.7656 -0.3410  1.1804
 3828TIP3    H211449   4.835   4.586   0.579  1.8536  0.3259 -1.4157
 3829TIP3   OH211450   0.002   1.669   5.075 -0.0262 -0.2962 -0.4753
 3829TIP3    H111451   0.087   1.628   5.061  0.6921  0.6306  0.9101
 3829TIP3    H211452   0.004   1.747   5.020  0.5516  0.3819  0.4675
 3830TIP3   OH211453   6.691   4.435   1.676  0.4291 -0.2663  0.3962
 3830TIP3    H111454   6.627   4.456   1.744  0.5267  2.1467 -0.1704
 3830TIP3    H211455   6.643   4.445   1.594  1.3020  0.9042 -0.0025
 3831TIP3   OH211456   1.095   5.146   1.320  0.1072  0.2459  0.3307
 3831TIP3    H111457   1.055   5.233   1.326 -1.1094 -0.2823  0.0899
 3831TIP3    H211458   1.167   5.158   1.258 -0.1166  1.0644  0.2119
 3832TIP3   OH211459   4.693   0.761   4.387  0.7295 -0.2774 -0.2973
 3832TIP3    H111460   4.721   0.690   4.328  0.6445 -0.6929  0.1553
 3832TIP3    H211461   4.597   0.756   4.387  0.6695  0.5426 -1.1099
 3833TIP3   OH211462   2.834   2.732   5.284  0.2435 -0.1725 -0.3757
 3833TIP3    H111463   2.792   2.818   5.292  2.1087  0.7675 -0.1574
 3833TIP3    H211464   2.804   2.683   5.360 -4.3338 -1.4411 -2.5775
 3834TIP3   OH211465   6.725   5.884   4.419  0.4386 -0.2874  0.3997
 3834TIP3    H111466   6.770   5.943   4.480 -0.7955  3.3110 -1.8528
 3834TIP3    H211467   6.794   5.854   4.359  0.6247  1.5822 -0.3743
 3835TIP3   OH211468   0.937   6.734   1.609 -0.1118 -0.5400  0.4131
 3835TIP3    H111469   0.865   6.741   1.546 -0.7753 -1.2100  1.0717
 3835TIP3    H211470   0.980   6.819   1.607 -0.1056 -0.5496 -0.9566
 3836TIP3   OH211471   2.033   5.992   1.469 -0.1351 -0.3541  0.1319
 3836TIP3    H111472   1.999   5.920   1.521  1.2335 -1.0502  0.1142
 3836TIP3    H211473   2.087   6.042   1.530  0.0894 -0.1840 -0.2052
 3837TIP3   OH211474   1.184   3.887   0.177 -0.7253 -0.8560 -0.2492
 3837TIP3    H111475   1.209   3.830   0.104 -0.5819 -1.6548  0.4039
 3837TIP3    H211476   1.201   3.834   0.255  0.2027  0.3884  0.4221
 3838TIP3   OH211477   4.622   6.799   3.949 -0.4628 -0.4134 -0.2566
 3838TIP3    H111478   4.698   6.837   3.905 -0.0359  0.2510  1.0001
 3838TIP3    H211479   4.650   6.710   3.972  0.3030  0.1277  1.0100
 3839TIP3   OH211480   4.506   5.525   4.670  0.1400  0.4339  0.1502
 3839TIP3    H111481   4.414   5.507   4.649 -0.1087  0.8023  0.8946
 3839TIP3    H211482   4.522   5.476   4.751 -0.1394  2.3325  1.4173
 3840TIP3   OH211483   6.327   5.083   2.554  0.5084  0.2022  0.4740
 3840TIP3    H111484   6.237   5.050   2.562  0.8286 -0.3012  2.5846
 3840TIP3    H211485   6.371   5.020   2.497 -0.5822  0.8028 -1.1260
 3841TIP3   OH211486   0.032   5.303   4.633  1.0639  0.0016  0.0005
 3841TIP3    H111487   0.051   5.383   4.583  0.6239 -0.7945 -1.5323
 3841TIP3    H211488   0.062   5.232   4.576  0.2029 -0.9726  0.7261
 3842TIP3   OH211489   5.199   6.791   4.292 -0.3374 -0.6880 -0.3322
 3842TIP3    H111490   5.293   6.796   4.303 -0.1316 -1.5438 -1.5022
 3842TIP3    H211491   5.167   6.750   4.372 -0.0500  1.8613  1.1935
 3843TIP3   OH211492   0.991   5.620   1.179  0.6384 -0.0587 -0.3269
 3843TIP3    H111493   0.953   5.534   1.194  2.3392 -1.0691 -1.3871
 3843TIP3    H211494   0.917   5.677   1.158 -0.7193 -0.7989  2.0357
 3844TIP3   OH211495   1.127   1.282   3.483  0.0049 -0.1787 -0.1524
 3844TIP3    H111496   1.060   1.318   3.424 -0.8423 -0.7950  0.4184
 3844TIP3    H211497   1.106   1.189   3.490  1.4182 -0.5585 -0.5988
 3845TIP3   OH211498   2.040   6.578   0.606  0.2123 -0.6168 -0.2935
 3845TIP3    H111499   2.092   6.530   0.542  0.6749 -1.9150  1.0114
 3845TIP3    H211500   2.090   6.659   0.622  0.3749 -0.5455 -1.1294
 3846TIP3   OH211501   5.825   6.503   3.347 -0.4131 -0.1844 -0.3235
 3846TIP3    H111502   5.916   6.529   3.349  0.0521 -1.7113  1.9208
 3846TIP3    H211503   5.783   6.567   3.290  1.8419  1.1796 -0.5731
 3847TIP3   OH211504   3.159   4.750   2.604 -0.2577 -0.3661 -0.1211
 3847TIP3    H111505   3.154   4.668   2.654 -0.7528 -0.2733 -0.0158
 3847TIP3    H211506   3.182   4.816   2.670 -0.4722 -0.3174 -0.0955
 3848TIP3   OH211507   5.827   4.076   2.019 -0.3358  0.1406 -0.1971
 3848TIP3    H111508   5.831   3.983   2.038 -0.1149  0.1202 -0.3404
 3848TIP3    H211509   5.734   4.097   2.020 -0.4153 -0.1765 -0.6420
 3849TIP3   OH211510   3.629   0.541   4.144 -0.4364 -0.6952  0.3842
 3849TIP3    H111511   3.559   0.605   4.158 -0.0351  0.9051 -3.5922
 3849TIP3    H211512   3.584   0.463   4.111 -0.5754 -0.9210  1.0900
 3850TIP3   OH211513   6.835   6.414   5.773 -0.5336 -0.4054 -0.4533
 3850TIP3    H111514   6.838   6.502   5.737 -0.2661 -0.2107  0.0298
 3850TIP3    H211515   6.926   6.390   5.785 -0.5601  0.5944  2.5761
 3851TIP3   OH211516   1.439   1.221   3.804  0.4661  0.6269  0.3796
 3851TIP3    H111517   1.365   1.268   3.843 -0.0283 -0.0156  0.2256
 3851TIP3    H211518   1.445   1.255   3.715  0.4589  0.7978  0.4441
 3852TIP3   OH211519   1.470   0.309   4.531  0.0623  0.0670  0.2762
 3852TIP3    H111520   1.427   0.286   4.613 -0.2488 -1.3376 -0.2611
 3852TIP3    H211521   1.558   0.271   4.538 -0.1649 -0.5848 -0.2668
 3853TIP3   OH211522   0.203   2.957   3.861 -0.3692  0.4587 -0.4846
 3853TIP3    H111523   0.225   2.917   3.777 -1.1586  1.3764 -1.1574
 3853TIP3    H211524   0.167   3.043   3.838  2.2338  2.0461  0.9619
 3854TIP3   OH211525   4.108   1.984   2.490 -0.0958 -0.1192 -0.2197
 3854TIP3    H111526   4.032   1.969   2.546 -0.2406  0.5365 -0.2238
 3854TIP3    H211527   4.162   1.905   2.499 -0.6160 -0.4468  0.0410
 3855TIP3   OH211528   5.045   2.782   3.879 -0.3414  0.2933 -0.4166
 3855TIP3    H111529   5.099   2.804   3.954 -0.7991 -2.0708  0.7172
 3855TIP3    H211530   5.070   2.845   3.811  2.1991  0.6739  0.7699
 3856TIP3   OH211531   7.152   1.726   5.336  0.2984 -0.4900  0.5891
 3856TIP3    H111532   7.191   1.705   5.251 -0.5283  0.0095  0.0690
 3856TIP3    H211533   7.063   1.691   5.332  0.0318  0.1020  0.9885
 3857TIP3   OH211534   4.625   4.145   1.386  0.2901 -0.1005  0.3760
 3857TIP3    H111535   4.546   4.150   1.439  0.4902 -0.1032  0.6754
 3857TIP3    H211536   4.679   4.079   1.429  0.1828 -0.5744 -0.1938
 3858TIP3   OH211537   5.351   1.892   5.194 -0.6191  0.2494 -0.1645
 3858TIP3    H111538   5.383   1.962   5.252 -0.5308 -1.0905  1.4667
 3858TIP3    H211539   5.322   1.823   5.253  1.5369 -2.1556 -1.7055
 3859TIP3   OH211540   4.952   1.137   2.586  0.1569 -0.5585 -0.0121
 3859TIP3    H111541   4.942   1.214   2.530  0.5135 -1.3007 -1.1331
 3859TIP3    H211542   4.994   1.072   2.530 -1.6790 -2.1625  0.3633
 3860TIP3   OH211543   3.714   1.468   3.929 -0.0941 -0.0430 -0.3274
 3860TIP3    H111544   3.795   1.447   3.976 -0.2046  1.7685  0.7661
 3860TIP3    H211545   3.644   1.443   3.989 -0.3463 -0.9522 -0.9855
 3861TIP3   OH211546   0.694   3.062   2.533 -0.0578 -0.1073 -0.3181
 3861TIP3    H111547   0.785   3.074   2.558  0.3879  0.5709 -2.1685
 3861TIP3    H211548   0.669   2.978   2.573  0.9073  0.3632  1.3886
 3862TIP3   OH211549   5.641   3.711   4.327 -0.3597  0.1459  0.1774
 3862TIP3    H111550   5.648   3.732   4.234 -0.2216 -0.7859 -0.0295
 3862TIP3    H211551   5.549   3.728   4.349 -0.6382 -0.6180 -0.3773
 3863TIP3   OH211552   6.856   0.771   2.030 -0.2432  0.0221  0.2352
 3863TIP3    H111553   6.867   0.851   1.979  1.0788  0.2434  0.8022
 3863TIP3    H211554   6.893   0.702   1.975 -1.8903 -0.3213 -0.4884
 3864TIP3   OH211555   3.400   1.664   1.497 -0.7036 -0.2851  0.3282
 3864TIP3    H111556   3.361   1.577   1.497 -0.3474 -0.4536 -0.8144
 3864TIP3    H211557   3.379   1.699   1.583 -0.3998 -1.7025  1.0166
 3865TIP3   OH211558   6.141   2.833   1.290  0.4250 -0.0322  0.2832
 3865TIP3    H111559   6.168   2.807   1.202 -0.3328  0.0488  0.0238
 3865TIP3    H211560   6.134   2.929   1.285 -2.6564 -0.1896 -0.4915
 3866TIP3   OH211561   3.248   4.239   2.733  0.3517 -0.0439  0.0784
 3866TIP3    H111562   3.331   4.244   2.685 -0.1353  0.0191 -0.7836
 3866TIP3    H211563   3.273   4.207   2.820  1.1669 -0.9744 -0.4698
 3867TIP3   OH211564   0.016   1.073   2.660  0.1667 -0.3121 -0.0414
 3867TIP3    H111565   0.021   1.147   2.600  1.5213 -0.2883  0.0670
 3867TIP3    H211566   0.025   1.113   2.747  0.3899 -0.5435  0.0441
 3868TIP3   OH211567   7.183   4.240   4.567  0.2054 -0.4468  0.6441
 3868TIP3    H111568   7.121   4.306   4.538 -1.6955 -2.7094 -0.8307
 3868TIP3    H211569   7.183   4.248   4.663 -1.4868  0.4213  0.6158
 3869TIP3   OH211570   0.823   4.492   0.958  0.3632 -0.0307  0.2571
 3869TIP3    H111571   0.888   4.562   0.954  0.9373 -0.6028 -0.9570
 3869TIP3    H211572   0.831   4.458   1.047 -0.7516  2.1626  1.2713
 3870TIP3   OH211573   6.579   0.449   1.213  0.5581  0.0238 -1.1154
 3870TIP3    H111574   6.488   0.475   1.201 -0.2138 -1.8024  0.3365
 3870TIP3    H211575   6.621   0.526   1.250 -1.1795 -0.0416  1.2059
 3871TIP3   OH211576   2.200   5.150   4.190 -0.2512 -0.1863 -0.0917
 3871TIP3    H111577   2.278   5.174   4.240 -1.9442 -1.1710  3.3431
 3871TIP3    H211578   2.132   5.209   4.223 -1.4900 -0.9725 -1.1845
 3872TIP3   OH211579   1.595   6.756   4.096  0.3341 -0.7606  0.5126
 3872TIP3    H111580   1.555   6.757   4.183  0.5605 -1.1965  0.6260
 3872TIP3    H211581   1.594   6.847   4.068 -0.5932 -0.7332  0.5820
 3873TIP3   OH211582   2.680   4.861   3.561 -0.4911  0.1578  0.3382
 3873TIP3    H111583   2.654   4.840   3.472 -0.1332 -0.2542  0.3235
 3873TIP3    H211584   2.670   4.956   3.568 -0.6302  0.1760 -0.1034
 3874TIP3   OH211585   6.011   3.931   1.592  0.1592  0.0220 -0.3998
 3874TIP3    H111586   6.066   3.867   1.547 -0.4916 -0.7072 -0.1934
 3874TIP3    H211587   5.924   3.890   1.595 -0.8267  1.8095 -2.1677
 3875TIP3   OH211588   2.546   1.083   1.460 -0.4693  0.4484  0.0092
 3875TIP3    H111589   2.599   1.095   1.539 -0.6508 -3.1802  0.8764
 3875TIP3    H211590   2.580   1.002   1.421 -2.7755  0.1599 -1.5933
 3876TIP3   OH211591   4.865   6.423   5.482 -0.6026  0.2988 -0.2641
 3876TIP3    H111592   4.795   6.363   5.456 -0.8696  1.2837 -1.9342
 3876TIP3    H211593   4.938   6.402   5.425 -0.0944  0.4115  0.3303
 3877TIP3   OH211594   7.070   6.099   4.080 -0.4530 -0.0159  0.1540
 3877TIP3    H111595   6.997   6.160   4.089 -0.0020  0.5716 -0.1600
 3877TIP3    H211596   7.040   6.036   4.015  0.0056  1.2826 -1.3813
 3878TIP3   OH211597   1.311   1.732   3.739  0.4061  0.1050  0.7451
 3878TIP3    H111598   1.285   1.679   3.663  0.9383  0.8466  0.0282
 3878TIP3    H211599   1.230   1.746   3.787  0.0270 -0.2277  0.2174
 3879TIP3   OH211600   6.546   2.623   3.455  0.1391 -0.1104  0.4965
 3879TIP3    H111601   6.506   2.541   3.427  1.5343 -0.8113  0.5002
 3879TIP3    H211602   6.540   2.680   3.378  0.6782 -0.7958 -0.0640
 3880TIP3   OH211603   0.657   3.732   5.826 -0.7379 -0.1154  0.3301
 3880TIP3    H111604   0.656   3.670   5.898 -1.1076 -1.6798 -0.9710
 3880TIP3    H211605   0.748   3.762   5.821 -0.7623  0.2182  1.5739
 3881TIP3   OH211606   6.811   2.252   3.269  0.5180 -0.3192 -0.1311
 3881TIP3    H111607   6.767   2.187   3.323 -0.5526  0.0170 -0.5721
 3881TIP3    H211608   6.816   2.211   3.182 -0.5462  0.3331 -0.5162
 3882TIP3   OH211609   0.229   1.091   4.689  0.4374  0.1056  0.6571
 3882TIP3    H111610   0.239   1.033   4.613 -2.9182  0.2044 -0.0037
 3882TIP3    H211611   0.149   1.062   4.732  0.0659  2.5547  1.8242
 3883TIP3   OH211612   0.316   1.923   3.300 -0.0531 -0.4799 -0.3196
 3883TIP3    H111613   0.255   1.917   3.373  0.2521 -1.1325 -0.1082
 3883TIP3    H211614   0.333   1.832   3.275  0.7056 -0.3015 -0.4782
 3884TIP3   OH211615   3.165   4.493   5.347  0.0189 -0.2684  0.2817
 3884TIP3    H111616   3.148   4.469   5.438  0.4592  1.7789  0.9623
 3884TIP3    H211617   3.258   4.516   5.345 -0.8662  4.4787  0.6558
 3885TIP3   OH211618   5.523   5.591   3.638  0.2799  0.1831  0.0071
 3885TIP3    H111619   5.594   5.651   3.660 -0.0228  1.3204 -1.9052
 3885TIP3    H211620   5.471   5.637   3.573 -0.4222 -1.8533 -0.9775
 3886TIP3   OH211621   1.479   0.843   5.281 -0.1647  0.1441 -0.2118
 3886TIP3    H111622   1.449   0.837   5.190 -0.2752  0.4988 -0.2007
 3886TIP3    H211623   1.549   0.778   5.287  0.0450  0.3254 -0.6325
 3887TIP3   OH211624   4.401   0.944   3.696 -0.3788  0.4408  0.1675
 3887TIP3    H111625   4.341   0.873   3.676  2.2540 -2.4981  1.8048
 3887TIP3    H211626   4.444   0.964   3.612 -2.4683  1.6274 -0.7142
 3888TIP3   OH211627   0.324   6.293   3.490  0.0931  0.4510 -0.5464
 3888TIP3    H111628   0.396   6.275   3.430  0.2525  0.4054 -0.3412
 3888TIP3    H211629   0.250   6.243   3.454  0.3058  0.0669 -0.4617
 3889TIP3   OH211630   6.694   1.013   4.396 -0.4137 -0.0049  0.2613
 3889TIP3    H111631   6.769   1.018   4.337 -1.1698  0.7267 -0.6695
 3889TIP3    H211632   6.641   1.090   4.375 -1.4461 -0.5228  0.8736
 3890TIP3   OH211633   6.795   6.003   3.725  0.3942 -0.2410  0.2193
 3890TIP3    H111634   6.800   5.947   3.647  1.0453  0.7442 -0.4712
 3890TIP3    H211635   6.870   5.976   3.778 -0.0102 -0.8661  0.4924
 3891TIP3   OH211636   0.856   4.557   2.412 -0.2716 -0.5961  0.4335
 3891TIP3    H111637   0.915   4.554   2.488 -0.8453 -1.2068  0.8644
 3891TIP3    H211638   0.911   4.591   2.341  0.6855 -1.3949  0.7640
 3892TIP3   OH211639   7.169   6.273   3.126  0.0917  0.2699 -0.1939
 3892TIP3    H111640   7.179   6.180   3.107 -0.4741  0.3295 -0.7927
 3892TIP3    H211641   7.211   6.317   3.053  2.5848  0.5134  1.2759
 3893TIP3   OH211642   2.372   1.711   4.217  0.2777 -0.0161  0.8052
 3893TIP3    H111643   2.438   1.687   4.152  1.0803  2.8014  0.4644
 3893TIP3    H211644   2.288   1.692   4.174  0.8093  0.8228 -0.6899
 3894TIP3   OH211645   4.963   0.097   3.002 -0.0939  0.3218 -0.7730
 3894TIP3    H111646   5.022   0.064   2.934  0.3986  1.2127 -0.7973
 3894TIP3    H211647   4.940   0.186   2.973 -1.2155  0.0938 -0.6093
 3895TIP3   OH211648   6.889   2.265   3.575  0.1278 -0.4068  0.4354
 3895TIP3    H111649   6.907   2.336   3.513  0.2303 -1.3892 -0.6925
 3895TIP3    H211650   6.793   2.259   3.576  0.1211 -0.3000  0.4796
 3896TIP3   OH211651   4.672   1.335   3.687 -0.7589  0.0639  0.7611
 3896TIP3    H111652   4.655   1.352   3.594 -0.3662  0.8886  0.8378
 3896TIP3    H211653   4.731   1.259   3.687 -0.8285  0.0090  0.3390
 3897TIP3   OH211654   2.214   5.465   2.098  0.0349 -0.0198  0.4615
 3897TIP3    H111655   2.134   5.444   2.146 -0.6214 -1.9039 -1.3037
 3897TIP3    H211656   2.280   5.404   2.132  0.2837  0.3986  0.7440
 3898TIP3   OH211657   6.412   2.545   3.689 -0.0619 -0.1787 -0.1359
 3898TIP3    H111658   6.406   2.640   3.686 -2.2872 -0.3063 -0.9740
 3898TIP3    H211659   6.389   2.516   3.601 -0.4121 -1.5420  0.3746
 3899TIP3   OH211660   3.883   5.333   2.762  0.5418 -0.5469  0.1888
 3899TIP3    H111661   3.840   5.271   2.702  0.6926 -0.0358 -0.4545
 3899TIP3    H211662   3.967   5.352   2.721  0.7573 -0.3898  0.6972
 3900TIP3   OH211663   3.461   0.491   0.636  0.7087  0.2400 -0.2192
 3900TIP3    H111664   3.492   0.580   0.622  0.4686  0.3712  0.0664
 3900TIP3    H211665   3.408   0.496   0.716 -0.1743  0.0577 -0.7780
 3901TIP3   OH211666   5.504   3.540   3.154  0.6136  0.2067 -0.3206
 3901TIP3    H111667   5.455   3.476   3.102  0.1518 -0.6774  1.1464
 3901TIP3    H211668   5.442   3.613   3.166  0.3559 -0.0408 -0.1360
 3902TIP3   OH211669   1.475   2.199   0.473 -0.4423  0.1167  0.1990
 3902TIP3    H111670   1.560   2.211   0.431 -1.3331  1.1188 -1.3889
 3902TIP3    H211671   1.496   2.168   0.561  1.4981 -1.7864 -0.8501
 3903TIP3   OH211672   1.963   0.576   0.445 -0.0424  0.1576  0.5147
 3903TIP3    H111673   1.881   0.527   0.448 -0.9470  1.4065 -1.4953
 3903TIP3    H211674   2.019   0.533   0.510 -2.3608 -0.5357  2.1961
 3904TIP3   OH211675   4.915   4.713   2.551 -0.2428  0.1176  0.5614
 3904TIP3    H111676   4.857   4.651   2.596  0.3270 -0.7844  0.0979
 3904TIP3    H211677   4.944   4.773   2.619  0.2818 -0.9755  1.3334
 3905TIP3   OH211678   4.628   1.654   4.904  0.4419  0.0686 -0.2328
 3905TIP3    H111679   4.689   1.581   4.918  0.6962  0.4425  0.6356
 3905TIP3    H211680   4.627   1.666   4.809  1.7051  0.0389 -0.2663
 3906TIP3   OH211681   3.802   5.515   5.686 -0.2434  0.1411 -0.2551
 3906TIP3    H111682   3.883   5.485   5.644 -0.5303  0.9951 -1.4662
 3906TIP3    H211683   3.828   5.593   5.734  0.4042 -1.6141  2.5156
 3907TIP3   OH211684   6.558   1.557   0.329  0.6148  0.0999 -0.3460
 3907TIP3    H111685   6.604   1.503   0.393 -0.6924 -0.3564  0.2375
 3907TIP3    H211686   6.615   1.557   0.252  1.9324  0.1829  0.6024
 3908TIP3   OH211687   0.842   2.925   2.024  0.1653 -0.4230 -0.2242
 3908TIP3    H111688   0.821   2.994   1.961  1.9645 -0.5017 -0.9797
 3908TIP3    H211689   0.911   2.962   2.078  3.3389 -2.4700 -2.5140
 3909TIP3   OH211690   6.487   3.706   2.856  0.0831  0.1982 -0.5412
 3909TIP3    H111691   6.462   3.644   2.924 -0.8378 -0.8368 -1.7635
 3909TIP3    H211692   6.421   3.693   2.787  1.3100  0.7697 -1.8679
 3910TIP3   OH211693   4.924   4.321   1.477 -0.2070 -0.2665  0.1226
 3910TIP3    H111694   4.980   4.377   1.531 -1.7511  0.6268  0.8568
 3910TIP3    H211695   4.914   4.241   1.529  0.1545 -0.3264  0.1060
 3911TIP3   OH211696   6.263   2.774   2.682 -0.3226 -0.0966  0.0344
 3911TIP3    H111697   6.210   2.696   2.666 -0.0603 -0.3239  0.2558
 3911TIP3    H211698   6.248   2.829   2.606 -2.7871  0.9501  1.1914
 3912TIP3   OH211699   2.432   5.211   1.935 -0.0175 -0.0176 -0.4886
 3912TIP3    H111700   2.394   5.215   1.847 -2.6513  2.0659  0.5939
 3912TIP3    H211701   2.369   5.159   1.986  0.7683 -0.0678  0.4579
 3913TIP3   OH211702   2.927   3.016   1.592 -0.4965 -0.6812 -0.2832
 3913TIP3    H111703   2.943   3.026   1.685  0.0156 -0.7026 -0.3669
 3913TIP3    H211704   2.942   3.103   1.555  0.0792 -0.8538 -0.4574
 3914TIP3   OH211705   1.235   1.069   4.868  0.4790 -0.1905 -0.3446
 3914TIP3    H111706   1.178   1.059   4.792  0.3637  0.9502 -0.4241
 3914TIP3    H211707   1.316   1.106   4.832  0.7209 -0.4140 -0.0286
 3915TIP3   OH211708   6.753   2.637   3.934 -0.0351 -0.3434 -0.0266
 3915TIP3    H111709   6.702   2.715   3.911 -0.6257  0.0671  2.3527
 3915TIP3    H211710   6.722   2.614   4.022  0.6203 -2.8748 -0.3866
 3916TIP3   OH211711   0.366   2.698   3.714  0.0740  0.3533 -0.0784
 3916TIP3    H111712   0.444   2.662   3.673  1.0369  1.3612  0.8338
 3916TIP3    H211713   0.383   2.692   3.808 -0.6646  1.1865  0.1201
 3917TIP3   OH211714   6.906   6.435   2.884  0.2173 -0.1058  0.3327
 3917TIP3    H111715   6.925   6.528   2.873 -1.8840  0.2101 -1.3265
 3917TIP3    H211716   6.972   6.391   2.831 -0.7271  0.6742 -1.5763
 3918TIP3   OH211717   3.793   3.950   5.379 -0.0885  0.5108  0.2534
 3918TIP3    H111718   3.722   3.923   5.322 -0.3381  0.8635  0.3951
 3918TIP3    H211719   3.796   3.883   5.448  0.1135  0.1684 -0.0835
 3919TIP3   OH211720   1.234   5.592   3.575 -0.0255  0.1039 -0.0830
 3919TIP3    H111721   1.184   5.537   3.636 -0.3668 -0.0930 -0.5412
 3919TIP3    H211722   1.265   5.665   3.629 -0.8451  0.2537  0.1871
 3920TIP3   OH211723   6.899   1.312   5.840 -0.0798  0.0439  0.3571
 3920TIP3    H111724   6.991   1.339   5.839  0.1191 -0.5131 -2.1837
 3920TIP3    H211725   6.901   1.220   5.815 -1.3454  0.0103  0.3197
 3921TIP3   OH211726   4.247   0.028   2.040 -0.5503  1.2429  0.9116
 3921TIP3    H111727   4.332   0.009   2.079 -0.6928  0.9129  1.0663
 3921TIP3    H211728   4.183   0.006   2.108 -0.9951 -2.1827 -0.4169
 3922TIP3   OH211729   4.725   6.264   3.871  0.2852  0.3083 -0.1161
 3922TIP3    H111730   4.713   6.189   3.813 -0.9059  1.3309 -1.2740
 3922TIP3    H211731   4.788   6.320   3.825  1.0837  0.0935  0.6854
 3923TIP3   OH211732   2.531   2.783   4.546 -0.2465 -0.4088  0.0017
 3923TIP3    H111733   2.526   2.842   4.471  1.0214 -0.4407 -0.1267
 3923TIP3    H211734   2.580   2.832   4.612  0.1039 -1.0043  0.1908
 3924TIP3   OH211735   0.067   2.430   5.041  0.1299  0.4903  0.1255
 3924TIP3    H111736  -0.020   2.445   5.004  0.3253  1.2731 -0.0192
 3924TIP3    H211737   0.055   2.439   5.136  0.0300  0.4457  0.1176
 3925TIP3   OH211738   2.988   1.326   1.351  0.0682  1.1019 -0.3642
 3925TIP3    H111739   2.950   1.383   1.284 -0.4464  1.2156  0.0239
 3925TIP3    H211740   3.063   1.285   1.307 -1.8595 -0.9786 -1.9428
 3926TIP3   OH211741   3.305   3.800   3.479 -0.0874  0.1075 -0.1125
 3926TIP3    H111742   3.258   3.767   3.555 -0.5082 -2.0698 -1.2516
 3926TIP3    H211743   3.394   3.814   3.511 -0.5884  0.7053  1.1257
 3927TIP3   OH211744   5.235   1.369   3.553 -0.5480  0.1325  0.4026
 3927TIP3    H111745   5.291   1.444   3.531  0.1323 -0.4697  0.0293
 3927TIP3    H211746   5.274   1.333   3.632  0.1081 -0.7743 -0.3070
 3928TIP3   OH211747   4.634   2.275   4.757  0.2259 -0.3120  0.5728
 3928TIP3    H111748   4.587   2.196   4.732  0.9768 -0.9580  1.1663
 3928TIP3    H211749   4.724   2.261   4.726  1.1647 -1.0608  3.3036
 3929TIP3   OH211750   2.088   2.867   4.150  0.1539  0.3893 -0.0957
 3929TIP3    H111751   2.170   2.916   4.150  0.0395  0.6445  1.8745
 3929TIP3    H211752   2.099   2.801   4.218 -0.2097 -1.5237 -1.7833
 3930TIP3   OH211753   0.173   5.193   3.930  0.3885  0.2001  0.3227
 3930TIP3    H111754   0.168   5.193   4.026  1.5942  0.8042  0.4117
 3930TIP3    H211755   0.240   5.259   3.910 -1.0003  1.2641 -1.0079
 3931TIP3   OH211756   4.508   6.466   5.415 -0.9208  0.2241  0.5881
 3931TIP3    H111757   4.523   6.487   5.323 -3.6857 -0.5033 -0.1453
 3931TIP3    H211758   4.563   6.527   5.464  0.5278  0.6931 -1.5392
 3932TIP3   OH211759   5.686   4.820   1.646  0.0668 -0.0307  0.3652
 3932TIP3    H111760   5.640   4.897   1.614  0.9781 -0.5095 -2.3812
 3932TIP3    H211761   5.769   4.819   1.597  0.3413 -2.4065  0.7377
 3933TIP3   OH211762   5.007   6.239   5.288 -0.3404  0.0874 -0.5803
 3933TIP3    H111763   4.930   6.231   5.231 -0.7223 -0.2060 -0.0266
 3933TIP3    H211764   5.047   6.152   5.287 -0.8893 -0.1837  0.3543
 3934TIP3   OH211765   1.648   6.500   3.019 -0.0194  0.2965  0.3124
 3934TIP3    H111766   1.715   6.562   2.990  1.0037 -0.5337  0.8245
 3934TIP3    H211767   1.623   6.452   2.939 -0.7963  1.3223 -0.0789
 3935TIP3   OH211768   3.481   2.752   1.821  0.2027 -0.4530  0.3452
 3935TIP3    H111769   3.481   2.701   1.902  0.8274 -0.2288  0.4920
 3935TIP3    H211770   3.394   2.792   1.818 -0.0705 -1.0137  0.5471
 3936TIP3   OH211771   2.609   1.137   2.648  0.2601 -0.0779 -0.4508
 3936TIP3    H111772   2.644   1.195   2.715 -0.9902 -0.6783  0.7977
 3936TIP3    H211773   2.517   1.164   2.639  0.2677 -0.3672 -1.5388
 3937TIP3   OH211774   2.265   3.549   5.175 -0.0370 -0.1230  0.1451
 3937TIP3    H111775   2.174   3.559   5.147  0.5057  0.5608 -1.5114
 3937TIP3    H211776   2.274   3.455   5.193 -0.6651 -0.4839 -1.2593
 3938TIP3   OH211777   3.249   4.110   5.471  0.0138  0.3923  0.2165
 3938TIP3    H111778   3.176   4.109   5.533  0.2490  1.3039  0.5270
 3938TIP3    H211779   3.208   4.122   5.385 -0.2816 -0.4254  0.2381
 3939TIP3   OH211780   2.695   2.416   4.805  0.4011 -0.2075  0.3077
 3939TIP3    H111781   2.702   2.327   4.770  0.0893 -0.4830  0.9256
 3939TIP3    H211782   2.635   2.407   4.879 -3.0353  1.2212 -2.0450
 3940TIP3   OH211783   0.462   0.602   0.169 -0.0721  0.2375 -0.1112
 3940TIP3    H111784   0.549   0.576   0.138 -0.3378 -0.3908 -0.3459
 3940TIP3    H211785   0.402   0.540   0.128 -0.5226 -0.0319  0.9023
 3941TIP3   OH211786   5.295   4.577   3.198  0.0029  0.1128 -0.2772
 3941TIP3    H111787   5.230   4.557   3.265 -1.3468  0.1148 -1.5106
 3941TIP3    H211788   5.343   4.495   3.185  0.0810  0.0387  0.4800
 3942TIP3   OH211789   1.694   5.756   4.979 -0.0972 -1.0452 -0.2218
 3942TIP3    H111790   1.689   5.767   5.074 -3.1552 -1.4741 -0.2493
 3942TIP3    H211791   1.668   5.666   4.964 -0.0666 -0.8562 -1.5138
 3943TIP3   OH211792   2.459   3.068   3.334  0.2385 -0.6376 -0.4623
 3943TIP3    H111793   2.423   3.151   3.303  0.8505 -0.4828 -0.7714
 3943TIP3    H211794   2.523   3.043   3.268  1.3467 -0.4591  0.5158
 3944TIP3   OH211795   1.845   2.452   2.785  0.0400  0.4999  0.1667
 3944TIP3    H111796   1.883   2.414   2.864 -0.1569  1.0363  0.5261
 3944TIP3    H211797   1.808   2.378   2.737  0.8941  0.0600  0.1639
 3945TIP3   OH211798   6.580   1.091   3.401 -0.2484 -0.1679 -0.3837
 3945TIP3    H111799   6.499   1.056   3.365 -0.4659  1.0790 -1.1630
 3945TIP3    H211800   6.565   1.095   3.496 -1.2959  0.5301 -0.5702
 3946TIP3   OH211801   3.389   5.811   3.170 -0.0538 -0.5603  0.5273
 3946TIP3    H111802   3.455   5.876   3.195 -1.0709  0.7329 -0.0299
 3946TIP3    H211803   3.324   5.816   3.241 -0.6126 -0.2565  0.0015
 3947TIP3   OH211804   6.229   6.651   3.868 -0.2488 -0.2022  0.3539
 3947TIP3    H111805   6.182   6.658   3.784 -0.3209 -0.7172  0.3471
 3947TIP3    H211806   6.274   6.566   3.863 -2.1825 -1.3973  1.8008
 3948TIP3   OH211807   4.521   1.848   1.874 -0.0295 -0.0449  0.5745
 3948TIP3    H111808   4.563   1.839   1.789  1.0376  1.7694  0.8740
 3948TIP3    H211809   4.448   1.908   1.859  1.9377  2.7534  1.4209
 3949TIP3   OH211810   4.669   3.772   1.114  0.1178  0.5528 -0.0620
 3949TIP3    H111811   4.627   3.751   1.198  0.0889  0.9962  0.0338
 3949TIP3    H211812   4.674   3.867   1.113 -0.5104  0.5841 -0.8654
 3950TIP3   OH211813   3.528   4.542   2.927 -0.0123 -0.2383  0.1119
 3950TIP3    H111814   3.477   4.622   2.943  1.0781  0.6583 -0.6409
 3950TIP3    H211815   3.467   4.471   2.945 -1.1382  0.7651  0.4683
 3951TIP3   OH211816   4.844   1.714   2.903 -0.7791 -0.0091  0.5207
 3951TIP3    H111817   4.754   1.709   2.870 -0.5753 -0.4138 -0.0063
 3951TIP3    H211818   4.891   1.763   2.836 -0.7099  0.6470  1.0433
 3952TIP3   OH211819   3.608   0.670   5.225  0.0254 -0.3126 -0.3185
 3952TIP3    H111820   3.528   0.632   5.189  0.2117 -0.2892 -0.7590
 3952TIP3    H211821   3.668   0.676   5.151  0.5825 -0.7022  0.0890
 3953TIP3   OH211822   2.540   1.322   0.070  0.4126  0.4430  0.6247
 3953TIP3    H111823   2.586   1.355  -0.007  0.1230 -0.1884  0.1729
 3953TIP3    H211824   2.602   1.262   0.111 -0.0970 -0.6511 -0.1590
 3954TIP3   OH211825   6.186   6.362   3.779  0.4036  0.0052  0.4385
 3954TIP3    H111826   6.194   6.269   3.760  2.0732  0.6492 -2.5927
 3954TIP3    H211827   6.276   6.390   3.799 -0.1746  0.8913  1.9636
 3955TIP3   OH211828   2.376   2.189   0.847  0.0694 -0.4350  0.1099
 3955TIP3    H111829   2.297   2.243   0.853  0.0027 -0.6106  1.0125
 3955TIP3    H211830   2.444   2.248   0.815 -0.9340 -0.8501 -3.0922
 3956TIP3   OH211831   3.299   3.807   3.009 -0.1224 -0.0586  0.3095
 3956TIP3    H111832   3.291   3.836   3.100  0.8689 -0.2815  0.4861
 3956TIP3    H211833   3.355   3.729   3.015  0.0887  0.0282 -0.5050
 3957TIP3   OH211834   3.820   0.676   5.669 -0.2034 -0.1900 -0.7276
 3957TIP3    H111835   3.768   0.596   5.665 -0.0432 -0.2529 -1.7695
 3957TIP3    H211836   3.848   0.691   5.579  0.1893  0.7641 -0.4578
 3958TIP3   OH211837   1.976   1.088   2.232 -0.3233 -0.2526 -0.2145
 3958TIP3    H111838   2.064   1.123   2.220 -0.1803 -0.3902  0.3750
 3958TIP3    H211839   1.981   1.039   2.315 -1.5672  1.7104  1.0987
 3959TIP3   OH211840   4.577   5.627   5.592  0.0692 -0.0139  0.0156
 3959TIP3    H111841   4.657   5.644   5.541 -0.1373  0.5035 -0.1374
 3959TIP3    H211842   4.562   5.708   5.641  0.4182 -0.5930  1.1285
 3960TIP3   OH211843   6.812   1.412   5.448 -0.6346 -0.4086 -0.7070
 3960TIP3    H111844   6.811   1.321   5.418 -2.8811  0.1782 -2.7202
 3960TIP3    H211845   6.851   1.461   5.375 -1.6278  0.4898 -0.6658
 3961TIP3   OH211846   0.519   3.645   2.540  0.4427  0.1872 -0.0508
 3961TIP3    H111847   0.550   3.618   2.454 -0.2194  0.9642 -0.5466
 3961TIP3    H211848   0.593   3.629   2.598  0.8044 -0.5935 -0.7112
 3962TIP3   OH211849   3.080   1.394   2.967  0.2798  0.0993 -0.3740
 3962TIP3    H111850   3.041   1.392   2.879 -0.0889  0.9359 -0.2352
 3962TIP3    H211851   3.151   1.458   2.960  0.9611 -0.6429 -0.3433
 3963TIP3   OH211852   4.726   0.959   0.214 -0.1422 -0.2952  0.0731
 3963TIP3    H111853   4.748   0.880   0.164  0.5984 -0.9835  1.4416
 3963TIP3    H211854   4.774   0.950   0.296 -0.9241  1.0611  0.7162
 3964TIP3   OH211855   3.503   2.027   3.748  0.3805 -0.0024  0.6590
 3964TIP3    H111856   3.445   1.957   3.720 -0.2527  0.9971 -0.6145
 3964TIP3    H211857   3.585   1.983   3.770 -0.6288 -1.3527  1.8467
 3965TIP3   OH211858   3.200   0.448   0.313 -0.2805 -0.0265  0.0870
 3965TIP3    H111859   3.128   0.457   0.250 -0.3514 -0.8627  0.0370
 3965TIP3    H211860   3.199   0.530   0.362 -0.6442  0.3664 -0.5607
 3966TIP3   OH211861   6.845   5.098   5.541  0.1149  0.6209 -0.0534
 3966TIP3    H111862   6.790   5.110   5.619  0.3794  1.5538  0.0028
 3966TIP3    H211863   6.802   5.151   5.474 -0.8996 -1.2646 -0.9807
 3967TIP3   OH211864   3.163   0.119   0.706 -0.5820  0.5608 -0.1393
 3967TIP3    H111865   3.117   0.201   0.721  0.1777  0.7458  1.3040
 3967TIP3    H211866   3.251   0.145   0.679 -0.6264  0.2090 -0.6489
 3968TIP3   OH211867   4.415   6.751   3.568 -0.7493  0.1586  0.0658
 3968TIP3    H111868   4.418   6.846   3.554 -1.3115  0.1231 -0.3001
 3968TIP3    H211869   4.346   6.738   3.632  0.3950  0.1272  1.3498
 3969TIP3   OH211870   5.872   5.279   0.623 -0.2809  0.4005  0.0897
 3969TIP3    H111871   5.820   5.245   0.696 -0.0293 -1.3396 -0.4960
 3969TIP3    H211872   5.954   5.308   0.662 -0.8114  1.1000  0.7129
 3970TIP3   OH211873   0.665  -0.004   1.860 -0.1722 -0.1816  0.1401
 3970TIP3    H111874   0.712   0.078   1.840 -1.1185  0.3212 -0.0538
 3970TIP3    H211875   0.659  -0.049   1.776  0.9743 -0.7984  0.3713
 3971TIP3   OH211876   5.454   5.862   1.327  0.1476 -0.1358 -0.1681
 3971TIP3    H111877   5.364   5.865   1.358  0.5204 -0.1248  0.9859
 3971TIP3    H211878   5.459   5.783   1.273 -0.1659 -1.0099  1.0490
 3972TIP3   OH211879   2.692   4.364   3.944 -0.3360  0.0034  0.3012
 3972TIP3    H111880   2.787   4.352   3.943 -0.5385 -1.8830  0.0265
 3972TIP3    H211881   2.661   4.316   3.867 -1.6498 -0.8070  1.2874
 3973TIP3   OH211882   2.124   5.811   0.504 -0.1627 -0.3332  0.3485
 3973TIP3    H111883   2.197   5.762   0.541 -0.3671 -0.3300  0.7568
 3973TIP3    H211884   2.052   5.799   0.566 -0.8211 -1.1741 -0.5463
 3974TIP3   OH211885   5.068   2.466   4.434  0.1949 -0.3165 -0.5806
 3974TIP3    H111886   5.006   2.434   4.368  1.1628  0.2070 -1.7883
 3974TIP3    H211887   5.107   2.544   4.394 -0.6305  1.2229  1.4351
 3975TIP3   OH211888   5.835   3.519   1.488  0.2810 -0.0211  0.0265
 3975TIP3    H111889   5.930   3.513   1.487  0.2713 -0.4223  0.9265
 3975TIP3    H211890   5.809   3.505   1.397  1.1292  1.2011 -0.4311
 3976TIP3   OH211891   2.905   1.796   3.243  0.1096 -0.1503 -0.6476
 3976TIP3    H111892   2.869   1.778   3.157  0.9251 -0.6219 -0.9069
 3976TIP3    H211893   2.996   1.765   3.238  0.2303  0.0032  0.3128
 3977TIP3   OH211894   0.653   5.316   3.513  0.1691  0.2783  0.0819
 3977TIP3    H111895   0.635   5.222   3.506 -1.0534  0.6213 -4.2299
 3977TIP3    H211896   0.569   5.354   3.537 -0.1999  0.4353 -1.3529
 3978TIP3   OH211897   2.751   3.422   4.384 -0.1313  0.5816 -0.1500
 3978TIP3    H111898   2.762   3.327   4.379 -0.6161  0.4871  0.4872
 3978TIP3    H211899   2.732   3.449   4.294  0.1617  0.1021 -0.3629
 3979TIP3   OH211900   5.415   1.536   3.144  0.0367 -0.5677  0.0718
 3979TIP3    H111901   5.458   1.620   3.153 -0.6479 -0.3579  2.0468
 3979TIP3    H211902   5.324   1.558   3.123 -0.3051 -0.7390  1.2710
 3980TIP3   OH211903   2.797   3.564   3.091  0.2837  0.1042 -0.4567
 3980TIP3    H111904   2.855   3.635   3.116  1.1364 -0.8880  0.5039
 3980TIP3    H211905   2.855   3.488   3.079 -0.4147 -0.1472 -2.8382
 3981TIP3   OH211906   1.183   1.017   3.051  0.1331  0.4251 -0.5158
 3981TIP3    H111907   1.091   0.995   3.065 -0.0832  1.3169 -0.4393
 3981TIP3    H211908   1.197   1.005   2.958  0.1135 -0.3230 -0.4265
 3982TIP3   OH211909   5.499   5.019   0.900 -0.0383 -0.5283  0.2877
 3982TIP3    H111910   5.405   5.039   0.905 -0.2169 -0.3089 -2.6574
 3982TIP3    H211911   5.505   4.929   0.930 -1.3563 -0.8726 -0.3945
 3983TIP3   OH211912   3.576   4.030   2.058  0.4233  0.1976  0.2774
 3983TIP3    H111913   3.534   4.003   1.976  2.1428  0.9617 -0.9131
 3983TIP3    H211914   3.535   3.975   2.125 -0.8179 -0.6677 -1.1328
 3984TIP3   OH211915   5.448   2.811   0.434 -0.7763 -0.3878 -0.5169
 3984TIP3    H111916   5.357   2.836   0.417 -0.6271 -0.0914 -0.9096
 3984TIP3    H211917   5.453   2.719   0.408 -1.0546 -0.5079 -0.1449
 3985TIP3   OH211918   5.432   2.364   4.888 -0.1366 -0.6170 -0.3310
 3985TIP3    H111919   5.493   2.435   4.909  0.9429 -1.1430 -1.5536
 3985TIP3    H211920   5.374   2.359   4.964  1.0648  0.2039  0.6853
 3986TIP3   OH211921   1.384   3.873   1.511 -0.4289  0.3365 -0.6665
 3986TIP3    H111922   1.401   3.967   1.512 -1.0798  0.4706 -1.3842
 3986TIP3    H211923   1.426   3.842   1.431  0.9287 -0.2228  0.2361
 3987TIP3   OH211924   7.160   0.965   4.680 -0.6648 -0.2073 -0.4166
 3987TIP3    H111925   7.206   0.982   4.598 -0.0424 -0.2589 -0.0903
 3987TIP3    H211926   7.068   0.979   4.660 -0.4695  0.2984 -0.9872
 3988TIP3   OH211927   3.603   1.609   1.919 -0.2401 -0.8435 -0.3899
 3988TIP3    H111928   3.596   1.702   1.894  0.2102 -0.9766 -1.0283
 3988TIP3    H211929   3.578   1.607   2.011 -2.2836 -0.3683 -0.8713
 3989TIP3   OH211930   4.885   6.124   1.306 -0.3150 -0.1069  0.4750
 3989TIP3    H111931   4.968   6.135   1.260 -0.7836  0.1511 -0.3381
 3989TIP3    H211932   4.821   6.168   1.250 -1.2275 -1.5124  0.3689
 3990TIP3   OH211933   0.562   4.266   5.792 -0.2939 -0.3331 -0.0494
 3990TIP3    H111934   0.493   4.271   5.726 -1.4830 -0.9644  1.0721
 3990TIP3    H211935   0.555   4.177   5.827 -0.0205  0.1216  1.2245
 3991TIP3   OH211936   2.005   3.664   2.101 -0.1792 -0.0438  0.2835
 3991TIP3    H111937   2.061   3.620   2.038 -0.4890 -1.8816  1.2325
 3991TIP3    H211938   2.035   3.632   2.186 -0.3593  1.6783  1.0347
 3992TIP3   OH211939   6.928   1.602   4.938  0.6578  0.2469  0.1217
 3992TIP3    H111940   7.011   1.625   4.895  1.3738 -1.8041  0.3074
 3992TIP3    H211941   6.890   1.686   4.962  2.6593  1.2572 -0.0285
 3993TIP3   OH211942   6.645   4.019   3.640  0.5198  0.0106 -0.3925
 3993TIP3    H111943   6.673   4.054   3.555  1.5888  0.4670  0.1368
 3993TIP3    H211944   6.578   4.080   3.671 -0.7210 -0.7796 -1.4092
 3994TIP3   OH211945   5.700   3.492   5.220 -0.3597 -0.0215 -0.7112
 3994TIP3    H111946   5.784   3.469   5.180 -0.4497  0.6739 -1.3234
 3994TIP3    H211947   5.664   3.559   5.162 -1.5026 -0.5645 -0.6472
 3995TIP3   OH211948   0.196   3.925   3.037 -0.3343  0.5782 -0.3606
 3995TIP3    H111949   0.249   3.906   2.960  0.1417 -2.3907  0.6068
 3995TIP3    H211950   0.106   3.910   3.008 -0.2543  0.6641 -0.6574
 3996TIP3   OH211951   0.497   0.936   5.794 -0.8549 -0.0022  0.7322
 3996TIP3    H111952   0.567   0.916   5.856 -0.3501  0.5553  0.3505
 3996TIP3    H211953   0.505   0.870   5.725  0.2028  0.8825 -0.0326
 3997TIP3   OH211954   2.801   5.077   0.492  0.0094  0.0841 -0.1305
 3997TIP3    H111955   2.807   5.034   0.577  3.9897 -1.7824 -1.1190
 3997TIP3    H211956   2.839   5.164   0.507  1.1898 -0.4271 -0.0318
 3998TIP3   OH211957   2.213   5.625   0.983 -0.4356 -0.3009 -0.2046
 3998TIP3    H111958   2.172   5.685   0.921 -1.0442  2.2421  2.4661
 3998TIP3    H211959   2.288   5.590   0.935 -1.6470  0.3624 -2.8320
 3999TIP3   OH211960   6.199   1.876   2.018 -0.2602  0.4845 -0.5036
 3999TIP3    H111961   6.258   1.944   2.049 -0.2002  0.9645 -1.6255
 3999TIP3    H211962   6.172   1.905   1.931 -1.8330  0.0668 -0.1843
 4000TIP3   OH211963   6.169   4.834   1.402 -0.3114 -0.1683 -0.0522
 4000TIP3    H111964   6.162   4.740   1.415  0.1464 -0.1922  0.0342
 4000TIP3    H211965   6.261   4.854   1.417 -0.6827  0.5417  1.5386
 4001TIP3   OH211966   5.793   2.786   5.121 -0.4357 -0.1219 -0.1527
 4001TIP3    H111967   5.877   2.770   5.077  0.3310  1.8511  0.4792
 4001TIP3    H211968   5.809   2.760   5.212  0.1895  2.0394  0.4220
 4002TIP3   OH211969   2.971   1.831   2.031  0.3183  0.7007  0.1485
 4002TIP3    H111970   2.985   1.804   2.122 -0.8372  0.7824  0.3667
 4002TIP3    H211971   2.984   1.751   1.980  1.2510  0.7153  0.3456
 4003TIP3   OH211972   4.921   4.297   2.725 -0.2364  0.1663 -0.3096
 4003TIP3    H111973   4.876   4.381   2.738 -1.6632 -0.3464 -1.5884
 4003TIP3    H211974   4.925   4.257   2.811 -0.3534  1.1579  0.1661
 4004TIP3   OH211975   0.843   5.687   1.966 -0.8277 -0.0248  0.0339
 4004TIP3    H111976   0.890   5.763   1.934 -1.0058 -0.3233 -0.9764
 4004TIP3    H211977   0.816   5.640   1.887 -1.5705 -0.6148  0.6166
 4005TIP3   OH211978   4.101   2.275   4.988  0.0232 -0.6427  0.0317
 4005TIP3    H111979   4.018   2.233   4.965 -0.5249  0.6947 -0.5616
 4005TIP3    H211980   4.112   2.343   4.921  2.0061 -1.3048 -0.3593
 4006TIP3   OH211981   2.351   6.479   4.893  0.1070 -0.2925 -0.1764
 4006TIP3    H111982   2.410   6.552   4.874  0.6338 -0.7527 -0.3430
 4006TIP3    H211983   2.298   6.470   4.814 -0.2182  0.1429 -0.0152
 4007TIP3   OH211984   6.003   1.514   3.576  0.4313  0.4808  0.3863
 4007TIP3    H111985   6.045   1.600   3.572  3.8556 -0.9795  1.5410
 4007TIP3    H211986   6.036   1.466   3.501 -0.6939 -0.1793  0.2783
 4008TIP3   OH211987   1.340   0.574  -0.002 -0.1741  0.5921 -0.6733
 4008TIP3    H111988   1.436   0.578  -0.003 -0.1208  0.9351  1.2915
 4008TIP3    H211989   1.320   0.481   0.006  0.1789  0.6724  2.4300
 4009TIP3   OH211990   4.076   3.227   4.055  0.3871 -0.3726 -0.0388
 4009TIP3    H111991   4.129   3.217   3.976 -2.2450 -2.8070 -1.7198
 4009TIP3    H211992   4.092   3.147   4.106 -0.5897 -0.4988  0.0900
 4010TIP3   OH211993   3.391   3.989   1.857 -0.4084  0.1193 -0.2294
 4010TIP3    H111994   3.424   4.014   1.771  1.4215 -0.8617  0.1266
 4010TIP3    H211995   3.379   4.072   1.904  1.1251  0.5703 -0.5758
 4011TIP3   OH211996   6.841   0.129   4.542  0.1395  0.2483 -0.3756
 4011TIP3    H111997   6.756   0.165   4.516 -0.5802 -2.3069 -1.9378
 4011TIP3    H211998   6.895   0.138   4.464  0.5667 -0.2351 -0.1337
 4012TIP3   OH211999   5.957   5.610   3.798 -0.0148  0.3361 -0.7490
 4012TIP3    H112000   6.041   5.587   3.757  0.6717  0.3534  0.5794
 4012TIP3    H212001   5.910   5.527   3.805 -0.1272  0.3268 -1.5103
 4013TIP3   OH212002   6.023   5.256   3.561  0.3477 -0.4607  0.1785
 4013TIP3    H112003   5.938   5.297   3.539 -0.5167 -1.7704  0.9847
 4013TIP3    H212004   6.087   5.315   3.521 -0.9369  0.4087 -0.7365
 4014TIP3   OH212005   1.978   6.077   3.775 -0.1739  0.2504  0.3017
 4014TIP3    H112006   2.038   6.096   3.703 -0.4559 -0.4433 -0.1247
 4014TIP3    H212007   1.946   6.163   3.803  1.2274  0.6488  0.7311
 4015TIP3   OH212008   1.954   4.791   2.057  0.7429  0.4546  0.0961
 4015TIP3    H112009   1.902   4.854   2.106  0.9282  1.5001 -0.9846
 4015TIP3    H212010   2.033   4.840   2.033  1.6257 -0.6947  0.5946
 4016TIP3   OH212011   0.788   1.712   5.386  0.5790  0.0908  0.0210
 4016TIP3    H112012   0.879   1.706   5.415  0.8514  2.3376 -0.2628
 4016TIP3    H212013   0.787   1.667   5.301  1.6991  1.0365 -0.5226
 4017TIP3   OH212014   3.028   2.479   3.417  0.4955  0.0747 -0.4228
 4017TIP3    H112015   3.004   2.460   3.507 -1.4876 -0.5975 -1.0604
 4017TIP3    H212016   3.000   2.570   3.403 -0.1880 -0.1747 -0.6812
 4018TIP3   OH212017   2.169   2.549   1.629  0.3338 -0.5084  0.1694
 4018TIP3    H112018   2.245   2.503   1.665  0.8583  0.6023  0.5319
 4018TIP3    H212019   2.107   2.554   1.702  0.3057 -0.5770  0.1503
 4019TIP3   OH212020   0.454   6.332   4.880  0.0740 -0.0384  0.0506
 4019TIP3    H112021   0.536   6.349   4.835 -0.1233  2.1012  0.4031
 4019TIP3    H212022   0.421   6.418   4.905 -1.4521 -0.9414  1.4073
 4020TIP3   OH212023   1.845   2.396   5.140 -0.2101 -0.4212  0.3398
 4020TIP3    H112024   1.907   2.327   5.114 -0.0590 -0.1326 -0.0910
 4020TIP3    H212025   1.840   2.390   5.235  0.1241 -0.7583  0.3374
 4021TIP3   OH212026   0.152   4.916   0.182 -0.2908  0.3362  0.1712
 4021TIP3    H112027   0.075   4.954   0.225 -1.9928  0.4764 -2.7041
 4021TIP3    H212028   0.120   4.834   0.144  0.5904  0.9862 -2.1279
 4022TIP3   OH212029   3.547   5.035   3.164  0.1567 -0.0584  0.1243
 4022TIP3    H112030   3.631   4.990   3.151 -0.6198 -1.4636 -0.2303
 4022TIP3    H212031   3.533   5.082   3.082  0.2722 -0.3707 -0.0776
 4023TIP3   OH212032   2.924   0.648   3.377 -0.8121  0.0397  0.7352
 4023TIP3    H112033   2.937   0.556   3.355  0.4567  0.3661 -0.0081
 4023TIP3    H212034   3.001   0.671   3.429  0.2313  1.2983 -1.2315
 4024TIP3   OH212035   3.884   0.580   3.407 -0.2346  0.5190  0.4028
 4024TIP3    H112036   3.866   0.498   3.452  1.8291 -0.1217  0.1772
 4024TIP3    H212037   3.805   0.597   3.355 -0.3659 -1.8425 -0.3067
 4025TIP3   OH212038   6.469   2.445   4.854 -0.2573  0.0596  0.1618
 4025TIP3    H112039   6.490   2.515   4.793 -2.4466  0.6900  0.0694
 4025TIP3    H212040   6.478   2.365   4.803 -1.2020  0.5215 -0.7598
 4026TIP3   OH212041   2.651   6.653   3.799  0.3909 -0.2693  0.3784
 4026TIP3    H112042   2.576   6.697   3.760  1.0513  1.1582  0.6573
 4026TIP3    H212043   2.648   6.678   3.891  2.0319  1.0608  0.1112
 4027TIP3   OH212044   1.886   4.971   0.182  0.6742 -0.5259 -0.0913
 4027TIP3    H112045   1.888   4.985   0.277 -0.2199 -0.7243 -0.0326
 4027TIP3    H212046   1.906   5.057   0.145  0.3926 -0.2917  0.2823
 4028TIP3   OH212047   4.609   3.487   0.884 -0.5501  0.0799  0.2210
 4028TIP3    H112048   4.574   3.568   0.920 -3.1315  0.1626 -2.1372
 4028TIP3    H212049   4.632   3.508   0.793  0.8379 -1.2970  0.2065
 4029TIP3   OH212050   0.011   6.635   1.616 -0.0332 -0.2106 -0.0483
 4029TIP3    H112051   0.095   6.679   1.633  0.1758 -0.2851 -0.8426
 4029TIP3    H212052  -0.053   6.706   1.615 -0.1808 -0.2815  1.7586
 4030TIP3   OH212053   3.836   6.667   5.402  0.3780  0.2158 -0.1563
 4030TIP3    H112054   3.766   6.702   5.457  0.0468 -1.2719  0.4033
 4030TIP3    H212055   3.916   6.684   5.452  0.1029 -0.8915  0.7064
 4031TIP3   OH212056   2.645   1.618   4.128  0.0672 -0.1763 -0.0150
 4031TIP3    H112057   2.675   1.707   4.143 -0.9992  0.4035 -1.1622
 4031TIP3    H212058   2.688   1.566   4.196  2.5995  0.7872 -0.7951
 4032TIP3   OH212059   6.734   6.764   1.079  0.2161  0.1220  0.1643
 4032TIP3    H112060   6.817   6.749   1.123  0.2933  0.0908  0.0091
 4032TIP3    H212061   6.755   6.761   0.986 -0.1818 -1.2846  0.0799
 4033TIP3   OH212062   4.659   3.621   5.291 -0.0191  0.1438 -0.3845
 4033TIP3    H112063   4.671   3.586   5.203  0.7220  0.1551 -0.2929
 4033TIP3    H212064   4.617   3.706   5.278 -2.0904 -0.8530 -0.5976
 4034TIP3   OH212065   2.831   0.635   2.361 -0.0336 -0.2851  0.0077
 4034TIP3    H112066   2.773   0.559   2.361 -0.0005 -0.3483  1.5137
 4034TIP3    H212067   2.901   0.612   2.422 -0.2930  1.1128  0.8933
 4035TIP3   OH212068   3.101   5.128   2.547  0.8034 -0.2179 -0.2041
 4035TIP3    H112069   3.051   5.069   2.604  1.0139 -1.9055 -1.6914
 4035TIP3    H212070   3.141   5.191   2.607 -1.5586  0.0620  1.2083
 4036TIP3   OH212071   4.086   5.733   2.877 -0.2623  0.3632 -0.0405
 4036TIP3    H112072   4.012   5.679   2.850 -1.1344  1.1017  0.7982
 4036TIP3    H212073   4.108   5.785   2.800 -0.2514 -0.2468 -0.4591
 4037TIP3   OH212074   3.903   5.327   1.925  0.6214  0.0471 -0.3035
 4037TIP3    H112075   3.876   5.352   1.836  0.6709  0.1414 -0.2919
 4037TIP3    H212076   3.997   5.315   1.919  0.9622  2.0948  0.2054
 4038TIP3   OH212077   3.367   4.484   5.057 -0.3216 -0.2000 -0.2401
 4038TIP3    H112078   3.352   4.389   5.064 -0.5255 -0.3196 -1.8865
 4038TIP3    H212079   3.298   4.515   4.998  0.3232  0.8067 -0.4887
 4039TIP3   OH212080   4.057   2.620   3.093  0.3028  0.0619  0.5557
 4039TIP3    H112081   4.046   2.535   3.136  0.2811 -0.2172  0.0043
 4039TIP3    H212082   4.109   2.601   3.015  0.8901  0.6659  0.7906
 4040TIP3   OH212083   6.674   6.409   3.364  0.3174 -0.0097 -0.0487
 4040TIP3    H112084   6.719   6.357   3.431 -0.7643 -0.2789  0.4822
 4040TIP3    H212085   6.592   6.435   3.405  0.4241  1.3455 -0.6425
 4041TIP3   OH212086   7.108   1.005   1.883 -0.2789 -0.4842 -0.2864
 4041TIP3    H112087   7.063   0.989   1.800  0.5562 -1.5655 -0.5631
 4041TIP3    H212088   7.056   1.071   1.927 -1.5022 -0.8997 -1.0731
 4042TIP3   OH212089   6.427   4.772   1.520  0.3159  0.8706 -0.4235
 4042TIP3    H112090   6.477   4.733   1.592 -0.3763 -2.0433 -1.3959
 4042TIP3    H212091   6.491   4.782   1.449 -0.0378 -1.3477 -1.1289
 4043TIP3   OH212092   0.345   2.440   5.582  0.0790 -0.6951 -0.3538
 4043TIP3    H112093   0.298   2.461   5.663  0.7183  0.7654 -0.3355
 4043TIP3    H212094   0.334   2.518   5.527  0.8422 -1.1117 -1.1130
 4044TIP3   OH212095   0.309   1.156   3.776 -0.5679 -0.4755 -0.0006
 4044TIP3    H112096   0.252   1.217   3.731 -1.3953 -1.6826 -0.6471
 4044TIP3    H212097   0.370   1.125   3.708  1.0269  0.9402  0.7175
 4045TIP3   OH212098   2.268   2.403   3.736  0.0405  0.0901  0.7334
 4045TIP3    H112099   2.183   2.359   3.738  0.3605 -0.5358  0.8920
 4045TIP3    H212100   2.286   2.424   3.828 -1.1420  2.6276  0.4720
 4046TIP3   OH212101   1.572   0.017   5.908 -0.3769  0.0118  0.1193
 4046TIP3    H112102   1.521   0.076   5.852 -0.5098 -0.0061  0.2220
 4046TIP3    H212103   1.658   0.015   5.867 -0.2540  0.6015  0.3470
 4047TIP3   OH212104   3.004   6.774   1.702 -0.1316 -0.3685 -0.3632
 4047TIP3    H112105   3.062   6.702   1.726  1.2676  1.4339  2.2527
 4047TIP3    H212106   2.918   6.747   1.735  0.2596 -1.0816  0.1104
 4048TIP3   OH212107   1.169   6.346   4.979  0.3469  0.5386 -0.4895
 4048TIP3    H112108   1.246   6.395   5.009  0.2638  1.3339 -1.5216
 4048TIP3    H212109   1.145   6.292   5.054  1.8767  0.3053 -0.1199
 4049TIP3   OH212110   3.191   3.810   1.278 -0.7076 -0.1784  0.4125
 4049TIP3    H112111   3.266   3.767   1.236  1.0708  1.8479  1.2877
 4049TIP3    H212112   3.150   3.741   1.331  0.5640 -1.3549 -0.0625
 4050TIP3   OH212113   5.359   6.356   2.424 -0.1959 -0.1519 -0.1165
 4050TIP3    H112114   5.385   6.267   2.448 -0.3485  0.0211  0.7221
 4050TIP3    H212115   5.298   6.383   2.492 -0.9789  0.2138 -0.9404
 4051TIP3   OH212116   5.680   0.647   2.704 -0.1638  0.0328  0.3615
 4051TIP3    H112117   5.621   0.723   2.704 -1.4327 -0.6876  4.3518
 4051TIP3    H212118   5.755   0.676   2.757 -0.2479 -1.1398  1.1723
 4052TIP3   OH212119   3.896   1.353   4.131 -0.1197 -0.1440  0.0882
 4052TIP3    H112120   3.830   1.353   4.200  0.7536 -0.3483  0.9408
 4052TIP3    H212121   3.882   1.271   4.083 -1.7278  0.7081 -0.9855
 4053TIP3   OH212122   2.011   1.827   4.140  0.3066 -0.5782  0.4165
 4053TIP3    H112123   1.943   1.874   4.091  0.7864 -1.2102 -0.9110
 4053TIP3    H212124   2.043   1.890   4.204  0.3038  0.6089 -0.7119
 4054TIP3   OH212125   0.339   3.214   1.413 -0.2131  0.1794  0.0895
 4054TIP3    H112126   0.339   3.303   1.376 -0.3906  0.4291  0.6882
 4054TIP3    H212127   0.281   3.165   1.354  0.4875  0.2606 -0.6944
 4055TIP3   OH212128   3.571   6.233   3.838 -0.2405 -0.6261  0.2775
 4055TIP3    H112129   3.537   6.317   3.806  2.2818  0.0496 -0.8520
 4055TIP3    H212130   3.612   6.254   3.921 -0.6206 -1.0082  0.5693
 4056TIP3   OH212131   5.998   0.761   1.765  0.0992 -0.0323 -0.2882
 4056TIP3    H112132   5.991   0.674   1.726  0.6881 -0.4173  0.4543
 4056TIP3    H212133   6.071   0.802   1.718  2.5964 -1.4394  2.0660
 4057TIP3   OH212134   4.713   2.817   2.665  0.1303 -0.6420 -0.2434
 4057TIP3    H112135   4.729   2.865   2.583  1.8295 -1.7059 -0.5787
 4057TIP3    H212136   4.701   2.886   2.730  2.4508  0.3266 -0.7227
 4058TIP3   OH212137   0.078   1.870   4.361 -0.4305  0.4579 -0.0564
 4058TIP3    H112138   0.024   1.941   4.326  1.3716  2.1633  0.5180
 4058TIP3    H212139   0.125   1.836   4.285 -0.8132  0.2811 -0.2200
 4059TIP3   OH212140   1.933   4.675   0.183 -0.1807 -0.5284  0.0101
 4059TIP3    H112141   2.008   4.709   0.133 -0.2478 -0.0397  0.2349
 4059TIP3    H212142   1.871   4.748   0.185  0.9461  0.5450  3.1603
 4060TIP3   OH212143   4.728   3.801   0.640 -0.1724 -0.6039 -0.7652
 4060TIP3    H112144   4.699   3.710   0.644  0.1519 -0.7489 -1.4815
 4060TIP3    H212145   4.648   3.850   0.621 -0.8418 -0.4096  2.1240
 4061TIP3   OH212146   5.261   4.675   2.453 -0.1911  0.4372 -0.2317
 4061TIP3    H112147   5.214   4.756   2.473 -0.6379 -0.0291  0.6378
 4061TIP3    H212148   5.320   4.663   2.527 -0.5842 -0.3659 -0.0458
 4062TIP3   OH212149   2.207   1.850   5.769  0.2290 -0.1230  0.0307
 4062TIP3    H112150   2.286   1.876   5.719 -0.9185  2.2691 -0.7202
 4062TIP3    H212151   2.236   1.776   5.822  2.5218 -0.4403 -1.4850
 4063TIP3   OH212152   1.060   5.852   3.954  0.4315  0.0710 -0.1243
 4063TIP3    H112153   1.151   5.827   3.938  0.3802 -0.6256  0.6034
 4063TIP3    H212154   1.055   5.864   4.049 -0.0913  0.7042 -0.2294
 4064TIP3   OH212155   4.641   3.589   1.786 -0.2852  0.0155 -0.3382
 4064TIP3    H112156   4.547   3.587   1.769 -0.1990  1.3527 -1.1054
 4064TIP3    H212157   4.650   3.554   1.875 -1.1357 -3.2247 -1.3768
 4065TIP3   OH212158   0.602   0.826   3.683 -0.2115 -0.3264  0.1475
 4065TIP3    H112159   0.559   0.892   3.628  1.8875 -0.1409 -1.4055
 4065TIP3    H212160   0.650   0.877   3.748  1.2427 -0.2614 -0.9250
 4066TIP3   OH212161   3.577   5.532   2.675  0.0150 -0.9553  0.8363
 4066TIP3    H112162   3.485   5.557   2.668  0.4418  0.1913 -1.7619
 4066TIP3    H212163   3.574   5.439   2.699 -1.8621 -1.2650 -0.3751
 4067TIP3   OH212164   5.346   0.101   3.699 -0.2734 -0.3976  0.1260
 4067TIP3    H112165   5.431   0.130   3.667  0.0669 -0.0093  1.3232
 4067TIP3    H212166   5.364   0.017   3.742 -0.7421 -0.9697 -0.7488
 4068TIP3   OH212167   4.330   3.480   0.626 -0.0664 -0.5117 -0.1073
 4068TIP3    H112168   4.287   3.476   0.541  0.0387 -0.4786 -0.1620
 4068TIP3    H212169   4.312   3.394   0.665  1.1769 -1.1127 -0.7956
 4069TIP3   OH212170   2.419   0.427   4.264 -0.0426  0.1258 -0.1334
 4069TIP3    H112171   2.502   0.392   4.232 -0.4474 -0.0820 -0.9629
 4069TIP3    H212172   2.423   0.521   4.244 -0.3587 -0.0305 -0.9316
 4070TIP3   OH212173   0.907   2.035   4.077 -0.0053 -0.0962  0.1623
 4070TIP3    H112174   0.886   2.101   4.010 -1.0780 -1.0892 -0.5182
 4070TIP3    H212175   0.902   2.082   4.160  0.4790  0.9569 -0.3832
 4071TIP3   OH212176   1.128   1.640   2.370  0.3455 -0.4558  0.2790
 4071TIP3    H112177   1.096   1.591   2.294  0.7908 -0.7822  0.2979
 4071TIP3    H212178   1.064   1.710   2.382 -0.9232 -1.6739  0.9353
 4072TIP3   OH212179   2.664   3.628   1.718  0.7878 -0.4328  0.9381
 4072TIP3    H112180   2.611   3.557   1.754  0.6214 -0.7246  0.1444
 4072TIP3    H212181   2.753   3.609   1.748  0.9327 -1.5829 -0.1149
 4073TIP3   OH212182   3.428   4.051   1.234  0.0160  0.0231  0.1574
 4073TIP3    H112183   3.429   3.970   1.183 -0.0376  1.4948 -2.3595
 4073TIP3    H212184   3.473   4.114   1.179  1.4049  1.4074  2.7025
 4074TIP3   OH212185   4.620   4.628   5.622  0.1924 -0.3993  0.2748
 4074TIP3    H112186   4.555   4.589   5.681 -0.6635  1.1341  0.3929
 4074TIP3    H212187   4.679   4.556   5.601 -2.0473 -2.1149 -0.5790
 4075TIP3   OH212188   2.672   1.578   1.917 -0.2500 -0.4215 -0.0785
 4075TIP3    H112189   2.585   1.572   1.877 -0.6125 -0.5258  0.7260
 4075TIP3    H212190   2.692   1.672   1.915  1.2919 -0.6312 -3.7540
 4076TIP3   OH212191   6.942   3.279   3.310 -0.2796 -0.3768  0.3120
 4076TIP3    H112192   6.989   3.283   3.227 -0.5332 -0.4773  0.1629
 4076TIP3    H212193   6.881   3.206   3.300  0.5123 -1.1638  1.0205
 4077TIP3   OH212194   1.208   2.781   1.171 -0.3826  0.1167 -0.7350
 4077TIP3    H112195   1.196   2.731   1.090 -0.5183  0.3212 -0.8427
 4077TIP3    H212196   1.223   2.714   1.238 -1.4330 -0.1267 -0.7147
 4078TIP3   OH212197   0.237   0.280   3.049 -0.3370  0.4118  0.6996
 4078TIP3    H112198   0.197   0.309   2.968  1.7486  2.3691  0.2694
 4078TIP3    H212199   0.171   0.295   3.116 -1.4133  0.5516 -0.3626
 4079TIP3   OH212200   6.851   2.378   4.724  0.5971 -0.4121 -0.0780
 4079TIP3    H112201   6.830   2.471   4.729 -1.3764 -0.8499  0.3031
 4079TIP3    H212202   6.905   2.362   4.802  0.0290  0.1976  0.4519
 4080TIP3   OH212203   3.872   0.215   1.016 -0.4058  0.2350 -0.9233
 4080TIP3    H112204   3.783   0.239   1.041 -0.2373 -1.3852  1.5748
 4080TIP3    H212205   3.917   0.298   1.003 -1.2282  1.2502  1.9467
 4081TIP3   OH212206   2.316   4.613   2.981  0.1706 -0.2475 -0.6395
 4081TIP3    H112207   2.326   4.540   2.919 -0.7811 -0.1063 -0.9704
 4081TIP3    H212208   2.384   4.675   2.955 -0.4764 -0.0007 -1.8239
 4082TIP3   OH212209   6.505   0.046   2.200 -0.4588  0.2776  0.3618
 4082TIP3    H112210   6.436   0.063   2.136  0.9711  0.0027 -1.3490
 4082TIP3    H212211   6.511  -0.050   2.203  0.0855  0.3068  0.2282
 4083TIP3   OH212212   3.032   5.242   3.843  0.0813 -0.0580  0.0812
 4083TIP3    H112213   3.124   5.265   3.852 -0.4539  1.7426  1.4880
 4083TIP3    H212214   3.010   5.197   3.924 -1.0250  2.5236  1.3332
 4084TIP3   OH212215   3.433   2.435   1.247  0.2104 -0.7635  0.0481
 4084TIP3    H112216   3.359   2.484   1.282  0.7791  1.1993 -1.3473
 4084TIP3    H212217   3.395   2.353   1.215 -1.1905 -0.1827  0.1659
 4085TIP3   OH212218   7.095   4.020   0.373  0.3516  0.6041 -0.3798
 4085TIP3    H112219   7.107   3.953   0.440  2.0216  0.6149 -0.6249
 4085TIP3    H212220   7.003   4.012   0.347  0.1054 -0.4868  0.7422
 4086TIP3   OH212221   5.565   2.690   4.096 -0.6019 -0.1627  0.1037
 4086TIP3    H112222   5.501   2.688   4.167 -1.9910 -1.1006 -1.1061
 4086TIP3    H212223   5.531   2.756   4.035 -0.0325 -0.1641 -0.2231
 4087TIP3   OH212224   6.072   5.811   0.690 -0.2503 -0.1263  0.3662
 4087TIP3    H112225   5.985   5.801   0.652  0.0772 -0.2458 -0.3545
 4087TIP3    H212226   6.131   5.815   0.615  0.1587  2.3526  0.7127
 4088TIP3   OH212227   3.784   6.751   2.492  0.1311 -0.4263  0.5297
 4088TIP3    H112228   3.878   6.762   2.508  0.0321  1.0554  0.2940
 4088TIP3    H212229   3.780   6.710   2.405  0.5609 -2.3054  1.3565
 4089TIP3   OH212230   5.410   4.037   4.056 -0.0880  0.0010  0.1858
 4089TIP3    H112231   5.325   4.080   4.049  1.2071  2.6019 -1.1025
 4089TIP3    H212232   5.441   4.030   3.965  1.6408  0.3828  0.7069
 4090TIP3   OH212233   4.509   6.717   2.240  0.3034 -0.3838 -0.3908
 4090TIP3    H112234   4.483   6.776   2.310  2.9933  0.4968 -0.0153
 4090TIP3    H212235   4.560   6.648   2.284  2.3498  0.3874 -1.4195
 4091TIP3   OH212236   2.542   3.265   2.003  0.4368  0.3268  0.7073
 4091TIP3    H112237   2.515   3.175   2.019  1.1102  0.3943  2.4819
 4091TIP3    H212238   2.495   3.317   2.069 -0.3845  1.3681 -0.6547
 4092TIP3   OH212239   5.719   0.826   4.710 -0.1948 -0.6560  0.2042
 4092TIP3    H112240   5.700   0.863   4.624  0.6357 -1.3697 -0.2994
 4092TIP3    H212241   5.787   0.884   4.746 -0.8157 -0.1331  0.5487
 4093TIP3   OH212242   6.025   4.337   3.892 -0.0439 -0.3137  0.1034
 4093TIP3    H112243   6.014   4.412   3.833 -0.3758 -0.2128  0.2874
 4093TIP3    H212244   5.938   4.297   3.895 -0.3077  0.3173  1.3644
 4094TIP3   OH212245   6.651   2.399   0.273  0.3509  0.2919  0.1968
 4094TIP3    H112246   6.674   2.489   0.294 -1.4445  0.6042  1.0171
 4094TIP3    H212247   6.688   2.347   0.345 -1.1145  0.7616  1.3686
 4095TIP3   OH212248   3.626   2.247   5.121 -0.5974 -1.0583 -0.2377
 4095TIP3    H112249   3.578   2.178   5.167  0.0349 -0.4524  1.3710
 4095TIP3    H212250   3.649   2.311   5.188  0.2740 -0.0827 -1.4063
 4096TIP3   OH212251   4.657   3.890   4.555  0.3529 -0.1857  0.0113
 4096TIP3    H112252   4.563   3.873   4.561 -0.1001  1.4081 -1.6490
 4096TIP3    H212253   4.683   3.915   4.643 -0.3106 -2.5913  0.9631
 4097TIP3   OH212254   2.941   4.313   4.182 -0.2583 -0.1482 -0.3630
 4097TIP3    H112255   2.865   4.354   4.224  0.4527 -1.1150  2.0560
 4097TIP3    H212256   3.008   4.382   4.182 -0.9885  0.6326 -2.2903
 4098TIP3   OH212257   6.329   4.031   4.777  0.0220 -0.7705  0.3400
 4098TIP3    H112258   6.416   4.021   4.816  0.4497 -1.2733 -0.6928
 4098TIP3    H212259   6.343   4.014   4.684 -1.1684 -0.7467  0.1441
 4099TIP3   OH212260   0.107   3.324   4.458  0.0336  0.4248  0.3480
 4099TIP3    H112261   0.075   3.280   4.537 -2.0569 -1.5740 -1.4409
 4099TIP3    H212262   0.189   3.279   4.436 -1.0689 -1.3536 -0.3536
 4100TIP3   OH212263   0.488   3.562   5.661  0.8383 -0.2348 -0.5177
 4100TIP3    H112264   0.513   3.626   5.727  0.2910  1.3380 -1.7541
 4100TIP3    H212265   0.484   3.613   5.579 -4.4621 -0.5454 -0.8198
 4101TIP3   OH212266   4.540   4.760   2.608 -1.0172  0.3817 -0.0287
 4101TIP3    H112267   4.632   4.765   2.583 -0.0710  0.3869  3.0565
 4101TIP3    H212268   4.532   4.676   2.653 -2.2898  0.7787  0.5411
 4102TIP3   OH212269   5.416   6.704   0.446  0.4193  0.2630 -0.2211
 4102TIP3    H112270   5.338   6.696   0.500  1.6185 -0.8207  1.4648
 4102TIP3    H212271   5.453   6.789   0.469 -0.3933  0.9043 -1.2377
 4103TIP3   OH212272   1.020   6.004   1.134  0.3796 -0.2747 -0.0387
 4103TIP3    H112273   0.986   5.966   1.215  1.0788  0.8738  0.8211
 4103TIP3    H212274   1.017   6.099   1.149  0.9877 -0.0627 -1.1681
 4104TIP3   OH212275   5.302   0.507   3.579 -0.0647 -0.4915 -0.0366
 4104TIP3    H112276   5.242   0.581   3.576  1.3043  0.7186  1.1328
 4104TIP3    H212277   5.382   0.541   3.620  1.0070 -2.3376 -0.4411
 4105TIP3   OH212278   1.779   4.890   4.683 -0.2931  0.4408  0.1932
 4105TIP3    H112279   1.819   4.967   4.723 -1.0245  2.4238 -2.5892
 4105TIP3    H212280   1.687   4.893   4.712 -0.0903 -0.0007  0.8996
 4106TIP3   OH212281   2.034   5.793   2.561 -0.6399 -0.2288  0.0964
 4106TIP3    H112282   1.995   5.878   2.539 -0.0423  0.3046  1.0568
 4106TIP3    H212283   2.091   5.774   2.487  0.5441  1.0489  0.6231
 4107TIP3   OH212284   3.209   3.470   0.704  0.0241 -0.2812  0.5114
 4107TIP3    H112285   3.270   3.480   0.631  0.0918  1.8500  0.8027
 4107TIP3    H212286   3.122   3.481   0.664 -0.2819 -3.3894  0.0820
 4108TIP3   OH212287   6.085   1.757   2.516 -0.2763 -0.0774  0.0771
 4108TIP3    H112288   6.161   1.764   2.575  0.0274 -0.2999 -0.2830
 4108TIP3    H212289   6.122   1.765   2.428 -0.5575 -0.9985 -0.1406
 4109TIP3   OH212290   1.282   4.348   4.042  0.3968 -0.1804 -0.1775
 4109TIP3    H112291   1.294   4.402   4.120  0.2799 -2.0429  1.2010
 4109TIP3    H212292   1.233   4.403   3.981 -0.0645  1.1101  1.3065
 4110TIP3   OH212293   5.614   4.465   3.623 -0.7940  0.2721 -0.2422
 4110TIP3    H112294   5.640   4.372   3.619 -2.4241 -0.2907  1.1076
 4110TIP3    H212295   5.690   4.509   3.660 -0.0903 -0.5524 -0.6587
 4111TIP3   OH212296   4.791   1.451   4.698  0.4578 -0.5733  0.0631
 4111TIP3    H112297   4.736   1.374   4.704  2.3420 -1.8716  2.3430
 4111TIP3    H212298   4.817   1.455   4.606 -1.7565 -1.0416 -0.6360
 4112TIP3   OH212299   3.784   3.309   1.101  0.6578  0.1647  0.0580
 4112TIP3    H112300   3.822   3.225   1.076  1.7043  0.8638 -0.8210
 4112TIP3    H212301   3.859   3.362   1.125 -0.0820  0.5325  1.6402
 4113TIP3   OH212302   6.942   2.960   2.587 -0.0305 -0.2449 -0.3716
 4113TIP3    H112303   7.019   2.926   2.542  0.3030 -1.5299  1.0978
 4113TIP3    H212304   6.947   2.924   2.675 -1.8901  0.3068  0.0128
 4114TIP3   OH212305   4.563   5.820   3.683 -0.3846  0.6383  0.6876
 4114TIP3    H112306   4.604   5.826   3.597 -0.1856 -0.6860  0.6699
 4114TIP3    H212307   4.554   5.910   3.712  1.0011  1.0293 -0.0348
 4115TIP3   OH212308   5.092   0.129   4.039  0.0268  0.0574  0.3927
 4115TIP3    H112309   5.007   0.094   4.012  0.7571  0.0614 -2.0885
 4115TIP3    H212310   5.075   0.166   4.126 -2.1606 -1.1453  0.5650
 4116TIP3   OH212311   2.998   3.557   4.114  0.1453  0.2915 -0.3016
 4116TIP3    H112312   2.904   3.572   4.108 -0.1278 -1.1280  0.0280
 4116TIP3    H212313   3.037   3.644   4.107 -1.1787  0.8861 -0.5599
 4117TIP3   OH212314   1.507   3.595   0.132  0.2365  0.1804 -0.5195
 4117TIP3    H112315   1.482   3.564   0.219  1.5658 -0.0489 -0.1922
 4117TIP3    H212316   1.602   3.586   0.130  0.4524  2.0391 -1.2665
 4118TIP3   OH212317   1.925   2.732   3.526 -0.0063 -0.0032 -0.0659
 4118TIP3    H112318   1.936   2.767   3.615  0.5913  1.7830 -0.7930
 4118TIP3    H212319   2.005   2.681   3.511  0.6670  1.0318 -0.1302
 4119TIP3   OH212320   3.912   2.549   1.915 -0.8903 -0.0054 -0.4067
 4119TIP3    H112321   3.948   2.527   2.001 -1.0451  2.0203  0.2235
 4119TIP3    H212322   3.875   2.466   1.883  2.9938 -1.9275 -0.5556
 4120TIP3   OH212323   2.464   1.451   0.954 -0.5108 -0.2685  0.2184
 4120TIP3    H112324   2.424   1.411   0.877  0.6870  1.6646 -1.5213
 4120TIP3    H212325   2.536   1.504   0.918  0.0503  0.7532  2.6727
 4121TIP3   OH212326   5.753   0.333   4.392  0.4483 -0.4580  0.3402
 4121TIP3    H112327   5.758   0.277   4.469 -0.1778 -0.8319  0.1118
 4121TIP3    H212328   5.844   0.343   4.364  0.6314 -0.7421  0.8254
 4122TIP3   OH212329   2.925   1.036   4.786 -0.0249  0.4237 -0.5247
 4122TIP3    H112330   2.925   0.943   4.807  0.2063  0.6417  0.4513
 4122TIP3    H212331   2.841   1.068   4.819  0.4274  0.8064  0.2831
 4123TIP3   OH212332   1.743   3.727   2.773  1.0443 -0.1680 -1.5651
 4123TIP3    H112333   1.675   3.679   2.820  0.2527  2.7082  0.5362
 4123TIP3    H212334   1.825   3.699   2.815  0.4989  1.0164  0.4643
 4124TIP3   OH212335   4.449   5.325   1.905 -0.0510 -0.0891  0.3533
 4124TIP3    H112336   4.353   5.329   1.905 -0.0395  2.8553  1.2392
 4124TIP3    H212337   4.475   5.366   1.822  0.4554 -0.8509  0.1272
 4125TIP3   OH212338   2.779   1.672   0.985 -0.0471  0.4506 -0.0287
 4125TIP3    H112339   2.704   1.712   1.027 -1.3635  1.2153 -2.8616
 4125TIP3    H212340   2.747   1.645   0.899  1.8857 -2.9056  0.1038
 4126TIP3   OH212341   6.994   0.253   0.788 -0.3032 -0.2059 -0.0106
 4126TIP3    H112342   7.046   0.178   0.818 -1.4579 -1.1731 -0.3618
 4126TIP3    H212343   7.028   0.271   0.700 -1.0435 -1.3192 -0.5403
 4127TIP3   OH212344   2.149   1.293   1.061  0.1943  0.5052  0.4925
 4127TIP3    H112345   2.179   1.380   1.034  0.6186  0.4481  0.7688
 4127TIP3    H212346   2.102   1.309   1.143  2.6109  0.1769  2.0592
 4128TIP3   OH212347   5.653   2.616   1.013  0.8200  0.3056  0.2114
 4128TIP3    H112348   5.709   2.585   0.941  0.7011 -0.0404  0.2631
 4128TIP3    H212349   5.669   2.553   1.084 -1.5013 -1.3496 -0.5967
 4129TIP3   OH212350   1.782   6.597   1.832  1.2480  0.3771 -0.2784
 4129TIP3    H112351   1.748   6.610   1.920 -0.1212  2.7330 -1.0561
 4129TIP3    H212352   1.757   6.507   1.809 -1.7803  0.9488  0.3903
 4130TIP3   OH212353   3.016   6.505   5.057  0.7859 -0.9447  0.5442
 4130TIP3    H112354   3.069   6.426   5.047  0.1936 -1.2723 -0.1749
 4130TIP3    H212355   2.944   6.493   4.995  0.4264 -0.0523  0.7695
 4131TIP3   OH212356   0.835   1.027   5.203 -0.1881 -0.0324 -0.1583
 4131TIP3    H112357   0.822   0.983   5.119  1.4698 -0.5827 -0.1649
 4131TIP3    H212358   0.929   1.018   5.221 -0.5095 -0.0736  1.8208
 4132TIP3   OH212359   3.699   5.350   4.754 -0.0427  0.7301 -0.1415
 4132TIP3    H112360   3.659   5.291   4.690 -1.9173  1.1458  0.6009
 4132TIP3    H212361   3.793   5.331   4.748 -0.4274 -1.0753 -1.1542
 4133TIP3   OH212362   7.146   4.681   3.619 -0.1153  0.1336 -0.0969
 4133TIP3    H112363   7.099   4.717   3.543  0.5047  0.2827 -0.4187
 4133TIP3    H212364   7.082   4.685   3.690  0.1451  2.6817  0.1089
 4134TIP3   OH212365   0.430   0.417   1.131 -0.3097  0.0492  0.3626
 4134TIP3    H112366   0.417   0.328   1.100 -0.6701  0.2673 -0.1285
 4134TIP3    H212367   0.485   0.458   1.064  0.4652 -0.0111  0.9495
 4135TIP3   OH212368   5.601   0.575   4.688 -0.3608  0.8549 -0.4713
 4135TIP3    H112369   5.560   0.584   4.602  0.2669  0.9787 -0.7648
 4135TIP3    H212370   5.669   0.643   4.689 -0.8653  1.3622  0.4249
 4136TIP3   OH212371   6.597   6.759   0.185  0.2657 -0.4960 -0.2288
 4136TIP3    H112372   6.594   6.853   0.166  1.0160 -0.5742 -0.7763
 4136TIP3    H212373   6.684   6.745   0.222  0.5180 -1.1271 -1.0402
 4137TIP3   OH212374   6.121   3.339   5.707 -0.2167  0.4737  0.7359
 4137TIP3    H112375   6.144   3.286   5.783 -0.9966 -0.8726  0.0781
 4137TIP3    H212376   6.054   3.399   5.740  0.2471  0.6510  1.3651
 4138TIP3   OH212377   7.207   1.576   2.730 -0.2777 -0.4417 -0.1536
 4138TIP3    H112378   7.126   1.584   2.681 -0.9251  0.6067  1.0228
 4138TIP3    H212379   7.180   1.560   2.820  0.8497 -1.0879  0.0940
 4139TIP3   OH212380   7.107   0.527   1.405  0.2984  0.1878  0.3029
 4139TIP3    H112381   7.155   0.457   1.449  1.7377  0.1377 -1.2369
 4139TIP3    H212382   7.051   0.481   1.342 -2.1406  0.2260  2.3064
 4140TIP3   OH212383   1.153   1.391   5.281 -0.2824  0.2187 -0.4899
 4140TIP3    H112384   1.191   1.326   5.222  0.6603  1.2905 -1.1149
 4140TIP3    H212385   1.207   1.469   5.268 -1.9368  1.4269 -0.4586
 4141TIP3   OH212386   5.623   1.078   0.618  0.0727  0.4306  0.4862
 4141TIP3    H112387   5.549   1.099   0.561 -2.0755  1.5306  3.4485
 4141TIP3    H212388   5.583   1.035   0.694  2.3008  2.0765  2.7313
 4142TIP3   OH212389   3.946   4.250   4.109 -0.8494  0.1214  0.1222
 4142TIP3    H112390   3.967   4.204   4.191  2.5644 -0.6495 -1.0134
 4142TIP3    H212391   3.878   4.197   4.068 -0.2565 -1.3472  0.9717
 4143TIP3   OH212392   2.697   5.665   4.567  0.5351  0.2541 -0.0893
 4143TIP3    H112393   2.691   5.582   4.615 -1.3980  0.8241  0.7432
 4143TIP3    H212394   2.791   5.678   4.555  1.0243 -0.7913  2.0117
 4144TIP3   OH212395   6.832   6.226   3.037 -0.1805 -0.2911  0.3456
 4144TIP3    H112396   6.799   6.171   2.966  0.6127 -1.0366  0.5296
 4144TIP3    H212397   6.900   6.280   2.997  0.3729 -0.8177  0.5380
 4145TIP3   OH212398   1.998   2.307   3.718  0.4253 -0.0660  0.1529
 4145TIP3    H112399   1.926   2.359   3.683 -0.4551 -1.6394 -0.4852
 4145TIP3    H212400   1.979   2.217   3.689  2.9305 -0.4483 -0.5516
 4146TIP3   OH212401   2.977   0.780   0.904  0.4242 -0.1734 -0.2423
 4146TIP3    H112402   2.883   0.785   0.919  0.5685  2.2221  0.3798
 4146TIP3    H212403   2.986   0.743   0.816 -0.9725 -2.3637  0.4744
 4147TIP3   OH212404   1.025   1.004   4.705  0.4015 -0.0162  0.3283
 4147TIP3    H112405   1.056   0.916   4.683 -0.3325  0.0888 -1.2130
 4147TIP3    H212406   0.994   1.041   4.622 -0.6968  1.1386  1.2114
 4148TIP3   OH212407   2.820   0.152   2.456 -0.2415  0.1476 -0.3595
 4148TIP3    H112408   2.792   0.139   2.366 -0.5261 -0.3825 -0.2024
 4148TIP3    H212409   2.742   0.135   2.508  0.1024 -0.2813  0.0258
 4149TIP3   OH212410   4.176   2.324   5.486 -0.1912  0.3482 -0.1708
 4149TIP3    H112411   4.261   2.293   5.457 -1.0128 -0.3818 -1.9692
 4149TIP3    H212412   4.139   2.251   5.535  0.0461  0.5196  0.2691
 4150TIP3   OH212413   4.515   3.255   3.402 -0.6367  0.6643  0.6188
 4150TIP3    H112414   4.476   3.226   3.319  0.6218  0.4418  0.0780
 4150TIP3    H212415   4.447   3.308   3.443 -2.1498 -1.1177  0.5450
 4151TIP3   OH212416   1.531   6.117   4.219 -0.0572  0.4055  0.4006
 4151TIP3    H112417   1.493   6.136   4.305 -2.8452 -2.2877 -0.0526
 4151TIP3    H212418   1.478   6.168   4.158 -0.4674 -0.4265  0.0442
 4152TIP3   OH212419   2.269   0.379   0.294 -0.0894 -0.0210  0.2580
 4152TIP3    H112420   2.303   0.317   0.231  0.4688 -1.3326  1.7764
 4152TIP3    H212421   2.346   0.410   0.342 -0.6740 -0.5998  1.6173
 4153TIP3   OH212422   3.444   2.751   1.236 -0.4924 -0.5467 -0.3102
 4153TIP3    H112423   3.463   2.772   1.327 -0.0838  1.1889 -0.7617
 4153TIP3    H212424   3.374   2.685   1.241  1.6948 -2.9309  1.2709
 4154TIP3   OH212425   4.510   1.579   3.924  1.0566  0.1308 -0.1315
 4154TIP3    H112426   4.557   1.568   3.841  0.6323 -1.8634 -0.1569
 4154TIP3    H212427   4.566   1.539   3.989  0.3639 -0.3480  0.1803
 4155TIP3   OH212428   0.616   4.598   1.489 -0.0861  0.2314  0.6380
 4155TIP3    H112429   0.584   4.688   1.486  1.8843  0.9843 -2.4200
 4155TIP3    H212430   0.674   4.596   1.565  1.4619  2.2546 -0.3750
 4156TIP3   OH212431   2.614   0.394   0.096  0.0714  0.4074 -0.4111
 4156TIP3    H112432   2.533   0.383   0.046 -0.7940 -2.0051  1.3186
 4156TIP3    H212433   2.589   0.450   0.170 -0.3782 -1.0994  0.6468
 4157TIP3   OH212434   0.100   1.132   3.341  0.1956  0.0194  0.6627
 4157TIP3    H112435   0.063   1.205   3.391 -1.6694  0.3615 -1.0847
 4157TIP3    H212436   0.163   1.174   3.281 -2.0009  0.5501 -1.4423
 4158TIP3   OH212437   7.130   3.212   1.762  0.4169  0.4541  0.3212
 4158TIP3    H112438   7.197   3.278   1.779  0.8183  0.3844 -0.9020
 4158TIP3    H212439   7.170   3.152   1.698 -0.0712 -0.7701  1.1130
 4159TIP3   OH212440   2.923   4.452   3.030  0.7716  0.2312  0.4157
 4159TIP3    H112441   2.968   4.525   3.073  0.7584  0.4237  0.1080
 4159TIP3    H212442   2.889   4.399   3.102  1.2126  0.2575  0.6474
 4160TIP3   OH212443   2.783   3.681   2.804  0.1957 -0.6462 -0.5590
 4160TIP3    H112444   2.800   3.599   2.758 -2.2805 -1.0611 -0.8602
 4160TIP3    H212445   2.805   3.662   2.895  2.7091 -0.5894 -1.0764
 4161TIP3   OH212446   2.965   2.471   1.158  0.6196  0.4962 -0.1466
 4161TIP3    H112447   3.015   2.416   1.099  0.6075  1.3340 -0.9526
 4161TIP3    H212448   2.905   2.411   1.202 -1.2522  0.1723 -2.9267
 4162TIP3   OH212449   3.582   4.401   5.775  0.0386  0.7364  0.0945
 4162TIP3    H112450   3.573   4.413   5.681  1.2534  0.2788 -0.0946
 4162TIP3    H212451   3.552   4.312   5.791 -0.4985  0.9294  0.2085
 4163TIP3   OH212452   1.837   4.140   0.723 -0.2912 -0.1356  0.0784
 4163TIP3    H112453   1.752   4.182   0.723 -0.3315 -0.2156  0.7460
 4163TIP3    H212454   1.888   4.190   0.659 -0.9439 -0.3220 -0.6069
 4164TIP3   OH212455   6.748   4.429   5.669 -0.2328  0.3394  0.1772
 4164TIP3    H112456   6.794   4.346   5.663 -0.1755  0.1773  2.1728
 4164TIP3    H212457   6.681   4.425   5.600  1.2240 -0.3606 -1.2612
 4165TIP3   OH212458   5.209   1.852   4.412 -0.0805  0.6362 -0.6417
 4165TIP3    H112459   5.124   1.887   4.439 -0.5900  0.3069 -1.7831
 4165TIP3    H212460   5.260   1.929   4.387  0.4962  0.9874  1.3836
 4166TIP3   OH212461   3.653   2.833   3.137  0.6087  0.2127 -0.2207
 4166TIP3    H112462   3.689   2.756   3.093 -1.2824 -0.4583 -0.6952
 4166TIP3    H212463   3.602   2.797   3.209 -0.1695  1.0410 -0.3495
 4167TIP3   OH212464   4.850   6.750   3.355  0.2612 -0.3171 -0.0877
 4167TIP3    H112465   4.791   6.815   3.318  0.7150  0.5264  0.6382
 4167TIP3    H212466   4.865   6.779   3.445  1.8016 -0.4958 -0.2530
 4168TIP3   OH212467   0.558   3.026   4.205  0.7340  0.3940 -0.4179
 4168TIP3    H112468   0.614   2.987   4.138 -0.3763 -1.2378 -0.4641
 4168TIP3    H212469   0.477   3.047   4.158  1.0473  2.2361 -0.2351
 4169TIP3   OH212470   2.417   1.483   1.815  0.1555 -0.5621 -0.4367
 4169TIP3    H112471   2.387   1.434   1.738 -2.3375 -1.5017  1.0058
 4169TIP3    H212472   2.342   1.537   1.838 -0.0427 -1.9513  2.5843
 4170TIP3   OH212473   7.000   5.665   3.889  0.1591  0.0957  0.4634
 4170TIP3    H112474   6.918   5.640   3.934  1.1513 -0.4591  2.0669
 4170TIP3    H212475   7.064   5.600   3.919  0.7718 -0.6919 -2.3060
 4171TIP3   OH212476   0.586   0.351   4.724 -0.2813 -0.4613  0.3223
 4171TIP3    H112477   0.532   0.301   4.785  0.3841 -0.6684  0.7465
 4171TIP3    H212478   0.582   0.301   4.642 -0.8830 -0.3720  0.2895
 4172TIP3   OH212479   4.047   2.740   2.758 -0.2369  0.0473 -0.4511
 4172TIP3    H112480   4.112   2.692   2.808 -0.8078 -2.2785 -1.7754
 4172TIP3    H212481   3.991   2.782   2.823 -1.0797 -3.0032  0.9805
 4173TIP3   OH212482   7.102   0.502   2.398 -0.1609 -0.0169 -0.0752
 4173TIP3    H112483   7.197   0.513   2.400 -0.3100  1.5219 -0.1948
 4173TIP3    H212484   7.067   0.591   2.400 -1.5890 -0.5165 -0.8728
 4174TIP3   OH212485   0.755   1.349   1.111 -0.3680  0.3800  0.1272
 4174TIP3    H112486   0.753   1.439   1.141 -0.1830 -0.3281  2.4481
 4174TIP3    H212487   0.825   1.346   1.046  0.3914  1.6588  0.8662
 4175TIP3   OH212488   2.973   6.080   4.971 -0.3095  0.3068 -0.0029
 4175TIP3    H112489   3.016   5.996   4.957  2.3270  1.2558  1.5641
 4175TIP3    H212490   2.887   6.058   5.007 -0.1217 -1.6922 -0.6717
 4176TIP3   OH212491   3.926   4.011   0.582 -0.0658 -0.4523  0.2015
 4176TIP3    H112492   3.947   4.060   0.662 -0.4945 -0.9592  0.6298
 4176TIP3    H212493   4.010   4.005   0.535  0.1856 -0.1305  0.6017
 4177TIP3   OH212494   5.112   3.803   4.815  0.0286 -0.1345 -0.3943
 4177TIP3    H112495   5.186   3.845   4.858  0.3224 -0.7831 -0.2702
 4177TIP3    H212496   5.139   3.713   4.800 -0.5578 -0.2599 -0.7720
 4178TIP3   OH212497   1.400   3.518   0.838 -0.3635  0.1006  0.0903
 4178TIP3    H112498   1.346   3.497   0.914 -2.1521 -0.1037 -1.1571
 4178TIP3    H212499   1.400   3.614   0.834 -0.9048  0.0992 -0.0577
 4179TIP3   OH212500   4.155   3.980   4.853  0.3334  1.0150 -0.6502
 4179TIP3    H112501   4.078   3.931   4.880  0.1030  0.8302 -1.5847
 4179TIP3    H212502   4.181   4.031   4.930 -0.3844  0.6498 -0.1634
 4180TIP3   OH212503   1.599   2.327   0.890 -0.7099 -0.1356 -0.0943
 4180TIP3    H112504   1.577   2.382   0.814  0.3020 -0.4543 -0.6285
 4180TIP3    H212505   1.551   2.367   0.962 -0.5490  1.0405 -0.6109
 4181TIP3   OH212506   0.709   0.131   1.142 -0.4601  0.1357  0.1065
 4181TIP3    H112507   0.732   0.170   1.226  0.6542  1.3814 -0.7542
 4181TIP3    H212508   0.614   0.146   1.134 -0.6421 -0.2765  1.2444
 4182TIP3   OH212509   4.686   3.104   5.350 -0.1412 -0.1266  0.3166
 4182TIP3    H112510   4.673   3.192   5.386 -0.1258 -0.0704  0.1878
 4182TIP3    H212511   4.781   3.095   5.344 -0.1512  0.2443 -0.6195
 4183TIP3   OH212512   1.188   3.686   5.384  0.0280  0.5727  0.1326
 4183TIP3    H112513   1.262   3.654   5.435  1.5061 -1.9584 -3.1650
 4183TIP3    H212514   1.116   3.627   5.407  0.3878  0.0997  0.0661
 4184TIP3   OH212515   1.684   4.896   4.395  0.2158 -0.2685  0.2527
 4184TIP3    H112516   1.612   4.839   4.367 -0.5192  0.8597 -0.2007
 4184TIP3    H212517   1.688   4.884   4.490 -0.4627 -0.4722  0.2629
 4185TIP3   OH212518   5.670   4.880   4.578  0.2588 -0.2563 -0.2023
 4185TIP3    H112519   5.611   4.878   4.503  0.0774 -0.1998 -0.0634
 4185TIP3    H212520   5.632   4.817   4.639 -0.6266  0.9990  0.5983
 4186TIP3   OH212521   6.239   1.634   4.456 -0.9645 -0.5170 -0.0674
 4186TIP3    H112522   6.321   1.653   4.411 -1.2227 -2.1642 -1.3603
 4186TIP3    H212523   6.212   1.717   4.494  1.6355 -0.0696  1.0291
 4187TIP3   OH212524   6.470   4.501   4.866  0.2171 -0.3656 -0.3243
 4187TIP3    H112525   6.403   4.436   4.888  0.6009 -1.2985 -1.8050
 4187TIP3    H212526   6.553   4.454   4.873  0.6640  0.5267  0.5645
 4188TIP3   OH212527   3.055   3.473   0.988 -0.2182  0.0425 -0.2339
 4188TIP3    H112528   3.044   3.399   0.929 -0.1304 -0.4764  0.3917
 4188TIP3    H212529   3.150   3.484   0.995 -0.0438 -1.9980  2.3260
 4189TIP3   OH212530   0.359   3.765   5.280  0.1004  0.2725  0.0124
 4189TIP3    H112531   0.357   3.807   5.366 -0.1496  0.4009 -0.0544
 4189TIP3    H212532   0.283   3.707   5.280 -0.1272  0.5641 -0.2667
 4190TIP3   OH212533   1.434   1.866   5.115 -0.3478 -0.8716 -0.5431
 4190TIP3    H112534   1.349   1.892   5.080 -0.4578 -2.4920 -1.5672
 4190TIP3    H212535   1.458   1.937   5.175 -2.9097 -0.9014  0.6238
 4191TIP3   OH212536   1.193   1.588   3.536  0.5730  0.6630  0.9368
 4191TIP3    H112537   1.163   1.503   3.569  1.9244  0.6509  2.2524
 4191TIP3    H212538   1.132   1.610   3.466 -1.2460 -0.2530  2.1791
 4192TIP3   OH212539   1.895   6.272   0.298  0.1809  0.1775  0.1007
 4192TIP3    H112540   1.907   6.358   0.259  1.3462  0.1231  0.3157
 4192TIP3    H212541   1.914   6.284   0.391  0.1837 -0.2755  0.1634
 4193TIP3   OH212542   5.535   6.158   5.078 -0.5135  0.5166  0.5624
 4193TIP3    H112543   5.591   6.121   5.009 -0.1083 -0.5947  1.4544
 4193TIP3    H212544   5.447   6.156   5.041 -0.1797  0.8509 -0.2833
 4194TIP3   OH212545   3.549   4.348   5.235  0.3594  0.2801 -0.2303
 4194TIP3    H112546   3.490   4.413   5.197  0.1473 -0.3222 -0.9441
 4194TIP3    H212547   3.495   4.269   5.245  1.4285 -0.8346 -2.5319
 4195TIP3   OH212548   4.892   1.330   1.689 -0.0592 -0.1902 -0.2624
 4195TIP3    H112549   4.867   1.385   1.763  2.6989  1.1840 -0.2276
 4195TIP3    H212550   4.935   1.254   1.728 -0.2268 -0.3650 -0.4154
 4196TIP3   OH212551   0.642   2.006   0.269  0.3602  0.0544  0.2680
 4196TIP3    H112552   0.690   2.071   0.319 -0.0148  0.9673 -0.5085
 4196TIP3    H212553   0.709   1.957   0.222  0.5932  0.9374 -0.3610
 4197TIP3   OH212554   2.240   1.983   1.414 -0.0436 -0.1437 -0.1117
 4197TIP3    H112555   2.173   1.932   1.459 -0.7498  0.7834 -0.0727
 4197TIP3    H212556   2.192   2.028   1.344  0.7683 -0.4225 -0.8609
 4198TIP3   OH212557   2.402   6.085   4.271  0.0101 -0.2273 -0.4322
 4198TIP3    H112558   2.454   6.139   4.211 -1.5381  0.1047 -1.5211
 4198TIP3    H212559   2.467   6.034   4.319  1.4329  1.4624 -0.4794
 4199TIP3   OH212560   1.443   0.088   5.469 -0.0088 -0.4313 -0.6946
 4199TIP3    H112561   1.424   0.025   5.400  0.3312 -0.6318 -0.6038
 4199TIP3    H212562   1.535   0.076   5.489  0.0315  0.0182 -0.5970
 4200TIP3   OH212563   1.233   6.297   0.093 -0.4070  0.3361  0.4060
 4200TIP3    H112564   1.241   6.322   0.185  2.3851  0.4886  0.2104
 4200TIP3    H212565   1.227   6.202   0.094  2.4708  0.0675  0.7465
 4201TIP3   OH212566   5.789   2.490   5.698 -0.0830 -0.5517  0.4667
 4201TIP3    H112567   5.765   2.565   5.752  0.0922 -1.4388  1.8232
 4201TIP3    H212568   5.870   2.456   5.737  0.4049 -0.8500 -0.7459
 4202TIP3   OH212569   6.802   0.878   0.506  0.0822  0.1895  0.5554
 4202TIP3    H112570   6.811   0.825   0.585 -1.3784  0.4276  0.9007
 4202TIP3    H212571   6.888   0.872   0.464  0.7810 -0.2225  1.9698
 4203TIP3   OH212572   4.722   4.310   3.343 -0.3871  0.1270  0.1573
 4203TIP3    H112573   4.716   4.397   3.304  0.4949  0.1416  0.0243
 4203TIP3    H212574   4.747   4.327   3.434  1.1687 -0.0024 -0.2092
 4204TIP3   OH212575   1.918   5.173   5.058  0.0670 -0.3519  0.1859
 4204TIP3    H112576   2.008   5.190   5.085  0.3761  0.3826 -1.1913
 4204TIP3    H212577   1.927   5.140   4.968 -0.9959 -1.0339  0.3177
 4205TIP3   OH212578   2.538   4.452   4.322 -0.0147  0.3467  0.0875
 4205TIP3    H112579   2.462   4.506   4.345  1.6528  1.8539  2.5950
 4205TIP3    H212580   2.594   4.510   4.271  1.4002  0.8358  2.0674
 4206TIP3   OH212581   0.262   0.032   2.905  0.2385  0.3537 -0.1605
 4206TIP3    H112582   0.242  -0.042   2.962  1.5928  0.1130  0.0515
 4206TIP3    H212583   0.291   0.101   2.965  2.5696 -0.2015 -0.5290
 4207TIP3   OH212584   0.048   0.187   3.536  0.2909  0.8540 -0.3609
 4207TIP3    H112585   0.041   0.227   3.623  0.8811  1.5119 -0.6085
 4207TIP3    H212586   0.008   0.251   3.477  0.8362  0.8879 -0.7045
 4208TIP3   OH212587   3.067   5.410   0.286 -0.3745  0.2865  0.1443
 4208TIP3    H112588   3.093   5.343   0.223  0.3243  0.1083  0.6105
 4208TIP3    H212589   3.149   5.438   0.327 -0.4252  2.5499 -1.1280
 4209TIP3   OH212590   0.474   1.030   3.553 -0.2962 -0.3992 -0.2938
 4209TIP3    H112591   0.499   1.107   3.501 -0.8436  1.6081  2.1996
 4209TIP3    H212592   0.409   0.985   3.500 -0.4721  1.2629 -1.5636
 4210TIP3   OH212593   6.722   4.581   2.006 -0.0957  0.4176 -0.2226
 4210TIP3    H112594   6.701   4.573   2.099  0.7536 -0.0058 -0.0575
 4210TIP3    H212595   6.732   4.490   1.976  0.7885  0.5799 -0.4497
 4211TIP3   OH212596   5.060   0.418   3.331  0.1818 -0.2886 -0.5501
 4211TIP3    H112597   5.123   0.488   3.316  0.6626 -0.8036 -0.9886
 4211TIP3    H212598   5.085   0.349   3.270 -1.8382  0.1346 -1.9711
 4212TIP3   OH212599   5.746   0.107   3.794 -0.0855  0.0421  0.2718
 4212TIP3    H112600   5.728   0.083   3.703  1.5969 -0.4224  0.0191
 4212TIP3    H212601   5.669   0.077   3.842 -0.5179 -0.7242 -0.8455
 4213TIP3   OH212602   5.040   4.379   3.074  0.3839 -0.1927  0.3264
 4213TIP3    H112603   4.989   4.455   3.047  1.0170  0.9349  2.0755
 4213TIP3    H212604   5.062   4.397   3.166  4.0783 -0.4929 -0.3466
 4214TIP3   OH212605   6.067   6.301   2.661  0.2166  0.6179  0.1341
 4214TIP3    H112606   6.024   6.327   2.579 -0.8809  1.0813  0.8371
 4214TIP3    H212607   5.996   6.269   2.716  1.1553 -1.3225  0.3198
 4215TIP3   OH212608   3.449   0.342   4.470  0.0401  0.3332  0.1421
 4215TIP3    H112609   3.357   0.361   4.454  0.1095  0.2242 -0.4002
 4215TIP3    H212610   3.449   0.255   4.511 -0.0894  0.2747  0.0170
 4216TIP3   OH212611   0.312   2.075   5.840  0.1727 -0.0515  0.2837
 4216TIP3    H112612   0.355   2.044   5.920  0.4265 -2.3677 -0.6603
 4216TIP3    H212613   0.382   2.079   5.775 -0.1496  1.1674 -0.0086
 4217TIP3   OH212614   4.677   1.345   3.422  0.2876 -0.0404 -0.0263
 4217TIP3    H112615   4.724   1.382   3.347 -1.0914  0.3388 -0.7491
 4217TIP3    H212616   4.626   1.273   3.384 -2.5805  1.8524 -0.0969
 4218TIP3   OH212617   4.940   4.868   0.137 -0.1874 -0.5732 -0.5406
 4218TIP3    H112618   5.000   4.900   0.070 -3.1600  1.9376 -2.2855
 4218TIP3    H212619   4.927   4.942   0.196 -1.4670 -1.0719 -0.1474
 4219TIP3   OH212620   3.097   6.393   2.699 -0.1207 -0.2857 -0.2557
 4219TIP3    H112621   3.015   6.417   2.743  0.4826 -0.2862  0.9062
 4219TIP3    H212622   3.165   6.414   2.763  0.7378 -0.9742 -0.9276
 4220TIP3   OH212623   3.989   3.390   0.563 -0.3983  0.4112  0.1020
 4220TIP3    H112624   3.947   3.404   0.478  0.1680 -1.3170 -0.4952
 4220TIP3    H212625   3.917   3.380   0.624 -0.8893 -1.0879 -0.6707
 4221TIP3   OH212626   1.985   2.986   4.989 -0.3627 -0.2872 -0.6171
 4221TIP3    H112627   2.069   2.941   4.984 -0.0295  0.3529 -0.8479
 4221TIP3    H212628   1.991   3.055   4.923 -1.1330 -0.3384 -0.7492
 4222TIP3   OH212629   0.311   5.250   1.683  0.4080  0.0097  0.0750
 4222TIP3    H112630   0.362   5.331   1.681  1.6117 -0.7196  0.4821
 4222TIP3    H212631   0.301   5.226   1.591  1.5058 -0.2652  0.0198
 4223TIP3   OH212632   2.345   4.740   0.730 -0.0293 -0.0173 -0.4826
 4223TIP3    H112633   2.380   4.804   0.792 -0.7880 -1.1661  1.2265
 4223TIP3    H212634   2.316   4.792   0.656 -0.4051  1.6074  0.7405
 4224TIP3   OH212635   6.977   2.164   3.833 -0.0797 -0.0541 -0.0377
 4224TIP3    H112636   6.931   2.180   3.751 -0.6469 -2.1030 -0.1859
 4224TIP3    H212637   6.951   2.236   3.890 -2.7864 -0.6142 -0.4159
 4225TIP3   OH212638   5.588   2.216   3.009  0.2897 -0.4996 -0.7137
 4225TIP3    H112639   5.624   2.217   2.920  0.1890 -1.9252 -0.7898
 4225TIP3    H212640   5.592   2.308   3.037  0.6799 -0.0859 -2.0366
 4226TIP3   OH212641   2.312   4.510   1.762  0.3687  0.5466 -0.1763
 4226TIP3    H112642   2.351   4.595   1.741 -0.0965  0.1683 -3.0230
 4226TIP3    H212643   2.375   4.446   1.730  0.2767 -0.1887  1.0614
 4227TIP3   OH212644   2.465   2.554   4.691  0.6596 -0.3665 -0.0603
 4227TIP3    H112645   2.549   2.545   4.736  1.6197 -1.9706 -1.9927
 4227TIP3    H212646   2.469   2.639   4.648  0.8975 -0.0573  0.5557
 4228TIP3   OH212647   4.000   4.668   3.078 -0.0767  0.3992 -0.1221
 4228TIP3    H112648   3.955   4.691   2.997 -0.1392  2.3711  0.4282
 4228TIP3    H212649   4.069   4.734   3.088 -1.4330  1.5963  2.4967
 4229TIP3   OH212650   3.293   3.792   4.530  0.1155  0.1684 -0.0335
 4229TIP3    H112651   3.204   3.816   4.556  0.6519  0.7032  1.4015
 4229TIP3    H212652   3.295   3.805   4.436 -1.7677 -1.3177 -0.3361
 4230TIP3   OH212653   0.205   0.549   1.223  0.1059 -0.0333  0.8300
 4230TIP3    H112654   0.278   0.490   1.206  1.5771  1.7904  0.4762
 4230TIP3    H212655   0.180   0.531   1.314  2.1223  0.4342  1.5174
 4231TIP3   OH212656   1.390   5.638   3.111  1.0332 -0.3431  0.0059
 4231TIP3    H112657   1.462   5.585   3.076 -0.7297 -2.3943 -0.6938
 4231TIP3    H212658   1.320   5.631   3.047 -0.1538  0.8754  1.0830
 4232TIP3   OH212659   6.588   6.746   1.424  0.3497  0.8183 -0.1535
 4232TIP3    H112660   6.670   6.712   1.459  0.4121 -1.1719 -2.0158
 4232TIP3    H212661   6.520   6.704   1.477  0.4821 -0.4465 -0.9598
 4233TIP3   OH212662   3.828   5.179   0.887  0.0022 -0.1679  0.2626
 4233TIP3    H112663   3.883   5.252   0.915  1.7401 -1.8387  1.4968
 4233TIP3    H212664   3.875   5.139   0.814 -1.4836  0.5425 -1.1399
 4234TIP3   OH212665   1.297   5.626   1.871 -0.4875 -0.3605 -0.6267
 4234TIP3    H112666   1.362   5.647   1.937 -0.1128 -0.2047 -1.0418
 4234TIP3    H212667   1.295   5.701   1.813  0.4166 -1.1777 -1.7595
 4235TIP3   OH212668   5.033   0.086   4.789  0.0009 -0.5401 -0.4193
 4235TIP3    H112669   5.006  -0.005   4.775  1.4058 -0.9555 -0.6495
 4235TIP3    H212670   5.105   0.099   4.728  0.8291  0.2404  0.6751
 4236TIP3   OH212671   3.492   0.914   2.016  0.3722 -0.4115 -0.1997
 4236TIP3    H112672   3.579   0.911   1.977 -0.4292  3.8290 -2.9386
 4236TIP3    H212673   3.501   0.971   2.092 -0.0157  0.1519 -0.5717
 4237TIP3   OH212674   5.552   1.478   2.617 -0.9125 -0.1027  0.2712
 4237TIP3    H112675   5.551   1.488   2.712 -1.1142  2.1509  0.0741
 4237TIP3    H212676   5.549   1.567   2.583 -0.0413 -0.8249 -1.8662
 4238TIP3   OH212677   0.783   2.670   5.865  0.1921 -0.2543  0.2461
 4238TIP3    H112678   0.694   2.699   5.843 -0.2076 -1.6755 -0.0757
 4238TIP3    H212679   0.772   2.583   5.903  1.4900 -0.7075 -0.3578
 4239TIP3   OH212680   1.726   0.982   1.610  0.4327  0.0624 -0.0007
 4239TIP3    H112681   1.762   0.937   1.687  1.5026  0.9781  0.0669
 4239TIP3    H212682   1.793   0.970   1.542  0.5562  1.1765 -0.0954
 4240TIP3   OH212683   6.676   2.656   0.559 -0.4260  0.0899  0.2807
 4240TIP3    H112684   6.647   2.691   0.475 -1.3691  0.0468  0.5826
 4240TIP3    H212685   6.628   2.573   0.569  0.9008 -0.7343  0.1147
 4241TIP3   OH212686   0.546   2.966   3.884 -0.3128 -0.1157  0.6742
 4241TIP3    H112687   0.595   2.926   3.812  1.9142 -0.4886  2.2687
 4241TIP3    H212688   0.486   3.027   3.842  1.1973 -0.0067 -1.4682
 4242TIP3   OH212689   3.024   5.583   3.849  0.1164 -0.2074 -0.4816
 4242TIP3    H112690   3.054   5.500   3.812  1.2881 -1.1407  2.2708
 4242TIP3    H212691   2.994   5.634   3.774  0.2793 -2.7339 -2.3731
 4243TIP3   OH212692   2.519   0.631   2.396 -0.2178  0.6052  0.0560
 4243TIP3    H112693   2.566   0.549   2.407  1.1865  1.4239  0.4270
 4243TIP3    H212694   2.484   0.627   2.308 -0.1995 -0.4112  0.0889
 4244TIP3   OH212695   3.157   4.458   1.260  0.6800  0.2463 -0.1623
 4244TIP3    H112696   3.078   4.487   1.214  0.8900 -0.4436 -0.9830
 4244TIP3    H212697   3.191   4.387   1.206  1.2072 -0.2613  0.8238
 4245TIP3   OH212698   1.110   2.621   2.719  0.1049  0.0193  0.4621
 4245TIP3    H112699   1.035   2.572   2.752  0.2612  1.0511  2.5138
 4245TIP3    H212700   1.076   2.667   2.642 -1.6863  1.1851  1.8621
 4246TIP3   OH212701   5.289   5.216   5.518 -0.7949 -0.0730  0.3330
 4246TIP3    H112702   5.198   5.214   5.547 -0.7937 -1.8645  0.3267
 4246TIP3    H212703   5.296   5.144   5.455  0.3095  0.8981 -0.7095
 4247TIP3   OH212704   0.189   0.581   2.408  0.4320 -0.1168  0.4684
 4247TIP3    H112705   0.185   0.502   2.462  1.1601 -1.1844 -0.9888
 4247TIP3    H212706   0.256   0.562   2.342 -0.9971  0.8366 -1.3345
 4248TIP3   OH212707   3.029   0.915   1.457  0.2775  0.0543 -0.1321
 4248TIP3    H112708   3.112   0.949   1.492  0.6620 -1.0716  0.1176
 4248TIP3    H212709   3.004   0.846   1.519 -0.5244 -0.0400 -0.5491
 4249TIP3   OH212710   1.815   5.434   0.448  0.3097 -0.1906 -0.3555
 4249TIP3    H112711   1.910   5.441   0.450  0.6495 -1.8158 -3.6821
 4249TIP3    H212712   1.792   5.392   0.531  2.5245 -0.2705  0.2668
 4250TIP3   OH212713   3.674   3.467   5.641  0.0186 -0.1626  0.0395
 4250TIP3    H112714   3.618   3.537   5.609  1.5822  0.9258 -0.3891
 4250TIP3    H212715   3.647   3.390   5.590 -0.7430  0.4464 -0.5058
 4251TIP3   OH212716   1.377   0.571   4.279  0.0009 -0.0779 -0.0560
 4251TIP3    H112717   1.298   0.518   4.289  0.4095 -0.5696  0.6691
 4251TIP3    H212718   1.379   0.626   4.357  1.1534 -1.1325  0.6928
 4252TIP3   OH212719   2.626   5.355   0.858 -0.5446 -0.1588 -0.0118
 4252TIP3    H112720   2.693   5.341   0.925 -0.0105  1.0401 -0.2729
 4252TIP3    H212721   2.674   5.390   0.783 -1.0439 -2.0039 -1.2618
 4253TIP3   OH212722   0.305   4.811   5.696  0.1854  0.0804 -0.1946
 4253TIP3    H112723   0.359   4.874   5.744 -0.2813 -0.0457  0.4997
 4253TIP3    H212724   0.360   4.784   5.622 -0.2650  2.6422 -1.5658
 4254TIP3   OH212725   0.050   0.937   5.695 -0.1229  0.8844  0.4150
 4254TIP3    H112726   0.117   1.004   5.686  0.4873  0.1684 -0.5492
 4254TIP3    H212727   0.037   0.927   5.789  2.0433  0.1571  0.6811
 4255TIP3   OH212728   6.021   0.944   4.248  0.5485  0.0256 -0.2525
 4255TIP3    H112729   6.035   0.944   4.153  1.7195  0.7016 -0.0956
 4255TIP3    H212730   5.986   1.031   4.267  1.3287  0.2776  0.0631
 4256TIP3   OH212731   0.477   3.795   1.570  0.9727  0.4415 -1.0645
 4256TIP3    H112732   0.413   3.736   1.610  0.2310  2.1256  0.3695
 4256TIP3    H212733   0.424   3.865   1.532  1.8093  0.0748 -3.0449
 4257TIP3   OH212734   2.029   2.432   0.303  0.3878  0.0975  0.2521
 4257TIP3    H112735   2.115   2.427   0.262  1.3275  0.1773  2.1183
 4257TIP3    H212736   1.975   2.369   0.254  0.4726  2.4294 -3.1398
 4258TIP3   OH212737   3.602   5.764   1.190 -0.6190 -0.8407 -0.4029
 4258TIP3    H112738   3.507   5.771   1.179 -0.8074 -1.8395  0.4541
 4258TIP3    H212739   3.634   5.740   1.103 -1.0179  0.4765 -0.9388
 4259TIP3   OH212740   5.015   3.267   0.509 -0.1180  0.0349 -0.7186
 4259TIP3    H112741   4.971   3.302   0.586  0.5398  0.9381 -0.7272
 4259TIP3    H212742   4.965   3.189   0.486 -0.8538  0.2451  0.0934
 4260TIP3   OH212743   5.321   5.957   1.018 -0.1415  0.2890  0.2170
 4260TIP3    H112744   5.338   6.033   0.962  0.1480  0.4070  0.4680
 4260TIP3    H212745   5.264   5.901   0.964  2.7378 -1.1774 -1.5386
 4261TIP3   OH212746   1.717   1.160   5.249 -0.3009  0.3918  0.2655
 4261TIP3    H112747   1.731   1.071   5.217  0.9850  0.7209 -0.1487
 4261TIP3    H212748   1.766   1.165   5.331 -0.4759  0.6711  0.3562
 4262TIP3   OH212749   0.725   5.251   2.375 -0.6424  0.2162 -0.8021
 4262TIP3    H112750   0.760   5.216   2.293  1.4703  0.3290 -0.0152
 4262TIP3    H212751   0.754   5.342   2.377 -0.5249  0.1697  0.1384
 4263TIP3   OH212752   0.145   2.820   4.357 -0.3468  0.1417  0.2638
 4263TIP3    H112753   0.198   2.898   4.373  0.4910 -0.2216 -0.6527
 4263TIP3    H212754   0.103   2.802   4.441  1.2563  0.2573  1.1288
 4264TIP3   OH212755   0.470   4.684   2.048 -0.0403  0.6150  0.3754
 4264TIP3    H112756   0.426   4.628   1.984  0.8668  0.7721 -0.4238
 4264TIP3    H212757   0.436   4.772   2.030  0.8745  0.8080 -0.5393
 4265TIP3   OH212758   5.784   2.816   3.782  0.1173  0.1905 -0.2929
 4265TIP3    H112759   5.796   2.910   3.798  1.0513 -0.0095  0.2182
 4265TIP3    H212760   5.822   2.773   3.859  0.7656 -0.6451 -1.0584
 4266TIP3   OH212761   5.624   2.898   3.587  0.3049 -0.7893 -0.1013
 4266TIP3    H112762   5.682   2.973   3.571 -1.4051  1.2856  2.6524
 4266TIP3    H212763   5.668   2.848   3.655 -0.6641  0.3433  1.4076
 4267TIP3   OH212764   1.893   2.301   0.887  0.6116  0.1041  0.0436
 4267TIP3    H112765   1.805   2.300   0.849  0.6309  0.7534 -0.0256
 4267TIP3    H212766   1.881   2.333   0.976  0.7334 -0.1554  0.1546
 4268TIP3   OH212767   2.787   3.748   3.642 -0.6463  0.3172 -0.1136
 4268TIP3    H112768   2.840   3.803   3.699  0.5774 -1.0804  0.1647
 4268TIP3    H212769   2.784   3.795   3.558  1.2623  0.3399 -0.2080
 4269TIP3   OH212770   1.450   3.519   1.670  0.0046 -0.0886 -0.3553
 4269TIP3    H112771   1.444   3.467   1.750 -0.2731  0.1188 -0.2397
 4269TIP3    H212772   1.490   3.460   1.606  2.1858  0.3871  0.4720
 4270TIP3   OH212773   2.431   5.076   3.891 -0.5065  0.0316  0.2318
 4270TIP3    H112774   2.342   5.100   3.869 -0.1386  1.8232  0.5336
 4270TIP3    H212775   2.425   5.038   3.979 -1.0668 -0.6583 -0.0993
 4271TIP3   OH212776   4.117   2.972   3.695  0.2384 -0.2588 -0.2139
 4271TIP3    H112777   4.025   2.946   3.701  0.7800 -1.8905  3.4042
 4271TIP3    H212778   4.161   2.893   3.664  0.6629 -0.1870  0.2081
 4272TIP3   OH212779   6.739   3.014   5.627 -0.6450  0.2230 -0.2190
 4272TIP3    H112780   6.646   3.032   5.639  0.1305  3.9153  2.3628
 4272TIP3    H212781   6.756   2.937   5.681 -1.9680  0.4849  0.6243
 4273TIP3   OH212782   2.005   0.589   2.968  0.1872 -0.3940 -0.6923
 4273TIP3    H112783   2.035   0.671   2.928  3.5300 -0.3447  1.4783
 4273TIP3    H212784   2.026   0.521   2.904  1.8445  0.0503 -0.6638
 4274TIP3   OH212785   7.065   4.311   0.436  0.1595 -1.1301 -1.0450
 4274TIP3    H112786   7.036   4.229   0.475 -3.2944  0.3700 -0.1357
 4274TIP3    H212787   7.054   4.298   0.342 -1.8874 -1.2707 -0.8260
 4275TIP3   OH212788   1.205   6.123   0.884 -0.5131 -0.2222  0.1567
 4275TIP3    H112789   1.214   6.180   0.960  1.0046 -0.6348  0.3320
 4275TIP3    H212790   1.263   6.049   0.903 -2.3103 -1.7961 -0.1109
 4276TIP3   OH212791   3.549   4.672   5.064  0.2691 -0.3017  0.4467
 4276TIP3    H112792   3.486   4.600   5.066 -0.9194  0.6785 -0.2063
 4276TIP3    H212793   3.634   4.629   5.068 -0.4156 -1.5810  3.0724
 4277TIP3   OH212794   2.864   6.477   2.787  0.3622 -0.2045  0.5973
 4277TIP3    H112795   2.795   6.420   2.752  1.3201 -1.9984  1.4804
 4277TIP3    H212796   2.820   6.529   2.855 -1.2237  2.4049 -2.1652
 4278TIP3   OH212797   0.369   2.602   5.207 -0.1528 -0.2091  0.3217
 4278TIP3    H112798   0.426   2.679   5.200 -0.4897 -0.0100 -0.3186
 4278TIP3    H212799   0.328   2.609   5.293 -0.4460  0.5064  0.1224
 4279TIP3   OH212800   2.546   4.377   1.693  0.4775 -0.2308 -0.1689
 4279TIP3    H112801   2.554   4.285   1.666  0.3497 -0.4241  0.4223
 4279TIP3    H212802   2.570   4.427   1.616 -0.7988 -0.7546 -0.9368
 4280TIP3   OH212803   4.047   5.504   3.260  0.2668 -0.4838 -0.0964
 4280TIP3    H112804   3.964   5.543   3.286 -0.1627 -0.8447 -0.8569
 4280TIP3    H212805   4.099   5.576   3.224  0.0627 -0.3505 -0.1195
 4281TIP3   OH212806   3.363   6.788   0.365  0.3723 -0.2942 -0.0990
 4281TIP3    H112807   3.417   6.744   0.300  1.0446  0.3964 -0.0128
 4281TIP3    H212808   3.357   6.725   0.438  0.1018 -0.8288 -0.5740
 4282TIP3   OH212809   6.011   2.626   1.874  0.1283 -0.1350  0.1233
 4282TIP3    H112810   6.098   2.650   1.843 -0.1142  0.3256 -0.2120
 4282TIP3    H212811   5.975   2.708   1.909  0.5950 -0.7314  2.1284
 4283TIP3   OH212812   5.093   4.073   0.248  0.1286 -0.4325  0.1432
 4283TIP3    H112813   5.121   4.000   0.304 -0.3788  0.0177  1.0014
 4283TIP3    H212814   5.019   4.038   0.199 -0.8427 -0.1791  1.3789
 4284TIP3   OH212815   6.098   1.087   3.894  1.0010 -0.2312 -0.5200
 4284TIP3    H112816   6.177   1.132   3.927 -0.2969  2.1046 -0.3692
 4284TIP3    H212817   6.027   1.121   3.949 -0.9902  2.3047 -4.2584
 4285TIP3   OH212818   0.334   2.718   3.099 -0.8753 -0.6574 -0.4905
 4285TIP3    H112819   0.246   2.683   3.084 -0.6523 -0.8148 -1.5319
 4285TIP3    H212820   0.359   2.757   3.015 -0.1911 -0.0636 -0.0234
 4286TIP3   OH212821   1.338   3.334   0.654  0.0559  0.1391  0.0859
 4286TIP3    H112822   1.360   3.403   0.717  1.8827 -0.7793  0.5263
 4286TIP3    H212823   1.383   3.360   0.573  1.5412 -0.9356  0.5171
 4287TIP3   OH212824   5.536   2.797   1.930  0.6162 -0.2478 -0.2328
 4287TIP3    H112825   5.443   2.791   1.952  1.0843 -3.0333  1.3820
 4287TIP3    H212826   5.543   2.755   1.845  0.2817  1.2228 -1.0360
 4288TIP3   OH212827   3.772   2.951   0.221 -0.8133 -0.1890 -0.4014
 4288TIP3    H112828   3.840   2.973   0.157 -1.4081  0.3614 -0.8607
 4288TIP3    H212829   3.816   2.954   0.306 -0.2278 -0.0046 -0.7098
 4289TIP3   OH212830   1.659   0.693   1.446 -0.1195 -0.6939 -0.1415
 4289TIP3    H112831   1.690   0.659   1.530 -1.2896 -2.1615 -0.2739
 4289TIP3    H212832   1.647   0.787   1.461 -0.4548 -0.9566  1.3833
 4290TIP3   OH212833   0.708   4.034   0.586  0.2893 -0.3436 -0.6183
 4290TIP3    H112834   0.614   4.019   0.594  0.3318 -0.4845 -0.3943
 4290TIP3    H212835   0.716   4.090   0.508 -0.0936  0.8297  0.1551
 4291TIP3   OH212836   0.831   3.540   4.994 -0.3836  0.1210 -0.4053
 4291TIP3    H112837   0.775   3.521   5.069  2.0885 -0.5814  1.4270
 4291TIP3    H212838   0.864   3.628   5.010 -0.1505  0.1255 -0.8916
 4292TIP3   OH212839   5.037   1.550   5.459  0.0429 -0.3045 -0.1121
 4292TIP3    H112840   4.976   1.593   5.520  0.9833  1.8038 -0.5581
 4292TIP3    H212841   4.981   1.518   5.388 -0.7979 -0.6602  0.6860
 4293TIP3   OH212842   5.728   2.233   0.704  0.2167  0.4662 -0.0748
 4293TIP3    H112843   5.761   2.201   0.788 -1.3422 -1.5851 -0.1796
 4293TIP3    H212844   5.660   2.296   0.727  0.9532  1.2113  0.1459
 4294TIP3   OH212845   1.609   2.349   2.313  0.5075 -0.5563 -0.2990
 4294TIP3    H112846   1.697   2.374   2.285 -0.0730 -0.9029 -2.7077
 4294TIP3    H212847   1.590   2.269   2.264 -2.0255  0.8259 -1.8085
 4295TIP3   OH212848   5.826   5.727   1.179  0.0820 -0.2026  0.1740
 4295TIP3    H112849   5.742   5.769   1.164  0.1900 -0.4226 -1.2420
 4295TIP3    H212850   5.878   5.792   1.226 -0.8349 -0.0300  0.9735
 4296TIP3   OH212851   1.907   4.428   0.278 -0.4290 -0.7405  0.0560
 4296TIP3    H112852   1.995   4.397   0.259 -0.8679 -1.7898 -0.3253
 4296TIP3    H212853   1.905   4.519   0.246 -0.3976 -1.6419 -2.7356
 4297TIP3   OH212854   5.972   1.779   0.066  0.6491 -0.0443 -0.4376
 4297TIP3    H112855   6.012   1.858   0.102  0.2435  0.6173 -1.4006
 4297TIP3    H212856   6.039   1.743   0.007  0.1737  0.5877 -1.3840
 4298TIP3   OH212857   4.156   0.555   4.419 -0.5270  0.2863  0.1154
 4298TIP3    H112858   4.190   0.488   4.359  2.3759  1.8767 -0.2137
 4298TIP3    H212859   4.155   0.512   4.504 -1.7159 -1.0687 -0.5412
 4299TIP3   OH212860   6.048   0.799   4.570 -0.4824  0.3354 -0.4179
 4299TIP3    H112861   6.061   0.892   4.587 -0.4724  0.3542 -0.5286
 4299TIP3    H212862   5.954   0.785   4.586 -0.6719  0.5557 -1.2933
 4300TIP3   OH212863   4.901   1.188   0.408 -0.0084  0.0592  0.0720
 4300TIP3    H112864   4.824   1.245   0.412 -0.0420 -0.0210  0.6746
 4300TIP3    H212865   4.949   1.217   0.330 -2.0815 -1.7501 -2.0079
 4301TIP3   OH212866   1.464   2.572   4.380  0.5046 -1.0607 -0.2176
 4301TIP3    H112867   1.394   2.635   4.399 -0.4866 -1.6984 -1.6344
 4301TIP3    H212868   1.478   2.527   4.463  0.3422  0.1409  0.4894
 4302TIP3   OH212869   4.259   3.702   1.108 -0.0747  0.2690  0.0648
 4302TIP3    H112870   4.308   3.779   1.137  0.7413  0.1186 -0.8687
 4302TIP3    H212871   4.175   3.736   1.079 -0.0090  0.7111  0.3912
 4303TIP3   OH212872   1.129   3.170   5.420 -0.0323 -0.4554 -0.2017
 4303TIP3    H112873   1.043   3.191   5.384  0.3704  0.7652 -0.4991
 4303TIP3    H212874   1.191   3.217   5.364  0.6213  1.3056  1.8587
 4304TIP3   OH212875   5.074   5.233   0.088 -0.2125  0.3060 -0.1829
 4304TIP3    H112876   5.126   5.245   0.168 -1.6093 -0.0130  0.8199
 4304TIP3    H212877   5.069   5.138   0.078  0.4552  0.3471 -1.0136
 4305TIP3   OH212878   4.700   3.602   3.983 -0.0629 -0.6055  0.1733
 4305TIP3    H112879   4.715   3.522   4.032 -0.2405  0.0859  1.3922
 4305TIP3    H212880   4.700   3.672   4.049  0.7075  0.4819 -0.9108
 4306TIP3   OH212881   4.613   4.476   0.443 -0.3367  0.7553 -0.1713
 4306TIP3    H112882   4.630   4.561   0.483 -2.5166  0.8484  0.6494
 4306TIP3    H212883   4.698   4.431   0.447  0.5651  2.4160  0.4761
 4307TIP3   OH212884   5.877   5.683   0.314  0.0939 -0.0947  0.0618
 4307TIP3    H112885   5.849   5.694   0.405 -0.7015  0.2903 -0.2155
 4307TIP3    H212886   5.892   5.772   0.283  0.7301 -0.2447 -0.0852
 4308TIP3   OH212887   6.140   4.134   0.046  0.6812  0.2429 -0.1270
 4308TIP3    H112888   6.049   4.110   0.034  0.3648  0.6958  1.1946
 4308TIP3    H212889   6.182   4.115  -0.038 -0.4392 -0.7860 -0.4659
 4309TIP3   OH212890   6.770   6.412   0.204 -0.0228 -0.3038 -0.1454
 4309TIP3    H112891   6.800   6.366   0.126 -0.9073 -0.0575 -0.6522
 4309TIP3    H212892   6.680   6.382   0.217  0.9981 -2.6736  2.5812
 4310TIP3   OH212893   3.962   2.379   3.157  0.2154  0.1802  0.1023
 4310TIP3    H112894   3.993   2.321   3.087  1.6897  0.4196  0.5231
 4310TIP3    H212895   3.878   2.342   3.183 -0.2194 -0.0920 -1.5714
 4311TIP3   OH212896   4.314   2.692   4.533  0.3339  0.6606  0.1216
 4311TIP3    H112897   4.322   2.719   4.625 -0.4971 -0.1305  0.4385
 4311TIP3    H212898   4.399   2.653   4.512 -0.3215 -1.7278  1.4563
 4312TIP3   OH212899   0.973   2.186   3.251 -0.3036 -0.0902  0.3220
 4312TIP3    H112900   1.007   2.196   3.339  0.3268 -1.2389  0.2295
 4312TIP3    H212901   0.922   2.266   3.235  2.0525  1.5773  0.5960
 4313TIP3   OH212902   3.329   3.536   5.289 -0.4811  0.0547  0.6273
 4313TIP3    H112903   3.239   3.528   5.322 -1.0277  0.3531 -0.7389
 4313TIP3    H212904   3.345   3.454   5.244 -0.6672  0.6153 -0.5014
 4314TIP3   OH212905   4.239   2.978   0.773  0.2077  0.2121 -0.2247
 4314TIP3    H112906   4.304   3.020   0.830  0.1674 -0.5976  0.4345
 4314TIP3    H212907   4.170   2.951   0.832  0.8231 -1.9350 -0.4277
 4315TIP3   OH212908   5.510   3.517   3.425 -0.0357 -0.4158 -0.1250
 4315TIP3    H112909   5.470   3.598   3.454 -0.3509 -0.2720 -0.9264
 4315TIP3    H212910   5.529   3.532   3.332  1.6752 -0.5546  0.1710
 4316TIP3   OH212911   0.505   0.718   1.806 -0.1524  0.5385 -0.3980
 4316TIP3    H112912   0.498   0.806   1.843  1.2224  1.1662 -1.5260
 4316TIP3    H212913   0.418   0.699   1.771 -0.3394  1.6576 -0.5722
 4317TIP3   OH212914   0.057   0.725   3.419  0.0410 -0.0001  0.3057
 4317TIP3    H112915   0.136   0.775   3.401  0.0575  0.9663  2.6970
 4317TIP3    H212916   0.018   0.768   3.495 -0.8440 -2.6427  1.4665
 4318TIP3   OH212917   4.758   1.018   4.493  0.0844 -0.3723  0.7208
 4318TIP3    H112918   4.741   0.924   4.495 -1.0844 -0.2214 -0.3778
 4318TIP3    H212919   4.781   1.037   4.402 -0.2418  0.4824  0.8006
 4319TIP3   OH212920   4.404   3.441   4.056  0.1670 -0.4088  0.1476
 4319TIP3    H112921   4.322   3.429   4.007 -0.0096 -0.3148  0.4160
 4319TIP3    H212922   4.471   3.404   3.999  0.0339  0.1425 -0.3832
 4320TIP3   OH212923   3.763   2.088   2.901  0.1874 -0.0342 -0.6000
 4320TIP3    H112924   3.762   2.008   2.953 -0.5064  1.0999  1.1766
 4320TIP3    H212925   3.855   2.115   2.901  0.0336  0.5250  0.9508
 4321TIP3   OH212926   4.142   0.976   4.829  0.0727  0.3111 -0.5986
 4321TIP3    H112927   4.055   0.959   4.793 -0.3502 -1.1639  0.9509
 4321TIP3    H212928   4.179   0.888   4.844  1.0796  0.8848  0.4618
 4322TIP3   OH212929   3.991   3.554   1.856  0.2364  1.0759  0.1637
 4322TIP3    H112930   4.025   3.506   1.780  0.1273 -1.3921  1.5651
 4322TIP3    H212931   3.909   3.510   1.877  1.7252 -0.4400  3.5301
 4323TIP3   OH212932   2.995   0.789   5.329  0.9196 -0.8481 -0.3180
 4323TIP3    H112933   2.917   0.842   5.337 -0.2812 -2.5303 -0.3621
 4323TIP3    H212934   3.061   0.835   5.380  0.1743  1.0555 -0.9905
 4324TIP3   OH212935   6.155   2.444   2.073 -0.3169  0.1434  0.4633
 4324TIP3    H112936   6.103   2.494   2.011 -1.1115 -0.5499  0.5563
 4324TIP3    H212937   6.244   2.447   2.037 -0.2200  2.0718  0.7661
 4325TIP3   OH212938   2.760   0.445   0.544  0.3773  0.5864  0.1437
 4325TIP3    H112939   2.799   0.364   0.577  2.6893  1.3367 -0.5862
 4325TIP3    H212940   2.718   0.484   0.621  0.2971 -0.6772  0.7754
 4326TIP3   OH212941   5.613   1.960   1.113 -0.5886  0.7579  0.5620
 4326TIP3    H112942   5.520   1.956   1.138 -0.3583  0.7217  1.4354
 4326TIP3    H212943   5.638   1.869   1.099 -0.5151  0.7149  0.9687
 4327TIP3   OH212944   3.460   6.354   3.553  0.3954  0.3277 -0.0861
 4327TIP3    H112945   3.375   6.344   3.598  0.6172 -1.9118 -0.0691
 4327TIP3    H212946   3.496   6.435   3.589 -1.8181  1.4756 -0.2608
 4328TIP3   OH212947   4.389   3.053   5.680  0.2341  0.2604 -0.3153
 4328TIP3    H112948   4.414   2.988   5.746  0.7930  1.2588  0.4877
 4328TIP3    H212949   4.306   3.088   5.712  0.2009  0.3229 -0.4711
 4329TIP3   OH212950   5.793   2.352   0.233  0.5131  0.0226  0.1510
 4329TIP3    H112951   5.852   2.297   0.181  1.2506  0.3967  0.5736
 4329TIP3    H212952   5.776   2.302   0.313 -2.4408 -1.5856 -1.3082
 4330TIP3   OH212953   4.852   3.561   2.469  0.0536  0.1971 -0.2142
 4330TIP3    H112954   4.927   3.505   2.491  1.0426  1.7899  0.6858
 4330TIP3    H212955   4.790   3.545   2.540  1.4017  2.0466  1.4957
 4331TIP3   OH212956   0.399   3.884   2.859 -0.2370  0.6405  0.1898
 4331TIP3    H112957   0.414   3.924   2.773 -1.8623  1.2201  0.1394
 4331TIP3    H212958   0.400   3.790   2.842  1.4137  0.6777 -0.0865
 4332TIP3   OH212959   5.011   3.660   3.422 -0.6454  0.1410 -0.3670
 4332TIP3    H112960   5.051   3.585   3.377  1.4295  0.1108  1.3709
 4332TIP3    H212961   4.958   3.622   3.491 -1.1560  0.2631 -0.6835
 4333TIP3   OH212962   6.355   4.436   1.802  0.2397  0.4534 -0.9700
 4333TIP3    H112963   6.387   4.519   1.838 -1.1450  0.9564 -0.8620
 4333TIP3    H212964   6.277   4.416   1.853  1.6968 -2.0687  0.5297
 4334TIP3   OH212965   1.690   2.925   1.142 -0.0831  0.1600 -0.4643
 4334TIP3    H112966   1.622   2.990   1.155 -0.7134 -0.6566  0.4194
 4334TIP3    H212967   1.742   2.959   1.069  0.2883  2.1904  0.6881
 4335TIP3   OH212968   1.625   1.216   4.310 -0.5638  0.3897 -0.3043
 4335TIP3    H112969   1.589   1.296   4.271  0.5014  2.0379  1.8498
 4335TIP3    H212970   1.598   1.146   4.251 -1.1982  2.3733 -2.5311
 4336TIP3   OH212971   0.996   3.700   5.676  0.7421 -0.1993  0.1606
 4336TIP3    H112972   1.084   3.738   5.680  0.9814 -0.7753  0.5565
 4336TIP3    H212973   0.995   3.635   5.747  0.4642 -1.1952 -0.7373
 4337TIP3   OH212974   5.132   4.766   3.054 -0.5327 -0.0722 -0.1478
 4337TIP3    H112975   5.163   4.700   3.115  0.4536  0.4938 -0.0227
 4337TIP3    H212976   5.040   4.744   3.040  0.1305 -2.3985 -1.3294
 4338TIP3   OH212977   1.822   5.287   2.143 -0.0486 -0.0480 -0.1511
 4338TIP3    H112978   1.824   5.192   2.134  2.3383  0.0403 -1.3209
 4338TIP3    H212979   1.732   5.307   2.168 -0.4311 -2.6542  0.8729
 4339TIP3   OH212980   3.610   3.103   4.918 -0.1886 -0.1310  0.5866
 4339TIP3    H112981   3.673   3.036   4.893 -0.9353 -0.5225 -0.3018
 4339TIP3    H212982   3.533   3.086   4.863 -1.1576  0.1989  1.7889
 4340TIP3   OH212983   0.395   4.839   0.253  0.0892 -0.1924  0.1817
 4340TIP3    H112984   0.367   4.787   0.328  0.6220  1.1281  1.3453
 4340TIP3    H212985   0.317   4.847   0.199 -0.4406 -0.7432  0.8447
 4341TIP3   OH212986   2.299   4.589   0.449 -0.0316  0.2589 -0.2891
 4341TIP3    H112987   2.205   4.600   0.435 -0.4121 -0.5398  1.4053
 4341TIP3    H212988   2.326   4.671   0.491  0.0048  0.4564 -0.7013
 4342TIP3   OH212989   2.225   4.058   5.716  0.3885  0.2905  0.4236
 4342TIP3    H112990   2.264   4.018   5.639 -2.3092 -0.4614 -0.6606
 4342TIP3    H212991   2.132   4.069   5.694 -0.2367  1.2478  3.0777
 4343TIP3   OH212992   0.678   3.032   5.460  0.3629  0.3957  0.5888
 4343TIP3    H112993   0.737   3.044   5.534  0.7598 -0.7000  0.4676
 4343TIP3    H212994   0.633   2.949   5.478  0.0642  0.3957 -0.1247
 4344TIP3   OH212995   1.952   1.576   2.486  0.0378  0.1214 -0.3359
 4344TIP3    H112996   1.942   1.594   2.393 -0.2738  1.4069 -0.0707
 4344TIP3    H212997   1.866   1.543   2.514  0.1750 -0.4058 -0.5221
 4345TIP3   OH212998   3.314   2.422   3.801 -0.6208 -0.3900  0.3538
 4345TIP3    H112999   3.350   2.422   3.712 -0.6229 -1.1621  0.3474
 4345TIP3    H213000   3.223   2.395   3.790 -1.0817  1.0361  0.4313
 4346TIP3   OH213001   6.566   5.861   2.178 -0.2474  0.5811 -0.0864
 4346TIP3    H113002   6.541   5.870   2.270  0.4072  0.1600  0.1413
 4346TIP3    H213003   6.563   5.950   2.142  2.3022  1.2525  1.0951
 4347TIP3   OH213004   6.765   4.508   5.353  0.3716  0.1343 -0.8519
 4347TIP3    H113005   6.775   4.579   5.416  0.8479 -2.4679  2.2575
 4347TIP3    H213006   6.673   4.510   5.329  0.1679  1.2160 -0.0630
 4348TIP3   OH213007   6.914   2.678   0.682  0.4196  0.2634 -0.4985
 4348TIP3    H113008   6.824   2.676   0.648 -0.1542  0.9673  0.9181
 4348TIP3    H213009   6.941   2.587   0.683 -0.5524 -0.0373 -0.2725
 4349TIP3   OH213010   6.156   4.686   1.724 -0.2389  0.1199 -0.1147
 4349TIP3    H113011   6.117   4.649   1.644 -2.3814  1.4004  0.2444
 4349TIP3    H213012   6.159   4.780   1.707 -3.1110  0.7552  2.1418
 4350TIP3   OH213013   1.610   1.656   2.859  0.5231 -0.0688  0.0071
 4350TIP3    H113014   1.546   1.709   2.811 -0.9531 -2.3496 -0.7523
 4350TIP3    H213015   1.576   1.652   2.948 -0.6620 -1.4953 -0.4540
 4351TIP3   OH213016   5.962   2.560   0.181 -0.1261  0.3181  0.6347
 4351TIP3    H113017   5.916   2.482   0.150  0.8671 -0.0643  0.0797
 4351TIP3    H213018   5.943   2.627   0.116 -0.0281  0.2071  0.4911
 4352TIP3   OH213019   2.883   4.137   0.839  0.2542 -0.6790 -0.7169
 4352TIP3    H113020   2.975   4.121   0.817  0.9479  0.2594  1.3058
 4352TIP3    H213021   2.886   4.205   0.906 -1.9420 -0.5495 -0.6911
 4353TIP3   OH213022   6.705   1.970   2.370 -0.2010  0.6088  0.2024
 4353TIP3    H113023   6.646   1.904   2.334  0.2069  1.0704 -1.4015
 4353TIP3    H213024   6.760   1.922   2.431 -1.7783  0.0493  1.2247
 4354TIP3   OH213025   1.606   1.233   1.455 -0.6233 -0.2997  0.1080
 4354TIP3    H113026   1.593   1.263   1.366 -2.3493  0.1312  0.4804
 4354TIP3    H213027   1.700   1.247   1.472 -0.4326  0.2976 -1.3604
 4355TIP3   OH213028   4.885   6.059   2.279 -0.3101 -0.2997  0.1076
 4355TIP3    H113029   4.940   6.043   2.356 -0.9668 -1.4612  0.3614
 4355TIP3    H213030   4.936   6.121   2.226  1.1525 -1.1628  0.4304
 4356TIP3   OH213031   5.127   5.045   2.386  0.5396  0.0792  0.1421
 4356TIP3    H113032   5.125   5.032   2.481  0.6157 -0.5473  0.0627
 4356TIP3    H213033   5.204   5.099   2.371  1.3597 -1.0012  0.3117
 4357TIP3   OH213034   4.469   6.397   4.129 -0.3024  0.1145 -0.2975
 4357TIP3    H113035   4.462   6.417   4.035  0.7329  0.9899 -0.2111
 4357TIP3    H213036   4.416   6.463   4.172  0.4196  0.6398 -0.1959
 4358TIP3   OH213037   3.685   2.072   4.812 -0.1914  0.2061  0.4130
 4358TIP3    H113038   3.635   2.149   4.840  2.8863  1.8683  1.9111
 4358TIP3    H213039   3.645   2.046   4.730 -1.1631  3.7044 -0.3985
 4359TIP3   OH213040   3.971   0.369   4.914 -0.1931  0.1269  0.2722
 4359TIP3    H113041   3.992   0.285   4.875 -1.1954 -0.1372  0.2709
 4359TIP3    H213042   3.976   0.431   4.841 -0.6540 -0.1355  0.0126
 4360TIP3   OH213043   6.883   4.192   1.170  0.2023 -0.2781 -0.3460
 4360TIP3    H113044   6.819   4.258   1.145  0.0221 -0.8631 -1.4996
 4360TIP3    H213045   6.837   4.109   1.161  1.4722 -0.8300 -2.5606
 4361TIP3   OH213046   1.528   4.169   1.212  0.2025  0.6660 -0.0370
 4361TIP3    H113047   1.591   4.117   1.163  0.6838  0.3975  0.8407
 4361TIP3    H213048   1.533   4.256   1.172 -0.1650  0.2150 -1.1138
 4362TIP3   OH213049   3.374   5.134   5.742 -0.4599 -0.0645  0.4625
 4362TIP3    H113050   3.457   5.176   5.719 -0.3945 -0.0719  0.6863
 4362TIP3    H213051   3.329   5.124   5.658 -0.0565 -0.4460  0.2820
 4363TIP3   OH213052   2.467   1.560   5.179 -0.3732 -0.3011 -0.0875
 4363TIP3    H113053   2.532   1.620   5.143  0.6436 -2.0738 -1.4256
 4363TIP3    H213054   2.412   1.614   5.236  1.1976  1.6077 -0.2828
 4364TIP3   OH213055   4.996   4.453   5.352 -0.2758 -0.2962  0.2266
 4364TIP3    H113056   5.088   4.447   5.379 -0.4089  0.3380  0.8387
 4364TIP3    H213057   4.999   4.475   5.259  0.1886 -0.9177  0.0894
 4365TIP3   OH213058   6.073   5.448   0.277 -0.2938  0.3636 -0.3512
 4365TIP3    H113059   5.998   5.392   0.296 -1.0359  1.1395 -0.9386
 4365TIP3    H213060   6.046   5.535   0.306  0.5593  0.5719 -0.1411
 4366TIP3   OH213061   6.249   6.371   5.437 -0.0800 -0.1281 -0.2510
 4366TIP3    H113062   6.217   6.373   5.347  0.4353 -1.7808 -0.5029
 4366TIP3    H213063   6.342   6.352   5.429  0.3070  1.2275  0.6029
 4367TIP3   OH213064   2.493   4.624   5.737 -0.1474 -0.4711 -0.5645
 4367TIP3    H113065   2.447   4.630   5.653 -0.2033 -0.3230 -0.5233
 4367TIP3    H213066   2.581   4.593   5.714 -0.1916 -0.5192 -0.6676
 4368TIP3   OH213067   3.819   5.332   2.198  0.1907 -1.1478 -0.1700
 4368TIP3    H113068   3.860   5.334   2.111  0.5977 -1.0712  0.0226
 4368TIP3    H213069   3.753   5.402   2.195  1.9091  0.5669  0.4061
 4369TIP3   OH213070   5.461   4.621   1.639  0.6921 -0.2714 -0.0762
 4369TIP3    H113071   5.529   4.685   1.662  0.0923 -0.0256  1.1240
 4369TIP3    H213072   5.397   4.628   1.710 -1.0188  0.1081 -1.5702
 4370TIP3   OH213073   2.323   5.227   1.684  0.1269 -1.0268  0.0901
 4370TIP3    H113074   2.379   5.169   1.633 -0.3044 -1.8686  0.5693
 4370TIP3    H213075   2.306   5.301   1.625  0.8425 -1.2801 -0.4479
 4371TIP3   OH213076   2.372   0.460   3.204  0.0349 -0.3546  0.3349
 4371TIP3    H113077   2.364   0.379   3.154 -1.6429 -0.3091  0.4866
 4371TIP3    H213078   2.385   0.431   3.295  0.2396 -0.4517  0.2744
 4372TIP3   OH213079   5.763   4.971   1.193  0.6797  0.3338 -0.1874
 4372TIP3    H113080   5.692   4.908   1.180  0.6898 -0.0193  1.3325
 4372TIP3    H213081   5.725   5.039   1.250  1.1366  0.9049 -0.5508
 4373TIP3   OH213082   1.893   5.631   1.581 -0.0254  0.1504 -0.0878
 4373TIP3    H113083   1.988   5.621   1.573 -0.1094  0.8020 -2.5753
 4373TIP3    H213084   1.861   5.541   1.593  0.8187 -0.2336 -0.5967
 4374TIP3   OH213085   4.497   5.398   5.464  0.5139 -0.0035 -0.3993
 4374TIP3    H113086   4.563   5.337   5.496  1.4257  1.1200 -0.0743
 4374TIP3    H213087   4.505   5.475   5.521  0.3104  0.9497 -1.6040
 4375TIP3   OH213088   6.817   0.236   3.682  0.8082  0.1073  0.2054
 4375TIP3    H113089   6.758   0.274   3.747 -0.2955 -0.0391 -0.6912
 4375TIP3    H213090   6.902   0.277   3.701 -0.0336  1.9644  0.1661
 4376TIP3   OH213091   1.782   0.133   5.202  0.0287  0.4810 -0.2579
 4376TIP3    H113092   1.720   0.081   5.152  0.3810  0.9682 -1.2136
 4376TIP3    H213093   1.864   0.128   5.154 -0.2087  2.8475 -1.0510
 4377TIP3   OH213094   4.354   3.927   1.227 -0.5397  0.5174  0.7317
 4377TIP3    H113095   4.367   4.008   1.177 -0.5499  0.3054  0.3804
 4377TIP3    H213096   4.305   3.955   1.304 -0.0433  0.9398  0.9048
 4378TIP3   OH213097   3.568   3.346   5.410 -0.0499  0.3282  0.2227
 4378TIP3    H113098   3.621   3.268   5.420  1.1541  0.8579 -1.5124
 4378TIP3    H213099   3.498   3.320   5.349  0.4312  0.6242 -0.4633
 4379TIP3   OH213100   3.725   2.924   2.418 -0.2069 -0.2886  0.1149
 4379TIP3    H113101   3.678   2.871   2.482  0.6305  0.5021  1.4306
 4379TIP3    H213102   3.750   3.003   2.466 -1.0561  1.1325 -1.6723
 4380TIP3   OH213103   2.807   2.354   0.343 -0.1318 -0.6026  0.7790
 4380TIP3    H113104   2.847   2.273   0.374 -1.0616 -1.7847 -0.9300
 4380TIP3    H213105   2.849   2.370   0.258  0.9942  1.4931  1.6529
 4381TIP3   OH213106   7.063   6.562   3.952  0.1618  0.2900 -0.1029
 4381TIP3    H113107   7.076   6.604   4.037 -0.9948  0.2598  0.1091
 4381TIP3    H213108   7.025   6.630   3.897 -0.3420 -0.0537 -0.1898
 4382TIP3   OH213109   3.579   0.162   1.880 -0.3311 -0.1185  0.1163
 4382TIP3    H113110   3.621   0.234   1.926  1.4126 -1.5400  0.8813
 4382TIP3    H213111   3.569   0.094   1.946 -2.2468 -0.5019 -0.5022
 4383TIP3   OH213112   6.918   5.118   4.202  0.4008 -0.2007 -0.2469
 4383TIP3    H113113   6.926   5.136   4.108 -1.7373  0.9033 -0.2596
 4383TIP3    H213114   6.824   5.116   4.219  0.7379 -0.2356  1.9255
 4384TIP3   OH213115   6.551   4.381   2.203 -0.3335 -0.6823 -0.2534
 4384TIP3    H113116   6.479   4.319   2.216 -1.6404  0.3878 -2.0016
 4384TIP3    H213117   6.572   4.374   2.110  0.6345  0.3069 -0.1319
 4385TIP3   OH213118   4.377   0.135   4.669  0.4665  0.3289  0.1115
 4385TIP3    H113119   4.323   0.074   4.720 -1.0077  2.1873  0.9309
 4385TIP3    H213120   4.466   0.120   4.700  0.0228 -0.7682  0.9261
 4386TIP3   OH213121   1.478   5.105   0.406  0.0277 -0.2634 -0.2884
 4386TIP3    H113122   1.399   5.067   0.444 -0.7337 -1.5351 -2.8909
 4386TIP3    H213123   1.530   5.029   0.379  2.0751  0.5545  1.1487
 4387TIP3   OH213124   5.862   3.587   4.235 -0.0188 -0.6485  0.5887
 4387TIP3    H113125   5.878   3.500   4.273  2.7057  1.1243  4.0718
 4387TIP3    H213126   5.810   3.632   4.301 -0.6776  0.6721 -0.7818
 4388TIP3   OH213127   6.883   0.692   0.706 -0.1172 -0.3254 -0.1718
 4388TIP3    H113128   6.846   0.614   0.747 -0.8970  0.7904  1.3903
 4388TIP3    H213129   6.963   0.709   0.756  0.7144 -0.7913 -1.3069
 4389TIP3   OH213130   0.252   2.673   5.452 -0.4156  0.1027 -0.1769
 4389TIP3    H113131   0.285   2.761   5.432  1.3015 -0.6419 -0.7721
 4389TIP3    H213132   0.157   2.686   5.462 -0.2667  1.9515 -0.6385
 4390TIP3   OH213133   4.433   3.935   2.818  0.5510 -0.2722  0.5163
 4390TIP3    H113134   4.400   4.002   2.878 -0.7381  0.7108 -1.1922
 4390TIP3    H213135   4.492   3.982   2.759 -0.1855 -0.6809 -0.5675
 4391TIP3   OH213136   0.152   6.391   0.473  0.1257 -0.0433 -0.2191
 4391TIP3    H113137   0.209   6.406   0.548 -0.9359  1.1437  0.3829
 4391TIP3    H213138   0.136   6.478   0.436  1.2608 -0.6624 -2.3442
 4392TIP3   OH213139   2.710   1.165   0.926 -0.0288  0.1662  0.6449
 4392TIP3    H113140   2.709   1.177   1.021  0.1700  1.5635  0.5004
 4392TIP3    H213141   2.631   1.115   0.907 -0.1553  0.0086  1.5280
 4393TIP3   OH213142   6.126   0.788   2.457  0.3674  0.2135  0.5090
 4393TIP3    H113143   6.136   0.709   2.404  1.2315  0.4592  0.2808
 4393TIP3    H213144   6.161   0.763   2.543 -0.5817 -0.0376  0.8367
 4394TIP3   OH213145   2.960   0.705   1.623  0.4766  0.1546 -0.0267
 4394TIP3    H113146   3.024   0.644   1.662  1.1595 -0.4530 -1.9762
 4394TIP3    H213147   2.875   0.673   1.654  0.9834 -0.0531  1.2420
 4395TIP3   OH213148   4.770   6.670   1.202  0.0805  0.4440  0.1762
 4395TIP3    H113149   4.786   6.638   1.113  2.1243 -0.5579  0.8410
 4395TIP3    H213150   4.686   6.716   1.196 -0.0208  0.0888 -2.1720
 4396TIP3   OH213151   4.764   1.791   3.917 -0.1230 -0.3554 -0.2335
 4396TIP3    H113152   4.695   1.746   3.868 -1.5051  1.4682 -0.0808
 4396TIP3    H213153   4.753   1.884   3.894  2.3732  0.0025 -0.2882
 4397TIP3   OH213154   4.408   2.724   2.167 -0.5454 -0.0786 -0.2739
 4397TIP3    H113155   4.446   2.679   2.091  0.9523 -0.0828  0.4588
 4397TIP3    H213156   4.343   2.783   2.128  1.0058  0.7930 -1.6979
 4398TIP3   OH213157   4.635   0.569   5.199  0.4968 -0.4987 -0.0005
 4398TIP3    H113158   4.597   0.512   5.132  2.4635 -1.9279 -0.0059
 4398TIP3    H213159   4.660   0.509   5.270  0.0716  0.7579  1.2372
 4399TIP3   OH213160   6.446   0.859   4.901  0.2681  0.6539  0.3614
 4399TIP3    H113161   6.443   0.767   4.876  1.0259  0.3242  1.4416
 4399TIP3    H213162   6.469   0.905   4.820  1.8552 -0.3044  0.2348
 4400TIP3   OH213163   2.162   0.409   5.240  0.1249 -0.4755  0.0195
 4400TIP3    H113164   2.130   0.321   5.260  2.5266 -1.1107  1.4752
 4400TIP3    H213165   2.238   0.421   5.297  1.8718  1.2593 -2.4203
 4401TIP3   OH213166   0.146   5.601   2.329 -0.2078  0.1538  0.0068
 4401TIP3    H113167   0.123   5.527   2.387  0.8844 -0.3486 -0.1719
 4401TIP3    H213168   0.111   5.576   2.244  1.8776 -1.1854 -0.5603
 4402TIP3   OH213169   4.675   6.635   3.669 -0.1157 -0.4009  0.3805
 4402TIP3    H113170   4.678   6.569   3.600 -0.5937 -1.5430  1.4005
 4402TIP3    H213171   4.602   6.692   3.646 -0.1172 -0.6288 -0.1841
 4403TIP3   OH213172   3.857   2.151   5.022 -0.5225 -0.0530 -0.1400
 4403TIP3    H113173   3.777   2.181   5.065 -0.5616 -0.0214 -0.2349
 4403TIP3    H213174   3.827   2.089   4.955 -0.2841 -2.4916  1.8604
 4404TIP3   OH213175   4.808   5.715   2.559  0.3936  0.1393 -0.2082
 4404TIP3    H113176   4.736   5.764   2.599 -0.1406 -0.5382 -0.3188
 4404TIP3    H213177   4.877   5.713   2.626  0.4163  1.0180 -0.1978
 4405TIP3   OH213178   2.423   1.388   3.527 -0.0631  0.0076 -0.5000
 4405TIP3    H113179   2.507   1.434   3.529  0.1489 -0.3837  0.5989
 4405TIP3    H213180   2.445   1.298   3.551 -0.5926 -0.4641 -1.7370
 4406TIP3   OH213181   6.515   6.656   1.949 -0.2031 -0.6129 -0.6319
 4406TIP3    H113182   6.564   6.596   1.893  1.0492 -0.2364  0.0307
 4406TIP3    H213183   6.506   6.736   1.896  1.0159 -0.2430 -0.3083
 4407TIP3   OH213184   2.716   0.898   2.558 -0.5061  0.1840 -0.0221
 4407TIP3    H113185   2.665   0.976   2.581 -1.0864 -0.5698  1.4316
 4407TIP3    H213186   2.685   0.873   2.471  0.3275  2.0550 -0.8854
 4408TIP3   OH213187   1.487   2.623   2.442 -0.1649  0.6188  0.0671
 4408TIP3    H113188   1.547   2.548   2.445  0.9185  1.3002 -2.4419
 4408TIP3    H213189   1.406   2.591   2.482  0.2070 -1.9486 -1.0962
 4409TIP3   OH213190   6.181   1.054   2.535  0.3933  0.7028  0.1063
 4409TIP3    H113191   6.247   1.056   2.466  1.0099  0.3955  0.6776
 4409TIP3    H213192   6.132   0.972   2.519  0.7652  0.4529  0.2470
 4410TIP3   OH213193   6.658   5.648   1.800 -0.5375  0.0571  0.4127
 4410TIP3    H113194   6.742   5.691   1.811 -0.1078 -0.2140 -1.5100
 4410TIP3    H213195   6.595   5.720   1.791 -0.3371  0.2598  0.6195
 4411TIP3   OH213196   5.383   1.412   4.561 -0.4685  1.0346  0.3826
 4411TIP3    H113197   5.291   1.416   4.535 -0.5476  1.0916  0.6763
 4411TIP3    H213198   5.406   1.503   4.582 -0.0457  1.2024 -0.7305
 4412TIP3   OH213199   3.323   6.008   0.902 -0.0773  0.1966  0.1044
 4412TIP3    H113200   3.405   5.988   0.855  0.4078  1.7525  0.2446
 4412TIP3    H213201   3.265   6.043   0.834 -0.2813  0.0260  0.1912
 4413TIP3   OH213202   6.412   3.021   5.413  0.1878  0.0273 -0.2637
 4413TIP3    H113203   6.445   2.932   5.427 -0.4430  0.1822  2.7527
 4413TIP3    H213204   6.317   3.010   5.410  0.1594  0.4686 -1.3305
 4414TIP3   OH213205   3.268   4.668   1.874 -0.6395 -0.2202 -0.1350
 4414TIP3    H113206   3.200   4.665   1.807 -2.3261 -0.8789  1.5139
 4414TIP3    H213207   3.234   4.728   1.941  0.4419 -0.4922  0.7006
 4415TIP3   OH213208   6.830   6.788   5.134  0.0938  0.0466  0.2838
 4415TIP3    H113209   6.888   6.846   5.085  1.4586 -0.0172  1.7381
 4415TIP3    H213210   6.809   6.717   5.073  0.1403  0.9565 -0.8161
 4416TIP3   OH213211   3.247   0.933   1.612 -0.3996 -0.0531  0.2792
 4416TIP3    H113212   3.326   0.894   1.573 -2.2489 -2.0718 -1.6924
 4416TIP3    H213213   3.255   0.915   1.706  1.2663 -0.6048  0.0626
 4417TIP3   OH213214   2.331   5.869   4.016  0.1314  0.0324 -0.0968
 4417TIP3    H113215   2.376   5.792   3.981 -0.1517  0.5214 -1.6272
 4417TIP3    H213216   2.383   5.894   4.093  2.2924  0.3159 -1.5340
 4418TIP3   OH213217   6.754   1.219   3.233  0.3613  0.6073 -0.2457
 4418TIP3    H113218   6.687   1.179   3.289  0.9095  0.9709  0.6870
 4418TIP3    H213219   6.834   1.171   3.254  0.2012 -0.6329 -2.2120
 4419TIP3   OH213220   4.492   3.408   0.038  0.5598 -0.0540 -0.1043
 4419TIP3    H113221   4.539   3.430  -0.042  1.1747  0.3187  0.3472
 4419TIP3    H213222   4.450   3.490   0.064  0.6283 -0.0921  0.1255
 4420TIP3   OH213223   0.795   4.751   1.168  0.2699 -0.1846 -0.1189
 4420TIP3    H113224   0.863   4.811   1.138 -0.6875  1.1409  0.2407
 4420TIP3    H213225   0.739   4.805   1.224  1.1851 -2.1431  2.9917
 4421TIP3   OH213226   1.002   4.289   4.267  0.0761 -0.1875  0.3716
 4421TIP3    H113227   0.936   4.290   4.197  0.3781 -1.2465  0.0566
 4421TIP3    H213228   1.063   4.219   4.241  2.4405  1.9895 -0.3622
 4422TIP3   OH213229   2.672   0.029   1.644 -0.5317  0.0049  0.6269
 4422TIP3    H113230   2.718   0.104   1.681  0.9027 -1.2090  1.3942
 4422TIP3    H213231   2.740  -0.037   1.630 -1.9148 -1.5833  1.0878
 4423TIP3   OH213232   1.132   4.659   2.865 -0.5132  0.4985  0.1550
 4423TIP3    H113233   1.137   4.567   2.889  0.7374  0.4210 -0.3104
 4423TIP3    H213234   1.210   4.674   2.811  0.1956  2.2054  1.5422
 4424TIP3   OH213235   6.568   1.595   5.384 -0.2042  0.4611 -0.6116
 4424TIP3    H113236   6.585   1.630   5.297 -0.2412  0.3776 -0.6517
 4424TIP3    H213237   6.650   1.554   5.411  0.0191  1.0682 -0.3355
 4425TIP3   OH213238   3.538   4.143   3.486  0.5073  0.0419 -0.3029
 4425TIP3    H113239   3.580   4.228   3.503  2.3076 -1.0281  0.9990
 4425TIP3    H213240   3.579   4.112   3.405 -0.6268  0.6659 -1.1391
 4426TIP3   OH213241   5.669   2.253   2.733 -0.1458 -0.0506  0.8328
 4426TIP3    H113242   5.665   2.167   2.692  1.8623 -0.3595  1.1839
 4426TIP3    H213243   5.581   2.290   2.720 -1.7780 -2.9316  2.4119
 4427TIP3   OH213244   0.471   2.443   4.143  0.0680  0.2542 -0.4159
 4427TIP3    H113245   0.538   2.501   4.181 -0.2102 -0.9612  2.1042
 4427TIP3    H213246   0.392   2.497   4.139  0.2739  0.6135  0.1655
 4428TIP3   OH213247   0.908   3.940   0.224 -0.2149  0.1014  0.1574
 4428TIP3    H113248   0.999   3.916   0.241 -0.5867  0.5959  3.6345
 4428TIP3    H213249   0.910   4.034   0.207 -0.0425  0.0273 -0.2380
 4429TIP3   OH213250   5.324   1.071   2.746 -0.4869  0.0200 -0.3065
 4429TIP3    H113251   5.266   1.121   2.803  1.4324  0.4307  1.3992
 4429TIP3    H213252   5.313   1.110   2.660 -0.4056  2.2115  0.6259
 4430TIP3   OH213253   1.964   3.839   0.553  0.3286 -0.4614 -0.0940
 4430TIP3    H113254   1.980   3.816   0.645 -2.4323 -1.0161  0.3489
 4430TIP3    H213255   1.891   3.900   0.556 -1.1321 -1.9893 -1.9753
 4431TIP3   OH213256   0.765   2.721   5.223  0.1212  0.4359  0.5622
 4431TIP3    H113257   0.701   2.650   5.218 -0.0568  0.6654 -1.2837
 4431TIP3    H213258   0.723   2.793   5.177  1.0234  1.1535  0.8469
 4432TIP3   OH213259   0.233   3.746   4.220  0.5978  0.3006 -0.2263
 4432TIP3    H113260   0.304   3.788   4.269  0.4201 -0.0825  0.3642
 4432TIP3    H213261   0.197   3.816   4.165  1.1312  0.6077 -0.1877
 4433TIP3   OH213262   5.171   5.634   2.040  0.1385 -0.4513  0.1477
 4433TIP3    H113263   5.122   5.612   1.960 -0.8321  0.6420  0.4133
 4433TIP3    H213264   5.110   5.614   2.111 -0.3318  1.7678  0.4468
 4434TIP3   OH213265   5.924   5.956   0.356 -0.5476 -0.2397  0.1084
 4434TIP3    H113266   6.013   5.988   0.374 -1.4674  3.3204 -0.8817
 4434TIP3    H213267   5.893   5.922   0.440  1.3926 -0.7686  0.6700
 4435TIP3   OH213268   2.250   2.743   4.387  0.5661 -0.0217  0.2450
 4435TIP3    H113269   2.237   2.731   4.481 -1.1508 -2.2081 -0.1802
 4435TIP3    H213270   2.322   2.684   4.364 -0.9548 -1.8178 -0.1958
 4436TIP3   OH213271   1.021   5.333   2.196 -0.1410  0.1834 -0.1282
 4436TIP3    H113272   1.035   5.313   2.103 -2.2725 -0.8613 -0.2889
 4436TIP3    H213273   0.956   5.404   2.194  0.7308  1.0152  0.5724
 4437TIP3   OH213274   1.006   1.682   3.016  0.1076 -0.8861  0.2829
 4437TIP3    H113275   1.093   1.642   3.013  0.7716  0.5624 -1.1921
 4437TIP3    H213276   1.009   1.741   3.091 -0.2509 -2.1734  1.3398
 4438TIP3   OH213277   2.780   4.594   5.692 -0.1309  0.1737 -0.0117
 4438TIP3    H113278   2.870   4.600   5.661 -0.4986 -0.4875 -1.2670
 4438TIP3    H213279   2.787   4.546   5.775  0.7215  0.6521  0.2054
 4439TIP3   OH213280   3.100   0.530   2.756 -0.1019 -0.6483  0.3061
 4439TIP3    H113281   3.127   0.606   2.704 -0.0526  0.2039  1.5113
 4439TIP3    H213282   3.023   0.496   2.711  0.1979 -0.2094 -0.5576
 4440TIP3   OH213283   4.204   4.846   3.028  0.4742 -0.4962  0.2237
 4440TIP3    H113284   4.259   4.847   3.107  0.0051 -0.9927  0.5604
 4440TIP3    H213285   4.267   4.843   2.956  1.0070  2.5026  0.4395
 4441TIP3   OH213286   3.406   4.996   5.228 -0.2653  0.3050 -0.6896
 4441TIP3    H113287   3.496   4.999   5.196 -0.3848 -0.6886 -1.1555
 4441TIP3    H213288   3.363   5.071   5.187  0.2146  0.4737 -0.8877
 4442TIP3   OH213289   7.074   5.515   3.014  0.7121 -0.3439 -0.1857
 4442TIP3    H113290   7.033   5.582   3.068  0.5793 -0.1166 -0.5675
 4442TIP3    H213291   7.146   5.483   3.068  0.0951 -0.6816  0.4434
 4443TIP3   OH213292   2.202   2.454   3.294  0.3513  0.6770  0.5351
 4443TIP3    H113293   2.118   2.410   3.280 -0.1243  1.9756 -1.2125
 4443TIP3    H213294   2.201   2.480   3.386 -0.5097 -0.5777  0.9047
 4444TIP3   OH213295   0.518   4.160   5.137  0.7022  0.3658  0.1897
 4444TIP3    H113296   0.445   4.099   5.149  0.1355  1.1283  0.7114
 4444TIP3    H213297   0.549   4.142   5.048 -1.2230  1.1625 -0.7133
 4445TIP3   OH213298   4.495   3.370   4.769 -0.0212 -0.1880 -0.9904
 4445TIP3    H113299   4.475   3.356   4.861 -0.8735  0.7125 -1.0243
 4445TIP3    H213300   4.424   3.426   4.737  0.2813 -0.4556 -2.1838
 4446TIP3   OH213301   0.914   5.602   0.743  0.2742  0.3488  0.2163
 4446TIP3    H113302   0.986   5.540   0.744  0.3737  0.4519 -0.4143
 4446TIP3    H213303   0.948   5.679   0.789  0.7945  0.6499 -0.6583
 4447TIP3   OH213304   4.843   4.099   4.021 -0.0468  0.6612  0.0066
 4447TIP3    H113305   4.779   4.049   3.971 -1.4813  1.9316  0.4919
 4447TIP3    H213306   4.805   4.105   4.109  1.5856 -0.0444  0.7979
 4448TIP3   OH213307   5.691   4.711   3.920 -0.6248 -0.0440 -0.2491
 4448TIP3    H113308   5.676   4.774   3.991  1.1791  2.1528 -1.6359
 4448TIP3    H213309   5.777   4.673   3.940 -0.1262  0.5523 -1.1512
 4449TIP3   OH213310   4.898   1.738   5.207 -0.2088  0.4006 -0.5586
 4449TIP3    H113311   4.957   1.662   5.211  2.4031  2.3291  0.6481
 4449TIP3    H213312   4.890   1.757   5.114 -1.2587 -1.5300 -0.9174
 4450TIP3   OH213313   5.332   4.373   4.087  0.0853  0.1948 -0.3231
 4450TIP3    H113314   5.392   4.299   4.091 -0.4339 -0.2727 -1.0099
 4450TIP3    H213315   5.374   4.435   4.027 -0.4937 -0.5047 -1.4968
 4451TIP3   OH213316   0.923   0.059   3.664 -0.0657 -0.3015 -0.3193
 4451TIP3    H113317   0.929   0.125   3.732 -0.7756  0.7024 -1.2069
 4451TIP3    H213318   0.891   0.106   3.587 -1.3337 -1.8240 -0.7727
 4452TIP3   OH213319   3.354   3.045   1.643 -0.0214  0.1089 -0.2192
 4452TIP3    H113320   3.385   2.974   1.587 -0.5397  0.5325 -1.0638
 4452TIP3    H213321   3.279   3.082   1.596 -1.1089 -0.1625  1.2331
 4453TIP3   OH213322   4.138   3.697   2.545  0.1195 -0.0446 -0.1029
 4453TIP3    H113323   4.194   3.723   2.618 -0.9181 -0.1412  0.7595
 4453TIP3    H213324   4.158   3.760   2.475  0.9292  0.2184  0.3592
 4454TIP3   OH213325   2.421   5.569   0.833 -0.3529  0.1571 -0.2037
 4454TIP3    H113326   2.435   5.495   0.773 -0.7596  0.6548 -0.9314
 4454TIP3    H213327   2.509   5.595   0.860 -0.1601 -0.0615 -0.6102
 4455TIP3   OH213328   5.340   0.228   0.209  0.1748  0.0031 -0.2540
 4455TIP3    H113329   5.363   0.308   0.255 -1.0389 -0.1741  0.7166
 4455TIP3    H213330   5.255   0.203   0.245  0.0794 -1.1963 -1.2338
 4456TIP3   OH213331   3.941   4.463   3.550  0.0550 -0.1894 -0.1931
 4456TIP3    H113332   3.865   4.510   3.584 -1.3598 -1.5811 -1.2586
 4456TIP3    H213333   3.995   4.530   3.510 -1.0430  0.7326 -0.1697
 4457TIP3   OH213334   5.761   6.566   2.546 -0.0641 -0.2278  0.8784
 4457TIP3    H113335   5.774   6.601   2.458  1.2237  0.8661  1.4659
 4457TIP3    H213336   5.697   6.625   2.586 -0.3704 -0.5043  0.7954
 4458TIP3   OH213337   5.150   0.924   3.973 -0.6452 -0.0117  0.0399
 4458TIP3    H113338   5.234   0.947   4.011 -0.4389  1.7579 -1.3508
 4458TIP3    H213339   5.172   0.865   3.901 -0.9439 -2.4141  1.7986
 4459TIP3   OH213340   0.400   0.136   5.759 -0.5951  0.3613 -0.0325
 4459TIP3    H113341   0.338   0.103   5.824  0.2534  0.3765  0.8000
 4459TIP3    H213342   0.480   0.154   5.809  0.0995  0.2931 -1.1026
 4460TIP3   OH213343   1.822   4.630   0.662  0.1708 -0.9805 -0.1977
 4460TIP3    H113344   1.739   4.620   0.709 -1.0108  1.9733 -1.3944
 4460TIP3    H213345   1.887   4.648   0.731 -0.6800 -0.8393  0.5857
 4461TIP3   OH213346   6.898   6.414   2.039  0.6230 -0.0472  0.1052
 4461TIP3    H113347   6.979   6.404   1.990  0.2294  0.3246 -0.6278
 4461TIP3    H213348   6.855   6.490   2.000  0.0730 -0.0432  0.6994
 4462TIP3   OH213349   4.135   0.369   5.731 -0.1215  0.2347  0.2191
 4462TIP3    H113350   4.228   0.365   5.754  0.0787 -1.2114 -0.7107
 4462TIP3    H213351   4.089   0.341   5.810  0.2741  0.1181  0.4107
 4463TIP3   OH213352   4.630   6.636   5.584 -0.3945  0.0907 -0.3335
 4463TIP3    H113353   4.605   6.728   5.572  0.1928  0.3087  0.0528
 4463TIP3    H213354   4.711   6.640   5.636 -0.7739 -0.6722  0.3348
 4464TIP3   OH213355   4.515   0.728   1.116  0.3793 -0.3299 -0.5013
 4464TIP3    H113356   4.522   0.699   1.207 -0.0145 -0.7935 -0.6153
 4464TIP3    H213357   4.576   0.801   1.109  0.9249 -0.7384 -0.0462
 4465TIP3   OH213358   2.085   3.399   0.210  0.0970  0.7219 -0.0464
 4465TIP3    H113359   2.165   3.348   0.225  0.1376  0.8639  0.2359
 4465TIP3    H213360   2.043   3.402   0.296 -0.9978 -0.6527 -0.4996
 4466TIP3   OH213361   4.437   2.601   3.858  0.1372 -0.2293  0.1610
 4466TIP3    H113362   4.390   2.657   3.920  1.0323  0.1662  0.5021
 4466TIP3    H213363   4.420   2.512   3.889  0.5835 -0.0361  0.9938
 4467TIP3   OH213364   5.158   2.953   4.061 -0.3648 -0.2137 -0.3767
 4467TIP3    H113365   5.169   2.931   4.154  0.7368 -0.1008 -0.4638
 4467TIP3    H213366   5.132   3.045   4.061  1.0529  0.2089 -0.2092
 4468TIP3   OH213367   0.879   3.408   3.448 -0.4371  0.3463  0.5180
 4468TIP3    H113368   0.953   3.347   3.454 -1.7290 -1.4365 -0.5770
 4468TIP3    H213369   0.908   3.476   3.388 -0.1478 -1.1447 -1.1081
 4469TIP3   OH213370   0.567   2.584   4.461 -0.8578  0.7231 -0.7296
 4469TIP3    H113371   0.588   2.628   4.378 -0.6368  1.9656 -0.0447
 4469TIP3    H213372   0.652   2.560   4.497 -0.9758 -0.2346 -1.0660
 4470TIP3   OH213373   0.231   4.441   4.299  0.0408  0.1959 -0.6210
 4470TIP3    H113374   0.237   4.352   4.334 -0.8477  0.2147 -0.3998
 4470TIP3    H213375   0.278   4.437   4.216 -1.4108 -0.9181 -1.4357
 4471TIP3   OH213376   1.535   3.699   2.512  0.2028 -0.5949  0.0491
 4471TIP3    H113377   1.546   3.659   2.598 -1.7688 -2.1794 -0.3666
 4471TIP3    H213378   1.468   3.766   2.526  0.4482 -0.3184 -0.0997
 4472TIP3   OH213379   5.808   3.054   4.030 -0.4440 -0.5500  0.3384
 4472TIP3    H113380   5.717   3.078   4.052  0.0812  1.0198  0.9994
 4472TIP3    H213381   5.815   3.070   3.936 -1.1910 -1.9593  0.0155
 4473TIP3   OH213382   1.903   4.259   4.733  0.4821  0.6552  0.3730
 4473TIP3    H113383   1.929   4.335   4.785 -0.4648  0.8665  0.5438
 4473TIP3    H213384   1.913   4.184   4.792 -2.2614  1.0700  1.4825
 4474TIP3   OH213385   1.165   4.477   5.636  0.3025  0.2839 -0.3924
 4474TIP3    H113386   1.126   4.390   5.646 -1.1795  0.9807  0.1474
 4474TIP3    H213387   1.220   4.486   5.714 -0.0337  0.0792 -0.1257
 4475TIP3   OH213388   3.307   5.879   5.715  0.2251 -0.0963 -0.3968
 4475TIP3    H113389   3.255   5.912   5.641 -0.9157 -1.5088 -0.2676
 4475TIP3    H213390   3.347   5.799   5.682 -0.8860 -1.1529  0.6841
 4476TIP3   OH213391   1.248   0.728   3.098  0.2171 -0.2410  0.0768
 4476TIP3    H113392   1.307   0.652   3.100 -0.9871 -1.1974  0.0053
 4476TIP3    H213393   1.305   0.803   3.118  1.3071 -1.2245  0.7517
 4477TIP3   OH213394   7.019   0.845   3.217  0.6645 -0.2858  0.0092
 4477TIP3    H113395   7.054   0.785   3.283 -0.8486 -0.1021  1.0488
 4477TIP3    H213396   6.928   0.860   3.245  0.0179 -0.0846 -2.0590
 4478TIP3   OH213397   1.194   0.398   3.347  0.4305  0.8737 -0.5599
 4478TIP3    H113398   1.123   0.379   3.409  0.2863  3.3544  0.1479
 4478TIP3    H213399   1.152   0.398   3.262 -0.5342  2.4900 -0.1310
 4479TIP3   OH213400   3.407   2.973   3.577 -0.7398 -0.3677  0.3019
 4479TIP3    H113401   3.403   3.027   3.656 -0.0606 -1.1665  0.8947
 4479TIP3    H213402   3.467   3.021   3.519  1.1210 -1.2202  1.4394
 4480TIP3   OH213403   6.589   4.889   0.476 -0.6723  0.8154 -0.2034
 4480TIP3    H113404   6.575   4.904   0.569  0.6516 -0.5304  0.2611
 4480TIP3    H213405   6.574   4.795   0.465  2.0078  0.3571 -0.7210
 4481TIP3   OH213406   4.852   3.183   4.532  0.2671  0.4353 -0.3529
 4481TIP3    H113407   4.781   3.122   4.513 -0.5824  0.2065  3.0093
 4481TIP3    H213408   4.810   3.270   4.531  0.0724  0.3666  0.9112
 4482TIP3   OH213409   6.681   2.844   1.220 -0.8194 -0.5670  0.0032
 4482TIP3    H113410   6.591   2.850   1.251 -1.4023 -0.8957 -1.5503
 4482TIP3    H213411   6.682   2.894   1.139  0.3841 -0.6174 -0.0325
 4483TIP3   OH213412   7.021   5.519   5.441  0.5571 -0.1264 -0.0694
 4483TIP3    H113413   6.985   5.459   5.376  4.3920 -1.1308 -1.5439
 4483TIP3    H213414   7.004   5.476   5.525  0.1208 -1.4893 -0.8202
 4484TIP3   OH213415   6.307   6.353   3.369 -0.6545  0.1461  0.0430
 4484TIP3    H113416   6.355   6.428   3.333  1.4084 -0.2337  1.7451
 4484TIP3    H213417   6.221   6.388   3.391  0.3416  2.1737  1.0470
 4485TIP3   OH213418   6.496   3.043   4.061  0.3325  0.0506 -0.0475
 4485TIP3    H113419   6.521   3.090   4.140  0.6678 -1.7318  0.9425
 4485TIP3    H213420   6.557   3.076   3.994  0.0724  1.5386  0.4178
 4486TIP3   OH213421   2.143   6.470   4.041  0.0975 -0.2024 -0.6507
 4486TIP3    H113422   2.084   6.401   4.072  2.2630 -1.2953  1.3796
 4486TIP3    H213423   2.226   6.425   4.024  0.9351  1.5602 -1.5366
 4487TIP3   OH213424   1.254   6.727   2.050  0.8727  0.2243 -0.0753
 4487TIP3    H113425   1.166   6.742   2.084  0.8342 -0.0794 -0.0444
 4487TIP3    H213426   1.312   6.758   2.120  0.7972  1.1705 -0.4142
 4488TIP3   OH213427   5.225   4.220   2.468  0.2646 -0.2469 -0.8540
 4488TIP3    H113428   5.238   4.184   2.556 -3.7900 -1.1184 -0.4516
 4488TIP3    H213429   5.225   4.143   2.410  0.8838  0.1219 -1.3615
 4489TIP3   OH213430   1.396   3.038   4.061  0.1680  0.1360  0.6942
 4489TIP3    H113431   1.339   3.108   4.093 -1.1214 -0.1710 -0.8409
 4489TIP3    H213432   1.368   2.961   4.110  1.7166  0.6606  2.5256
 4490TIP3   OH213433   4.293   3.881   2.068  0.2009  0.1979 -0.2711
 4490TIP3    H113434   4.270   3.940   1.997 -0.7874  1.6350  1.1603
 4490TIP3    H213435   4.243   3.801   2.050  0.2416  0.4089 -1.3620
 4491TIP3   OH213436   5.763   5.107   2.868  0.6083  0.0166 -0.7769
 4491TIP3    H113437   5.756   5.048   2.793 -1.2054 -1.5604  0.5309
 4491TIP3    H213438   5.673   5.132   2.887  0.8769 -0.5691  1.5493
 4492TIP3   OH213439   0.358   2.020   4.631 -0.4331  0.1715 -0.5378
 4492TIP3    H113440   0.414   1.990   4.560  1.9042 -0.5788  1.5026
 4492TIP3    H213441   0.383   2.112   4.644 -0.3641  0.1118 -0.2422
 4493TIP3   OH213442   5.563   4.739   0.127 -0.6287  0.0134 -0.3365
 4493TIP3    H113443   5.615   4.805   0.173  2.8111 -1.3620 -1.9018
 4493TIP3    H213444   5.528   4.784   0.051 -0.0211  0.5384 -0.3105
 4494TIP3   OH213445   2.182   2.554   1.329  0.5831  0.2824  0.1815
 4494TIP3    H113446   2.127   2.476   1.339  1.8224 -0.4912  1.2457
 4494TIP3    H213447   2.146   2.617   1.391 -0.6487  0.7338 -0.9376
 4495TIP3   OH213448   5.764   4.394   1.992 -0.3273  0.2479  0.1468
 4495TIP3    H113449   5.740   4.467   1.934 -0.0754 -0.6200 -1.1093
 4495TIP3    H213450   5.683   4.370   2.036 -0.6960  0.4625 -0.4034
 4496TIP3   OH213451   2.079   3.503   3.538 -0.4493 -0.3374  0.5651
 4496TIP3    H113452   2.098   3.461   3.454  1.4218  2.0258 -0.3077
 4496TIP3    H213453   1.984   3.515   3.537 -0.5963 -1.3416 -0.7035
 4497TIP3   OH213454   4.417   0.479   2.375 -0.0724  0.2288 -0.2079
 4497TIP3    H113455   4.412   0.456   2.467 -0.5433  0.6034 -0.1339
 4497TIP3    H213456   4.431   0.395   2.330 -0.6829 -0.0675  0.1409
 4498TIP3   OH213457   2.987   0.420   4.766 -0.0707  0.1287 -0.3965
 4498TIP3    H113458   3.025   0.443   4.682  2.1560 -2.0621 -0.0781
 4498TIP3    H213459   2.947   0.334   4.753 -3.0017  1.3093 -0.0766
 4499TIP3   OH213460   2.551   3.162   1.109  0.8782  0.3706 -0.0970
 4499TIP3    H113461   2.502   3.125   1.036 -1.6270 -0.4816  1.8810
 4499TIP3    H213462   2.595   3.086   1.148  1.4187  0.6616 -0.1323
 4500TIP3   OH213463   6.629   4.125   0.800  0.2710  0.2678 -0.0969
 4500TIP3    H113464   6.714   4.089   0.825  1.0583  0.3793 -2.4456
 4500TIP3    H213465   6.566   4.058   0.828  1.3531 -1.0294 -0.6634
 4501TIP3   OH213466   7.050   4.842   1.974 -0.2722  0.2957  0.1606
 4501TIP3    H113467   7.003   4.780   1.918 -0.8890  0.4720  0.4715
 4501TIP3    H213468   7.020   4.928   1.943 -0.1138  0.4088  0.3231
 4502TIP3   OH213469   0.053   5.381   2.451 -0.2728  0.0631  0.4877
 4502TIP3    H113470  -0.041   5.389   2.436  0.0059  1.3195 -0.7292
 4502TIP3    H213471   0.076   5.294   2.417 -0.4346  1.0942 -2.5188
 4503TIP3   OH213472   4.176   0.073   2.323 -0.0681 -0.0974 -0.0057
 4503TIP3    H113473   4.118   0.076   2.398  0.8695 -0.6386  0.7737
 4503TIP3    H213474   4.222  -0.011   2.332 -0.6186 -0.6202 -1.7058
 4504TIP3   OH213475   1.809   2.630   4.416 -0.0917 -0.0546  0.0945
 4504TIP3    H113476   1.886   2.630   4.361  0.2659  3.3957  0.4271
 4504TIP3    H213477   1.832   2.573   4.490  1.4818 -0.3253 -0.5808
 4505TIP3   OH213478   1.579   6.720   1.590  0.2788 -0.1703  0.2443
 4505TIP3    H113479   1.502   6.700   1.643 -1.8719  2.6155 -1.5677
 4505TIP3    H213480   1.646   6.745   1.653 -1.5813  1.2230  1.7765
 4506TIP3   OH213481   6.239   3.991   5.535  0.6045  0.2848  0.6064
 4506TIP3    H113482   6.299   4.046   5.484 -0.1459  1.1431  0.6195
 4506TIP3    H213483   6.227   3.913   5.481  1.0778  0.4676  0.2241
 4507TIP3   OH213484   0.344   2.786   3.362 -0.2604 -0.3028  0.2372
 4507TIP3    H113485   0.370   2.787   3.270  0.9926 -0.0465  0.5643
 4507TIP3    H213486   0.312   2.697   3.377  0.3189 -0.6064 -0.2489
 4508TIP3   OH213487   3.743   1.900   3.118 -0.0144  0.2984  0.1871
 4508TIP3    H113488   3.801   1.840   3.072  1.2079  0.0075  2.0272
 4508TIP3    H213489   3.694   1.845   3.179 -0.2820  0.9129  0.5377
 4509TIP3   OH213490   5.395   6.202   5.333  0.2255 -0.3267 -0.0833
 4509TIP3    H113491   5.351   6.283   5.308 -0.4791 -0.5433  0.4313
 4509TIP3    H213492   5.488   6.225   5.335 -0.0443  0.7966  1.2063
 4510TIP3   OH213493   3.478   4.945   0.574 -0.4423 -0.7032  0.7277
 4510TIP3    H113494   3.470   5.019   0.633  1.7485  0.0657  0.1471
 4510TIP3    H213495   3.388   4.926   0.546 -0.9817  2.9433 -0.5409
 4511TIP3   OH213496   1.858   6.296   3.828  0.6599  0.0050 -0.3806
 4511TIP3    H113497   1.774   6.257   3.852  0.5617  0.2535 -0.3093
 4511TIP3    H213498   1.836   6.359   3.759  0.6338  0.8015  0.3338
 4512TIP3   OH213499   5.627   2.716   1.687 -0.0056 -0.1268 -0.3379
 4512TIP3    H113500   5.683   2.793   1.689 -0.6003  0.2936  0.3235
 4512TIP3    H213501   5.688   2.642   1.686  0.5865  0.2712  1.9655
 4513TIP3   OH213502   4.723   0.063   2.328  0.4738  0.2447 -0.0746
 4513TIP3    H113503   4.803   0.022   2.361 -0.6284 -1.9815  0.0063
 4513TIP3    H213504   4.676   0.090   2.407 -0.5423 -1.9078  0.1346
 4514TIP3   OH213505   6.314   4.590   3.217  0.7557  0.2411  0.4677
 4514TIP3    H113506   6.361   4.672   3.200 -1.1693  1.2938 -0.1949
 4514TIP3    H213507   6.251   4.613   3.286  0.0862 -0.6309  0.1595
 4515TIP3   OH213508   1.047   6.263   4.755  0.3391  0.0607  0.2696
 4515TIP3    H113509   1.104   6.300   4.687 -0.5820 -0.7212 -0.9770
 4515TIP3    H213510   1.105   6.249   4.829  1.6786 -0.2249 -0.7847
 4516TIP3   OH213511   0.582   3.231   1.674 -0.3318  0.0446 -0.1815
 4516TIP3    H113512   0.565   3.323   1.694 -0.6196 -0.1599  0.5534
 4516TIP3    H213513   0.601   3.230   1.581 -1.9461  0.6359 -0.5531
 4517TIP3   OH213514   3.293   5.774   2.127  0.2567 -0.2057 -0.3179
 4517TIP3    H113515   3.251   5.834   2.188  0.4267  0.8223 -1.1773
 4517TIP3    H213516   3.236   5.772   2.051  1.2864  0.5435 -1.1509
 4518TIP3   OH213517   0.733   6.448   5.437 -0.8568 -0.6601  0.3410
 4518TIP3    H113518   0.685   6.509   5.493 -0.5270 -0.3066  0.2442
 4518TIP3    H213519   0.745   6.370   5.490  0.5214  0.1112  1.2061
 4519TIP3   OH213520   0.266   1.542   0.277  0.1669  0.0899  0.1618
 4519TIP3    H113521   0.241   1.455   0.308 -0.6538 -0.0398 -0.8095
 4519TIP3    H213522   0.195   1.599   0.306  0.3542  0.3104  0.1870
 4520TIP3   OH213523   6.526   4.390   2.911  0.3901  0.7950 -0.0999
 4520TIP3    H113524   6.523   4.306   2.865  1.4408  0.7744 -0.1565
 4520TIP3    H213525   6.576   4.447   2.852  1.4665  0.8633  0.8667
 4521TIP3   OH213526   0.070   5.858   0.562 -0.2601 -1.0650 -0.2454
 4521TIP3    H113527   0.081   5.832   0.470  1.6032  0.1861 -0.4479
 4521TIP3    H213528   0.051   5.951   0.558 -0.0971 -0.9851  0.6294
 4522TIP3   OH213529   0.849   3.852   3.789  0.5984  0.3774 -0.3861
 4522TIP3    H113530   0.784   3.874   3.723 -0.8015  0.0774  0.8224
 4522TIP3    H213531   0.864   3.758   3.779 -0.2177  0.1694  0.1942
 4523TIP3   OH213532   3.552   5.912  -0.034 -0.2120  0.3600 -0.0334
 4523TIP3    H113533   3.619   5.849  -0.008  1.0776  1.4285 -0.6355
 4523TIP3    H213534   3.504   5.931   0.047  1.2224  0.7215  0.7587
 4524TIP3   OH213535   6.940   3.515   2.453 -0.0008  0.0352  0.2509
 4524TIP3    H113536   6.945   3.552   2.365  0.6413 -2.5698 -0.9060
 4524TIP3    H213537   6.853   3.477   2.459  0.6676 -1.6818 -0.1636
 4525TIP3   OH213538   5.823   2.997   5.595  0.4002 -0.0798  0.5206
 4525TIP3    H113539   5.734   3.017   5.625 -0.3375 -1.3823 -0.6910
 4525TIP3    H213540   5.843   3.067   5.532 -0.3400 -0.5238 -0.2372
 4526TIP3   OH213541   3.262   4.147   3.384 -0.6055 -0.1349 -0.0980
 4526TIP3    H113542   3.254   4.188   3.470 -2.8100 -3.1235  1.3210
 4526TIP3    H213543   3.351   4.113   3.382 -0.3146  0.5536  0.7089
 4527TIP3   OH213544   6.702   2.053   3.439 -0.5666 -0.5059 -0.5393
 4527TIP3    H113545   6.753   2.056   3.520 -0.9915  1.7606 -0.2849
 4527TIP3    H213546   6.632   2.117   3.452 -0.8666 -0.3526 -2.5590
 4528TIP3   OH213547   5.032   6.051   4.658 -0.5263  0.1930  0.3500
 4528TIP3    H113548   5.006   5.960   4.671 -2.4308  0.6994  0.3401
 4528TIP3    H213549   5.092   6.048   4.583 -0.6515 -1.0280  0.2743
 4529TIP3   OH213550   2.739   3.758   1.147 -0.1794  0.3064  0.7608
 4529TIP3    H113551   2.801   3.721   1.084  1.0708 -0.0440  2.1338
 4529TIP3    H213552   2.715   3.843   1.111 -1.2370 -0.7610 -1.2639
 4530TIP3   OH213553   0.846   4.620   5.451 -0.2746  0.3089  0.5535
 4530TIP3    H113554   0.847   4.609   5.356 -0.7548 -0.2400  0.6054
 4530TIP3    H213555   0.769   4.570   5.480 -0.3976  0.8522  1.1841
 4531TIP3   OH213556   6.584   6.258   5.731  0.4637  0.7868  0.3896
 4531TIP3    H113557   6.625   6.333   5.774  0.0915  0.1971  1.8161
 4531TIP3    H213558   6.500   6.248   5.774  1.1614 -1.4318  1.3841
 4532TIP3   OH213559   2.367   3.059   4.778 -0.7287 -0.6058 -0.7427
 4532TIP3    H113560   2.331   2.978   4.813  0.7938 -0.7480  0.5728
 4532TIP3    H213561   2.312   3.128   4.814  1.6669 -0.5814  3.5159
 4533TIP3   OH213562   0.174   2.691   0.304  0.0696 -0.3599 -0.4377
 4533TIP3    H113563   0.140   2.766   0.351  2.8774  1.1181 -0.5271
 4533TIP3    H213564   0.148   2.705   0.213 -1.8094 -1.0375 -0.0393
 4534TIP3   OH213565   7.218   0.101   5.429 -0.5433 -1.0850 -0.4391
 4534TIP3    H113566   7.124   0.095   5.414 -0.7215 -1.4563  0.7369
 4534TIP3    H213567   7.256   0.106   5.341 -1.5612 -2.2405 -0.9777
 4535TIP3   OH213568   2.072   2.260   3.005  0.1673 -0.5075 -0.0846
 4535TIP3    H113569   2.091   2.187   2.947  0.1669 -1.2997  0.8814
 4535TIP3    H213570   2.079   2.223   3.093 -0.6726  0.4483  0.4046
 4536TIP3   OH213571   3.797   0.294   1.401 -0.0985  0.0349  0.2261
 4536TIP3    H113572   3.852   0.305   1.478  0.8096 -2.3763  0.0020
 4536TIP3    H213573   3.768   0.203   1.404  0.9126 -0.5155 -2.8329
 4537TIP3   OH213574   7.004   4.421   4.500 -0.6762  0.4497  0.1745
 4537TIP3    H113575   6.994   4.414   4.405  0.5500 -1.6607  0.1390
 4537TIP3    H213576   6.914   4.429   4.533 -1.2670 -0.7668 -1.0635
 4538TIP3   OH213577   4.156   1.326   2.383  0.4169  0.3000 -0.3349
 4538TIP3    H113578   4.060   1.320   2.378  0.4851 -0.5691 -0.7411
 4538TIP3    H213579   4.181   1.365   2.299  0.3423  1.8082  0.3027
 4539TIP3   OH213580   2.424   2.978   0.883  0.0670 -0.0629  0.3022
 4539TIP3    H113581   2.506   2.930   0.894 -0.2698 -0.5720  0.6197
 4539TIP3    H213582   2.394   2.956   0.794 -0.7033 -1.4283  0.8729
 4540TIP3   OH213583   0.280   4.545   5.289 -0.3264 -0.1229 -0.1941
 4540TIP3    H113584   0.304   4.458   5.321  1.0877 -0.0690 -1.0152
 4540TIP3    H213585   0.326   4.605   5.347 -1.1395  0.0913  0.2466
 4541TIP3   OH213586   1.702   6.088   3.319 -0.2780  0.3977  0.0054
 4541TIP3    H113587   1.702   6.184   3.311 -2.1866  0.3101 -2.0993
 4541TIP3    H213588   1.615   6.067   3.353 -0.4707 -0.6438 -1.0667
 4542TIP3   OH213589   6.018   5.499   4.801  0.2651 -0.7004 -0.5471
 4542TIP3    H113590   5.960   5.487   4.726  0.7359  0.2333 -1.0921
 4542TIP3    H213591   6.104   5.518   4.762  0.5344 -0.2824  0.2199
 4543TIP3   OH213592   4.098   3.438   1.617  0.0372  0.2663 -0.4719
 4543TIP3    H113593   4.093   3.346   1.642 -0.1894  0.3822 -0.0760
 4543TIP3    H213594   4.079   3.439   1.523 -0.4330 -0.0400 -0.3820
 4544TIP3   OH213595   2.482   0.448   0.456  0.0569  0.0071 -0.0409
 4544TIP3    H113596   2.487   0.500   0.376  0.2929 -0.6556 -0.4665
 4544TIP3    H213597   2.570   0.452   0.493  0.4447 -1.1561 -0.7762
 4545TIP3   OH213598   4.422   2.931   3.751 -0.0914  0.5677 -0.0002
 4545TIP3    H113599   4.468   2.996   3.699 -1.0071  0.6932 -0.6657
 4545TIP3    H213600   4.469   2.849   3.734 -0.0805  0.7009 -0.6306
 4546TIP3   OH213601   4.040   6.108   5.326 -0.3974 -0.1486 -0.0286
 4546TIP3    H113602   4.070   6.024   5.291  1.2793  0.4189 -0.0083
 4546TIP3    H213603   3.968   6.085   5.385  0.7055 -1.6683  0.7806
 4547TIP3   OH213604   5.276   4.100   4.449  0.2611  0.3705 -0.0332
 4547TIP3    H113605   5.246   4.172   4.393  1.4352  0.5369 -0.4755
 4547TIP3    H213606   5.201   4.041   4.454 -0.9965  1.9590  0.9620
 4548TIP3   OH213607   2.037   5.862   0.255 -0.1853  1.0914 -0.4590
 4548TIP3    H113608   2.054   5.819   0.338  0.7858 -1.1795 -1.7504
 4548TIP3    H213609   2.095   5.939   0.255  0.3264  0.7201  0.6469
 4549TIP3   OH213610   4.759   3.402   4.150 -0.0089 -0.0431  1.0738
 4549TIP3    H113611   4.760   3.316   4.106 -1.1967 -0.4840  1.8539
 4549TIP3    H213612   4.843   3.407   4.195  1.8479  0.9731 -2.1949
 4550TIP3   OH213613   3.460   1.097   0.587 -0.6720  0.0413 -0.1854
 4550TIP3    H113614   3.439   1.188   0.568 -0.4809 -0.2713 -2.0552
 4550TIP3    H213615   3.545   1.083   0.546  0.5201 -0.3436  2.2098
 4551TIP3   OH213616   3.914   4.028   3.177  0.3503 -0.3164 -0.2058
 4551TIP3    H113617   3.957   3.990   3.101  2.2383  0.5523  0.3473
 4551TIP3    H213618   3.953   4.115   3.185 -0.0230 -0.2712  1.5436
 4552TIP3   OH213619   0.848   4.145   5.482 -0.1763 -0.1537  0.2104
 4552TIP3    H113620   0.798   4.224   5.459 -0.3249 -0.6860 -1.3741
 4552TIP3    H213621   0.837   4.087   5.407  2.3818 -0.5144  0.0270
 4553TIP3   OH213622   5.185   4.443   1.004  0.0976 -0.1001 -0.3254
 4553TIP3    H113623   5.142   4.431   0.919 -0.2182  0.1983 -0.2128
 4553TIP3    H213624   5.276   4.419   0.989  0.0244 -0.1254 -0.7306
 4554TIP3   OH213625   2.154   6.253   2.183  0.0459  0.6226 -0.0425
 4554TIP3    H113626   2.206   6.173   2.182 -1.3032 -0.2994  0.0852
 4554TIP3    H213627   2.218   6.324   2.180  1.2917 -0.4299 -3.1781
 4555TIP3   OH213628   6.459   0.905   3.873 -0.2427 -0.0693  0.5153
 4555TIP3    H113629   6.411   0.987   3.884  0.6675  0.3788  1.2693
 4555TIP3    H213630   6.472   0.873   3.962 -1.4815 -1.5842  0.1940
 4556TIP3   OH213631   6.716   3.901   4.675  0.1027  0.2438 -0.4011
 4556TIP3    H113632   6.711   3.859   4.589  1.9749  1.2239 -1.0469
 4556TIP3    H213633   6.729   3.994   4.655  1.8988  0.3057  0.8949
 4557TIP3   OH213634   6.645   2.189   2.533 -0.7573  0.0920 -0.3994
 4557TIP3    H113635   6.685   2.137   2.464  2.4107  1.2706  0.3730
 4557TIP3    H213636   6.552   2.190   2.512 -0.6489 -3.7986 -1.7464
 4558TIP3   OH213637   5.032   0.751   4.148  0.1026  0.1244 -0.3344
 4558TIP3    H113638   4.972   0.822   4.125  0.3377  0.6637  0.6955
 4558TIP3    H213639   5.103   0.758   4.084 -0.5865 -0.1196 -1.1550
 4559TIP3   OH213640   5.862   2.499   4.404 -0.1346 -0.2811  0.4113
 4559TIP3    H113641   5.904   2.548   4.333  1.3030 -0.5928  1.0143
 4559TIP3    H213642   5.897   2.538   4.484 -2.1185  0.4062  1.0067
 4560TIP3   OH213643   5.110   3.101   1.269  0.5306 -0.4829 -0.2596
 4560TIP3    H113644   5.163   3.040   1.218 -0.5454  0.0505 -2.0961
 4560TIP3    H213645   5.131   3.187   1.233 -0.6547 -0.1387 -0.1791
 4561TIP3   OH213646   1.992   0.944   3.741  0.4830  0.6416  0.8877
 4561TIP3    H113647   2.054   0.982   3.680  0.1562 -0.0858  0.0826
 4561TIP3    H213648   2.015   0.981   3.826  1.2491  1.2899  0.4017
 4562TIP3   OH213649   1.989   6.365   1.996  0.3845  0.0436 -0.1660
 4562TIP3    H113650   2.059   6.431   1.988 -0.5626  1.2114  0.7919
 4562TIP3    H213651   2.022   6.304   2.061  0.0366  1.2900  1.2377
 4563TIP3   OH213652   0.814   1.421   2.416 -0.0193  0.1261 -0.0368
 4563TIP3    H113653   0.817   1.425   2.321 -1.9271  1.6461 -0.1046
 4563TIP3    H213654   0.895   1.376   2.441  0.6921  0.0007 -2.3306
 4564TIP3   OH213655   4.442   2.166   0.308  0.3918 -0.2486 -0.3414
 4564TIP3    H113656   4.528   2.125   0.313  0.3687 -0.5268 -1.9893
 4564TIP3    H213657   4.391   2.108   0.251 -0.7110  0.2332  0.1349
 4565TIP3   OH213658   1.491   5.311   0.593 -0.6758  0.2986  0.1061
 4565TIP3    H113659   1.412   5.280   0.638 -0.1848 -1.1938  0.0017
 4565TIP3    H213660   1.508   5.245   0.526 -0.0483  1.2652 -0.7209
 4566TIP3   OH213661   2.753   5.345   5.451  0.7006 -0.2559 -0.2882
 4566TIP3    H113662   2.716   5.318   5.535  0.1216 -0.5991 -0.6512
 4566TIP3    H213663   2.749   5.441   5.454  0.6126 -0.2673  0.0409
 4567TIP3   OH213664   4.592   0.849   1.726  1.3563  0.4653  0.3471
 4567TIP3    H113665   4.517   0.868   1.668  1.9822 -1.7371 -1.3083
 4567TIP3    H213666   4.557   0.787   1.790  1.7229 -0.5041 -0.3799
 4568TIP3   OH213667   1.360   1.593   5.174  0.3822 -0.2498 -0.4214
 4568TIP3    H113668   1.432   1.530   5.177  0.7063  0.1315  0.2595
 4568TIP3    H213669   1.403   1.678   5.169  0.0773  0.1024  1.6677
 4569TIP3   OH213670   4.410   1.515   0.364 -0.1677 -0.2375  0.2310
 4569TIP3    H113671   4.349   1.585   0.388  0.4557  0.8685 -1.2405
 4569TIP3    H213672   4.365   1.468   0.294  0.6427  0.6080 -0.8888
 4570TIP3   OH213673   6.468   0.506   0.690 -0.3109 -0.2073 -0.2267
 4570TIP3    H113674   6.377   0.517   0.664 -0.4663 -0.9085  0.0044
 4570TIP3    H213675   6.481   0.570   0.760 -0.0599  1.2719 -1.5446
 4571TIP3   OH213676   4.965   3.543   0.061  0.0488  0.0756  0.3213
 4571TIP3    H113677   4.875   3.548   0.093 -0.1247 -1.0658  0.0369
 4571TIP3    H213678   5.010   3.485   0.123  0.2601 -0.3965 -0.2624
 4572TIP3   OH213679   4.197   3.141   5.168  0.5877 -0.2497  0.0725
 4572TIP3    H113680   4.291   3.127   5.181  0.3154 -0.8694  1.6511
 4572TIP3    H213681   4.189   3.236   5.154  1.3234  0.0540  1.4633
 4573TIP3   OH213682   5.709   5.614   5.082  0.0111 -0.2209 -0.6329
 4573TIP3    H113683   5.702   5.621   4.987  0.2096  0.1557 -0.6224
 4573TIP3    H213684   5.801   5.637   5.101 -0.5953  2.0826 -0.1408
 4574TIP3   OH213685   4.127   1.595   3.379 -0.0715 -0.2765 -0.3648
 4574TIP3    H113686   4.200   1.607   3.440  1.0021 -0.5676 -1.5574
 4574TIP3    H213687   4.150   1.647   3.303 -0.8943 -0.7459 -0.9550
 4575TIP3   OH213688   6.440   3.276   2.768 -0.7617  0.4124  0.2262
 4575TIP3    H113689   6.509   3.282   2.702 -0.2570  1.3045  0.8158
 4575TIP3    H213690   6.402   3.189   2.754 -1.5277  1.0357 -2.0693
 4576TIP3   OH213691   6.235   4.674   2.716 -0.4105 -0.0759 -0.2081
 4576TIP3    H113692   6.327   4.688   2.694 -0.4237 -0.4145 -0.4932
 4576TIP3    H213693   6.219   4.731   2.791 -0.3616  1.1357 -1.0796
 4577TIP3   OH213694   1.261   2.520   2.499  0.5800 -0.1619 -0.9720
 4577TIP3    H113695   1.225   2.584   2.437  1.9370  1.5321 -0.0866
 4577TIP3    H213696   1.236   2.553   2.585  0.0955 -1.6212 -0.5278
 4578TIP3   OH213697   5.380   4.097   0.822 -0.3545  0.5017  0.1733
 4578TIP3    H113698   5.459   4.147   0.802 -0.9078  0.4659 -2.4270
 4578TIP3    H213699   5.326   4.105   0.744 -1.3151 -2.5606  0.4052
 4579TIP3   OH213700   5.764   4.537   4.737  0.4017  0.0899  0.2256
 4579TIP3    H113701   5.671   4.554   4.722  0.5789  0.2055 -0.8146
 4579TIP3    H213702   5.790   4.481   4.664  0.7120 -1.5659  1.5480
 4580TIP3   OH213703   0.129   1.286   3.624  0.3491 -0.1300  0.4063
 4580TIP3    H113704   0.055   1.324   3.672  1.4751  0.3216  1.8487
 4580TIP3    H213705   0.150   1.350   3.557 -0.8162 -0.4561 -0.2940
 4581TIP3   OH213706   2.898   0.441   5.192 -0.5666  0.1104  0.2981
 4581TIP3    H113707   2.893   0.486   5.277 -1.3277  1.2127 -0.3080
 4581TIP3    H213708   2.850   0.498   5.132  0.9558 -0.0311 -1.1403
 4582TIP3   OH213709   5.348   6.521   3.032  1.0182  0.5592  0.2029
 4582TIP3    H113710   5.400   6.443   3.011 -0.2130 -0.6244  1.3176
 4582TIP3    H213711   5.322   6.556   2.946 -0.3600 -1.6725 -0.3740
 4583TIP3   OH213712   5.106   1.768   3.897 -0.2701  0.7194  0.0224
 4583TIP3    H113713   5.126   1.704   3.829  3.2293  1.3107  0.3272
 4583TIP3    H213714   5.082   1.847   3.848 -2.6387 -0.1754 -0.3704
 4584TIP3   OH213715   5.866   3.832   2.161 -1.1985  0.0243 -0.0591
 4584TIP3    H113716   5.841   3.851   2.251 -0.2709 -1.7101  0.6165
 4584TIP3    H213717   5.874   3.736   2.159  0.6588  0.1603 -1.4694
 4585TIP3   OH213718   0.799   5.652   1.696 -0.2665 -0.5488 -0.2164
 4585TIP3    H113719   0.743   5.725   1.671 -0.6371 -1.3980 -2.0642
 4585TIP3    H213720   0.881   5.667   1.650 -0.3790 -1.3205 -0.6988
 4586TIP3   OH213721   0.583   0.974   4.255  0.4045 -0.2385 -0.1682
 4586TIP3    H113722   0.533   0.895   4.235  1.1726 -0.3972 -1.5603
 4586TIP3    H213723   0.650   0.979   4.187  0.4413  1.5702 -0.0561
 4587TIP3   OH213724   6.008   3.900   2.841  0.1514 -0.1535 -0.4073
 4587TIP3    H113725   6.018   3.806   2.831 -1.8892 -0.3472 -1.0076
 4587TIP3    H213726   6.096   3.932   2.861  1.2002 -1.9408 -1.9682
 4588TIP3   OH213727   2.633   5.950   0.745 -0.5665  0.7631 -1.1750
 4588TIP3    H113728   2.646   5.881   0.681  2.3426 -0.4594  0.5337
 4588TIP3    H213729   2.689   6.022   0.716 -0.5110  0.8496 -0.8625
 4589TIP3   OH213730   0.325   4.821   3.305 -0.0780 -0.0719 -0.7065
 4589TIP3    H113731   0.407   4.772   3.296 -0.4757 -1.0656  0.7633
 4589TIP3    H213732   0.306   4.820   3.399 -2.5227 -1.1484 -1.1307
 4590TIP3   OH213733   3.998   5.535   4.441 -0.0675  0.3135  0.1252
 4590TIP3    H113734   3.920   5.553   4.388  0.2836  1.5793 -0.0108
 4590TIP3    H213735   4.028   5.622   4.468  1.0143 -0.1900  0.5867
 4591TIP3   OH213736   2.097   0.353   5.677  0.4903 -0.0568 -0.0734
 4591TIP3    H113737   2.142   0.299   5.742  0.5193  0.8707  0.6899
 4591TIP3    H213738   2.082   0.436   5.721 -1.8251 -0.2675 -0.3519
 4592TIP3   OH213739   6.671   6.215   1.956 -0.4166 -0.1018  0.9225
 4592TIP3    H113740   6.603   6.149   1.950 -1.5522  1.0980  0.1309
 4592TIP3    H213741   6.684   6.228   2.050 -1.2137 -0.4108  1.0801
 4593TIP3   OH213742   2.425   2.803   4.991 -0.0953  0.3833 -0.0558
 4593TIP3    H113743   2.470   2.853   4.923  0.9237  1.3450  1.2786
 4593TIP3    H213744   2.333   2.801   4.962  0.0530  1.9908 -0.7712
 4594TIP3   OH213745   3.421   4.805   3.249 -0.0671  0.2256 -0.2971
 4594TIP3    H113746   3.375   4.852   3.319  1.9365  1.5558  0.2047
 4594TIP3    H213747   3.441   4.872   3.184  0.1035 -0.5611 -1.0764
 4595TIP3   OH213748   4.096   6.702   5.047 -0.1128  0.2250 -0.3404
 4595TIP3    H113749   4.153   6.752   4.989  0.4617  0.7993  0.6829
 4595TIP3    H213750   4.127   6.723   5.135  0.6614 -2.5552  0.1333
 4596TIP3   OH213751   3.788   1.535   5.683 -0.8103 -0.0059 -0.6234
 4596TIP3    H113752   3.864   1.518   5.739  0.8451  2.0369 -2.0903
 4596TIP3    H213753   3.721   1.568   5.743 -0.2081 -0.8547  0.5647
 4597TIP3   OH213754   6.349   0.583   1.230  0.6253 -0.5166  0.1582
 4597TIP3    H113755   6.290   0.532   1.174 -1.0940  1.6956 -0.1959
 4597TIP3    H213756   6.295   0.607   1.305  1.4697  0.5390  0.4467
 4598TIP3   OH213757   3.819   6.383   3.976 -0.0462  0.0593 -0.6322
 4598TIP3    H113758   3.855   6.346   3.895 -0.7263  0.4397 -1.1186
 4598TIP3    H213759   3.818   6.309   4.037  1.6113  0.0541 -0.5710
 4599TIP3   OH213760   5.141   5.731   1.618  0.0393  0.0808  0.6184
 4599TIP3    H113761   5.100   5.701   1.699  1.6480  1.1785  1.9045
 4599TIP3    H213762   5.157   5.651   1.569 -0.7641 -0.6360  1.4767
 4600TIP3   OH213763   3.121   6.531   1.697  0.2047 -0.1256  0.0890
 4600TIP3    H113764   3.176   6.465   1.655  0.6931 -0.3686  1.0978
 4600TIP3    H213765   3.080   6.486   1.770 -0.2949  0.4104  0.1506
 4601TIP3   OH213766   0.145   5.000   3.621 -0.0159  0.1602  0.0395
 4601TIP3    H113767   0.196   4.919   3.625 -0.7077 -0.2268  1.7126
 4601TIP3    H213768   0.206   5.065   3.585  0.8284 -0.8774 -0.4498
 4602TIP3   OH213769   4.194   3.226   3.814 -0.3509  0.0931 -0.1516
 4602TIP3    H113770   4.135   3.269   3.752  0.8824  0.6552 -0.9773
 4602TIP3    H213771   4.196   3.135   3.786  1.3559  0.6171 -1.9460
 4603TIP3   OH213772   6.529   3.696   3.700  0.4734 -0.1509 -0.1860
 4603TIP3    H113773   6.621   3.683   3.722  0.3706  1.1868  1.1480
 4603TIP3    H213774   6.527   3.781   3.656 -0.3195  0.5512  1.1772
 4604TIP3   OH213775   4.717   1.113   1.831 -0.4159 -0.0160  0.1241
 4604TIP3    H113776   4.810   1.115   1.853 -0.2483 -0.5251 -0.5292
 4604TIP3    H213777   4.702   1.026   1.794 -1.2507 -0.0986  0.6273
 4605TIP3   OH213778   6.398   2.573   1.220  0.0722  0.2691  0.5686
 4605TIP3    H113779   6.448   2.566   1.139  0.6810  1.0671  0.8584
 4605TIP3    H213780   6.433   2.651   1.264 -0.0196 -0.3296  1.7559
 4606TIP3   OH213781   5.346   0.525   4.205  0.3065  0.5217 -0.4808
 4606TIP3    H113782   5.289   0.490   4.273 -1.0621  0.5670 -1.5540
 4606TIP3    H213783   5.286   0.561   4.140  1.5630  0.4115 -1.7525
 4607TIP3   OH213784   2.123   2.519   4.585  0.4195  0.4735 -0.7051
 4607TIP3    H113785   2.188   2.520   4.656  1.3956 -3.0651 -1.3590
 4607TIP3    H213786   2.041   2.543   4.628  0.9971 -1.4362  1.6818
 4608TIP3   OH213787   4.389   1.375   0.760 -0.4299 -0.3743 -0.2053
 4608TIP3    H113788   4.418   1.465   0.777  2.0254 -1.0228 -0.5268
 4608TIP3    H213789   4.342   1.350   0.840  1.1185  0.3803  1.0210
 4609TIP3   OH213790   0.376   6.496   4.546  0.0620 -0.3729  0.1147
 4609TIP3    H113791   0.461   6.528   4.573  0.3994 -0.5796 -0.6625
 4609TIP3    H213792   0.313   6.547   4.597  0.5425  1.9483 -1.4712
 4610TIP3   OH213793   0.505   6.387   2.068  0.0485  0.4129 -0.1325
 4610TIP3    H113794   0.540   6.463   2.114  1.5604  0.9879 -2.0993
 4610TIP3    H213795   0.526   6.403   1.976 -2.1411 -1.0466 -0.9653
 4611TIP3   OH213796   4.960   4.827   0.905  0.4413  0.2021  0.0650
 4611TIP3    H113797   5.019   4.786   0.968  1.2454 -1.0822 -1.4617
 4611TIP3    H213798   4.929   4.755   0.850 -1.3945  1.0585 -0.1346
 4612TIP3   OH213799   6.484   0.853   2.116  0.3792  0.2420 -0.2906
 4612TIP3    H113800   6.528   0.795   2.053 -1.0605 -0.6215 -0.5303
 4612TIP3    H213801   6.496   0.810   2.200 -1.1571 -0.7286 -0.5405
 4613TIP3   OH213802   6.344   3.950   2.711 -0.2683 -0.2535 -0.1793
 4613TIP3    H113803   6.328   3.858   2.688 -0.7111 -0.1116 -0.4443
 4613TIP3    H213804   6.337   3.952   2.807 -3.4654  0.0689 -0.3035
 4614TIP3   OH213805   2.809   0.179   3.732 -0.2894 -0.3444 -0.4334
 4614TIP3    H113806   2.808   0.179   3.828 -0.5911  0.0621 -0.4375
 4614TIP3    H213807   2.744   0.112   3.708 -0.8581  0.1698 -0.3577
 4615TIP3   OH213808   0.129   6.717   1.913 -0.8377 -0.1669  0.2840
 4615TIP3    H113809   0.157   6.628   1.892 -0.8163 -0.0004 -0.4471
 4615TIP3    H213810   0.167   6.771   1.843  1.3233  0.8139  2.1077
 4616TIP3   OH213811   3.898   6.089   0.403 -0.0476 -0.6446  0.3734
 4616TIP3    H113812   3.985   6.051   0.414 -0.8791 -3.1267 -0.9090
 4616TIP3    H213813   3.915   6.179   0.375  2.1795 -1.6406 -1.8484
 4617TIP3   OH213814   2.135   1.298   4.043 -0.1569  0.1974  0.5284
 4617TIP3    H113815   2.187   1.375   4.023  2.3458 -1.5813 -0.2814
 4617TIP3    H213816   2.148   1.283   4.136  1.8320 -0.8558  0.1398
 4618TIP3   OH213817   3.309   2.462   4.241  0.5088 -0.1536  0.5591
 4618TIP3    H113818   3.220   2.436   4.217  0.0882  0.4854  1.3400
 4618TIP3    H213819   3.341   2.512   4.166  0.0651 -0.0711  0.4192
 4619TIP3   OH213820   1.391   0.322   4.792 -0.2871 -0.4055 -0.1168
 4619TIP3    H113821   1.347   0.397   4.833  0.3335  0.4112 -0.9052
 4619TIP3    H213822   1.339   0.247   4.820 -1.0480  0.3278  0.5390
 4620TIP3   OH213823   0.780   4.356   5.292  0.5212  0.1467  0.6017
 4620TIP3    H113824   0.867   4.395   5.297  0.6296 -0.0235  0.1326
 4620TIP3    H213825   0.764   4.345   5.198 -1.7169  3.9424  0.3486
 4621TIP3   OH213826   6.372   6.556   4.181  0.4767 -0.6724  0.6297
 4621TIP3    H113827   6.395   6.537   4.271  0.3464 -0.8450  0.6266
 4621TIP3    H213828   6.302   6.621   4.188  0.8766 -0.2349  0.6412
 4622TIP3   OH213829   4.613   0.189   3.535  0.1968  0.0888 -0.2041
 4622TIP3    H113830   4.683   0.238   3.493 -0.2083  1.3538  0.5481
 4622TIP3    H213831   4.635   0.097   3.519  1.7542  0.4713 -0.3919
 4623TIP3   OH213832   4.216   1.708   1.130  0.8136  0.0601 -0.0724
 4623TIP3    H113833   4.144   1.768   1.150 -0.5571 -1.1853 -0.9757
 4623TIP3    H213834   4.251   1.738   1.046 -0.4660 -0.8514 -0.9793
 4624TIP3   OH213835   1.821   1.084   4.770  0.2633  0.3196 -0.2153
 4624TIP3    H113836   1.829   0.990   4.759 -0.7403  0.2050 -0.0447
 4624TIP3    H213837   1.762   1.112   4.700 -2.3873  0.2622  1.8627
 4625TIP3   OH213838   6.135   2.674   3.491  0.2813  0.4109  0.5134
 4625TIP3    H113839   6.198   2.652   3.422 -1.2504 -1.1137 -0.4669
 4625TIP3    H213840   6.119   2.768   3.481 -0.4446  0.0961 -1.6972
 4626TIP3   OH213841  -0.006   4.396   3.042  0.3089 -0.4577 -0.5920
 4626TIP3    H113842   0.054   4.321   3.041 -0.5057 -1.1415  0.1005
 4626TIP3    H213843  -0.044   4.398   2.954 -1.3171 -2.2693 -0.0115
 4627TIP3   OH213844   6.429   1.476   3.966 -0.4157 -0.1033 -0.3573
 4627TIP3    H113845   6.487   1.454   3.894 -0.3420  0.8845 -0.6164
 4627TIP3    H213846   6.476   1.447   4.044 -0.4850 -1.1472 -0.6864
 4628TIP3   OH213847   3.885   2.630   2.560 -0.0337 -0.0755  0.4166
 4628TIP3    H113848   3.934   2.616   2.479  0.0698  2.1971  0.0065
 4628TIP3    H213849   3.945   2.680   2.616 -0.3066 -1.1202  1.6993
 4629TIP3   OH213850   5.646   6.356   4.057 -0.3917 -0.3102 -0.2454
 4629TIP3    H113851   5.725   6.396   4.023 -1.5739  1.5231 -1.0141
 4629TIP3    H213852   5.641   6.271   4.013  1.0379 -0.3871 -0.2905
 4630TIP3   OH213853   2.151   1.273   4.322 -0.0755 -0.3834 -0.0608
 4630TIP3    H113854   2.062   1.258   4.353 -0.3314  0.7396 -0.2130
 4630TIP3    H213855   2.203   1.204   4.363 -0.5616  0.4731  2.1040
 4631TIP3   OH213856   1.081   1.291   2.407  0.1604 -0.1306 -0.0852
 4631TIP3    H113857   1.149   1.226   2.392  1.0291  0.6513  0.3608
 4631TIP3    H213858   1.114   1.344   2.480 -1.7189 -0.8063  1.3489
 4632TIP3   OH213859   5.160   5.560   2.493  0.1407  0.7590  0.1313
 4632TIP3    H113860   5.150   5.654   2.476 -0.9855  0.6780  0.2388
 4632TIP3    H213861   5.246   5.552   2.533  0.6744  1.6127 -0.7994
 4633TIP3   OH213862   4.753   5.663   1.940  0.1609 -1.0070  0.1295
 4633TIP3    H113863   4.683   5.641   2.002  0.3669 -0.0433  0.7306
 4633TIP3    H213864   4.792   5.743   1.976  1.3116 -1.3074 -0.4108
 4634TIP3   OH213865   2.963   4.349   3.886 -0.4872  0.0036 -0.0667
 4634TIP3    H113866   3.015   4.316   3.959 -0.5538  0.7049  0.3148
 4634TIP3    H213867   3.019   4.416   3.846 -0.7756  0.1918 -0.1550
 4635TIP3   OH213868   4.796   0.407   4.997 -0.5850  0.0085  0.4880
 4635TIP3    H113869   4.833   0.492   5.019  1.3157 -0.6734  0.0502
 4635TIP3    H213870   4.703   0.425   4.979 -0.0675  2.1019 -0.2771
 4636TIP3   OH213871   3.129   3.097   3.732  0.2901  0.3764 -0.1271
 4636TIP3    H113872   3.067   3.063   3.668  1.1847 -2.6115  0.4241
 4636TIP3    H213873   3.130   3.191   3.718 -0.5627 -0.0186 -3.5335
 4637TIP3   OH213874   3.034   6.477   3.588 -0.0220 -0.1822  0.2924
 4637TIP3    H113875   2.967   6.410   3.570  1.3944 -1.0854 -2.0635
 4637TIP3    H213876   3.116   6.428   3.595  0.6837  1.0847  1.2896
 4638TIP3   OH213877   0.311   5.033   5.395 -0.0702  0.6560 -0.3773
 4638TIP3    H113878   0.250   5.100   5.425  0.3196  1.4607 -1.3423
 4638TIP3    H213879   0.291   5.021   5.302 -0.9539 -1.4681  0.0288
 4639TIP3   OH213880   0.219   0.717   0.166 -0.2972  0.4376  0.1964
 4639TIP3    H113881   0.313   0.700   0.158 -0.3499 -0.2253  0.8219
 4639TIP3    H213882   0.182   0.683   0.085  0.0030  0.6708 -0.0389
 4640TIP3   OH213883   0.776   2.959   1.428  0.0789  0.1285  0.1415
 4640TIP3    H113884   0.719   3.007   1.369 -0.7443 -1.1838 -0.1476
 4640TIP3    H213885   0.719   2.929   1.498  1.1950  2.6172  2.3386
 4641TIP3   OH213886   5.480   2.058   2.578 -0.4371 -0.0374  0.4317
 4641TIP3    H113887   5.570   2.026   2.578 -0.4448 -0.0716 -0.4308
 4641TIP3    H213888   5.461   2.078   2.486 -1.7334 -1.2110  0.4148
 4642TIP3   OH213889   1.785   2.596   0.764 -0.2640  0.0514  0.5756
 4642TIP3    H113890   1.876   2.598   0.793 -0.8239 -1.8782  2.7019
 4642TIP3    H213891   1.737   2.644   0.831 -0.8421  1.4409 -0.7500
 4643TIP3   OH213892   6.038   0.404   4.790 -0.5865  0.4553  0.3744
 4643TIP3    H113893   5.948   0.406   4.819 -0.5213  0.3587  0.5843
 4643TIP3    H213894   6.063   0.312   4.796  0.0330  0.6957  1.8709
 4644TIP3   OH213895   4.148   2.210   3.308 -0.0622  0.0431 -0.0442
 4644TIP3    H113896   4.185   2.298   3.316  1.1163 -0.5056  0.9098
 4644TIP3    H213897   4.060   2.224   3.273  0.4180  1.5283 -0.7511
 4645TIP3   OH213898   4.476   2.655   2.744  0.8243 -0.0590 -0.2008
 4645TIP3    H113899   4.556   2.701   2.717  2.0271 -1.3096  1.0901
 4645TIP3    H213900   4.506   2.590   2.807 -0.8298 -2.4470 -1.7301
 4646TIP3   OH213901   6.429   2.024   0.580  0.1946 -0.2001  0.0789
 4646TIP3    H113902   6.361   2.081   0.543 -0.6843  0.1937  2.1738
 4646TIP3    H213903   6.456   1.968   0.507 -1.5350  0.4474 -1.1143
 4647TIP3   OH213904   3.213   1.609   1.782 -0.7102  0.3592 -0.0328
 4647TIP3    H113905   3.141   1.583   1.840 -1.3254  0.2085 -0.8352
 4647TIP3    H213906   3.170   1.624   1.697  0.1994  0.3306 -0.5085
 4648TIP3   OH213907   1.245   1.222   2.793 -0.0644  0.1907 -0.0012
 4648TIP3    H113908   1.329   1.259   2.766 -0.0340  0.2989  0.2432
 4648TIP3    H213909   1.257   1.127   2.783  0.3337  0.1575  0.7358
 4649TIP3   OH213910   2.472   1.856   1.582  0.5780 -0.2579  0.9629
 4649TIP3    H113911   2.395   1.844   1.638 -0.1177 -1.0418 -0.1203
 4649TIP3    H213912   2.515   1.770   1.581  0.9175 -0.0880  0.7719
 4650TIP3   OH213913   3.554   2.138   0.659  0.9135 -0.7365 -0.1763
 4650TIP3    H113914   3.649   2.144   0.674  1.0210 -1.3098 -0.6129
 4650TIP3    H213915   3.518   2.211   0.709  1.7236  0.4567 -1.2654
 4651TIP3   OH213916   1.164   2.543   5.520  0.2116  0.1732  0.0404
 4651TIP3    H113917   1.102   2.530   5.448 -0.6368  3.7227 -0.0870
 4651TIP3    H213918   1.111   2.532   5.600 -0.3865  2.0030 -0.0537
 4652TIP3   OH213919   4.691   3.897   2.598  0.5530 -0.2841 -0.4054
 4652TIP3    H113920   4.696   3.899   2.694  0.9968 -0.1520 -0.4289
 4652TIP3    H213921   4.650   3.814   2.578 -1.6481  0.6426 -0.0162
 4653TIP3   OH213922   6.976   4.008   4.857  0.9440  0.1627 -0.2561
 4653TIP3    H113923   6.899   4.056   4.890  0.4353 -0.1578 -0.9501
 4653TIP3    H213924   6.943   3.920   4.840  1.2420  0.2475 -1.3706
 4654TIP3   OH213925   1.641   0.355   5.507 -0.0381  0.6701  0.0171
 4654TIP3    H113926   1.621   0.271   5.548  0.0171  0.2464 -0.8084
 4654TIP3    H213927   1.636   0.338   5.413  2.7197  0.8810 -0.2490
 4655TIP3   OH213928   0.903   5.460   5.768 -0.1852  0.9437  0.1273
 4655TIP3    H113929   0.849   5.393   5.727 -2.2820  1.9342  1.1070
 4655TIP3    H213930   0.992   5.437   5.744 -0.7734 -2.2541  0.5193
 4656TIP3   OH213931   2.533   2.667   4.085 -0.3991  0.3463  0.4807
 4656TIP3    H113932   2.475   2.698   4.016 -2.0786 -0.0874  1.6426
 4656TIP3    H213933   2.619   2.662   4.044 -1.3751 -0.0760 -1.6081
 4657TIP3   OH213934   3.441   4.564   3.514 -0.1712 -0.0273 -0.1227
 4657TIP3    H113935   3.531   4.530   3.511 -0.1687  0.0275 -1.0607
 4657TIP3    H213936   3.449   4.649   3.556  0.3294  0.2744 -0.7982
 4658TIP3   OH213937   3.480   4.801   2.351 -0.7039 -0.6108  0.3179
 4658TIP3    H113938   3.473   4.747   2.272 -0.9329  0.6737 -0.5617
 4658TIP3    H213939   3.417   4.871   2.338  2.9287  2.8396 -1.0258
 4659TIP3   OH213940   4.969   0.317   4.689 -0.3336 -0.0089  0.4272
 4659TIP3    H113941   4.992   0.232   4.725  1.4292  0.4261  0.4397
 4659TIP3    H213942   5.009   0.380   4.749  2.2313  0.7534 -1.8391
 4660TIP3   OH213943   0.547   2.872   1.571  0.1858 -0.2597 -0.8580
 4660TIP3    H113944   0.504   2.870   1.486 -1.8700 -1.6422  0.1105
 4660TIP3    H213945   0.554   2.779   1.596 -1.9270  0.1172  1.6467
 4661TIP3   OH213946   5.113   1.577   3.125 -0.7733 -0.4076 -0.2192
 4661TIP3    H113947   5.065   1.650   3.166 -2.9334 -1.3105 -1.0299
 4661TIP3    H213948   5.082   1.499   3.171  2.4469 -0.8381  1.5176
 4662TIP3   OH213949   2.700   3.822   5.130 -0.4952  0.1042 -0.2846
 4662TIP3    H113950   2.679   3.786   5.044 -0.7673 -0.2232 -0.0812
 4662TIP3    H213951   2.624   3.801   5.184 -0.2369  0.1304  0.0899
 4663TIP3   OH213952   1.634   6.079   2.378  0.2414 -0.6604  0.0146
 4663TIP3    H113953   1.715   6.058   2.424  1.8162  2.9679 -0.6976
 4663TIP3    H213954   1.616   6.170   2.403 -1.5681 -0.1874 -2.6344
 4664TIP3   OH213955   4.483   3.312   1.979  0.2503  0.5157  0.0737
 4664TIP3    H113956   4.450   3.223   1.981 -0.2526  0.7062  0.5156
 4664TIP3    H213957   4.418   3.363   2.028 -0.2411  1.3830 -1.4156
 4665TIP3   OH213958   0.772   1.798   2.863 -0.1052  0.0586 -0.4780
 4665TIP3    H113959   0.704   1.842   2.914 -0.7537 -3.8788  2.5608
 4665TIP3    H213960   0.850   1.802   2.919  0.4343 -0.6892 -1.1541
 4666TIP3   OH213961   4.575   5.084   3.830 -0.2773  0.1406 -0.1735
 4666TIP3    H113962   4.610   5.170   3.853  2.9476 -0.5178 -2.0904
 4666TIP3    H213963   4.630   5.022   3.878 -1.8592 -0.9409  0.3269
 4667TIP3   OH213964   5.699   4.694   2.653  0.2928  0.1040  0.0316
 4667TIP3    H113965   5.743   4.699   2.738 -0.9811  0.5022  0.6851
 4667TIP3    H213966   5.671   4.784   2.635  0.6069  0.0325 -0.8434
 4668TIP3   OH213967   5.177   0.610   3.154  0.0046 -0.0422 -0.3724
 4668TIP3    H113968   5.240   0.652   3.095 -0.2137  0.7749 -0.0367
 4668TIP3    H213969   5.098   0.599   3.101 -0.0885  0.4013 -0.3290
 4669TIP3   OH213970   3.816   2.334   1.514  0.3525  0.1889 -0.2379
 4669TIP3    H113971   3.762   2.396   1.464 -1.4667  0.0006  1.3788
 4669TIP3    H213972   3.798   2.249   1.474 -2.9211 -0.3435  1.9295
 4670TIP3   OH213973   5.579   3.079   5.709  0.0005  0.8146 -0.1155
 4670TIP3    H113974   5.539   3.068   5.796  0.2984 -0.4869 -0.1351
 4670TIP3    H213975   5.611   3.170   5.709  1.3650  0.3794  1.7148
 4671TIP3   OH213976   4.912   3.309   3.094 -0.3974  0.3560  0.0118
 4671TIP3    H113977   4.925   3.226   3.139  0.5919  0.5163  0.0420
 4671TIP3    H213978   4.821   3.332   3.112 -0.6059 -0.5876  0.2165
 4672TIP3   OH213979   0.984   1.106   2.616  0.1093 -0.2047  0.0717
 4672TIP3    H113980   0.962   1.053   2.693  1.2525 -0.9946 -0.1158
 4672TIP3    H213981   0.989   1.196   2.650 -0.7392 -0.3512  0.6286
 4673TIP3   OH213982   0.416   2.875   2.845  0.3160 -0.0655 -0.1080
 4673TIP3    H113983   0.444   2.936   2.913  2.0871 -1.6600  0.6894
 4673TIP3    H213984   0.424   2.925   2.764  1.1292  0.9531  0.5739
 4674TIP3   OH213985   0.252   3.614   2.877 -0.5570 -0.0043  0.2085
 4674TIP3    H113986   0.262   3.575   2.790  1.2841  1.7277 -0.4215
 4674TIP3    H213987   0.159   3.601   2.898 -0.9007 -1.0585 -1.7038
 4675TIP3   OH213988   0.428   1.302   0.147 -0.1126 -0.0121 -0.0841
 4675TIP3    H113989   0.500   1.251   0.183 -1.0663 -0.5555  1.0987
 4675TIP3    H213990   0.471   1.372   0.097  1.2199 -0.3138  0.6045
 4676TIP3   OH213991   1.943   0.915   4.459 -0.0099  0.7410  0.0873
 4676TIP3    H113992   1.889   0.843   4.426 -0.2111  0.4913  0.9361
 4676TIP3    H213993   1.958   0.893   4.551  0.7313  1.3018  0.1109
 4677TIP3   OH213994   6.495   5.862   3.502  0.1772  0.5997 -0.1357
 4677TIP3    H113995   6.500   5.952   3.470  1.5080  0.9695  1.0429
 4677TIP3    H213996   6.428   5.864   3.570  2.8714  1.6676  2.6902
 4678TIP3   OH213997   4.642   0.929   2.828 -0.2724  0.6957 -0.2725
 4678TIP3    H113998   4.647   0.916   2.734  0.3964  0.4495 -0.2095
 4678TIP3    H213999   4.730   0.907   2.860 -1.2340 -2.1647  0.7548
 4679TIP3   OH214000   1.563   6.233   1.012 -0.3064  0.2061  0.1880
 4679TIP3    H114001   1.588   6.231   0.920 -1.6035 -0.2922 -0.1795
 4679TIP3    H214002   1.573   6.143   1.042 -0.1505  0.3118  0.4554
 4680TIP3   OH214003   2.591   0.941   3.362  0.4238  0.1815  0.0118
 4680TIP3    H114004   2.547   0.865   3.324 -0.3579  0.5416  0.1820
 4680TIP3    H214005   2.546   0.956   3.445 -3.0169  3.9147 -2.2168
 4681TIP3   OH214006   0.376   5.740   1.730  0.5340 -0.1462 -0.1932
 4681TIP3    H114007   0.434   5.781   1.794  0.0759  1.0553 -0.5128
 4681TIP3    H214008   0.288   5.751   1.767 -0.0330  2.8128 -2.0584
 4682TIP3   OH214009   6.209   4.540   4.323  0.2667  0.5422  0.7390
 4682TIP3    H114010   6.114   4.539   4.329 -0.0054  2.1690 -1.8764
 4682TIP3    H214011   6.228   4.529   4.230  2.6921 -0.3166  1.2382
 4683TIP3   OH214012   2.907   6.234   5.268  0.0829 -0.0421  0.2969
 4683TIP3    H114013   2.865   6.166   5.215  2.3232  0.5813 -2.4589
 4683TIP3    H214014   2.891   6.315   5.220  2.0447  0.5908  0.6469
 4684TIP3   OH214015   0.227   3.358   3.987  0.6513 -0.6023  0.1525
 4684TIP3    H114016   0.203   3.408   4.065  0.2469 -0.7120  0.0995
 4684TIP3    H214017   0.287   3.415   3.939 -0.3087  0.0991 -0.2319
 4685TIP3   OH214018   6.600   1.467   1.713  0.3500 -0.3585 -0.0964
 4685TIP3    H114019   6.568   1.540   1.661  0.0280 -0.3499  0.1137
 4685TIP3    H214020   6.673   1.432   1.662 -2.2967 -2.7890 -2.5661
 4686TIP3   OH214021   2.664   2.955   1.268  0.4458 -0.5543 -0.0445
 4686TIP3    H114022   2.643   2.968   1.360 -0.5956  1.2061 -0.4702
 4686TIP3    H214023   2.646   2.863   1.251 -1.1304 -0.4814  1.0872
 4687TIP3   OH214024   1.275   5.670   3.967  0.2060  0.5018  1.1045
 4687TIP3    H114025   1.221   5.651   4.045  0.5135  0.1791  1.2436
 4687TIP3    H214026   1.343   5.729   3.998 -0.4774  1.4992  0.7698
 4688TIP3   OH214027   3.812   2.083   1.410 -0.0844  0.3288  0.3597
 4688TIP3    H114028   3.885   2.043   1.459  0.9057  0.1341 -1.2189
 4688TIP3    H214029   3.742   2.018   1.413  0.2039  0.0419  0.9340
 4689TIP3   OH214030   1.459   6.727   3.822 -0.2013  0.3517 -0.1925
 4689TIP3    H114031   1.470   6.680   3.905  0.1806  2.5184  1.0605
 4689TIP3    H214032   1.541   6.775   3.811 -0.7085  1.0204 -1.2052
 4690TIP3   OH214033   0.261   2.085   3.084 -0.1973  0.1956  0.0314
 4690TIP3    H114034   0.288   2.066   3.173  0.9102 -0.1135 -0.3530
 4690TIP3    H214035   0.238   2.178   3.085  1.1334  0.5364  0.3402
 4691TIP3   OH214036   2.497   3.816   4.526 -0.2210  1.1601  0.0377
 4691TIP3    H114037   2.466   3.753   4.592 -0.9490  0.2109 -1.1669
 4691TIP3    H214038   2.473   3.902   4.563 -4.0095  0.5481 -0.5214
 4692TIP3   OH214039   0.264   0.668   2.769  0.3356 -1.0633  0.6461
 4692TIP3    H114040   0.234   0.736   2.708 -0.9311 -1.7592  0.4582
 4692TIP3    H214041   0.212   0.682   2.847  0.5652 -1.3911  0.8591
 4693TIP3   OH214042   6.119   4.693   5.523  0.4925 -0.0101  0.2247
 4693TIP3    H114043   6.162   4.743   5.454  1.5672  0.4506  1.2124
 4693TIP3    H214044   6.027   4.719   5.517  0.9219  1.6114  0.3114
 4694TIP3   OH214045   0.614   1.731   4.014  0.5240  0.5630  0.1521
 4694TIP3    H114046   0.621   1.641   4.046 -1.6446  1.1149  2.4580
 4694TIP3    H214047   0.679   1.779   4.066  1.6844  0.3989 -1.0816
 4695TIP3   OH214048   0.710   6.279   5.094 -0.0989 -0.4818  0.3643
 4695TIP3    H114049   0.768   6.222   5.146  1.4812  0.4674 -0.2878
 4695TIP3    H214050   0.724   6.366   5.131  1.7897  0.3980 -2.1410
 4696TIP3   OH214051   3.479   4.492   4.105 -0.7069 -1.1139 -0.1205
 4696TIP3    H114052   3.541   4.465   4.173 -2.2247  1.5674  2.5580
 4696TIP3    H214053   3.521   4.465   4.023  2.2385 -2.6492  1.6984
 4697TIP3   OH214054   0.332   2.577   4.581 -0.2552  0.1515 -0.0348
 4697TIP3    H114055   0.403   2.549   4.523 -1.5671 -0.1604 -1.5816
 4697TIP3    H214056   0.356   2.543   4.667  0.4685 -1.8025 -0.9431
 4698TIP3   OH214057   1.191   3.162   2.447 -0.4900  0.2549 -0.4476
 4698TIP3    H114058   1.230   3.209   2.373 -2.5399  1.8626 -0.6112
 4698TIP3    H214059   1.210   3.217   2.523  0.6351 -0.8115  0.0676
 4699TIP3   OH214060   0.262   0.786   4.860 -0.1125 -0.0365  0.0347
 4699TIP3    H114061   0.343   0.832   4.838 -0.5102 -0.1698 -1.8374
 4699TIP3    H214062   0.252   0.721   4.791 -0.0815 -2.3425  2.0596
 4700TIP3   OH214063   1.306   4.888   0.130 -0.5133  0.1882 -0.3914
 4700TIP3    H114064   1.216   4.894   0.160 -0.3719  0.2802  0.0257
 4700TIP3    H214065   1.324   4.973   0.089 -0.3179  0.5257  0.3813
 4701TIP3   OH214066   7.094   1.834   0.791 -0.4169  0.3313  0.0827
 4701TIP3    H114067   7.007   1.840   0.832 -0.3320 -0.6751  0.4386
 4701TIP3    H214068   7.076   1.819   0.698 -0.6551 -1.3154  0.3716
 4702TIP3   OH214069   1.719   6.577   1.390  0.5984 -0.0691  0.7737
 4702TIP3    H114070   1.676   6.614   1.312  0.9921  0.7674  0.9383
 4702TIP3    H214071   1.693   6.637   1.461  0.3578 -0.7445  1.2621
 4703TIP3   OH214072   3.275   1.930   1.257  0.1220 -0.0958 -0.3982
 4703TIP3    H114073   3.292   2.018   1.224  2.2203  0.3956  1.7093
 4703TIP3    H214074   3.205   1.941   1.322  2.6270  0.7925  2.3898
 4704TIP3   OH214075   2.823   2.542   3.202 -0.2790 -0.2119 -0.0562
 4704TIP3    H114076   2.859   2.480   3.139  2.0618 -0.1590  1.1420
 4704TIP3    H214077   2.885   2.615   3.203 -2.0332  1.3540 -0.1111
 4705TIP3   OH214078   1.341   1.807   2.032  0.0064 -0.8847 -0.3826
 4705TIP3    H114079   1.270   1.871   2.042  1.8064  1.0931  0.4960
 4705TIP3    H214080   1.348   1.766   2.119 -0.1171 -1.1349 -0.4915
 4706TIP3   OH214081   2.569   4.336   1.282  0.2596  1.0774  0.1084
 4706TIP3    H114082   2.560   4.277   1.207 -1.2116  0.6380  0.5947
 4706TIP3    H214083   2.642   4.300   1.333  0.4478  0.6454 -0.4537
 4707TIP3   OH214084   0.759   1.098   0.491  0.2436  0.1011 -0.6701
 4707TIP3    H114085   0.823   1.168   0.505  0.4730 -0.4137  1.1524
 4707TIP3    H214086   0.706   1.098   0.572  0.5016 -2.0549 -0.4510
 4708TIP3   OH214087   4.004   4.286   1.097  0.1007 -0.2743  0.5746
 4708TIP3    H114088   3.968   4.362   1.142 -0.0874  1.4931 -2.3061
 4708TIP3    H214089   3.931   4.252   1.045  0.2344 -2.3898  1.6575
 4709TIP3   OH214090   0.054   4.275   5.779 -0.3458  0.1966 -0.0775
 4709TIP3    H114091   0.033   4.269   5.686  1.7522  0.7684 -0.6455
 4709TIP3    H214092   0.123   4.210   5.793  0.2989  1.0087  0.7436
 4710TIP3   OH214093   4.158   4.167   4.653  0.1647 -0.3999  0.2115
 4710TIP3    H114094   4.184   4.131   4.738 -0.0697  0.5527  0.6937
 4710TIP3    H214095   4.102   4.099   4.615  0.5639 -0.9911  0.6467
 4711TIP3   OH214096   0.807   6.736   4.777  0.3053  0.2242 -0.3878
 4711TIP3    H114097   0.755   6.800   4.827 -1.1076 -1.4047  0.3418
 4711TIP3    H214098   0.840   6.676   4.844 -0.3135 -1.1041 -1.2485
 4712TIP3   OH214099   0.339   5.201   0.580 -0.1499 -0.2588  0.7082
 4712TIP3    H114100   0.260   5.247   0.551  0.8036 -0.1160 -1.9495
 4712TIP3    H214101   0.356   5.138   0.510  2.0861 -0.2981  1.2245
 4713TIP3   OH214102   4.595   0.629   3.806 -0.0232  0.3064  0.3327
 4713TIP3    H114103   4.645   0.687   3.747  1.5802  1.7045  2.8549
 4713TIP3    H214104   4.622   0.541   3.781  0.4265  0.8278 -1.1414
 4714TIP3   OH214105   0.682   3.728   1.361 -0.1491  0.1942 -0.0778
 4714TIP3    H114106   0.628   3.747   1.284 -0.2116  0.4814  0.0346
 4714TIP3    H214107   0.631   3.762   1.435  0.3159  0.7284  0.0048
 4715TIP3   OH214108   0.748   6.297   4.245 -0.6215  0.4135  0.3112
 4715TIP3    H114109   0.809   6.319   4.315  0.4459 -2.0006  0.2537
 4715TIP3    H214110   0.764   6.362   4.177  1.7191  0.0433  0.4377
 4716TIP3   OH214111   6.818   6.146   2.554 -0.2328  0.1956 -0.0078
 4716TIP3    H114112   6.817   6.241   2.548 -2.0849  0.2616  0.4908
 4716TIP3    H214113   6.841   6.116   2.466 -0.0975  1.1004 -0.2890
 4717TIP3   OH214114   4.217   5.487   4.270 -0.0217 -0.2861 -0.9299
 4717TIP3    H114115   4.133   5.475   4.316 -0.0567 -0.1568 -0.9612
 4717TIP3    H214116   4.217   5.419   4.203  1.1399 -2.1872  0.8468
 4718TIP3   OH214117   4.848   3.120   0.220 -0.5246 -0.2925  0.1464
 4718TIP3    H114118   4.846   3.081   0.307 -1.2310 -1.8227 -0.5192
 4718TIP3    H214119   4.759   3.152   0.206 -0.3422  0.2011  0.0903
 4719TIP3   OH214120   6.053   6.685   5.769  0.0141  0.3182 -0.3094
 4719TIP3    H114121   6.079   6.594   5.785 -2.5458 -1.3177 -4.0401
 4719TIP3    H214122   6.055   6.693   5.674 -1.4315  3.7068 -0.1647
 4720TIP3   OH214123   5.725   0.169   5.139  0.2513  0.3713  0.1738
 4720TIP3    H114124   5.760   0.150   5.226 -1.4276  1.6956  1.2054
 4720TIP3    H214125   5.718   0.264   5.136 -1.2202  0.2679 -0.7758
 4721TIP3   OH214126   3.155   2.588   4.676  0.8151  0.7020 -0.6938
 4721TIP3    H114127   3.203   2.562   4.755  1.5623 -0.9829 -1.6568
 4721TIP3    H214128   3.082   2.527   4.671 -0.6347  2.2883 -0.0798
 4722TIP3   OH214129   4.536   4.075   4.097 -0.0174 -0.2432  0.2710
 4722TIP3    H114130   4.470   4.136   4.063  0.4870  0.3738  0.3755
 4722TIP3    H214131   4.552   4.106   4.186  0.8119 -0.0476  0.0606
 4723TIP3   OH214132   0.863   5.404   3.790 -0.2063 -1.1301  0.6829
 4723TIP3    H114133   0.843   5.380   3.700 -1.4549  1.9923 -0.0125
 4723TIP3    H214134   0.958   5.418   3.791 -0.3875  0.5496 -0.7071
 4724TIP3   OH214135   6.417   0.891   2.713 -0.7176 -0.3482  0.0776
 4724TIP3    H114136   6.495   0.837   2.727  0.0976  0.6584 -0.4829
 4724TIP3    H214137   6.425   0.923   2.623 -1.4846  0.2165  0.2013
 4725TIP3   OH214138   6.456   5.468   4.983 -0.5674  0.5200 -0.4103
 4725TIP3    H114139   6.490   5.380   4.969  0.7194  0.6476  1.6698
 4725TIP3    H214140   6.517   5.525   4.936  0.0310  0.4816  0.3160
 4726TIP3   OH214141   6.678   2.970   3.543 -0.1243 -0.2202  0.1823
 4726TIP3    H114142   6.622   3.048   3.548  0.3469  0.2199 -0.9096
 4726TIP3    H214143   6.672   2.942   3.451 -0.0649 -1.3134  0.5014
 4727TIP3   OH214144   2.588   6.761   5.292  0.0422  0.0698  0.3836
 4727TIP3    H114145   2.676   6.722   5.293 -0.1890 -0.4648  1.1571
 4727TIP3    H214146   2.603   6.853   5.273  0.7636 -0.0572  0.3056
 4728TIP3   OH214147   6.532   5.671   0.265 -0.0272  0.6281  0.2113
 4728TIP3    H114148   6.488   5.586   0.259  1.7309 -0.2897 -0.2000
 4728TIP3    H214149   6.513   5.714   0.182  2.8185 -1.3248 -1.6260
 4729TIP3   OH214150   1.590   5.223   0.036 -0.4286  0.6054 -0.0455
 4729TIP3    H114151   1.650   5.265   0.097 -1.2982  0.0915  1.1944
 4729TIP3    H214152   1.648   5.179  -0.027  0.4850  1.2411  0.3264
 4730TIP3   OH214153   0.097   5.802   4.694 -0.0067 -0.2215  0.0121
 4730TIP3    H114154   0.114   5.885   4.740  0.2865 -1.1433  1.6163
 4730TIP3    H214155   0.007   5.811   4.661  0.4436  1.2139 -0.9456
 4731TIP3   OH214156   5.873   2.316   0.997 -0.1356 -0.3184  0.6313
 4731TIP3    H114157   5.895   2.325   1.090  0.4312 -2.8441  0.8012
 4731TIP3    H214158   5.842   2.226   0.988 -1.2910  0.2380 -1.4351
 4732TIP3   OH214159   3.293   6.479   1.048 -0.2825  0.7100 -0.1114
 4732TIP3    H114160   3.227   6.411   1.063  0.0368  0.7687  1.7518
 4732TIP3    H214161   3.251   6.559   1.080  1.0646  0.5632  2.1798
 4733TIP3   OH214162   0.525   0.271   2.906 -0.2355  0.2401 -0.4724
 4733TIP3    H114163   0.487   0.231   2.984  1.3796  1.6908  1.1360
 4733TIP3    H214164   0.458   0.333   2.876 -0.9082 -0.4066 -0.3359
 4734TIP3   OH214165   2.304   5.722   1.488 -0.1342  0.3583 -0.0085
 4734TIP3    H114166   2.236   5.658   1.465  0.2847 -0.6203  1.3169
 4734TIP3    H214167   2.385   5.671   1.486  0.1635  0.7301  1.4175
 4735TIP3   OH214168   1.770   3.534   0.600 -0.2328 -0.4640  0.7179
 4735TIP3    H114169   1.731   3.454   0.635 -1.5784 -0.1808 -0.0649
 4735TIP3    H214170   1.706   3.603   0.620  0.1018  0.1105 -0.1344
 4736TIP3   OH214171   3.548   2.308   3.911 -0.2470  0.2272 -0.2056
 4736TIP3    H114172   3.459   2.341   3.921 -0.4131  0.7471 -2.8412
 4736TIP3    H214173   3.537   2.224   3.865  0.6229  0.1991 -0.3737
 4737TIP3   OH214174   5.394   5.491   1.217 -0.5490 -0.7404 -0.0520
 4737TIP3    H114175   5.443   5.539   1.150 -1.1038 -1.2541 -0.8487
 4737TIP3    H214176   5.404   5.399   1.192 -1.2548 -0.8970  0.2295
 4738TIP3   OH214177   3.895   0.865   5.307  0.4567  0.2076  0.0483
 4738TIP3    H114178   3.982   0.828   5.294  0.3725  0.1540 -0.3732
 4738TIP3    H214179   3.896   0.946   5.256  0.6238  0.7660  0.9186
 4739TIP3   OH214180   1.862   0.930   3.137 -0.0824 -0.1124 -0.8563
 4739TIP3    H114181   1.824   0.999   3.191  0.6608  0.7727 -1.4482
 4739TIP3    H214182   1.800   0.857   3.146 -0.3324  0.2425  0.6180
 4740TIP3   OH214183   4.226   3.486   0.361  0.4271  0.4675  0.3447
 4740TIP3    H114184   4.222   3.410   0.304  1.9937 -0.0349  0.8418
 4740TIP3    H214185   4.135   3.504   0.386  0.0966 -1.7870  0.9243
 4741TIP3   OH214186   5.500   2.424   2.611 -0.0915  0.3844 -0.2012
 4741TIP3    H114187   5.413   2.388   2.592  0.3501 -1.3973  0.8478
 4741TIP3    H214188   5.508   2.501   2.555 -1.8026 -0.2087 -1.3233
 4742TIP3   OH214189   5.408   0.182   5.555  0.2361  0.0656  0.1808
 4742TIP3    H114190   5.480   0.245   5.552  1.6140 -1.4568 -0.7850
 4742TIP3    H214191   5.359   0.199   5.474 -0.9441  1.5222  1.1382
 4743TIP3   OH214192   6.016   1.998   2.710  0.2339 -0.1790 -0.0107
 4743TIP3    H114193   6.035   2.015   2.802 -0.3280  0.2387  0.0348
 4743TIP3    H214194   6.097   1.960   2.675  0.8719  0.8221  0.3507
 4744TIP3   OH214195   1.815   6.729   0.279  0.4283 -0.6815 -0.2933
 4744TIP3    H114196   1.823   6.682   0.362 -2.0111 -0.5959  0.0402
 4744TIP3    H214197   1.835   6.820   0.300  2.0018 -0.9868 -0.3047
 4745TIP3   OH214198   0.691   2.425   1.074 -0.3171  0.3210  0.0353
 4745TIP3    H114199   0.633   2.351   1.093 -0.7182  0.6257  0.0329
 4745TIP3    H214200   0.722   2.454   1.160  0.5331 -0.3880 -0.0236
 4746TIP3   OH214201   1.562   0.840   3.545  0.0192 -0.3162  0.5513
 4746TIP3    H114202   1.644   0.887   3.561  0.9162 -0.3255 -3.0638
 4746TIP3    H214203   1.494   0.908   3.548  0.8060  0.5745 -0.8115
 4747TIP3   OH214204   0.659   0.686   2.458  0.0891  0.1555  0.4323
 4747TIP3    H114205   0.736   0.629   2.452  0.2598  0.5320 -1.7348
 4747TIP3    H214206   0.589   0.636   2.415 -0.6189  0.2461  1.4531
 4748TIP3   OH214207   1.306   3.548   5.703 -0.1202  0.2760  0.4811
 4748TIP3    H114208   1.269   3.547   5.791 -1.6701 -0.6623 -0.1490
 4748TIP3    H214209   1.315   3.456   5.679 -0.8418  0.5092 -0.7823
 4749TIP3   OH214210   2.296   2.369   3.998  0.2290 -0.0833  0.1163
 4749TIP3    H114211   2.328   2.313   4.068  0.8662 -0.2231 -0.2777
 4749TIP3    H214212   2.205   2.387   4.021  0.5020  0.0996  1.1251
 4750TIP3   OH214213   4.996   3.452   4.302 -0.0137 -0.6866 -0.1318
 4750TIP3    H114214   5.018   3.502   4.381  1.8467 -0.5355 -0.7035
 4750TIP3    H214215   5.018   3.511   4.230 -1.0974 -1.0607 -0.7899
 4751TIP3   OH214216   3.300   3.406   5.887 -0.0303 -0.2428 -0.3186
 4751TIP3    H114217   3.226   3.466   5.893  0.5068  0.3452  1.0400
 4751TIP3    H214218   3.267   3.332   5.837 -1.6268 -0.1182  0.4882
 4752TIP3   OH214219   5.175   3.593   4.441  0.0545 -0.0179  0.1366
 4752TIP3    H114220   5.230   3.516   4.453 -1.9489 -1.4600  0.5041
 4752TIP3    H214221   5.114   3.591   4.515 -0.7645  1.3003 -0.4603
 4753TIP3   OH214222   6.248   2.930   2.445  0.1561 -0.0618 -0.4176
 4753TIP3    H114223   6.281   3.019   2.433 -2.6607  0.9886 -1.2491
 4753TIP3    H214224   6.244   2.893   2.357 -2.5059  0.5639 -0.6288
 4754TIP3   OH214225   5.640   0.708   5.070  0.2543 -0.1009 -0.4917
 4754TIP3    H114226   5.591   0.789   5.054  1.2701  0.4535 -0.8594
 4754TIP3    H214227   5.724   0.722   5.026  0.0261 -1.8073 -1.5301
 4755TIP3   OH214228   2.496   2.053   5.167 -0.6708 -0.3789 -0.5978
 4755TIP3    H114229   2.461   2.045   5.078  0.2857  1.2431 -1.1797
 4755TIP3    H214230   2.423   2.032   5.224 -1.7182 -0.0314 -1.7710
 4756TIP3   OH214231   1.909   1.183   4.417  0.3373 -0.0417 -0.2347
 4756TIP3    H114232   1.917   1.088   4.431 -0.9190  0.0053  1.1389
 4756TIP3    H214233   1.836   1.192   4.355  1.2909  0.0051 -1.3781
 4757TIP3   OH214234   4.151   1.308   4.176 -0.1375 -0.4029 -0.2810
 4757TIP3    H114235   4.067   1.347   4.153 -0.0360  0.5285  0.8296
 4757TIP3    H214236   4.159   1.321   4.271  1.6783  0.4322 -0.4869
 4758TIP3   OH214237   0.003   5.925   2.163 -0.0200 -0.0024 -0.1644
 4758TIP3    H114238  -0.026   5.891   2.248  0.1876  0.7503  0.2131
 4758TIP3    H214239   0.024   5.847   2.112  0.0779 -0.4592  0.5602
 4759TIP3   OH214240   2.101   5.488   0.535  0.0636  0.5506 -0.5007
 4759TIP3    H114241   2.058   5.533   0.607  1.3906  0.6504  0.2713
 4759TIP3    H214242   2.165   5.430   0.577  1.2042  0.9568 -1.5839
 4760TIP3   OH214243   2.356   6.351   3.685  0.8263  0.2775 -0.4320
 4760TIP3    H114244   2.442   6.363   3.645  0.8231  2.8264  0.1566
 4760TIP3    H214245   2.295   6.394   3.624 -0.0601 -1.4179 -0.8010
 4761TIP3   OH214246   5.697   1.067   2.574  0.4891 -0.4927  0.1389
 4761TIP3    H114247   5.640   0.996   2.606 -0.0054  0.0121  0.3925
 4761TIP3    H214248   5.752   1.025   2.508  1.1223 -1.4394  1.2093
 4762TIP3   OH214249   2.985   2.937   3.427  0.6665  0.1256  0.2447
 4762TIP3    H114250   2.940   2.981   3.500 -0.6493 -2.6508  1.2438
 4762TIP3    H214251   2.963   2.990   3.350 -2.3511  0.2755  1.0804
 4763TIP3   OH214252   6.620   6.315   4.279 -0.7574  0.0987  0.3429
 4763TIP3    H114253   6.663   6.390   4.238 -0.4502 -0.7839 -1.0244
 4763TIP3    H214254   6.547   6.353   4.328 -0.0497  1.3669  0.4488
 4764TIP3   OH214255   6.615   4.169   4.595 -0.1963  0.2827  0.0702
 4764TIP3    H114256   6.587   4.257   4.622 -1.7350  0.0277 -0.5803
 4764TIP3    H214257   6.550   4.142   4.530  1.2947 -0.6034 -1.1258
 4765TIP3   OH214258   5.583   3.177   4.054 -0.1156 -0.7170 -0.4071
 4765TIP3    H114259   5.622   3.262   4.035 -0.1483 -1.5210 -5.4614
 4765TIP3    H214260   5.492   3.185   4.024 -0.1670 -2.4624 -0.8425
 4766TIP3   OH214261   2.084   3.734   1.137 -0.0253 -0.7632 -0.1348
 4766TIP3    H114262   2.001   3.759   1.177  0.8730 -0.4831  1.6354
 4766TIP3    H214263   2.076   3.640   1.121  0.4584 -1.4798  3.1323
 4767TIP3   OH214264   7.053   0.195   5.007 -0.8497 -0.2171  0.7419
 4767TIP3    H114265   7.127   0.225   4.956 -1.0183 -1.1382 -0.0797
 4767TIP3    H214266   6.997   0.272   5.017 -0.3231  0.2120  0.4206
 4768TIP3   OH214267   1.378   4.449   5.071 -0.1668 -0.0459  0.1535
 4768TIP3    H114268   1.407   4.403   5.150 -0.3214  0.5063  0.5348
 4768TIP3    H214269   1.404   4.391   5.000  3.6453  1.1998  0.2766
 4769TIP3   OH214270   3.220   6.506   4.134 -0.2523  0.8062 -0.4397
 4769TIP3    H114271   3.149   6.570   4.127 -2.1715 -1.1015  0.4916
 4769TIP3    H214272   3.228   6.488   4.228  1.8840  1.3455 -0.4576
 4770TIP3   OH214273   0.673   0.493   0.048 -0.2987 -0.0966 -0.0313
 4770TIP3    H114274   0.769   0.499   0.048 -0.3601  1.0324  0.5694
 4770TIP3    H214275   0.647   0.541  -0.031 -0.3881 -0.0442  0.0309
 4771TIP3   OH214276   5.551   3.367   2.257  0.1909 -0.0350  0.1178
 4771TIP3    H114277   5.506   3.287   2.284 -0.1450  0.8741  2.4430
 4771TIP3    H214278   5.634   3.337   2.220 -0.4015 -1.4936 -0.0957
 4772TIP3   OH214279   6.893   0.207   0.210  0.3858  0.1150 -0.3523
 4772TIP3    H114280   6.842   0.170   0.138 -0.0819 -0.6947  0.3721
 4772TIP3    H214281   6.873   0.301   0.209 -2.3159 -0.3540  0.7869
 4773TIP3   OH214282   3.517   1.330   4.073  0.1622  0.0862 -0.1136
 4773TIP3    H114283   3.450   1.356   4.010  0.1176  1.4402  0.4621
 4773TIP3    H214284   3.540   1.241   4.048 -1.1882 -0.0726 -0.8861
 4774TIP3   OH214285   4.050   3.164   1.708 -0.4133 -0.4579 -0.3875
 4774TIP3    H114286   3.970   3.136   1.753  0.0213  0.8643  1.2852
 4774TIP3    H214287   4.077   3.086   1.658 -1.8727 -1.4241  0.2434
 4775TIP3   OH214288   1.214   5.479   4.580 -0.4525  0.2957 -0.1909
 4775TIP3    H114289   1.249   5.543   4.642 -0.7740  0.5882 -0.3069
 4775TIP3    H214290   1.244   5.395   4.613 -4.1673 -0.1117  2.9437
 4776TIP3   OH214291   5.797   2.052   0.897  0.4477  0.0989 -0.1933
 4776TIP3    H114292   5.830   1.968   0.866  1.2936  0.1974  0.4063
 4776TIP3    H214293   5.728   2.030   0.959 -0.1810 -0.1224 -0.9578
 4777TIP3   OH214294   0.488   4.460   5.031  0.0592 -0.2642  0.4640
 4777TIP3    H114295   0.514   4.498   4.947 -1.4435  0.3272  0.2320
 4777TIP3    H214296   0.547   4.385   5.043  1.1838  0.4339 -0.4516
 4778TIP3   OH214297   1.054   5.317   3.490  0.0143 -0.0213  1.0247
 4778TIP3    H114298   1.019   5.356   3.410  0.8178  1.0312  1.1664
 4778TIP3    H214299   1.022   5.227   3.488  0.9242 -0.3504 -1.0427
 4779TIP3   OH214300   4.011   5.028   2.753  0.1639 -0.6397 -0.5162
 4779TIP3    H114301   4.029   5.092   2.822 -1.0801  0.0424 -0.7847
 4779TIP3    H214302   4.097   4.993   2.730  0.6629 -0.5354  1.0318
 4780TIP3   OH214303   2.226   4.364   0.932 -0.4110 -0.2438  0.0232
 4780TIP3    H114304   2.316   4.352   0.960  0.1790 -0.0411 -1.6556
 4780TIP3    H214305   2.174   4.315   0.996  0.8788 -0.4130  0.9811
 4781TIP3   OH214306   4.930   4.593   1.286 -0.1634  0.3375  0.1326
 4781TIP3    H114307   4.896   4.503   1.288 -0.1606  0.3284 -0.3233
 4781TIP3    H214308   4.963   4.607   1.375 -0.8206  0.1384  0.4171
 4782TIP3   OH214309   4.661   6.663   4.599  0.4438 -0.0522  0.4968
 4782TIP3    H114310   4.620   6.581   4.572  0.0838 -0.4435  2.0990
 4782TIP3    H214311   4.742   6.637   4.642  0.1904  0.3895  1.2710
 4783TIP3   OH214312   6.098   0.556   3.780  0.1337  0.1935 -0.0713
 4783TIP3    H114313   6.122   0.645   3.755 -0.2458  0.2499 -0.2438
 4783TIP3    H214314   6.158   0.500   3.730  0.6027  0.3602  0.3008
 4784TIP3   OH214315  -0.005   1.980   2.588 -0.0692 -0.3300  0.0990
 4784TIP3    H114316   0.070   2.006   2.535 -0.4974  0.3482 -0.1902
 4784TIP3    H214317   0.033   1.944   2.668  0.6344 -2.6067 -1.1630
 4785TIP3   OH214318   5.427   6.516   1.995 -0.1601 -0.2298  0.2565
 4785TIP3    H114319   5.500   6.554   1.946 -0.4931  0.5597  0.3550
 4785TIP3    H214320   5.414   6.429   1.957 -0.9118  0.6524 -1.5731
 4786TIP3   OH214321   3.485   1.081   0.986  0.6861  0.2045  0.5242
 4786TIP3    H114322   3.492   1.076   1.082  0.4859 -0.1268  0.5234
 4786TIP3    H214323   3.565   1.126   0.959 -0.0223  1.7943  0.9629
 4787TIP3   OH214324   6.442   0.363   4.938 -0.0865 -0.3532  0.0153
 4787TIP3    H114325   6.507   0.339   5.004  0.1598 -1.2079 -0.5264
 4787TIP3    H214326   6.476   0.328   4.856 -0.6976  0.1484 -0.4650
 4788TIP3   OH214327   0.384   2.899   5.378 -0.7786 -0.0805  0.3039
 4788TIP3    H114328   0.419   2.926   5.294 -0.3157  1.7044  1.0213
 4788TIP3    H214329   0.456   2.853   5.421 -0.0831  1.3379  0.7431
 4789TIP3   OH214330   2.302   1.902   0.325  0.4008  0.3569  1.0370
 4789TIP3    H114331   2.294   1.819   0.277  0.3670  1.0371 -0.1878
 4789TIP3    H214332   2.283   1.880   0.416 -0.8444 -0.7667  0.5310
 4790TIP3   OH214333   4.017   2.522   0.001 -0.4015  0.0577  0.2977
 4790TIP3    H114334   4.069   2.494  -0.074  1.2378  2.3616  0.4722
 4790TIP3    H214335   4.060   2.481   0.076 -1.7545 -1.8529  0.1117
 4791TIP3   OH214336   1.317   4.720   5.797  0.3545  0.8626 -0.0474
 4791TIP3    H114337   1.316   4.815   5.786  1.3094  0.9885  0.7805
 4791TIP3    H214338   1.366   4.705   5.878 -1.0172 -0.2750  0.6177
 4792TIP3   OH214339   6.240   1.017   1.344  0.1985  0.4107  0.2817
 4792TIP3    H114340   6.252   0.990   1.434  1.6270  0.0953  0.0224
 4792TIP3    H214341   6.175   0.957   1.308  0.8320 -0.5114  0.6541
 4793TIP3   OH214342   4.301   3.286   2.937  0.3864 -0.8011  0.1041
 4793TIP3    H114343   4.206   3.284   2.926  0.5037  0.3405 -1.4608
 4793TIP3    H214344   4.336   3.264   2.851  1.5056  1.6253 -0.1480
 4794TIP3   OH214345   4.248   4.123   3.105  0.3243  0.3438  0.7807
 4794TIP3    H114346   4.298   4.204   3.110 -0.0874  0.5593  1.6773
 4794TIP3    H214347   4.261   4.082   3.190 -2.2898  1.2057  1.7069
 4795TIP3   OH214348   2.506   6.688   0.449  0.0718 -0.5734 -0.1555
 4795TIP3    H114349   2.599   6.704   0.465  0.0833  0.0503 -0.7722
 4795TIP3    H214350   2.467   6.775   0.446 -0.5491 -0.8385  0.1975
 4796TIP3   OH214351   6.492   3.244   1.563 -0.2118  0.0600  0.0547
 4796TIP3    H114352   6.545   3.318   1.532 -0.3121  0.1831  0.1787
 4796TIP3    H214353   6.459   3.272   1.648 -1.9292  0.7138 -0.7819
 4797TIP3   OH214354   2.864   6.119   2.016 -0.0018  0.0653 -0.7427
 4797TIP3    H114355   2.891   6.027   2.020 -1.4178 -0.3611 -0.5703
 4797TIP3    H214356   2.832   6.138   2.104 -3.3118 -0.4588 -1.7027
 4798TIP3   OH214357   1.179   2.763   0.273 -0.4136  0.5218 -0.2135
 4798TIP3    H114358   1.248   2.704   0.241 -1.9518 -0.8924 -1.0678
 4798TIP3    H214359   1.108   2.704   0.298 -1.2110  1.9364  0.9421
 4799TIP3   OH214360   6.522   1.738   3.499 -0.2498  0.4122  0.0683
 4799TIP3    H114361   6.512   1.674   3.569  0.0575  0.6464  0.3350
 4799TIP3    H214362   6.458   1.713   3.433  0.0532 -0.3305  0.0464
 4800TIP3   OH214363   0.548   2.792   5.821 -0.7600  0.1197  0.4709
 4800TIP3    H114364   0.463   2.763   5.852 -1.7293  1.7542 -0.5514
 4800TIP3    H214365   0.544   2.887   5.823  0.2756  0.2713 -1.4977
 4801TIP3   OH214366   5.314   5.232   2.353  0.0794 -0.3349  0.5252
 4801TIP3    H114367   5.289   5.322   2.376 -0.3247 -0.5039  0.7687
 4801TIP3    H214368   5.385   5.242   2.290 -0.6643  0.1769 -0.2578
 4802TIP3   OH214369   3.799   1.941   5.850 -0.1908 -0.4113  0.1541
 4802TIP3    H114370   3.845   1.873   5.801 -0.1117  0.5022 -1.0819
 4802TIP3    H214371   3.851   2.020   5.836 -0.2827 -0.0605  1.5602
 4803TIP3   OH214372   1.174   1.478   2.580  0.1955 -0.2426  0.1878
 4803TIP3    H114373   1.167   1.557   2.527 -0.4955  0.0438  0.6911
 4803TIP3    H214374   1.251   1.491   2.635  0.1676  0.0156  0.1646
 4804TIP3   OH214375   1.916   2.178   4.570  0.3837  0.4096  0.2969
 4804TIP3    H114376   1.995   2.124   4.580 -0.1574 -0.5062 -0.2374
 4804TIP3    H214377   1.867   2.164   4.652  1.4981  2.2694  1.3644
 4805TIP3   OH214378   1.266   0.895   1.026  0.7110 -0.3433  0.2651
 4805TIP3    H114379   1.349   0.868   1.066  0.2774  0.4598  1.8089
 4805TIP3    H214380   1.291   0.934   0.942  1.9380  0.1765  0.8504
 4806TIP3   OH214381   4.353   5.511   5.128  0.5662 -0.2452  0.2522
 4806TIP3    H114382   4.315   5.554   5.205  2.1018 -0.9211  1.4304
 4806TIP3    H214383   4.430   5.564   5.106  1.2335 -1.1460  0.3802
 4807TIP3   OH214384   0.872   6.346   0.709  0.1674 -0.3165  0.3412
 4807TIP3    H114385   0.842   6.363   0.620 -1.7636  2.2277  1.3410
 4807TIP3    H214386   0.941   6.411   0.724 -0.0787 -0.1878  0.9473
 4808TIP3   OH214387   5.913   6.717   1.046  0.5613 -0.3417 -0.3678
 4808TIP3    H114388   5.828   6.676   1.032 -0.6435  1.4454  1.2198
 4808TIP3    H214389   5.920   6.781   0.975  0.3469 -0.1436 -0.2115
 4809TIP3   OH214390   5.626   5.335   0.755  0.5685  0.0432  0.2991
 4809TIP3    H114391   5.695   5.350   0.820 -0.7838 -0.2361  1.8437
 4809TIP3    H214392   5.573   5.414   0.758 -0.8046 -0.8712  1.2123
 4810TIP3   OH214393   5.811   3.814   0.339 -0.5203  0.5021 -0.7883
 4810TIP3    H114394   5.773   3.736   0.378 -0.6104  0.8331 -0.1979
 4810TIP3    H214395   5.812   3.796   0.245 -1.2849  0.1184 -0.7315
 4811TIP3   OH214396   7.131   0.742   0.797  0.5747  0.5596 -0.2125
 4811TIP3    H114397   7.194   0.679   0.832  1.2939 -1.9880 -5.1386
 4811TIP3    H214398   7.184   0.807   0.751 -0.2790  0.8463 -0.8376
 4812TIP3   OH214399   3.304   2.492   3.519  0.1780 -0.5660 -0.8994
 4812TIP3    H114400   3.280   2.583   3.535 -1.5132 -1.0312 -0.5820
 4812TIP3    H214401   3.227   2.455   3.476  0.7204 -1.9208 -0.7383
 4813TIP3   OH214402   3.292   3.059   5.458 -0.6628  0.2063  0.4276
 4813TIP3    H114403   3.326   3.057   5.548 -2.1059  1.4933  1.0456
 4813TIP3    H214404   3.214   3.003   5.461  0.2296 -1.1723 -0.5058
 4814TIP3   OH214405   3.811   1.506   1.766 -0.1356  0.0762 -0.1055
 4814TIP3    H114406   3.827   1.565   1.692 -0.5241  0.2307 -0.0706
 4814TIP3    H214407   3.752   1.556   1.824 -0.5423 -0.3800 -0.1201
 4815TIP3   OH214408   3.088   1.178   5.720  0.1321 -0.1516  0.1803
 4815TIP3    H114409   3.114   1.269   5.710  0.3193 -0.3499 -1.2864
 4815TIP3    H214410   3.171   1.129   5.720 -0.0473 -0.5538 -1.9767
 4816TIP3   OH214411   6.874   3.794   0.188 -0.0672  0.1553  0.4637
 4816TIP3    H114412   6.888   3.886   0.211 -1.9113  0.3817  0.8159
 4816TIP3    H214413   6.938   3.746   0.240 -0.1870  1.1176  1.5285
 4817TIP3   OH214414   3.159   6.775   4.692  0.0661  0.4235 -0.5026
 4817TIP3    H114415   3.208   6.785   4.774  0.1017  1.2547 -0.6146
 4817TIP3    H214416   3.112   6.693   4.703 -0.7079  1.0003  0.7766
 4818TIP3   OH214417   1.439   1.395   5.621  0.3620  0.0093 -0.0594
 4818TIP3    H114418   1.498   1.443   5.562 -0.3789 -0.1576 -0.9594
 4818TIP3    H214419   1.433   1.450   5.699 -0.2801  1.2662 -0.9785
 4819TIP3   OH214420   0.468   5.261   4.331  0.4643  0.1376  0.1801
 4819TIP3    H114421   0.452   5.172   4.365 -1.5715  0.7465  1.0057
 4819TIP3    H214422   0.562   5.272   4.336  0.7583 -1.9202  0.2194
 4820TIP3   OH214423   4.391   0.421   5.788 -0.3662  0.6222  0.0582
 4820TIP3    H114424   4.479   0.439   5.755 -0.8602  1.5245 -0.8319
 4820TIP3    H214425   4.403   0.408   5.882  0.6541  1.2124  0.0265
 4821TIP3   OH214426   2.465   5.493   5.534  0.4149 -0.0685 -0.4251
 4821TIP3    H114427   2.493   5.439   5.608  0.1292  2.0583  1.3413
 4821TIP3    H214428   2.543   5.541   5.509  0.8780 -1.7885 -2.5282
 4822TIP3   OH214429   0.786   4.397   5.035  0.2416  0.4510 -0.1251
 4822TIP3    H114430   0.828   4.480   5.013  0.6676 -0.0435 -1.2728
 4822TIP3    H214431   0.854   4.331   5.019  0.5014 -0.0202  2.4349
 4823TIP3   OH214432   5.851   2.805   1.235 -0.4217  0.1741 -0.1961
 4823TIP3    H114433   5.842   2.836   1.145  0.7402 -0.1292 -0.4257
 4823TIP3    H214434   5.863   2.885   1.286 -2.3472  0.4571 -0.1080
 4824TIP3   OH214435   1.810   1.181   2.630  0.6142 -0.0125 -0.2801
 4824TIP3    H114436   1.854   1.194   2.713  0.2474  0.4760 -0.1615
 4824TIP3    H214437   1.791   1.269   2.598  0.6597 -0.1988 -0.8302
 4825TIP3   OH214438   2.534   1.442   5.627 -0.6243 -0.0132 -0.4175
 4825TIP3    H114439   2.483   1.405   5.555  1.1521  0.9457 -2.2591
 4825TIP3    H214440   2.512   1.536   5.626 -0.8104 -0.0371  0.5122
 4826TIP3   OH214441   5.196   4.015   2.734 -0.8426  0.3035  0.2520
 4826TIP3    H114442   5.106   4.036   2.757 -0.4462 -0.5641  2.8946
 4826TIP3    H214443   5.205   3.921   2.751  1.0339  0.7178  1.9806
 4827TIP3   OH214444   6.843   5.761   0.263 -0.0028  0.2747  0.2992
 4827TIP3    H114445   6.797   5.795   0.339 -1.6461 -2.7223  0.7951
 4827TIP3    H214446   6.799   5.801   0.188  0.2400  1.6352  0.8694
 4828TIP3   OH214447   0.283   3.237   2.462 -0.3774 -0.2295 -0.6462
 4828TIP3    H114448   0.373   3.270   2.465  0.4149 -2.2391 -0.8526
 4828TIP3    H214449   0.264   3.214   2.553 -0.0392 -1.3693 -0.8513
 4829TIP3   OH214450   3.097   4.230   0.051  0.1629  0.1413 -0.0530
 4829TIP3    H114451   3.099   4.136   0.069  1.1816  0.5304  2.3582
 4829TIP3    H214452   3.180   4.249   0.008  0.5305  0.0884  0.6121
 4830TIP3   OH214453   5.943   5.931   5.845  0.1450 -0.4388  0.7022
 4830TIP3    H114454   5.996   5.977   5.911 -0.7640  1.2021  0.3196
 4830TIP3    H214455   5.964   5.838   5.859  0.9319 -0.0385  2.4534
 4831TIP3   OH214456   0.381   1.388   4.900  0.4453  0.2180 -0.3837
 4831TIP3    H114457   0.441   1.455   4.867  1.7240  0.0569  1.4288
 4831TIP3    H214458   0.299   1.434   4.913  0.5632  0.8003 -1.5732
 4832TIP3   OH214459   6.121   3.457   2.650 -0.6236 -0.0623 -0.5033
 4832TIP3    H114460   6.052   3.445   2.586 -0.1912 -0.6562 -0.8675
 4832TIP3    H214461   6.154   3.369   2.668 -0.4194  0.1410  0.1795
 4833TIP3   OH214462   4.951   1.833   4.662 -0.0306 -0.3983 -0.0936
 4833TIP3    H114463   4.912   1.871   4.741 -2.3740 -0.2367 -1.2338
 4833TIP3    H214464   4.880   1.783   4.622  1.2825 -1.0102 -1.7641
 4834TIP3   OH214465   1.745   1.576   3.996  0.4698 -0.1897 -0.5036
 4834TIP3    H114466   1.817   1.530   3.953 -1.2763 -0.3427 -3.5305
 4834TIP3    H214467   1.707   1.511   4.055  0.9666 -1.0699 -1.1276
 4835TIP3   OH214468   5.917   1.866   3.468 -0.1320 -0.2904  0.1079
 4835TIP3    H114469   5.896   1.808   3.542  0.4327 -0.2006  0.3453
 4835TIP3    H214470   5.843   1.927   3.464  0.7494  0.9820  1.8907
 4836TIP3   OH214471   6.588   5.196   1.404 -0.6239  0.1225  0.0348
 4836TIP3    H114472   6.682   5.193   1.426 -1.2698  1.1000  3.6060
 4836TIP3    H214473   6.577   5.127   1.339  2.4917 -0.3811 -0.1346
 4837TIP3   OH214474   1.124   0.954   5.237 -0.3882  0.4068  0.0157
 4837TIP3    H114475   1.160   0.884   5.182 -1.6475 -1.6331  1.6494
 4837TIP3    H214476   1.166   0.942   5.322 -0.2238  2.0317  0.1999
 4838TIP3   OH214477   2.771   4.768   3.047  0.4539 -0.4442 -0.0352
 4838TIP3    H114478   2.767   4.798   2.956  0.4430  3.7847  1.1638
 4838TIP3    H214479   2.850   4.809   3.082 -0.1928 -0.9772  2.1731
 4839TIP3   OH214480   2.554   2.432   5.041 -0.0649  0.1043 -0.3838
 4839TIP3    H114481   2.598   2.517   5.047 -2.0322  1.1301  0.1036
 4839TIP3    H214482   2.605   2.374   5.098  0.2298  1.4438  0.7645
 4840TIP3   OH214483   1.246   4.885   2.099 -0.2936 -0.6365 -0.2640
 4840TIP3    H114484   1.264   4.978   2.107 -0.6997 -0.4626 -1.1389
 4840TIP3    H214485   1.277   4.846   2.181  0.8947  0.0989 -0.3455
 4841TIP3   OH214486   1.584   2.715   2.198 -0.3800 -0.4415  0.1025
 4841TIP3    H114487   1.630   2.636   2.171  0.4497 -0.5484  1.7367
 4841TIP3    H214488   1.542   2.692   2.281  0.0429  0.8668  0.7152
 4842TIP3   OH214489   5.648   5.471   2.211 -0.1948  0.1061  0.1448
 4842TIP3    H114490   5.588   5.493   2.139  0.8306  0.8972 -0.4920
 4842TIP3    H214491   5.623   5.529   2.282 -0.9083 -0.3518  0.2811
 4843TIP3   OH214492   5.536   5.167   0.457 -0.1135  0.0796  0.4042
 4843TIP3    H114493   5.540   5.222   0.378 -2.4101 -0.1594  0.0539
 4843TIP3    H214494   5.450   5.124   0.452  0.2927 -1.0719  2.3095
 4844TIP3   OH214495   0.659   2.971   0.806  0.1144 -0.0196  0.2806
 4844TIP3    H114496   0.702   2.889   0.783 -0.4498  0.1410 -1.5157
 4844TIP3    H214497   0.566   2.949   0.811 -0.0618  0.5437 -0.4268
 4845TIP3   OH214498   1.568   5.610   2.292 -0.3286  0.5217  0.4243
 4845TIP3    H114499   1.506   5.674   2.327 -1.7072 -0.5756  0.0865
 4845TIP3    H214500   1.592   5.556   2.368 -1.2473 -0.1966  0.2230
 4846TIP3   OH214501   4.668   3.503   1.169  0.4488  0.1577  0.2423
 4846TIP3    H114502   4.686   3.556   1.092 -0.6416  1.5868  0.9217
 4846TIP3    H214503   4.637   3.565   1.235  1.1161 -1.0386  1.7785
 4847TIP3   OH214504   6.061   1.978   3.820  0.2447 -0.2679  0.3612
 4847TIP3    H114505   5.986   2.019   3.776  0.4304  0.8563  1.0483
 4847TIP3    H214506   6.127   2.046   3.823  0.6305 -0.6624  1.4012
 4848TIP3   OH214507   4.385   2.867   0.350  0.2840  0.3533 -0.7515
 4848TIP3    H114508   4.449   2.854   0.280  0.4310 -1.1730 -0.3595
 4848TIP3    H214509   4.428   2.926   0.412  1.8719 -1.6405  0.1495
 4849TIP3   OH214510   0.101   5.378   4.886  0.5951 -0.5706  0.0213
 4849TIP3    H114511   0.075   5.342   4.801 -0.5920 -2.3372  1.0372
 4849TIP3    H214512   0.026   5.431   4.912 -0.2485 -2.1750  1.0611
 4850TIP3   OH214513   1.221   6.657   2.365 -0.4119 -0.3743  0.8486
 4850TIP3    H114514   1.224   6.600   2.288 -1.0308  0.3952  0.2443
 4850TIP3    H214515   1.140   6.632   2.410 -0.8431  0.2255  0.4184
 4851TIP3   OH214516   2.061   6.289   4.509  0.3421  0.1676  0.9335
 4851TIP3    H114517   2.043   6.232   4.434  1.4752 -1.2719  1.6948
 4851TIP3    H214518   2.049   6.231   4.585  1.6537  0.8997  1.7314
 4852TIP3   OH214519   5.924   2.316   1.320 -0.0550  1.0227 -0.0923
 4852TIP3    H114520   6.019   2.328   1.325  0.2995 -1.1247 -0.6976
 4852TIP3    H214521   5.897   2.300   1.410 -0.1019  2.9945  0.2886
 4853TIP3   OH214522   3.304   3.514   4.474 -0.7660 -0.0102  0.0070
 4853TIP3    H114523   3.239   3.575   4.508 -1.7078 -0.7273 -0.4507
 4853TIP3    H214524   3.340   3.558   4.397 -1.4301 -0.0123 -0.3114
 4854TIP3   OH214525   6.044   5.267   4.943  0.0612 -0.6669 -0.4752
 4854TIP3    H114526   6.136   5.244   4.959 -0.2575 -0.5723  1.8056
 4854TIP3    H214527   6.046   5.361   4.922  0.5034 -0.7577 -0.8668
 4855TIP3   OH214528   5.650   2.319   1.979 -0.0504 -0.2043 -0.0108
 4855TIP3    H114529   5.593   2.391   2.005 -0.3103  0.0809 -1.2595
 4855TIP3    H214530   5.633   2.250   2.042 -0.1438  0.6640  0.9322
 4856TIP3   OH214531   5.167   2.881   2.083 -0.2186 -0.3951  0.6294
 4856TIP3    H114532   5.130   2.817   2.022 -0.2099 -0.5251  0.7604
 4856TIP3    H214533   5.093   2.908   2.137 -0.1715 -0.4790  0.7361
 4857TIP3   OH214534   6.646   4.632   3.956  0.2032 -0.1362 -0.2941
 4857TIP3    H114535   6.663   4.625   3.862  1.3926 -0.1505 -0.0941
 4857TIP3    H214536   6.602   4.716   3.966  0.1520 -0.0928 -0.8514
 4858TIP3   OH214537   3.301   2.916   1.065  0.1911  0.5886 -0.4459
 4858TIP3    H114538   3.348   2.858   1.124 -0.7028  1.1926  0.9018
 4858TIP3    H214539   3.225   2.946   1.115 -1.9395 -0.7239 -2.6743
 4859TIP3   OH214540   5.120   6.625   0.509  0.1218 -0.5928 -0.7891
 4859TIP3    H114541   5.035   6.589   0.535  0.4282 -0.6186  0.1993
 4859TIP3    H214542   5.115   6.630   0.413 -1.1266 -0.2383 -0.7247
 4860TIP3   OH214543   4.213   5.506   1.446  0.0912  0.5495 -0.2204
 4860TIP3    H114544   4.148   5.543   1.505  1.2796  0.9029  0.9230
 4860TIP3    H214545   4.283   5.475   1.503  0.5299 -0.6647 -1.3572
 4861TIP3   OH214546   5.807   5.786   0.599 -0.2696  0.3093 -0.2153
 4861TIP3    H114547   5.726   5.836   0.601 -0.8914 -0.5933 -1.4360
 4861TIP3    H214548   5.779   5.694   0.593  0.8407 -0.0853  0.3224
 4862TIP3   OH214549   2.470   0.948   1.111 -0.1297 -0.0574  0.2544
 4862TIP3    H114550   2.528   0.877   1.083 -1.4337 -0.6929 -0.9278
 4862TIP3    H214551   2.521   1.028   1.093 -0.2143 -0.5247 -2.3937
 4863TIP3   OH214552   3.062   6.572   0.670 -0.1841  0.0137  0.6989
 4863TIP3    H114553   3.071   6.645   0.731  1.0530 -0.0599  0.6345
 4863TIP3    H214554   3.150   6.559   0.635 -0.6713 -0.6026 -0.3500
 4864TIP3   OH214555   6.363   5.813   3.798  0.4113  0.0951 -0.3429
 4864TIP3    H114556   6.327   5.793   3.884 -0.0290 -2.1057 -0.9866
 4864TIP3    H214557   6.439   5.868   3.817 -0.5251  0.9314  1.3203
 4865TIP3   OH214558   1.926   1.583   4.251 -0.1448 -0.0918  0.3034
 4865TIP3    H114559   1.929   1.678   4.235  0.0733  0.0139  0.9427
 4865TIP3    H214560   1.998   1.548   4.198  0.6868  0.2740  1.1610
 4866TIP3   OH214561   1.573   4.223   5.793  0.2163 -0.3001 -0.3750
 4866TIP3    H114562   1.627   4.205   5.870 -0.1241 -0.7150 -0.2336
 4866TIP3    H214563   1.494   4.265   5.827 -0.0215 -0.6622 -0.4797
 4867TIP3   OH214564   3.811   5.885   1.863 -0.3331 -0.8369  0.1027
 4867TIP3    H114565   3.814   5.790   1.877 -1.3620 -0.8950  0.0181
 4867TIP3    H214566   3.768   5.919   1.942  0.3566 -0.3918  0.2953
 4868TIP3   OH214567   0.171   0.334   2.541  0.2293 -0.1414  0.0649
 4868TIP3    H114568   0.218   0.264   2.495  2.1067 -0.0023  1.6316
 4868TIP3    H214569   0.094   0.290   2.578  0.5843 -1.0419 -0.2281
 4869TIP3   OH214570   1.592   0.890   2.852 -0.0223 -0.2306  0.1410
 4869TIP3    H114571   1.629   0.809   2.816 -0.7876  0.2363 -1.8053
 4869TIP3    H214572   1.589   0.875   2.947  0.0911 -2.3685 -0.1556
 4870TIP3   OH214573   0.130   0.358   0.497  0.2720 -0.1284 -0.3969
 4870TIP3    H114574   0.159   0.307   0.421  0.0561  0.7313 -1.0637
 4870TIP3    H214575   0.144   0.449   0.472 -0.2429  0.1857  0.4188
 4871TIP3   OH214576   0.661   0.604   4.468  0.9523  0.8131 -0.0604
 4871TIP3    H114577   0.727   0.540   4.495  1.4756  0.6804 -1.5798
 4871TIP3    H214578   0.700   0.688   4.490  1.4096  0.7134 -0.4706
 4872TIP3   OH214579   2.019   3.273   1.947  0.6840  0.3821 -0.5148
 4872TIP3    H114580   1.971   3.288   2.028 -0.1177 -1.4147 -0.6287
 4872TIP3    H214581   1.966   3.316   1.880  0.9916  1.2693 -0.2111
 4873TIP3   OH214582   4.724   0.334   0.813 -0.4777  0.8576 -0.3485
 4873TIP3    H114583   4.737   0.258   0.869 -2.3872  0.4475 -0.3776
 4873TIP3    H214584   4.756   0.408   0.865 -0.3312  0.2509  0.4424
 4874TIP3   OH214585   0.036   0.169   1.759  0.1490 -0.4015 -0.3639
 4874TIP3    H114586  -0.006   0.188   1.842  3.1248 -1.2803  1.4936
 4874TIP3    H214587   0.091   0.092   1.776  0.3113 -1.0980 -3.3516
 4875TIP3   OH214588   4.199   6.516   4.809  0.4316  0.3566  0.2249
 4875TIP3    H114589   4.269   6.575   4.781  2.0832 -2.3409 -1.8229
 4875TIP3    H214590   4.229   6.482   4.893  0.2844  1.0816  0.5856
 4876TIP3   OH214591   1.571   4.433   1.106 -0.2960 -0.3887  0.6404
 4876TIP3    H114592   1.653   4.473   1.134  0.3953 -2.2616  1.4542
 4876TIP3    H214593   1.583   4.414   1.013  0.2935 -0.8691  0.8122
 4877TIP3   OH214594   3.654   2.711   5.228 -0.3149  0.7477 -0.1928
 4877TIP3    H114595   3.719   2.776   5.202 -0.6226  0.8617 -0.6907
 4877TIP3    H214596   3.574   2.762   5.244 -0.2876  0.6069  0.3893
 4878TIP3   OH214597   0.905   5.876   0.898  0.3723  0.3659  0.3884
 4878TIP3    H114598   0.968   5.886   0.827  1.6454 -2.5173  0.9825
 4878TIP3    H214599   0.952   5.905   0.976 -0.8657  3.0762  0.2228
 4879TIP3   OH214600   0.953   1.364   5.031  0.0951  0.6478  0.0747
 4879TIP3    H114601   0.990   1.277   5.048 -1.3003  0.1935  1.0044
 4879TIP3    H214602   0.870   1.346   4.986  0.7318  1.6093 -1.5896
 4880TIP3   OH214603   5.007   3.299   2.815 -0.4795  0.5071 -0.0451
 4880TIP3    H114604   5.088   3.251   2.804 -0.0772  1.3042 -0.7021
 4880TIP3    H214605   5.004   3.322   2.908  0.6946  1.5542 -0.2403
 4881TIP3   OH214606   3.454   4.690   4.375 -0.2111 -0.2299  0.1331
 4881TIP3    H114607   3.411   4.720   4.295 -2.1098 -2.7526  0.0995
 4881TIP3    H214608   3.524   4.632   4.345 -0.1748 -0.2580  0.2719
 4882TIP3   OH214609   0.338   2.935   2.413  0.4107 -0.0912 -0.0436
 4882TIP3    H114610   0.283   2.934   2.492  0.0486 -0.6123 -0.2965
 4882TIP3    H214611   0.294   2.998   2.355 -0.3431 -1.0419 -0.5306
 4883TIP3   OH214612   1.210   5.887   4.215  0.2619  0.6295 -0.7877
 4883TIP3    H114613   1.205   5.828   4.290 -1.6036 -1.8303 -2.6882
 4883TIP3    H214614   1.164   5.966   4.243  3.5765  1.8105  2.1260
 4884TIP3   OH214615   5.563   4.868   4.089 -0.3813 -0.4320 -0.2538
 4884TIP3    H114616   5.557   4.942   4.149 -1.3800 -0.4351 -0.3210
 4884TIP3    H214617   5.474   4.860   4.053  0.3539  0.0525 -2.3164
 4885TIP3   OH214618   3.204   3.143   0.518 -0.2585  0.8099  0.3760
 4885TIP3    H114619   3.123   3.097   0.541  0.5285  0.2284  2.1465
 4885TIP3    H214620   3.250   3.082   0.460  0.2007 -0.1510  1.7010
 4886TIP3   OH214621   1.973   1.997   1.264  0.1812  0.2568  0.6050
 4886TIP3    H114622   1.926   2.055   1.205  0.8607  0.0452 -0.1603
 4886TIP3    H214623   1.924   2.002   1.346 -1.2955 -0.1075 -0.2135
 4887TIP3   OH214624   5.176   1.118   1.602  0.4686 -0.0752 -0.7867
 4887TIP3    H114625   5.204   1.041   1.552  2.1641 -0.3545  0.5337
 4887TIP3    H214626   5.195   1.096   1.693  0.1078  1.5569 -0.2896
 4888TIP3   OH214627   0.767   6.800   3.814  0.1854  0.3577 -0.2490
 4888TIP3    H114628   0.822   6.759   3.880  1.9867  1.9274 -0.7124
 4888TIP3    H214629   0.756   6.733   3.747  0.6233 -0.3242  0.3458
 4889TIP3   OH214630   6.619   3.968   2.931  0.0784 -0.0956 -0.1934
 4889TIP3    H114631   6.652   3.982   2.843  1.8615  0.3588  0.4962
 4889TIP3    H214632   6.588   3.878   2.932  1.1774 -0.4966 -0.9605
 4890TIP3   OH214633   1.082   4.536   2.571 -0.4658  0.4990 -0.0253
 4890TIP3    H114634   1.162   4.586   2.556  0.3530 -0.1928  1.7312
 4890TIP3    H214635   1.105   4.476   2.642 -2.7281  0.6871  0.9345
 4891TIP3   OH214636   1.756   3.824   5.049 -0.0649  0.6796 -0.3288
 4891TIP3    H114637   1.757   3.871   5.132  2.3239 -0.5230  0.4258
 4891TIP3    H214638   1.833   3.856   5.002  1.4365 -2.0575  0.0649
 4892TIP3   OH214639   3.763   4.555   2.108  0.3559  0.1684  0.2152
 4892TIP3    H114640   3.778   4.590   2.196 -2.3496  1.5037  0.2739
 4892TIP3    H214641   3.824   4.482   2.100  2.1234  1.2880  2.3923
 4893TIP3   OH214642   6.849   4.144   4.134  0.5566 -0.2384 -0.1363
 4893TIP3    H114643   6.901   4.101   4.066  0.6934  1.3874 -1.1145
 4893TIP3    H214644   6.774   4.085   4.147  0.9545 -0.9953 -1.0856
 4894TIP3   OH214645   2.623   2.320   2.366  0.3845  0.4044  0.3584
 4894TIP3    H114646   2.617   2.273   2.450  0.4255  0.6436  0.4955
 4894TIP3    H214647   2.590   2.407   2.385 -0.2138  0.2692 -0.0267
 4895TIP3   OH214648   5.694   3.322   3.733  0.0215 -0.6839  0.4486
 4895TIP3    H114649   5.601   3.314   3.714  0.3086  0.4258 -1.6462
 4895TIP3    H214650   5.702   3.405   3.781 -0.0470 -0.6621  0.4226
 4896TIP3   OH214651   5.711   0.650   3.108 -0.5192 -0.1253 -0.3185
 4896TIP3    H114652   5.692   0.633   3.201  0.3307  1.3351  0.1530
 4896TIP3    H214653   5.719   0.563   3.069 -1.3224 -0.7670  0.8742
 4897TIP3   OH214654   2.961   5.670   5.456 -0.0744  0.5016 -0.4173
 4897TIP3    H114655   2.993   5.588   5.493 -2.0740  0.9970  2.8446
 4897TIP3    H214656   3.020   5.737   5.489 -0.3561  0.6929 -0.2920
 4898TIP3   OH214657   3.055   6.398   3.911 -0.0304 -0.4043 -0.0634
 4898TIP3    H114658   3.103   6.409   3.993  0.1464 -2.2413  0.1075
 4898TIP3    H214659   3.012   6.483   3.898  1.5636  0.6116  0.8526
 4899TIP3   OH214660   3.162   3.717   5.663  0.0936  0.0385 -0.1770
 4899TIP3    H114661   3.127   3.674   5.740 -2.1925 -0.4490 -1.4064
 4899TIP3    H214662   3.216   3.650   5.621 -3.2455 -1.7769 -1.9489
 4900TIP3   OH214663   4.599   2.931   4.498  0.1193 -0.1009  0.2067
 4900TIP3    H114664   4.585   2.938   4.592  1.9848 -1.0218  0.5964
 4900TIP3    H214665   4.640   2.846   4.486  0.6315  0.3265 -1.3495
 4901TIP3   OH214666   4.643   4.141   2.850  0.1789  0.3219 -0.1970
 4901TIP3    H114667   4.557   4.173   2.824 -0.7734 -1.0742  1.1463
 4901TIP3    H214668   4.651   4.163   2.942  0.1182 -1.8669  0.3870
 4902TIP3   OH214669   3.677   6.427   3.066  0.1711 -0.4222 -0.0680
 4902TIP3    H114670   3.641   6.498   3.013  1.7597  1.1185  0.8193
 4902TIP3    H214671   3.611   6.412   3.134  0.3684  1.1004  0.4828
 4903TIP3   OH214672   2.688   6.414   2.066 -0.0086  0.6511  0.3163
 4903TIP3    H114673   2.727   6.386   2.149  1.0485  1.6754  0.1908
 4903TIP3    H214674   2.614   6.469   2.091  0.3248  0.9820  0.5944
 4904TIP3   OH214675   1.088   1.237   0.540 -0.0883  0.2656 -0.2301
 4904TIP3    H114676   1.164   1.292   0.524  0.5483 -0.2344  0.9187
 4904TIP3    H214677   1.088   1.172   0.470  1.3673 -0.5732  0.5003
 4905TIP3   OH214678   2.774   3.978   2.329 -0.3943  0.6850 -0.2430
 4905TIP3    H114679   2.719   3.908   2.364 -0.8721  0.3680 -1.5763
 4905TIP3    H214680   2.855   3.972   2.379 -0.1459 -1.2982 -0.7846
 4906TIP3   OH214681   0.391   5.482   1.412  0.5239  0.2105  0.0749
 4906TIP3    H114682   0.410   5.390   1.395 -1.0406  0.2821 -2.4587
 4906TIP3    H214683   0.398   5.491   1.508  1.2291 -2.3705  0.3208
 4907TIP3   OH214684   0.677   5.692   3.697  0.5528 -0.1963 -0.0269
 4907TIP3    H114685   0.772   5.687   3.697  0.5084 -1.6856 -1.0173
 4907TIP3    H214686   0.651   5.665   3.785  1.0155 -0.7727 -0.0664
 4908TIP3   OH214687   1.987   1.857   0.356 -0.1451  0.0001 -0.0653
 4908TIP3    H114688   2.014   1.866   0.265 -1.3772 -0.4618 -0.4957
 4908TIP3    H214689   2.064   1.821   0.401  0.3503 -0.1035 -0.9798
 4909TIP3   OH214690   4.897   5.191   3.070  0.2178  0.2950  0.5027
 4909TIP3    H114691   4.874   5.111   3.118  3.1089  0.3622  2.1686
 4909TIP3    H214692   4.818   5.245   3.075 -1.0184 -1.4821  1.3527
 4910TIP3   OH214693   0.187   1.706   2.539  0.1713 -0.2646 -0.2732
 4910TIP3    H114694   0.258   1.704   2.602  0.4322  2.1250 -0.3741
 4910TIP3    H214695   0.109   1.680   2.588  0.4900  0.8797  0.8796
 4911TIP3   OH214696   6.451   0.830   1.176 -0.4291  0.1681 -0.3109
 4911TIP3    H114697   6.413   0.747   1.205 -0.4700 -0.2485 -1.4986
 4911TIP3    H214698   6.413   0.895   1.235 -1.0110 -0.5579  0.1364
 4912TIP3   OH214699   4.681   5.012   0.012  0.1459 -0.2504 -0.2256
 4912TIP3    H114700   4.665   4.993   0.105  0.3478  0.8734  0.0547
 4912TIP3    H214701   4.666   4.928  -0.032 -0.5247 -0.6705  0.7460
 4913TIP3   OH214702   4.592   0.918   5.658  0.0715  0.2719 -0.1066
 4913TIP3    H114703   4.619   0.947   5.571 -3.1542  1.0514 -0.9699
 4913TIP3    H214704   4.552   0.832   5.644 -0.8321  0.5776  0.5063
 4914TIP3   OH214705   4.184   0.223   5.271  0.0954 -0.2735 -0.1319
 4914TIP3    H114706   4.132   0.249   5.346  0.8858 -1.1157  0.7369
 4914TIP3    H214707   4.264   0.186   5.309  1.0647  0.4245 -1.4030
 4915TIP3   OH214708   2.202   5.892   5.593  0.1843 -0.3778 -0.3163
 4915TIP3    H114709   2.210   5.945   5.514  1.4282  1.1291  0.7560
 4915TIP3    H214710   2.150   5.945   5.653  1.1394 -0.5065  0.6582
 4916TIP3   OH214711   2.042   4.154   2.758 -0.9072  0.0564 -0.3156
 4916TIP3    H114712   2.019   4.113   2.674 -2.4148 -0.2717  0.2154
 4916TIP3    H214713   2.051   4.080   2.818  0.8180  0.2455 -0.3082
 4917TIP3   OH214714   0.792   3.654   0.541 -0.1860  0.1642  0.1778
 4917TIP3    H114715   0.716   3.601   0.566 -0.2090 -0.2357 -0.6947
 4917TIP3    H214716   0.829   3.608   0.466  0.6247  0.6359  0.2806
 4918TIP3   OH214717   3.990   1.416   4.418  0.7070  0.5126  0.5927
 4918TIP3    H114718   3.931   1.490   4.401  0.2776  0.6114  2.3052
 4918TIP3    H214719   3.942   1.339   4.387  0.8854  0.8661 -0.6080
 4919TIP3   OH214720   0.855   5.174   0.470  0.3155  0.2232  0.2481
 4919TIP3    H114721   0.801   5.241   0.512 -0.9116 -0.4300 -0.2475
 4919TIP3    H214722   0.796   5.100   0.457  1.7637 -1.2017  1.2999
 4920TIP3   OH214723   5.562   0.329   2.470  0.0215  0.3592 -0.0197
 4920TIP3    H114724   5.631   0.268   2.496  0.7462  0.6271 -1.2525
 4920TIP3    H214725   5.481   0.278   2.475  0.3901 -0.1508  0.7801
 4921TIP3   OH214726   5.760   4.345   4.007 -0.2949  0.6851  0.2954
 4921TIP3    H114727   5.682   4.395   3.982  0.6252  2.8032  1.3358
 4921TIP3    H214728   5.737   4.303   4.089 -0.9643 -0.3838 -0.4128
 4922TIP3   OH214729   4.824   4.625   4.881  0.5850  0.2901 -0.0548
 4922TIP3    H114730   4.731   4.619   4.862  0.2686  1.9928  0.7405
 4922TIP3    H214731   4.848   4.715   4.857  1.8666  0.0763  0.3460
 4923TIP3   OH214732   6.118   4.999   3.402  0.9563 -0.1648  0.1011
 4923TIP3    H114733   6.192   5.011   3.462  0.8675  1.7768 -0.1047
 4923TIP3    H214734   6.052   5.061   3.434  0.5286  0.1815 -1.4016
 4924TIP3   OH214735   4.412   2.165   4.096 -0.2459 -0.0282 -1.1074
 4924TIP3    H114736   4.335   2.214   4.066 -1.2699 -0.8608  0.0624
 4924TIP3    H214737   4.390   2.074   4.077  0.4496 -0.2734 -0.7294
 4925TIP3   OH214738   6.107   6.366   5.197  0.3049 -0.0741 -0.1614
 4925TIP3    H114739   6.085   6.419   5.120  0.0455 -0.4391 -0.3413
 4925TIP3    H214740   6.032   6.308   5.209 -0.0484  0.5906  0.9133
 4926TIP3   OH214741   2.309   2.280   4.947  0.0499 -0.1270 -0.2528
 4926TIP3    H114742   2.337   2.191   4.926  1.0295 -0.1423  0.9520
 4926TIP3    H214743   2.387   2.321   4.985 -0.3348  1.3086 -0.9341
 4927TIP3   OH214744   0.226   6.148   1.494 -0.0637  0.3693  0.5265
 4927TIP3    H114745   0.218   6.210   1.566 -0.6637 -0.3251  1.0718
 4927TIP3    H214746   0.137   6.115   1.481  0.0460  0.4356 -0.5003
 4928TIP3   OH214747   3.900   6.351   1.532 -0.1727  0.2770 -0.4687
 4928TIP3    H114748   3.912   6.334   1.439 -0.8455  1.7772 -0.8608
 4928TIP3    H214749   3.988   6.352   1.568  0.3603  2.3718 -1.6380
 4929TIP3   OH214750   2.935   5.837   2.015 -0.3987  0.0144  0.2298
 4929TIP3    H114751   2.873   5.769   1.990  2.4941 -2.0178 -2.2029
 4929TIP3    H214752   2.963   5.812   2.103 -1.7960  0.0315  0.7013
 4930TIP3   OH214753   6.873   2.082   3.051  0.8355  0.1195 -0.2451
 4930TIP3    H114754   6.965   2.074   3.028  0.7406  0.4214 -0.7673
 4930TIP3    H214755   6.841   2.154   2.996 -0.0104 -0.8267 -1.0351
 4931TIP3   OH214756   0.574   1.083   2.741 -0.0486  0.3171 -0.4929
 4931TIP3    H114757   0.522   1.029   2.682 -0.4944 -0.5196  0.6448
 4931TIP3    H214758   0.607   1.154   2.685 -1.4716  0.2470 -1.4784
 4932TIP3   OH214759   0.838   2.056   0.838  0.3630  1.0027 -0.3070
 4932TIP3    H114760   0.881   2.124   0.786  0.1561  2.0596  0.8607
 4932TIP3    H214761   0.866   2.073   0.928  0.3031 -0.4671  0.0200
 4933TIP3   OH214762   1.717   4.252   0.372 -0.2329 -0.2062 -0.3415
 4933TIP3    H114763   1.777   4.311   0.328 -0.3604 -0.7280 -1.2516
 4933TIP3    H214764   1.631   4.271   0.333 -0.6312  0.3624  0.7673
 4934TIP3   OH214765   2.984   1.900   1.664 -0.1198 -0.5348 -0.1023
 4934TIP3    H114766   2.950   1.812   1.677 -0.0983 -0.1884  3.0716
 4934TIP3    H214767   2.905   1.955   1.653 -0.3133 -0.5710  0.9993
 4935TIP3   OH214768   3.026   5.304   4.251  0.2560  0.1937  0.5465
 4935TIP3    H114769   2.941   5.262   4.251  0.4055 -0.1349 -0.2252
 4935TIP3    H214770   3.086   5.238   4.216  0.7277  0.6029  0.5552
 4936TIP3   OH214771   4.765   3.969   1.537  0.5493 -0.3577 -0.4606
 4936TIP3    H114772   4.850   4.014   1.536  1.2999 -1.4860 -4.0514
 4936TIP3    H214773   4.736   3.975   1.628  4.3600  0.2429  0.9328
 4937TIP3   OH214774   1.271   4.117   2.524 -0.1004 -0.0805  0.3350
 4937TIP3    H114775   1.365   4.132   2.540  0.1495 -0.9964 -0.2185
 4937TIP3    H214776   1.240   4.200   2.489  0.3450  0.4591  1.1693
 4938TIP3   OH214777   5.689   1.925   4.777 -0.5492 -0.2801  0.2994
 4938TIP3    H114778   5.725   1.841   4.750  1.3390  0.2356  1.0345
 4938TIP3    H214779   5.610   1.936   4.724 -1.4149 -2.9427  0.9040
 4939TIP3   OH214780   2.393   2.508   4.301  0.4715 -0.3872  0.2245
 4939TIP3    H114781   2.397   2.544   4.212  0.0567 -0.3269  0.2290
 4939TIP3    H214782   2.338   2.430   4.292 -0.1420  0.0010  0.5545
 4940TIP3   OH214783   4.813   2.765   5.095 -0.1354  0.6341  0.2970
 4940TIP3    H114784   4.811   2.853   5.135  0.9000  0.4903  0.6948
 4940TIP3    H214785   4.904   2.736   5.106 -0.7213 -0.9772  1.2352
 4941TIP3   OH214786   6.874   0.945   4.590 -0.1022 -0.1153  0.4093
 4941TIP3    H114787   6.812   0.945   4.517 -0.1575  1.8798  0.3820
 4941TIP3    H214788   6.843   1.015   4.648  0.0343 -1.5378  2.3042
 4942TIP3   OH214789   3.396   4.962   0.882 -0.5281  0.3744 -0.3721
 4942TIP3    H114790   3.439   4.924   0.959  2.2552 -0.0445 -2.0073
 4942TIP3    H214791   3.356   4.886   0.838  0.5229  0.1226 -0.9118
 4943TIP3   OH214792   0.429   3.093   2.132 -0.0586 -0.1534  0.5514
 4943TIP3    H114793   0.489   3.067   2.201 -1.7408 -1.4019  1.6215
 4943TIP3    H214794   0.342   3.079   2.169 -1.1542  3.7433 -0.0952
 4944TIP3   OH214795   1.889   4.352   5.805  0.4519 -0.6613 -0.4451
 4944TIP3    H114796   1.896   4.266   5.763 -2.1138 -0.9443 -0.4332
 4944TIP3    H214797   1.824   4.398   5.752 -0.0642  0.3490  1.0321
 4945TIP3   OH214798   2.096   4.056   0.417 -0.5996 -0.6535  0.1856
 4945TIP3    H114799   2.061   3.974   0.451  1.7160 -1.2791  1.2646
 4945TIP3    H214800   2.189   4.039   0.405  0.0756  1.9653  0.9954
 4946TIP3   OH214801   0.539   5.592   1.085 -0.2124  0.8033 -0.1130
 4946TIP3    H114802   0.519   5.662   1.148 -1.3138  0.4342 -0.0364
 4946TIP3    H214803   0.454   5.558   1.059  0.2495  0.6032 -1.4371
 4947TIP3   OH214804   2.788   1.391   0.441 -0.1291 -0.0017  0.3136
 4947TIP3    H114805   2.714   1.396   0.501 -0.2246 -0.1296  0.2078
 4947TIP3    H214806   2.853   1.451   0.478  0.5055 -1.3591  1.5012
 4948TIP3   OH214807   3.124   4.150   4.455  0.3567  0.2414  0.2813
 4948TIP3    H114808   3.136   4.244   4.466 -0.0595  0.2897  0.3442
 4948TIP3    H214809   3.146   4.133   4.363 -1.8979  0.8029 -0.4170
 4949TIP3   OH214810   6.479   3.348   0.976  0.0002 -0.0697 -0.6166
 4949TIP3    H114811   6.476   3.443   0.981  0.5715 -0.0901  0.2861
 4949TIP3    H214812   6.493   3.329   0.883  1.2094  0.7656 -0.6258
 4950TIP3   OH214813   1.907   0.830   0.495  0.4923 -0.0541  0.2150
 4950TIP3    H114814   1.833   0.827   0.556  0.0845  0.6869 -0.2313
 4950TIP3    H214815   1.938   0.740   0.491 -1.6850 -0.8158 -1.1609
 4951TIP3   OH214816   6.170   4.721   2.286  0.1374 -0.0857  0.0644
 4951TIP3    H114817   6.117   4.744   2.209  1.0375 -0.4031 -0.6806
 4951TIP3    H214818   6.260   4.719   2.252  0.4971 -0.6923  1.0289
 4952TIP3   OH214819   3.101   0.585   3.589  0.7986 -0.7881  0.2910
 4952TIP3    H114820   3.125   0.492   3.592  0.7869 -0.7780  2.3695
 4952TIP3    H214821   3.173   0.630   3.634 -0.2149 -0.0598  1.2383
 4953TIP3   OH214822   5.049   6.393   4.071 -0.0671  0.1032 -0.1843
 4953TIP3    H114823   5.113   6.412   4.139  1.4714 -0.4660 -1.4160
 4953TIP3    H214824   5.087   6.429   3.991 -0.8719 -0.9868 -1.0965
 4954TIP3   OH214825   5.988   4.884   0.217 -0.2236 -0.2012  0.4511
 4954TIP3    H114826   6.035   4.967   0.207 -1.1673  0.7582  3.0496
 4954TIP3    H214827   6.023   4.847   0.299 -0.6119 -1.8341 -0.0893
 4955TIP3   OH214828   5.752   6.727   5.587  0.3904  0.2751 -0.1242
 4955TIP3    H114829   5.686   6.696   5.525 -0.0122 -3.1225  1.7242
 4955TIP3    H214830   5.835   6.696   5.552  0.4539  0.4744 -0.1511
 4956TIP3   OH214831   3.433   1.183   5.513 -0.3240  0.2887  0.0170
 4956TIP3    H114832   3.522   1.199   5.483 -0.5103  0.8027 -0.2769
 4956TIP3    H214833   3.380   1.250   5.469 -0.7504  0.4393  0.7336
 4957TIP3   OH214834   6.388   5.574   2.147 -0.0991  0.0681  0.9758
 4957TIP3    H114835   6.453   5.528   2.094  2.7160  0.8240  3.5069
 4957TIP3    H214836   6.383   5.662   2.109  0.6928  0.1353  1.0263
 4958TIP3   OH214837   1.778   2.475   2.151  0.4235 -0.6861  0.3728
 4958TIP3    H114838   1.817   2.562   2.161 -0.0399 -0.4592  0.2164
 4958TIP3    H214839   1.853   2.417   2.139  0.9427 -0.7461  3.2780
 4959TIP3   OH214840   2.933   0.745   3.983 -0.0602  0.0304 -0.4002
 4959TIP3    H114841   2.931   0.781   4.072  0.8427  1.0959 -0.7742
 4959TIP3    H214842   2.984   0.665   3.991 -0.9625 -0.4993  0.2307
 4960TIP3   OH214843   3.068   0.485   2.229 -0.8802 -0.7269 -0.1433
 4960TIP3    H114844   3.143   0.531   2.191 -1.0314 -0.6546 -0.3500
 4960TIP3    H214845   3.108   0.417   2.284 -0.6667 -1.3377 -1.0359
 4961TIP3   OH214846   0.694   2.546   2.474 -0.4414 -0.2602  0.1164
 4961TIP3    H114847   0.737   2.585   2.398 -1.3814 -0.6378 -0.6325
 4961TIP3    H214848   0.648   2.469   2.439  0.4825 -1.4392  1.3669
 4962TIP3   OH214849   4.647   4.484   5.138 -0.3872  0.1691  0.1785
 4962TIP3    H114850   4.603   4.508   5.057 -1.6620 -1.6977  0.2705
 4962TIP3    H214851   4.651   4.566   5.188 -0.8253  1.0519 -1.1768
 4963TIP3   OH214852   4.755   3.346   4.814 -0.0310 -0.4692 -0.2994
 4963TIP3    H114853   4.788   3.372   4.728 -1.7357  1.0265 -0.5600
 4963TIP3    H214854   4.661   3.334   4.801 -0.5690  1.1061  1.5910
 4964TIP3   OH214855   5.162   0.403   1.799 -0.1397  0.1161  0.3863
 4964TIP3    H114856   5.130   0.313   1.808 -1.4291  0.5336  0.1389
 4964TIP3    H214857   5.090   0.450   1.758  0.7109  1.1619  0.0507
 4965TIP3   OH214858   1.129   6.641   4.718  0.2056  0.0406  0.2786
 4965TIP3    H114859   1.066   6.618   4.786 -1.4178  0.3085 -1.0709
 4965TIP3    H214860   1.102   6.728   4.688  0.3478 -0.4243 -1.2994
 4966TIP3   OH214861   6.782   2.202   0.776 -0.2393 -0.0182  0.2127
 4966TIP3    H114862   6.695   2.173   0.800 -0.1140 -0.5533  0.0314
 4966TIP3    H214863   6.841   2.137   0.815  0.1605  1.0551  1.4713
 4967TIP3   OH214864   0.664   1.104   1.011  0.2707  0.1362  0.1935
 4967TIP3    H114865   0.623   1.055   1.083  1.8987 -0.6027  0.6548
 4967TIP3    H214866   0.672   1.193   1.045  2.2194 -0.4724  1.5179
 4968TIP3   OH214867   5.694   6.692   4.679  0.8065  0.2496  0.1947
 4968TIP3    H114868   5.686   6.702   4.774 -0.6793 -2.0965  0.3915
 4968TIP3    H214869   5.607   6.709   4.645  1.5639  2.1441 -0.9229
 4969TIP3   OH214870   4.721   4.624   3.664  0.6824  0.3858 -0.0087
 4969TIP3    H114871   4.685   4.695   3.612 -0.7570 -1.3885 -1.5784
 4969TIP3    H214872   4.754   4.561   3.599  2.2600 -0.2548  1.3269
 4970TIP3   OH214873   6.357   2.106   2.101  0.2847 -0.2228 -0.7709
 4970TIP3    H114874   6.441   2.134   2.137 -0.1620  0.0737  0.0623
 4970TIP3    H214875   6.309   2.187   2.084 -0.4861 -0.4132  0.3719
 4971TIP3   OH214876   6.874   5.812   1.756  0.2546  0.2279  0.5757
 4971TIP3    H114877   6.871   5.891   1.810  1.4021  0.8283 -0.1892
 4971TIP3    H214878   6.968   5.793   1.748  0.0187 -0.7297  0.0623
 4972TIP3   OH214879   1.756   1.225   1.057 -0.2050  0.5123 -0.0787
 4972TIP3    H114880   1.680   1.250   1.109 -0.4038 -0.0981 -0.0624
 4972TIP3    H214881   1.794   1.308   1.027 -0.1236  0.8719  0.9697
 4973TIP3   OH214882   4.081   5.769   1.134  0.0482 -0.5026 -0.2933
 4973TIP3    H114883   4.136   5.692   1.148  1.4939  0.4542 -0.4778
 4973TIP3    H214884   4.025   5.745   1.060  0.0664 -1.5705  0.0162
 4974TIP3   OH214885   7.230   4.544   0.351  0.1624  0.2862 -0.4427
 4974TIP3    H114886   7.162   4.546   0.284 -0.4364 -2.6002 -0.0188
 4974TIP3    H214887   7.190   4.498   0.425  1.9636  0.2043  0.5339
 4975TIP3   OH214888   3.200   4.514   2.735  0.0881  0.2037 -0.5766
 4975TIP3    H114889   3.271   4.512   2.799 -0.7342 -2.5308  0.4023
 4975TIP3    H214890   3.171   4.423   2.729 -3.0725  1.1359 -1.2108
 4976TIP3   OH214891   0.262   1.991   2.487 -0.4836 -0.1584  0.3692
 4976TIP3    H114892   0.274   1.896   2.498 -1.0363 -0.3078 -0.2766
 4976TIP3    H214893   0.308   2.012   2.406  1.5515  0.5310  1.6320
 4977TIP3   OH214894   4.709   3.563   0.164 -0.2381 -0.3787 -0.5767
 4977TIP3    H114895   4.679   3.494   0.105 -2.3300  1.6733 -2.0776
 4977TIP3    H214896   4.655   3.554   0.242  1.2473 -1.9319  0.3367
 4978TIP3   OH214897   5.644   0.044   1.224 -0.7313 -0.3246 -0.1995
 4978TIP3    H114898   5.575   0.028   1.288 -1.4145 -0.0501 -0.8596
 4978TIP3    H214899   5.598   0.054   1.141  0.1489 -0.7706 -0.7584
 4979TIP3   OH214900   7.184   2.762   0.712 -0.3420  0.2791  0.7674
 4979TIP3    H114901   7.102   2.714   0.726 -0.2054 -0.6104 -1.1763
 4979TIP3    H214902   7.163   2.827   0.645  0.7306 -0.6525 -0.5511
 4980TIP3   OH214903   3.460   5.565   1.385  0.0996  0.4175 -0.5182
 4980TIP3    H114904   3.537   5.587   1.333  0.7990  0.2153  0.3950
 4980TIP3    H214905   3.416   5.649   1.399  1.8876  1.0979  1.5976
 4981TIP3   OH214906   2.843   0.166   0.629 -0.4630 -0.1769 -0.2981
 4981TIP3    H114907   2.874   0.130   0.712 -1.7614  0.0244  0.2893
 4981TIP3    H214908   2.763   0.117   0.610 -0.2382 -0.1443 -1.3826
 4982TIP3   OH214909   6.743   1.997   4.834 -0.0860  0.0013  0.3491
 4982TIP3    H114910   6.705   2.080   4.861 -0.8898 -0.3479  0.3500
 4982TIP3    H214911   6.795   1.968   4.909  0.3683  0.5985  0.2669
 4983TIP3   OH214912   1.990   2.309   1.309 -0.9612  0.1779  0.3394
 4983TIP3    H114913   1.935   2.361   1.250 -0.1598 -0.3852 -0.9408
 4983TIP3    H214914   2.051   2.263   1.251  0.2564  0.0655  1.6479
 4984TIP3   OH214915   1.942   3.105   4.115  0.6682  0.4282  0.3110
 4984TIP3    H114916   1.981   3.019   4.102 -0.9029 -0.4569  1.1269
 4984TIP3    H214917   1.878   3.092   4.185 -0.0205  2.1243  0.0515
 4985TIP3   OH214918   4.058   4.664   5.843 -0.8306  0.0626 -0.3990
 4985TIP3    H114919   3.968   4.677   5.873 -0.5640 -0.4220  0.6857
 4985TIP3    H214920   4.051   4.653   5.748 -1.8610  0.4741 -0.3803
 4986TIP3   OH214921   5.436   1.732   1.734 -0.3809  0.5659 -0.2693
 4986TIP3    H114922   5.370   1.801   1.738  1.2120  2.1843 -0.3700
 4986TIP3    H214923   5.431   1.699   1.644 -0.4779  1.2919 -0.5366
 4987TIP3   OH214924   5.445   2.341   5.503 -0.2878 -0.0697 -0.3552
 4987TIP3    H114925   5.458   2.435   5.510  1.8933 -0.4170  0.9620
 4987TIP3    H214926   5.533   2.303   5.506 -1.1732 -2.2423  0.9204
 4988TIP3   OH214927   6.222   4.611   5.771  0.2278 -0.8861  0.0618
 4988TIP3    H114928   6.198   4.638   5.682  0.2166  0.0215  0.3372
 4988TIP3    H214929   6.139   4.611   5.819  0.0513 -2.4366 -0.1739
 4989TIP3   OH214930   1.008   5.457   3.226 -0.0651  0.2891 -0.1588
 4989TIP3    H114931   1.054   5.411   3.156 -1.6027 -0.6599 -0.5927
 4989TIP3    H214932   1.022   5.550   3.208 -0.0434  0.0495 -1.4474
 4990TIP3   OH214933   5.470   2.132   2.295  0.0327 -0.0365 -0.9110
 4990TIP3    H114934   5.434   2.221   2.285 -0.8551 -0.1730  0.7165
 4990TIP3    H214935   5.562   2.141   2.272  0.0551  1.4090 -0.3454
 4991TIP3   OH214936   0.609   1.554   5.175 -1.1295 -0.6035  0.1098
 4991TIP3    H114937   0.530   1.601   5.147 -0.8721 -1.2475 -1.7906
 4991TIP3    H214938   0.576   1.472   5.213 -1.3916 -0.8412 -0.6153
 4992TIP3   OH214939   5.220   3.145   3.091 -0.3927  0.1820  0.0548
 4992TIP3    H114940   5.229   3.127   3.185 -1.1969 -0.5243  0.0081
 4992TIP3    H214941   5.253   3.065   3.048  1.4560  1.0880 -0.3309
 4993TIP3   OH214942   3.945   5.698   0.909  0.0558  0.2718 -0.5023
 4993TIP3    H114943   4.019   5.669   0.857  0.1561  0.7479 -0.6353
 4993TIP3    H214944   3.875   5.712   0.846 -0.6426 -1.6433 -0.2159
 4994TIP3   OH214945   5.851   4.270   1.740 -0.0895 -0.6213 -0.2928
 4994TIP3    H114946   5.774   4.316   1.708  1.4610  0.8681 -2.1710
 4994TIP3    H214947   5.909   4.264   1.664  1.2258 -2.6323  0.7738
 4995TIP3   OH214948   5.870   2.808   0.348 -0.0903  0.5015 -0.2038
 4995TIP3    H114949   5.893   2.846   0.263 -0.0942 -0.0855 -0.4710
 4995TIP3    H214950   5.949   2.760   0.374 -0.2599  0.2794 -0.1036
 4996TIP3   OH214951   4.302   4.090   5.083  0.2709  0.0734  0.4788
 4996TIP3    H114952   4.331   4.137   5.161  0.9181 -2.5482  1.9502
 4996TIP3    H214953   4.211   4.066   5.101 -0.4387  1.6348 -0.7602
 4997TIP3   OH214954   4.756   2.427   5.432 -0.2676 -0.3788 -0.8761
 4997TIP3    H114955   4.832   2.482   5.412 -1.4264  1.7111  0.1494
 4997TIP3    H214956   4.791   2.360   5.491  1.0227 -0.1995 -1.3921
 4998TIP3   OH214957   1.398   3.285   2.335  0.3116  0.1618 -0.2843
 4998TIP3    H114958   1.403   3.238   2.252  1.0059  2.2419 -1.4965
 4998TIP3    H214959   1.410   3.377   2.311 -2.7660  1.2270  1.7120
 4999TIP3   OH214960   3.261   5.454   5.579  0.0946  0.0308  0.1169
 4999TIP3    H114961   3.342   5.414   5.610  1.4471  1.7814 -0.9928
 4999TIP3    H214962   3.220   5.386   5.525  0.3332 -1.1952  1.4177
 5000TIP3   OH214963   0.019   6.465   0.179 -0.2057  1.0732 -0.2341
 5000TIP3    H114964  -0.032   6.498   0.105 -0.3249  0.6187 -0.3609
 5000TIP3    H214965   0.090   6.415   0.139 -0.8098  0.0243 -0.0552
 5001TIP3   OH214966   4.734   5.240   5.432  0.6315  0.9627  0.1004
 5001TIP3    H114967   4.772   5.280   5.510 -0.5635  0.4808  0.9643
 5001TIP3    H214968   4.750   5.146   5.442  1.7088  1.0083 -0.9557
 5002TIP3   OH214969   2.666   4.218   2.598 -0.2068 -0.3425 -0.4693
 5002TIP3    H114970   2.683   4.189   2.688 -0.0002 -0.0373 -0.4101
 5002TIP3    H214971   2.572   4.236   2.596  0.0523  1.2664  0.1662
 5003TIP3   OH214972   5.342   0.110   4.245  0.6192 -0.2772 -0.6604
 5003TIP3    H114973   5.338   0.180   4.180  0.2435 -0.8495 -1.2704
 5003TIP3    H214974   5.387   0.148   4.320 -0.1158  0.8013 -0.7520
 5004TIP3   OH214975   3.088   3.143   2.977 -0.1784 -0.6943 -0.5902
 5004TIP3    H114976   3.065   3.094   2.898 -0.1199 -0.8498 -0.5104
 5004TIP3    H214977   3.096   3.077   3.045 -4.1120 -0.3106  0.5260
 5005TIP3   OH214978   1.338   6.084   5.640  0.0531 -0.8660  0.0092
 5005TIP3    H114979   1.369   6.025   5.572 -0.6577 -0.4276 -0.7226
 5005TIP3    H214980   1.250   6.109   5.612 -0.0454 -0.2463  0.8105
 5006TIP3   OH214981   7.205   2.099   1.367 -0.1536  0.3342 -0.0672
 5006TIP3    H114982   7.194   2.049   1.447 -1.1840  0.7012  0.0385
 5006TIP3    H214983   7.158   2.049   1.300 -2.5755  1.8732  0.3610
 5007TIP3   OH214984   2.992   4.168   1.808  0.2111 -0.3096 -0.0588
 5007TIP3    H114985   3.046   4.218   1.869  0.1243  0.1211 -0.3285
 5007TIP3    H214986   3.036   4.179   1.723  0.7685 -1.5465  0.0563
 5008TIP3   OH214987   1.274   6.267   2.522 -0.3131 -0.2635 -0.1133
 5008TIP3    H114988   1.201   6.269   2.583 -0.5508 -1.0859 -0.3526
 5008TIP3    H214989   1.250   6.199   2.458  1.1224 -1.2951  0.3891
 5009TIP3   OH214990   6.401   6.729   4.548 -0.3632  0.1248  0.0158
 5009TIP3    H114991   6.449   6.811   4.546 -0.1810 -0.0005 -1.3726
 5009TIP3    H214992   6.310   6.754   4.536 -0.4231  0.1973  0.5990
 5010TIP3   OH214993   1.828   3.986   2.867  0.3978 -0.0648 -0.2967
 5010TIP3    H114994   1.796   3.896   2.857 -1.3753  0.5320 -0.3674
 5010TIP3    H214995   1.822   4.023   2.779 -0.2631  0.5291 -0.0151
 5011TIP3   OH214996   1.599   1.392   0.370  0.1051 -0.2133  0.3335
 5011TIP3    H114997   1.652   1.339   0.311  0.3109  0.1051  0.2322
 5011TIP3    H214998   1.633   1.372   0.457  1.0089  0.6695  0.2023
 5012TIP3   OH214999   6.370   3.351   1.824  0.1394  0.3260 -0.2083
 5012TIP3    H115000   6.352   3.439   1.856 -1.6153  0.7711 -2.1867
 5012TIP3    H215001   6.385   3.299   1.903 -0.1641  2.1079  1.0751
 5013TIP3   OH215002   6.714   4.654   3.694 -0.0413 -0.1176  0.2783
 5013TIP3    H115003   6.724   4.706   3.615 -2.6380 -0.5084 -0.3990
 5013TIP3    H215004   6.680   4.569   3.663  0.6133 -0.9290  1.6581
 5014TIP3   OH215005   5.984   0.152   2.599  0.1427 -0.1507 -0.2011
 5014TIP3    H115006   6.019   0.229   2.644 -0.0781  0.1650 -0.5622
 5014TIP3    H215007   6.061   0.098   2.580  0.0963 -1.1271  2.0623
 5015TIP3   OH215008   4.083   1.308   5.211  0.1343 -0.0882 -0.0332
 5015TIP3    H115009   4.163   1.348   5.179 -0.6345  0.0876 -1.8652
 5015TIP3    H215010   4.112   1.229   5.257  1.2923 -1.1106 -2.3546
 5016TIP3   OH215011   1.473   5.365   0.276  0.3839 -0.2131  0.1282
 5016TIP3    H115012   1.393   5.357   0.224 -0.6061  1.9497  1.1969
 5016TIP3    H215013   1.501   5.275   0.290 -2.3722 -1.1239  0.4675
 5017TIP3   OH215014   0.806   2.011   1.882  0.2291 -0.3307 -0.9737
 5017TIP3    H115015   0.867   2.085   1.892  0.9676 -1.1359  1.2030
 5017TIP3    H215016   0.784   1.986   1.972 -2.8317 -0.5279 -1.6513
 5018TIP3   OH215017   5.257   3.351   5.324  0.0497  0.6914  0.1934
 5018TIP3    H115018   5.351   3.333   5.327  0.0317  0.6757  1.9211
 5018TIP3    H215019   5.250   3.442   5.296  0.5733  0.6505 -0.0737
 5019TIP3   OH215020   7.105   6.291   5.790 -0.4048  0.4216  0.0668
 5019TIP3    H115021   7.094   6.227   5.720  1.8771 -0.9664  0.8546
 5019TIP3    H215022   7.170   6.352   5.758 -0.0149  0.3060  0.6177
 5020TIP3   OH215023   6.941   0.491   3.847  0.5482  0.3052 -0.1863
 5020TIP3    H115024   7.019   0.523   3.892 -0.5251 -0.8821  2.8324
 5020TIP3    H215025   6.868   0.539   3.887 -0.5757 -1.6826  0.3584
 5021TIP3   OH215026   5.110   5.758   0.307 -0.6144 -0.0840  0.1096
 5021TIP3    H115027   5.182   5.697   0.324 -0.7899 -0.8317 -1.6541
 5021TIP3    H215028   5.090   5.747   0.214 -2.8661  0.2682  0.4982
 5022TIP3   OH215029   6.760   4.427   1.096 -0.2539 -0.3619  0.2714
 5022TIP3    H115030   6.811   4.483   1.039 -0.1587  0.6303  1.2934
 5022TIP3    H215031   6.687   4.481   1.124 -1.8694 -1.7334 -1.0924
 5023TIP3   OH215032   2.065   2.641   2.793  0.3544  0.2936 -0.2174
 5023TIP3    H115033   2.096   2.602   2.875  2.2980  0.8105 -0.6573
 5023TIP3    H215034   1.986   2.593   2.772  0.7181 -0.9533  1.1173
 5024TIP3   OH215035   0.715   3.711   2.170  0.0569  0.0781  0.0417
 5024TIP3    H115036   0.686   3.781   2.112 -1.2667 -0.4912 -0.0278
 5024TIP3    H215037   0.788   3.748   2.219 -0.2220  1.2949 -0.4377
 5025TIP3   OH215038   2.081   2.153   3.273 -0.2975 -0.0887  0.1578
 5025TIP3    H115039   2.085   2.191   3.360 -3.1943  0.6437  0.0563
 5025TIP3    H215040   2.142   2.079   3.276  1.3280  1.2272  2.0536
 5026TIP3   OH215041   6.422   6.017   1.104 -0.9629  0.3851  0.3340
 5026TIP3    H115042   6.446   6.064   1.184  0.3195  0.0885  0.1464
 5026TIP3    H215043   6.482   5.942   1.102 -0.8551  0.4933 -1.0021
 5027TIP3   OH215044   5.448   0.210   3.342  0.4325  0.0464 -0.6905
 5027TIP3    H115045   5.425   0.288   3.291  1.0462  2.0973  1.9590
 5027TIP3    H215046   5.417   0.137   3.288  1.1386  1.9652 -4.0034
 5028TIP3   OH215047   4.443   5.521   0.888  0.2138  0.2468  0.2248
 5028TIP3    H115048   4.522   5.490   0.845 -0.2598 -1.0532  0.2688
 5028TIP3    H215049   4.474   5.591   0.946  1.0424  1.1097 -1.1900
 5029TIP3   OH215050   4.717   1.944   2.579 -0.7660 -0.1855  0.0401
 5029TIP3    H115051   4.776   1.901   2.517 -0.3468 -0.0648  0.3508
 5029TIP3    H215052   4.768   2.016   2.614 -1.1311 -0.0295  0.2545
 5030TIP3   OH215053   2.190   3.205   0.655 -0.2853 -0.4407 -0.0925
 5030TIP3    H115054   2.204   3.112   0.675 -0.8253 -0.3193  0.9319
 5030TIP3    H215055   2.099   3.209   0.624 -1.2018  0.0790  2.4138
 5031TIP3   OH215056   7.064   0.615   4.244  0.1659  0.4615 -0.0225
 5031TIP3    H115057   6.980   0.588   4.281  0.0965  1.2018  0.3700
 5031TIP3    H215058   7.046   0.622   4.150 -0.0269 -0.0369 -0.0296
 5032TIP3   OH215059   4.357   2.275   0.770  0.2699 -0.2562  0.1884
 5032TIP3    H115060   4.333   2.206   0.709 -0.9827  0.0185  0.3593
 5032TIP3    H215061   4.452   2.263   0.783  0.3094 -1.1216 -0.7765
 5033TIP3   OH215062   6.619   5.278   5.494  0.2849  0.2261  0.2555
 5033TIP3    H115063   6.667   5.346   5.541  1.5895  0.3477 -1.1819
 5033TIP3    H215064   6.582   5.323   5.417 -0.6258 -0.2595  0.3894
 5034TIP3   OH215065   1.589   4.293   0.851 -0.0238 -0.0099 -0.2593
 5034TIP3    H115066   1.633   4.315   0.769 -0.2518  1.0627 -0.0980
 5034TIP3    H215067   1.496   4.305   0.833 -0.1909 -1.1945 -0.2676
 5035TIP3   OH215068   2.894   4.681   1.456  0.4058  0.5788  0.3620
 5035TIP3    H115069   2.861   4.771   1.454 -0.7766  0.2045 -2.6983
 5035TIP3    H215070   2.933   4.668   1.369  2.1027 -1.3605  1.3298
 5036TIP3   OH215071   2.910   5.785   2.286  0.1795 -0.8213  0.9917
 5036TIP3    H115072   2.876   5.828   2.365 -0.8235  0.1009  0.0941
 5036TIP3    H215073   2.852   5.710   2.274 -0.1654 -0.5134  0.7047
 5037TIP3   OH215074   2.573   6.407   0.430 -0.4244 -0.6746 -0.3194
 5037TIP3    H115075   2.561   6.502   0.440 -0.1638 -0.8323  2.0819
 5037TIP3    H215076   2.503   6.380   0.371 -1.5492  0.7843  0.2827
 5038TIP3   OH215077   0.860   6.613   0.867  0.0041  0.3231  0.1588
 5038TIP3    H115078   0.845   6.655   0.782  1.8460 -0.3995 -0.5837
 5038TIP3    H215079   0.939   6.654   0.901 -0.0387 -0.2326  0.9575
 5039TIP3   OH215080   1.348   4.614   0.156 -0.5190  0.1920 -0.1569
 5039TIP3    H115081   1.428   4.607   0.207 -0.8396 -0.2866  0.2911
 5039TIP3    H215082   1.326   4.708   0.158  0.0433  0.3272 -0.3109
 5040TIP3   OH215083   2.036   4.426   2.869  0.1696 -0.3041  0.5725
 5040TIP3    H115084   1.960   4.398   2.919 -0.4525  0.3684  0.0153
 5040TIP3    H215085   2.054   4.353   2.810  0.0095 -0.4940  0.7579
 5041TIP3   OH215086   0.763   4.030   5.242  0.5430 -0.4063 -0.1881
 5041TIP3    H115087   0.767   3.975   5.163 -0.5782 -0.5283 -0.1710
 5041TIP3    H215088   0.688   4.087   5.228  1.5255  0.9655 -0.0772
 5042TIP3   OH215089   2.559   4.475   2.740 -0.1813  0.2009 -0.0173
 5042TIP3    H115090   2.643   4.493   2.698 -0.1307  1.1633  0.4884
 5042TIP3    H215091   2.579   4.410   2.807  0.2254  0.6672  0.3200
 5043TIP3   OH215092   3.060   3.591   5.356  0.6283  0.3828 -0.1417
 5043TIP3    H115093   3.042   3.663   5.295  0.0529  0.9377  0.6681
 5043TIP3    H215094   2.989   3.595   5.419 -0.2124 -1.8035 -0.8648
 5044TIP3   OH215095   6.803   1.611   3.851  0.5679  0.3422  0.0320
 5044TIP3    H115096   6.891   1.581   3.872  0.9318  1.8875  0.9234
 5044TIP3    H215097   6.812   1.661   3.770 -0.3202 -3.0919 -2.4018
 5045TIP3   OH215098   4.786   1.384   1.982  0.4148  0.4563  0.2316
 5045TIP3    H115099   4.780   1.303   2.033  1.0014  0.0140 -0.3653
 5045TIP3    H215100   4.794   1.454   2.047  0.8824 -0.0633  0.7485
 5046TIP3   OH215101   6.502   5.061   1.817  0.0169  0.2591 -0.2869
 5046TIP3    H115102   6.449   5.136   1.844 -1.2880 -0.0113 -1.9280
 5046TIP3    H215103   6.566   5.097   1.756 -0.1208  0.1525 -0.4948
 5047TIP3   OH215104   1.630   6.590   4.709 -0.1265 -0.3203  0.3857
 5047TIP3    H115105   1.714   6.544   4.711  0.1453  0.1524  0.1617
 5047TIP3    H215106   1.647   6.673   4.753  0.1227  0.7223 -1.5516
 5048TIP3   OH215107   5.757   4.960   0.491  0.2678 -0.3754 -0.0228
 5048TIP3    H115108   5.807   5.039   0.514  1.4017 -1.0258 -0.1950
 5048TIP3    H215109   5.792   4.892   0.548  2.2379 -1.7356 -2.6215
 5049TIP3   OH215110   3.649   2.719   0.144  0.1740 -0.0514 -0.3838
 5049TIP3    H115111   3.722   2.660   0.163 -1.1708 -1.7158 -0.1127
 5049TIP3    H215112   3.684   2.807   0.158  2.8174 -0.6096 -2.6533
 5050TIP3   OH215113   2.208   3.642   0.173 -0.1918 -0.4602 -0.5239
 5050TIP3    H115114   2.167   3.557   0.189  0.0302 -0.3010  1.0780
 5050TIP3    H215115   2.210   3.684   0.259  0.4344  0.8461 -1.1441
 5051TIP3   OH215116   6.330   6.453   2.380 -0.6048  0.4655 -0.0107
 5051TIP3    H115117   6.256   6.514   2.372 -2.2389 -1.5058 -0.7680
 5051TIP3    H215118   6.306   6.396   2.453  1.1393  1.0170  1.0239
 5052TIP3   OH215119   0.838   3.116   5.689 -0.3919 -0.1248 -0.0782
 5052TIP3    H115120   0.804   3.205   5.679 -1.2771 -0.0797  2.6113
 5052TIP3    H215121   0.932   3.128   5.700 -0.4794  0.4841  0.0640
 5053TIP3   OH215122   6.921   2.354   4.013 -0.0996 -0.0069 -0.0623
 5053TIP3    H115123   6.959   2.442   4.009 -3.5933  1.7059  0.5846
 5053TIP3    H215124   6.926   2.330   4.106  0.7286 -0.4434 -0.2166
 5054TIP3   OH215125   0.715   2.698   1.905  0.0417 -0.3780  0.5149
 5054TIP3    H115126   0.783   2.755   1.940  1.4924 -1.3455 -0.6170
 5054TIP3    H215127   0.644   2.757   1.880  1.3216  0.8873 -0.2155
 5055TIP3   OH215128   5.942   1.993   0.502  0.2616  0.2902 -0.3861
 5055TIP3    H115129   5.876   2.063   0.505 -1.6861 -1.3215 -2.2273
 5055TIP3    H215130   5.900   1.923   0.452  3.4249 -0.8379 -1.7072
 5056TIP3   OH215131   4.515   5.895   4.449 -0.2298  0.8432  0.2658
 5056TIP3    H115132   4.518   5.986   4.419 -1.6639  0.8335  0.0141
 5056TIP3    H215133   4.460   5.850   4.385 -0.3379  0.0107  0.9169
 5057TIP3   OH215134   2.480   1.449   1.218 -0.1252 -0.0064  0.2353
 5057TIP3    H115135   2.403   1.397   1.243  1.0040 -1.1537  1.5891
 5057TIP3    H215136   2.479   1.450   1.123 -3.1233  2.1127  0.1653
 5058TIP3   OH215137   1.930   0.206  -0.001  0.5789 -0.3162  0.4281
 5058TIP3    H115138   1.896   0.268  -0.066  0.0778 -2.0419 -1.0481
 5058TIP3    H215139   1.918   0.250   0.083 -1.4807  0.8440 -0.3922
 5059TIP3   OH215140   1.713   6.652   4.417 -0.1921 -0.2456 -0.0798
 5059TIP3    H115141   1.708   6.648   4.513  2.6963  0.0567  0.1817
 5059TIP3    H215142   1.727   6.562   4.390  0.5801 -0.1364 -0.0579
 5060TIP3   OH215143   0.455   2.591   2.767  0.8953  0.7544 -0.6117
 5060TIP3    H115144   0.485   2.552   2.849 -1.4590 -0.9812 -0.4696
 5060TIP3    H215145   0.462   2.685   2.781  1.8352  0.4757  1.0495
 5061TIP3   OH215146   6.573   1.867   1.339 -0.2488  0.1591  0.0507
 5061TIP3    H115147   6.653   1.824   1.370  0.7567  0.5139 -1.8585
 5061TIP3    H215148   6.574   1.953   1.381 -2.5990 -1.6351  4.3958
 5062TIP3   OH215149   1.985   1.216   2.845  0.0595 -0.0888 -0.0033
 5062TIP3    H115150   2.042   1.290   2.824 -0.8155  0.8581  0.8442
 5062TIP3    H215151   1.975   1.219   2.940  0.6270 -1.7889  0.1502
 5063TIP3   OH215152   6.298   2.923   4.781  0.1248  0.3442  0.4978
 5063TIP3    H115153   6.213   2.936   4.739  0.6965 -1.2280 -1.2832
 5063TIP3    H215154   6.292   2.836   4.821  0.5469  0.6577  1.2536
 5064TIP3   OH215155   1.177   6.429   4.561 -0.0611 -0.2508 -0.2188
 5064TIP3    H115156   1.156   6.488   4.634  0.5046  1.0416 -1.0774
 5064TIP3    H215157   1.266   6.453   4.535  0.3595 -1.7908 -0.3211
 5065TIP3   OH215158   0.980   6.576   3.640  0.1402  0.0769 -0.1416
 5065TIP3    H115159   1.071   6.601   3.654  0.4532 -1.4540  0.8480
 5065TIP3    H215160   0.980   6.480   3.648 -1.5114  0.0199 -0.4137
 5066TIP3   OH215161   5.526   4.711   4.776  0.2703 -0.3984  0.1765
 5066TIP3    H115162   5.561   4.693   4.863 -0.8598 -2.2519  0.3019
 5066TIP3    H215163   5.483   4.629   4.750  1.1979 -0.1429 -2.4348
 5067TIP3   OH215164   2.085   3.580   0.662 -0.4356  0.4091  0.1132
 5067TIP3    H115165   2.133   3.625   0.731 -0.4394 -0.1366  0.4851
 5067TIP3    H215166   1.996   3.570   0.697 -1.0673  2.1015 -0.8808
 5068TIP3   OH215167   3.100   5.618   4.914  0.1705  0.0705  0.0890
 5068TIP3    H115168   3.150   5.585   4.839 -0.2801 -0.6639  0.1022
 5068TIP3    H215169   3.065   5.702   4.884  0.0202 -0.2048 -0.5084
 5069TIP3   OH215170   6.225   1.963   4.339  0.1286 -0.9028  0.2484
 5069TIP3    H115171   6.277   2.041   4.322 -1.8902  0.7139  1.0334
 5069TIP3    H215172   6.197   1.933   4.252  0.0881 -0.1171 -0.0184
 5070TIP3   OH215173   0.646   1.311   2.595 -0.5117 -0.2743  0.5692
 5070TIP3    H115174   0.704   1.354   2.533  1.6734 -1.7763  1.4576
 5070TIP3    H215175   0.632   1.375   2.665 -0.8336  0.4747 -0.1758
 5071TIP3   OH215176   0.617   6.302   1.621  0.8147  0.2647 -0.4508
 5071TIP3    H115177   0.705   6.308   1.584  1.1158 -0.5085  0.1160
 5071TIP3    H215178   0.574   6.234   1.569  1.0485 -0.4158  0.2450
 5072TIP3   OH215179   4.375   4.790   5.339  0.7538  0.1155 -0.0770
 5072TIP3    H115180   4.406   4.731   5.271  1.9485  1.2823 -0.5829
 5072TIP3    H215181   4.280   4.793   5.327  0.8970 -0.0711 -1.3651
 5073TIP3   OH215182   1.988   4.180   4.163  0.6011  0.0615 -0.3022
 5073TIP3    H115183   1.961   4.194   4.254 -0.7183  1.7726 -0.9048
 5073TIP3    H215184   2.035   4.259   4.139  0.9543 -0.3861 -1.1162
 5074TIP3   OH215185   1.461   5.133   3.275 -0.2154  0.0360  0.8276
 5074TIP3    H115186   1.521   5.201   3.304  0.6377 -0.6052  0.6053
 5074TIP3    H215187   1.483   5.120   3.182 -0.3478 -0.5581  0.8753
 5075TIP3   OH215188   3.985   0.632   0.383  1.0892  0.0101  0.5555
 5075TIP3    H115189   4.057   0.577   0.414  0.6646 -1.0295 -0.2618
 5075TIP3    H215190   3.939   0.658   0.463  1.3526 -0.7489  0.9589
 5076TIP3   OH215191   4.879   0.233   5.837  0.3628  0.1212 -0.0702
 5076TIP3    H115192   4.895   0.160   5.777 -0.2707 -1.8800  2.0102
 5076TIP3    H215193   4.797   0.272   5.806  0.6264 -0.1479 -1.1321
 5077TIP3   OH215194   4.573   2.129   1.630 -0.1128  0.8692 -0.0623
 5077TIP3    H115195   4.484   2.102   1.653  0.8992 -1.9663  0.9830
 5077TIP3    H215196   4.594   2.200   1.690 -1.5460  1.3875 -0.1389
 5078TIP3   OH215197   3.959   4.193   3.463  0.5731 -0.2468  0.5211
 5078TIP3    H115198   3.946   4.274   3.512  1.4509  0.2235  0.0054
 5078TIP3    H215199   3.951   4.218   3.371 -0.1846 -0.9503  0.3821
 5079TIP3   OH215200   0.061   6.421   4.617  0.8272 -0.0892  0.7154
 5079TIP3    H115201   0.141   6.387   4.658  0.8338 -1.1397 -0.1149
 5079TIP3    H215202   0.021   6.475   4.684  1.2020 -1.1704  1.8610
 5080TIP3   OH215203   5.284   1.433   2.202  0.1495  0.0487 -0.2525
 5080TIP3    H115204   5.290   1.421   2.297  0.5417  1.5814 -0.0558
 5080TIP3    H215205   5.196   1.469   2.187 -0.5577 -1.7533 -0.6880
 5081TIP3   OH215206   6.865   6.456   1.112  0.1009 -0.0719 -0.1829
 5081TIP3    H115207   6.872   6.445   1.207 -1.3351  0.5752  0.0200
 5081TIP3    H215208   6.776   6.487   1.098  0.6315  0.8803 -1.6583
 5082TIP3   OH215209   6.453   6.113   3.142  0.2610  0.1721  0.1242
 5082TIP3    H115210   6.398   6.185   3.112 -0.5112 -0.1517  0.7372
 5082TIP3    H215211   6.456   6.123   3.237  0.3847 -0.4441  0.1882
 5083TIP3   OH215212   3.029   2.069   2.326 -0.1420  0.6509 -0.7698
 5083TIP3    H115213   3.055   1.978   2.311 -0.4116  0.3235  0.6445
 5083TIP3    H215214   3.111   2.119   2.318  0.5046 -0.0450  0.9959
 5084TIP3   OH215215   2.652   1.891   5.313 -0.0337  0.2075 -0.2197
 5084TIP3    H115216   2.611   1.969   5.277 -0.1296  0.1427 -0.2492
 5084TIP3    H215217   2.709   1.859   5.242 -0.5198 -0.1437 -0.4587
 5085TIP3   OH215218   6.461   5.289   2.458 -0.2976 -0.2833 -0.2862
 5085TIP3    H115219   6.399   5.227   2.496 -0.9094  0.8056  0.5662
 5085TIP3    H215220   6.465   5.361   2.521 -0.1301  0.8597 -1.5331
 5086TIP3   OH215221   2.135   6.387   0.448  0.7025  0.4092 -0.4817
 5086TIP3    H115222   2.212   6.393   0.392  0.1511 -0.1826 -1.3374
 5086TIP3    H215223   2.128   6.293   0.469  0.6576  0.5679  0.2266
 5087TIP3   OH215224   0.099   2.155   4.852  0.2449 -0.1158 -0.2462
 5087TIP3    H115225   0.061   2.197   4.775  0.0872  0.0343 -0.0866
 5087TIP3    H215226   0.027   2.105   4.891 -0.4557  2.0003  1.3671
 5088TIP3   OH215227   4.152   6.436   2.788 -0.4290 -0.3728  0.0491
 5088TIP3    H115228   4.174   6.432   2.881  1.2818 -1.6392 -0.3738
 5088TIP3    H215229   4.082   6.371   2.777 -0.5148 -0.3429  0.4116
 5089TIP3   OH215230   0.722   6.336   4.779  0.1824 -0.2327 -0.1964
 5089TIP3    H115231   0.809   6.314   4.748  1.1977  1.3622  1.3116
 5089TIP3    H215232   0.735   6.363   4.870 -1.6147  1.5953 -0.3967
 5090TIP3   OH215233   6.764   6.554   4.221 -0.4389  0.6684 -0.1288
 5090TIP3    H115234   6.839   6.608   4.195  1.3298 -1.4718  0.2883
 5090TIP3    H215235   6.760   6.563   4.316 -0.9729  1.0480 -0.1801
 5091TIP3   OH215236   4.261   6.506   3.429  0.0285 -0.0946 -0.3147
 5091TIP3    H115237   4.240   6.446   3.501  1.3497  0.7168  0.7886
 5091TIP3    H215238   4.205   6.583   3.444 -0.0258 -0.1094 -0.4347
 5092TIP3   OH215239   6.459   6.060   2.027  0.1293 -0.3988 -0.0889
 5092TIP3    H115240   6.451   6.119   2.103 -0.3683 -1.8786  1.0443
 5092TIP3    H215241   6.372   6.061   1.987 -0.1250 -1.0393  0.4463
 5093TIP3   OH215242   3.163   1.971   1.913  0.5033  0.1510 -0.0662
 5093TIP3    H115243   3.150   2.050   1.965 -0.8497  0.6516 -1.0906
 5093TIP3    H215244   3.117   1.902   1.961  1.0875  0.1294  0.4691
 5094TIP3   OH215245   2.261   2.019   2.603 -0.0249  0.2118 -0.3140
 5094TIP3    H115246   2.263   2.045   2.511 -0.6724  0.6528 -0.2156
 5094TIP3    H215247   2.348   1.983   2.620  0.6620  1.6382 -0.6562
 5095TIP3   OH215248   2.510   0.930   2.872  0.1369 -0.0644 -0.1545
 5095TIP3    H115249   2.557   0.994   2.924  0.1182 -0.9050  0.9257
 5095TIP3    H215250   2.531   0.846   2.912 -0.5463 -0.6572 -0.9950
 5096TIP3   OH215251   4.215   4.140   2.298  0.2177  0.4551  0.8106
 5096TIP3    H115252   4.279   4.139   2.226  0.3311 -0.0204  0.9142
 5096TIP3    H215253   4.208   4.232   2.322 -0.4941  0.7527 -0.4128
 5097TIP3   OH215254   6.082   1.946   1.765  0.7985 -0.7192  0.6000
 5097TIP3    H115255   5.989   1.923   1.771  0.5503 -0.8915 -2.4547
 5097TIP3    H215256   6.083   2.041   1.756  0.5396 -0.9245 -2.7887
 5098TIP3   OH215257   0.341   3.749   4.848  0.1869  0.4889  0.1537
 5098TIP3    H115258   0.337   3.659   4.815  0.6075  0.6650 -0.3906
 5098TIP3    H215259   0.249   3.774   4.859  0.0703 -0.0688  0.4839
 5099TIP3   OH215260   0.061   5.646   5.555  0.2856 -0.2070  0.0284
 5099TIP3    H115261  -0.007   5.607   5.500 -0.8325 -0.7785  1.7546
 5099TIP3    H215262   0.030   5.734   5.574  1.4487  0.5887 -1.5123
 5100TIP3   OH215263   3.455   5.654   5.617 -0.1464 -0.4296  0.2572
 5100TIP3    H115264   3.509   5.620   5.546 -0.5308  0.2960 -0.4013
 5100TIP3    H215265   3.368   5.618   5.601 -0.9642  2.0174 -1.3870
 5101TIP3   OH215266   4.868   2.389   4.253  0.3724  0.4677 -0.5681
 5101TIP3    H115267   4.807   2.318   4.232 -1.3980  2.1533 -1.3978
 5101TIP3    H215268   4.883   2.433   4.170  1.7091  0.8883 -0.1215
 5102TIP3   OH215269   1.247   3.018   5.149 -0.2464 -0.6992 -0.4737
 5102TIP3    H115270   1.277   3.106   5.171  2.3351 -1.5633 -0.1670
 5102TIP3    H215271   1.217   3.025   5.058  0.8758  0.3426 -0.7966
 5103TIP3   OH215272   1.941   3.612   2.888 -0.2019 -0.0431  0.0277
 5103TIP3    H115273   1.930   3.519   2.870  3.0520 -0.2333 -1.6668
 5103TIP3    H215274   2.005   3.616   2.959 -1.4247  0.9795  1.1532
 5104TIP3   OH215275   5.387   3.217   1.062 -0.3206 -0.0296 -0.0956
 5104TIP3    H115276   5.362   3.276   1.133 -1.0785 -1.0038  0.4693
 5104TIP3    H215277   5.432   3.273   0.998 -2.1760  1.4183 -0.2052
 5105TIP3   OH215278   1.847   3.617   3.445  0.5347  0.1132  0.0385
 5105TIP3    H115279   1.853   3.645   3.354 -1.8189  0.8350  0.0357
 5105TIP3    H215280   1.900   3.680   3.493  2.7630 -0.9485 -0.8743
 5106TIP3   OH215281   2.631   4.904   4.275  0.3329 -0.3938 -0.2453
 5106TIP3    H115282   2.558   4.884   4.334 -0.9381  1.1958 -1.1951
 5106TIP3    H215283   2.624   4.838   4.206  0.6023 -1.0338  0.3284
 5107TIP3   OH215284   5.592   6.296   0.954 -0.1247  0.6214 -0.4483
 5107TIP3    H115285   5.576   6.282   1.048 -1.7301  0.1031 -0.7848
 5107TIP3    H215286   5.685   6.275   0.943 -0.4776 -1.7885  0.5917
 5108TIP3   OH215287   6.990   5.899   5.034  0.1275  0.3597  0.2536
 5108TIP3    H115288   7.006   5.968   5.098  0.2647 -0.8369  1.5588
 5108TIP3    H215289   7.073   5.851   5.030 -1.0867 -2.1926  2.4900
 5109TIP3   OH215290   4.981   4.077   3.786  0.0346  0.2969 -0.3261
 5109TIP3    H115291   4.919   4.032   3.728  1.2962 -1.1030 -0.6438
 5109TIP3    H215292   4.940   4.072   3.873  0.4775 -2.3096 -0.1705
 5110TIP3   OH215293   6.711   0.718   4.260  0.3460 -0.3212  0.4122
 5110TIP3    H115294   6.683   0.719   4.352 -2.4185 -1.8536 -0.3029
 5110TIP3    H215295   6.782   0.654   4.257  1.1351  0.4650  1.6181
 5111TIP3   OH215296   0.926   5.021   4.807  0.4443  0.0527 -0.0864
 5111TIP3    H115297   0.993   5.064   4.860  1.0329 -0.5613 -0.3161
 5111TIP3    H215298   0.932   4.929   4.831  0.4883 -0.1822 -0.9632
 5112TIP3   OH215299   1.554   2.285   1.714  0.3098 -0.0868  0.2531
 5112TIP3    H115300   1.546   2.206   1.769 -1.1196 -0.4606 -0.4280
 5112TIP3    H215301   1.556   2.357   1.777 -1.3045 -0.5017  0.8447
 5113TIP3   OH215302   2.661   3.407   3.320  0.2955 -0.2439  0.1316
 5113TIP3    H115303   2.668   3.438   3.230  0.8492 -0.2234  0.1789
 5113TIP3    H215304   2.568   3.418   3.343  0.6419  2.4281  0.5396
 5114TIP3   OH215305   0.279   6.258   0.878  0.1161  0.0463 -0.5982
 5114TIP3    H115306   0.329   6.327   0.835  1.3954  0.1131  0.8873
 5114TIP3    H215307   0.317   6.253   0.966 -1.4552 -1.0183  0.0581
 5115TIP3   OH215308   6.500   5.466   1.668  0.0008  0.0445  0.2959
 5115TIP3    H115309   6.455   5.521   1.603 -0.0547 -0.6294 -0.2446
 5115TIP3    H215310   6.558   5.526   1.714  0.3230  0.4640 -0.6369
 5116TIP3   OH215311   2.267   1.023   1.659  0.1208  0.4267  0.2355
 5116TIP3    H115312   2.318   1.038   1.739  0.5248  0.6451 -0.0580
 5116TIP3    H215313   2.179   1.053   1.680  0.1011  0.0196  0.7617
 5117TIP3   OH215314   2.852   3.307   4.978 -0.2873  0.4172 -0.2177
 5117TIP3    H115315   2.762   3.298   4.950 -1.3937 -0.8212  3.1851
 5117TIP3    H215316   2.848   3.368   5.052  0.9668 -2.2082  2.2187
 5118TIP3   OH215317   3.212   1.408   1.515  0.2545  0.2258 -0.0760
 5118TIP3    H115318   3.126   1.402   1.555  0.2431  1.0440  0.0368
 5118TIP3    H215319   3.261   1.333   1.551 -1.1929 -1.8879 -2.1695
 5119TIP3   OH215320   1.486   2.658   1.916 -0.8585 -0.3143 -0.0123
 5119TIP3    H115321   1.480   2.660   1.821  2.0098  1.1989 -0.2693
 5119TIP3    H215322   1.549   2.588   1.935  0.8155  1.2421  0.4883
 5120TIP3   OH215323   1.793   4.307   2.893  0.1229 -0.1492  0.3841
 5120TIP3    H115324   1.700   4.316   2.912 -0.9876 -0.6604 -3.6779
 5120TIP3    H215325   1.816   4.220   2.926 -1.2545 -0.5665  0.3305
 5121TIP3   OH215326   6.188   5.568   2.616 -0.1399  0.1248  0.1193
 5121TIP3    H115327   6.232   5.613   2.544 -0.0390  1.5531  1.0161
 5121TIP3    H215328   6.259   5.538   2.672 -0.2476  0.4131  0.4126
 5122TIP3   OH215329   4.502   4.292   2.574  0.3452  0.0085 -0.5860
 5122TIP3    H115330   4.484   4.208   2.533  0.1311 -1.1358  1.7436
 5122TIP3    H215331   4.558   4.338   2.511 -0.1207 -1.5575 -2.2100
 5123TIP3   OH215332   5.338   2.839   3.593  0.3144  0.1849  0.0200
 5123TIP3    H115333   5.381   2.753   3.588  2.0870  0.9791  0.6512
 5123TIP3    H215334   5.411   2.901   3.600 -0.9662  1.6149  1.2715
 5124TIP3   OH215335   0.968   0.547   3.939  0.1590 -0.2148  0.0518
 5124TIP3    H115336   1.022   0.575   3.866  0.1254 -0.0508  0.0906
 5124TIP3    H215337   0.983   0.452   3.945 -0.5771 -0.3944 -0.7688
 5125TIP3   OH215338   1.169   1.831   1.471  0.4286  0.1192  0.0011
 5125TIP3    H115339   1.175   1.826   1.566 -0.9287 -1.9763  0.0521
 5125TIP3    H215340   1.083   1.870   1.454 -0.0866 -1.1001 -0.3100
 5126TIP3   OH215341   1.512   2.094   1.975  0.0385 -0.0203  0.2225
 5126TIP3    H115342   1.539   2.094   2.067 -1.1840 -1.9589  0.6330
 5126TIP3    H215343   1.551   2.015   1.938 -0.3992  0.1492 -0.6482
 5127TIP3   OH215344   5.729   4.962   3.788 -0.1984 -0.2158 -0.6336
 5127TIP3    H115345   5.724   4.868   3.805  0.4174 -0.7968 -3.2499
 5127TIP3    H215346   5.821   4.978   3.767 -0.5748  0.6640 -1.7031
 5128TIP3   OH215347   5.664   4.966   2.616  0.2308 -0.1329 -0.2589
 5128TIP3    H115348   5.715   4.971   2.535  0.2520 -0.1195 -0.2446
 5128TIP3    H215349   5.573   4.968   2.587  0.2258 -0.9718 -0.3436
 5129TIP3   OH215350   3.776   1.588   5.002  0.2406  0.3501  0.5966
 5129TIP3    H115351   3.807   1.646   5.071  2.1294  1.3350 -0.9665
 5129TIP3    H215352   3.854   1.538   4.976 -1.2258 -2.7319  1.6305
 5130TIP3   OH215353   2.434   3.291   2.436  0.0689  0.1396 -0.4309
 5130TIP3    H115354   2.484   3.210   2.448 -1.6966 -1.2110 -1.6165
 5130TIP3    H215355   2.384   3.300   2.518  0.2029 -0.0320 -0.3305
 5131TIP3   OH215356   1.145   0.069   2.185 -0.0847  0.1449 -0.6526
 5131TIP3    H115357   1.195   0.132   2.133  0.0677  0.7444  0.2009
 5131TIP3    H215358   1.097   0.018   2.120 -0.9630  1.7762 -1.3500
 5132TIP3   OH215359   6.717   1.914   0.557  0.0249  0.0190  0.2834
 5132TIP3    H115360   6.628   1.949   0.557  0.0786  0.4005 -2.3955
 5132TIP3    H215361   6.711   1.834   0.505  1.3903  0.5548 -0.7607
 5133TIP3   OH215362   2.071   5.759   3.905  0.0925  0.0596 -0.2170
 5133TIP3    H115363   2.137   5.726   3.965  0.0798  2.3239  1.1628
 5133TIP3    H215364   2.108   5.747   3.818  1.7134 -0.0028  0.4633
 5134TIP3   OH215365   0.459   5.444   3.073 -0.1527  0.1171 -0.0163
 5134TIP3    H115366   0.412   5.410   3.149  0.0158  0.8269  0.4112
 5134TIP3    H215367   0.544   5.471   3.107  0.5387 -1.0355 -0.7657
 5135TIP3   OH215368   2.586   5.316   2.653  0.1590 -0.3694  0.4564
 5135TIP3    H115369   2.511   5.293   2.708 -1.8168  0.0778 -1.8781
 5135TIP3    H215370   2.598   5.410   2.667 -1.9655  0.2942 -1.5859
 5136TIP3   OH215371   5.195   4.011   1.696  0.3389  0.3012 -0.4243
 5136TIP3    H115372   5.247   4.083   1.661  1.1148  0.3744  0.8163
 5136TIP3    H215373   5.260   3.946   1.723 -0.2583 -0.0256  0.2579
 5137TIP3   OH215374  -0.019   6.706   0.678  0.0706  0.2902  0.1757
 5137TIP3    H115375   0.027   6.758   0.612  1.0496 -0.6211  0.1102
 5137TIP3    H215376   0.038   6.709   0.755  0.8560 -1.7875 -0.2677
 5138TIP3   OH215377   0.921   3.618   4.014 -0.2168 -0.1208 -0.3079
 5138TIP3    H115378   0.958   3.565   4.084  0.0968 -0.0505 -0.4179
 5138TIP3    H215379   0.826   3.609   4.024 -0.2100  0.7518  0.8005
 5139TIP3   OH215380   1.238   1.549   0.837 -0.7450 -0.1587 -0.0182
 5139TIP3    H115381   1.291   1.485   0.788 -1.3697 -1.2444  0.6844
 5139TIP3    H215382   1.156   1.555   0.788 -0.4815  0.5272 -0.3817
 5140TIP3   OH215383   7.007   5.842   2.374 -0.0823 -0.5470  0.8855
 5140TIP3    H115384   7.042   5.823   2.461 -1.5233 -0.5960  1.4948
 5140TIP3    H215385   7.012   5.758   2.328 -0.9522 -0.9855  1.5491
 5141TIP3   OH215386   4.811   2.609   2.967 -0.0122  0.5591  0.5123
 5141TIP3    H115387   4.745   2.627   3.034  1.4767  0.3122  2.1287
 5141TIP3    H215388   4.857   2.692   2.956  1.5130 -0.0367  1.8880
 5142TIP3   OH215389   2.303   3.986   5.271 -0.3312 -0.3237  0.1202
 5142TIP3    H115390   2.315   3.897   5.238  1.2544 -0.0494 -0.1392
 5142TIP3    H215391   2.285   4.039   5.193  0.3834 -0.1675  0.0513
 5143TIP3   OH215392   5.721   5.919   3.220  0.3523  0.2992  0.2759
 5143TIP3    H115393   5.714   5.876   3.306 -1.0622  1.6235  0.8670
 5143TIP3    H215394   5.800   5.973   3.228  0.8482 -0.4265  0.3439
 5144TIP3   OH215395   2.891   5.921   1.121  0.0162 -0.4836  0.5050
 5144TIP3    H115396   2.816   5.902   1.179  0.1701  0.3203  0.9898
 5144TIP3    H215397   2.862   5.996   1.069 -0.1456 -1.2444 -0.5341
 5145TIP3   OH215398   5.765   1.037   5.236  0.1145  0.3026  0.1079
 5145TIP3    H115399   5.797   1.068   5.151  0.1419  0.3009  0.1177
 5145TIP3    H215400   5.695   1.098   5.259 -1.2349 -0.8227 -0.8172
 5146TIP3   OH215401   1.533   4.240   5.276 -0.3505  0.2116  0.2504
 5146TIP3    H115402   1.593   4.269   5.206  0.5617 -2.6442 -0.3107
 5146TIP3    H215403   1.591   4.216   5.348 -1.0417  0.1333  0.7876
 5147TIP3   OH215404   2.515   0.098   0.884  0.7943  0.2787 -0.1295
 5147TIP3    H115405   2.521   0.144   0.800 -2.5321  0.2373 -0.5199
 5147TIP3    H215406   2.465   0.157   0.941 -1.3591 -1.6800  0.1630
 5148TIP3   OH215407   3.175   0.530   4.930 -0.5584  0.0167 -0.0754
 5148TIP3    H115408   3.102   0.497   4.877 -0.0909 -0.0743 -0.6812
 5148TIP3    H215409   3.197   0.457   4.988 -2.0473  0.6252  1.3325
 5149TIP3   OH215410   0.425   5.922   0.314 -0.3657  0.2130  0.0574
 5149TIP3    H115411   0.453   5.881   0.396 -0.8997  2.7725  1.6273
 5149TIP3    H215412   0.502   5.971   0.285 -0.6011  0.4151 -0.2211
 5150TIP3   OH215413   1.539   1.585   0.191 -0.0042 -0.2068 -0.6251
 5150TIP3    H115414   1.450   1.572   0.160 -1.1594  1.6582  1.6621
 5150TIP3    H215415   1.551   1.518   0.259 -0.0202  0.1563 -0.2620
 5151TIP3   OH215416   6.005   5.635   5.043  0.1357  0.1107 -0.2949
 5151TIP3    H115417   6.070   5.577   5.082 -0.5143 -0.3039  0.1844
 5151TIP3    H215418   6.006   5.613   4.950  0.6086  0.0358 -0.2748
 5152TIP3   OH215419   7.049   1.213   4.886  0.5191 -0.0032 -0.4934
 5152TIP3    H115420   6.958   1.197   4.909  0.3802 -0.2040 -1.1432
 5152TIP3    H215421   7.097   1.139   4.925  0.6474  0.9292  1.2203
 5153TIP3   OH215422   6.650   3.924   5.425  0.3801  0.2336  0.8901
 5153TIP3    H115423   6.584   3.985   5.390  1.4651  0.1141 -1.6243
 5153TIP3    H215424   6.682   3.967   5.504  0.6686  2.6952 -0.4480
 5154TIP3   OH215425   1.875   6.729   4.116  0.2006  0.2120  0.1996
 5154TIP3    H115426   1.784   6.753   4.128 -0.6339 -2.1914 -0.6877
 5154TIP3    H215427   1.907   6.789   4.048 -1.1048  0.2411 -0.4144
 5155TIP3   OH215428   1.263   3.147   3.810 -0.2495  0.1075  0.1894
 5155TIP3    H115429   1.202   3.076   3.794 -0.3051  0.0194  0.7737
 5155TIP3    H215430   1.298   3.130   3.898  2.0167 -0.8917 -0.8219
 5156TIP3   OH215431   7.115   6.073   3.476  0.6136  0.3183  0.2079
 5156TIP3    H115432   7.081   6.037   3.394  1.0823  1.4992 -0.5436
 5156TIP3    H215433   7.202   6.107   3.452  0.1110  2.1197  0.7699
 5157TIP3   OH215434   4.792   0.466   1.330 -0.1677  0.0869 -0.3574
 5157TIP3    H115435   4.715   0.455   1.275  0.3406 -1.8498 -0.7630
 5157TIP3    H215436   4.768   0.535   1.392 -2.1265 -0.3260 -0.5971
 5158TIP3   OH215437   1.221   4.104   4.191  0.9027  0.6362 -0.8546
 5158TIP3    H115438   1.252   4.052   4.117  1.4274  0.7697 -0.7320
 5158TIP3    H215439   1.277   4.182   4.191  1.8328 -0.0014  0.5206
 5159TIP3   OH215440   0.518   5.434   3.830  0.0181 -0.4413 -0.4001
 5159TIP3    H115441   0.504   5.466   3.741 -0.4411  0.4941 -0.0046
 5159TIP3    H215442   0.531   5.513   3.882  0.8827 -1.0106  0.2668
 5160TIP3   OH215443  -0.012   3.148   5.061 -0.0513 -0.2635 -0.3578
 5160TIP3    H115444   0.076   3.160   5.025  0.9420  1.2740  2.2677
 5160TIP3    H215445   0.002   3.095   5.140 -1.7467 -1.3858 -0.7621
 5161TIP3   OH215446   5.003   6.452   1.162  0.6553 -0.1897  0.0454
 5161TIP3    H115447   5.030   6.543   1.147 -0.7827  0.2181 -0.2601
 5161TIP3    H215448   4.932   6.459   1.226 -0.7698 -0.8915 -1.3854
 5162TIP3   OH215449   7.146   4.298   1.671  0.2287  0.1366 -0.3845
 5162TIP3    H115450   7.173   4.377   1.624  0.0789 -0.8158 -2.1684
 5162TIP3    H215451   7.107   4.243   1.603 -0.5887 -1.0570  1.0107
 5163TIP3   OH215452   1.417   5.026   0.952 -0.4932  0.6765 -0.2649
 5163TIP3    H115453   1.356   4.979   0.894  0.9404  0.6710 -1.8593
 5163TIP3    H215454   1.470   4.958   0.992 -1.1093  0.7166  0.6308
 5164TIP3   OH215455   5.763   4.088   4.659  0.4086  0.0831  0.0628
 5164TIP3    H115456   5.669   4.085   4.643  0.6864 -0.6202 -1.6732
 5164TIP3    H215457   5.795   4.161   4.606  0.8969  0.1028  0.3690
 5165TIP3   OH215458  -0.020   1.331   1.081  0.2521 -0.1099  0.6395
 5165TIP3    H115459   0.034   1.305   1.156  1.1832  0.4469  0.1685
 5165TIP3    H215460   0.042   1.354   1.013 -0.5396 -2.4748 -1.0214
 5166TIP3   OH215461   1.418   6.400   4.318 -0.3425  0.6590 -0.1177
 5166TIP3    H115462   1.422   6.329   4.382  0.2843  0.7719 -0.0268
 5166TIP3    H215463   1.416   6.480   4.371  2.4323  0.8907 -0.1764
 5167TIP3   OH215464   1.640   5.840   1.292 -0.0025  0.3266 -0.1459
 5167TIP3    H115465   1.621   5.931   1.271 -0.8392  0.1137 -0.3781
 5167TIP3    H215466   1.660   5.840   1.385  2.6431  1.1236 -0.6513
 5168TIP3   OH215467   5.396   6.129   1.236 -0.0503 -0.0475 -0.3352
 5168TIP3    H115468   5.321   6.177   1.201  0.0607  0.2205 -0.2065
 5168TIP3    H215469   5.378   6.037   1.214 -0.5179 -0.0126 -0.1230
 5169TIP3   OH215470   6.729   5.688   5.782  0.4657  0.4504  0.0847
 5169TIP3    H115471   6.686   5.745   5.719 -0.4057  0.1921  0.4383
 5169TIP3    H215472   6.697   5.600   5.762  0.3492  0.3331  0.7395
 5170TIP3   OH215473   5.244   3.765   0.878  0.0613 -0.3411  0.1571
 5170TIP3    H115474   5.336   3.779   0.902 -0.2369  1.4131  0.3933
 5170TIP3    H215475   5.196   3.830   0.929 -1.4387 -1.8066  0.7165
 5171TIP3   OH215476   6.810   1.892   5.413  0.3207  0.0196 -0.4236
 5171TIP3    H115477   6.839   1.800   5.419  0.7949  0.1702 -0.3569
 5171TIP3    H215478   6.830   1.916   5.322 -0.0929 -0.0380 -0.5290
 5172TIP3   OH215479   4.000   1.881   3.886  0.3536 -0.3594  0.1259
 5172TIP3    H115480   4.046   1.797   3.884 -2.4415 -2.1113  1.5459
 5172TIP3    H215481   3.922   1.866   3.833  0.1606  1.6094 -0.1881
 5173TIP3   OH215482   0.268   1.757   1.333 -0.1268  0.0982  0.0818
 5173TIP3    H115483   0.203   1.705   1.286  0.3076  0.0114 -0.4215
 5173TIP3    H215484   0.225   1.841   1.348 -1.0283 -0.5435  1.3451
 5174TIP3   OH215485   7.168   5.511   2.768 -0.5857 -0.2039  0.0691
 5174TIP3    H115486   7.146   5.516   2.861  0.9247 -0.5757  0.4683
 5174TIP3    H215487   7.185   5.418   2.753  0.4320  0.0253 -0.2557
 5175TIP3   OH215488   1.849   0.509   2.641  0.4464 -0.6984  0.1655
 5175TIP3    H115489   1.923   0.498   2.701  0.5152 -0.5622  0.1052
 5175TIP3    H215490   1.820   0.419   2.623 -0.7849 -0.6794  1.8795
 5176TIP3   OH215491   0.177   3.100   0.821 -0.0974  0.0441  0.2015
 5176TIP3    H115492   0.142   3.064   0.739  3.2699 -1.0452 -0.9331
 5176TIP3    H215493   0.161   3.194   0.814 -0.6144 -0.1158 -1.3205
 5177TIP3   OH215494   6.342   5.698   2.422 -0.1245  0.1731 -1.0739
 5177TIP3    H115495   6.378   5.639   2.357 -0.9055 -0.0181 -1.3418
 5177TIP3    H215496   6.352   5.785   2.384 -0.8921  0.0375 -1.6210
 5178TIP3   OH215497   6.964   4.156   3.664 -0.2376 -0.4391  0.5003
 5178TIP3    H115498   7.039   4.212   3.646 -0.3790 -0.4918 -0.2619
 5178TIP3    H215499   6.889   4.216   3.669 -0.5515 -0.6413 -1.3138
 5179TIP3   OH215500   2.882   2.398   0.609 -0.4582  0.2385  0.9278
 5179TIP3    H115501   2.935   2.319   0.609 -1.9836 -0.8445  0.6262
 5179TIP3    H215502   2.883   2.428   0.518  0.8911  1.1393  1.2194
 5180TIP3   OH215503   4.156   5.448   5.837 -0.1819  0.0363  0.1018
 5180TIP3    H115504   4.207   5.375   5.803 -0.3032  0.0988 -0.2196
 5180TIP3    H215505   4.218   5.520   5.843  0.3666 -0.5345  2.0579
 5181TIP3   OH215506   3.201   3.403   1.257  0.2158 -0.0823 -0.4623
 5181TIP3    H115507   3.217   3.464   1.185  1.2457 -2.1955 -2.1363
 5181TIP3    H215508   3.196   3.459   1.335 -0.0426  2.2087 -2.0117
 5182TIP3   OH215509   3.767   3.258   3.730  0.8238  0.1160 -0.9118
 5182TIP3    H115510   3.736   3.309   3.655  1.4800  1.3832 -0.3644
 5182TIP3    H215511   3.858   3.237   3.708  0.2787 -1.7040 -1.5610
 5183TIP3   OH215512   0.928   3.614   4.635 -0.6540  0.0714 -0.2107
 5183TIP3    H115513   0.903   3.526   4.663 -0.3763 -0.6016 -1.9773
 5183TIP3    H215514   0.887   3.624   4.549  0.0437  1.3457 -0.4114
 5184TIP3   OH215515   3.924   2.668   0.266  0.1821 -0.7774 -0.3156
 5184TIP3    H115516   3.887   2.675   0.354  0.0015 -2.9242 -0.1671
 5184TIP3    H215517   3.974   2.748   0.255  1.2962 -1.0135  2.2835
 5185TIP3   OH215518   5.777   1.733   3.178  0.3182  0.1173 -0.0032
 5185TIP3    H115519   5.825   1.658   3.214 -0.7550 -0.4272  0.3581
 5185TIP3    H215520   5.844   1.788   3.138  1.3319 -0.2144  1.1799
 5186TIP3   OH215521   2.005   3.385   5.376  0.4022  0.5458  0.8021
 5186TIP3    H115522   1.972   3.377   5.466  0.3557  1.4927  0.8838
 5186TIP3    H215523   2.100   3.393   5.385  0.3298  1.4852  0.8411
 5187TIP3   OH215524   2.956   3.498   1.619  0.6875  0.5824 -0.1372
 5187TIP3    H115525   2.945   3.532   1.708  0.1827 -0.1222  0.0852
 5187TIP3    H215526   2.867   3.494   1.584  0.5484 -1.6439  0.3037
 5188TIP3   OH215527   1.332   5.687   1.386 -0.1537  0.1970 -0.3130
 5188TIP3    H115528   1.393   5.632   1.336  1.1539 -0.0341  1.4319
 5188TIP3    H215529   1.382   5.713   1.463 -1.4819  2.0789 -0.0326
 5189TIP3   OH215530   0.143   0.616   0.397  0.1045  0.4859 -0.8379
 5189TIP3    H115531   0.159   0.662   0.314  0.9991  0.8920 -0.4594
 5189TIP3    H215532   0.208   0.653   0.457 -0.1547 -0.2154 -0.1133
 5190TIP3   OH215533   1.876   0.658   2.411  0.0294 -0.6568  0.1243
 5190TIP3    H115534   1.863   0.611   2.493  2.9461  0.2545  1.2398
 5190TIP3    H215535   1.830   0.741   2.423  0.5910 -0.4538  0.9574
 5191TIP3   OH215536   2.895   2.100   3.620 -0.0603 -0.1921  0.5990
 5191TIP3    H115537   2.883   2.069   3.530 -0.8532 -0.0991  0.6630
 5191TIP3    H215538   2.928   2.189   3.611 -2.0093  0.5661  0.3479
 5192TIP3   OH215539   6.653   6.094   4.119 -0.8696 -0.3271 -0.2578
 5192TIP3    H115540   6.725   6.155   4.103 -1.2831  0.2004 -0.1372
 5192TIP3    H215541   6.608   6.130   4.196 -0.4228 -1.4269  0.5448
 5193TIP3   OH215542   2.419   5.355   0.264  0.5028 -0.9739  0.3601
 5193TIP3    H115543   2.476   5.294   0.310  1.1420 -0.4318  0.2982
 5193TIP3    H215544   2.349   5.300   0.228  1.5830 -1.8194 -0.5164
 5194TIP3   OH215545   2.057   3.584   1.696 -0.3943 -0.1606 -0.3502
 5194TIP3    H115546   1.966   3.560   1.712 -0.1665 -0.9688 -0.2302
 5194TIP3    H215547   2.100   3.573   1.781 -0.1777  0.2030 -0.4104
 5195TIP3   OH215548   2.595   3.998   3.965 -0.3634 -0.3979  0.2686
 5195TIP3    H115549   2.659   4.035   3.904 -1.0771  0.7104  0.1599
 5195TIP3    H215550   2.549   3.932   3.914 -0.0460 -0.4208  0.0098
 5196TIP3   OH215551   6.846   6.415   2.579 -0.1772 -0.0877  0.3259
 5196TIP3    H115552   6.777   6.456   2.527 -0.3005 -0.5995  0.0787
 5196TIP3    H215553   6.844   6.462   2.662  0.4318  1.1471 -0.3349
 5197TIP3   OH215554   1.704   5.892   5.552  0.1967  0.4789 -0.0613
 5197TIP3    H115555   1.636   5.875   5.487  0.5267 -2.6953  0.2849
 5197TIP3    H215556   1.786   5.874   5.506  0.8430  3.1597 -0.1360
 5198TIP3   OH215557   3.870   5.275   1.205 -0.1877  0.2192 -0.2943
 5198TIP3    H115558   3.956   5.250   1.239 -0.4535  0.0610  0.2770
 5198TIP3    H215559   3.888   5.312   1.119  0.5932  1.3582  0.3298
 5199TIP3   OH215560   3.674   3.683   0.320 -0.4781  0.1083 -0.1603
 5199TIP3    H115561   3.697   3.755   0.261 -0.0376 -0.3959 -0.6142
 5199TIP3    H215562   3.587   3.655   0.290 -1.0024  0.9548  0.5218
 5200TIP3   OH215563   0.485   3.553   5.384 -0.6422  0.2027  0.4691
 5200TIP3    H115564   0.554   3.511   5.331  0.0735 -0.4747  1.8806
 5200TIP3    H215565   0.472   3.638   5.343  1.4016  0.5532  0.4536
 5201TIP3   OH215566   2.911   1.388   4.138 -0.4212  0.5392 -0.4654
 5201TIP3    H115567   2.939   1.298   4.158 -0.1003  0.5883 -0.6824
 5201TIP3    H215568   2.938   1.402   4.047 -1.0031  0.6516 -0.6234
 5202TIP3   OH215569   4.079   6.308   0.310 -0.1120  0.1679  0.7141
 5202TIP3    H115570   4.110   6.389   0.351  1.4680  1.3415 -2.4743
 5202TIP3    H215571   4.159   6.261   0.286 -1.0059 -1.8700  1.4970
 5203TIP3   OH215572   6.713   0.821   5.817  0.5446  0.1962  0.1591
 5203TIP3    H115573   6.781   0.759   5.790 -1.2882 -1.3327 -1.3090
 5203TIP3    H215574   6.666   0.776   5.887 -0.9686 -0.2726 -1.0960
 5204TIP3   OH215575   6.643   6.193   4.684  0.2441  0.0574 -0.1683
 5204TIP3    H115576   6.595   6.196   4.767  1.5737  1.9735  0.6209
 5204TIP3    H215577   6.576   6.187   4.617 -1.1034  1.8862  0.9191
 5205TIP3   OH215578   5.438   1.840   4.951  0.1344  0.3786  0.4329
 5205TIP3    H115579   5.393   1.875   4.874  0.9200 -0.3996 -0.4063
 5205TIP3    H215580   5.384   1.867   5.025 -1.0257  0.5340 -0.4476
 5206TIP3   OH215581   0.683   2.667   0.719  0.7134  0.3595  0.0220
 5206TIP3    H115582   0.700   2.686   0.626 -1.0364  0.0444 -0.4057
 5206TIP3    H215583   0.705   2.575   0.729  1.2749  0.4907  0.0216
 5207TIP3   OH215584   2.438   1.166   1.852  0.1264  0.5457  0.3132
 5207TIP3    H115585   2.510   1.108   1.827 -1.2100 -0.2613 -2.0278
 5207TIP3    H215586   2.415   1.211   1.770 -0.7084  2.3030  1.4615
 5208TIP3   OH215587   3.889   1.932   0.387 -0.2492 -0.1428 -0.2190
 5208TIP3    H115588   3.878   1.854   0.332 -0.1384  0.1777 -0.7092
 5208TIP3    H215589   3.868   1.902   0.475 -1.3587 -0.4471 -0.5620
 5209TIP3   OH215590   3.253   5.917   2.371 -0.0046  0.2991  0.3333
 5209TIP3    H115591   3.287   5.991   2.321  0.8687 -0.7156 -0.6287
 5209TIP3    H215592   3.218   5.956   2.452  0.8387  1.6926  0.0478
 5210TIP3   OH215593   6.821   5.350   5.129 -0.7460 -0.3374  0.1750
 5210TIP3    H115594   6.826   5.446   5.138  2.6972 -0.2932 -0.6926
 5210TIP3    H215595   6.794   5.336   5.039 -2.6925 -0.2786  0.7046
 5211TIP3   OH215596   3.085   5.486   5.786  0.0994 -0.5197  0.3473
 5211TIP3    H115597   3.135   5.448   5.857 -0.3560 -1.1571  0.3387
 5211TIP3    H215598   3.150   5.509   5.719  0.5793  0.5167  1.1443
 5212TIP3   OH215599   1.768   2.065   3.653 -0.1993 -0.2800  0.0511
 5212TIP3    H115600   1.763   2.111   3.569 -1.7764  0.2627  0.4051
 5212TIP3    H215601   1.859   2.038   3.660  0.1718  0.4747 -1.4038
 5213TIP3   OH215602   4.245   3.847   5.242  0.5448 -0.2746  0.0167
 5213TIP3    H115603   4.179   3.786   5.277  1.3202 -1.3759 -0.3852
 5213TIP3    H215604   4.233   3.927   5.293  1.1150 -1.5504  2.2999
 5214TIP3   OH215605   2.969   6.662   0.196 -0.3832 -0.3181 -0.1168
 5214TIP3    H115606   2.949   6.631   0.284  1.7156  1.0703  0.9211
 5214TIP3    H215607   2.956   6.757   0.199  1.9593  0.0731 -0.5739
 5215TIP3   OH215608   5.067   2.998   0.096 -0.2045  0.1018 -0.6060
 5215TIP3    H115609   5.004   3.056   0.139 -0.1210 -0.7032  0.6530
 5215TIP3    H215610   5.153   3.034   0.119 -0.0886 -1.3694  1.5634
 5216TIP3   OH215611   1.781   3.364   3.359 -0.1450 -0.3401 -0.4550
 5216TIP3    H115612   1.781   3.431   3.427  2.5452 -1.5121  0.8512
 5216TIP3    H215613   1.719   3.298   3.390 -0.9276  0.3602 -0.5093
 5217TIP3   OH215614   3.769   5.275   5.385 -0.2096 -1.4097  0.2187
 5217TIP3    H115615   3.753   5.354   5.437  1.4977 -0.2046 -0.9889
 5217TIP3    H215616   3.861   5.281   5.361 -0.4476 -2.9661 -1.2371
 5218TIP3   OH215617   0.828   5.547   2.199  0.3987 -0.2701  0.2936
 5218TIP3    H115618   0.851   5.598   2.122 -0.2971  1.0434  0.9140
 5218TIP3    H215619   0.734   5.532   2.191  0.2168  0.3505  1.1433
 5219TIP3   OH215620   2.867   4.621   3.665  0.1306  0.6420  0.6283
 5219TIP3    H115621   2.839   4.709   3.639 -1.3937 -0.2137 -0.7254
 5219TIP3    H215622   2.929   4.637   3.737  1.6735  2.9364 -1.0372
 5220TIP3   OH215623   3.254   1.698   0.741 -0.4558  0.2824 -0.2174
 5220TIP3    H115624   3.326   1.760   0.749  0.6122 -0.8362 -0.9155
 5220TIP3    H215625   3.207   1.727   0.663 -1.0452  1.2511  0.4605
 5221TIP3   OH215626   3.729   4.018   0.374  0.5173 -0.1352 -0.8605
 5221TIP3    H115627   3.789   4.027   0.448 -1.0137 -1.4360  0.6254
 5221TIP3    H215628   3.747   3.931   0.339 -0.5147 -0.5963 -0.3166
 5222TIP3   OH215629   6.894   5.457   4.197 -0.1717 -0.4795  0.5807
 5222TIP3    H115630   6.972   5.443   4.143 -0.1854 -1.0600  0.7129
 5222TIP3    H215631   6.928   5.488   4.280 -0.1975  1.5716 -0.1053
 5223TIP3   OH215632   7.177   5.560   3.634  0.0340 -0.5305 -0.1209
 5223TIP3    H115633   7.112   5.626   3.661  0.2356  0.6485 -2.2866
 5223TIP3    H215634   7.125   5.484   3.609 -0.2111 -1.2326  2.2592
 5224TIP3   OH215635   5.383   2.491   1.846  0.8466 -0.1616  0.0925
 5224TIP3    H115636   5.457   2.500   1.786  1.1474  0.4802  0.5518
 5224TIP3    H215637   5.306   2.491   1.789  1.2127 -1.4766 -0.4400
 5225TIP3   OH215638   1.630   4.473   3.579 -0.0409 -0.1189 -0.4437
 5225TIP3    H115639   1.587   4.558   3.572  1.1696  0.4937 -0.7844
 5225TIP3    H215640   1.566   4.411   3.543 -0.5841  0.7679 -1.0533
 5226TIP3   OH215641   1.688   1.069   3.302  0.1712  0.1775 -0.0921
 5226TIP3    H115642   1.739   1.150   3.293  2.1048 -1.0114 -0.3808
 5226TIP3    H215643   1.697   1.046   3.394 -0.2620  0.2122 -0.0414
 5227TIP3   OH215644   5.242   3.567   3.703  0.0019  0.3820  0.2176
 5227TIP3    H115645   5.157   3.541   3.737 -1.0015  2.9190 -0.1274
 5227TIP3    H215646   5.292   3.593   3.781  0.1689 -0.3038  0.3424
 5228TIP3   OH215647   1.875   4.109   1.681 -0.2165 -0.1981 -0.0786
 5228TIP3    H115648   1.858   4.123   1.588 -0.3516 -1.0084 -0.1823
 5228TIP3    H215649   1.832   4.183   1.724 -0.7101 -0.1682 -0.6102
 5229TIP3   OH215650   5.685   6.278   5.370 -0.4290  0.0857 -0.2669
 5229TIP3    H115651   5.756   6.336   5.399 -0.0171 -1.2655  1.5535
 5229TIP3    H215652   5.729   6.213   5.316  0.1740 -1.9304  2.4563
 5230TIP3   OH215653   5.617   5.946   0.058 -0.4071 -0.0842  0.4229
 5230TIP3    H115654   5.525   5.928   0.074 -0.8780  1.3689 -0.4412
 5230TIP3    H215655   5.653   5.864   0.026 -1.5701 -0.4766  0.1068
 5231TIP3   OH215656   5.097   1.364   1.523  0.0544 -0.0749 -0.4575
 5231TIP3    H115657   5.014   1.378   1.568  0.5245  0.3300  0.3105
 5231TIP3    H215658   5.126   1.277   1.550  0.6945  0.4571  0.6468
 5232TIP3   OH215659   5.651   1.326   1.171  0.1987 -0.0687  0.1504
 5232TIP3    H115660   5.622   1.243   1.209 -1.6437  0.3582 -0.2036
 5232TIP3    H215661   5.637   1.316   1.077 -1.4457  1.1083  0.2312
 5233TIP3   OH215662   6.912   1.027   5.739  0.7059  0.1199 -0.1583
 5233TIP3    H115663   6.846   0.958   5.743  2.2181 -1.3767 -0.2356
 5233TIP3    H215664   6.951   1.018   5.652  0.8993  1.1367 -0.1940
 5234TIP3   OH215665   3.385   0.822   3.687  0.0111  0.3343 -0.0566
 5234TIP3    H115666   3.301   0.834   3.732  1.2708  0.8433  2.3171
 5234TIP3    H215667   3.414   0.735   3.713  0.8677  0.7189  0.3049
 5235TIP3   OH215668   5.926   3.556   2.121 -0.1984  0.3745  0.1430
 5235TIP3    H115669   5.898   3.466   2.143 -0.8970  0.9161  1.6329
 5235TIP3    H215670   5.957   3.550   2.031  0.2307 -1.4746  0.3624
 5236TIP3   OH215671   2.494   1.929   0.032  0.0794  0.1307  1.4916
 5236TIP3    H115672   2.462   2.000   0.087 -0.7946  2.3251 -1.5959
 5236TIP3    H215673   2.585   1.952   0.014 -0.6549  1.4876 -0.8328
 5237TIP3   OH215674   4.096   5.492   5.276  0.0774 -0.1287 -0.1920
 5237TIP3    H115675   4.099   5.546   5.355  0.9841 -1.2029  0.5607
 5237TIP3    H215676   4.059   5.548   5.209 -2.5911  0.2449  1.4535
 5238TIP3   OH215677   2.539   3.368   1.752 -0.1536  0.6424  0.6263
 5238TIP3    H115678   2.450   3.331   1.751 -0.7067  1.9091  0.5605
 5238TIP3    H215679   2.569   3.354   1.842  0.1025 -0.9443  0.3147
 5239TIP3   OH215680   6.020   4.193   4.135  0.0035  0.2883 -0.5431
 5239TIP3    H115681   6.040   4.237   4.052  0.7605  0.7774 -0.1154
 5239TIP3    H215682   6.012   4.265   4.198  3.6163 -0.1890  0.6902
 5240TIP3   OH215683   1.861   3.491   0.943 -0.1170  0.2442 -0.6488
 5240TIP3    H115684   1.835   3.572   0.986 -0.8644 -0.2596 -0.1158
 5240TIP3    H215685   1.782   3.461   0.898 -0.3642 -1.0516  0.5675
 5241TIP3   OH215686   4.972   3.706   1.106 -0.5943  0.1771  0.2364
 5241TIP3    H115687   5.030   3.782   1.100 -0.1400 -0.2406 -0.8296
 5241TIP3    H215688   4.959   3.694   1.200 -0.1450  1.1661  0.4434
 5242TIP3   OH215689   2.084   5.332   3.452  0.0553  0.4360  0.2385
 5242TIP3    H115690   2.152   5.319   3.518 -0.9904 -0.5211  1.1698
 5242TIP3    H215691   2.093   5.257   3.394 -0.0369  0.4436  0.2145
 5243TIP3   OH215692   3.230   6.298   3.715 -0.3619  0.1017  0.1386
 5243TIP3    H115693   3.258   6.226   3.773 -0.2535 -0.3362 -0.4465
 5243TIP3    H215694   3.187   6.360   3.774  2.0723  0.9536  1.1481
 5244TIP3   OH215695   0.762   0.582   5.167 -0.3496  0.4991 -0.3613
 5244TIP3    H115696   0.716   0.582   5.251 -0.9765  0.4218 -0.6969
 5244TIP3    H215697   0.854   0.593   5.190 -0.5963  1.2858  0.2923
 5245TIP3   OH215698   0.744   4.650   2.088 -0.5272 -0.7070 -0.0389
 5245TIP3    H115699   0.762   4.710   2.016  0.0937  0.1082  0.7833
 5245TIP3    H215700   0.651   4.627   2.077 -1.3304  1.9008  0.7054
 5246TIP3   OH215701   1.298   6.684   3.036  0.1812  0.0467  0.2059
 5246TIP3    H115702   1.257   6.641   3.111  0.0529  0.6357  0.4858
 5246TIP3    H215703   1.337   6.764   3.073  0.8436 -0.0777 -0.2078
 5247TIP3   OH215704   4.947   4.959   5.530  0.2841 -0.7077 -0.0052
 5247TIP3    H115705   4.992   4.876   5.541 -1.3811 -1.9143 -1.7663
 5247TIP3    H215706   4.854   4.937   5.527 -0.1529  1.0337 -1.6815
 5248TIP3   OH215707   1.216   3.675   2.293 -0.3029 -0.6289 -0.3946
 5248TIP3    H115708   1.261   3.760   2.303  0.0402 -0.9694  1.2951
 5248TIP3    H215709   1.281   3.619   2.249 -0.2672 -0.2302 -0.8632
 5249TIP3   OH215710   6.177   0.060   0.875 -0.1042  0.7706  0.3738
 5249TIP3    H115711   6.233   0.114   0.931  1.2919 -0.6510  0.4144
 5249TIP3    H215712   6.234  -0.012   0.847 -2.3113 -1.5615  1.5997
 5250TIP3   OH215713   6.259   3.055   3.906  0.2139 -0.1265  0.1129
 5250TIP3    H115714   6.327   3.064   3.972 -0.5233  2.8598  0.5923
 5250TIP3    H215715   6.191   3.002   3.948 -0.4686  2.1361  2.0261
 5251TIP3   OH215716   6.899   3.427   5.572  0.6712 -0.2733  0.1913
 5251TIP3    H115717   6.850   3.506   5.551  1.4960 -0.1383 -1.3651
 5251TIP3    H215718   6.880   3.411   5.664 -2.8419 -0.6619 -0.4804
 5252TIP3   OH215719   6.898   2.039   1.691 -0.0496  0.2654 -0.3212
 5252TIP3    H115720   6.876   2.129   1.714  0.6685  0.5803 -0.8543
 5252TIP3    H215721   6.903   1.993   1.775 -1.0829  0.5521 -0.0808
 5253TIP3   OH215722   6.559   6.364   2.848  0.0026  0.2857 -0.0777
 5253TIP3    H115723   6.623   6.408   2.792  0.7154 -1.2350 -0.5334
 5253TIP3    H215724   6.572   6.271   2.829 -0.9983 -0.1602  1.2928
 5254TIP3   OH215725   0.465   3.521   0.899  0.1481  0.2731 -0.6256
 5254TIP3    H115726   0.509   3.604   0.879  0.4716  0.7117  1.6345
 5254TIP3    H215727   0.375   3.534   0.871 -0.7007  2.7519  2.7006
 5255TIP3   OH215728   1.038   0.782   0.571 -0.2602 -0.0875 -0.1487
 5255TIP3    H115729   1.032   0.744   0.658 -0.1768 -1.7345 -0.8420
 5255TIP3    H215730   0.953   0.766   0.532  0.0512 -0.2932 -0.7506
 5256TIP3   OH215731   3.904   3.286   2.679 -0.1312  0.0243  0.5178
 5256TIP3    H115732   3.880   3.194   2.664 -1.8887  0.3451  1.1720
 5256TIP3    H215733   3.944   3.313   2.597 -3.2706 -0.2163 -1.2567
 5257TIP3   OH215734   4.419   4.333   5.268 -0.2696  0.2883 -0.2265
 5257TIP3    H115735   4.505   4.352   5.229 -0.6356  0.3502 -1.0131
 5257TIP3    H215736   4.356   4.378   5.211 -1.0311 -1.8417 -1.1824
 5258TIP3   OH215737   0.444   5.488   1.692 -0.2407  0.4407  0.3993
 5258TIP3    H115738   0.410   5.575   1.714  0.6274  0.3330  2.4539
 5258TIP3    H215739   0.493   5.462   1.770  0.2642 -1.5260 -0.5217
 5259TIP3   OH215740   5.415   3.367   3.646  0.1674 -0.3760 -0.1562
 5259TIP3    H115741   5.450   3.386   3.559  2.6048  0.0424  0.8307
 5259TIP3    H215742   5.360   3.442   3.666  0.0085 -0.2198 -1.1326
 5260TIP3   OH215743   0.389   6.265   1.124 -0.1764  0.4777  0.2064
 5260TIP3    H115744   0.398   6.175   1.154 -1.5983  0.4673  0.6938
 5260TIP3    H215745   0.458   6.313   1.169 -0.0811 -0.1745  0.7671
 5261TIP3   OH215746   1.904   4.633   1.569  0.0118 -0.1718 -0.0980
 5261TIP3    H115747   1.935   4.708   1.621 -0.8856  0.2448 -0.1427
 5261TIP3    H215748   1.961   4.561   1.595  0.9100  0.5331 -0.0727
 5262TIP3   OH215749   1.922   3.953   2.261  0.2346  0.1662  0.2406
 5262TIP3    H115750   1.864   3.996   2.197 -0.5645 -0.9281  0.2049
 5262TIP3    H215751   1.864   3.893   2.309  1.4400 -1.3821 -0.1743
 5263TIP3   OH215752   0.399   0.691   4.420  0.1472 -0.5736 -0.3218
 5263TIP3    H115753   0.397   0.692   4.324  0.6196  3.0657 -0.4578
 5263TIP3    H215754   0.490   0.676   4.443  0.5042  0.9179 -0.6193
 5264TIP3   OH215755   5.422   1.071   3.152  0.1442  0.2571 -0.1581
 5264TIP3    H115756   5.500   1.079   3.098  1.6115  0.5687  1.8827
 5264TIP3    H215757   5.362   1.137   3.117 -0.6147 -2.1358 -3.8421
 5265TIP3   OH215758   6.996   1.315   2.740  0.3002  0.2071 -0.1252
 5265TIP3    H115759   7.062   1.250   2.766 -1.9603 -1.7718  1.1231
 5265TIP3    H215760   6.979   1.294   2.648 -0.1038 -0.7412  0.1474
 5266TIP3   OH215761   5.205   2.140   3.578 -0.4229 -0.8864  0.5928
 5266TIP3    H115762   5.119   2.106   3.604 -0.5040 -1.3424 -0.2396
 5266TIP3    H215763   5.197   2.235   3.586 -0.3247 -1.0063  2.5483
 5267TIP3   OH215764   6.411   3.339   4.190  0.0438 -0.0011  0.0035
 5267TIP3    H115765   6.365   3.279   4.248  0.9920 -2.8071 -1.8936
 5267TIP3    H215766   6.342   3.393   4.151 -0.7583  0.7643  2.3675
 5268TIP3   OH215767   1.315   2.889   0.785  0.0921 -0.0537 -0.0138
 5268TIP3    H115768   1.222   2.866   0.785  0.3312 -1.2254 -1.6747
 5268TIP3    H215769   1.320   2.969   0.732  0.0688 -0.2905 -0.3823
 5269TIP3   OH215770   0.104   2.636   3.649  0.3044  0.1730 -0.3150
 5269TIP3    H115771   0.194   2.624   3.680 -0.0027  0.2865  0.6708
 5269TIP3    H215772   0.112   2.646   3.554  1.2036 -1.1680 -0.4124
 5270TIP3   OH215773   1.119   0.458   4.320  0.2861 -0.1923 -0.6681
 5270TIP3    H115774   1.044   0.498   4.277  0.1243  0.4853  0.2006
 5270TIP3    H215775   1.101   0.469   4.414  1.6322  0.3254 -0.4449
 5271TIP3   OH215776   6.668   1.715   2.742  0.4744 -0.2032 -0.5912
 5271TIP3    H115777   6.677   1.747   2.832 -1.9395  1.8360 -0.9914
 5271TIP3    H215778   6.574   1.715   2.725  0.7974 -1.5241 -2.8196
 5272TIP3   OH215779   1.554   2.996   5.727  0.0866 -0.0041 -0.7698
 5272TIP3    H115780   1.589   2.908   5.743  0.6369  0.8187  3.8644
 5272TIP3    H215781   1.461   2.981   5.707  0.0418 -1.6260  0.4367
 5273TIP3   OH215782   2.067   0.680   5.232 -1.2002 -0.1277 -0.0820
 5273TIP3    H115783   2.098   0.592   5.253 -1.3658 -0.1384  0.1261
 5273TIP3    H215784   1.988   0.666   5.180 -0.3246 -0.1057 -1.4719
 5274TIP3   OH215785   3.599   6.714   4.859  0.1964 -0.0227 -0.5636
 5274TIP3    H115786   3.661   6.656   4.905  0.9379 -0.6620 -2.2701
 5274TIP3    H215787   3.517   6.704   4.907  1.6984  2.2035  2.9146
 5275TIP3   OH215788   2.936   3.365   4.591  0.2771  0.3685  0.3562
 5275TIP3    H115789   2.972   3.282   4.560 -1.0308 -0.3065  0.5696
 5275TIP3    H215790   2.883   3.397   4.518 -0.0496  0.4959  0.6445
 5276TIP3   OH215791   3.099   2.562   2.856 -0.0856 -0.6710 -0.0437
 5276TIP3    H115792   3.155   2.487   2.838  1.3264  0.0051  1.2602
 5276TIP3    H215793   3.158   2.637   2.858 -0.8601 -0.0094  2.0458
 5277TIP3   OH215794   2.991   1.232   2.103  0.7226  0.3066 -0.8100
 5277TIP3    H115795   2.976   1.145   2.139  0.8773  0.9409  0.8525
 5277TIP3    H215796   2.945   1.291   2.162  0.2735  1.3472 -2.1427
 5278TIP3   OH215797   0.801   3.645   4.389  1.0355 -0.0440 -0.3370
 5278TIP3    H115798   0.849   3.576   4.343  1.5850  0.1170 -0.0030
 5278TIP3    H215799   0.754   3.691   4.319 -1.5533 -2.4158 -0.3544
 5279TIP3   OH215800   3.774   5.997   1.475  0.0373 -0.4409 -0.3260
 5279TIP3    H115801   3.816   6.036   1.552 -0.1339 -0.3166 -0.2955
 5279TIP3    H215802   3.834   6.017   1.403 -1.1275  1.9342 -0.7511
 5280TIP3   OH215803   3.229   0.784   1.043  0.7817 -0.6939  0.4528
 5280TIP3    H115804   3.200   0.832   0.965  0.6255  0.8514  1.4385
 5280TIP3    H215805   3.148   0.761   1.088  0.9249 -0.0424  1.0529
 5281TIP3   OH215806   4.276   1.503   5.087  0.2608  0.0088 -0.3684
 5281TIP3    H115807   4.195   1.543   5.120  0.8944  0.1345  1.1214
 5281TIP3    H215808   4.342   1.571   5.098  0.9651 -0.7734  0.3846
 5282TIP3   OH215809   6.481   6.618   1.143 -0.3836  0.3588  0.0171
 5282TIP3    H115810   6.555   6.670   1.174 -0.5751  0.1681  0.8314
 5282TIP3    H215811   6.508   6.584   1.058  0.6904 -0.1818  0.5672
 5283TIP3   OH215812   2.091   6.759   3.059 -0.1854  0.5381  0.0460
 5283TIP3    H115813   2.051   6.760   2.973 -0.9190  1.7900  0.3790
 5283TIP3    H215814   2.168   6.704   3.049 -0.1511  0.8185 -1.4531
 5284TIP3   OH215815   1.006   4.222   3.617  0.1172  0.1030 -0.4130
 5284TIP3    H115816   1.052   4.306   3.623 -1.6527  1.0565  0.9057
 5284TIP3    H215817   1.022   4.180   3.702  0.3654 -0.5816 -0.7845
 5285TIP3   OH215818   4.901   3.033   0.479 -0.0278  0.3065  0.5020
 5285TIP3    H115819   4.913   3.014   0.572  1.9025 -0.1262  0.2028
 5285TIP3    H215820   4.874   2.949   0.441 -0.1810  0.3312  0.5524
 5286TIP3   OH215821   7.184   6.382   3.800 -0.2093  0.0182  0.9637
 5286TIP3    H115822   7.111   6.331   3.766  0.3429 -0.0212 -0.1990
 5286TIP3    H215823   7.143   6.456   3.845 -0.9712  0.5578 -0.5494
 5287TIP3   OH215824   0.112   3.654   5.610 -0.0551  0.3695 -0.1311
 5287TIP3    H115825   0.183   3.704   5.571  0.1900 -0.2647 -0.5103
 5287TIP3    H215826   0.137   3.644   5.702  0.2610  0.2965 -0.2249
 5288TIP3   OH215827   4.439   5.434   1.597 -0.4898  0.5283  0.3075
 5288TIP3    H115828   4.503   5.505   1.593 -0.4394  0.9167  4.2576
 5288TIP3    H215829   4.492   5.354   1.592 -0.1193  0.7895 -0.0284
 5289TIP3   OH215830   2.813   5.134   3.084  0.6405  0.5096  0.6038
 5289TIP3    H115831   2.886   5.072   3.089  0.5692  0.4751  1.2144
 5289TIP3    H215832   2.848   5.215   3.121 -0.5220 -0.3416  3.8417
 5290TIP3   OH215833   4.247   2.853   1.217  0.4174 -0.2478 -0.4687
 5290TIP3    H115834   4.313   2.847   1.286  1.2689  0.0823 -1.2396
 5290TIP3    H215835   4.210   2.942   1.226  0.7497 -0.0925 -0.6353
 5291TIP3   OH215836   5.512   1.365   4.148  0.4769  0.1426  0.1438
 5291TIP3    H115837   5.577   1.405   4.091 -1.1583  1.1558 -1.0959
 5291TIP3    H215838   5.429   1.404   4.121 -0.6523 -1.0458  1.7128
 5292TIP3   OH215839   2.439   3.896   3.736 -0.3605 -0.2366 -0.2248
 5292TIP3    H115840   2.349   3.864   3.730 -0.8605  0.7111  1.5792
 5292TIP3    H215841   2.487   3.842   3.673 -2.0951 -1.0244 -0.9604
 5293TIP3   OH215842   5.128   2.982   3.705 -0.0306 -0.2488  0.4989
 5293TIP3    H115843   5.215   2.980   3.665 -0.6537  0.0013 -0.9201
 5293TIP3    H215844   5.107   3.075   3.715 -0.0970 -0.3080  0.9501
 5294TIP3   OH215845   4.185   6.024   2.070 -0.3922 -0.7467  0.0797
 5294TIP3    H115846   4.206   6.045   1.979 -2.7164  1.0075 -0.1227
 5294TIP3    H215847   4.090   6.032   2.076 -0.4015 -1.6827  2.4858
 5295TIP3   OH215848   1.508   2.300   5.058 -0.7703  0.2953  0.1789
 5295TIP3    H115849   1.417   2.277   5.077 -0.6287  0.4247  1.0606
 5295TIP3    H215850   1.546   2.321   5.143  0.3903 -0.8444 -0.0177
 5296TIP3   OH215851   3.764   5.584   4.302 -0.5307 -0.3889 -0.4087
 5296TIP3    H115852   3.780   5.677   4.288 -0.1156 -0.4225 -0.2043
 5296TIP3    H215853   3.695   5.580   4.368 -0.2748 -0.2169 -0.1228
 5297TIP3   OH215854   6.321   2.508   4.581  0.0151  0.1892 -0.4523
 5297TIP3    H115855   6.349   2.523   4.490 -0.4167 -0.2703 -0.6646
 5297TIP3    H215856   6.291   2.418   4.582 -1.5912  0.6966 -0.2777
 5298TIP3   OH215857   1.498   3.364   3.972 -0.1537  0.3175 -0.1029
 5298TIP3    H115858   1.538   3.301   3.913 -2.0316 -0.8301 -0.2282
 5298TIP3    H215859   1.538   3.346   4.057 -0.5548 -0.9682 -0.1667
 5299TIP3   OH215860   7.036   6.677   2.813 -0.2540  0.1582 -0.2925
 5299TIP3    H115861   7.128   6.666   2.786  0.2946  0.6038  1.3333
 5299TIP3    H215862   7.038   6.742   2.882 -1.7818 -0.0205 -0.0411
 5300TIP3   OH215863   0.927   1.967   1.577 -0.7777  0.8434 -0.1488
 5300TIP3    H115864   0.888   1.896   1.627 -0.7245  1.1500  0.3315
 5300TIP3    H215865   0.992   2.005   1.636 -0.4618  0.9763 -0.5811
 5301TIP3   OH215866   5.878   5.177   4.321  0.6755  0.0298 -0.0297
 5301TIP3    H115867   5.856   5.100   4.373  1.2868 -0.6869 -0.8202
 5301TIP3    H215868   5.807   5.240   4.341  0.1592 -0.7274  0.5960
 5302TIP3   OH215869   5.632   2.650   1.406  0.4872 -0.1428  0.0785
 5302TIP3    H115870   5.647   2.732   1.359 -0.8562  0.5332  0.7840
 5302TIP3    H215871   5.650   2.582   1.341 -1.9371  0.7579 -1.6882
 5303TIP3   OH215872   4.417   2.685   4.811 -0.8489 -0.7609  0.0111
 5303TIP3    H115873   4.507   2.716   4.823 -0.7201 -1.0012 -0.3272
 5303TIP3    H215874   4.363   2.755   4.848 -0.5785  0.0645 -1.0848
 5304TIP3   OH215875   1.883   6.475   2.850 -0.1339 -0.3720 -0.2200
 5304TIP3    H115876   1.924   6.558   2.826 -0.5683 -0.4796 -1.3869
 5304TIP3    H215877   1.915   6.413   2.784  1.7671 -1.6445  1.7114
 5305TIP3   OH215878   2.234   1.047   2.642 -0.6144  0.5809  0.5487
 5305TIP3    H115879   2.151   1.021   2.604 -1.9537  1.6102  2.6162
 5305TIP3    H215880   2.234   1.142   2.640  0.7378  0.6025  0.1931
 5306TIP3   OH215881   2.809   3.157   3.308 -0.2138  0.0834 -0.0207
 5306TIP3    H115882   2.842   3.166   3.398 -0.3241  0.8581 -0.0588
 5306TIP3    H215883   2.802   3.246   3.275 -0.2823 -0.1898 -0.7686
 5307TIP3   OH215884   2.764   5.245   3.773  0.1392 -0.6348 -0.2590
 5307TIP3    H115885   2.716   5.248   3.856 -0.1548  1.3973 -0.4405
 5307TIP3    H215886   2.855   5.231   3.800 -0.2844 -2.8032  0.1906
 5308TIP3   OH215887   1.369   6.249   3.982  0.4714  0.2010  0.0202
 5308TIP3    H115888   1.285   6.243   4.026  0.7676  0.4182  0.6314
 5308TIP3    H215889   1.393   6.341   3.989  0.6550  0.1841 -0.3516
 5309TIP3   OH215890   1.825   3.133   5.133  0.0220  0.3762 -1.0465
 5309TIP3    H115891   1.871   3.077   5.070  1.3009 -0.4145  0.5057
 5309TIP3    H215892   1.881   3.210   5.142 -0.9045  1.1717 -1.9500
 5310TIP3   OH215893   4.788   3.970   5.548 -0.3662 -0.2890 -0.5708
 5310TIP3    H115894   4.820   3.931   5.467 -0.7649 -0.0841 -0.8291
 5310TIP3    H215895   4.702   4.005   5.526  0.5574  2.0405 -0.7377
 5311TIP3   OH215896   4.355   6.284   0.211  0.1765 -0.7217 -0.0696
 5311TIP3    H115897   4.418   6.267   0.281 -0.2442  0.1410  0.5472
 5311TIP3    H215898   4.407   6.279   0.131  0.8650 -0.8399  0.3688
 5312TIP3   OH215899   1.627   3.839   4.234 -0.3653  0.4815  0.6289
 5312TIP3    H115900   1.556   3.904   4.226 -0.1630  0.6848  0.4872
 5312TIP3    H215901   1.697   3.886   4.279  0.2064  0.7040 -0.4728
 5313TIP3   OH215902   3.797   3.950   3.992  0.0934  0.1077  0.2039
 5313TIP3    H115903   3.774   3.862   4.022 -0.6541 -0.2154 -1.1898
 5313TIP3    H215904   3.774   4.008   4.065 -1.3761 -0.6599  0.3877
 5314TIP3   OH215905   0.756   0.641   5.678  0.4652  0.4241 -0.0095
 5314TIP3    H115906   0.820   0.579   5.712 -0.1537 -0.0850  0.2388
 5314TIP3    H215907   0.808   0.702   5.625  0.8785 -1.3799 -1.7988
 5315TIP3   OH215908   1.907   0.695   1.254 -0.1380 -0.5716  0.1770
 5315TIP3    H115909   1.838   0.629   1.260 -0.1888 -0.4344  1.2120
 5315TIP3    H215910   1.893   0.752   1.329  0.4103  0.1415 -0.2422
 5316TIP3   OH215911   5.418   5.805   1.733 -0.2784  0.0162 -0.4727
 5316TIP3    H115912   5.456   5.724   1.699  0.2278  0.5165 -1.1210
 5316TIP3    H215913   5.364   5.838   1.662 -2.9633 -1.2780  0.8207
 5317TIP3   OH215914   6.693   1.487   1.162 -0.2629  0.6004 -0.0126
 5317TIP3    H115915   6.613   1.517   1.205 -1.1242  0.0035 -1.1563
 5317TIP3    H215916   6.756   1.476   1.233 -0.6467  2.7252  0.7213
 5318TIP3   OH215917   2.305   4.591   4.412  0.2481  0.1556  0.0125
 5318TIP3    H115918   2.298   4.543   4.494  1.2114 -0.1786 -0.0939
 5318TIP3    H215919   2.224   4.571   4.365 -0.4817  0.6571  1.0382
 5319TIP3   OH215920   2.898   3.783   0.675 -0.1159 -0.0200  0.7183
 5319TIP3    H115921   2.854   3.857   0.718 -0.2980  0.1295  0.2757
 5319TIP3    H215922   2.826   3.724   0.652 -0.0900  0.1989  0.0419
 5320TIP3   OH215923   0.722   4.401   0.518  0.4475 -0.1664  0.5986
 5320TIP3    H115924   0.648   4.434   0.570  0.9140  0.3263  0.9666
 5320TIP3    H215925   0.685   4.331   0.464 -0.5504  0.8573 -0.0908
 5321TIP3   OH215926   4.734   3.556   5.038 -0.8268 -0.2188  0.3900
 5321TIP3    H115927   4.741   3.486   4.974  1.2252 -0.5958  0.9317
 5321TIP3    H215928   4.766   3.634   4.992 -1.8865  0.1080  0.1780
 5322TIP3   OH215929   0.960   5.939   4.319 -0.5426 -0.1253 -0.0270
 5322TIP3    H115930   0.930   6.013   4.371 -1.4600 -0.5934  0.1323
 5322TIP3    H215931   0.883   5.882   4.311 -0.3924 -0.1494 -1.7563
 5323TIP3   OH215932   7.119   2.623   5.319  0.2695 -0.5666  0.1922
 5323TIP3    H115933   7.076   2.709   5.315  0.8254 -0.3419 -2.1249
 5323TIP3    H215934   7.132   2.608   5.413 -0.3515  1.6151  0.6976
 5324TIP3   OH215935   5.964   5.917   1.297 -0.1015 -0.1380 -0.1344
 5324TIP3    H115936   6.036   5.890   1.353  0.8255  0.8459 -0.7957
 5324TIP3    H215937   5.990   6.003   1.264 -2.0733  0.7428  0.4419
 5325TIP3   OH215938   7.168   2.257   2.612 -0.2590 -0.1800 -0.5326
 5325TIP3    H115939   7.155   2.162   2.604 -1.5145 -0.0287 -0.4735
 5325TIP3    H215940   7.080   2.292   2.626 -0.0112  1.1430 -2.0509
 5326TIP3   OH215941   5.805   6.470   0.645 -0.4114 -0.6594 -0.0447
 5326TIP3    H115942   5.730   6.418   0.617  1.0211 -3.7034  1.3003
 5326TIP3    H215943   5.853   6.413   0.706  1.9043  1.8920  0.7556
 5327TIP3   OH215944   5.533   3.153   1.537  0.1654 -0.3885  0.2245
 5327TIP3    H115945   5.540   3.180   1.628 -0.1455 -1.0688  0.4634
 5327TIP3    H215946   5.516   3.233   1.488  0.8920  0.0576  0.6920
 5328TIP3   OH215947   3.842   4.080   4.896  0.3532 -0.2934  0.0392
 5328TIP3    H115948   3.864   4.051   4.808 -0.0665  0.6033 -0.3790
 5328TIP3    H215949   3.761   4.032   4.918 -0.6583  0.9199 -0.8691
 5329TIP3   OH215950   4.692   6.641   4.898 -0.5782 -0.1827  0.1875
 5329TIP3    H115951   4.782   6.674   4.901 -0.9502  0.9188 -0.5079
 5329TIP3    H215952   4.643   6.707   4.849 -1.8336 -0.6242  0.7977
 5330TIP3   OH215953   6.342   5.429   0.284  0.2190 -0.7377  0.6275
 5330TIP3    H115954   6.247   5.434   0.287  0.2189 -0.9585  3.0504
 5330TIP3    H215955   6.362   5.392   0.198 -1.8726 -0.8737  0.1511
 5331TIP3   OH215956   3.059   5.603   1.753 -0.1182  0.7174  0.2189
 5331TIP3    H115957   3.136   5.660   1.751 -0.0811  0.6763 -1.6843
 5331TIP3    H215958   3.094   5.516   1.735 -0.4544  0.4474  0.8331
 5332TIP3   OH215959   6.666   3.286   2.591 -0.3156  0.1183  0.0071
 5332TIP3    H115960   6.734   3.280   2.658 -0.8664 -0.0750  0.5599
 5332TIP3    H215961   6.666   3.378   2.564 -0.1986  0.2359  0.3995
 5333TIP3   OH215962   6.818   1.146   3.750  0.2201 -0.0935  0.4075
 5333TIP3    H115963   6.848   1.069   3.702 -2.7570 -1.7641  0.9296
 5333TIP3    H215964   6.856   1.136   3.837  0.1222 -0.8052  0.3743
 5334TIP3   OH215965   6.748   1.630   4.367 -0.0786 -0.1757  0.3308
 5334TIP3    H115966   6.670   1.621   4.422 -0.4194  0.8322  0.0384
 5334TIP3    H215967   6.716   1.667   4.285  0.6255 -0.3387 -0.0299
 5335TIP3   OH215968   4.128   2.495   1.200 -0.1970 -0.6772  0.6516
 5335TIP3    H115969   4.120   2.545   1.281  0.9034 -0.1131  0.4234
 5335TIP3    H215970   4.040   2.498   1.162 -0.5287 -0.2709  1.4237
 5336TIP3   OH215971   5.727   2.732   4.475 -0.5105  0.2133  0.4081
 5336TIP3    H115972   5.704   2.691   4.558 -1.2601  0.3110  0.2612
 5336TIP3    H215973   5.729   2.661   4.412 -1.7822  0.3653  0.1590
 5337TIP3   OH215974   4.944   1.454   3.507  0.7442  0.1175  0.5043
 5337TIP3    H115975   4.957   1.377   3.562  1.9046 -0.7088 -0.8537
 5337TIP3    H215976   4.957   1.423   3.417  0.0554  1.6532 -0.1718
 5338TIP3   OH215977   5.495   5.437   3.881  0.7579  0.2340  0.0037
 5338TIP3    H115978   5.580   5.433   3.925  0.8300 -2.0478 -0.2250
 5338TIP3    H215979   5.515   5.473   3.794  1.5752 -0.6567 -0.1934
 5339TIP3   OH215980   7.002   6.276   3.637  0.3659  0.2137 -0.4477
 5339TIP3    H115981   6.914   6.287   3.600 -0.2846 -1.3755  0.4942
 5339TIP3    H215982   7.045   6.214   3.580 -0.3411 -1.5790  0.8597
 5340TIP3   OH215983   2.100   0.086   4.668 -0.5568 -0.2522  0.6588
 5340TIP3    H115984   2.021   0.088   4.723 -0.0828  1.2923  1.3292
 5340TIP3    H215985   2.099   0.170   4.622  0.3032 -0.5398  0.0899
 5341TIP3   OH215986   5.131   3.918   1.121  0.6183 -0.4218  0.3958
 5341TIP3    H115987   5.204   3.866   1.155  0.4930 -0.2738  0.9099
 5341TIP3    H215988   5.167   4.007   1.114  0.6302 -0.4441  0.1836
 5342TIP3   OH215989   4.678   3.426   3.166 -0.5867 -0.1614  0.1002
 5342TIP3    H115990   4.726   3.394   3.243  0.7239  1.1709 -0.1114
 5342TIP3    H215991   4.597   3.463   3.202 -0.5699 -0.6889  0.6912
 5343TIP3   OH215992   4.510   2.203   3.704  0.3759  0.2585 -0.2390
 5343TIP3    H115993   4.517   2.290   3.665  0.6435  0.3442 -0.0033
 5343TIP3    H215994   4.416   2.184   3.704  0.3816  0.1980 -1.0490
 5344TIP3   OH215995   4.734   1.895   2.037 -0.1670 -0.3948 -0.2673
 5344TIP3    H115996   4.652   1.873   1.993  0.0736  0.1085 -0.9946
 5344TIP3    H215997   4.793   1.823   2.016  0.0478  0.0050 -1.0614
 5345TIP3   OH215998   1.059   2.985   3.387  0.2579  0.0318  0.0262
 5345TIP3    H115999   0.982   3.019   3.343  0.8938  1.7306  0.1238
 5345TIP3    H216000   1.088   2.911   3.334 -0.8061  0.0520 -0.5949
 5346TIP3   OH216001   5.636   1.545   3.979 -0.2301 -0.0791 -0.0359
 5346TIP3    H116002   5.707   1.607   3.994  1.0655 -1.0480 -1.7569
 5346TIP3    H216003   5.576   1.590   3.920  0.3224 -0.1626 -0.6768
 5347TIP3   OH216004   5.279   3.340   4.477 -0.4595 -0.3339  0.6679
 5347TIP3    H116005   5.323   3.287   4.411 -0.0092 -1.0590  1.5247
 5347TIP3    H216006   5.222   3.278   4.523 -2.1066  0.5069 -0.1534
 5348TIP3   OH216007   1.049   1.898   3.218  0.2263 -0.9828  0.0949
 5348TIP3    H116008   1.084   1.898   3.307 -3.5519 -1.5631  1.7983
 5348TIP3    H216009   0.990   1.973   3.216 -0.1330 -1.2652 -1.7835
 5349TIP3   OH216010   4.658   1.331   0.347  0.7158  0.8994  0.1208
 5349TIP3    H116011   4.568   1.300   0.356  0.9840  0.2057  0.5734
 5349TIP3    H216012   4.692   1.284   0.271  1.0437  0.2465  0.6527
 5350TIP3   OH216013   3.898   2.744   5.453 -0.3867 -0.0685 -0.1784
 5350TIP3    H116014   3.923   2.653   5.440  3.6435  0.8836 -0.3351
 5350TIP3    H216015   3.857   2.769   5.370  0.7251 -1.0982 -1.0685
 5351TIP3   OH216016   2.603   0.331   5.709 -0.5611 -0.0856 -0.4050
 5351TIP3    H116017   2.560   0.267   5.767 -0.9593  0.0760 -0.5156
 5351TIP3    H216018   2.542   0.405   5.706 -0.1021  0.3003 -0.2822
 5352TIP3   OH216019   0.944   1.931   2.399 -0.5823  0.8518 -0.0768
 5352TIP3    H116020   0.936   1.858   2.338 -1.5074 -0.6365  1.7082
 5352TIP3    H216021   1.036   1.956   2.395 -0.3782  0.0002 -1.1739
 5353TIP3   OH216022   7.053   1.299   4.025  0.2218 -0.5503 -0.2096
 5353TIP3    H116023   7.058   1.350   3.945 -0.0314 -0.2388 -0.0278
 5353TIP3    H216024   6.982   1.339   4.075  0.7340 -0.4052  0.4123
 5354TIP3   OH216025   3.603   0.692   3.325  0.5666 -0.2818 -0.6524
 5354TIP3    H116026   3.572   0.646   3.247 -0.6526  0.2095 -0.4806
 5354TIP3    H216027   3.559   0.648   3.398  2.1181 -1.0978 -0.1540
 5355TIP3   OH216028   6.655   1.035   1.240  0.2043  0.1109  0.3777
 5355TIP3    H116029   6.617   1.104   1.186  0.8955  0.3149  0.1376
 5355TIP3    H216030   6.605   0.957   1.217 -1.4487  0.7563  1.6103
 5356TIP3   OH216031   3.036   0.482   1.795  0.6457  0.8504  0.5927
 5356TIP3    H116032   3.116   0.489   1.846 -0.6266 -2.6767  3.5064
 5356TIP3    H216033   2.973   0.538   1.840 -0.0280 -0.9820  2.0349
 5357TIP3   OH216034   5.206  -0.027   5.717 -0.6014  0.0164  0.3552
 5357TIP3    H116035   5.253   0.033   5.659 -0.6132 -1.7422 -1.6009
 5357TIP3    H216036   5.232  -0.000   5.805  2.1375  0.6643 -0.5539
 5358TIP3   OH216037   6.330   5.250   1.560 -0.2029  0.2443 -0.3216
 5358TIP3    H116038   6.359   5.308   1.630 -1.2095  1.8609 -1.1614
 5358TIP3    H216039   6.409   5.232   1.509  0.2327  0.4274  0.2850
 5359TIP3   OH216040   2.683   0.366   0.832  0.3017 -0.2257  0.0273
 5359TIP3    H116041   2.755   0.304   0.838 -0.5797 -1.1703  1.8920
 5359TIP3    H216042   2.604   0.311   0.838 -0.4969  1.0612  2.5841
 5360TIP3   OH216043   0.465   3.966   1.277  0.1144 -0.5468 -0.0813
 5360TIP3    H116044   0.542   4.015   1.249  0.7339 -1.3213  0.2340
 5360TIP3    H216045   0.454   3.899   1.210 -1.4884  0.7524 -1.2016
 5361TIP3   OH216046   3.769   5.564   5.146  0.1888  0.2836 -0.2042
 5361TIP3    H116047   3.819   5.583   5.226 -0.9818 -0.8882  0.8608
 5361TIP3    H216048   3.781   5.470   5.132  0.9614  0.5879 -1.8564
 5362TIP3   OH216049   5.330   0.670   5.407 -0.1410 -0.6461  0.0372
 5362TIP3    H116050   5.418   0.673   5.370 -0.1141 -2.0455 -0.0727
 5362TIP3    H216051   5.297   0.759   5.397  0.6692 -0.4704 -1.3754
 5363TIP3   OH216052   0.859   3.856   0.742  0.2612  0.1499 -0.1776
 5363TIP3    H116053   0.825   3.788   0.684 -2.8570 -0.0770  1.7257
 5363TIP3    H216054   0.806   3.933   0.722  0.8971  0.8004  0.6023
 5364TIP3   OH216055   2.655   1.762   4.433 -0.1503  0.4270 -0.3115
 5364TIP3    H116056   2.687   1.681   4.395 -1.1107  0.2253 -0.7244
 5364TIP3    H216057   2.563   1.745   4.454  0.3409  0.4763  2.2664
 5365TIP3   OH216058   3.098   3.911   0.350 -0.2155 -0.0041  0.1622
 5365TIP3    H116059   3.009   3.945   0.360 -0.8626 -1.3188 -0.9178
 5365TIP3    H216060   3.137   3.967   0.282 -0.4193  0.1661  0.1834
 5366TIP3   OH216061   0.349   5.288   4.880  0.1640  1.1112  0.1312
 5366TIP3    H116062   0.383   5.288   4.790 -0.5147  1.0768 -0.1343
 5366TIP3    H216063   0.258   5.314   4.870 -0.3422 -0.3896  0.6337
 5367TIP3   OH216064   5.455   2.379   3.324 -0.1476  0.1210  0.3270
 5367TIP3    H116065   5.372   2.415   3.357 -0.4512  0.4662 -0.7333
 5367TIP3    H216066   5.439   2.285   3.317 -0.7353  0.2645 -0.5584
 5368TIP3   OH216067   5.939   2.525   3.965  0.1601  0.1744 -0.2447
 5368TIP3    H116068   5.947   2.430   3.972  1.1049  0.3499  1.5903
 5368TIP3    H216069   5.961   2.543   3.874  0.1495 -1.3506 -0.5860
 5369TIP3   OH216070   4.630   1.419   0.969 -0.4345  0.2366  0.5082
 5369TIP3    H116071   4.723   1.425   0.988  0.5257  1.6676 -3.5104
 5369TIP3    H216072   4.594   1.504   0.993 -0.5702 -0.0506  1.3483
 5370TIP3   OH216073   1.778   2.481   3.601  0.2143 -0.2870 -0.1395
 5370TIP3    H116074   1.818   2.528   3.674  1.4903 -1.6350  0.0732
 5370TIP3    H216075   1.747   2.550   3.542 -0.5690  0.8174  1.5171
 5371TIP3   OH216076   6.200   4.928   3.914  0.5988 -0.2887 -0.2902
 5371TIP3    H116077   6.217   5.020   3.935 -0.4895  0.2530 -1.6721
 5371TIP3    H216078   6.187   4.887   4.000  2.1095  0.5972  0.4218
 5372TIP3   OH216079   3.473   3.155   0.665  0.6565 -0.1486 -0.2821
 5372TIP3    H116080   3.379   3.158   0.647  0.5761  1.8180  0.2705
 5372TIP3    H216081   3.478   3.133   0.759  0.7986 -1.0052 -0.4778
 5373TIP3   OH216082   6.716   3.658   5.489 -0.0412 -0.0037  0.1445
 5373TIP3    H116083   6.630   3.624   5.515 -0.6334  0.7328 -0.8191
 5373TIP3    H216084   6.706   3.753   5.488  1.0208  0.1349  0.7962
 5374TIP3   OH216085   3.359   5.409   2.947  0.6442  0.1446 -0.0650
 5374TIP3    H116086   3.349   5.402   2.852 -0.0086 -1.0074  0.0679
 5374TIP3    H216087   3.381   5.320   2.975  1.2558  0.5656  0.8266
 5375TIP3   OH216088   1.517   2.020   2.499  0.1468  0.3892 -0.1462
 5375TIP3    H116089   1.467   2.094   2.466 -1.2893 -0.0157  1.0430
 5375TIP3    H216090   1.537   1.969   2.421 -0.6976  0.9189 -0.7314
 5376TIP3   OH216091   4.495   1.598   3.068  0.4877 -0.2146 -0.3240
 5376TIP3    H116092   4.414   1.597   3.119  1.8264 -1.1273  1.9400
 5376TIP3    H216093   4.514   1.691   3.054  0.5215  0.1232  1.6907
 5377TIP3   OH216094   6.934   1.114   2.083  0.0020  0.0110  0.0225
 5377TIP3    H116095   6.851   1.088   2.043  0.1208 -1.1645  0.4805
 5377TIP3    H216096   6.942   1.058   2.160  2.4438 -1.8556 -1.4117
 5378TIP3   OH216097   3.253   0.586   5.635 -0.1024  0.6467 -0.2452
 5378TIP3    H116098   3.269   0.679   5.650  1.3889  0.3493  0.2010
 5378TIP3    H216099   3.301   0.566   5.555  2.2742 -0.3554  1.3110
 5379TIP3   OH216100   6.289   3.682   2.652  0.1838  1.4140  0.1125
 5379TIP3    H116101   6.317   3.675   2.561  0.1667  0.8525  0.1456
 5379TIP3    H216102   6.235   3.603   2.666 -0.2141  1.7457  0.4633
 5380TIP3   OH216103   4.201   3.983   0.550  0.1458 -0.1721 -0.1060
 5380TIP3    H116104   4.223   3.939   0.632 -0.6583  2.1624  1.4749
 5380TIP3    H216105   4.231   3.923   0.482  0.3252 -2.4776  1.8576
 5381TIP3   OH216106   2.634   2.691   1.174  0.0383 -0.4465  0.3403
 5381TIP3    H116107   2.689   2.628   1.222 -0.9268 -1.1037  0.5996
 5381TIP3    H216108   2.547   2.652   1.174 -0.4960  0.7065  0.1516
 5382TIP3   OH216109   4.217   4.767   1.822 -0.1045 -0.4148 -0.0878
 5382TIP3    H116110   4.221   4.861   1.804 -2.3998 -0.3273 -0.4095
 5382TIP3    H216111   4.171   4.730   1.747 -0.1709 -1.6447  0.5283
 5383TIP3   OH216112   4.333   3.254   4.251 -0.0689 -0.4554  0.2077
 5383TIP3    H116113   4.238   3.248   4.245 -0.3437  2.0127  0.8113
 5383TIP3    H216114   4.356   3.327   4.193  1.6003 -1.5913 -0.6512
 5384TIP3   OH216115   4.775   4.281   5.253  0.0177 -0.0726 -0.2933
 5384TIP3    H116116   4.740   4.335   5.183 -2.4804  0.5706  1.3461
 5384TIP3    H216117   4.841   4.336   5.295 -0.4713  0.6002 -0.3980
 5385TIP3   OH216118   0.525   3.342   2.454 -0.7148 -0.3434 -0.2426
 5385TIP3    H116119   0.556   3.413   2.398  0.5987 -1.7684 -1.4279
 5385TIP3    H216120   0.604   3.290   2.473 -1.2965 -0.4920  2.1303
 5386TIP3   OH216121   6.580   4.897   3.915  0.4816  0.0260  0.3680
 5386TIP3    H116122   6.667   4.927   3.888  0.4792 -0.0875  0.2347
 5386TIP3    H216123   6.547   4.849   3.839  0.8472 -1.0819  0.8870
 5387TIP3   OH216124   3.232   0.585   4.289  0.2716 -0.4429  0.3917
 5387TIP3    H116125   3.321   0.615   4.305 -0.0557  1.1287 -0.5603
 5387TIP3    H216126   3.226   0.501   4.336  1.8401  0.0175  1.4769
 5388TIP3   OH216127   0.006   1.185   2.911  0.0729 -0.7994  0.6962
 5388TIP3    H116128   0.059   1.254   2.951 -1.9259  1.4002 -0.2223
 5388TIP3    H216129  -0.051   1.156   2.982 -2.7102  2.3312 -0.0216
 5389TIP3   OH216130   0.582   4.853   2.279  0.1961  0.2937  0.4602
 5389TIP3    H116131   0.494   4.891   2.283  0.3173  0.8142 -1.0560
 5389TIP3    H216132   0.585   4.809   2.194  0.9783 -0.8394  1.0519
 5390TIP3   OH216133   5.495   1.681   2.178 -0.1418  0.4143  0.0682
 5390TIP3    H116134   5.401   1.663   2.188  0.0832 -0.2307  1.3074
 5390TIP3    H216135   5.499   1.768   2.139 -1.2682  1.2193  1.6235
 5391TIP3   OH216136   1.535   4.035   1.715  0.0956  0.2055 -0.0239
 5391TIP3    H116137   1.512   4.099   1.647 -0.1489  0.6910  0.5040
 5391TIP3    H216138   1.484   4.063   1.792 -0.7410 -1.1718 -0.0473
 5392TIP3   OH216139   2.489   5.100   1.464  0.2337  0.2012 -0.2964
 5392TIP3    H116140   2.503   5.187   1.429  0.8618  0.4640  0.5630
 5392TIP3    H216141   2.535   5.100   1.548  0.3000 -0.9746 -0.3078
 5393TIP3   OH216142   6.162   3.096   1.219 -0.1546 -0.4842 -0.7276
 5393TIP3    H116143   6.184   3.094   1.126  0.9340  3.2073 -0.6862
 5393TIP3    H216144   6.087   3.155   1.225 -0.3018 -0.7872  0.7493
 5394TIP3   OH216145   5.135   4.683   1.113  0.1803  0.3850 -0.0808
 5394TIP3    H116146   5.057   4.644   1.152  1.8073 -1.0281  2.0401
 5394TIP3    H216147   5.181   4.610   1.073  1.6531  0.6407  1.0235
 5395TIP3   OH216148   6.417   0.509   5.207  0.0351 -0.3649  0.1973
 5395TIP3    H116149   6.392   0.479   5.119 -0.7923  0.5554  0.0946
 5395TIP3    H216150   6.390   0.438   5.265 -3.0930  0.5856  0.1043
 5396TIP3   OH216151   3.779   6.571   4.178  0.1269 -0.4137 -0.2678
 5396TIP3    H116152   3.693   6.611   4.179  0.3342  0.0370  0.5082
 5396TIP3    H216153   3.772   6.499   4.115 -0.1677  1.0094 -1.9174
 5397TIP3   OH216154   3.265   3.447   1.866 -0.2041  0.0212 -0.1312
 5397TIP3    H116155   3.175   3.417   1.880 -0.4213  0.5347 -0.3987
 5397TIP3    H216156   3.270   3.530   1.913  0.1243  0.0122 -0.1482
 5398TIP3   OH216157   2.301   0.269   0.916  0.1395 -0.2044 -0.6610
 5398TIP3    H116158   2.223   0.244   0.966 -0.3129  0.4824 -1.0025
 5398TIP3    H216159   2.315   0.361   0.938  2.0505 -0.8361  0.9314
 5399TIP3   OH216160   6.408   3.702   5.799 -0.1537 -0.1727 -0.0282
 5399TIP3    H116161   6.325   3.681   5.841  0.4259 -1.5263  0.4917
 5399TIP3    H216162   6.404   3.658   5.714  0.0430 -0.2343 -0.0044
 5400TIP3   OH216163   6.203   3.003   5.767  0.1270  0.1246 -0.1459
 5400TIP3    H116164   6.133   2.947   5.800  0.8273 -0.5225  0.2902
 5400TIP3    H216165   6.224   3.061   5.841  1.2193 -0.8585  0.3584
 5401TIP3   OH216166   4.485   3.396   1.435  0.1651 -1.1539  0.3856
 5401TIP3    H116167   4.453   3.421   1.522  1.9500  0.0121  0.7655
 5401TIP3    H216168   4.476   3.476   1.383 -0.4326 -1.7089 -0.3829
 5402TIP3   OH216169   2.428   4.405   3.288 -0.4035 -0.0906  0.7168
 5402TIP3    H116170   2.489   4.465   3.244 -0.3426 -1.0115 -0.5189
 5402TIP3    H216171   2.478   4.324   3.300 -0.3553  0.1806  2.7347
 5403TIP3   OH216172   4.569   1.983   4.994  0.3648  0.2757 -0.3134
 5403TIP3    H116173   4.539   1.940   4.914  0.7459  0.2985 -0.4707
 5403TIP3    H216174   4.511   2.059   5.004  0.5834  0.5107 -0.8003
 5404TIP3   OH216175   0.088   6.736   3.431  0.4578  0.0817 -0.1374
 5404TIP3    H116176   0.039   6.675   3.487 -0.2135  0.6031 -0.1399
 5404TIP3    H216177   0.121   6.802   3.492 -0.1779  0.5888 -0.3352
 5405TIP3   OH216178   3.787   0.223   0.446  0.7766 -0.2319 -0.0137
 5405TIP3    H116179   3.743   0.146   0.483  2.1273 -0.4017  1.3537
 5405TIP3    H216180   3.745   0.236   0.361 -1.2209 -0.9431  0.8045
 5406TIP3   OH216181   4.126   6.401   5.327  0.1518  0.0963  0.2296
 5406TIP3    H116182   4.147   6.494   5.318 -0.6930  0.3372  0.5677
 5406TIP3    H216183   4.133   6.366   5.239  0.3699  0.5093  0.0809
 5407TIP3   OH216184   0.799   2.401   4.191 -0.0415  0.4976 -0.5796
 5407TIP3    H116185   0.803   2.362   4.104 -1.9630  0.3131 -0.6392
 5407TIP3    H216186   0.777   2.328   4.249 -1.0782  0.9977 -0.3133
 5408TIP3   OH216187   0.262   6.487   1.843 -0.0128  0.2576 -0.1305
 5408TIP3    H116188   0.224   6.408   1.804  0.3417  1.1540 -2.4309
 5408TIP3    H216189   0.356   6.474   1.836  0.0508  1.0913 -1.0218
 5409TIP3   OH216190   3.377   5.130   2.732 -0.4241  0.1880  0.1399
 5409TIP3    H116191   3.378   5.038   2.706  0.1359  0.6618 -1.6767
 5409TIP3    H216192   3.287   5.146   2.760 -1.3048 -0.2678 -2.2026
 5410TIP3   OH216193   3.448   3.623   5.789  0.2651  0.0239  0.2604
 5410TIP3    H116194   3.405   3.685   5.847  0.2677  0.5372 -0.2794
 5410TIP3    H216195   3.456   3.543   5.841 -0.4937  0.2119  0.6830
 5411TIP3   OH216196   1.784   1.808   4.466  0.0056 -0.3020  0.0602
 5411TIP3    H116197   1.806   1.829   4.556 -0.9954 -2.5800  0.8961
 5411TIP3    H216198   1.859   1.757   4.434  1.0080  1.6628 -0.9376
 5412TIP3   OH216199   1.574   3.580   3.284 -0.1090 -0.0319 -0.6582
 5412TIP3    H116200   1.564   3.489   3.258 -3.5697 -0.2363  0.8373
 5412TIP3    H216201   1.665   3.601   3.263  0.6432 -3.5837 -1.6553
 5413TIP3   OH216202   2.239   4.341   5.523 -0.0337 -0.2182  0.0928
 5413TIP3    H116203   2.177   4.379   5.585  0.2593  0.2745  0.0916
 5413TIP3    H216204   2.188   4.279   5.471 -0.5121  0.1561  0.1147
 5414TIP3   OH216205   0.970   3.014   2.287 -0.2691  0.1125 -0.2604
 5414TIP3    H116206   0.972   3.109   2.274  1.5665 -0.0737 -1.7572
 5414TIP3    H216207   1.059   2.992   2.314 -0.4449 -1.2799 -0.7524
 5415TIP3   OH216208   0.026   6.242   2.488  0.1081  0.0901 -0.1956
 5415TIP3    H116209   0.034   6.214   2.397  1.2692  0.5046 -0.2423
 5415TIP3    H216210   0.112   6.222   2.527  0.0671  1.1009  0.4511
 5416TIP3   OH216211   2.788   6.762   1.387 -0.5385  0.0807 -0.5133
 5416TIP3    H116212   2.875   6.740   1.419 -1.0689  0.6985  1.4776
 5416TIP3    H216213   2.789   6.857   1.378 -0.5194 -0.0399 -2.1100
 5417TIP3   OH216214   0.719   5.023   4.521 -0.0626 -0.2237  0.8104
 5417TIP3    H116215   0.723   5.098   4.580 -0.6543  0.3048  0.1863
 5417TIP3    H216216   0.726   4.947   4.580 -1.3281  0.2736  1.6533
 5418TIP3   OH216217   0.031   1.834   5.583  0.3291  0.7529 -0.0715
 5418TIP3    H116218   0.016   1.925   5.559 -2.5963  0.1919 -0.7905
 5418TIP3    H216219   0.003   1.784   5.506 -2.5684 -0.8632  1.8156
 5419TIP3   OH216220   2.138   6.074   4.034  0.0337 -0.0819  0.6669
 5419TIP3    H116221   2.170   5.984   4.034 -1.5446 -0.7880 -2.6724
 5419TIP3    H216222   2.218   6.127   4.042  1.2664 -1.7804  0.2621
 5420TIP3   OH216223   5.501   0.450   0.311  0.2736  0.0242 -0.1732
 5420TIP3    H116224   5.482   0.522   0.371  1.3547  0.6357 -0.5455
 5420TIP3    H216225   5.589   0.468   0.278 -0.0385 -0.6408 -1.4475
 5421TIP3   OH216226   5.572   2.402   4.101  0.2665  0.2452 -0.0858
 5421TIP3    H116227   5.560   2.371   4.191  1.3057 -0.8041 -0.2761
 5421TIP3    H216228   5.605   2.491   4.110  0.3112  0.1681  0.5712
 5422TIP3   OH216229   6.663   1.692   4.096 -0.2171  0.0716 -0.3777
 5422TIP3    H116230   6.633   1.771   4.052  0.7376 -0.0362 -1.2458
 5422TIP3    H216231   6.705   1.640   4.028  0.8031 -0.3508  0.5386
 5423TIP3   OH216232   1.788   3.602   5.446  0.0313  0.0087 -0.6204
 5423TIP3    H116233   1.784   3.630   5.537 -1.0304  0.9126 -0.9333
 5423TIP3    H216234   1.876   3.626   5.418 -0.4479  1.9921 -0.5358
 5424TIP3   OH216235   1.560   0.670   3.355  0.2628  0.2314 -0.7090
 5424TIP3    H116236   1.572   0.581   3.389  3.8295  0.1546 -1.7327
 5424TIP3    H216237   1.588   0.727   3.428 -0.6422  0.4803 -0.5453
 5425TIP3   OH216238   2.231   1.048   5.073  0.1039 -0.1739 -0.0445
 5425TIP3    H116239   2.274   0.965   5.058 -1.8292 -0.9406 -1.8562
 5425TIP3    H216240   2.138   1.026   5.078 -0.3987  1.7909  0.1137
 5426TIP3   OH216241   4.256   3.973   3.447  0.0529 -0.2616 -0.3157
 5426TIP3    H116242   4.327   3.920   3.483 -1.0390 -0.6253  1.4008
 5426TIP3    H216243   4.280   4.063   3.468 -0.0293 -0.3857  0.3090
 5427TIP3   OH216244   1.026   4.718   5.624  0.3846 -0.5238 -0.3471
 5427TIP3    H116245   0.953   4.705   5.562  0.4828 -2.0965 -0.1542
 5427TIP3    H216246   1.083   4.643   5.611  2.2680  0.9008 -0.8233
 5428TIP3   OH216247   4.236   3.434   1.183  0.1143 -0.0024 -0.0866
 5428TIP3    H116248   4.225   3.518   1.139 -0.7693 -1.2474 -2.3693
 5428TIP3    H216249   4.178   3.440   1.260 -1.8352  0.6283 -1.5198
 5429TIP3   OH216250   2.037   5.105   5.765 -0.4196 -0.1259  0.0128
 5429TIP3    H116251   2.124   5.067   5.754  0.3279  0.5436  2.7043
 5429TIP3    H216252   2.001   5.110   5.677  2.3435 -0.2398 -1.2217
 5430TIP3   OH216253   0.266   0.385   5.835 -0.9941  0.0700 -0.2783
 5430TIP3    H116254   0.313   0.316   5.789  0.9612  1.2269 -0.0997
 5430TIP3    H216255   0.307   0.467   5.805 -2.3254  1.0816  0.5455
 5431TIP3   OH216256   3.920   3.458   4.067  0.0760  0.1414  0.3572
 5431TIP3    H116257   3.979   3.385   4.050 -0.4522  0.0101 -1.0228
 5431TIP3    H216258   3.849   3.447   4.003 -0.6848  1.1214  1.0022
 5432TIP3   OH216259   4.203   4.672   5.591 -0.0955  0.3359 -0.3553
 5432TIP3    H116260   4.169   4.701   5.507 -1.5004 -0.2060  0.0061
 5432TIP3    H216261   4.235   4.583   5.575 -0.2907  0.2619 -0.3320
 5433TIP3   OH216262   7.060   1.110   1.427 -0.5870  0.3233 -0.2921
 5433TIP3    H116263   7.149   1.139   1.408  0.0772 -1.1485  0.4364
 5433TIP3    H216264   7.016   1.109   1.343  0.7294 -0.9915 -1.0052
 5434TIP3   OH216265   7.162   6.148   1.373  0.4019 -0.7268  0.2042
 5434TIP3    H116266   7.188   6.149   1.281  0.0407 -0.3927  0.1005
 5434TIP3    H216267   7.200   6.227   1.410 -0.0183 -0.5022  0.1719
 5435TIP3   OH216268   3.231   6.353   5.821  0.1588 -0.2449 -0.1381
 5435TIP3    H116269   3.286   6.309   5.757 -0.5242 -1.2139 -0.0796
 5435TIP3    H216270   3.144   6.316   5.808 -0.1660  0.1597  0.7818
 5436TIP3   OH216271   1.657   3.354   0.789  0.6597 -0.6190 -0.2521
 5436TIP3    H116272   1.661   3.266   0.827  0.9751 -0.2787  0.5337
 5436TIP3    H216273   1.579   3.394   0.827  0.7965 -0.3836 -0.2131
 5437TIP3   OH216274   1.375   5.938   5.390  0.0254  0.6223 -0.2339
 5437TIP3    H116275   1.470   5.941   5.384  0.3261  2.5172  2.9914
 5437TIP3    H216276   1.350   5.854   5.351  2.9044  0.3755 -1.7594
 5438TIP3   OH216277   4.115   6.780   4.517  0.6400 -0.0726 -0.0004
 5438TIP3    H116278   4.095   6.768   4.424  2.1642 -0.4663 -0.3095
 5438TIP3    H216279   4.050   6.727   4.563 -1.3206  1.5949 -0.7154
 5439TIP3   OH216280   5.229   0.605   3.964  0.5153  0.2568 -0.3877
 5439TIP3    H116281   5.166   0.571   3.900  1.5242 -1.4027 -0.5553
 5439TIP3    H216282   5.314   0.574   3.932  0.9328 -1.9824  2.5107
 5440TIP3   OH216283   3.133   5.252   2.860  0.0146 -0.5993 -0.3952
 5440TIP3    H116284   3.060   5.190   2.854 -1.3773  0.9106  0.3196
 5440TIP3    H216285   3.164   5.243   2.950 -0.7018  0.2754 -0.0511
 5441TIP3   OH216286   3.374   2.862   0.790 -0.5255  0.2166  0.0300
 5441TIP3    H116287   3.346   2.874   0.881 -0.3243  0.0615  0.1138
 5441TIP3    H216288   3.309   2.803   0.752 -0.7631  0.4951 -0.0060
 5442TIP3   OH216289   1.640   4.540   1.598  0.3655  0.2127 -0.4125
 5442TIP3    H116290   1.601   4.510   1.516  0.3635 -2.1076  0.3792
 5442TIP3    H216291   1.734   4.531   1.584  0.3335 -2.4779  0.5567
 5443TIP3   OH216292   1.754   5.149   2.422  0.6314  0.3950  0.3743
 5443TIP3    H116293   1.751   5.081   2.490  1.2771  1.0554  1.0938
 5443TIP3    H216294   1.663   5.164   2.399  0.4239 -0.0816  0.8486
 5444TIP3   OH216295   2.270   2.075   2.319 -0.8090 -0.7237 -0.8969
 5444TIP3    H116296   2.229   2.104   2.237 -0.7250  0.8326 -0.4336
 5444TIP3    H216297   2.356   2.042   2.293  1.2943  4.0864 -1.1740
 5445TIP3   OH216298   5.496   4.911   0.629 -0.3114 -0.6496 -0.0667
 5445TIP3    H116299   5.504   4.841   0.565 -1.3688 -0.8912  0.0386
 5445TIP3    H216300   5.426   4.882   0.688 -0.5170  0.3161  0.1939
 5446TIP3   OH216301   2.054   0.449   1.364 -0.2489  0.1722  0.1601
 5446TIP3    H116302   2.019   0.518   1.308  1.0055  0.1090 -0.7435
 5446TIP3    H216303   2.032   0.368   1.318 -0.1848  0.0643  0.3192
 5447TIP3   OH216304   1.457   3.910   4.999 -0.2107 -0.1434  0.2736
 5447TIP3    H116305   1.529   3.970   4.978 -0.5657 -0.1673 -1.1152
 5447TIP3    H216306   1.440   3.925   5.092  1.8812 -0.4668  0.7684
 5448TIP3   OH216307   1.224   3.007   4.421 -0.0288 -0.0883  0.3570
 5448TIP3    H116308   1.243   2.948   4.348 -1.2348  0.1336 -0.1593
 5448TIP3    H216309   1.292   3.073   4.417 -0.9606  0.8318 -1.5867
 5449TIP3   OH216310   5.132   5.180   3.349  0.0728  0.4720  0.3819
 5449TIP3    H116311   5.078   5.257   3.332  0.5339  0.8360  0.5481
 5449TIP3    H216312   5.138   5.175   3.445  1.6674  1.3883  0.3636
 5450TIP3   OH216313   3.520   2.560   2.811  0.8845 -0.1169 -0.1454
 5450TIP3    H116314   3.596   2.507   2.833 -0.3008 -1.4658  0.9405
 5450TIP3    H216315   3.506   2.546   2.717  1.8191 -0.0512 -0.2967
 5451TIP3   OH216316   0.663   2.878   3.121  0.3541 -0.2352  0.2571
 5451TIP3    H116317   0.674   2.834   3.037  0.8043  0.9209 -0.3072
 5451TIP3    H216318   0.750   2.911   3.143  0.1966 -0.3298  1.0833
 5452TIP3   OH216319   1.453   1.723   0.409  0.2571  0.4251 -0.0435
 5452TIP3    H116320   1.493   1.703   0.325  1.1932  1.6723  0.0751
 5452TIP3    H216321   1.386   1.788   0.389 -1.2238 -1.0947 -0.1355
 5453TIP3   OH216322   3.142   6.288   5.408 -0.0485 -0.3868 -0.4166
 5453TIP3    H116323   3.130   6.376   5.443  0.7051 -0.5434  0.2937
 5453TIP3    H216324   3.062   6.270   5.359  0.4612  1.3167 -1.9875
 5454TIP3   OH216325   4.013   5.788   2.337  0.5188  0.2098 -0.5031
 5454TIP3    H116326   3.920   5.769   2.324  0.6520 -1.0826  0.2590
 5454TIP3    H216327   4.016   5.883   2.352 -0.7926  0.1519  0.3103
 5455TIP3   OH216328   2.342   2.859   2.044 -0.2593  0.0138 -0.8280
 5455TIP3    H116329   2.306   2.917   1.977 -1.5875 -1.1829 -1.2068
 5455TIP3    H216330   2.418   2.906   2.078  1.4146  0.0593 -4.1768
 5456TIP3   OH216331   4.496   3.607   0.356 -0.5298  0.4752  0.1812
 5456TIP3    H116332   4.409   3.568   0.346 -0.3527 -0.3444  1.5468
 5456TIP3    H216333   4.480   3.692   0.398 -0.6593  0.2410  0.6070
 5457TIP3   OH216334   2.749   6.719   0.593  0.9146 -1.1864  0.3127
 5457TIP3    H116335   2.716   6.719   0.683 -0.8522 -2.1171 -0.2803
 5457TIP3    H216336   2.773   6.810   0.576 -0.9981 -0.5088  0.9673
 5458TIP3   OH216337   3.324   3.314   4.666 -0.5916  0.3115  0.3962
 5458TIP3    H116338   3.253   3.328   4.729 -1.4021 -0.7390 -0.2479
 5458TIP3    H216339   3.325   3.394   4.612 -0.8943  0.5765  0.7795
 5459TIP3   OH216340   3.547   6.636   0.236 -0.1083  0.2736 -0.1798
 5459TIP3    H116341   3.524   6.568   0.173  0.2878  0.2017 -0.2489
 5459TIP3    H216342   3.640   6.652   0.221  0.3410 -0.7585  1.3661
 5460TIP3   OH216343   6.432   4.841   1.071  0.8546  0.3108 -0.5982
 5460TIP3    H116344   6.395   4.876   0.989 -1.2213 -1.4958 -0.5199
 5460TIP3    H216345   6.425   4.914   1.132 -1.8620  0.3862 -0.8654
 5461TIP3   OH216346   3.873   0.566   1.344  0.4415 -0.1820 -0.4208
 5461TIP3    H116347   3.839   0.490   1.392  0.1039  0.7828  0.9203
 5461TIP3    H216348   3.968   0.554   1.345  0.3616 -0.9684 -0.9087
 5462TIP3   OH216349   5.539   0.398   4.069 -0.3336 -0.6674  0.3095
 5462TIP3    H116350   5.465   0.361   4.020 -0.3507 -2.4131  1.5550
 5462TIP3    H216351   5.499   0.444   4.142 -0.2771  1.3988 -0.8737
 5463TIP3   OH216352   4.403   0.393   3.755  0.4236  0.0661 -0.0308
 5463TIP3    H116353   4.434   0.466   3.809  1.8222 -0.3490 -0.2257
 5463TIP3    H216354   4.395   0.430   3.668  0.0016  0.2657  0.0890
 5464TIP3   OH216355   0.317   5.274   5.166  0.5767  0.4595  0.3348
 5464TIP3    H116356   0.238   5.220   5.164  0.6280  0.4003 -0.3009
 5464TIP3    H216357   0.326   5.306   5.077  1.3116  0.4158  0.3895
 5465TIP3   OH216358   1.695   3.368   0.178  0.4623  0.2604  0.3035
 5465TIP3    H116359   1.749   3.301   0.136  0.8630 -0.1280  1.4068
 5465TIP3    H216360   1.651   3.322   0.250 -1.3232  0.5712 -0.5224
 5466TIP3   OH216361   4.041   0.949   2.246 -0.0964 -0.2377 -0.1100
 5466TIP3    H116362   4.072   1.020   2.302 -0.5243  0.9856 -1.3714
 5466TIP3    H216363   3.992   0.892   2.306 -0.6435  1.0771  0.7681
 5467TIP3   OH216364   6.220   3.493   0.580 -0.2472  0.0976 -0.0043
 5467TIP3    H116365   6.150   3.497   0.645  0.1794  1.8061  0.4137
 5467TIP3    H216366   6.222   3.581   0.542 -0.2528 -0.7590 -2.1062
 5468TIP3   OH216367   3.087   1.266   0.329 -0.0466 -0.0191 -0.5173
 5468TIP3    H116368   3.174   1.274   0.289  0.0228 -2.2219 -0.9562
 5468TIP3    H216369   3.042   1.347   0.305  2.4835  2.1663  1.4259
 5469TIP3   OH216370   3.404   3.135   3.816  0.1675  0.1422 -0.7719
 5469TIP3    H116371   3.321   3.093   3.841  1.2452 -0.6876  1.6061
 5469TIP3    H216372   3.400   3.222   3.856  0.8801 -0.3037  0.2998
 5470TIP3   OH216373   3.201   3.792   0.596 -0.1125 -0.1219  0.4593
 5470TIP3    H116374   3.115   3.780   0.636 -0.8751  1.4037 -0.6197
 5470TIP3    H216375   3.182   3.824   0.508  1.5562  0.8040  0.3931
 5471TIP3   OH216376   3.240   1.622   1.020 -0.5354  0.2448 -0.3628
 5471TIP3    H116377   3.217   1.529   1.016 -0.6343  0.2308  0.4003
 5471TIP3    H216378   3.195   1.661   0.945 -0.4332 -0.3350 -0.7315
 5472TIP3   OH216379   4.323   0.473   5.371 -0.3244 -0.0332 -0.0784
 5472TIP3    H116380   4.234   0.439   5.379 -0.1216 -0.8110 -0.8797
 5472TIP3    H216381   4.379   0.396   5.382  0.1536  0.0183 -1.7923
 5473TIP3   OH216382   0.351   6.103   2.417  0.0500  0.3799 -0.3013
 5473TIP3    H116383   0.327   6.154   2.494  0.4780 -0.3298  0.2990
 5473TIP3    H216384   0.300   6.022   2.425  1.8396 -0.7115  0.4634
 5474TIP3   OH216385   5.781   3.760   1.807  0.1543 -0.4233  0.2276
 5474TIP3    H116386   5.850   3.708   1.848  0.2603 -2.6665 -2.5228
 5474TIP3    H216387   5.711   3.697   1.788  0.0841  0.4253 -2.7958
 5475TIP3   OH216388   3.226   5.755   3.908 -0.4008  0.0199 -0.0405
 5475TIP3    H116389   3.146   5.703   3.899 -1.5952  1.8079 -0.4646
 5475TIP3    H216390   3.234   5.772   4.002 -1.2276  0.8116 -0.0955
 5476TIP3   OH216391   4.173   5.572   1.872  0.7361 -0.1974 -0.6661
 5476TIP3    H116392   4.240   5.640   1.884 -0.0776  0.5683 -0.3405
 5476TIP3    H216393   4.129   5.566   1.956  2.1261 -2.6396 -0.0192
 5477TIP3   OH216394   4.660   5.414   2.826  0.1527  0.0087 -0.1389
 5477TIP3    H116395   4.684   5.333   2.781  0.6539 -0.6817  1.3017
 5477TIP3    H216396   4.744   5.459   2.839  0.0099  0.2231  0.0379
 5478TIP3   OH216397   0.582   5.775   2.860 -0.0442 -0.1906 -0.0097
 5478TIP3    H116398   0.594   5.695   2.809  0.2947 -0.0195 -0.1963
 5478TIP3    H216399   0.664   5.822   2.852 -0.2778  0.2278  0.0151
 5479TIP3   OH216400   0.857   0.860   2.533  0.2234  0.3954 -0.0913
 5479TIP3    H116401   0.771   0.834   2.502  0.7597 -1.0529 -0.4641
 5479TIP3    H216402   0.847   0.869   2.628 -0.0393 -1.2310  0.0768
 5480TIP3   OH216403   5.496   4.966   3.223  0.8420  0.3873 -0.3622
 5480TIP3    H116404   5.414   5.009   3.202  0.2246  0.7645  2.3984
 5480TIP3    H216405   5.496   4.886   3.169 -0.0080  1.6773 -2.3802
 5481TIP3   OH216406   3.371   6.060   3.863  0.0994 -0.3986  0.1061
 5481TIP3    H116407   3.382   6.014   3.947  0.5335 -1.6219 -0.5962
 5481TIP3    H216408   3.445   6.120   3.859  1.4923 -2.0763 -0.4589
 5482TIP3   OH216409   2.422   5.284   4.332  0.2947 -0.1384 -0.7778
 5482TIP3    H116410   2.411   5.376   4.307 -0.1679 -0.0958 -0.4216
 5482TIP3    H216411   2.442   5.286   4.426 -2.9480 -0.5359  0.0482
 5483TIP3   OH216412   1.017   5.382   5.017 -0.2212  0.5196  0.6206
 5483TIP3    H116413   1.034   5.470   5.050  3.3187  0.0674  0.3790
 5483TIP3    H216414   1.014   5.392   4.922 -3.6876  0.8047  0.6139
 5484TIP3   OH216415   6.367   5.315   3.110  0.5534  0.0954 -0.3030
 5484TIP3    H116416   6.392   5.310   3.018  1.9240 -0.6809  0.0781
 5484TIP3    H216417   6.280   5.275   3.113  1.3296 -1.7890 -0.9979
 5485TIP3   OH216418   3.010   5.914   0.470  0.0195 -0.2550 -0.4535
 5485TIP3    H116419   2.970   5.986   0.422 -0.9745 -0.7998 -0.4653
 5485TIP3    H216420   2.989   5.836   0.419 -0.6328 -0.7886  0.5831
 5486TIP3   OH216421   1.560   2.188   4.393 -0.3695 -0.2653  0.4165
 5486TIP3    H116422   1.599   2.159   4.475  1.6570  0.5160 -0.2190
 5486TIP3    H216423   1.568   2.113   4.334 -0.0497 -0.1817  0.3550
 5487TIP3   OH216424   2.928   6.074   0.273  0.2445  0.3149  0.5244
 5487TIP3    H116425   2.946   6.168   0.279  2.1169  0.1763 -1.5236
 5487TIP3    H216426   2.855   6.069   0.211 -0.6186  0.4249  1.4977
 5488TIP3   OH216427   4.586   3.927   2.053  0.3333  0.1110  0.6100
 5488TIP3    H116428   4.498   3.891   2.062  0.9546 -1.5605  0.3847
 5488TIP3    H216429   4.604   3.968   2.138 -0.8069  0.8451  0.5100
 5489TIP3   OH216430   0.689   5.882   0.529 -0.0777 -0.1571 -0.3412
 5489TIP3    H116431   0.780   5.854   0.541  0.1512  0.0885 -1.3386
 5489TIP3    H216432   0.637   5.823   0.584  0.7816  0.4968  1.2287
 5490TIP3   OH216433   1.550   2.212   4.011 -0.0664  0.3344 -0.6117
 5490TIP3    H116434   1.459   2.189   4.030  0.7474 -0.6610  2.5357
 5490TIP3    H216435   1.596   2.128   4.005  0.8239  0.8435 -1.2499
 5491TIP3   OH216436   0.394   4.493   0.525  0.0896  0.2979  0.1123
 5491TIP3    H116437   0.360   4.567   0.474 -0.7192 -0.7140 -0.9082
 5491TIP3    H216438   0.413   4.529   0.611 -1.2519  1.4891 -0.0410
 5492TIP3   OH216439   5.298   6.319   0.468  0.3973  0.4803 -0.0157
 5492TIP3    H116440   5.289   6.405   0.510 -0.2182  0.3168  0.1983
 5492TIP3    H216441   5.384   6.322   0.425  0.4751  1.1204  0.1743
 5493TIP3   OH216442   2.197   4.379   4.105 -0.9184 -0.2496 -0.3945
 5493TIP3    H116443   2.244   4.295   4.107 -0.3429  0.0647  1.4999
 5493TIP3    H216444   2.258   4.441   4.066 -0.9435 -0.4727 -0.7971
 5494TIP3   OH216445   5.419   1.308   1.647  0.3949  0.3782  0.5958
 5494TIP3    H116446   5.397   1.365   1.721  0.1467  2.1293 -0.7656
 5494TIP3    H216447   5.336   1.295   1.602  0.7406  0.2182  0.0047
 5495TIP3   OH216448   4.814   5.549   4.683  1.0815  0.5358  0.2787
 5495TIP3    H116449   4.862   5.521   4.760 -0.8288  0.7212  1.6278
 5495TIP3    H216450   4.739   5.599   4.718  0.5645  1.2909 -1.7261
 5496TIP3   OH216451   6.560   0.404   4.246  0.3904 -0.5430  0.3620
 5496TIP3    H116452   6.534   0.494   4.223  3.1552 -0.0616 -1.3809
 5496TIP3    H216453   6.479   0.354   4.240 -0.8796  1.4828 -0.6328
 5497TIP3   OH216454   0.967   2.598   0.396  0.1842  1.2075  0.4365
 5497TIP3    H116455   0.964   2.557   0.483  0.8955  0.8630  0.3018
 5497TIP3    H216456   0.916   2.540   0.340  2.3166 -0.3146 -0.0710
 5498TIP3   OH216457   2.386   3.373   3.314 -0.2564  0.1928 -0.2789
 5498TIP3    H116458   2.339   3.408   3.238 -0.9412 -1.3938 -0.6327
 5498TIP3    H216459   2.330   3.396   3.388  0.0322  1.0886 -0.3317
 5499TIP3   OH216460   1.259   0.222   0.967 -0.1828 -0.2918  0.0706
 5499TIP3    H116461   1.320   0.276   0.916 -0.4856  0.1476  0.1700
 5499TIP3    H216462   1.315   0.165   1.019  0.1979  1.1119  1.2682
 5500TIP3   OH216463   4.712   6.074   3.057  0.3940  0.0806 -0.2130
 5500TIP3    H116464   4.787   6.037   3.104 -0.1941 -0.9065 -0.0390
 5500TIP3    H216465   4.657   6.111   3.125  0.9328  1.2471 -0.3775
 5501TIP3   OH216466   6.318   0.690   4.263 -1.1562  0.5693 -0.0185
 5501TIP3    H116467   6.336   0.767   4.316 -0.7213  0.7469 -0.4158
 5501TIP3    H216468   6.223   0.690   4.251 -1.1849  0.8956  0.2043
 5502TIP3   OH216469   0.875   2.203   5.553  0.7239  0.2063 -0.2894
 5502TIP3    H116470   0.909   2.285   5.587  1.3696  0.4343 -1.4250
 5502TIP3    H216471   0.787   2.224   5.523  0.8669  0.4706 -0.5228
 5503TIP3   OH216472   5.120   1.044   3.047  0.0328 -0.9395  0.4263
 5503TIP3    H116473   5.158   1.095   3.118  5.5614 -3.4330 -0.1759
 5503TIP3    H216474   5.122   1.103   2.971  1.1987 -0.3656  0.8724
 5504TIP3   OH216475   4.982   4.651   1.544 -0.8486 -0.1091 -0.2424
 5504TIP3    H116476   5.026   4.593   1.607 -2.1030  0.3160  1.0790
 5504TIP3    H216477   4.904   4.682   1.590 -1.9374  0.0811 -2.0777
 5505TIP3   OH216478   4.840   3.315   5.830  0.3379 -0.1308  0.4662
 5505TIP3    H116479   4.777   3.365   5.881 -0.9938  0.2146 -1.4174
 5505TIP3    H216480   4.902   3.380   5.798 -0.7691  0.2241 -1.0779
 5506TIP3   OH216481   5.048   3.604   5.463  0.0052  0.0810  0.1934
 5506TIP3    H116482   5.044   3.653   5.381  0.7450  0.6264  0.4764
 5506TIP3    H216483   4.971   3.547   5.460  0.6832 -0.7873 -1.4256
 5507TIP3   OH216484   1.498   5.342   0.951 -0.3465  0.3188 -0.0276
 5507TIP3    H116485   1.489   5.251   0.921 -0.9577  0.3411  0.0729
 5507TIP3    H216486   1.588   5.348   0.981 -0.4643 -0.4251  0.5075
 5508TIP3   OH216487   4.366   4.846   0.712  0.7963 -0.3299  0.2880
 5508TIP3    H116488   4.321   4.880   0.636  0.1600 -2.0357 -0.1463
 5508TIP3    H216489   4.338   4.902   0.784  0.1077  0.2849 -0.4414
 5509TIP3   OH216490   1.844   2.084   4.317 -0.1342  0.0830 -0.4582
 5509TIP3    H116491   1.788   2.013   4.347 -0.1891  0.4434  0.3168
 5509TIP3    H216492   1.866   2.133   4.396  0.5662  0.4552 -0.8726
 5510TIP3   OH216493   3.547   4.667   1.850  0.3340  0.2401 -0.1770
 5510TIP3    H116494   3.457   4.685   1.822  0.1251 -2.0032 -1.1162
 5510TIP3    H216495   3.600   4.727   1.797 -0.5753  1.5351  0.3269
 5511TIP3   OH216496   1.800   5.796   0.126 -0.1881 -0.2031  0.5054
 5511TIP3    H116497   1.888   5.799   0.162  0.0729  0.8935 -0.1958
 5511TIP3    H216498   1.765   5.711   0.154  1.3678 -1.0027  0.1044
 5512TIP3   OH216499   0.300   3.608   3.171 -0.2604 -0.3724 -0.7179
 5512TIP3    H116500   0.384   3.610   3.216 -0.0380 -2.2353 -0.9720
 5512TIP3    H216501   0.318   3.645   3.084  0.1713 -0.2426 -0.5744
 5513TIP3   OH216502   4.349   2.459   0.279 -0.1418  0.4145 -0.3897
 5513TIP3    H116503   4.384   2.372   0.259 -0.8883  0.1588 -0.6102
 5513TIP3    H216504   4.256   2.445   0.293  0.1960  0.6729  2.7746
 5514TIP3   OH216505   1.423   3.847   0.043  0.0822 -0.2044  0.4047
 5514TIP3    H116506   1.476   3.908   0.093  2.7296 -0.8416 -1.4138
 5514TIP3    H216507   1.442   3.761   0.082 -3.2875 -0.1173  2.6784
 5515TIP3   OH216508   4.510   4.972   0.957  0.0146 -0.5065  0.4508
 5515TIP3    H116509   4.421   4.941   0.973 -0.5462  0.8528  0.0937
 5515TIP3    H216510   4.566   4.899   0.985 -1.2396 -2.4019 -1.6142
 5516TIP3   OH216511   4.984   1.186   5.178 -0.3329 -0.5291 -0.3345
 5516TIP3    H116512   5.062   1.217   5.133  0.2658  0.2619  1.1798
 5516TIP3    H216513   4.922   1.166   5.108 -0.1473  2.4821 -1.4837
 5517TIP3   OH216514   3.495   4.644   1.424  0.2867  0.1716 -0.0590
 5517TIP3    H116515   3.565   4.612   1.367  0.4101  0.5235 -0.1072
 5517TIP3    H216516   3.462   4.723   1.380 -2.2013 -1.6189 -1.6347
 5518TIP3   OH216517   5.368   2.337   1.372 -0.0930  0.5946 -0.3053
 5518TIP3    H116518   5.416   2.314   1.293 -0.7216  1.5211 -0.9844
 5518TIP3    H216519   5.435   2.340   1.441  0.2618 -1.4847 -0.5004
 5519TIP3   OH216520   2.727   3.378   5.343 -0.1581  0.2190  0.0926
 5519TIP3    H116521   2.797   3.364   5.279 -1.3482  1.1601 -1.4652
 5519TIP3    H216522   2.678   3.295   5.344 -0.9219  0.6324 -1.2397
 5520TIP3   OH216523   7.091   2.810   4.217  0.0534  0.2846 -0.0674
 5520TIP3    H116524   7.152   2.881   4.238 -0.4449  0.8924 -0.6523
 5520TIP3    H216525   7.132   2.732   4.255  0.8071  0.8121  0.2320
 5521TIP3   OH216526   0.945   3.222   1.687  0.4152 -0.3833  0.1153
 5521TIP3    H116527   0.855   3.219   1.720  0.4346  0.2944  0.2619
 5521TIP3    H216528   0.936   3.242   1.594  0.4331  0.9245  0.3778
 5522TIP3   OH216529   3.562   3.351   1.259  0.7002  0.1010  0.0433
 5522TIP3    H116530   3.500   3.311   1.197  1.4273 -1.5113  0.2919
 5522TIP3    H216531   3.648   3.331   1.223  1.1168 -0.1019  1.1161
 5523TIP3   OH216532   3.006   2.892   4.357  0.6203 -0.1329 -0.1080
 5523TIP3    H116533   2.961   2.815   4.323 -0.7432  1.0055 -0.9904
 5523TIP3    H216534   2.954   2.919   4.433  1.1844 -0.1710  0.2982
 5524TIP3   OH216535   4.959   4.403   0.149 -0.2248  0.4330  0.4224
 5524TIP3    H116536   5.013   4.378   0.225 -1.5120  0.9072  1.5256
 5524TIP3    H216537   4.905   4.475   0.181 -2.3466 -0.7701 -0.2984
 5525TIP3   OH216538   6.324   3.680   0.035 -0.0511 -0.1196  0.2651
 5525TIP3    H116539   6.283   3.644   0.113 -0.2571 -0.3900  0.0328
 5525TIP3    H216540   6.278   3.638  -0.038  1.6059 -1.5861 -0.0103
 5526TIP3   OH216541   6.713   5.605   2.303 -0.3188 -0.3947 -0.1402
 5526TIP3    H116542   6.642   5.633   2.246 -0.6557  0.9865  0.8954
 5526TIP3    H216543   6.670   5.565   2.378 -0.1588  1.8855  1.2598
 5527TIP3   OH216544   1.478   3.296   0.392  0.2507  0.0907 -0.6658
 5527TIP3    H116545   1.554   3.273   0.447  0.3463 -0.8843 -1.1814
 5527TIP3    H216546   1.488   3.242   0.314  0.1862  1.5524 -1.7264
 5528TIP3   OH216547   0.526   5.533   2.229 -0.1546  0.3814  0.5383
 5528TIP3    H116548   0.504   5.492   2.313  1.3678  1.2884  1.4134
 5528TIP3    H216549   0.497   5.624   2.238 -0.1052  0.4537  0.0173
 5529TIP3   OH216550   0.709   6.171   2.086  0.6975 -0.0032 -0.3507
 5529TIP3    H116551   0.627   6.221   2.084 -0.1075 -1.2470  0.1666
 5529TIP3    H216552   0.715   6.133   1.998  0.2147 -0.6635 -0.1085
 5530TIP3   OH216553   6.927   0.799   4.035  0.1145 -0.2530 -0.1209
 5530TIP3    H116554   6.932   0.834   4.124  1.1611 -0.4561 -0.0867
 5530TIP3    H216555   6.970   0.866   3.981 -0.6313 -0.0727 -0.4919
 5531TIP3   OH216556   3.858   2.268   0.890 -0.4728 -0.1860 -0.3337
 5531TIP3    H116557   3.813   2.337   0.841 -0.5081 -0.6963 -1.0335
 5531TIP3    H216558   3.820   2.272   0.978 -0.6105  0.5508 -0.4174
 5532TIP3   OH216559   2.230   0.669   2.199  0.7913  0.0675 -0.0242
 5532TIP3    H116560   2.266   0.723   2.128  0.8010  1.8020  1.2432
 5532TIP3    H216561   2.170   0.609   2.154  1.3738  0.5823 -1.5834
 5533TIP3   OH216562   2.422   5.135   5.011  0.0348  0.5218 -0.5457
 5533TIP3    H116563   2.516   5.127   4.999  0.1906 -0.2198  0.8951
 5533TIP3    H216564   2.399   5.064   5.071 -1.3405  1.0499 -0.3967
 5534TIP3   OH216565   0.135   5.710   1.036  0.1368  0.0115 -0.1616
 5534TIP3    H116566   0.178   5.634   0.997  1.0901  0.1099  0.6328
 5534TIP3    H216567   0.082   5.747   0.966 -0.6728 -1.6198 -0.4484
 5535TIP3   OH216568   0.715   3.247   4.127 -0.6712 -0.5090 -0.6103
 5535TIP3    H116569   0.683   3.181   4.188  1.4330  0.3456  1.5534
 5535TIP3    H216570   0.646   3.314   4.126 -0.4838 -0.2306  1.4009
 5536TIP3   OH216571   4.535   0.250   1.814 -0.6444 -0.5137 -0.0090
 5536TIP3    H116572   4.511   0.292   1.896 -0.5969 -2.9703  1.3557
 5536TIP3    H216573   4.474   0.176   1.806  0.3600 -1.2387 -1.3689
 5537TIP3   OH216574   1.809   2.151   5.675 -0.4567 -0.3717 -0.0043
 5537TIP3    H116575   1.780   2.201   5.752 -0.3491  2.0568 -1.4384
 5537TIP3    H216576   1.728   2.119   5.635 -0.6700  0.1391  0.0083
 5538TIP3   OH216577   1.334   5.824   3.688  0.5356  0.6533 -0.2930
 5538TIP3    H116578   1.425   5.828   3.659  1.1818 -0.4014  1.4329
 5538TIP3    H216579   1.339   5.822   3.783 -1.2846  0.3374 -0.1595
 5539TIP3   OH216580   3.196   1.436   3.636 -0.3672  0.6228  0.1550
 5539TIP3    H116581   3.280   1.440   3.590 -0.2953 -0.8488  0.1376
 5539TIP3    H216582   3.149   1.364   3.595 -2.5772  2.7223 -1.3117
 5540TIP3   OH216583   1.932   4.616   2.495 -0.2076 -0.1024  0.1101
 5540TIP3    H116584   1.874   4.681   2.533  0.5893 -0.3153  1.7902
 5540TIP3    H216585   1.914   4.535   2.543  0.3237 -0.5726 -0.4545
 5541TIP3   OH216586   4.298   1.354   5.631  0.0681 -0.0676  0.1966
 5541TIP3    H116587   4.328   1.412   5.701 -0.2663  0.2315  0.0957
 5541TIP3    H216588   4.245   1.288   5.676  0.0882 -0.0379  0.2636
 5542TIP3   OH216589   4.590   6.727   0.599  0.0337 -0.3708  0.3621
 5542TIP3    H116590   4.568   6.728   0.506 -1.0072 -0.4783  0.5964
 5542TIP3    H216591   4.683   6.748   0.602  0.6917 -2.7464 -0.8648
 5543TIP3   OH216592   6.186   3.428   0.950  0.0117  0.5574 -0.2268
 5543TIP3    H116593   6.170   3.462   1.038  1.6847  2.0141 -0.4116
 5543TIP3    H216594   6.269   3.381   0.957  0.2123  0.7644 -1.0259
 5544TIP3   OH216595   2.804   4.126   3.783  0.3443  0.0206 -0.1011
 5544TIP3    H116596   2.849   4.206   3.807  0.2566  0.0329  0.0207
 5544TIP3    H216597   2.874   4.061   3.774  0.4092  0.0970 -0.1463
 5545TIP3   OH216598   0.855   3.224   5.331 -0.0639  0.1264  0.0009
 5545TIP3    H116599   0.887   3.141   5.296 -1.7457 -0.0789 -1.1539
 5545TIP3    H216600   0.778   3.201   5.382  1.2833  0.6476  2.4198
 5546TIP3   OH216601   1.021   2.553   1.998 -0.0410  0.4974 -0.1165
 5546TIP3    H116602   1.066   2.523   1.919  1.1314  0.4217  0.5538
 5546TIP3    H216603   0.941   2.500   2.002 -0.6305  1.1992 -1.7639
 5547TIP3   OH216604   7.018   4.001   2.352 -0.0581 -0.1365 -0.6847
 5547TIP3    H116605   7.006   4.090   2.387 -2.5593  0.3339 -2.5022
 5547TIP3    H216606   6.994   3.944   2.424 -1.5835  0.7538 -0.4342
 5548TIP3   OH216607   5.076   4.341   3.687  0.2162 -0.3411  0.1592
 5548TIP3    H116608   5.171   4.354   3.695  0.1822  1.3005 -1.3392
 5548TIP3    H216609   5.050   4.297   3.768  1.9575  0.9940  1.5305
 5549TIP3   OH216610   0.909   3.263   2.169 -0.0677 -0.1515  0.1099
 5549TIP3    H116611   0.986   3.301   2.212  0.9885 -2.4673  0.4534
 5549TIP3    H216612   0.835   3.293   2.221  0.9066 -0.3237  1.6610
 5550TIP3   OH216613   4.826   4.844   4.334  0.2229 -0.2948  0.5363
 5550TIP3    H116614   4.817   4.940   4.337 -1.8005 -0.4123 -0.1270
 5550TIP3    H216615   4.843   4.825   4.242  1.2576 -0.5577  0.7690
 5551TIP3   OH216616   3.241   5.746   0.509 -0.4817  0.3045  0.1273
 5551TIP3    H116617   3.191   5.824   0.484 -0.3956  0.2497 -0.2311
 5551TIP3    H216618   3.217   5.729   0.600  0.9925  1.9022  0.8646
 5552TIP3   OH216619   4.681   2.792   4.854 -0.3854 -0.4055  0.2104
 5552TIP3    H116620   4.701   2.713   4.803 -0.3698  0.0482 -0.4901
 5552TIP3    H216621   4.730   2.780   4.936 -0.0833 -0.9487 -0.0410
 5553TIP3   OH216622   4.740   6.107   0.886  0.5688 -0.3847  0.1111
 5553TIP3    H116623   4.812   6.046   0.902  0.9000  0.2580  1.1539
 5553TIP3    H216624   4.751   6.133   0.795  2.5190  0.7608  0.6043
 5554TIP3   OH216625   3.700   0.549   0.311  0.4204  0.4728  0.0793
 5554TIP3    H116626   3.774   0.533   0.252  1.5979  1.4180  1.2444
 5554TIP3    H216627   3.740   0.564   0.396 -1.2986 -1.9292  1.4195
 5555TIP3   OH216628   3.142   0.318   1.111 -0.0593  0.6069  0.0505
 5555TIP3    H116629   3.165   0.403   1.147  1.3084  0.1667  0.2589
 5555TIP3    H216630   3.224   0.283   1.077 -0.6838 -0.4481 -0.4316
 5556TIP3   OH216631   5.166   5.794   2.371  0.8306 -0.3781  0.2128
 5556TIP3    H116632   5.100   5.850   2.411 -1.5955 -2.4222 -0.6394
 5556TIP3    H216633   5.208   5.850   2.306 -0.3488  0.9161  0.5101
 5557TIP3   OH216634   0.216   2.171   2.696 -0.2213  0.2144  0.0792
 5557TIP3    H116635   0.129   2.209   2.692 -0.7763 -1.0593 -0.5277
 5557TIP3    H216636   0.233   2.141   2.606  1.6925  2.2467 -0.3164
 5558TIP3   OH216637   5.455   4.211   0.359  0.1680 -0.2262  0.2149
 5558TIP3    H116638   5.543   4.193   0.391  0.1083  0.3829  0.7459
 5558TIP3    H216639   5.465   4.292   0.308 -0.0292 -0.3226  0.0210
 5559TIP3   OH216640   1.153   0.804   4.904 -0.2152  0.8335  0.0688
 5559TIP3    H116641   1.063   0.790   4.934  0.3227 -1.6110  0.8004
 5559TIP3    H216642   1.161   0.899   4.895 -1.9568  1.3853  2.9412
 5560TIP3   OH216643   1.801   0.359   0.179  0.5631 -0.1809  0.5222
 5560TIP3    H116644   1.752   0.372   0.260  0.3379  0.6155  0.2599
 5560TIP3    H216645   1.739   0.316   0.120  1.2925 -2.5920  1.3708
 5561TIP3   OH216646   1.041   2.167   0.636 -0.5647  0.1125  0.7204
 5561TIP3    H116647   1.069   2.159   0.728 -1.2087  2.0559  1.1371
 5561TIP3    H216648   1.081   2.092   0.592  0.7816 -0.1847  2.3451
 5562TIP3   OH216649   6.629   0.075   4.865 -0.6559 -0.0295  0.4279
 5562TIP3    H116650   6.717   0.056   4.833 -0.3762  1.3453  0.2968
 5562TIP3    H216651   6.600   0.148   4.811 -1.5344  0.0951  1.0549
 5563TIP3   OH216652   0.614   3.620   3.130 -0.9985 -0.3975  0.3019
 5563TIP3    H116653   0.673   3.586   3.063  1.5921  1.6962  1.3656
 5563TIP3    H216654   0.618   3.555   3.200  0.8823  0.1244  0.7424
 5564TIP3   OH216655   3.835   2.525   1.204 -0.3173 -0.5348  0.2800
 5564TIP3    H116656   3.799   2.586   1.140 -0.3199  0.4297  1.1651
 5564TIP3    H216657   3.786   2.543   1.284  2.5148  1.3461  1.7582
 5565TIP3   OH216658   6.485   3.566   0.427  0.2029 -0.3433  0.1232
 5565TIP3    H116659   6.461   3.479   0.457  1.0103 -0.6055  0.0186
 5565TIP3    H216660   6.422   3.625   0.470 -1.2616 -1.0813 -0.9037
 5566TIP3   OH216661   2.578   1.603   2.721 -0.1116  0.0394 -0.3301
 5566TIP3    H116662   2.625   1.530   2.680  0.1062  0.0752 -0.1425
 5566TIP3    H216663   2.633   1.679   2.705 -0.8454  0.3630 -1.4549
 5567TIP3   OH216664   5.030   3.357   2.526 -0.1550  0.1927 -0.1748
 5567TIP3    H116665   5.041   3.348   2.621 -0.9791 -0.7152 -0.1607
 5567TIP3    H216666   5.120   3.358   2.492  0.1318 -1.3081  0.4560
 5568TIP3   OH216667   6.181   6.373   4.497 -0.1296 -0.3357  0.1528
 5568TIP3    H116668   6.140   6.408   4.577  2.1392 -1.4425  1.9245
 5568TIP3    H216669   6.148   6.284   4.490  1.0906 -0.8804  0.9960
 5569TIP3   OH216670   1.526   6.766   2.476  0.0682  0.1231 -0.2191
 5569TIP3    H116671   1.492   6.687   2.517  2.4117  0.6423  3.0716
 5569TIP3    H216672   1.486   6.838   2.525  0.4875  0.8992 -0.9845
 5570TIP3   OH216673   2.874   3.645   5.541 -0.2270 -0.0712 -0.3704
 5570TIP3    H116674   2.874   3.578   5.609 -2.1984  0.8341  0.6226
 5570TIP3    H216675   2.836   3.722   5.584  2.1400  1.7807 -1.3833
 5571TIP3   OH216676   4.856   2.215   2.249  0.6870  0.3856 -0.4132
 5571TIP3    H116677   4.838   2.208   2.155  0.5458  1.5625 -0.4825
 5571TIP3    H216678   4.777   2.253   2.286  1.9724  3.2053 -0.3412
 5572TIP3   OH216679   4.584   2.886   0.147 -0.4173  0.3685 -0.3482
 5572TIP3    H116680   4.662   2.886   0.092 -0.8932 -0.6287 -1.0428
 5572TIP3    H216681   4.518   2.841   0.096 -1.7702  2.0397 -0.1692
 5573TIP3   OH216682   0.539   2.207   0.970 -0.2383 -0.0912 -0.4223
 5573TIP3    H116683   0.542   2.111   0.972 -0.5999 -0.1312  2.4366
 5573TIP3    H216684   0.615   2.232   0.917  0.4092 -1.9554 -0.4610
 5574TIP3   OH216685   6.104   6.176   4.879 -0.3326  0.5544 -1.1738
 5574TIP3    H116686   6.024   6.211   4.839 -1.5857  2.0264  2.1962
 5574TIP3    H216687   6.073   6.105   4.935  0.9361  0.2710 -0.7999
 5575TIP3   OH216688   6.926   5.576   2.666  0.2339  0.2510  0.2501
 5575TIP3    H116689   7.019   5.589   2.685  0.2700  1.0639 -0.3878
 5575TIP3    H216690   6.892   5.665   2.653 -0.7680  0.0042  1.0450
 5576TIP3   OH216691   5.269   5.262   3.884 -0.0384  0.9570 -0.2317
 5576TIP3    H116692   5.311   5.177   3.889  1.0007  1.3754 -1.4128
 5576TIP3    H216693   5.341   5.325   3.889 -0.6587  1.7306 -0.7175
 5577TIP3   OH216694   3.238   5.164   4.723  0.1908  0.1433 -0.3576
 5577TIP3    H116695   3.317   5.136   4.769  0.1513 -2.5204 -1.7165
 5577TIP3    H216696   3.259   5.155   4.630 -1.5625 -0.2496 -0.7571
 5578TIP3   OH216697   6.891   1.139   0.061  0.0839 -0.0504 -0.2708
 5578TIP3    H116698   6.907   1.151   0.155 -1.3896  0.7098 -0.0852
 5578TIP3    H216699   6.869   1.046   0.052 -1.2494  0.1679  0.4129
 5579TIP3   OH216700   4.224   3.443   5.352  0.7127  0.3675  0.3877
 5579TIP3    H116701   4.191   3.441   5.262 -1.0951  1.0050  0.9934
 5579TIP3    H216702   4.312   3.405   5.346  0.0999 -0.9335 -1.4285
 5580TIP3   OH216703   4.259   0.882   1.049  0.3724 -0.2983 -0.3077
 5580TIP3    H116704   4.342   0.844   1.079  0.0290  0.2980  1.4715
 5580TIP3    H216705   4.284   0.930   0.970  2.1476  1.3880  1.1631
 5581TIP3   OH216706   4.826   2.284   3.949 -0.0882 -0.0721 -0.1567
 5581TIP3    H116707   4.748   2.291   4.004 -0.1370 -0.0857 -0.2240
 5581TIP3    H216708   4.877   2.363   3.970 -0.9005  0.7919 -1.3143
 5582TIP3   OH216709   0.819   2.959   0.223 -0.7179  0.4447 -0.3863
 5582TIP3    H116710   0.905   2.989   0.254 -0.9589 -0.5348  1.4184
 5582TIP3    H216711   0.808   3.000   0.138  1.0495  1.4987 -0.1585
 5583TIP3   OH216712   4.764   6.622   2.588 -0.4817  0.1865  0.3203
 5583TIP3    H116713   4.728   6.689   2.646  0.1568 -0.2817  1.2849
 5583TIP3    H216714   4.832   6.579   2.641  0.3784 -0.0014 -0.9015
 5584TIP3   OH216715   3.292   4.004   0.843  0.0346  0.0815 -0.2818
 5584TIP3    H116716   3.316   3.912   0.829  0.3555  0.0063  0.6824
 5584TIP3    H216717   3.254   4.006   0.930 -1.0120  0.6833 -0.7312
 5585TIP3   OH216718   7.078   2.365   1.311  0.2902 -0.4722 -0.1941
 5585TIP3    H116719   7.026   2.374   1.391  2.6579  2.4595  1.2388
 5585TIP3    H216720   7.132   2.288   1.326 -0.5085 -0.9641  0.2351
 5586TIP3   OH216721   6.610   3.859   4.031  0.0782  0.0577 -0.0438
 5586TIP3    H116722   6.586   3.817   3.948  0.2735  0.3746 -0.2653
 5586TIP3    H216723   6.701   3.835   4.044 -0.5203 -1.7342  1.1578
 5587TIP3   OH216724   6.111   2.765   5.326 -0.1251  0.0272  0.3608
 5587TIP3    H116725   6.030   2.725   5.358  0.4014 -1.2016  0.2361
 5587TIP3    H216726   6.121   2.844   5.379 -1.8098  0.6461 -0.1808
 5588TIP3   OH216727   2.710   1.160   4.369  0.3747  0.2022 -0.1081
 5588TIP3    H116728   2.798   1.171   4.405  1.1182 -0.7438 -1.5557
 5588TIP3    H216729   2.710   1.073   4.329 -0.6150  0.8709 -1.7086
 5589TIP3   OH216730   2.096   0.482   2.051 -0.5126  0.0560  0.1059
 5589TIP3    H116731   2.129   0.422   1.984  1.5360  0.4934  0.6487
 5589TIP3    H216732   2.045   0.426   2.109  2.4474 -1.5930  1.3718
 5590TIP3   OH216733   5.391   0.156   2.922  0.3166  0.4443  0.1293
 5590TIP3    H116734   5.391   0.247   2.951  1.2198  0.3555  0.4362
 5590TIP3    H216735   5.482   0.128   2.928  0.2184 -0.1676 -0.9879
 5591TIP3   OH216736   1.176   4.504   1.341  0.1473 -0.1463 -0.2698
 5591TIP3    H116737   1.083   4.491   1.321 -0.5770  0.9522  2.0426
 5591TIP3    H216738   1.185   4.475   1.432  1.8152  0.8017 -0.0972
 5592TIP3   OH216739   6.855   2.837   3.344 -0.1234 -0.3378 -0.0010
 5592TIP3    H116740   6.840   2.894   3.269  0.9519  0.6167  0.4624
 5592TIP3    H216741   6.834   2.749   3.313 -0.4044  0.1304 -1.1877
 5593TIP3   OH216742   2.105   6.243   3.185  0.5870 -0.8543  0.4111
 5593TIP3    H116743   2.026   6.268   3.139  1.4980  0.9256 -0.2857
 5593TIP3    H216744   2.077   6.174   3.246 -1.5427 -0.0271  0.4485
 5594TIP3   OH216745   1.918   4.608   4.606 -0.4860 -0.6431 -0.2427
 5594TIP3    H116746   1.874   4.566   4.532 -1.2905 -0.5292  0.1594
 5594TIP3    H216747   1.860   4.680   4.631  0.0781 -0.3032  0.1101
 5595TIP3   OH216748   3.017   4.944   3.415  0.5083  0.1753  0.1831
 5595TIP3    H116749   3.037   4.934   3.322  2.6520 -0.4990  0.6535
 5595TIP3    H216750   3.006   5.038   3.427  0.2044  0.2678 -0.7473
 5596TIP3   OH216751   3.341   4.101   1.488  0.0024 -0.5664  0.2371
 5596TIP3    H116752   3.345   4.068   1.398 -2.1352  1.4359 -0.7045
 5596TIP3    H216753   3.432   4.115   1.513  0.6858 -2.0303 -1.2426
 5597TIP3   OH216754   0.257   5.830   3.916 -0.4344  0.7769  0.1901
 5597TIP3    H116755   0.200   5.850   3.842  0.0974  3.0151  0.3110
 5597TIP3    H216756   0.278   5.915   3.954  1.7421 -0.0744  1.0713
 5598TIP3   OH216757   0.284   2.640   4.200  0.0321  0.3145  0.2775
 5598TIP3    H116758   0.293   2.680   4.113  2.2230  0.0125  0.3137
 5598TIP3    H216759   0.261   2.712   4.258 -1.3595  0.5410 -0.4941
 5599TIP3   OH216760   5.707   2.193   0.435 -0.4076 -0.1761 -0.6528
 5599TIP3    H116761   5.725   2.233   0.520  0.2537 -0.4597 -0.6481
 5599TIP3    H216762   5.628   2.142   0.449 -1.3802  1.2579 -0.7069
 5600TIP3   OH216763   5.357   1.279   3.801  0.5330 -0.1699 -0.1286
 5600TIP3    H116764   5.442   1.237   3.805  0.0492 -1.1434  4.2215
 5600TIP3    H216765   5.355   1.338   3.876 -3.1345 -1.3993  0.9674
 5601TIP3   OH216766   7.225   2.725   5.056 -0.0012 -0.2262 -0.1727
 5601TIP3    H116767   7.151   2.692   5.005 -0.0680  0.4800 -0.5559
 5601TIP3    H216768   7.204   2.703   5.146 -1.4319  1.2870 -0.0891
 5602TIP3   OH216769   4.903   3.365   5.191 -0.7890  0.3244 -0.2208
 5602TIP3    H116770   4.841   3.310   5.143 -1.4316  0.2183  0.6992
 5602TIP3    H216771   4.867   3.453   5.185 -0.8177  0.3268 -0.0329
 5603TIP3   OH216772   0.820   2.152   0.439 -0.6539  0.2497 -0.1202
 5603TIP3    H116773   0.884   2.147   0.510  0.5463  3.3111 -0.8346
 5603TIP3    H216774   0.872   2.136   0.360 -1.1851  0.7473 -0.5755
 5604TIP3   OH216775   5.971   2.377   0.691 -0.1992  0.5662  0.0138
 5604TIP3    H116776   6.004   2.419   0.611 -1.5274  1.0729 -0.3036
 5604TIP3    H216777   5.906   2.314   0.660 -0.9639  0.9981  0.6993
 5605TIP3   OH216778   3.892   6.307   0.889  0.3839 -0.2480  0.1026
 5605TIP3    H116779   3.818   6.262   0.929 -0.1331  1.3462  1.0260
 5605TIP3    H216780   3.951   6.326   0.961  2.2003 -2.2796 -0.7378
 5606TIP3   OH216781   1.235   4.673   3.558 -0.0929  0.1223 -0.3350
 5606TIP3    H116782   1.308   4.613   3.547 -0.3594 -0.3353  0.3157
 5606TIP3    H216783   1.266   4.757   3.524  0.6117 -0.1526 -0.3652
 5607TIP3   OH216784   1.839   5.650   2.634 -0.0765 -0.7625 -0.3812
 5607TIP3    H116785   1.850   5.603   2.716  0.5303 -0.1831 -0.1171
 5607TIP3    H216786   1.921   5.698   2.623 -0.6292  0.1372 -0.6971
 5608TIP3   OH216787   2.729   5.503   0.638 -0.0766  0.4198 -0.1422
 5608TIP3    H116788   2.673   5.552   0.577 -2.1471 -0.1694  1.1755
 5608TIP3    H216789   2.815   5.543   0.629 -0.3902  0.6285 -3.1005
 5609TIP3   OH216790   7.100   6.534   4.426  0.3766 -0.5333 -0.5761
 5609TIP3    H116791   7.156   6.509   4.500 -0.0659 -0.7014 -0.2964
 5609TIP3    H216792   7.019   6.564   4.466  0.9552  1.5954 -0.8911
 5610TIP3   OH216793   4.284   0.586   0.338 -0.1660 -0.7677 -0.2529
 5610TIP3    H116794   4.300   0.542   0.255  2.5632  0.1947 -0.3376
 5610TIP3    H216795   4.311   0.523   0.405  0.5634 -0.4540 -0.2427
 5611TIP3   OH216796   1.676   4.317   4.596  0.2149 -0.4142 -0.1066
 5611TIP3    H116797   1.751   4.285   4.646 -0.5952 -2.2190  0.0367
 5611TIP3    H216798   1.632   4.237   4.565 -2.5787  0.5026  1.1962
 5612TIP3   OH216799   0.988   0.639   5.292 -0.1788 -0.0004 -0.4568
 5612TIP3    H116800   1.044   0.675   5.223  0.6301 -1.2966 -0.5081
 5612TIP3    H216801   1.048   0.620   5.364 -0.6141 -0.9409 -0.3262
 5613TIP3   OH216802   2.267   0.773   1.030 -0.2553  0.7259 -0.0993
 5613TIP3    H116803   2.226   0.839   0.974  1.2775  1.5396 -0.3058
 5613TIP3    H216804   2.322   0.823   1.090 -0.6943 -0.2453  1.1472
 5614TIP3   OH216805   0.472   5.837   2.554  0.1593  0.1502 -0.3530
 5614TIP3    H116806   0.548   5.780   2.541 -0.3215 -0.5905  0.0474
 5614TIP3    H216807   0.464   5.844   2.649  1.7959  3.0365 -0.3197
 5615TIP3   OH216808   2.694   5.616   2.454 -0.0968 -0.2530  0.1594
 5615TIP3    H116809   2.608   5.577   2.472 -0.2924  0.1575  0.1111
 5615TIP3    H216810   2.716   5.662   2.534  0.1508 -0.4832  0.2260
 5616TIP3   OH216811   3.391   0.898   5.257  0.3896  0.1541  0.0490
 5616TIP3    H116812   3.329   0.960   5.295  0.2669  0.2053 -0.2344
 5616TIP3    H216813   3.337   0.835   5.210  0.4906 -0.3979  0.6607
 5617TIP3   OH216814   4.109   4.959   2.119 -0.3652 -0.5289  0.6023
 5617TIP3    H116815   4.127   4.991   2.031  1.0504  0.9109  1.3533
 5617TIP3    H216816   4.018   4.985   2.136 -0.2761  0.2345 -0.0232
 5618TIP3   OH216817   6.971   1.079   2.339  0.5401 -0.3697  0.1591
 5618TIP3    H116818   6.953   1.149   2.402  1.6315 -0.1242  0.2329
 5618TIP3    H216819   6.986   1.001   2.392 -2.3920 -1.1268  0.0078
 5619TIP3   OH216820   3.383   2.432   2.562  0.4522  0.0044 -0.3658
 5619TIP3    H116821   3.473   2.442   2.533  0.7489 -1.8145 -0.1797
 5619TIP3    H216822   3.339   2.511   2.531  2.3757  1.5717  0.6887
 5620TIP3   OH216823   0.537   5.673   3.934 -0.7765 -0.4301 -0.3792
 5620TIP3    H116824   0.451   5.714   3.926 -0.0346  1.4749  0.7019
 5620TIP3    H216825   0.576   5.714   4.012  1.7296 -0.0504 -1.7207
 5621TIP3   OH216826   1.235   1.324   3.992  0.1197  0.8843  0.1081
 5621TIP3    H116827   1.167   1.392   3.985  0.2429  1.1804  1.5160
 5621TIP3    H216828   1.190   1.250   4.033  0.6700  1.1662  1.2704
 5622TIP3   OH216829   4.476   1.928   2.465 -1.0743  0.2507  0.3425
 5622TIP3    H116830   4.553   1.937   2.520 -1.5512 -1.9461  1.4742
 5622TIP3    H216831   4.480   2.003   2.406  1.8726  0.2581  0.4015
 5623TIP3   OH216832   2.932   1.124   4.112 -0.1065  0.4015 -0.0525
 5623TIP3    H116833   2.892   1.050   4.158  1.5999 -0.8760 -0.5416
 5623TIP3    H216834   3.026   1.107   4.115  0.1939  1.2745 -2.2920
 5624TIP3   OH216835   0.866   5.205   3.202 -0.2500 -0.1221  0.1892
 5624TIP3    H116836   0.962   5.207   3.205 -0.2649  1.6576  0.5959
 5624TIP3    H216837   0.839   5.203   3.294 -0.6285 -1.5046  0.0717
 5625TIP3   OH216838   3.463   0.462   1.491 -0.2556 -0.1324 -0.1820
 5625TIP3    H116839   3.375   0.497   1.474  0.3676  1.4215 -0.3458
 5625TIP3    H216840   3.521   0.513   1.435  1.0966  0.8763  2.0197
 5626TIP3   OH216841   6.598   2.508   2.732 -1.0972 -0.4873 -0.2905
 5626TIP3    H116842   6.688   2.538   2.728 -1.0764 -0.2451  1.3088
 5626TIP3    H216843   6.568   2.508   2.641  0.1037  0.6708 -0.7125
 5627TIP3   OH216844   5.640   0.936   3.680  0.4949 -0.3806  0.5078
 5627TIP3    H116845   5.607   0.946   3.591  0.0390  0.5150  0.7739
 5627TIP3    H216846   5.733   0.917   3.669  0.3406 -0.7709 -0.1672
 5628TIP3   OH216847   5.840   2.949   4.567  0.5031  0.4674 -0.1469
 5628TIP3    H116848   5.794   2.879   4.520  0.0323 -0.1226  1.1237
 5628TIP3    H216849   5.906   2.903   4.620 -0.7438  0.7975  1.7901
 5629TIP3   OH216850   6.906   0.617   3.596  0.1826 -0.3304  0.0062
 5629TIP3    H116851   6.826   0.599   3.547 -0.2545  0.9045  0.2194
 5629TIP3    H216852   6.917   0.541   3.653  0.3997 -1.5354 -1.5856
 5630TIP3   OH216853   4.683   3.304   5.542 -0.6432 -0.2452  0.0003
 5630TIP3    H116854   4.635   3.359   5.604  1.6168 -0.1952  1.8090
 5630TIP3    H216855   4.749   3.361   5.504  0.7216 -1.2901  0.7239
 5631TIP3   OH216856   0.306   5.502   5.636 -0.1811  0.3910 -0.2093
 5631TIP3    H116857   0.221   5.545   5.624 -0.3301 -0.4424 -2.7892
 5631TIP3    H216858   0.346   5.503   5.549  1.1291 -1.9314  0.2717
 5632TIP3   OH216859   3.444   6.617   5.097 -0.1743  0.3731 -0.0434
 5632TIP3    H116860   3.537   6.639   5.101 -0.1864  0.3410  0.3673
 5632TIP3    H216861   3.439   6.526   5.125 -0.0652 -0.3715 -2.1924
 5633TIP3   OH216862   1.475   4.489   0.516 -0.3965  0.3228 -0.3282
 5633TIP3    H116863   1.512   4.459   0.598  0.9075 -0.7678 -1.2711
 5633TIP3    H216864   1.388   4.449   0.512  0.7129 -2.2389 -0.8556
 5634TIP3   OH216865   5.355   4.547   2.239 -0.7165  0.3557  0.1163
 5634TIP3    H116866   5.292   4.542   2.168 -0.9632  0.4989  0.3217
 5634TIP3    H216867   5.311   4.600   2.306 -0.6109 -0.0369  0.5004
 5635TIP3   OH216868   4.930   0.845   3.774  0.2499  0.8722  0.2140
 5635TIP3    H116869   4.984   0.894   3.711  0.1752  1.9361  0.9470
 5635TIP3    H216870   4.854   0.817   3.723  1.5435 -0.8117 -0.8783
 5636TIP3   OH216871   0.966   1.892   5.739  0.7018  0.2800  0.1923
 5636TIP3    H116872   1.027   1.818   5.740  1.5212  0.8729 -1.4729
 5636TIP3    H216873   1.023   1.969   5.748  0.0731  0.7881 -0.1142
 5637TIP3   OH216874   0.642   1.143   0.233  0.3229 -0.2712 -0.7290
 5637TIP3    H116875   0.685   1.167   0.315  0.6985  0.1822 -1.0562
 5637TIP3    H216876   0.629   1.048   0.240 -0.1242 -0.1575  0.0764
 5638TIP3   OH216877   5.286   6.174   4.712  0.2040 -0.3952  0.1025
 5638TIP3    H116878   5.212   6.130   4.670 -0.2970  1.1386 -0.7384
 5638TIP3    H216879   5.361   6.152   4.657 -0.5154  1.9161 -2.0120
 5639TIP3   OH216880   3.646   4.129   2.960 -0.2660  0.1666 -0.3927
 5639TIP3    H116881   3.679   4.142   2.871 -0.6322  2.8290 -0.1955
 5639TIP3    H216882   3.550   4.132   2.950 -0.3654 -1.0726 -0.0658
 5640TIP3   OH216883   3.393   2.845   5.204  0.2596 -0.1697 -0.6013
 5640TIP3    H116884   3.323   2.780   5.212  0.1254 -0.0953 -1.1163
 5640TIP3    H216885   3.349   2.924   5.172  0.5812 -0.1375 -0.9835
 5641TIP3   OH216886   0.889   5.991   1.393  0.1217 -0.1218 -0.4944
 5641TIP3    H116887   0.864   6.081   1.415  2.9596  1.0530 -1.6403
 5641TIP3    H216888   0.838   5.937   1.454 -0.6201  2.3199  1.2149
 5642TIP3   OH216889   6.541   1.920   3.993  0.0596  0.2051  0.1248
 5642TIP3    H116890   6.617   1.978   3.990 -0.1729  0.4955 -0.2686
 5642TIP3    H216891   6.476   1.967   4.046 -0.1551  0.3402 -0.2538
 5643TIP3   OH216892   3.018   1.053   0.821  0.0000  0.3224 -0.2741
 5643TIP3    H116893   3.110   1.037   0.799  0.5382  0.2017  1.8541
 5643TIP3    H216894   2.982   0.966   0.838  0.2278  0.5252  1.4375
 5644TIP3   OH216895   5.663   2.584   4.992  0.0448 -0.6250  0.2963
 5644TIP3    H116896   5.728   2.516   5.008 -0.5570 -1.0127  1.1465
 5644TIP3    H216897   5.704   2.665   5.024  0.8941 -0.5094 -1.0249
 5645TIP3   OH216898   3.313   0.957   2.619 -0.6043  0.1748  0.2324
 5645TIP3    H116899   3.386   0.993   2.670 -0.9421  2.5422 -0.8400
 5645TIP3    H216900   3.355   0.902   2.553  0.0605 -0.2144  0.9651
 5646TIP3   OH216901   3.798   3.015   2.681 -0.1680  0.3477 -0.2315
 5646TIP3    H116902   3.776   2.957   2.753  0.8859  1.2475  0.8558
 5646TIP3    H216903   3.720   3.069   2.668 -1.1842 -1.2651 -1.2952
 5647TIP3   OH216904   6.932   3.386   0.290 -0.6653  0.5633 -0.1115
 5647TIP3    H116905   6.958   3.478   0.294  0.1076  0.3324  0.4873
 5647TIP3    H216906   6.963   3.356   0.204 -2.4874  1.2936 -1.0680
 5648TIP3   OH216907   2.959   2.845   2.931  0.1475 -0.5475  0.4066
 5648TIP3    H116908   2.974   2.770   2.988  0.3460  0.1797  1.3298
 5648TIP3    H216909   2.865   2.863   2.939 -0.0953 -1.2585 -0.5555
 5649TIP3   OH216910   0.174   6.767   5.454 -0.7323  0.4574  0.6244
 5649TIP3    H116911   0.093   6.815   5.470  0.3160  1.9968  1.5736
 5649TIP3    H216912   0.226   6.780   5.533 -0.3503 -2.2751  0.9303
 5650TIP3   OH216913   1.269   2.824   4.149 -0.1601  1.3103  0.3372
 5650TIP3    H116914   1.180   2.835   4.116 -0.7058 -1.2655  0.6878
 5650TIP3    H216915   1.304   2.752   4.097  1.4755  1.8060  0.7071
 5651TIP3   OH216916   5.256   6.419   5.212 -1.0018 -0.5091  0.0511
 5651TIP3    H116917   5.270   6.480   5.140 -0.2950  0.8889  1.3156
 5651TIP3    H216918   5.176   6.372   5.189  0.1608 -1.3979 -2.4881
 5652TIP3   OH216919   6.877   5.059   3.567  0.1318 -0.2887 -0.2130
 5652TIP3    H116920   6.825   5.117   3.511 -0.2959  0.2308  0.7029
 5652TIP3    H216921   6.967   5.084   3.550 -0.0191  0.1968 -0.3188
 5653TIP3   OH216922   1.227   0.534   1.861 -0.3474 -0.6459  0.2654
 5653TIP3    H116923   1.152   0.516   1.804  0.2435  1.6413 -1.3390
 5653TIP3    H216924   1.302   0.536   1.802  0.1261  3.0253  0.7893
 5654TIP3   OH216925   5.097   2.087   0.680 -0.2533 -0.5681  0.6066
 5654TIP3    H116926   5.110   2.046   0.594 -0.1528  0.5919  0.0593
 5654TIP3    H216927   5.175   2.140   0.693 -1.9910  2.5047 -0.4680
 5655TIP3   OH216928   5.376   6.153   4.023  0.2334  0.4718 -0.3270
 5655TIP3    H116929   5.338   6.225   3.973 -0.6492  0.5081  0.3634
 5655TIP3    H216930   5.457   6.132   3.977 -0.6020  0.4198 -1.8324
 5656TIP3   OH216931   5.696   2.052   3.422 -0.1705  0.2784  0.4967
 5656TIP3    H116932   5.609   2.045   3.382 -0.0494 -1.9385  0.5065
 5656TIP3    H216933   5.725   2.141   3.401 -2.6150  1.2237  0.8916
 5657TIP3   OH216934   0.052   4.012   1.373  0.1021  0.0625  0.2816
 5657TIP3    H116935   0.142   4.031   1.400  0.3393  0.2480 -0.6223
 5657TIP3    H216936   0.004   4.092   1.396  0.0771 -0.1941  1.1474
 5658TIP3   OH216937   0.790   1.347   5.603 -0.1024 -0.2929 -0.1345
 5658TIP3    H116938   0.697   1.366   5.592  0.2039  0.9742 -0.7199
 5658TIP3    H216939   0.792   1.260   5.643 -1.5817  0.4753  1.8052
 5659TIP3   OH216940   2.868   5.804   3.493  0.6778 -0.0229  0.6780
 5659TIP3    H116941   2.914   5.767   3.417  0.1160 -0.1587  0.3948
 5659TIP3    H216942   2.936   5.814   3.560  1.6095  1.9354 -0.4688
 5660TIP3   OH216943   3.669   6.272   1.187 -0.2483  0.3164 -0.1918
 5660TIP3    H116944   3.608   6.341   1.211 -1.7605  0.4392 -3.8202
 5660TIP3    H216945   3.614   6.199   1.159  1.2248 -0.1139 -2.2286
 5661TIP3   OH216946   0.570   3.346   1.109 -0.1922 -0.1746 -0.1199
 5661TIP3    H116947   0.526   3.415   1.059 -1.2007 -0.2601  0.5987
 5661TIP3    H216948   0.515   3.269   1.096 -0.0064 -0.4041  0.4323
 5662TIP3   OH216949   0.861   2.256   3.909  0.2693  0.4462 -0.0305
 5662TIP3    H116950   0.912   2.336   3.918 -0.7432  1.1752 -0.5076
 5662TIP3    H216951   0.787   2.281   3.853 -0.4895 -0.6246  0.4536
 5663TIP3   OH216952   6.733   3.086   1.587  0.1740  0.1464  0.0877
 5663TIP3    H116953   6.659   3.142   1.566 -1.9381 -2.0355  1.1428
 5663TIP3    H216954   6.775   3.068   1.503 -0.0457  1.9772 -0.4453
 5664TIP3   OH216955   2.218   1.015   4.412  0.0575 -0.1331 -0.0421
 5664TIP3    H116956   2.142   0.976   4.367 -0.2467 -0.0909  0.4320
 5664TIP3    H216957   2.273   1.048   4.341 -1.1433  1.2978 -0.3420
 5665TIP3   OH216958   6.979   5.037   2.390  0.2965  0.3364  0.1474
 5665TIP3    H116959   7.028   5.018   2.470  0.1212 -1.0320 -0.0522
 5665TIP3    H216960   6.891   5.062   2.421 -0.5617 -2.6194  0.3595
 5666TIP3   OH216961   7.136   4.362   1.182  0.1501  0.0324 -0.2077
 5666TIP3    H116962   7.176   4.347   1.097  1.4393  0.5556  0.2804
 5666TIP3    H216963   7.042   4.349   1.167  0.2748  0.7856 -1.8457
 5667TIP3   OH216964   4.897   3.746   1.405  0.5290 -0.2802  0.3917
 5667TIP3    H116965   4.841   3.815   1.439  0.0406 -0.3205 -0.3143
 5667TIP3    H216966   4.978   3.753   1.456  0.5063  0.8521  0.2859
 5668TIP3   OH216967   5.938   4.588   4.022 -0.0796 -0.1716  0.1396
 5668TIP3    H116968   5.896   4.502   4.013 -1.5791  0.5930 -0.4198
 5668TIP3    H216969   6.010   4.572   4.083 -1.0394 -1.5907  0.9877
 5669TIP3   OH216970   2.593   2.163   0.474  0.0661 -0.1541 -0.1951
 5669TIP3    H116971   2.531   2.096   0.504 -1.4771  1.0139 -0.6187
 5669TIP3    H216972   2.664   2.114   0.434 -0.5876 -1.5665  0.3102
 5670TIP3   OH216973   4.272   3.815   2.333  0.2843  0.5781  0.1371
 5670TIP3    H116974   4.343   3.756   2.359 -0.8970 -0.5545  0.9256
 5670TIP3    H216975   4.294   3.842   2.244  2.0760  0.8734  0.6425
 5671TIP3   OH216976   5.404   1.161   5.485 -0.2940 -0.4736 -0.3613
 5671TIP3    H116977   5.351   1.240   5.486  0.7651  0.2503  0.3252
 5671TIP3    H216978   5.489   1.189   5.451  0.6039 -0.9422  1.3791
 5672TIP3   OH216979   4.130   2.942   2.361  0.1944  0.2417 -0.0106
 5672TIP3    H116980   4.224   2.950   2.378 -0.0222  1.4130  0.6908
 5672TIP3    H216981   4.105   3.025   2.321 -0.5360 -0.0807 -0.2393
 5673TIP3   OH216982   5.646   3.665   1.242  0.1425  0.3981  0.5148
 5673TIP3    H116983   5.668   3.572   1.255 -1.4603 -0.3545 -1.6085
 5673TIP3    H216984   5.725   3.703   1.204  0.4130 -0.4047  0.2430
 5674TIP3   OH216985   1.728   0.655   5.675  0.3217  0.5358 -0.5218
 5674TIP3    H116986   1.662   0.586   5.674 -1.3280  2.0367 -0.9087
 5674TIP3    H216987   1.731   0.686   5.585  1.7697  0.3130 -0.5580
 5675TIP3   OH216988   5.475   6.065   1.879  0.0093  0.7239  0.4992
 5675TIP3    H116989   5.534   6.002   1.839  0.4049  0.4526  1.4773
 5675TIP3    H216990   5.406   6.079   1.814 -1.4527 -2.5620  1.1566
 5676TIP3   OH216991   6.432   5.074   1.203  0.7082 -0.4514 -0.5705
 5676TIP3    H116992   6.354   5.108   1.247  1.2123  0.1013 -0.0917
 5676TIP3    H216993   6.449   5.136   1.132  1.3949  0.0945  0.0564
 5677TIP3   OH216994   3.197   2.592   1.290  0.0676  0.2448 -0.1512
 5677TIP3    H116995   3.155   2.676   1.311 -1.2582 -0.4855  0.1918
 5677TIP3    H216996   3.124   2.533   1.273  0.9685 -1.0741  0.4788
 5678TIP3   OH216997   5.528   1.292   2.190 -0.2897 -0.0362 -0.4222
 5678TIP3    H116998   5.456   1.352   2.172 -0.3603 -0.0453 -0.1802
 5678TIP3    H216999   5.561   1.320   2.276 -0.9735 -0.9799  0.1659
 5679TIP3   OH217000   0.985   5.067   5.762 -0.2827  0.2143 -0.4256
 5679TIP3    H117001   0.984   4.972   5.776 -1.8434  0.1094 -0.9809
 5679TIP3    H217002   1.041   5.101   5.831 -0.9212 -0.9947  0.7480
 5680TIP3   OH217003   5.557   3.380   4.270 -0.1253  0.0943  0.1100
 5680TIP3    H117004   5.589   3.364   4.358  0.8360  0.7789 -0.0972
 5680TIP3    H217005   5.591   3.308   4.218  0.2611  0.2936  0.0836
 5681TIP3   OH217006   1.244   6.504   3.444  0.3168 -0.4526  0.0908
 5681TIP3    H117007   1.259   6.409   3.439 -0.9667 -0.6343 -0.8980
 5681TIP3    H217008   1.183   6.522   3.372 -1.9643  0.6024  2.1466
 5682TIP3   OH217009   3.186   4.693   0.509 -0.6801 -0.2530  0.1489
 5682TIP3    H117010   3.145   4.640   0.440  1.6577  0.5766 -2.0856
 5682TIP3    H217011   3.179   4.783   0.477 -1.7978  0.5142  2.3473
 5683TIP3   OH217012   2.649   4.650   1.610 -0.5528 -0.1473  0.1978
 5683TIP3    H117013   2.643   4.709   1.534 -1.3710 -0.6073 -0.1147
 5683TIP3    H217014   2.583   4.684   1.671 -0.4759 -0.2735  0.3507
 5684TIP3   OH217015   4.711   2.090   5.736  0.0268  0.4193 -0.2865
 5684TIP3    H117016   4.713   2.061   5.827  0.9891  0.4645 -0.2863
 5684TIP3    H217017   4.739   2.181   5.738 -0.4167  0.5690 -0.5839
 5685TIP3   OH217018   0.864   6.406   3.270  0.1176 -0.3715  0.3197
 5685TIP3    H117019   0.851   6.316   3.300 -0.0693 -0.1416  0.9429
 5685TIP3    H217020   0.778   6.446   3.275 -0.0125 -0.4423 -0.9694
 5686TIP3   OH217021   2.485  -0.011   4.868  0.6184  0.7101 -0.1298
 5686TIP3    H117022   2.462   0.032   4.951 -0.4053  0.3011 -0.1945
 5686TIP3    H217023   2.451   0.048   4.800 -0.7578 -0.1498 -0.2189
 5687TIP3   OH217024   1.412   2.313   1.347  0.0683  0.8318 -0.6370
 5687TIP3    H117025   1.372   2.400   1.352  1.3920  1.5000 -1.2694
 5687TIP3    H217026   1.345   2.255   1.382 -0.5503  2.1930  0.5833
 5688TIP3   OH217027   1.730   5.807   2.192  0.2718 -0.2091  0.1539
 5688TIP3    H117028   1.665   5.752   2.237 -1.1509  0.5810 -0.8365
 5688TIP3    H217029   1.722   5.783   2.100  1.1290  0.1876 -0.0279
 5689TIP3   OH217030   0.960   3.215   3.971 -0.5565 -0.0136 -0.6829
 5689TIP3    H117031   0.874   3.239   4.007 -0.7152 -1.2279 -0.2007
 5689TIP3    H217032   0.942   3.192   3.880 -0.4976  1.0387 -0.9802
 5690TIP3   OH217033   2.621   5.342   4.005  0.1103  0.0787  0.3639
 5690TIP3    H117034   2.545   5.362   4.060 -0.4753 -1.4365  0.1562
 5690TIP3    H217035   2.692   5.393   4.044 -0.7261  0.5575  1.3306
 5691TIP3   OH217036   5.443   2.606   5.138 -0.2721  0.1856 -0.1525
 5691TIP3    H117037   5.438   2.701   5.133 -0.6809  0.1213 -1.3130
 5691TIP3    H217038   5.527   2.584   5.096  0.4301  0.0907  1.2482
 5692TIP3   OH217039   4.099   4.257   0.521 -0.6930 -0.2312  0.1613
 5692TIP3    H117040   4.078   4.288   0.433 -0.4663  1.2763  0.6028
 5692TIP3    H217041   4.134   4.169   0.508 -1.5189 -0.3882 -1.1525
 5693TIP3   OH217042   3.767   5.422   3.684  0.0202  0.5222 -0.3664
 5693TIP3    H117043   3.801   5.509   3.705  0.4299  0.2653  0.0393
 5693TIP3    H217044   3.765   5.420   3.588 -0.4741  1.1570 -0.3818
 5694TIP3   OH217045   7.098   0.628   0.169 -0.5360  0.0727 -0.2698
 5694TIP3    H117046   7.096   0.637   0.264 -2.6108  0.1969 -0.2918
 5694TIP3    H217047   7.127   0.538   0.154 -1.6047 -0.4326  0.5459
 5695TIP3   OH217048   6.562   0.247   3.527 -0.3776 -0.3390 -0.9268
 5695TIP3    H117049   6.573   0.291   3.443  1.1953  0.4051 -0.3668
 5695TIP3    H217050   6.651   0.239   3.562 -0.9635 -0.9612  0.5084
 5696TIP3   OH217051   3.845   1.187   5.673  0.3292 -0.2862 -0.0707
 5696TIP3    H117052   3.838   1.104   5.626 -0.4938  0.6461 -1.6723
 5696TIP3    H217053   3.854   1.253   5.604 -0.2151  1.0804  1.1172
 5697TIP3   OH217054   4.010   3.229   3.605 -0.3234  0.1804 -0.0736
 5697TIP3    H117055   3.978   3.242   3.516 -0.2797  0.0541 -0.1086
 5697TIP3    H217056   4.022   3.134   3.612  0.3100  0.2524 -0.1527
 5698TIP3   OH217057   0.950   3.845   1.406  0.3259 -0.3558  0.2101
 5698TIP3    H117058   0.986   3.760   1.379  1.1278 -0.6287  2.0031
 5698TIP3    H217059   0.906   3.827   1.489 -0.3134  0.8226  0.1462
 5699TIP3   OH217060   6.314   4.375   2.641 -0.3514 -0.0831  0.0978
 5699TIP3    H117061   6.305   4.445   2.706  0.3408  0.1170 -0.0115
 5699TIP3    H217062   6.226   4.366   2.604 -0.4534  0.7332  0.1121
 5700TIP3   OH217063   3.231   2.526   0.819 -0.0283 -0.0627  0.3318
 5700TIP3    H117064   3.235   2.589   0.747 -1.3361  1.7021  1.6994
 5700TIP3    H217065   3.320   2.523   0.853 -0.0145  1.4354  0.5077
 5701TIP3   OH217066   1.319   4.808   3.149  0.0947  0.4049  0.2860
 5701TIP3    H117067   1.286   4.783   3.063  1.0342 -0.4380  0.1442
 5701TIP3    H217068   1.415   4.801   3.141  0.2620  1.5010  1.0472
 5702TIP3   OH217069   3.724   4.831   5.308  0.1686  0.1268  0.7134
 5702TIP3    H117070   3.752   4.767   5.372 -0.1185 -0.9736 -0.2222
 5702TIP3    H217071   3.727   4.915   5.354 -1.2138 -0.7549  2.5454
 5703TIP3   OH217072   4.661   1.796   4.642  0.1471  0.9127 -0.2504
 5703TIP3    H117073   4.631   1.880   4.607  1.0388  0.8499 -1.2314
 5703TIP3    H217074   4.647   1.734   4.570 -0.6135  0.1820  0.5032
 5704TIP3   OH217075   2.323   1.825   3.876 -0.0635 -0.0598  0.2519
 5704TIP3    H117076   2.312   1.819   3.781  1.6861  1.1675 -0.0668
 5704TIP3    H217077   2.249   1.879   3.904 -0.2228  0.1345 -0.5075
 5705TIP3   OH217078   2.946   4.553   1.127 -0.1923 -0.8044 -0.0188
 5705TIP3    H117079   2.872   4.613   1.141 -0.7026 -1.5110  0.3759
 5705TIP3    H217080   2.979   4.575   1.040  1.1799  1.7036  1.0300
 5706TIP3   OH217081   4.477   5.851   3.000 -0.8694  0.5160 -0.1515
 5706TIP3    H117082   4.485   5.768   2.953  3.2506  0.9390 -0.5771
 5706TIP3    H217083   4.437   5.827   3.084 -0.6859 -1.7397 -0.6382
 5707TIP3   OH217084   1.301   0.170   0.587 -0.5347 -0.5814 -0.6249
 5707TIP3    H117085   1.346   0.193   0.506  1.7196 -1.4139  0.3131
 5707TIP3    H217086   1.278   0.254   0.627  1.3926 -0.0608 -0.5238
 5708TIP3   OH217087   1.721   0.273   2.582 -0.5337 -0.0095 -0.2795
 5708TIP3    H117088   1.631   0.254   2.558 -0.3235 -0.8911 -0.4137
 5708TIP3    H217089   1.756   0.190   2.614  0.4365  0.1425 -0.8939
 5709TIP3   OH217090   6.568   6.023   5.382  0.0245 -0.3405 -0.1650
 5709TIP3    H117091   6.616   6.012   5.300 -0.7587 -1.1257 -0.5424
 5709TIP3    H217092   6.485   5.977   5.367 -1.6858  2.5412 -0.2376
 5710TIP3   OH217093   5.829   3.558   0.207  0.0387 -0.0495  0.1481
 5710TIP3    H117094   5.913   3.516   0.226 -0.6288 -1.5322  0.0067
 5710TIP3    H217095   5.804   3.523   0.121 -2.4939 -2.7320  1.7891
 5711TIP3   OH217096   2.965   5.310   0.499 -0.2524 -0.1629 -0.5392
 5711TIP3    H117097   2.954   5.383   0.560 -0.6716 -1.7411  1.3968
 5711TIP3    H217098   2.995   5.350   0.417 -2.9461  2.4206 -0.3878
 5712TIP3   OH217099   1.830   0.338   2.908 -0.4666  0.1554 -0.2162
 5712TIP3    H117100   1.914   0.339   2.954 -0.3021 -1.4370 -0.4288
 5712TIP3    H217101   1.831   0.256   2.859 -2.3004 -0.0522  0.0496
 5713TIP3   OH217102   6.531   6.135   0.125 -0.6001 -0.3069  0.1788
 5713TIP3    H117103   6.501   6.116   0.036  0.7148 -0.4102 -0.2653
 5713TIP3    H217104   6.472   6.203   0.156 -0.9150 -0.0783 -0.8770
 5714TIP3   OH217105   6.032   1.591   4.245 -0.5701  0.4071 -0.2385
 5714TIP3    H117106   6.113   1.598   4.296  0.3906  1.1738 -1.7953
 5714TIP3    H217107   6.003   1.501   4.259  0.8409 -0.0519 -0.0544
 5715TIP3   OH217108   3.646   3.842   1.500  0.0719 -0.1884 -0.8516
 5715TIP3    H117109   3.732   3.800   1.493  0.2906  0.1699 -0.4065
 5715TIP3    H217110   3.584   3.769   1.504  0.4582 -0.4914  0.0839
 5716TIP3   OH217111   4.497   5.585   2.930  0.6612  0.1762 -0.5930
 5716TIP3    H117112   4.415   5.538   2.915 -0.1913  1.5161 -0.2496
 5716TIP3    H217113   4.565   5.523   2.902 -0.4398 -1.0396 -0.6727
 5717TIP3   OH217114   0.008   5.799   4.110 -0.2463 -0.0872  0.3557
 5717TIP3    H117115   0.011   5.810   4.015 -0.6773 -2.2350  0.0448
 5717TIP3    H217116  -0.011   5.887   4.143  1.9927  1.1585 -1.3700
 5718TIP3   OH217117   4.254   5.005   2.335  0.1927  0.9374  0.2074
 5718TIP3    H117118   4.173   4.996   2.385 -0.3586  0.4214 -0.7472
 5718TIP3    H217119   4.228   4.989   2.244  1.3988  0.5550 -0.0919
 5719TIP3   OH217120   2.086   5.682   5.034  0.7612  0.3464  0.7651
 5719TIP3    H117121   2.008   5.633   5.059 -0.4970 -0.8352 -4.3581
 5719TIP3    H217122   2.159   5.625   5.060 -0.1691 -0.1069  2.5767
 5720TIP3   OH217123   5.118   6.386   1.596  0.1178 -0.3138  0.2885
 5720TIP3    H117124   5.157   6.469   1.569 -0.2457 -0.3837 -0.4834
 5720TIP3    H217125   5.158   6.321   1.538 -0.1387 -0.5685  0.3966
 5721TIP3   OH217126   0.394   6.495   4.276 -0.2139 -0.3346 -0.0653
 5721TIP3    H117127   0.321   6.543   4.236  0.0845  0.6412  0.5426
 5721TIP3    H217128   0.379   6.501   4.370 -0.4361 -1.8802  0.0257
 5722TIP3   OH217129   3.902   3.607   3.498 -0.1644 -0.4370  0.2419
 5722TIP3    H117130   3.912   3.670   3.569 -2.6435  1.7955 -1.2030
 5722TIP3    H217131   3.938   3.652   3.421 -2.0003 -0.6975 -0.8280
 5723TIP3   OH217132   4.682   0.657   1.505  0.0418 -0.0306 -1.0088
 5723TIP3    H117133   4.631   0.737   1.492 -0.1692 -0.1344 -0.8149
 5723TIP3    H217134   4.641   0.613   1.580 -0.0364 -0.4739 -1.3053
 5724TIP3   OH217135   3.148   2.245   1.377  0.6186 -0.4124  0.3022
 5724TIP3    H117136   3.115   2.156   1.371  1.4794 -0.7206 -0.0445
 5724TIP3    H217137   3.077   2.294   1.419 -0.9703 -0.6696 -1.8989
 5725TIP3   OH217138   4.819   2.006   4.367  0.5575 -1.0893  0.2179
 5725TIP3    H117139   4.772   2.076   4.321  0.8622 -0.1542  1.2898
 5725TIP3    H217140   4.900   2.047   4.396  0.5309 -1.7491  1.2690
 5726TIP3   OH217141   4.384   3.474   2.599  0.5366  0.8510  0.0337
 5726TIP3    H117142   4.372   3.534   2.526 -0.6653  0.9540  0.2998
 5726TIP3    H217143   4.390   3.531   2.676  3.7047  0.8785 -0.1183
 5727TIP3   OH217144   6.074   3.698   3.081 -0.9783 -0.4409 -0.1671
 5727TIP3    H117145   6.068   3.660   2.994 -0.0394 -0.2308 -0.3313
 5727TIP3    H217146   5.986   3.733   3.098 -1.5698 -1.6980 -0.4458
 5728TIP3   OH217147   6.758   6.708   0.487 -0.3887  0.0555  0.1563
 5728TIP3    H117148   6.678   6.660   0.467 -0.7844  0.5974  0.4417
 5728TIP3    H217149   6.821   6.676   0.423 -0.5030 -1.2144  0.6378
 5729TIP3   OH217150   0.316   3.508   4.697  0.0411  0.0026  0.2197
 5729TIP3    H117151   0.342   3.461   4.619  1.0945 -1.5795  1.4614
 5729TIP3    H217152   0.231   3.547   4.675  0.6360  0.2086 -1.9008
 5730TIP3   OH217153   5.550   0.462   0.891  0.2147  0.2595  0.3493
 5730TIP3    H117154   5.478   0.445   0.951 -0.6218  1.7149 -0.1866
 5730TIP3    H217155   5.531   0.408   0.815  1.2158 -1.4999  1.2880
 5731TIP3   OH217156   2.475   4.001   2.292  0.2394  0.0907  0.8165
 5731TIP3    H117157   2.514   4.002   2.205 -0.1545  1.0613  0.6364
 5731TIP3    H217158   2.410   3.931   2.288  1.3448 -0.9643  0.8562
 5732TIP3   OH217159   6.971   3.571   0.006  0.1889 -0.0303  0.4636
 5732TIP3    H117160   6.919   3.627   0.064  1.3930  0.6605  0.8977
 5732TIP3    H217161   7.028   3.521   0.065  0.0324 -0.7941 -0.0093
 5733TIP3   OH217162   2.961   2.332   4.696  0.1757  0.4819 -0.0994
 5733TIP3    H117163   2.986   2.240   4.707 -1.6246 -0.0092  0.2572
 5733TIP3    H217164   2.963   2.369   4.784 -0.5529  0.3605 -0.0227
 5734TIP3   OH217165   0.109   0.958   1.268  0.6570 -0.3251 -0.4988
 5734TIP3    H117166   0.067   0.914   1.194 -0.6224 -0.3101  0.1829
 5734TIP3    H217167   0.119   0.890   1.334 -1.5799  0.3655  0.6641
 5735TIP3   OH217168   0.991   0.613   2.998  0.2468 -0.4566 -0.1364
 5735TIP3    H117169   1.050   0.658   3.058  0.8793  0.4940 -1.3982
 5735TIP3    H217170   1.013   0.521   3.005  0.5522 -0.3181  0.8037
 5736TIP3   OH217171   0.717   0.994   1.934  0.5901 -0.0132  0.1082
 5736TIP3    H117172   0.638   1.039   1.963  0.4773  0.3097 -0.6731
 5736TIP3    H217173   0.700   0.973   1.842  1.2582 -0.2904  0.0413
 5737TIP3   OH217174   4.006   4.520   4.216  0.2723  0.0275  0.1288
 5737TIP3    H117175   3.997   4.438   4.168  2.0945 -1.1064  1.5575
 5737TIP3    H217176   4.059   4.497   4.293  0.6259  2.4980  0.7205
 5738TIP3   OH217177   5.283   1.294   3.143 -0.0898 -0.0653 -0.1791
 5738TIP3    H117178   5.271   1.282   3.237 -0.6176 -0.1000 -0.2477
 5738TIP3    H217179   5.342   1.369   3.136  2.3466 -1.8209  0.2258
 5739TIP3   OH217180   2.508   2.133   3.499 -0.2409  0.5765 -0.1977
 5739TIP3    H117181   2.573   2.155   3.566  0.3176  0.6671 -0.7592
 5739TIP3    H217182   2.543   2.054   3.457 -0.4691  0.6503 -0.5306
 5740TIP3   OH217183   0.834   6.143   4.528 -0.2348 -0.5413  0.2115
 5740TIP3    H117184   0.759   6.114   4.476  0.0620  1.2912 -1.3843
 5740TIP3    H217185   0.839   6.237   4.512 -0.1363  0.1700  3.7039
 5741TIP3   OH217186   0.987   2.914   4.522 -0.2905  0.0596  0.3752
 5741TIP3    H117187   0.975   2.822   4.497  2.2467 -0.5165  1.0068
 5741TIP3    H217188   1.061   2.943   4.470 -0.1186  1.3126  1.2895
 5742TIP3   OH217189   5.810   3.741   0.630 -0.1681  0.1420 -0.1517
 5742TIP3    H117190   5.889   3.783   0.664 -0.7063  0.4799  0.6962
 5742TIP3    H217191   5.802   3.775   0.540  0.0415  0.9606  0.1316
 5743TIP3   OH217192   4.113   1.908   1.943  0.5365 -0.1054  0.3422
 5743TIP3    H117193   4.057   1.831   1.933 -0.4298  0.4592  1.2741
 5743TIP3    H217194   4.126   1.917   2.037  0.4722  0.9743  0.2663
 5744TIP3   OH217195   3.519   2.547   0.504  0.2403  0.4573  0.8244
 5744TIP3    H117196   3.599   2.509   0.468  0.1995 -0.5267  1.6962
 5744TIP3    H217197   3.548   2.600   0.578 -0.0207 -2.4855  3.2701
 5745TIP3   OH217198   0.646   5.543   2.691  0.1926  0.0095  0.1830
 5745TIP3    H117199   0.624   5.451   2.681 -2.2737  0.2930  1.9788
 5745TIP3    H217200   0.709   5.546   2.762 -1.4123 -0.2098  1.6830
 5746TIP3   OH217201   4.698   3.857   0.312 -0.0466 -0.7059  0.2239
 5746TIP3    H117202   4.780   3.841   0.265 -1.1432 -2.6880 -1.1775
 5746TIP3    H217203   4.702   3.798   0.387  0.8881  1.0953  1.6438
 5747TIP3   OH217204   4.016   2.604   3.400  0.3981 -0.1190  0.3649
 5747TIP3    H117205   3.965   2.526   3.419 -0.9117  0.3920 -0.9243
 5747TIP3    H217206   3.955   2.664   3.356  1.9080  0.7799 -0.6190
 5748TIP3   OH217207   0.457   3.303   3.315 -0.3425 -0.2580  0.3501
 5748TIP3    H117208   0.514   3.376   3.340 -0.3241 -0.0335 -0.3380
 5748TIP3    H217209   0.397   3.293   3.389 -0.4995  0.6121  0.3509
 5749TIP3   OH217210   3.254   3.950   5.224  0.1661  0.1558  0.1892
 5749TIP3    H117211   3.212   4.003   5.157 -0.6578  1.5962  1.7575
 5749TIP3    H217212   3.317   3.896   5.176 -1.0011  0.4683 -1.8151
 5750TIP3   OH217213   0.840   1.392   0.479 -0.0338 -0.4829 -0.3340
 5750TIP3    H117214   0.801   1.427   0.399  0.5364 -0.2331 -0.5053
 5750TIP3    H217215   0.928   1.364   0.453  0.6180  0.7143  0.4556
 5751TIP3   OH217216   0.962   2.998   5.182 -0.3202  0.6303  0.0007
 5751TIP3    H117217   0.962   2.905   5.206 -0.3873  0.7202  0.3646
 5751TIP3    H217218   1.054   3.021   5.170 -0.3918  0.0450 -2.0172
 5752TIP3   OH217219   5.773   3.792   5.782  0.1646  0.7254  0.5076
 5752TIP3    H117220   5.740   3.800   5.693 -1.5165 -0.8427  0.9293
 5752TIP3    H217221   5.802   3.881   5.805 -1.0951  1.5683 -0.9564
 5753TIP3   OH217222   1.677   1.658   2.512  0.3288  0.0621  0.0018
 5753TIP3    H117223   1.652   1.616   2.429  0.1933 -0.3733  0.2631
 5753TIP3    H217224   1.623   1.737   2.516  1.8647  1.2604 -1.3748
 5754TIP3   OH217225   7.125   2.539   2.778  0.0198 -0.0965  0.2788
 5754TIP3    H117226   7.117   2.450   2.812  0.3017 -0.1319  0.2608
 5754TIP3    H217227   7.219   2.555   2.775 -0.0445  0.3705  0.7010
 5755TIP3   OH217228   5.024   0.373   2.147  0.3869 -0.0406  0.0106
 5755TIP3    H117229   5.117   0.397   2.154  0.2750  0.2660  0.5794
 5755TIP3    H217230   5.013   0.302   2.211 -0.0953  0.9932  1.1361
 5756TIP3   OH217231   3.524   6.331   3.287  0.3127  0.3955 -0.0542
 5756TIP3    H117232   3.477   6.340   3.370 -0.5838 -0.9768 -0.3836
 5756TIP3    H217233   3.611   6.302   3.312  0.7804  2.1408  0.5136
 5757TIP3   OH217234   7.232   1.942   0.998  0.5620  0.2262 -0.2681
 5757TIP3    H117235   7.186   1.897   0.927  1.0571  1.7439 -1.6400
 5757TIP3    H217236   7.164   1.960   1.063  0.0440 -1.0233 -0.4438
 5758TIP3   OH217237   0.922   0.882   1.642  0.0924  0.1808  0.1480
 5758TIP3    H117238   0.942   0.976   1.638  1.8277  0.0001  2.2061
 5758TIP3    H217239   0.924   0.853   1.551 -0.9220  2.2007 -0.5826
 5759TIP3   OH217240   2.360   6.304   0.267  0.6789  0.3504 -0.1265
 5759TIP3    H117241   2.297   6.234   0.248  2.2816 -0.9672 -0.8176
 5759TIP3    H217242   2.387   6.336   0.181  0.4746  1.3862  0.1776
 5760TIP3   OH217243   2.878   1.020   3.755 -0.5243  0.2867  0.4857
 5760TIP3    H117244   2.887   0.926   3.771 -1.1315 -0.0479 -0.9823
 5760TIP3    H217245   2.794   1.028   3.710  0.5630  1.2337 -1.4999
 5761TIP3   OH217246   1.429   3.527   3.715 -0.4764  0.1979 -0.1344
 5761TIP3    H117247   1.437   3.432   3.707  0.8337  0.1610  1.1082
 5761TIP3    H217248   1.391   3.556   3.632  0.1860 -1.2904 -0.9867
 5762TIP3   OH217249   7.166   3.513   5.439 -0.2646 -0.1704 -0.4742
 5762TIP3    H117250   7.257   3.496   5.418 -0.3303  0.1944 -1.0917
 5762TIP3    H217251   7.168   3.550   5.527  0.0228 -1.6907  0.1860
 5763TIP3   OH217252   5.222   1.796   2.042 -0.2992 -0.4659 -0.4902
 5763TIP3    H117253   5.162   1.850   1.990  0.0706 -0.7760 -1.2649
 5763TIP3    H217254   5.292   1.773   1.980 -0.4902 -1.8917 -0.2057
 5764TIP3   OH217255   2.981   4.635   4.082 -0.3291 -0.0432 -0.0977
 5764TIP3    H117256   3.041   4.611   4.152 -1.0927  1.0488  0.9605
 5764TIP3    H217257   2.970   4.730   4.090 -1.3989 -0.0694 -0.9089
 5765TIP3   OH217258   5.594   2.668   5.476  0.7048  0.2609 -0.0342
 5765TIP3    H117259   5.548   2.637   5.554  0.5817 -0.5056 -0.3995
 5765TIP3    H217260   5.547   2.747   5.450  0.7917  0.5642  0.7036
 5766TIP3   OH217261   3.547   3.254   4.167 -0.1872 -0.4010 -0.7837
 5766TIP3    H117262   3.585   3.167   4.177 -1.2549 -0.7226  0.9458
 5766TIP3    H217263   3.586   3.305   4.238 -0.4551  0.1861 -1.0533
 5767TIP3   OH217264   3.200   1.076   4.841 -0.3220  0.0269 -0.4310
 5767TIP3    H117265   3.111   1.041   4.835 -0.9419  0.8410  2.3018
 5767TIP3    H217266   3.252   1.001   4.870 -1.1852  0.5358  2.9523
 5768TIP3   OH217267   5.255   0.520   2.846 -0.3433 -0.1822  0.1272
 5768TIP3    H117268   5.160   0.505   2.843 -0.4305  0.3171  0.2234
 5768TIP3    H217269   5.269   0.597   2.791  0.3831 -1.9324 -2.2959
 5769TIP3   OH217270   4.900   5.663   1.176  0.3077 -0.0438 -0.2249
 5769TIP3    H117271   4.891   5.647   1.270  0.2796 -0.5214 -0.3072
 5769TIP3    H217272   4.916   5.577   1.138 -0.4059  0.0457 -0.7448
 5770TIP3   OH217273   3.770   1.012   0.669  0.3759  0.1123  0.1239
 5770TIP3    H117274   3.717   0.940   0.634  0.1120 -0.3662  1.4552
 5770TIP3    H217275   3.859   0.978   0.671  0.1806 -0.3595  1.1880
 5771TIP3   OH217276   1.238   4.409   4.479 -0.7847 -0.3742 -0.0101
 5771TIP3    H117277   1.226   4.351   4.404 -1.5590 -1.0129  0.5949
 5771TIP3    H217278   1.155   4.457   4.485 -0.2386  0.6396 -0.3601
 5772TIP3   OH217279   5.010   0.603   0.043  0.6483 -0.0938  0.4124
 5772TIP3    H117280   5.086   0.545   0.046  1.0977  0.4854  0.7041
 5772TIP3    H217281   4.991   0.613  -0.051  1.3918  0.3252  0.2985
 5773TIP3   OH217282   0.592   6.592   0.409 -0.2625  0.0320  0.6541
 5773TIP3    H117283   0.532   6.535   0.361 -2.8557  1.6393  1.8012
 5773TIP3    H217284   0.568   6.680   0.382  0.0640  0.8355  2.7694
 5774TIP3   OH217285   6.641   1.378   3.802 -0.2191  0.0065 -0.3934
 5774TIP3    H117286   6.704   1.308   3.785 -0.1683  0.1187 -0.6681
 5774TIP3    H217287   6.694   1.457   3.809 -0.3890  0.2314 -1.4119
 5775TIP3   OH217288   4.056   0.602   2.533  0.2971 -0.0217 -0.3200
 5775TIP3    H117289   3.985   0.658   2.502 -1.3651 -1.5171  0.6493
 5775TIP3    H217290   4.069   0.627   2.625  0.2860 -0.4900 -0.1872
 5776TIP3   OH217291   4.241   6.075   1.559 -0.6109  0.4217  0.2575
 5776TIP3    H117292   4.243   5.983   1.532 -1.7845  0.6229 -0.5965
 5776TIP3    H217293   4.313   6.115   1.510  0.0473 -0.0738  0.8018
 5777TIP3   OH217294   0.508   6.379   2.414  0.3490  0.5165 -0.1802
 5777TIP3    H117295   0.545   6.291   2.413  0.5915  0.4450  3.1413
 5777TIP3    H217296   0.558   6.427   2.348  1.5881 -1.3111 -0.6434
 5778TIP3   OH217297   1.254   5.154   0.727 -0.3783  0.4014  0.9431
 5778TIP3    H117298   1.333   5.099   0.727  0.2775  1.3268  1.7440
 5778TIP3    H217299   1.188   5.100   0.770 -0.9633 -1.3965 -1.9026
 5779TIP3   OH217300   2.941   0.042   2.905  0.4169  0.3665  0.0494
 5779TIP3    H117301   2.924   0.028   2.998  1.0596 -0.5162  0.0521
 5779TIP3    H217302   2.891   0.120   2.883 -1.0839 -0.3529  0.7460
 5780TIP3   OH217303   6.315   2.797   3.227 -0.1932 -0.1196 -0.6552
 5780TIP3    H117304   6.289   2.868   3.287 -0.9169  0.1003 -1.2154
 5780TIP3    H217305   6.284   2.826   3.141 -0.7961 -1.2631 -0.8405
 5781TIP3   OH217306   2.373   2.008   4.938  0.5226  0.1388  0.2066
 5781TIP3    H117307   2.278   2.010   4.940  0.5096  0.0844 -0.2431
 5781TIP3    H217308   2.394   1.915   4.924  0.6553  0.0641  0.8734
 5782TIP3   OH217309   5.867   5.515   4.563  0.0921 -0.3093  0.6830
 5782TIP3    H117310   5.916   5.557   4.492  0.4809  0.7770  1.5670
 5782TIP3    H217311   5.813   5.449   4.519 -1.1295  1.6137 -0.8986
 5783TIP3   OH217312   2.544   1.767   1.071  0.1153  0.0666 -0.0699
 5783TIP3    H117313   2.532   1.857   1.042 -0.7036  0.0720  0.2503
 5783TIP3    H217314   2.478   1.755   1.140  1.3181 -0.2541  1.0627
 5784TIP3   OH217315   5.299   4.898   1.143  0.2331  0.1255 -0.6996
 5784TIP3    H117316   5.242   4.830   1.108 -1.6463  0.6353  1.1673
 5784TIP3    H217317   5.259   4.980   1.115  0.8527  0.4916 -0.5428
 5785TIP3   OH217318   4.315   1.923   4.088 -0.1484 -0.1068  0.5472
 5785TIP3    H117319   4.260   1.872   4.028 -1.1184  0.8734  0.5631
 5785TIP3    H217320   4.323   1.868   4.166 -0.7192 -0.4745  0.3551
 5786TIP3   OH217321   5.301   5.455   2.858 -0.0783  0.0458  0.5733
 5786TIP3    H117322   5.222   5.416   2.895  0.4707 -2.0991 -0.3643
 5786TIP3    H217323   5.372   5.420   2.912  0.3794  0.3543  0.1819
 5787TIP3   OH217324   0.351   3.443   2.669  0.3907  0.0567 -0.1335
 5787TIP3    H117325   0.405   3.508   2.624  0.8611 -1.1708 -1.4147
 5787TIP3    H217326   0.403   3.363   2.668 -1.9316 -1.6085 -2.7403
 5788TIP3   OH217327   3.851   4.852   1.964 -0.4710 -0.3693  0.2350
 5788TIP3    H117328   3.841   4.914   2.036 -0.6754 -1.3503  1.0776
 5788TIP3    H217329   3.809   4.771   1.995  0.9070 -1.3379 -0.3024
 5789TIP3   OH217330   4.949   6.724   3.738 -0.4173  0.8373 -0.2294
 5789TIP3    H117331   4.876   6.711   3.677 -0.0728  3.9640 -1.5061
 5789TIP3    H217332   5.023   6.748   3.682  1.4958 -1.4735  1.0925
 5790TIP3   OH217333   1.472   6.601   5.695 -0.1192 -0.6445 -0.0909
 5790TIP3    H117334   1.444   6.546   5.623  0.8144 -0.5751 -0.5221
 5790TIP3    H217335   1.557   6.636   5.668 -0.4155  0.5525  0.4081
 5791TIP3   OH217336   5.640   3.438   5.563  0.4908 -0.2722  0.7885
 5791TIP3    H117337   5.547   3.439   5.587  0.2563 -1.1853 -0.0422
 5791TIP3    H217338   5.685   3.407   5.642  0.1099  0.3112  1.2409
 5792TIP3   OH217339   6.114   2.154   2.989 -0.0917 -0.4802 -0.2635
 5792TIP3    H117340   6.191   2.210   2.976 -0.4618 -0.2116 -1.4035
 5792TIP3    H217341   6.106   2.146   3.084 -0.1005  1.5015 -0.0586
 5793TIP3   OH217342   0.863   4.057   4.635  0.7526  0.0886 -0.0712
 5793TIP3    H117343   0.923   4.015   4.575 -1.1171 -2.0021 -0.6160
 5793TIP3    H217344   0.837   3.988   4.696  0.3761  1.4254  1.3633
 5794TIP3   OH217345   5.443   4.624   5.579  0.5331 -0.3655  0.0153
 5794TIP3    H117346   5.434   4.531   5.598 -1.9784 -0.1984 -0.0781
 5794TIP3    H217347   5.446   4.666   5.665 -2.4981 -0.2735  0.1731
 5795TIP3   OH217348   0.949   1.264   1.943  0.0511 -0.3679  0.2270
 5795TIP3    H117349   0.967   1.170   1.937 -0.6333 -0.7634  2.9099
 5795TIP3    H217350   1.028   1.301   1.982  0.6404  0.3741 -1.5487
 5796TIP3   OH217351   1.770   5.355   4.840  0.1280 -0.3796 -0.3503
 5796TIP3    H117352   1.843   5.365   4.778  0.5395 -0.7930  0.0535
 5796TIP3    H217353   1.810   5.371   4.926 -0.2006 -0.8640 -0.1056
 5797TIP3   OH217354   0.909   2.742   1.271  0.3778 -0.0868  0.5545
 5797TIP3    H117355   0.849   2.810   1.301  1.3548  0.7408  0.7138
 5797TIP3    H217356   0.919   2.760   1.177  0.7055  0.0662  0.6144
 5798TIP3   OH217357   7.166   0.292   4.345 -0.1075  0.3404 -0.6554
 5798TIP3    H117358   7.237   0.236   4.312 -1.1299 -0.9702 -0.7114
 5798TIP3    H217359   7.087   0.241   4.331 -0.9167  1.1136  0.8382
 5799TIP3   OH217360   4.237   2.889   5.446 -0.0485  0.0797  0.6292
 5799TIP3    H117361   4.218   2.830   5.374 -1.6139 -0.7768  1.6898
 5799TIP3    H217362   4.331   2.878   5.461  0.1237 -0.3951 -0.6826
 5800TIP3   OH217363   3.583   0.589   4.521 -0.3396 -0.3804  0.1435
 5800TIP3    H117364   3.529   0.511   4.509 -0.2338 -0.5004  0.4543
 5800TIP3    H217365   3.577   0.635   4.437 -0.0546 -0.9365 -0.1859
 5801TIP3   OH217366   3.191   4.434   4.206 -0.2946 -0.1583  0.5172
 5801TIP3    H117367   3.272   4.407   4.163  1.1559  4.4610 -0.2007
 5801TIP3    H217368   3.209   4.425   4.300  0.2437 -1.1196  0.3322
 5802TIP3   OH217369   3.121   2.574   5.482  0.3677  0.1714 -0.2410
 5802TIP3    H117370   3.131   2.668   5.463 -0.7601  0.4786  0.5619
 5802TIP3    H217371   3.180   2.559   5.556  1.2133  0.0380 -0.9313
 5803TIP3   OH217372   4.239   5.808   0.691  0.4975 -0.0779 -0.0680
 5803TIP3    H117373   4.311   5.808   0.628  0.0599 -1.3704 -0.6008
 5803TIP3    H217374   4.238   5.719   0.727  0.1008  0.3498  1.0468
 5804TIP3   OH217375   3.766   3.272   2.094 -0.2972  0.3586 -0.2110
 5804TIP3    H117376   3.670   3.268   2.092 -0.2960  0.0829 -2.0654
 5804TIP3    H217377   3.792   3.244   2.006  1.6193 -2.4838  1.1323
 5805TIP3   OH217378   0.410   4.780   5.431  0.0449  0.1187 -0.3514
 5805TIP3    H117379   0.370   4.867   5.433 -0.4725 -0.0505 -1.7706
 5805TIP3    H217380   0.495   4.793   5.390  1.4842  0.4447  2.4872
 5806TIP3   OH217381   3.692   1.843   2.353 -0.2135 -0.0198  0.4482
 5806TIP3    H117382   3.620   1.796   2.310  0.2631  0.0008 -0.3844
 5806TIP3    H217383   3.755   1.775   2.375 -0.9930 -0.2051  2.2653
 5807TIP3   OH217384   1.683   5.645   0.565  0.4027 -0.4333 -1.1787
 5807TIP3    H117385   1.725   5.589   0.500 -1.6723 -2.3672 -0.9790
 5807TIP3    H217386   1.623   5.587   0.612 -0.1917  1.4991  0.6207
 5808TIP3   OH217387   6.622   5.918   4.854  0.1046 -0.4470  0.0518
 5808TIP3    H117388   6.611   5.986   4.920  1.4953 -0.2264  0.0923
 5808TIP3    H217389   6.602   5.960   4.771  3.2467  0.7956 -0.2220
 5809TIP3   OH217390   7.158   0.213   0.264 -0.3043 -0.2224  0.1945
 5809TIP3    H117391   7.070   0.216   0.228 -0.3854  0.0841  0.4190
 5809TIP3    H217392   7.148   0.238   0.356  0.4659  3.5175 -0.5849
 5810TIP3   OH217393   1.005   5.565   2.539  0.4288 -0.0346  0.7428
 5810TIP3    H117394   1.024   5.473   2.519 -0.6089  0.1043 -1.1935
 5810TIP3    H217395   1.068   5.614   2.486  0.3343  0.3611  0.9984
 5811TIP3   OH217396   5.050   4.478   5.724  0.4942 -0.0786  0.3792
 5811TIP3    H117397   5.110   4.501   5.795  0.6786 -2.7151  1.1818
 5811TIP3    H217398   5.049   4.382   5.723 -0.4235 -0.1323 -2.4308
 5812TIP3   OH217399   0.340   5.349   3.318  0.2879  0.3139 -0.2374
 5812TIP3    H117400   0.371   5.259   3.310 -1.0983 -0.0447 -2.2012
 5812TIP3    H217401   0.387   5.384   3.394  1.0575 -1.9603  0.4022
 5813TIP3   OH217402   6.995   6.669   0.991 -0.0448 -0.2615  0.5264
 5813TIP3    H117403   7.041   6.699   1.070 -0.6352 -0.6216  1.0145
 5813TIP3    H217404   6.977   6.577   1.007 -0.3363 -0.2897  0.0483
 5814TIP3   OH217405   6.406   1.768   1.160 -0.1837  0.0972 -0.3381
 5814TIP3    H117406   6.448   1.771   1.246  0.5239  0.4312 -0.6871
 5814TIP3    H217407   6.326   1.820   1.170 -0.1678  0.0287  0.1528
 5815TIP3   OH217408   3.844   5.663   3.380  0.3433 -0.2876 -0.0822
 5815TIP3    H117409   3.799   5.698   3.303  1.2567  0.0303 -0.4811
 5815TIP3    H217410   3.850   5.737   3.440 -0.7080 -0.6293  0.4737
 5816TIP3   OH217411   5.979   6.370   2.390  0.2217  0.0154 -0.2814
 5816TIP3    H117412   6.016   6.442   2.339  0.4466  0.6815  0.7829
 5816TIP3    H217413   5.937   6.313   2.325 -0.5176  1.4297 -1.0893
 5817TIP3   OH217414   1.544   2.312   0.154 -0.3504  0.0529 -0.0959
 5817TIP3    H117415   1.528   2.218   0.151  0.3879 -0.0703 -0.3091
 5817TIP3    H217416   1.506   2.345   0.073 -0.5567 -0.0670 -0.0501
 5818TIP3   OH217417   4.775   5.573   5.185 -0.5879  0.1624  0.1140
 5818TIP3    H117418   4.824   5.492   5.170 -0.7241  0.1720 -0.3972
 5818TIP3    H217419   4.807   5.605   5.269  0.1127  0.0424 -0.1052
 5819TIP3   OH217420   5.419   5.257   4.764  0.8570 -0.0300  0.0333
 5819TIP3    H117421   5.513   5.262   4.783  0.6886  1.4610  0.5855
 5819TIP3    H217422   5.396   5.166   4.782  2.5359 -0.9199 -1.8451
 5820TIP3   OH217423   0.188   1.568   4.884 -0.0282 -0.3885  0.4509
 5820TIP3    H117424   0.268   1.617   4.863 -0.1471 -0.6962 -0.7969
 5820TIP3    H217425   0.117   1.621   4.847 -0.2908 -0.7272  0.4688
 5821TIP3   OH217426   1.269   1.912   3.468  0.5587  0.2883  0.3161
 5821TIP3    H117427   1.300   1.864   3.390  0.6945 -2.4320  1.9221
 5821TIP3    H217428   1.346   1.962   3.496  2.1763 -2.4940  1.3638
 5822TIP3   OH217429   6.542   1.700   0.729 -0.3729 -0.4644 -0.3666
 5822TIP3    H117430   6.633   1.683   0.706 -0.5161  0.1876 -1.4819
 5822TIP3    H217431   6.531   1.659   0.815  1.5090  1.0982  0.7098
 5823TIP3   OH217432   1.893   1.671   5.210 -0.7876 -0.2039 -0.3668
 5823TIP3    H117433   1.866   1.631   5.127 -0.8987  0.7943 -0.8325
 5823TIP3    H217434   1.977   1.630   5.230 -0.9163 -0.6964 -0.8042
 5824TIP3   OH217435   3.063   4.670   1.685  0.1439 -0.1204 -0.1874
 5824TIP3    H117436   2.994   4.702   1.627 -0.8148 -1.1387  0.3460
 5824TIP3    H217437   3.129   4.633   1.627 -1.0235 -1.5751 -0.6420
 5825TIP3   OH217438   5.408   6.679   2.296  0.1029  0.3759  0.4581
 5825TIP3    H117439   5.360   6.639   2.368  0.0173  1.5435  1.0646
 5825TIP3    H217440   5.500   6.655   2.312  0.0029  0.0887  0.5968
 5826TIP3   OH217441   1.941   4.565   0.920 -0.4718 -0.2910 -0.0670
 5826TIP3    H117442   2.033   4.561   0.948 -0.9943  0.0711  1.8021
 5826TIP3    H217443   1.915   4.473   0.910  0.4813 -0.3981 -2.1324
 5827TIP3   OH217444   2.641   2.531   4.427  0.3527 -0.0571 -0.2345
 5827TIP3    H117445   2.615   2.586   4.501  0.9516 -0.1094  0.0235
 5827TIP3    H217446   2.559   2.509   4.383 -0.1305 -0.8326  0.9871
 5828TIP3   OH217447   2.542   1.573   3.222  0.3833 -0.5577  0.0484
 5828TIP3    H117448   2.464   1.573   3.167  0.7942 -1.9924 -0.5780
 5828TIP3    H217449   2.608   1.526   3.170  0.6863 -2.2565  1.8704
 5829TIP3   OH217450   1.763   3.047   4.666 -0.0600 -0.6434 -0.2042
 5829TIP3    H117451   1.747   2.961   4.628 -1.7250 -0.5811  0.2683
 5829TIP3    H217452   1.707   3.049   4.744  1.7297 -0.0212  1.1410
 5830TIP3   OH217453   3.492   5.163   2.315 -0.2697 -0.4755  0.2313
 5830TIP3    H117454   3.406   5.121   2.307 -0.6075  0.5485 -2.4382
 5830TIP3    H217455   3.474   5.257   2.310  1.0434 -0.2671 -1.1979
 5831TIP3   OH217456   2.040   1.885   0.064 -0.1552  0.1405 -0.1197
 5831TIP3    H117457   2.098   1.831   0.011 -1.4888  0.1573 -1.6778
 5831TIP3    H217458   2.063   1.975   0.042 -0.6822  0.1481 -0.6616
 5832TIP3   OH217459   1.768   3.786   4.680 -0.0950 -0.2703  0.1773
 5832TIP3    H117460   1.700   3.852   4.667 -0.8309 -1.0336  0.0650
 5832TIP3    H217461   1.851   3.834   4.670 -0.6143  0.4593 -0.8236
 5833TIP3   OH217462   4.081   0.515   5.128  0.0675 -0.4334  0.3524
 5833TIP3    H117463   4.176   0.503   5.140  0.6234  0.2812 -2.5516
 5833TIP3    H217464   4.060   0.462   5.051 -1.3282  1.4426 -0.6365
 5834TIP3   OH217465   4.119   6.760   3.426 -0.2311 -0.4217 -0.6678
 5834TIP3    H117466   4.186   6.749   3.359  0.9492 -1.9348  0.6839
 5834TIP3    H217467   4.147   6.837   3.475  0.9611 -1.4189  0.2994
 5835TIP3   OH217468   3.646   5.717   0.911  0.1417  0.1353 -0.3264
 5835TIP3    H117469   3.564   5.750   0.875  0.2516  1.9028  0.8788
 5835TIP3    H217470   3.686   5.667   0.840 -1.5497  0.0026 -1.2215
 5836TIP3   OH217471   2.002   0.722   3.314 -0.6549 -0.1933 -0.3977
 5836TIP3    H117472   2.015   0.811   3.282 -3.4033  0.4389 -0.0510
 5836TIP3    H217473   1.930   0.688   3.261 -0.4356 -1.7820  0.2688
 5837TIP3   OH217474   6.529   0.099   5.803 -0.0269 -0.1307 -0.4069
 5837TIP3    H117475   6.496   0.039   5.870  0.0411 -1.6640 -1.6736
 5837TIP3    H217476   6.610   0.058   5.772  0.9372  1.5088 -0.1533
 5838TIP3   OH217477   0.238   3.405   0.572 -0.0424  0.0716  0.1693
 5838TIP3    H117478   0.263   3.451   0.492 -1.0301 -1.3451 -1.0006
 5838TIP3    H217479   0.294   3.327   0.574 -1.8746 -1.3479 -0.6718
 5839TIP3   OH217480   4.757   1.665   3.438 -0.5694 -0.0809  0.0563
 5839TIP3    H117481   4.725   1.625   3.358  1.2343  1.8591 -1.7528
 5839TIP3    H217482   4.830   1.609   3.465  0.7587  0.8602 -1.4266
 5840TIP3   OH217483   6.736   5.922   5.201 -0.0947 -0.1164  0.3906
 5840TIP3    H117484   6.784   5.883   5.275 -0.4474 -1.1569  0.0967
 5840TIP3    H217485   6.801   5.931   5.132 -0.1605 -0.8761  0.2226
 5841TIP3   OH217486   4.965   6.686   3.118 -0.1798  0.0057 -0.1554
 5841TIP3    H117487   4.881   6.692   3.073  0.1297  0.8361 -0.6537
 5841TIP3    H217488   4.948   6.720   3.206 -0.1282  1.2781 -0.6138
 5842TIP3   OH217489   2.546   2.230   1.843  0.2107  0.1087 -0.1931
 5842TIP3    H117490   2.537   2.141   1.809 -2.0608  0.7093 -1.3881
 5842TIP3    H217491   2.467   2.275   1.812  0.8436  2.2882  1.1697
 5843TIP3   OH217492   2.663   6.089   2.267  0.2791 -0.3360  0.2754
 5843TIP3    H117493   2.701   6.038   2.338 -0.1324 -1.4759 -0.2948
 5843TIP3    H217494   2.719   6.166   2.260  0.9430 -0.7245  1.1339
 5844TIP3   OH217495   4.672   5.562   1.581  0.5040  0.5388  0.6189
 5844TIP3    H117496   4.700   5.497   1.517  0.0881  1.3173 -0.3868
 5844TIP3    H217497   4.753   5.599   1.615  0.7377 -0.3055  1.0124
 5845TIP3   OH217498   6.938   5.792   4.285  0.9955 -0.1649  0.3564
 5845TIP3    H117499   7.027   5.828   4.283  1.9889 -2.4195 -0.1740
 5845TIP3    H217500   6.951   5.701   4.313 -1.2058 -0.4375  0.6139
 5846TIP3   OH217501   3.788   4.852   3.699 -0.0427 -0.0196  0.1771
 5846TIP3    H117502   3.846   4.918   3.660 -0.1899  0.0435  0.0652
 5846TIP3    H217503   3.837   4.819   3.774 -1.0291  2.1399  1.9128
 5847TIP3   OH217504   0.600   3.480   0.634  0.0337  0.2666 -0.2734
 5847TIP3    H117505   0.520   3.483   0.686 -0.3602 -0.5739 -0.7937
 5847TIP3    H217506   0.643   3.398   0.660  0.7395  0.7136  0.0107
 5848TIP3   OH217507   4.937   6.539   4.648  0.0746  0.8667 -0.0973
 5848TIP3    H117508   4.988   6.569   4.572  1.4126  2.3157  1.2894
 5848TIP3    H217509   4.964   6.597   4.719 -1.6526  0.0014  1.3431
 5849TIP3   OH217510   4.843   6.498   1.408  0.0682  0.0561 -0.3679
 5849TIP3    H117511   4.797   6.566   1.360 -0.2879  0.7133  0.8635
 5849TIP3    H217512   4.787   6.420   1.399 -1.2599  0.7952  0.9529
 5850TIP3   OH217513   1.658   0.379   4.869  0.2968 -0.1774  0.1921
 5850TIP3    H117514   1.571   0.340   4.876 -0.1546  0.6649 -0.5218
 5850TIP3    H217515   1.657   0.425   4.785  1.8117 -1.0615 -0.3523
 5851TIP3   OH217516   0.971   1.361   0.936  0.5443  0.2731 -0.4064
 5851TIP3    H117517   1.042   1.302   0.908  1.8100  1.7554 -0.4654
 5851TIP3    H217518   0.954   1.416   0.860 -1.0275 -0.3400 -0.5396
 5852TIP3   OH217519   6.696   4.291   1.964  0.5251 -0.6760 -0.2266
 5852TIP3    H117520   6.762   4.267   1.899  2.8751 -0.6080  2.0057
 5852TIP3    H217521   6.663   4.208   1.998  1.3302 -0.7413  0.4192
 5853TIP3   OH217522   2.815   4.370   3.544 -0.6162  0.5523  0.4928
 5853TIP3    H117523   2.847   4.454   3.576  0.6210 -0.4151  1.9342
 5853TIP3    H217524   2.726   4.362   3.579 -0.4404  0.9046  1.0197
 5854TIP3   OH217525   6.768   5.091   4.916 -0.1696  0.2245 -0.2766
 5854TIP3    H117526   6.788   5.170   4.866  0.9245 -0.6421 -1.2936
 5854TIP3    H217527   6.854   5.060   4.946 -0.6424 -0.2422  0.6241
 5855TIP3   OH217528   3.145   2.451   1.691 -0.2064 -0.5303  0.9368
 5855TIP3    H117529   3.158   2.532   1.642 -1.1405 -0.6997  0.3873
 5855TIP3    H217530   3.088   2.476   1.764  1.6545 -0.1466  2.3584
 5856TIP3   OH217531   2.800   2.039   2.115  0.3393  0.1604  0.3782
 5856TIP3    H117532   2.877   1.988   2.089  1.3233  2.2690 -1.0579
 5856TIP3    H217533   2.809   2.050   2.209  1.2442 -0.4800  0.3771
 5857TIP3   OH217534   5.383   3.338   5.596 -0.0980 -0.1585  0.1482
 5857TIP3    H117535   5.345   3.320   5.682 -0.4891 -0.7516 -0.1414
 5857TIP3    H217536   5.352   3.266   5.541  0.5477 -0.0474 -0.3693
 5858TIP3   OH217537   6.710   6.678   2.978  0.3705  0.2652  0.0646
 5858TIP3    H117538   6.762   6.738   3.032  0.7120  0.8945 -0.9357
 5858TIP3    H217539   6.688   6.606   3.037 -0.5074  1.6127  1.4576
 5859TIP3   OH217540   2.498   4.040   4.694 -0.5135  0.0650 -0.0429
 5859TIP3    H117541   2.576   4.095   4.688 -0.8278  0.3447 -2.5386
 5859TIP3    H217542   2.424   4.101   4.695 -0.7822 -0.2498  0.5320
 5860TIP3   OH217543   6.383   2.652   2.907  0.3493  0.1220 -0.0721
 5860TIP3    H117544   6.458   2.602   2.875  1.2007  0.7253  0.8853
 5860TIP3    H217545   6.337   2.681   2.829 -0.8906 -3.1229 -0.6843
 5861TIP3   OH217546   3.973   1.829   1.217 -0.1993 -0.5231 -0.2843
 5861TIP3    H117547   3.906   1.888   1.183 -0.1985 -0.5042 -0.2533
 5861TIP3    H217548   3.948   1.814   1.308  0.0909 -0.1578 -0.1436
 5862TIP3   OH217549   0.491   4.273   1.172 -0.6575  0.1758 -0.1325
 5862TIP3    H117550   0.416   4.302   1.224 -1.1571 -0.2589 -0.6010
 5862TIP3    H217551   0.563   4.269   1.235 -1.2580 -0.3852  0.5418
 5863TIP3   OH217552   5.285   3.046   4.970 -0.0817 -0.1650  0.0924
 5863TIP3    H117553   5.234   3.116   5.009 -1.1300 -0.6778 -0.3268
 5863TIP3    H217554   5.364   3.041   5.024 -0.1383  1.1152  0.3133
 5864TIP3   OH217555   0.082   6.188   2.220  0.1863  0.3069  0.1871
 5864TIP3    H117556   0.050   6.102   2.195  2.2417 -1.0243  1.7204
 5864TIP3    H217557   0.164   6.199   2.172 -0.5499  1.9064 -0.7794
 5865TIP3   OH217558   3.539   5.334   1.545 -0.4961  0.0609  0.4690
 5865TIP3    H117559   3.491   5.342   1.628  0.7198  0.1749  1.1841
 5865TIP3    H217560   3.530   5.420   1.504 -2.0920 -0.3437 -0.1024
 5866TIP3   OH217561   4.213   4.900   0.951 -0.4332 -0.0626 -0.4007
 5866TIP3    H117562   4.183   4.812   0.925  0.8117 -0.8979  0.8621
 5866TIP3    H217563   4.183   4.910   1.041  0.9031  0.0915  0.0434
 5867TIP3   OH217564   1.968   3.731   2.513  0.0905  0.2441  0.4423
 5867TIP3    H117565   1.908   3.732   2.438 -0.6221  1.9310  1.0046
 5867TIP3    H217566   1.912   3.710   2.588  0.3210  1.1526  0.8719
 5868TIP3   OH217567   0.515   5.560   4.278  0.1474 -0.5899 -0.5146
 5868TIP3    H117568   0.451   5.489   4.273 -1.3395  0.5858  0.8050
 5868TIP3    H217569   0.470   5.630   4.325  1.4124  1.4188 -2.1227
 5869TIP3   OH217570   1.211   4.935   5.491 -0.1564 -0.0787 -0.1712
 5869TIP3    H117571   1.172   5.017   5.458 -1.3436 -1.5284 -2.6731
 5869TIP3    H217572   1.136   4.879   5.509  0.6420 -0.6180  1.7051
 5870TIP3   OH217573   3.470   1.484   1.255 -0.1282  0.4921  0.0688
 5870TIP3    H117574   3.517   1.441   1.184 -2.0226  0.5624 -1.3096
 5870TIP3    H217575   3.512   1.453   1.335  1.1378 -0.7289 -1.0272
 5871TIP3   OH217576   4.816   4.444   5.567 -0.9561  0.1081  0.1797
 5871TIP3    H117577   4.884   4.454   5.634 -1.4259 -1.3540  0.9038
 5871TIP3    H217578   4.856   4.478   5.487  1.4855 -2.7254  0.0461
 5872TIP3   OH217579   2.509   0.882   3.779  0.8156  0.4597  0.8771
 5872TIP3    H117580   2.528   0.882   3.873  0.0143  1.6425  1.0526
 5872TIP3    H217581   2.564   0.812   3.744 -1.4717 -2.5357  2.7292
 5873TIP3   OH217582   1.868   2.600   1.429  0.4357  0.0797 -0.5494
 5873TIP3    H117583   1.801   2.532   1.419  0.7722 -0.2254 -0.7427
 5873TIP3    H217584   1.949   2.552   1.446  0.1946  0.4921  2.3248
 5874TIP3   OH217585   0.745   3.162   1.881 -0.1437 -0.1080  0.3047
 5874TIP3    H117586   0.719   3.232   1.941  0.8601  1.7381 -1.3075
 5874TIP3    H217587   0.671   3.152   1.821 -1.6736 -2.8095  2.4167
 5875TIP3   OH217588   4.875   4.012   3.232 -0.2146 -0.1320 -0.2685
 5875TIP3    H117589   4.861   4.020   3.326 -0.7410  0.6146 -0.4031
 5875TIP3    H217590   4.792   3.980   3.198  0.0007 -0.4820 -0.4771
 5876TIP3   OH217591   6.531   3.479   3.267  0.3354 -0.2221 -0.3478
 5876TIP3    H117592   6.510   3.475   3.174 -0.2241  1.6418 -0.3440
 5876TIP3    H217593   6.627   3.479   3.271  0.3833 -1.6260 -0.8016
 5877TIP3   OH217594   1.830   2.874   1.367  0.2874 -0.2260  0.0500
 5877TIP3    H117595   1.846   2.781   1.381 -3.1087 -0.7681  1.3526
 5877TIP3    H217596   1.804   2.881   1.274  0.0609 -0.6909  0.0778
 5878TIP3   OH217597   3.104   4.779   2.337 -1.0636 -0.7476  0.5520
 5878TIP3    H117598   3.128   4.763   2.428  0.1604 -2.0218  0.0332
 5878TIP3    H217599   3.174   4.836   2.304 -2.7330  1.7106  0.9963
 5879TIP3   OH217600   1.601   2.655   0.980 -0.3050 -0.8459 -0.2277
 5879TIP3    H117601   1.585   2.740   1.021  0.1935  0.2142 -2.1204
 5879TIP3    H217602   1.608   2.594   1.054 -1.5195  0.5847  1.1366
 5880TIP3   OH217603   1.578   4.981   5.735  0.0444 -0.4273 -0.0742
 5880TIP3    H117604   1.617   5.068   5.740  0.3854 -0.6485  2.5386
 5880TIP3    H217605   1.649   4.925   5.702  0.4201 -0.0051  0.0072
 5881TIP3   OH217606   0.621   6.573   3.294 -0.1196  0.3978  0.4094
 5881TIP3    H117607   0.597   6.558   3.385  0.1944 -0.8860  0.3162
 5881TIP3    H217608   0.658   6.661   3.292 -0.2046  0.4650  1.5049
 5882TIP3   OH217609   6.928   3.500   1.903  0.3274 -0.0741  0.6116
 5882TIP3    H117610   6.849   3.514   1.850  0.1586 -1.4627  0.4620
 5882TIP3    H217611   6.951   3.408   1.888  1.9032  0.2737  0.7647
 5883TIP3   OH217612   2.325   0.735   2.696  0.1882  0.0678 -0.5498
 5883TIP3    H117613   2.417   0.753   2.677  0.5982 -1.8623 -0.6059
 5883TIP3    H217614   2.296   0.680   2.623 -1.0640  0.7405 -0.5855
 5884TIP3   OH217615   4.163   1.762   3.659 -0.0451  0.2679 -0.4601
 5884TIP3    H117616   4.250   1.723   3.651  0.1009  0.9023 -2.2430
 5884TIP3    H217617   4.153   1.818   3.582 -1.3381  1.6216  0.6180
 5885TIP3   OH217618   3.886   1.058   5.112 -0.1396  0.2300  0.6128
 5885TIP3    H117619   3.832   1.122   5.066  0.3997 -0.9812 -1.8608
 5885TIP3    H217620   3.962   1.109   5.142  0.9387  0.6467 -2.4672
 5886TIP3   OH217621   6.971   5.164   0.407 -0.7235 -0.1222  0.2008
 5886TIP3    H117622   6.934   5.093   0.460 -1.7482  0.6564  0.5544
 5886TIP3    H217623   6.988   5.234   0.470 -1.6943  0.7117 -0.4391
 5887TIP3   OH217624   0.897   3.650   3.005  0.2483  0.2176 -0.2028
 5887TIP3    H117625   0.899   3.638   2.910 -0.0771  1.7889 -0.4400
 5887TIP3    H217626   0.875   3.742   3.017  0.2946  0.0509  1.4094
 5888TIP3   OH217627   2.795   2.587   1.384  0.2144  0.5362 -0.1041
 5888TIP3    H117628   2.791   2.665   1.439 -1.7271  0.9941 -0.8201
 5888TIP3    H217629   2.851   2.612   1.310  2.4665  0.0574  1.3353
 5889TIP3   OH217630   2.836   4.494   2.407 -0.4448  0.6852 -0.7752
 5889TIP3    H117631   2.873   4.421   2.458 -2.3726  0.0135 -0.2437
 5889TIP3    H217632   2.856   4.572   2.460 -0.6064  0.2249 -0.0091
 5890TIP3   OH217633   0.240   4.098   2.358  0.4591  0.5036  0.2752
 5890TIP3    H117634   0.220   4.169   2.298 -1.3138  0.1201  0.3569
 5890TIP3    H217635   0.264   4.025   2.302 -0.1380  0.4556  0.0823
 5891TIP3   OH217636   5.893   6.180   5.173 -0.0584  0.6868  0.1779
 5891TIP3    H117637   5.819   6.141   5.126  0.0151  0.7778 -0.0142
 5891TIP3    H217638   5.955   6.108   5.183 -0.3920  0.4780  0.7991
 5892TIP3   OH217639   0.273   6.605   5.263  0.4723  0.5066 -0.7502
 5892TIP3    H117640   0.254   6.658   5.340 -0.1978  0.1077 -0.6396
 5892TIP3    H217641   0.369   6.601   5.259  0.5366 -1.0208  1.1267
 5893TIP3   OH217642   2.230   3.700   2.559  0.4086 -0.4574  0.0829
 5893TIP3    H117643   2.136   3.686   2.551  0.2954  0.0404  0.4778
 5893TIP3    H217644   2.252   3.755   2.483 -0.1401  1.7937  1.4573
 5894TIP3   OH217645   0.612   3.432   4.847  0.4660 -0.1986  0.2159
 5894TIP3    H117646   0.534   3.485   4.828 -0.0231 -0.7495  0.6859
 5894TIP3    H217647   0.684   3.495   4.841 -0.2088  0.8015  1.9343
 5895TIP3   OH217648   4.002   0.889   3.519  0.0435  0.1876 -0.0087
 5895TIP3    H117649   3.984   0.982   3.532 -0.3192  0.1701 -0.3746
 5895TIP3    H217650   3.917   0.846   3.530 -0.3884  0.1962 -2.6368
 5896TIP3   OH217651   0.432   6.611   3.979  0.3057 -0.5619 -0.0913
 5896TIP3    H117652   0.355   6.565   4.012 -0.8764  0.8841 -0.7358
 5896TIP3    H217653   0.472   6.548   3.918 -0.5638 -1.1944 -0.0296
 5897TIP3   OH217654   7.111   5.860   5.828 -0.4473  0.4369  0.7685
 5897TIP3    H117655   7.117   5.778   5.877  0.7725 -0.6949 -1.1420
 5897TIP3    H217656   7.023   5.893   5.846 -0.5700 -0.7116  2.4428
 5898TIP3   OH217657   2.462   4.707   2.648 -0.1849 -0.4993  0.1781
 5898TIP3    H117658   2.446   4.622   2.688  1.8900 -0.6399  0.7997
 5898TIP3    H217659   2.374   4.742   2.630 -1.2264 -1.0304  3.5186
 5899TIP3   OH217660   1.931   3.246   0.654  0.1030 -0.0810 -0.1344
 5899TIP3    H117661   1.920   3.316   0.718 -1.0002 -0.8458  0.5375
 5899TIP3    H217662   1.843   3.231   0.620  0.5098 -0.4086 -1.0710
 5900TIP3   OH217663   4.039   3.426   2.465  0.1327 -0.0845  0.0422
 5900TIP3    H117664   4.023   3.437   2.371  0.0287 -2.4369 -0.2815
 5900TIP3    H217665   4.084   3.506   2.491  1.2462  0.1319 -2.2678
 5901TIP3   OH217666   1.078   3.437   2.299  0.5318  0.4374 -0.4863
 5901TIP3    H117667   1.057   3.421   2.392  0.9400 -1.0219 -0.6220
 5901TIP3    H217668   1.105   3.528   2.297  1.2244  0.3029  0.9778
 5902TIP3   OH217669   6.390   5.293   5.789 -0.7097 -0.0757 -0.4741
 5902TIP3    H117670   6.361   5.225   5.728 -0.1249  0.5743 -1.5084
 5902TIP3    H217671   6.360   5.375   5.750 -3.5077  0.1992  1.9373
 5903TIP3   OH217672   2.851   0.601   0.324 -0.1858 -0.7531 -0.1919
 5903TIP3    H117673   2.814   0.557   0.400  0.5102  0.7621  1.0919
 5903TIP3    H217674   2.795   0.678   0.312  2.3931  1.6802  1.8992
 5904TIP3   OH217675   2.726   0.496   1.065 -0.1226  0.0091 -0.2682
 5904TIP3    H117676   2.648   0.547   1.045  0.1460  1.2428  1.5373
 5904TIP3    H217677   2.734   0.434   0.993 -2.7905 -0.1900 -0.5020
 5905TIP3   OH217678   6.248   0.387   2.449  0.5759  0.2481 -0.2480
 5905TIP3    H117679   6.169   0.440   2.441  0.2004 -0.3729 -0.7529
 5905TIP3    H217680   6.265   0.383   2.543 -1.0797 -1.1798  0.0266
 5906TIP3   OH217681   1.929   4.077   5.721  0.0647 -0.0716  0.9298
 5906TIP3    H117682   1.883   3.999   5.751  1.0174 -1.0781 -0.1360
 5906TIP3    H217683   1.904   4.086   5.629  0.5783  0.4179  0.8320
 5907TIP3   OH217684   6.898   5.817   0.967 -0.1989 -0.4635  0.4417
 5907TIP3    H117685   6.913   5.862   1.050 -0.0374  0.0494  0.1344
 5907TIP3    H217686   6.983   5.816   0.923 -0.2204 -0.9774  0.3946
 5908TIP3   OH217687   2.149   5.405   2.438  0.0148 -0.0285 -0.4399
 5908TIP3    H117688   2.081   5.407   2.370 -1.2407  0.6063  0.7835
 5908TIP3    H217689   2.143   5.318   2.476  0.7145 -0.3821 -1.0988
 5909TIP3   OH217690   0.971   5.035   3.465  0.5896  0.4243  0.5138
 5909TIP3    H117691   0.989   4.986   3.545 -1.2832 -2.4222 -0.6553
 5909TIP3    H217692   1.019   4.989   3.397  0.1516  1.2697 -0.4026
 5910TIP3   OH217693   3.351   5.240   0.349 -0.1544 -0.2537  0.1304
 5910TIP3    H117694   3.436   5.283   0.339  0.2157 -1.0122 -0.0799
 5910TIP3    H217695   3.357   5.162   0.294 -0.9086 -0.4361  0.2909
 5911TIP3   OH217696   5.071   1.147   3.820 -0.1339 -0.2726  0.2622
 5911TIP3    H117697   5.146   1.205   3.830  0.3629 -0.5611 -1.4874
 5911TIP3    H217698   5.091   1.072   3.877 -0.0882  0.5794  1.3904
 5912TIP3   OH217699   6.220   2.861   1.580  0.7538  0.0851 -0.7122
 5912TIP3    H117700   6.186   2.817   1.501 -0.9228  0.5611 -0.3058
 5912TIP3    H217701   6.247   2.947   1.549  4.2442 -1.1572 -1.5522
 5913TIP3   OH217702   2.797   0.009   4.986 -0.5431 -0.1139  0.7334
 5913TIP3    H117703   2.792   0.074   5.056 -0.0663 -0.1662  0.8147
 5913TIP3    H217704   2.882  -0.033   4.997  0.1134  0.7852 -0.6968
 5914TIP3   OH217705   3.495   5.309   5.266 -0.0205 -0.3396 -0.3654
 5914TIP3    H117706   3.584   5.310   5.302 -0.3554  1.9046  0.5989
 5914TIP3    H217707   3.506   5.338   5.175  0.1060  2.6163  0.4616
 5915TIP3   OH217708   0.677   3.087   2.252 -0.1996  0.0784  0.1393
 5915TIP3    H117709   0.692   3.074   2.346 -0.5040 -0.8963  0.0729
 5915TIP3    H217710   0.756   3.052   2.211  0.1326  0.9273  0.0431
 5916TIP3   OH217711   3.819   1.169   4.719  0.6574 -0.7736 -0.1416
 5916TIP3    H117712   3.792   1.216   4.798 -0.7047  0.0165 -1.0301
 5916TIP3    H217713   3.775   1.085   4.724 -1.9931  0.4330 -1.4835
 5917TIP3   OH217714   1.173   0.282   3.988 -0.0650 -0.4279  0.3217
 5917TIP3    H117715   1.231   0.215   3.953 -2.2165 -2.0588 -0.3670
 5917TIP3    H217716   1.231   0.351   4.021  2.2646 -2.7849  1.4141
 5918TIP3   OH217717   4.145   3.156   5.750  0.1963  0.1661  0.4154
 5918TIP3    H117718   4.102   3.083   5.705 -0.2650  0.9285 -0.4205
 5918TIP3    H217719   4.083   3.183   5.817  0.2205  0.0073  0.5025
 5919TIP3   OH217720   2.121   5.147   2.133 -0.0156  0.2458  0.4659
 5919TIP3    H117721   2.070   5.071   2.163 -0.4547  0.5697  0.5612
 5919TIP3    H217722   2.100   5.155   2.040 -1.1334  1.1201  0.7673
 5920TIP3   OH217723   5.002   0.577   3.822  0.0501 -0.3474  0.0769
 5920TIP3    H117724   4.974   0.666   3.803  0.9307  0.0358  0.5145
 5920TIP3    H217725   4.930   0.522   3.792  0.1175  0.4075 -1.6054
 5921TIP3   OH217726   2.407   0.331   1.822 -0.1568  0.3424 -0.0787
 5921TIP3    H117727   2.417   0.294   1.735 -0.1491 -0.0598  0.0934
 5921TIP3    H217728   2.476   0.397   1.829  0.2536 -0.0803 -0.1328
 5922TIP3   OH217729   6.921   4.777   4.790  0.6407 -0.3245  0.0323
 5922TIP3    H117730   6.939   4.857   4.839  0.5166 -0.2229 -0.0888
 5922TIP3    H217731   7.006   4.735   4.781  0.9130  0.4195 -1.0037
 5923TIP3   OH217732   4.477   1.700   5.117 -0.3873  0.3408 -0.0432
 5923TIP3    H117733   4.545   1.672   5.055 -0.2717  0.6220 -0.0431
 5923TIP3    H217734   4.526   1.740   5.189 -0.3783 -1.5726  1.1060
 5924TIP3   OH217735   0.540   1.317   5.501 -0.1932 -0.1526  0.2605
 5924TIP3    H117736   0.515   1.225   5.507  2.9473 -1.1389  0.2693
 5924TIP3    H217737   0.569   1.328   5.410  0.1692  0.6062  0.4565
 5925TIP3   OH217738   5.566   4.164   3.801  0.3563 -0.5719 -0.2010
 5925TIP3    H117739   5.635   4.189   3.864 -0.9178  0.5562  0.8049
 5925TIP3    H217740   5.544   4.074   3.824 -1.2815  0.3529  2.1882
 5926TIP3   OH217741   1.783   5.439   1.247  0.0746  0.1096 -0.2946
 5926TIP3    H117742   1.822   5.404   1.327  0.9716  0.2199 -0.6669
 5926TIP3    H217743   1.835   5.517   1.227  0.0744 -0.0990 -1.1608
 5927TIP3   OH217744   6.181   4.292   0.643 -0.4024 -0.3132 -0.2587
 5927TIP3    H117745   6.239   4.307   0.718 -0.0594 -4.1107  0.4542
 5927TIP3    H217746   6.239   4.259   0.574 -1.2453 -0.8812 -0.7162
 5928TIP3   OH217747   5.272   1.973   1.476  0.2052  0.0291  0.0289
 5928TIP3    H117748   5.216   2.051   1.469  1.1114  0.6400 -0.6078
 5928TIP3    H217749   5.254   1.939   1.564  1.1577  2.0341  1.0801
 5929TIP3   OH217750   2.843   2.319   2.191 -0.1889 -0.0939 -0.1759
 5929TIP3    H117751   2.923   2.328   2.243 -0.5978  2.1632  0.1622
 5929TIP3    H217752   2.773   2.313   2.255 -0.5068  0.3621 -0.4807
 5930TIP3   OH217753   3.521   0.475   2.573  0.4038  0.1725  0.6077
 5930TIP3    H117754   3.602   0.454   2.527  2.1361  0.6025  3.2630
 5930TIP3    H217755   3.473   0.391   2.577  1.4487 -0.4499  0.3555
 5931TIP3   OH217756   6.030   0.904   0.545  0.0136 -0.5291 -0.3111
 5931TIP3    H117757   5.943   0.865   0.538  0.1102 -0.7842 -0.1293
 5931TIP3    H217758   6.013   0.998   0.547 -0.3286 -0.5916  0.5218
 5932TIP3   OH217759   3.748   1.982   5.512 -0.0756 -0.3462 -0.2741
 5932TIP3    H117760   3.692   2.001   5.587  0.1326 -0.9342  0.0416
 5932TIP3    H217761   3.747   1.886   5.505 -0.0275 -0.3065 -0.9725
 5933TIP3   OH217762   0.491   3.590   2.269  0.4441 -0.2504  0.4718
 5933TIP3    H117763   0.422   3.649   2.241 -0.0529 -0.5634  1.0224
 5933TIP3    H217764   0.571   3.629   2.234  0.2544  1.2771  1.6226
 5934TIP3   OH217765   0.088   0.189   4.821 -0.5508  0.6597  0.0114
 5934TIP3    H117766   0.125   0.109   4.859 -0.0520  0.4184 -0.9470
 5934TIP3    H217767   0.094   0.176   4.726 -1.1758  1.5137 -0.1639
 5935TIP3   OH217768   6.441   5.773   1.700 -0.3163  0.2332 -0.2256
 5935TIP3    H117769   6.465   5.736   1.614  0.6498  1.4562 -0.5145
 5935TIP3    H217770   6.345   5.773   1.700 -0.3486 -1.0586 -0.7205
 5936TIP3   OH217771   1.941   5.476   4.517  0.0633 -0.3350  0.3544
 5936TIP3    H117772   1.889   5.532   4.575 -0.1120  0.7227 -0.7682
 5936TIP3    H217773   2.002   5.431   4.575 -0.5206  0.2082  1.4229
 5937TIP3   OH217774   0.658   3.252   2.872  0.0315 -0.2055  0.0866
 5937TIP3    H117775   0.619   3.222   2.954 -0.5906  2.6564  0.9732
 5937TIP3    H217776   0.749   3.272   2.894 -0.4728  1.8585  0.5449
 5938TIP3   OH217777   1.256   6.618   3.685 -0.0163  0.3963 -0.3492
 5938TIP3    H117778   1.285   6.600   3.595  0.9658  0.7938 -0.1175
 5938TIP3    H217779   1.336   6.636   3.733 -0.6340  1.4527  0.3246
 5939TIP3   OH217780   4.336   4.218   3.514 -0.4916  0.0920 -0.2349
 5939TIP3    H117781   4.256   4.244   3.559 -0.1020  0.4923  0.2394
 5939TIP3    H217782   4.386   4.299   3.504 -0.0301 -0.1913 -0.2992
 5940TIP3   OH217783   5.305   2.701   4.590  0.3831  0.5238  0.1877
 5940TIP3    H117784   5.320   2.611   4.562  0.8867  0.8615 -0.7108
 5940TIP3    H217785   5.332   2.703   4.682  0.5785 -0.1888  0.1525
 5941TIP3   OH217786   5.206   4.246   5.460 -0.5986 -0.2318 -0.4658
 5941TIP3    H117787   5.191   4.178   5.394  0.8162 -2.2188  1.1416
 5941TIP3    H217788   5.137   4.232   5.525  0.5408 -1.1404  0.5941
 5942TIP3   OH217789   4.366   1.825   0.931 -0.7056  0.1019  0.3143
 5942TIP3    H117790   4.345   1.805   0.840 -4.4067  0.1946  1.0129
 5942TIP3    H217791   4.348   1.918   0.940  1.0156  0.4166  0.8673
 5943TIP3   OH217792   2.223   4.482   4.639  0.6847 -0.0432 -0.6391
 5943TIP3    H117793   2.247   4.566   4.678  0.6202  0.5000 -1.7165
 5943TIP3    H217794   2.133   4.495   4.608  0.9321 -0.2443 -1.4796
 5944TIP3   OH217795   3.346   3.511   1.010  0.3132 -0.6995 -0.8262
 5944TIP3    H117796   3.362   3.421   1.038  3.0420  0.1017  0.5085
 5944TIP3    H217797   3.428   3.557   1.028 -0.8434  1.9789 -1.8736
 5945TIP3   OH217798   1.143   1.544   1.145 -0.2851  0.0580  0.2494
 5945TIP3    H117799   1.164   1.637   1.152 -1.0113  0.1235  2.0332
 5945TIP3    H217800   1.087   1.538   1.067 -2.2014  1.5303  1.4234
 5946TIP3   OH217801   0.791   0.258   1.802 -0.9754  0.0155  0.1796
 5946TIP3    H117802   0.835   0.269   1.886  1.9884 -0.5095 -1.1571
 5946TIP3    H217803   0.848   0.199   1.753 -2.6980  0.1258 -2.1482
 5947TIP3   OH217804   0.030   6.407   1.472 -0.3570 -0.4580 -0.4581
 5947TIP3    H117805   0.118   6.429   1.443 -0.3604 -0.9670 -0.8793
 5947TIP3    H217806   0.010   6.471   1.540  0.9634 -1.3060  0.8013
 5948TIP3   OH217807   5.350   1.578   3.415 -0.5001  0.4090  0.2372
 5948TIP3    H117808   5.318   1.668   3.417  1.9560  1.3703  2.8159
 5948TIP3    H217809   5.375   1.563   3.324 -0.6612  2.4544 -0.1810
 5949TIP3   OH217810   2.438   1.922   5.627  0.5669 -0.3716  0.1767
 5949TIP3    H117811   2.518   1.878   5.598 -0.6183 -1.1650 -2.1746
 5949TIP3    H217812   2.386   1.932   5.547 -1.6197  0.2532  1.5799
 5950TIP3   OH217813   4.583   5.623   3.985  0.1014  0.3420 -0.5598
 5950TIP3    H117814   4.508   5.586   4.032 -0.8146  0.8205 -1.6145
 5950TIP3    H217815   4.658   5.570   4.015 -0.5520  0.1602  0.8708
 5951TIP3   OH217816   2.332   5.509   5.037  0.0632 -0.4591 -0.0694
 5951TIP3    H117817   2.399   5.575   5.022  0.0226 -0.3569  0.1980
 5951TIP3    H217818   2.365   5.458   5.111 -0.7276  0.3603  0.8748
 5952TIP3   OH217819   6.368   1.066   5.393 -0.2734 -0.1580  0.0594
 5952TIP3    H117820   6.351   1.093   5.484 -0.5442  0.6972 -0.2392
 5952TIP3    H217821   6.444   1.008   5.400 -1.5027 -1.7275  1.0720
 5953TIP3   OH217822   2.453   2.451   3.532 -0.2356 -0.0322 -0.7526
 5953TIP3    H117823   2.424   2.542   3.528  1.2949  0.5213 -0.1749
 5953TIP3    H217824   2.410   2.416   3.610 -0.7206  0.2484 -0.8937
 5954TIP3   OH217825   6.456   4.133   1.614 -0.1378 -0.5918  0.4962
 5954TIP3    H117826   6.520   4.062   1.619 -0.5223 -0.8884  1.2577
 5954TIP3    H217827   6.429   4.148   1.704 -1.2978 -0.6088  0.1669
 5955TIP3   OH217828   2.683   6.055   3.833  0.1588  0.0684  0.0907
 5955TIP3    H117829   2.711   6.141   3.864  1.3473  0.3389 -1.5960
 5955TIP3    H217830   2.651   6.071   3.744 -2.1331 -0.8413  0.6609
 5956TIP3   OH217831   6.338   6.260   5.078  0.1472 -0.1341  0.5215
 5956TIP3    H117832   6.283   6.237   5.003 -0.0018 -2.1883  1.1894
 5956TIP3    H217833   6.277   6.301   5.140 -0.7653 -2.4894  1.3029
 5957TIP3   OH217834   0.899   3.419   0.915 -0.4802 -0.0097  0.2978
 5957TIP3    H117835   0.837   3.424   0.988 -1.8365 -0.9812 -0.7471
 5957TIP3    H217836   0.893   3.505   0.873 -0.5669  0.1517  0.6357
 5958TIP3   OH217837   1.390   0.448   4.025 -0.1194 -0.3830 -0.1120
 5958TIP3    H117838   1.369   0.524   4.080  0.7715 -0.8956  0.9677
 5958TIP3    H217839   1.451   0.483   3.959  1.0048 -0.3111  0.9243
 5959TIP3   OH217840   7.167   1.972   3.887 -0.2391  0.5230 -0.4609
 5959TIP3    H117841   7.233   2.041   3.896  0.4044  0.2974 -2.8798
 5959TIP3    H217842   7.097   2.013   3.836 -1.2435  0.2574  0.6698
 5960TIP3   OH217843   4.313   1.749   1.487 -0.1805  0.4942 -0.0808
 5960TIP3    H117844   4.329   1.655   1.474  0.3692  0.4740  0.6629
 5960TIP3    H217845   4.353   1.791   1.410 -3.9828 -0.0804 -2.6729
 5961TIP3   OH217846   3.538   5.888   0.710 -0.3273 -0.4199 -0.2901
 5961TIP3    H117847   3.632   5.900   0.702 -0.0210 -0.8999  1.9978
 5961TIP3    H217848   3.501   5.946   0.643  1.5387  0.7386 -0.3937
 5962TIP3   OH217849   7.043   1.814   0.066  0.3548  0.0599  0.2520
 5962TIP3    H117850   7.026   1.907   0.051  3.1677  0.8444  1.2780
 5962TIP3    H217851   7.089   1.785  -0.014  1.5350  0.2158  0.8431
 5963TIP3   OH217852   2.575   3.784   3.319  0.5009 -0.7330 -0.0524
 5963TIP3    H117853   2.539   3.737   3.244  0.1925  0.7297 -0.8663
 5963TIP3    H217854   2.632   3.851   3.280  0.0267  0.3113  0.9837
 5964TIP3   OH217855   5.983   2.179   5.538  0.6861  0.6873  0.0584
 5964TIP3    H117856   6.000   2.117   5.608 -0.6142  0.7846  0.4951
 5964TIP3    H217857   6.037   2.255   5.559  4.9551 -1.3469 -2.2398
 5965TIP3   OH217858   6.505   0.988   4.670 -0.4482 -0.2411  0.3618
 5965TIP3    H117859   6.589   1.034   4.674  0.1902 -1.4346  1.1910
 5965TIP3    H217860   6.454   1.038   4.606  1.3583 -0.2399 -1.1833
 5966TIP3   OH217861   4.723   2.559   0.667 -0.2158 -0.4821 -0.3165
 5966TIP3    H117862   4.644   2.603   0.700  0.3274  1.0628 -0.9508
 5966TIP3    H217863   4.690   2.497   0.602 -0.9229  0.3961 -0.8283
 5967TIP3   OH217864   5.325   4.783   0.799 -0.6839 -0.0552 -0.3297
 5967TIP3    H117865   5.377   4.718   0.848 -0.4073  0.4677  0.0850
 5967TIP3    H217866   5.237   4.774   0.834 -0.4770  0.3555  0.3291
 5968TIP3   OH217867   6.391   3.955   0.049  0.2917  0.5459  0.1031
 5968TIP3    H117868   6.389   3.879  -0.009  0.7800  1.8081 -1.6746
 5968TIP3    H217869   6.313   4.005   0.026  0.0456  0.6633  1.1487
 5969TIP3   OH217870   0.375   4.196   2.958  0.3123  0.1701 -0.1654
 5969TIP3    H117871   0.449   4.136   2.947  1.4225  1.3983  0.3193
 5969TIP3    H217872   0.374   4.217   3.051 -1.2516 -0.5390  0.0041
 5970TIP3   OH217873   6.570   2.455   5.346 -0.1882 -0.2950  0.0726
 5970TIP3    H117874   6.547   2.437   5.254 -0.0399  0.7589 -0.1821
 5970TIP3    H217875   6.607   2.543   5.345  1.2089 -0.8361  0.9252
 5971TIP3   OH217876   5.697   2.599   0.335  0.4578  0.0127  0.6192
 5971TIP3    H117877   5.748   2.523   0.307  1.3788  1.0617 -0.6794
 5971TIP3    H217878   5.758   2.672   0.332 -0.6753  1.0019  0.7825
 5972TIP3   OH217879   5.717   5.151   1.639 -0.3277 -0.0114  0.0012
 5972TIP3    H117880   5.628   5.182   1.648  0.7927  3.6806 -0.1569
 5972TIP3    H217881   5.727   5.132   1.546 -0.5851  0.8584 -0.2094
 5973TIP3   OH217882   7.112   3.692   1.849 -0.4832 -0.2365 -0.2480
 5973TIP3    H117883   7.100   3.786   1.841 -0.1650 -0.1754 -0.0249
 5973TIP3    H217884   7.030   3.660   1.887  0.1879  0.2352  1.6971
 5974TIP3   OH217885   3.444   5.344   1.806  0.1492  0.5985  0.1633
 5974TIP3    H117886   3.480   5.427   1.775 -1.9499  0.8260 -1.9274
 5974TIP3    H217887   3.354   5.343   1.774  0.3695 -2.8864 -0.7949
 5975TIP3   OH217888   2.796   1.042   5.289  0.1266 -0.4462 -0.1107
 5975TIP3    H117889   2.752   1.078   5.366 -0.4381 -1.7908  0.2199
 5975TIP3    H217890   2.817   1.118   5.236 -0.1590  0.4457  1.0119
 5976TIP3   OH217891   2.139   1.316   1.993 -0.4665  0.4958 -0.2667
 5976TIP3    H117892   2.147   1.258   2.069 -1.2232 -0.5545 -0.9783
 5976TIP3    H217893   2.169   1.264   1.919  0.2571  1.5106 -0.7151
 5977TIP3   OH217894   0.289   5.127   0.268  0.2905 -0.0224  0.0901
 5977TIP3    H117895   0.358   5.154   0.208 -1.0577  0.2436 -1.4181
 5977TIP3    H217896   0.261   5.041   0.236  0.5268 -0.5551  1.2502
 5978TIP3   OH217897   3.977   4.008   4.549 -0.0277 -0.5449  0.8554
 5978TIP3    H117898   3.888   4.033   4.574 -0.1697 -0.0311 -0.1173
 5978TIP3    H217899   3.979   3.913   4.560 -1.4405 -0.8855 -1.2990
 5979TIP3   OH217900   5.759   4.203   3.044  0.1707  0.1181  0.0026
 5979TIP3    H117901   5.727   4.182   3.132 -0.2243 -0.7822 -0.3372
 5979TIP3    H217902   5.719   4.136   2.988  2.1161 -0.6620 -0.5411
 5980TIP3   OH217903   6.140   2.640   0.804  0.2501 -0.1849  0.0843
 5980TIP3    H117904   6.136   2.722   0.853 -0.0297  0.0922 -0.3986
 5980TIP3    H217905   6.133   2.666   0.712  0.0022 -0.7622 -0.0652
 5981TIP3   OH217906   5.008   3.880   4.577 -0.0421 -0.1667  0.5151
 5981TIP3    H117907   5.056   3.841   4.649  1.3254  1.3997  0.5160
 5981TIP3    H217908   4.963   3.955   4.616  1.4808  1.2777 -0.3522
 5982TIP3   OH217909   4.530   0.132   4.951 -0.1855 -0.4645 -1.0723
 5982TIP3    H117910   4.495   0.044   4.966 -1.1043  0.0926  0.3229
 5982TIP3    H217911   4.454   0.190   4.963  0.5486  0.5645 -1.2907
 5983TIP3   OH217912   6.893   3.769   4.088 -0.2665 -1.0119 -0.4553
 5983TIP3    H117913   6.960   3.781   4.156 -0.6348  0.2161 -0.2783
 5983TIP3    H217914   6.941   3.742   4.011  0.5195  0.3678 -0.4738
 5984TIP3   OH217915   2.577   5.386   1.287  0.8593 -0.7882  0.5339
 5984TIP3    H117916   2.492   5.389   1.243  0.3416 -0.0460  1.5527
 5984TIP3    H217917   2.621   5.467   1.260  1.3141 -1.2180 -0.0741
 5985TIP3   OH217918   6.500   1.931   2.855 -0.3706  0.6950 -0.0342
 5985TIP3    H117919   6.587   1.948   2.818 -0.0367 -1.0153 -0.1226
 5985TIP3    H217920   6.514   1.931   2.949 -0.3968  1.0120 -0.0299
 5986TIP3   OH217921   4.989   0.599   2.937  0.8002 -0.0279  0.0261
 5986TIP3    H117922   4.963   0.508   2.923 -0.2024  0.1286  0.7649
 5986TIP3    H217923   4.918   0.650   2.899  0.9595  0.4402  0.3541
 5987TIP3   OH217924   7.024   5.253   2.935  0.0555 -0.1117 -0.0256
 5987TIP3    H117925   7.035   5.345   2.960 -1.3017 -0.1972  1.0300
 5987TIP3    H217926   6.943   5.253   2.883 -0.2790 -0.7774  0.4784
 5988TIP3   OH217927   2.817   5.003   2.034 -0.3260  0.5244  0.2834
 5988TIP3    H117928   2.899   5.023   2.080  0.1332 -0.2105 -0.2000
 5988TIP3    H217929   2.779   5.089   2.016 -0.9344  0.8498  2.7205
 5989TIP3   OH217930   2.200   5.728   3.271  0.3608  0.0675 -0.2479
 5989TIP3    H117931   2.140   5.695   3.337  0.4267 -0.5709 -0.4983
 5989TIP3    H217932   2.155   5.803   3.232 -0.8988 -1.2401 -1.3971
 5990TIP3   OH217933   3.481   3.867   2.267  0.1313 -0.6005  0.0374
 5990TIP3    H117934   3.405   3.858   2.325  1.6257 -0.3615  2.1714
 5990TIP3    H217935   3.534   3.789   2.284  0.0667 -1.1319 -1.9635
 5991TIP3   OH217936   3.277   2.391   4.832  0.6039  0.3608 -0.0177
 5991TIP3    H117937   3.281   2.295   4.828 -1.0716  0.2917 -0.5513
 5991TIP3    H217938   3.367   2.417   4.851  1.2469 -1.2808 -0.5947
 5992TIP3   OH217939   3.432   0.315   4.814 -0.1841  0.2758 -0.2915
 5992TIP3    H117940   3.475   0.308   4.899  1.0001 -0.3048 -0.9277
 5992TIP3    H217941   3.424   0.410   4.800  2.1913  0.4546 -0.7829
 5993TIP3   OH217942   5.471   2.858   4.880  0.1775  0.6211 -0.6382
 5993TIP3    H117943   5.422   2.776   4.892 -1.2436  1.1994 -2.1014
 5993TIP3    H217944   5.404   2.926   4.879  1.1931  1.6491 -0.9915
 5994TIP3   OH217945   1.556   6.130   1.339 -0.2847  0.3244 -0.4468
 5994TIP3    H117946   1.644   6.159   1.365  0.1538 -0.6083 -0.8199
 5994TIP3    H217947   1.497   6.177   1.397  0.5808 -0.7865  1.4501
 5995TIP3   OH217948   5.754   1.583   1.256 -0.4473  0.2894  0.0448
 5995TIP3    H117949   5.736   1.500   1.214  0.2195  0.3790 -0.4391
 5995TIP3    H217950   5.769   1.644   1.184 -0.2363  0.6645  0.3981
 5996TIP3   OH217951   1.477   6.201   4.490 -0.7475  0.2520 -0.3393
 5996TIP3    H117952   1.543   6.249   4.540 -1.4763 -0.3719  1.2960
 5996TIP3    H217953   1.457   6.125   4.544 -1.6043 -0.4493 -1.5958
 5997TIP3   OH217954   4.615   4.124   5.391 -0.4714  1.2813  0.2552
 5997TIP3    H117955   4.676   4.166   5.330 -1.3962  0.7001 -1.1255
 5997TIP3    H217956   4.563   4.197   5.426 -0.9982  1.4961 -0.9080
 5998TIP3   OH217957   3.886   3.013   1.374  0.3257 -0.5517 -0.0355
 5998TIP3    H117958   3.822   2.969   1.431 -1.0237  2.7794  1.3164
 5998TIP3    H217959   3.832   3.055   1.306  1.1669  1.0765  0.2500
 5999TIP3   OH217960   5.104   1.083   4.440 -0.2410  0.0581  0.1007
 5999TIP3    H117961   5.181   1.027   4.426  0.5840  1.2089 -0.1370
 5999TIP3    H217962   5.032   1.036   4.397  0.5735 -0.4716 -0.7226
 6000TIP3   OH217963   0.576   1.273   4.275  0.8491  0.5385 -0.2386
 6000TIP3    H117964   0.537   1.185   4.274 -0.5934  1.1481 -0.4748
 6000TIP3    H217965   0.529   1.321   4.206  1.4144  1.5696  0.0752
 6001TIP3   OH217966   2.487   3.682   4.789 -0.4981  0.4582 -0.0611
 6001TIP3    H117967   2.578   3.695   4.818 -0.2594  0.3877 -0.7716
 6001TIP3    H217968   2.494   3.632   4.708 -1.3302 -3.0376  1.8164
 6002TIP3   OH217969   5.268   2.581   3.873 -0.2390  0.2513  0.0511
 6002TIP3    H117970   5.330   2.604   3.804 -1.2137  0.9046 -0.6431
 6002TIP3    H217971   5.204   2.652   3.872 -1.0623 -0.4603  0.6614
 6003TIP3   OH217972   3.751   3.465   2.454  0.0085  0.1113 -0.8591
 6003TIP3    H117973   3.772   3.549   2.495 -0.2502 -0.1826 -0.1052
 6003TIP3    H217974   3.829   3.411   2.467  0.0306  0.1048 -1.0091
 6004TIP3   OH217975   1.949   5.178   5.490 -0.0889 -0.0657 -0.0635
 6004TIP3    H117976   1.959   5.273   5.487 -0.6168 -0.0160 -0.7430
 6004TIP3    H217977   1.876   5.161   5.430  0.3412 -0.9428 -0.3477
 6005TIP3   OH217978   0.376   5.182   0.007 -0.0749  0.0106  0.6244
 6005TIP3    H117979   0.434   5.257   0.020  2.7074 -1.5413 -1.6107
 6005TIP3    H217980   0.288   5.220   0.003  0.9506  2.7849  1.9303
 6006TIP3   OH217981   7.104   0.176   3.213  0.4368  0.4500  0.4095
 6006TIP3    H117982   7.065   0.238   3.274  0.6920  1.3338 -0.3190
 6006TIP3    H217983   7.039   0.165   3.144  0.2306 -0.4020  0.7211
 6007TIP3   OH217984   4.868   2.100   2.768 -0.2117  0.2675 -0.0556
 6007TIP3    H117985   4.929   2.173   2.761 -0.8730  0.9166  0.8034
 6007TIP3    H217986   4.923   2.022   2.771  0.7496  0.9446  3.0230
 6008TIP3   OH217987   2.340   1.060   4.156  0.5745 -0.2507  0.5465
 6008TIP3    H117988   2.357   1.146   4.118  0.1931 -0.5170 -0.2584
 6008TIP3    H217989   2.378   0.998   4.093  0.0481 -0.6969  0.6550
 6009TIP3   OH217990   4.087   0.384   3.187  0.0298 -0.2278  0.0388
 6009TIP3    H117991   4.156   0.406   3.250 -0.5736 -0.6279  0.8658
 6009TIP3    H217992   4.054   0.468   3.157  2.2306  0.0440 -1.9686
 6010TIP3   OH217993   3.488   5.199   4.046  0.5423  0.5386  0.5015
 6010TIP3    H117994   3.537   5.240   4.118  0.8322  1.0501  0.0138
 6010TIP3    H217995   3.551   5.138   4.007  0.1629 -0.2802  1.1220
 6011TIP3   OH217996   1.426   4.037   3.953  0.3299  0.3315 -0.2597
 6011TIP3    H117997   1.387   4.115   3.913  0.5672 -0.0717 -1.3038
 6011TIP3    H217998   1.501   4.016   3.897  1.6072  0.6517  1.2867
 6012TIP3   OH217999   2.283   3.407   5.496 -0.5848 -0.2079  0.9342
 6012TIP3    H118000   2.233   3.487   5.511 -1.7320 -0.3252 -1.7391
 6012TIP3    H218001   2.373   3.436   5.489 -1.0512  0.9877 -0.5935
 6013TIP3   OH218002   4.950   1.082   4.680  0.1860 -0.4983  0.1944
 6013TIP3    H118003   4.868   1.107   4.639  0.6626  2.6946  0.9667
 6013TIP3    H218004   5.014   1.084   4.609  0.6554  3.1873  0.5270
 6014TIP3   OH218005   0.784   3.533   1.171 -0.0819  0.3055  0.2557
 6014TIP3    H118006   0.740   3.613   1.198  0.0600  0.7783 -0.8600
 6014TIP3    H218007   0.715   3.468   1.164 -0.4844  0.8016 -0.5669
 6015TIP3   OH218008   6.884   5.525   1.111 -0.0183 -0.2740 -0.0129
 6015TIP3    H118009   6.954   5.526   1.046  2.9712 -0.2646  2.9502
 6015TIP3    H218010   6.861   5.433   1.121 -0.2663 -0.3028 -0.8229
 6016TIP3   OH218011   2.063   1.272   4.660 -0.1105 -0.2184 -0.0197
 6016TIP3    H118012   2.114   1.196   4.686  0.3215  0.2626  0.5633
 6016TIP3    H218013   1.986   1.236   4.616 -1.6615 -1.1953  3.1676
 6017TIP3   OH218014   2.743   3.445   1.432 -0.0541 -0.1840  0.2971
 6017TIP3    H118015   2.794   3.391   1.372  0.5311  0.8724 -0.1628
 6017TIP3    H218016   2.652   3.434   1.403  0.1199 -0.4421 -0.1572
 6018TIP3   OH218017   7.173   3.329   0.659 -0.3842 -0.3961 -0.4351
 6018TIP3    H118018   7.133   3.412   0.687 -1.5132 -1.3512  0.9611
 6018TIP3    H218019   7.256   3.355   0.619 -0.3731  1.3664  0.5993
 6019TIP3   OH218020   4.254   1.563   1.854 -0.4028  0.1278  0.1745
 6019TIP3    H118021   4.335   1.512   1.862 -0.2656 -0.2971 -2.7325
 6019TIP3    H218022   4.211   1.554   1.939 -0.1205 -4.4638  0.0744
 6020TIP3   OH218023   3.527   0.062   4.386 -0.5911  0.0125  0.4424
 6020TIP3    H118024   3.475  -0.014   4.359  0.0656 -0.5892  0.8495
 6020TIP3    H218025   3.524   0.061   4.481 -0.0441  0.1176  0.4661
 6021TIP3   OH218026   1.862   0.765   1.932 -0.0314 -0.1945 -0.3932
 6021TIP3    H118027   1.860   0.687   1.988 -1.7903  0.3251  0.3491
 6021TIP3    H218028   1.833   0.836   1.990 -1.1792  0.5044 -1.7696
 6022TIP3   OH218029   0.604   3.174   3.126  0.2210 -0.2511  1.0662
 6022TIP3    H118030   0.555   3.093   3.112 -1.0467  0.7341 -0.5781
 6022TIP3    H218031   0.542   3.234   3.168 -0.2268  1.1154 -1.3172
 6023TIP3   OH218032   6.207   4.994   4.724 -0.3408  0.5701  0.0298
 6023TIP3    H118033   6.167   4.992   4.811  1.4303 -1.3570  0.8930
 6023TIP3    H218034   6.187   4.909   4.686 -0.8686  1.2894 -1.3980
 6024TIP3   OH218035   0.917   5.988   4.739 -0.2491 -0.7826  0.3288
 6024TIP3    H118036   0.922   6.052   4.668 -0.6119 -1.6598 -0.5010
 6024TIP3    H218037   0.828   5.952   4.733  0.1803 -1.8794  0.3259
 6025TIP3   OH218038   0.175   3.046   2.205  0.1564 -0.1000  0.2893
 6025TIP3    H118039   0.105   3.110   2.195 -0.8874 -1.1727  0.4785
 6025TIP3    H218040   0.182   3.003   2.119  1.6520  1.0100 -0.1957
 6026TIP3   OH218041   6.090   1.887   4.091  0.1664  0.1362  0.2907
 6026TIP3    H118042   6.072   1.922   4.004 -1.1093  0.9988  0.8681
 6026TIP3    H218043   6.140   1.807   4.075  0.6382  0.6819 -1.1897
 6027TIP3   OH218044   5.980   1.180   1.511 -0.1287  0.2430 -0.0363
 6027TIP3    H118045   5.996   1.236   1.435  0.8053  1.9013  1.3113
 6027TIP3    H218046   5.910   1.121   1.483  0.1685  0.8144 -2.1593
 6028TIP3   OH218047   2.688   1.187   1.723 -0.1787 -1.1502 -0.3819
 6028TIP3    H118048   2.765   1.242   1.707 -1.4451  0.4957 -1.1304
 6028TIP3    H218049   2.707   1.144   1.807  0.2771  1.6173  1.0633
 6029TIP3   OH218050   5.713   6.043   5.553 -0.0846 -0.3862 -0.5051
 6029TIP3    H118051   5.708   6.120   5.496  1.3494 -0.3668 -0.6439
 6029TIP3    H218052   5.668   5.974   5.503  0.7811 -0.2614 -1.4916
 6030TIP3   OH218053   5.225   1.973   3.191 -0.1669  0.0572 -0.3518
 6030TIP3    H118054   5.139   1.931   3.183  0.0969 -0.2564 -1.7921
 6030TIP3    H218055   5.234   2.024   3.110  0.2301  1.5755  0.6118
 6031TIP3   OH218056   7.043   2.066   1.132 -0.3741 -0.2052 -0.1313
 6031TIP3    H118057   6.979   2.067   1.203 -0.8446 -0.8830 -0.5296
 6031TIP3    H218058   7.018   2.138   1.075 -0.6248 -0.3027 -0.1454
 6032TIP3   OH218059   4.057   5.052   5.379  0.3989 -0.2788  0.5255
 6032TIP3    H118060   4.022   5.028   5.293  1.8036 -0.9829  0.1041
 6032TIP3    H218061   4.123   5.119   5.361 -2.2630  2.8849  1.5348
 6033TIP3   OH218062   2.601   5.540   0.392  0.0588  0.0361  0.5850
 6033TIP3    H118063   2.523   5.484   0.388 -0.4674  0.7967 -2.7133
 6033TIP3    H218064   2.669   5.489   0.350  0.4292  0.6487  0.4304
 6034TIP3   OH218065   5.284   0.653   5.682  0.2961 -0.0140 -0.5388
 6034TIP3    H118066   5.309   0.641   5.590 -0.5719 -1.6155 -0.5979
 6034TIP3    H218067   5.237   0.737   5.683 -2.5301 -1.4197 -2.2506
 6035TIP3   OH218068   2.839   3.668   0.391 -0.0295  0.2297  0.0365
 6035TIP3    H118069   2.756   3.637   0.427 -0.6034  0.8978 -0.6726
 6035TIP3    H218070   2.834   3.763   0.400  0.9118  0.2373  0.5147
 6036TIP3   OH218071   4.210   3.749   5.630  0.5107 -0.0768 -0.4402
 6036TIP3    H118072   4.290   3.741   5.578  1.3946  0.3934  0.7999
 6036TIP3    H218073   4.204   3.842   5.652  0.1687 -0.2657  0.3071
 6037TIP3   OH218074   3.232   0.566   3.283 -0.4312 -0.3067 -0.2156
 6037TIP3    H118075   3.309   0.545   3.335 -0.6878 -1.9204 -0.4470
 6037TIP3    H218076   3.222   0.661   3.291  2.0395  0.0660 -0.8470
 6038TIP3   OH218077   4.823   5.782   2.288  0.3253 -0.1550  0.1149
 6038TIP3    H118078   4.862   5.869   2.279  0.5326 -0.1908  0.6212
 6038TIP3    H218079   4.819   5.767   2.382 -0.5406 -0.3209  0.0646
 6039TIP3   OH218080   4.486   3.719   3.846 -0.3441  0.1272  0.1393
 6039TIP3    H118081   4.581   3.729   3.844 -0.4696  1.3170 -0.7495
 6039TIP3    H218082   4.461   3.745   3.934  0.1299  0.0443  0.3012
 6040TIP3   OH218083  -0.032   5.176   3.748  0.2070  0.3981  0.3487
 6040TIP3    H118084  -0.014   5.121   3.672 -1.4582  0.3419 -0.0409
 6040TIP3    H218085   0.051   5.181   3.794  0.3135 -3.1177  0.8227
 6041TIP3   OH218086   5.247   2.365   5.085  0.1502  0.5692  0.2302
 6041TIP3    H118087   5.175   2.308   5.114 -0.1090 -0.1172 -1.5887
 6041TIP3    H218088   5.266   2.420   5.160 -1.8669  0.3349  0.9797
 6042TIP3   OH218089   3.056   4.164   3.602 -0.5584 -0.2064 -0.1867
 6042TIP3    H118090   2.974   4.209   3.581  0.4089  0.4361 -3.1197
 6042TIP3    H218091   3.116   4.233   3.630 -0.8367 -0.6066  1.4668
 6043TIP3   OH218092   6.305   1.063   0.179  0.3080 -0.1888  0.4011
 6043TIP3    H118093   6.280   1.141   0.228 -1.9800  0.3008 -1.3620
 6043TIP3    H218094   6.395   1.081   0.152  0.6915  0.6993  2.0891
 6044TIP3   OH218095   6.164   1.272   0.322  0.3123 -0.2483 -0.3697
 6044TIP3    H118096   6.156   1.296   0.414  1.1505 -0.1210 -0.3233
 6044TIP3    H218097   6.123   1.345   0.275 -1.3330 -0.9279 -0.0765
 6045TIP3   OH218098   5.993   6.143   3.073 -0.1778 -0.2310 -0.5969
 6045TIP3    H118099   6.070   6.128   3.018  1.5390  1.6921  1.1256
 6045TIP3    H218100   5.950   6.219   3.034  0.7840  0.8479  0.3848
 6046TIP3   OH218101   6.001   3.726   4.046 -0.3089 -0.5237  0.2789
 6046TIP3    H118102   5.944   3.708   4.122 -1.4260  1.3890 -0.0389
 6046TIP3    H218103   5.950   3.696   3.971 -0.6814  0.6717  0.0376
 6047TIP3   OH218104   3.536   4.586   2.526 -0.4299 -0.7980  0.1316
 6047TIP3    H118105   3.478   4.514   2.500 -2.4913  0.5753  0.6901
 6047TIP3    H218106   3.503   4.661   2.477  0.9200  0.0511  0.4798
 6048TIP3   OH218107   2.720   5.438   2.985 -0.0640 -0.4731  0.5246
 6048TIP3    H118108   2.749   5.525   2.958  0.7363 -1.0667 -0.6003
 6048TIP3    H218109   2.761   5.425   3.071 -0.1846  0.2431  0.6992
 6049TIP3   OH218110   4.051   4.982   1.226  0.4992 -0.0311  0.1715
 6049TIP3    H118111   4.077   5.068   1.257 -1.1447 -0.0125  1.6713
 6049TIP3    H218112   4.047   4.928   1.305 -0.1103 -1.0220 -0.5075
 6050TIP3   OH218113   1.476   4.309   4.815  0.6236  0.3460  0.0490
 6050TIP3    H118114   1.526   4.227   4.823 -1.0865 -0.7893 -0.4215
 6050TIP3    H218115   1.516   4.355   4.742 -1.4289 -2.4310 -3.0921
 6051TIP3   OH218116   4.713   0.404   3.169 -0.0347 -0.2609  0.1723
 6051TIP3    H118117   4.709   0.499   3.165  2.4710 -0.0617  0.3175
 6051TIP3    H218118   4.748   0.385   3.256  0.2674 -1.2576 -0.1475
 6052TIP3   OH218119   4.423   2.664   1.896  0.1485 -0.0403  0.6891
 6052TIP3    H118120   4.432   2.590   1.837  0.4610  0.8779 -0.4563
 6052TIP3    H218121   4.365   2.725   1.849  0.6460  0.8417  1.1932
 6053TIP3   OH218122   0.698   3.740   3.524 -0.2134  0.1514 -0.2832
 6053TIP3    H118123   0.697   3.831   3.495 -0.2580  0.2706  0.0810
 6053TIP3    H218124   0.767   3.699   3.472 -1.5591 -0.1226 -1.9343
 6054TIP3   OH218125   2.092   3.059   1.372 -0.6679  0.0191  0.5472
 6054TIP3    H118126   2.030   3.026   1.307 -0.7691 -0.4957  0.8999
 6054TIP3    H218127   2.147   2.983   1.393  0.1058  0.4682  0.2158
 6055TIP3   OH218128   2.512   6.490   0.908 -0.1501  0.1041  0.1207
 6055TIP3    H118129   2.462   6.412   0.934  0.4204 -0.9680 -1.7445
 6055TIP3    H218130   2.446   6.553   0.880 -0.6313  0.3906  1.8317
 6056TIP3   OH218131   5.182   6.175   1.425 -0.5840 -0.0018  0.3471
 6056TIP3    H118132   5.190   6.081   1.409 -0.0990 -0.1950  1.6088
 6056TIP3    H218133   5.183   6.214   1.337  0.8223 -1.0616 -0.1520
 6057TIP3   OH218134   4.415   5.017   5.147  0.0304  0.0559 -0.7651
 6057TIP3    H118135   4.413   4.979   5.235  1.9522  0.4647 -0.4871
 6057TIP3    H218136   4.446   5.107   5.161 -2.1642  1.0096 -1.6264
 6058TIP3   OH218137   0.713   5.300   4.638 -0.2792 -0.7496  0.2426
 6058TIP3    H118138   0.751   5.367   4.581 -1.2561 -1.1821 -0.9581
 6058TIP3    H218139   0.749   5.320   4.724 -1.0675  1.7593  0.0889
 6059TIP3   OH218140   3.205   0.910   2.220  0.2647 -0.2956  0.5678
 6059TIP3    H118141   3.292   0.949   2.225  0.5549 -0.8683  0.0858
 6059TIP3    H218142   3.167   0.926   2.306  0.4785  0.7993  0.4820
 6060TIP3   OH218143   0.202   4.118   0.700  0.3640 -0.1802  0.3112
 6060TIP3    H118144   0.260   4.163   0.761  0.8019 -2.2216  1.4840
 6060TIP3    H218145   0.169   4.043   0.749  1.1018 -2.2041 -2.0851
 6061TIP3   OH218146   7.049   2.981   4.019 -0.3644  0.3901 -0.3310
 6061TIP3    H118147   6.995   3.028   4.082 -2.8500 -1.9004 -0.5725
 6061TIP3    H218148   7.080   2.904   4.067  1.3635  0.8232 -0.6968
 6062TIP3   OH218149   5.410   2.865   3.946 -0.1859  0.2026 -0.2894
 6062TIP3    H118150   5.325   2.883   3.986 -0.9469  0.6418 -2.0173
 6062TIP3    H218151   5.411   2.918   3.866  0.8623 -1.3780 -1.3721
 6063TIP3   OH218152   7.119   1.443   3.816  0.3761 -0.5175 -0.2976
 6063TIP3    H118153   7.086   1.506   3.752 -1.5596 -0.8570  0.3228
 6063TIP3    H218154   7.193   1.489   3.857  0.5312  0.3921 -1.5173
 6064TIP3   OH218155   2.911   3.278   0.754 -0.0759 -0.5787 -0.2398
 6064TIP3    H118156   2.908   3.193   0.710  0.8920 -0.2867 -0.8909
 6064TIP3    H218157   2.889   3.258   0.845  0.5846 -1.6109 -0.2879
 6065TIP3   OH218158   5.979   3.985   3.729  0.0634  0.0516 -0.2331
 6065TIP3    H118159   6.019   3.919   3.672  0.0735  0.6098 -0.8757
 6065TIP3    H218160   6.050   4.014   3.786  0.5167  0.8199 -1.1659
 6066TIP3   OH218161   5.162   5.074   4.537 -0.1774 -0.2120  0.5819
 6066TIP3    H118162   5.232   5.034   4.588 -0.5650 -1.5556  0.1037
 6066TIP3    H218163   5.153   5.017   4.460 -0.4363  1.0707 -0.3678
 6067TIP3   OH218164   4.690   5.355   3.162 -0.4136 -0.1997 -0.3567
 6067TIP3    H118165   4.736   5.426   3.117  1.6120 -0.0045  1.8656
 6067TIP3    H218166   4.660   5.394   3.244 -1.5861 -1.2681 -0.2499
 6068TIP3   OH218167   4.654   6.488   0.070  0.3975  0.2638  0.2355
 6068TIP3    H118168   4.639   6.396   0.050  2.8240 -0.2932  0.6669
 6068TIP3    H218169   4.632   6.534  -0.011 -0.4428 -0.7196 -0.1206
 6069TIP3   OH218170   2.272   0.095   0.078  0.1733  0.2332  0.1009
 6069TIP3    H118171   2.211   0.125   0.146 -1.0034 -0.8899 -0.4167
 6069TIP3    H218172   2.231   0.120  -0.004  0.8468  0.2458 -0.2359
 6070TIP3   OH218173   6.800   1.675   5.833 -0.0472 -0.2679  0.1371
 6070TIP3    H118174   6.784   1.589   5.794 -0.4733  0.0595 -0.4197
 6070TIP3    H218175   6.859   1.719   5.771 -0.3665  0.0863  0.0822
 6071TIP3   OH218176   2.601   1.197   1.182  0.6293 -0.1922  0.2537
 6071TIP3    H118177   2.656   1.174   1.257  0.3037 -0.0327  0.5465
 6071TIP3    H218178   2.563   1.282   1.206  0.8186  0.0425 -0.2565
 6072TIP3   OH218179   0.930   3.637   3.328 -0.0742  0.5279  0.4263
 6072TIP3    H118180   1.018   3.673   3.341  0.3334 -0.4662  0.5798
 6072TIP3    H218181   0.919   3.634   3.233 -0.0544  0.9180  0.4113
 6073TIP3   OH218182   3.553   2.497   4.854  0.2105 -0.1674 -0.2442
 6073TIP3    H118183   3.593   2.515   4.770  2.1765  0.2134  0.7198
 6073TIP3    H218184   3.607   2.428   4.892 -0.1085  0.2690  1.0519
 6074TIP3   OH218185   5.705   3.890   3.837 -0.4146  0.5115  0.2523
 6074TIP3    H118186   5.665   3.854   3.758  2.5247  0.5508 -1.3873
 6074TIP3    H218187   5.793   3.916   3.810  0.7299  0.5469  3.5460
 6075TIP3   OH218188   6.410   4.148   1.899  0.9437  0.1126 -0.4492
 6075TIP3    H118189   6.425   4.239   1.923  1.3101  0.4366 -1.8043
 6075TIP3    H218190   6.484   4.101   1.936 -0.8666 -0.2669  3.1833
 6076TIP3   OH218191   6.344   5.676   1.134 -0.0481 -0.2433 -0.3755
 6076TIP3    H118192   6.434   5.673   1.102  0.1972  2.7089 -0.2778
 6076TIP3    H218193   6.294   5.716   1.063 -1.2967 -1.7018 -0.3715
 6077TIP3   OH218194   5.892   4.478   4.261 -0.1110 -0.0946 -0.0757
 6077TIP3    H118195   5.847   4.561   4.247  0.6994  0.2252 -0.9151
 6077TIP3    H218196   5.830   4.412   4.231 -0.8273  0.1805  0.7504
 6078TIP3   OH218197   3.740   1.218   3.255 -0.3365  0.4394  0.3898
 6078TIP3    H118198   3.706   1.191   3.170 -2.2416  0.0944  1.2224
 6078TIP3    H218199   3.739   1.314   3.252 -1.4633  0.4438  0.3982
 6079TIP3   OH218200   6.047   1.487   4.598  0.4160  0.4079 -0.1143
 6079TIP3    H118201   6.116   1.529   4.547 -0.0339 -0.5260 -1.5498
 6079TIP3    H218202   5.975   1.475   4.536 -0.8422  0.8376  1.2051
 6080TIP3   OH218203   1.045   0.147   4.270 -0.0094 -0.6201  0.3944
 6080TIP3    H118204   1.051   0.072   4.211 -2.5630 -1.2423  0.8295
 6080TIP3    H218205   1.115   0.205   4.241 -0.4417 -1.4012 -2.5358
 6081TIP3   OH218206   5.008   0.265   5.265 -0.0002  0.6412  0.3844
 6081TIP3    H118207   5.051   0.250   5.181 -0.4228 -0.5026  0.3472
 6081TIP3    H218208   5.032   0.354   5.289 -1.2294  1.6396 -1.7664
 6082TIP3   OH218209   6.955   6.708   2.068 -0.1137 -0.3410  0.0977
 6082TIP3    H118210   7.002   6.654   2.132 -0.9814 -2.4956 -0.9670
 6082TIP3    H218211   7.024   6.752   2.018  0.6494 -0.8049  0.7237
 6083TIP3   OH218212   2.655   2.042   4.481 -0.2366 -0.6493  0.2402
 6083TIP3    H118213   2.660   2.091   4.399  1.6645 -0.2818  0.5112
 6083TIP3    H218214   2.623   1.956   4.456 -0.9061 -0.1477 -0.6880
 6084TIP3   OH218215   4.311   0.183   1.284 -0.1203 -0.3609  0.6494
 6084TIP3    H118216   4.405   0.194   1.270 -0.0479 -2.5565 -1.1316
 6084TIP3    H218217   4.296   0.210   1.375  2.2103  0.0343  0.9619
 6085TIP3   OH218218  -0.003   4.471   0.839  0.2031 -0.2182  0.1708
 6085TIP3    H118219   0.032   4.394   0.883  1.2294 -0.1513 -0.4904
 6085TIP3    H218220   0.048   4.477   0.758 -0.4943  0.6238 -0.2178
 6086TIP3   OH218221   0.264   0.887   5.291  0.4742 -0.2348  0.1563
 6086TIP3    H118222   0.350   0.910   5.254  1.0382 -1.5926  0.5733
 6086TIP3    H218223   0.231   0.818   5.233 -1.5865  2.0473 -1.5944
 6087TIP3   OH218224   1.344   1.862   3.207  0.1399 -0.2000 -0.5139
 6087TIP3    H118225   1.307   1.840   3.122  0.3453 -0.1974 -0.6037
 6087TIP3    H218226   1.375   1.952   3.197 -1.0739  0.2998 -0.0248
 6088TIP3   OH218227   6.011   4.355   0.122 -0.0664  0.1131 -0.3286
 6088TIP3    H118228   6.065   4.433   0.113 -0.2316  0.2107 -0.4845
 6088TIP3    H218229   6.063   4.285   0.083  0.1362  0.1199 -0.0708
 6089TIP3   OH218230   6.247   3.164   4.883 -0.1639 -0.0839  0.2739
 6089TIP3    H118231   6.271   3.073   4.869  0.3648  0.0737  0.1286
 6089TIP3    H218232   6.197   3.188   4.805  0.1715 -0.0904  0.0553
 6090TIP3   OH218233   1.532   5.674   1.591  0.0620 -0.1418 -0.2591
 6090TIP3    H118234   1.597   5.743   1.579  1.2425 -1.1893 -0.0864
 6090TIP3    H218235   1.583   5.593   1.591 -1.2433 -0.9861 -0.0511
 6091TIP3   OH218236   3.060   5.443   4.490  1.3279 -0.4483 -0.8329
 6091TIP3    H118237   3.052   5.514   4.426  2.0474  1.7323  1.3317
 6091TIP3    H218238   3.109   5.375   4.445  2.4565  1.2989 -2.3755
 6092TIP3   OH218239   6.984   6.689   3.720 -0.3955 -0.1498 -0.9181
 6092TIP3    H118240   7.058   6.742   3.749 -1.4328  0.4750  0.6940
 6092TIP3    H218241   7.021   6.630   3.654  1.1465  1.3692 -1.4618
 6093TIP3   OH218242   6.156   0.570   2.752 -0.2225 -0.4405  0.3715
 6093TIP3    H118243   6.195   0.505   2.810 -1.8942 -0.6639  1.3127
 6093TIP3    H218244   6.093   0.520   2.700  0.9366 -0.1631 -1.3886
 6094TIP3   OH218245   2.922   0.820   5.814 -0.2376 -0.0889 -0.2519
 6094TIP3    H118246   2.886   0.897   5.771  0.4479  0.9185  0.9257
 6094TIP3    H218247   2.856   0.795   5.879 -0.3708 -0.3873 -0.4975
 6095TIP3   OH218248   3.577   2.921   2.821  0.7929 -0.2309 -0.4511
 6095TIP3    H118249   3.521   2.873   2.760 -0.5285  0.6220  0.0576
 6095TIP3    H218250   3.591   2.860   2.893  0.4025 -0.3984 -0.5153
 6096TIP3   OH218251   1.491   5.456   1.307 -0.2230 -0.8307 -0.1562
 6096TIP3    H118252   1.587   5.454   1.299 -0.3172  0.0726 -2.0126
 6096TIP3    H218253   1.468   5.369   1.340  1.2156 -1.0913  0.2537
 6097TIP3   OH218254   4.663   2.185   4.240  0.0534  0.2040  0.2412
 6097TIP3    H118255   4.616   2.258   4.281 -1.1537 -0.1398 -0.4758
 6097TIP3    H218256   4.595   2.137   4.193  0.9039 -1.1445  0.3503
 6098TIP3   OH218257   1.034   2.367   5.087 -0.1314  0.2149  0.3615
 6098TIP3    H118258   1.016   2.407   5.002 -0.6912 -0.0996  0.3248
 6098TIP3    H218259   1.012   2.435   5.151  1.3608  0.8473  0.2357
 6099TIP3   OH218260   0.776   4.266   3.474  0.3138  0.8716  0.6145
 6099TIP3    H118261   0.790   4.276   3.379 -0.8480 -2.8290 -0.1018
 6099TIP3    H218262   0.864   4.255   3.510  0.6380 -2.2757 -0.8207
 6100TIP3   OH218263   1.149   4.425   1.624  0.4045  0.0875  0.1149
 6100TIP3    H118264   1.055   4.422   1.604 -0.2021  3.1610  1.8163
 6100TIP3    H218265   1.162   4.353   1.686 -1.2653  0.5651  1.0989
 6101TIP3   OH218266   2.397   4.194   3.731  0.6170  0.1348  0.1970
 6101TIP3    H118267   2.437   4.108   3.731  0.1818 -0.0685  0.6943
 6101TIP3    H218268   2.342   4.196   3.809  0.2758  0.6956 -0.0456
 6102TIP3   OH218269   4.685   5.974   1.684 -0.0239 -0.7265  0.2499
 6102TIP3    H118270   4.745   6.039   1.646  0.4384 -0.8223  0.8052
 6102TIP3    H218271   4.666   6.007   1.772 -1.3779 -0.3247 -0.1692
 6103TIP3   OH218272   2.800   4.824   5.063 -0.1730 -0.0818  0.1044
 6103TIP3    H118273   2.876   4.828   5.122  0.0961 -1.0005 -0.1521
 6103TIP3    H218274   2.837   4.800   4.978 -0.9250 -3.0229  0.4788
 6104TIP3   OH218275   2.303   3.528   4.553  0.2671 -0.7536  0.5336
 6104TIP3    H118276   2.272   3.441   4.577  0.0756 -0.1952  2.4899
 6104TIP3    H218277   2.398   3.523   4.563  0.2912 -0.8597  0.2403
 6105TIP3   OH218278   2.696   3.641   2.050  0.3918 -0.9292 -0.2190
 6105TIP3    H118279   2.755   3.693   1.995  1.9209 -1.4477  0.8473
 6105TIP3    H218280   2.747   3.563   2.072 -0.7791 -1.4927  0.5832
 6106TIP3   OH218281   3.026   2.931   5.471  0.4531  0.5618 -0.3146
 6106TIP3    H118282   2.967   2.968   5.405 -0.4691  1.4135  0.9464
 6106TIP3    H218283   2.970   2.909   5.544  1.3885 -0.8651  0.0160
 6107TIP3   OH218284   1.250   3.924   4.415 -0.3513  0.3270 -0.1233
 6107TIP3    H118285   1.253   3.983   4.340  1.7317  0.2265 -0.1695
 6107TIP3    H218286   1.217   3.979   4.487 -2.7723  0.3133 -1.1412
 6108TIP3   OH218287   2.116   2.660   3.929  0.0428 -0.0512 -0.1153
 6108TIP3    H118288   2.108   2.754   3.915  0.0308  0.0459  0.5433
 6108TIP3    H218289   2.064   2.642   4.007  0.6632 -0.4809  0.2104
 6109TIP3   OH218290   1.718   1.668   0.002 -0.9541  0.2175 -0.2239
 6109TIP3    H118291   1.761   1.738   0.052  1.8409 -1.7818  0.4233
 6109TIP3    H218292   1.658   1.627   0.065 -0.7329  0.4621  0.1519
 6110TIP3   OH218293   6.675   3.060   3.237 -0.3731 -0.2789 -0.3740
 6110TIP3    H118294   6.616   3.111   3.293  0.4428  0.2625  0.0054
 6110TIP3    H218295   6.631   3.058   3.152  0.2042  2.2718 -0.8059
 6111TIP3   OH218296   4.929   6.353   3.643  0.0438  0.4049  0.3153
 6111TIP3    H118297   5.016   6.378   3.612 -0.0028  0.2867  0.0934
 6111TIP3    H218298   4.869   6.409   3.593  0.0222  0.8976  0.8791
 6112TIP3   OH218299   5.274   1.154   2.492 -0.1898 -0.0443 -0.2469
 6112TIP3    H118300   5.338   1.094   2.454 -1.3198 -2.0769  0.8556
 6112TIP3    H218301   5.190   1.123   2.460 -0.9308 -0.0537  1.5746
 6113TIP3   OH218302   6.360   2.399   3.441  0.0796  0.3760  0.1239
 6113TIP3    H118303   6.304   2.340   3.492 -2.0711  0.8879 -1.5030
 6113TIP3    H218304   6.364   2.360   3.354  0.0232  1.7258 -0.5201
 6114TIP3   OH218305   4.895   1.857   4.946  0.3136  0.4386 -0.3263
 6114TIP3    H118306   4.883   1.945   4.982 -0.2716 -0.3385  1.4908
 6114TIP3    H218307   4.812   1.838   4.903 -0.1512  0.1865  0.6573
 6115TIP3   OH218308   4.458   4.934   1.596  0.6605 -0.8593 -0.2049
 6115TIP3    H118309   4.379   4.887   1.568 -0.6290  0.7813  0.5081
 6115TIP3    H218310   4.477   4.994   1.524  0.6966 -0.5868  0.0304
 6116TIP3   OH218311   4.700   6.609   0.305 -0.0588  0.5959 -0.0008
 6116TIP3    H118312   4.726   6.686   0.256  0.7806 -0.0925 -0.6769
 6116TIP3    H218313   4.684   6.542   0.239 -0.7697  0.1851  0.5719
 6117TIP3   OH218314   4.543   1.279   3.960  0.2228  0.7335  0.5201
 6117TIP3    H118315   4.551   1.184   3.969 -1.9202  0.3881 -0.5600
 6117TIP3    H218316   4.595   1.300   3.882 -0.0519  0.3039  0.2164
 6118TIP3   OH218317   2.559   0.365   3.474  0.2308 -0.3560  0.2129
 6118TIP3    H118318   2.631   0.310   3.445  1.0132  1.5020 -1.5322
 6118TIP3    H218319   2.594   0.454   3.475 -2.3205  0.8201 -2.0181
 6119TIP3   OH218320   5.286   6.622   5.018  0.2392  0.0450  0.6274
 6119TIP3    H118321   5.203   6.639   4.975  0.6405 -0.6492 -0.4665
 6119TIP3    H218322   5.320   6.709   5.040  0.3219  0.4838 -1.0661
 6120TIP3   OH218323   2.670   1.349   3.337  0.3223  0.4296  0.1988
 6120TIP3    H118324   2.617   1.422   3.304  2.9923  2.0946 -0.6899
 6120TIP3    H218325   2.752   1.389   3.364  1.8875 -2.2487 -0.2163
 6121TIP3   OH218326   4.180   6.236   0.878 -0.0503  0.0597  0.7908
 6121TIP3    H118327   4.132   6.155   0.894  1.5016 -0.9412  0.6178
 6121TIP3    H218328   4.150   6.296   0.947  0.2067 -1.3203  2.1525
 6122TIP3   OH218329   4.450   5.946   5.529 -0.8212  0.0193 -0.2613
 6122TIP3    H118330   4.510   6.004   5.576  0.4541 -0.3917 -1.3150
 6122TIP3    H218331   4.403   6.004   5.469  0.4229 -0.0067 -1.2858
 6123TIP3   OH218332   0.306   0.065   2.613  0.6917 -0.5554 -0.2774
 6123TIP3    H118333   0.212   0.071   2.630  0.7133 -1.4461  0.2046
 6123TIP3    H218334   0.343   0.142   2.655  0.1216  0.0636 -0.8953
 6124TIP3   OH218335   4.558   4.261   0.616 -0.8537  0.0522 -0.0743
 6124TIP3    H118336   4.545   4.340   0.564 -0.1906  0.5403  0.4840
 6124TIP3    H218337   4.586   4.292   0.702  0.8712 -0.7932 -0.2694
 6125TIP3   OH218338   6.324   3.771   4.098  0.8436 -0.7434 -0.2970
 6125TIP3    H118339   6.346   3.863   4.087  0.2287 -0.8216 -2.6590
 6125TIP3    H218340   6.394   3.735   4.152  1.8938  0.7829 -0.6005
 6126TIP3   OH218341   6.656   2.694   0.274 -0.0640  0.0514 -0.0864
 6126TIP3    H118342   6.733   2.748   0.255 -0.1035  0.2724  0.3773
 6126TIP3    H218343   6.594   2.716   0.204 -0.6150  1.6623  0.8510
 6127TIP3   OH218344   5.857   2.206   1.819  0.1289 -0.0832  0.1509
 6127TIP3    H118345   5.938   2.253   1.837  0.7401 -1.1633  0.2793
 6127TIP3    H218346   5.799   2.229   1.891  0.1098  1.1297 -0.2258
 6128TIP3   OH218347   0.064   0.498   2.117 -0.1753  0.7023 -0.4612
 6128TIP3    H118348   0.130   0.564   2.138 -0.3954  0.5741  0.7228
 6128TIP3    H218349  -0.015   0.547   2.095 -0.1528  0.8441 -0.2264
 6129TIP3   OH218350   7.130   2.894   2.062 -0.1769  0.7663 -0.4629
 6129TIP3    H118351   7.167   2.844   2.135 -2.5981  0.3518  0.5570
 6129TIP3    H218352   7.207   2.924   2.012  1.4538 -0.9769  0.8701
 6130TIP3   OH218353   0.312   1.251   3.195 -0.0006 -0.5045 -0.2633
 6130TIP3    H118354   0.322   1.341   3.165  2.3559 -0.6684 -0.1007
 6130TIP3    H218355   0.368   1.199   3.137  1.8350 -1.2985  2.0499
 6131TIP3   OH218356   6.332   2.599   4.296  0.1301  0.2523  0.0805
 6131TIP3    H118357   6.361   2.667   4.235 -0.3419  0.2571 -0.1469
 6131TIP3    H218358   6.237   2.595   4.283 -0.0379  0.5589  1.1292
 6132TIP3   OH218359   3.168   5.107   0.957  0.2658  0.1325  0.8000
 6132TIP3    H118360   3.236   5.060   0.908 -0.6588 -0.3735 -0.0406
 6132TIP3    H218361   3.204   5.195   0.971  0.4817  0.3554 -0.9773
 6133TIP3   OH218362   2.848   1.274   5.122 -0.0721 -0.0421 -0.1182
 6133TIP3    H118363   2.920   1.319   5.078 -0.1219 -0.1471 -0.3099
 6133TIP3    H218364   2.780   1.266   5.056 -1.2302  2.1975  0.7307
 6134TIP3   OH218365   0.036   1.919   2.233  0.0300  0.2515  0.0853
 6134TIP3    H118366   0.117   1.885   2.195  0.2194 -0.2964  0.9628
 6134TIP3    H218367   0.014   1.856   2.302  0.2388  1.7312  1.5666
 6135TIP3   OH218368   1.530   1.769   3.997  0.0591  0.1401  0.0420
 6135TIP3    H118369   1.450   1.721   4.020  0.5937 -0.2521  1.1336
 6135TIP3    H218370   1.600   1.705   4.005  0.4275  0.3151 -1.5484
 6136TIP3   OH218371   7.128   4.724   4.418 -0.3254  0.9051  0.5653
 6136TIP3    H118372   7.054   4.664   4.431  0.1760  0.1931  0.2090
 6136TIP3    H218373   7.113   4.762   4.331 -0.9441  1.7450  1.0248
 6137TIP3   OH218374   2.401   4.922   5.215 -0.1508 -0.0485 -0.0074
 6137TIP3    H118375   2.432   4.987   5.278  1.9190 -0.1960 -0.7945
 6137TIP3    H218376   2.459   4.847   5.227 -0.6077 -0.6067 -1.1232
 6138TIP3   OH218377   5.863   0.380   3.567 -0.0952  0.1823 -0.3791
 6138TIP3    H118378   5.773   0.392   3.598  0.0022  0.2777 -0.1289
 6138TIP3    H218379   5.917   0.401   3.643  0.1568  0.7038 -0.6913
 6139TIP3   OH218380   5.534   3.915   2.255  0.4853 -0.2697  0.2022
 6139TIP3    H118381   5.617   3.947   2.290  0.6336 -0.4188 -0.0067
 6139TIP3    H218382   5.546   3.820   2.247  0.9841 -0.1048 -1.5695
 6140TIP3   OH218383   4.040   3.323   2.925  0.0070  0.0277 -0.1401
 6140TIP3    H118384   3.993   3.306   2.843 -0.5310 -1.8240  0.5151
 6140TIP3    H218385   3.993   3.397   2.964 -1.2186 -0.5730 -0.4067
 6141TIP3   OH218386   2.570   0.898   0.848  0.3975  0.6979  0.8350
 6141TIP3    H118387   2.634   0.933   0.786 -0.1514  0.8942  0.3746
 6141TIP3    H218388   2.565   0.805   0.828 -0.7052  0.9720 -0.2777
 6142TIP3   OH218389   6.679   6.366   3.792  0.1057  0.5137 -0.4145
 6142TIP3    H118390   6.740   6.305   3.749 -0.1472  1.0058 -1.5210
 6142TIP3    H218391   6.639   6.415   3.719 -0.0199  1.6905  0.4139
 6143TIP3   OH218392   5.777   0.332   4.887 -0.6595 -0.1453 -0.3490
 6143TIP3    H118393   5.731   0.409   4.919  0.1938  0.2405 -0.0124
 6143TIP3    H218394   5.763   0.265   4.954 -0.5873  0.0233 -0.1650
 6144TIP3   OH218395   0.510   1.858   5.325  0.8791 -0.7657  0.1964
 6144TIP3    H118396   0.510   1.944   5.284  0.4374 -1.1238 -0.5697
 6144TIP3    H218397   0.602   1.830   5.323  0.9334 -0.5668 -0.0826
 6145TIP3   OH218398   5.123   5.791   0.758 -0.0463 -0.2831  0.0411
 6145TIP3    H118399   5.192   5.770   0.695  0.0793 -0.9976  0.4054
 6145TIP3    H218400   5.050   5.823   0.704  0.1386 -0.6771 -0.4507
 6146TIP3   OH218401   4.302   3.386   0.876 -0.4605 -0.3380  0.3270
 6146TIP3    H118402   4.361   3.445   0.830  0.6785 -0.6505  1.3238
 6146TIP3    H218403   4.346   3.368   0.959 -1.3649 -1.6017  0.5684
 6147TIP3   OH218404   6.123   3.056   1.847 -0.3648 -0.5486 -0.0679
 6147TIP3    H118405   6.196   2.996   1.835  0.1050  0.1277 -0.6934
 6147TIP3    H218406   6.064   3.012   1.908  1.1393 -0.5905  1.4054
 6148TIP3   OH218407   5.990   0.520   4.525  0.2346  0.6517 -0.2441
 6148TIP3    H118408   6.030   0.606   4.542  2.1048 -0.1228 -0.4192
 6148TIP3    H218409   6.022   0.464   4.596 -0.2749 -0.0927 -0.5899
 6149TIP3   OH218410   0.811   5.165   3.905  0.6466 -0.1918 -0.3085
 6149TIP3    H118411   0.791   5.254   3.879  1.5446 -0.0427 -0.5141
 6149TIP3    H218412   0.844   5.173   3.995  1.8103 -0.1650 -0.7193
 6150TIP3   OH218413   5.694   2.604   2.827  0.2187  0.1658 -0.1660
 6150TIP3    H118414   5.750   2.667   2.873 -1.6823  1.4415  0.5311
 6150TIP3    H218415   5.658   2.550   2.897  0.3717 -0.4699 -0.5777
 6151TIP3   OH218416   2.398   5.779   1.102  0.6549  0.1811 -0.5524
 6151TIP3    H118417   2.367   5.847   1.162 -1.5669 -0.9310 -0.3490
 6151TIP3    H218418   2.320   5.727   1.082  2.3840 -2.8720  0.0195
 6152TIP3   OH218419   6.213   2.231   3.886  0.0404  0.7610 -0.2869
 6152TIP3    H118420   6.146   2.230   3.954 -0.3564  0.4694 -0.6799
 6152TIP3    H218421   6.293   2.259   3.932 -0.1921  0.4519  0.3216
 6153TIP3   OH218422   1.177   6.295   1.694  0.0661 -0.1735 -0.0576
 6153TIP3    H118423   1.116   6.367   1.704 -0.7809 -0.5831 -1.7573
 6153TIP3    H218424   1.261   6.328   1.726 -0.5474  1.1836  0.1826
 6154TIP3   OH218425   5.020   0.555   5.571 -0.3973 -0.1312 -0.3703
 6154TIP3    H118426   5.106   0.570   5.611  0.4826 -1.6055 -1.6112
 6154TIP3    H218427   4.964   0.529   5.645  0.7504 -1.0963  0.2054
 6155TIP3   OH218428   2.855   4.743   0.273 -0.2290 -0.1448  0.4025
 6155TIP3    H118429   2.928   4.716   0.218 -0.0242  1.2720 -0.0595
 6155TIP3    H218430   2.780   4.748   0.214 -0.1469  0.7656  0.3619
 6156TIP3   OH218431   2.798   0.192   0.168  0.5595  0.0477  0.0376
 6156TIP3    H118432   2.732   0.261   0.180 -0.9007 -0.8000 -2.3318
 6156TIP3    H218433   2.862   0.230   0.108  1.3236  0.2704  0.9715
 6157TIP3   OH218434   2.465   2.760   5.258  0.6186 -0.5832 -0.3720
 6157TIP3    H118435   2.445   2.668   5.274  2.9131 -1.7741 -3.4150
 6157TIP3    H218436   2.413   2.782   5.181  1.1112  0.2621 -0.4730
 6158TIP3   OH218437   1.062   5.294   2.491 -0.4890  0.4298 -0.0485
 6158TIP3    H118438   1.019   5.210   2.507  2.9827 -1.6063 -0.3362
 6158TIP3    H218439   1.056   5.307   2.397  1.0769 -0.8713 -0.3711
 6159TIP3   OH218440   0.529   0.053   2.082 -0.3666  0.0866  0.0526
 6159TIP3    H118441   0.586   0.031   2.008 -0.0195  1.2738 -0.0666
 6159TIP3    H218442   0.556  -0.006   2.152  0.0965 -0.2682 -0.4167
 6160TIP3   OH218443   5.857   5.095   5.097  0.6700  0.0301  0.3803
 6160TIP3    H118444   5.897   5.153   5.033  2.7331 -2.8440 -1.1985
 6160TIP3    H218445   5.765   5.121   5.101  1.0216  1.8911 -1.8857
 6161TIP3   OH218446   1.797   3.087   5.781  0.4202 -0.0696 -0.1690
 6161TIP3    H118447   1.807   2.995   5.755  2.0227  0.0451 -0.1024
 6161TIP3    H218448   1.703   3.102   5.781  0.1218 -1.7138 -0.1727
 6162TIP3   OH218449   1.655   2.341   4.814 -0.3095  0.4122 -0.5130
 6162TIP3    H118450   1.591   2.323   4.883 -1.2211 -0.1343 -1.4716
 6162TIP3    H218451   1.718   2.270   4.822  0.5449  1.2724  0.8140
 6163TIP3   OH218452   2.554   0.863   1.703  0.3709 -0.0024  0.1631
 6163TIP3    H118453   2.581   0.850   1.612  2.4181 -1.6684  0.9323
 6163TIP3    H218454   2.619   0.815   1.755 -1.2793  0.0804  2.4722
 6164TIP3   OH218455   6.836   5.502   1.454  0.0546  0.6926 -0.0769
 6164TIP3    H118456   6.751   5.482   1.415  1.0352 -1.7141 -1.1419
 6164TIP3    H218457   6.852   5.594   1.431 -2.5611  1.4753  0.8478
 6165TIP3   OH218458   0.602   4.077   2.386  0.4712  0.0345 -0.2349
 6165TIP3    H118459   0.676   4.131   2.356  1.5850 -0.4330  1.5057
 6165TIP3    H218460   0.536   4.087   2.318  0.9985  2.8237 -0.4621
 6166TIP3   OH218461   4.898   5.206   2.379  0.1973 -0.4077  0.5861
 6166TIP3    H118462   4.970   5.158   2.420  0.3885 -0.3283  0.3424
 6166TIP3    H218463   4.939   5.257   2.309 -0.0818 -0.2919  0.5044
 6167TIP3   OH218464   2.323   6.032   3.382  0.2526 -0.0750 -0.2383
 6167TIP3    H118465   2.243   6.081   3.364 -0.7575 -1.1986  0.9189
 6167TIP3    H218466   2.330   6.032   3.477  0.5611 -1.5868 -0.2292
 6168TIP3   OH218467   4.414   1.602   4.642 -0.2065 -0.8120  0.1403
 6168TIP3    H118468   4.433   1.551   4.563 -1.1849 -1.2643  0.1742
 6168TIP3    H218469   4.331   1.566   4.674 -1.2264  1.1579 -0.1218
 6169TIP3   OH218470   1.814   0.915   0.231 -0.5614 -0.1627  0.3606
 6169TIP3    H118471   1.847   0.873   0.311 -1.1583  0.3938  0.9044
 6169TIP3    H218472   1.743   0.858   0.203 -0.0029 -0.6550 -0.0897
 6170TIP3   OH218473   5.743   2.879   0.724 -0.4087 -0.6079 -0.0750
 6170TIP3    H118474   5.694   2.945   0.676 -1.3810  0.3383  2.0840
 6170TIP3    H218475   5.677   2.821   0.762  0.2802 -1.0274  0.5424
 6171TIP3   OH218476   5.088   2.581   2.604 -0.2066  0.0828 -0.2598
 6171TIP3    H118477   4.995   2.570   2.624 -0.4552  0.2925 -1.2457
 6171TIP3    H218478   5.106   2.514   2.538  0.6301 -0.7032  0.7273
 6172TIP3   OH218479   4.914   1.047   3.373 -0.2371  0.2657  0.2705
 6172TIP3    H118480   4.937   0.956   3.357  0.2797  0.2544  1.0301
 6172TIP3    H218481   4.869   1.075   3.294 -0.6881 -0.7424  0.1596
 6173TIP3   OH218482   0.606   0.449   0.915 -0.3819 -0.2528 -0.2139
 6173TIP3    H118483   0.586   0.475   0.825  0.9345  3.0041  0.3039
 6173TIP3    H218484   0.689   0.402   0.908  0.4777  1.2469 -0.6360
 6174TIP3   OH218485   1.676   3.139   2.249  0.7565  0.1445 -0.5031
 6174TIP3    H118486   1.713   3.226   2.234  0.4645  0.5708  1.0170
 6174TIP3    H218487   1.740   3.095   2.305  0.1408 -0.0077  0.0989
 6175TIP3   OH218488   4.997   3.517   5.771 -0.5867  0.5914 -0.2867
 6175TIP3    H118489   4.970   3.586   5.710  0.7754 -0.0398 -1.6649
 6175TIP3    H218490   5.092   3.515   5.765 -0.4317  0.2281  1.6012
 6176TIP3   OH218491   2.039   4.281   3.269  0.7859  0.2202 -0.1692
 6176TIP3    H118492   1.991   4.219   3.214  0.8957  0.0397 -0.0650
 6176TIP3    H218493   2.116   4.231   3.298  1.0190  0.4951 -0.3124
 6177TIP3   OH218494   5.414   1.698   4.530  0.2420 -0.6259 -0.6647
 6177TIP3    H118495   5.368   1.751   4.465 -1.1681 -0.7497  0.1837
 6177TIP3    H218496   5.358   1.702   4.608  1.5895 -0.9522  0.3634
 6178TIP3   OH218497   0.421   5.467   3.570  0.2152  0.2735 -0.1121
 6178TIP3    H118498   0.422   5.563   3.566  0.1987  0.2837  0.1286
 6178TIP3    H218499   0.342   5.446   3.620 -0.4376  0.0957 -1.1967
 6179TIP3   OH218500   2.891   1.810   4.828  0.3316  0.1838  0.3519
 6179TIP3    H118501   2.874   1.791   4.736  2.2360 -1.2449  0.2422
 6179TIP3    H218502   2.818   1.867   4.854 -1.8189 -1.6116 -1.2496
 6180TIP3   OH218503   2.450   0.862   0.350  0.1613 -0.0380  0.0315
 6180TIP3    H118504   2.360   0.840   0.374  0.0101  1.4337  0.9042
 6180TIP3    H218505   2.445   0.950   0.313  1.2293 -0.0039 -0.0725
 6181TIP3   OH218506   3.295   2.391   2.811 -0.0083 -0.0683  0.0319
 6181TIP3    H118507   3.379   2.398   2.856  0.2501 -1.5140 -0.1710
 6181TIP3    H218508   3.318   2.394   2.718 -0.3938  1.4735 -0.0317
 6182TIP3   OH218509   4.133   5.728   3.132  0.0827 -0.0605 -0.4622
 6182TIP3    H118510   4.129   5.729   3.037 -0.6245 -1.4630 -0.4723
 6182TIP3    H218511   4.220   5.763   3.153  0.3536 -0.0139 -1.6197
 6183TIP3   OH218512   3.342   5.577   0.749  0.1437 -0.2474 -0.0958
 6183TIP3    H118513   3.308   5.490   0.769  1.3852 -0.8092 -0.3927
 6183TIP3    H218514   3.437   5.567   0.745  0.2459  0.8573 -1.3676
 6184TIP3   OH218515   1.012   0.589   1.682 -0.4708  0.4283  0.7460
 6184TIP3    H118516   1.005   0.667   1.627 -0.9442  0.0033  0.1971
 6184TIP3    H218517   0.929   0.586   1.730 -0.6460  0.0191  0.4279
 6185TIP3   OH218518   0.232   1.634   1.616  0.0832 -0.1302 -0.1277
 6185TIP3    H118519   0.240   1.678   1.532 -1.5513 -0.7437 -0.6573
 6185TIP3    H218520   0.272   1.548   1.602  2.6195  0.8305  0.6930
 6186TIP3   OH218521   4.749   0.823   4.783  0.3512  0.2319 -0.0282
 6186TIP3    H118522   4.736   0.901   4.728  0.0708  0.4535  0.3497
 6186TIP3    H218523   4.816   0.773   4.737 -0.3260  0.1070 -0.9109
 6187TIP3   OH218524   3.720   3.348   2.873  0.6103  0.1136  0.2078
 6187TIP3    H118525   3.709   3.265   2.918 -1.1398 -0.1282 -0.6055
 6187TIP3    H218526   3.770   3.326   2.794  0.0073 -0.2082 -0.0902
 6188TIP3   OH218527   0.129   0.076   5.157  0.0950 -0.7423  0.3267
 6188TIP3    H118528   0.170   0.003   5.111  3.0874 -0.4582  2.2699
 6188TIP3    H218529   0.146   0.152   5.102 -1.8661 -1.2083 -1.0418
 6189TIP3   OH218530   2.651   1.884   1.896  0.4021 -0.5804  0.0110
 6189TIP3    H118531   2.675   1.893   1.988  0.2094 -0.4463  0.0486
 6189TIP3    H218532   2.726   1.919   1.848 -0.0332  0.5512  0.1439
 6190TIP3   OH218533   4.352   3.189   0.399  0.3563 -0.7731  0.0668
 6190TIP3    H118534   4.285   3.202   0.466  0.1415  0.8938 -0.4276
 6190TIP3    H218535   4.306   3.206   0.316  1.4959  1.0348 -0.2480
 6191TIP3   OH218536   2.714   3.499   0.204  0.7749  0.4432  0.4701
 6191TIP3    H118537   2.647   3.534   0.263 -0.1897  1.9335 -1.3502
 6191TIP3    H218538   2.795   3.539   0.234  0.4118  0.6899  1.1554
 6192TIP3   OH218539   7.063   1.982   4.631 -0.3079 -0.0624  0.2914
 6192TIP3    H118540   7.046   1.952   4.542 -0.9774  0.1603  0.3399
 6192TIP3    H218541   7.149   1.945   4.653 -0.9614 -1.6683  0.2485
 6193TIP3   OH218542   4.440   4.598   4.159  0.0228  0.3146  0.2406
 6193TIP3    H118543   4.449   4.693   4.151 -0.4143  0.3240 -0.2884
 6193TIP3    H218544   4.384   4.585   4.235  0.2951  0.4724  0.4661
 6194TIP3   OH218545   6.806   5.390   4.846 -0.3021 -0.0744  0.4718
 6194TIP3    H118546   6.736   5.446   4.813  0.6739 -0.0021 -1.6890
 6194TIP3    H218547   6.884   5.419   4.799  0.8021 -1.4019  1.3861
 6195TIP3   OH218548   4.499   1.870   4.312 -0.6146 -1.0216 -0.3152
 6195TIP3    H118549   4.531   1.913   4.232  0.1881 -0.4274  0.3051
 6195TIP3    H218550   4.439   1.934   4.351 -0.2363 -0.8840  0.0574
 6196TIP3   OH218551   5.867   2.732   2.995 -0.1908 -0.2010 -0.2282
 6196TIP3    H118552   5.879   2.817   2.952  0.2088  0.4667  1.1451
 6196TIP3    H218553   5.946   2.683   2.975  1.0527  0.9529  1.5604
 6197TIP3   OH218554   6.434   0.698   2.337 -0.2354  0.2696  0.0144
 6197TIP3    H118555   6.339   0.691   2.347  0.0044 -1.2093  1.5036
 6197TIP3    H218556   6.467   0.609   2.349  1.5168  1.0690  1.7592
 6198TIP3   OH218557   6.001   2.601   4.597 -0.0700 -0.4930  0.8135
 6198TIP3    H118558   6.006   2.683   4.646  2.0136 -0.5087  0.7495
 6198TIP3    H218559   6.071   2.547   4.634  1.0827 -0.7947 -1.5902
 6199TIP3   OH218560   3.551   0.064   2.865  0.7823 -0.9146 -0.9929
 6199TIP3    H118561   3.507   0.141   2.901 -1.9053 -1.7664 -2.1592
 6199TIP3    H218562   3.604   0.031   2.938 -0.5476  0.1990  0.5761
 6200TIP3   OH218563   7.068   2.655   2.415 -0.2351 -0.2496 -0.4675
 6200TIP3    H118564   6.981   2.646   2.376 -0.9824  1.4335  0.6757
 6200TIP3    H218565   7.085   2.571   2.457 -2.1595 -0.0577  0.8479
 6201TIP3   OH218566   7.131   5.821   0.840  0.1935 -0.5270 -0.4447
 6201TIP3    H118567   7.076   5.819   0.761  0.9311 -0.2829 -0.9879
 6201TIP3    H218568   7.170   5.909   0.838  0.0671 -0.4556  0.3005
 6202TIP3   OH218569   4.275   0.371   1.532 -0.1606  0.1366 -0.5311
 6202TIP3    H118570   4.221   0.292   1.522  2.4104 -2.0883  1.5067
 6202TIP3    H218571   4.282   0.383   1.627  0.7384  1.9624 -0.7860
 6203TIP3   OH218572   3.366   5.917   4.628 -0.1761 -0.0759  0.3281
 6203TIP3    H118573   3.406   6.003   4.615 -1.3335  0.6385  1.3150
 6203TIP3    H218574   3.357   5.881   4.540 -1.1579  1.5026 -0.2493
 6204TIP3   OH218575   1.045   1.918   5.322  0.5255 -0.0216  0.5729
 6204TIP3    H118576   1.101   1.955   5.254  1.2888 -3.1524 -0.7025
 6204TIP3    H218577   0.956   1.944   5.296  0.9937  0.8149 -0.2556
 6205TIP3   OH218578   4.208   6.536   1.905  0.1179  0.0559 -0.1045
 6205TIP3    H118579   4.244   6.447   1.904  1.7075  0.6581 -1.4634
 6205TIP3    H218580   4.274   6.588   1.950 -0.1422  0.7907 -0.5514
 6206TIP3   OH218581   2.626   0.208   4.188 -0.2158  0.1276 -1.1979
 6206TIP3    H118582   2.643   0.195   4.281  0.4797  2.7033 -0.8937
 6206TIP3    H218583   2.712   0.211   4.147 -0.2044  3.2204 -1.1913
 6207TIP3   OH218584   1.160   3.600   4.778 -0.1134  0.3037 -0.1300
 6207TIP3    H118585   1.152   3.610   4.873 -0.0787  0.6411 -0.1616
 6207TIP3    H218586   1.070   3.604   4.746 -0.1190  0.2680 -0.1187
 6208TIP3   OH218587   6.064   2.876   2.203  0.2136 -0.3713 -0.4083
 6208TIP3    H118588   5.988   2.920   2.242  0.7645  0.3143 -0.0939
 6208TIP3    H218589   6.031   2.841   2.120 -0.4502 -0.0795 -0.2759
 6209TIP3   OH218590   1.935   5.527   2.859 -0.2065 -0.1932 -0.2930
 6209TIP3    H118591   1.974   5.584   2.925 -2.6294  0.1816  0.9462
 6209TIP3    H218592   1.984   5.445   2.865  0.1731  0.1307  1.3804
 6210TIP3   OH218593   5.337   0.523   2.191 -0.1316  0.1818 -0.3060
 6210TIP3    H118594   5.376   0.610   2.193  0.6182 -0.1640  1.4291
 6210TIP3    H218595   5.306   0.508   2.280  1.4019 -2.0337 -0.0530
 6211TIP3   OH218596   1.343   5.145   2.725 -0.5748  0.3433  0.0413
 6211TIP3    H118597   1.254   5.110   2.718 -0.4664  0.2982 -1.5304
 6211TIP3    H218598   1.363   5.140   2.818 -1.1899 -2.2303  0.1172
 6212TIP3   OH218599   6.401   5.072   3.594  0.3082 -0.0422 -0.2884
 6212TIP3    H118600   6.364   5.139   3.652  0.7253 -0.0510 -0.0159
 6212TIP3    H218601   6.394   5.111   3.506  0.0184  0.1182 -0.1978
 6213TIP3   OH218602   1.567   3.602   2.936 -0.1252 -0.0845  0.1732
 6213TIP3    H118603   1.479   3.566   2.941  0.2309 -0.7889  3.0181
 6213TIP3    H218604   1.621   3.542   2.987  2.0879  0.2088 -1.6798
 6214TIP3   OH218605   5.325   1.480   5.836  0.5416  0.1606  0.2500
 6214TIP3    H118606   5.379   1.548   5.795  1.8929 -0.0310  1.6191
 6214TIP3    H218607   5.290   1.521   5.915 -0.4427 -0.0712 -0.0483
 6215TIP3   OH218608   3.527   0.950   3.317 -0.6684  0.0485  0.3889
 6215TIP3    H118609   3.585   0.993   3.379 -1.0331 -0.3233  0.9998
 6215TIP3    H218610   3.552   0.858   3.319 -0.2124  0.1435 -0.5521
 6216TIP3   OH218611   6.207   4.955   1.700  0.6329 -0.0863 -0.0447
 6216TIP3    H118612   6.291   4.986   1.667  0.2066  0.9571 -0.2174
 6216TIP3    H218613   6.142   5.010   1.655 -0.1800 -1.2612 -0.3459
 6217TIP3   OH218614   3.076   4.558   2.185 -0.6248 -0.1574 -0.5256
 6217TIP3    H118615   2.990   4.568   2.145 -1.4114  1.4089  1.3942
 6217TIP3    H218616   3.088   4.638   2.238  1.2957 -1.0695  0.5402
 6218TIP3   OH218617   3.189   1.269   3.367  0.4085  0.5042 -0.2450
 6218TIP3    H118618   3.166   1.196   3.425 -0.5843  2.7765  2.3876
 6218TIP3    H218619   3.276   1.246   3.334  0.0606 -1.9385  0.3054
 6219TIP3   OH218620   0.043   4.308   5.216 -0.4015 -0.1434  0.2160
 6219TIP3    H118621  -0.044   4.337   5.189 -1.0460 -1.0129  1.2720
 6219TIP3    H218622   0.103   4.354   5.158 -1.5992 -0.0567 -0.9953
 6220TIP3   OH218623   3.839   1.102   2.461  0.0587  0.0374 -0.3394
 6220TIP3    H118624   3.787   1.022   2.472 -0.6127  0.1880 -2.1429
 6220TIP3    H218625   3.786   1.171   2.502 -0.5282 -0.0435 -0.9425
 6221TIP3   OH218626   3.571   2.814   3.998  0.3956  0.6346 -0.5178
 6221TIP3    H118627   3.615   2.899   3.995 -0.1303  0.9501  0.3441
 6221TIP3    H218628   3.478   2.835   4.010 -0.0528 -0.0116 -2.5107
 6222TIP3   OH218629   5.432   0.658   4.459  0.2656  0.5500  0.1337
 6222TIP3    H118630   5.407   0.737   4.410  0.9803 -0.6556 -2.3012
 6222TIP3    H218631   5.349   0.623   4.491 -0.1547  1.7063  0.3630
 6223TIP3   OH218632   1.593   4.142   4.411 -0.0214 -0.2440  0.1970
 6223TIP3    H118633   1.680   4.104   4.402 -0.6465 -1.3735 -1.5810
 6223TIP3    H218634   1.575   4.182   4.326 -1.1561  0.1334  0.5992
 6224TIP3   OH218635   3.743   0.083   4.936 -0.2799  0.2572 -0.1798
 6224TIP3    H118636   3.821   0.104   4.885 -0.5631  0.2053 -0.6489
 6224TIP3    H218637   3.761  -0.003   4.974 -0.8913 -0.7017 -1.9375
 6225TIP3   OH218638   5.802   0.591   0.301  0.0944 -0.1623  0.1651
 6225TIP3    H118639   5.850   0.511   0.323  0.0379 -0.5809 -1.1250
 6225TIP3    H218640   5.830   0.655   0.366  1.7746 -0.6253 -0.0477
 6226TIP3   OH218641   1.411   6.074   4.944  0.5710  0.2562 -0.9458
 6226TIP3    H118642   1.415   6.166   4.917 -0.1515  0.2092 -1.2473
 6226TIP3    H218643   1.322   6.046   4.920 -0.2454  0.2816  1.6553
 6227TIP3   OH218644   6.757   4.481   4.842 -0.2334  0.4251 -0.0183
 6227TIP3    H118645   6.810   4.557   4.867 -0.4171  1.2412 -1.9414
 6227TIP3    H218646   6.749   4.487   4.747 -0.5668 -1.8161 -0.2026
 6228TIP3   OH218647   3.836   4.153   2.369  0.0304 -0.3188  0.0548
 6228TIP3    H118648   3.894   4.227   2.386 -0.0005 -0.3397  0.2530
 6228TIP3    H218649   3.851   4.131   2.277  0.2203 -0.2240  0.0638
 6229TIP3   OH218650   3.608   3.209   2.580 -0.4968 -0.0614 -0.6971
 6229TIP3    H118651   3.643   3.289   2.542 -0.1066  0.1805  0.1578
 6229TIP3    H218652   3.534   3.238   2.634 -0.1735 -0.2334 -0.1515
 6230TIP3   OH218653   0.890   6.279   1.460  0.0143 -0.1774  0.6022
 6230TIP3    H118654   0.951   6.280   1.387  2.1840 -2.1713  2.2115
 6230TIP3    H218655   0.928   6.338   1.525 -0.6826 -0.1281  0.9812
 6231TIP3   OH218656   1.487   2.892   3.843  0.0683  0.1788  0.1463
 6231TIP3    H118657   1.491   2.951   3.918 -1.4014 -1.2356  1.4140
 6231TIP3    H218658   1.397   2.859   3.843  0.0713  0.0020 -2.1562
 6232TIP3   OH218659   1.462   4.010   3.407  0.1688 -0.4748  0.0980
 6232TIP3    H118660   1.511   3.937   3.445  0.2905 -0.7472 -0.5682
 6232TIP3    H218661   1.382   4.015   3.460  0.4930 -0.6264  0.6018
 6233TIP3   OH218662   1.787   4.897   5.587 -0.1512  0.7737 -0.1389
 6233TIP3    H118663   1.878   4.922   5.571 -0.2342  0.6490 -0.8174
 6233TIP3    H218664   1.754   4.868   5.502  0.0888 -2.1779  0.6493
 6234TIP3   OH218665   3.158   3.613   1.446 -0.0601  0.0464 -0.0508
 6234TIP3    H118666   3.229   3.611   1.511  0.1324  1.1311 -0.2096
 6234TIP3    H218667   3.079   3.597   1.497  0.0212  1.4614  0.5649
 6235TIP3   OH218668   5.877   5.562   5.329  0.3824  0.3254 -0.7685
 6235TIP3    H118669   5.803   5.561   5.389  0.6342  1.2480 -0.4173
 6235TIP3    H218670   5.882   5.653   5.299  1.0940  0.1728 -1.1285
 6236TIP3   OH218671   3.786   0.942   5.553 -0.4635  0.1328 -0.1325
 6236TIP3    H118672   3.829   0.891   5.485 -1.1085 -0.8848  0.1935
 6236TIP3    H218673   3.745   0.876   5.610  0.8189  0.8995  1.7834
 6237TIP3   OH218674   2.211   3.722   0.451  0.8689 -0.3525 -0.0083
 6237TIP3    H118675   2.235   3.654   0.515 -0.2326 -1.0400 -0.2974
 6237TIP3    H218676   2.119   3.740   0.468  0.7245 -0.0820 -0.9884
 6238TIP3   OH218677   4.070   0.833   1.496 -0.3526  0.1206  0.1352
 6238TIP3    H118678   4.045   0.790   1.414  1.5226 -1.5860  0.3980
 6238TIP3    H218679   4.118   0.911   1.468 -0.2594 -0.1172 -0.3830
 6239TIP3   OH218680   3.253   6.293   1.940  0.0016 -0.4039  0.3277
 6239TIP3    H118681   3.326   6.263   1.886 -0.0864 -0.9942  0.5264
 6239TIP3    H218682   3.176   6.284   1.884 -0.1506 -1.4259  0.6720
 6240TIP3   OH218683   3.091   1.868   5.875 -0.3056  0.2534 -0.4674
 6240TIP3    H118684   3.055   1.783   5.903 -0.6470  0.7957  0.7971
 6240TIP3    H218685   3.059   1.878   5.785 -1.1679 -0.4727 -0.2654
 6241TIP3   OH218686   5.601   0.076   5.777  0.2130 -0.0014  0.6951
 6241TIP3    H118687   5.597   0.015   5.703 -1.0005 -1.5896  1.9934
 6241TIP3    H218688   5.657   0.147   5.746  1.8050 -1.8059 -0.8668
 6242TIP3   OH218689   6.219   1.281   4.823  0.2222 -0.1899  0.7479
 6242TIP3    H118690   6.255   1.366   4.849 -1.2928  0.5634  0.4865
 6242TIP3    H218691   6.228   1.279   4.728 -0.9091  0.2568  0.6184
 6243TIP3   OH218692   6.318   1.202   4.007  0.3034 -0.2819 -0.5082
 6243TIP3    H118693   6.402   1.217   4.051 -0.4841  1.0711  0.6155
 6243TIP3    H218694   6.303   1.282   3.957 -1.0514  0.1842  0.5832
 6244TIP3   OH218695   1.879   3.847   1.577  0.2365 -0.4917  0.3767
 6244TIP3    H118696   1.889   3.761   1.619  2.0048 -0.2002  0.6338
 6244TIP3    H218697   1.836   3.901   1.643  1.3979 -0.5135  1.1712
 6245TIP3   OH218698   6.193   0.008   0.411  0.3311 -1.0509 -0.0007
 6245TIP3    H118699   6.148  -0.039   0.481  1.2779 -1.3607  0.4083
 6245TIP3    H218700   6.158   0.097   0.417 -0.3712 -1.3294  0.1774
 6246TIP3   OH218701   1.526   5.629   4.100  0.6669  0.5513  0.3602
 6246TIP3    H118702   1.561   5.645   4.013 -0.6455  0.5621 -0.1859
 6246TIP3    H218703   1.520   5.533   4.106  1.6995  0.5001  0.8453
 6247TIP3   OH218704   3.750   6.747   4.508 -0.1615  0.5749  0.4883
 6247TIP3    H118705   3.690   6.691   4.460 -0.3437 -0.7237  2.1445
 6247TIP3    H218706   3.697   6.785   4.578 -0.2902  3.6674 -1.0904
 6248TIP3   OH218707   4.822   4.917   2.866  0.5064 -0.3434  0.4222
 6248TIP3    H118708   4.912   4.949   2.872 -0.0171  1.0870  1.2372
 6248TIP3    H218709   4.814   4.854   2.937  0.7386 -0.1224  0.6496
 6249TIP3   OH218710   1.288   3.924   0.997 -0.3372 -0.0187  0.0994
 6249TIP3    H118711   1.256   3.935   0.907 -0.2912 -2.3918 -0.2847
 6249TIP3    H218712   1.243   3.845   1.028  0.3831  0.2181  1.8194
 6250TIP3   OH218713   2.088   1.325   0.062 -0.0523  0.3551 -0.6676
 6250TIP3    H118714   2.040   1.367  -0.009 -2.7576 -0.4780  0.5383
 6250TIP3    H218715   2.055   1.367   0.141  0.5926 -0.8643  0.2799
 6251TIP3   OH218716   4.597   5.107   3.072  0.1079  0.5601  0.4519
 6251TIP3    H118717   4.633   5.196   3.076  0.8569  0.3504 -1.0117
 6251TIP3    H218718   4.579   5.093   2.979 -0.0064 -0.8224  0.6679
 6252TIP3   OH218719   0.718   1.175   1.342 -0.4830  0.5725  0.1498
 6252TIP3    H118720   0.759   1.218   1.268  0.4964 -0.2026  0.2260
 6252TIP3    H218721   0.775   1.195   1.416  0.6304 -1.7055 -0.0054
 6253TIP3   OH218722   4.020   4.628   1.400  0.0263  0.9305  0.4595
 6253TIP3    H118723   3.980   4.636   1.486 -1.0141 -2.2986  0.4123
 6253TIP3    H218724   3.949   4.646   1.338  0.5290  2.2939  0.2527
 6254TIP3   OH218725   3.228   5.447   0.509 -0.0193 -1.0972 -0.5616
 6254TIP3    H118726   3.299   5.476   0.565  0.1284 -2.0541 -0.2333
 6254TIP3    H218727   3.267   5.377   0.456 -0.8747 -2.1160  0.1118
 6255TIP3   OH218728   6.103   2.278   4.278 -0.0031 -0.0187  0.2887
 6255TIP3    H118729   6.131   2.283   4.370  0.0387  1.6939  0.2240
 6255TIP3    H218730   6.016   2.239   4.281 -0.0533  0.1478  1.0675
 6256TIP3   OH218731   6.430   5.068   0.255  0.0098 -0.0287  0.2734
 6256TIP3    H118732   6.504   5.008   0.268 -0.1088  0.0909  1.6744
 6256TIP3    H218733   6.468   5.155   0.264 -0.2560  0.0381  0.7906
 6257TIP3   OH218734   5.866   3.365   4.384 -0.0095 -0.0678  0.1826
 6257TIP3    H118735   5.784   3.360   4.434  0.2275 -1.2644  0.4943
 6257TIP3    H218736   5.869   3.282   4.337  1.6125 -0.5650  1.1154
 6258TIP3   OH218737   2.804   3.523   0.706 -0.2912  0.0062  0.0408
 6258TIP3    H118738   2.844   3.438   0.724  0.8398  0.1948 -1.4296
 6258TIP3    H218739   2.717   3.518   0.747  1.2911 -0.2447  3.7720
 6259TIP3   OH218740   2.153   4.686   1.037  0.3475  0.2734 -0.1942
 6259TIP3    H118741   2.164   4.661   1.129  0.3572 -0.8838 -0.4918
 6259TIP3    H218742   2.226   4.745   1.019  1.4162 -0.9305  0.0571
 6260TIP3   OH218743   2.368   3.044   5.310  0.2552  0.2531 -0.7991
 6260TIP3    H118744   2.391   3.072   5.399  1.4207  2.1501 -1.6480
 6260TIP3    H218745   2.394   2.952   5.307  2.4575  0.7741  0.1289
 6261TIP3   OH218746   6.680   0.790   2.676 -0.0037 -0.1463  0.1880
 6261TIP3    H118747   6.721   0.743   2.603  0.1125  0.8793 -0.4282
 6261TIP3    H218748   6.697   0.883   2.658 -2.2962  0.3201  0.0471
 6262TIP3   OH218749   1.018   3.342   0.641  0.3424 -0.1683  0.6121
 6262TIP3    H118750   0.996   3.382   0.556 -0.4558  0.4618  1.1024
 6262TIP3    H218751   1.112   3.325   0.636  0.4251  0.4645 -0.1547
 6263TIP3   OH218752   0.910   4.794   4.521  0.1887  0.3719 -0.0215
 6263TIP3    H118753   0.937   4.741   4.446 -2.7783  1.4023 -1.9860
 6263TIP3    H218754   0.932   4.883   4.496 -2.8762  0.9966 -0.8129
 6264TIP3   OH218755   5.731   4.024   1.015  0.2653 -0.7221  0.3521
 6264TIP3    H118756   5.694   4.026   1.103 -0.0667 -0.0166  0.2029
 6264TIP3    H218757   5.677   4.084   0.964 -0.1306 -1.8096 -0.5781
 6265TIP3   OH218758   3.215   3.337   2.251  0.4947 -0.0804  1.1266
 6265TIP3    H118759   3.279   3.325   2.321  2.7688  0.7340 -0.6978
 6265TIP3    H218760   3.242   3.417   2.207 -0.7067 -0.6813 -0.8197
 6266TIP3   OH218761   6.235   4.762   2.976 -0.6631 -0.2077  0.2050
 6266TIP3    H118762   6.222   4.835   3.036  0.3420 -0.3484  0.6263
 6266TIP3    H218763   6.222   4.684   3.029 -1.0895 -0.3414 -0.0883
 6267TIP3   OH218764   2.791   6.206   5.522 -0.4214  0.2349  0.0555
 6267TIP3    H118765   2.827   6.202   5.433  0.6176  2.5523  0.2790
 6267TIP3    H218766   2.697   6.221   5.509 -1.0016 -3.2011 -0.5548
 6268TIP3   OH218767   3.235   5.960   2.923 -0.2610 -0.2411 -0.5528
 6268TIP3    H118768   3.271   5.874   2.902  0.0306 -0.1781 -0.3361
 6268TIP3    H218769   3.296   5.995   2.988 -0.3233  0.1685 -0.7140
 6269TIP3   OH218770   1.274   5.979   0.072  0.2117  0.1832 -0.2932
 6269TIP3    H118771   1.324   5.902   0.100  1.6375  0.8698 -0.8527
 6269TIP3    H218772   1.187   5.945   0.051 -0.4584 -0.6532  3.1938
 6270TIP3   OH218773   6.836   4.190   1.688  0.2055 -0.0421 -0.1237
 6270TIP3    H118774   6.833   4.161   1.597  2.2469 -0.2481 -0.1826
 6270TIP3    H218775   6.807   4.281   1.685 -0.4540 -0.2567 -0.8462
 6271TIP3   OH218776   6.372   2.697   5.215  0.7648  0.2763 -0.0485
 6271TIP3    H118777   6.422   2.710   5.295 -0.7102  0.0869  0.9447
 6271TIP3    H218778   6.280   2.705   5.242  0.2341  0.4428 -1.7620
 6272TIP3   OH218779   2.175   1.021   4.673  0.0371  0.4354  0.3528
 6272TIP3    H118780   2.196   0.997   4.583  2.2161  0.9310  0.6755
 6272TIP3    H218781   2.114   0.954   4.702  0.9739 -0.9761 -0.8161
 6273TIP3   OH218782   3.407   0.001   0.444  0.3467  0.2195 -0.3740
 6273TIP3    H118783   3.350   0.074   0.468 -1.4036 -0.9155 -0.9426
 6273TIP3    H218784   3.391  -0.014   0.351 -0.2334 -1.6290 -0.0212
 6274TIP3   OH218785   2.710   5.733   2.947 -0.3416 -0.3901 -0.4165
 6274TIP3    H118786   2.717   5.745   3.042  0.0966 -0.5155 -0.4303
 6274TIP3    H218787   2.656   5.807   2.918  0.8358  0.5619 -0.2639
 6275TIP3   OH218788   4.002   4.306   1.799 -0.2048  0.0884  0.2708
 6275TIP3    H118789   3.966   4.256   1.725 -0.5129 -0.8448  1.0367
 6275TIP3    H218790   3.926   4.350   1.837 -0.0409  0.5887  0.0322
 6276TIP3   OH218791   0.525   1.915   4.446 -0.3151 -0.2316  0.6276
 6276TIP3    H118792   0.499   1.833   4.489 -0.6381 -0.6036 -0.2625
 6276TIP3    H218793   0.601   1.945   4.497 -0.5631 -0.7597  1.3352
 6277TIP3   OH218794   1.197   3.431   3.950  0.2307 -0.3894  0.1271
 6277TIP3    H118795   1.222   3.345   3.917 -0.4377  0.1764 -2.0572
 6277TIP3    H218796   1.111   3.448   3.910  1.2533  2.1277 -1.2220
 6278TIP3   OH218797   3.491   3.494   3.514  0.2434 -0.1449  0.0441
 6278TIP3    H118798   3.578   3.467   3.485  0.4598  0.7554 -0.1793
 6278TIP3    H218799   3.493   3.590   3.508 -0.2411 -0.0247  1.5406
 6279TIP3   OH218800   4.766   5.788   2.898  0.0918  0.2645  1.0006
 6279TIP3    H118801   4.816   5.706   2.893 -0.6266 -0.2219  1.5645
 6279TIP3    H218802   4.739   5.794   2.990 -1.9790 -0.1587  0.4672
 6280TIP3   OH218803   5.841   1.810   4.202  0.1937  0.7796  0.1562
 6280TIP3    H118804   5.917   1.852   4.163 -0.1805  1.0678 -0.2665
 6280TIP3    H218805   5.871   1.722   4.226 -0.1858 -0.3159 -2.9588
 6281TIP3   OH218806   4.681   2.249   3.155 -0.2183 -0.2410 -0.1736
 6281TIP3    H118807   4.585   2.249   3.153 -0.3129  1.9794  1.0152
 6281TIP3    H218808   4.704   2.218   3.242  0.0969  0.0707 -0.1406
 6282TIP3   OH218809   1.665   5.646   1.960 -0.5357  0.3449 -0.7816
 6282TIP3    H118810   1.657   5.683   1.872  2.4994  1.9064 -0.5544
 6282TIP3    H218811   1.740   5.585   1.953 -0.1699  0.5892  0.7157
 6283TIP3   OH218812   3.717   1.174   0.876  0.0751 -0.3731 -0.1751
 6283TIP3    H118813   3.812   1.180   0.873  0.0279  0.0735 -0.9316
 6283TIP3    H218814   3.694   1.115   0.804 -0.3634  1.3764 -1.5162
 6284TIP3   OH218815   0.774   2.049   5.262 -0.2790 -0.4495 -0.2237
 6284TIP3    H118816   0.696   2.093   5.228  0.3699 -0.0810 -1.2813
 6284TIP3    H218817   0.789   2.090   5.347 -1.2821 -0.6006  0.0507
 6285TIP3   OH218818   3.705   3.808   3.335 -0.4672  0.1991 -0.2068
 6285TIP3    H118819   3.797   3.791   3.356 -0.7773  0.3758  1.3784
 6285TIP3    H218820   3.708   3.885   3.277  0.4101 -0.1896 -0.7004
 6286TIP3   OH218821   6.411   2.998   2.804 -0.1121  0.6463  0.3896
 6286TIP3    H118822   6.376   2.909   2.799 -1.1246  1.0712 -0.4371
 6286TIP3    H218823   6.468   3.006   2.728 -2.3734  1.6469 -1.2925
 6287TIP3   OH218824   1.244   1.578   2.917  0.0436  0.2941 -0.0686
 6287TIP3    H118825   1.239   1.498   2.970 -0.2372 -0.8577 -1.7306
 6287TIP3    H218826   1.312   1.558   2.852 -0.1034  1.3772 -0.5749
 6288TIP3   OH218827   7.148   5.470   4.031 -0.7206  0.0504 -0.4914
 6288TIP3    H118828   7.155   5.376   4.013 -1.2567 -0.1309  0.2431
 6288TIP3    H218829   7.184   5.480   4.119  0.0508  0.6547 -0.8619
 6289TIP3   OH218830   6.116   6.369   5.815  0.6839 -0.0541  0.4922
 6289TIP3    H118831   6.037   6.377   5.868 -0.1408 -0.0735 -0.6754
 6289TIP3    H218832   6.144   6.278   5.827 -2.2018 -1.5982 -2.6180
 6290TIP3   OH218833   0.806   3.352   4.593  0.2053 -0.4606 -0.7493
 6290TIP3    H118834   0.730   3.313   4.549  0.8055 -0.7655 -1.5506
 6290TIP3    H218835   0.881   3.303   4.559  0.6384 -1.3832  1.3780
 6291TIP3   OH218836   0.145   0.564   5.575  0.2947  0.0458 -0.2278
 6291TIP3    H118837   0.131   0.471   5.594 -1.0637 -0.3223 -2.5829
 6291TIP3    H218838   0.188   0.599   5.653 -1.2070 -2.0480  1.6425
 6292TIP3   OH218839   6.043   3.569   5.218 -0.2359  0.9143  0.2287
 6292TIP3    H118840   6.020   3.625   5.144  3.3598  1.3809 -0.6828
 6292TIP3    H218841   6.063   3.484   5.179 -0.4614  0.4995  0.9855
 6293TIP3   OH218842   2.846   1.259   3.556 -0.1693  0.1882  1.0048
 6293TIP3    H118843   2.781   1.213   3.503 -0.9526  0.5788  1.6125
 6293TIP3    H218844   2.876   1.193   3.618  2.1428 -0.8562 -1.0231
 6294TIP3   OH218845   4.559   3.188   0.222 -0.0797 -0.2657 -0.0454
 6294TIP3    H118846   4.521   3.222   0.141  0.0615  0.7282  0.2894
 6294TIP3    H218847   4.487   3.190   0.285 -0.3375 -1.5484 -0.2615
 6295TIP3   OH218848   5.090   6.565   0.233 -0.0492  0.1914  0.2032
 6295TIP3    H118849   5.040   6.636   0.192 -0.4125 -0.2310 -0.0883
 6295TIP3    H218850   5.044   6.485   0.208  1.2857 -0.2867 -0.8247
 6296TIP3   OH218851   1.103   4.079   3.382  0.2213 -0.3213 -0.5663
 6296TIP3    H118852   1.142   4.096   3.468  1.8090 -3.5488 -0.5058
 6296TIP3    H218853   1.009   4.082   3.398  0.4090  2.0013  0.5769
 6297TIP3   OH218854   2.653   3.217   5.688 -0.3153  0.0575 -0.1236
 6297TIP3    H118855   2.650   3.308   5.659  1.2350 -0.0172 -0.6309
 6297TIP3    H218856   2.733   3.182   5.648 -1.0422 -1.6205 -0.1904
 6298TIP3   OH218857   3.466   5.966   4.213 -0.5811  0.1228  0.2853
 6298TIP3    H118858   3.507   5.910   4.279  1.0899  1.2264  0.2718
 6298TIP3    H218859   3.511   6.051   4.223 -0.5595  0.4548 -1.9633
 6299TIP3   OH218860   3.955   3.552   3.117  0.3127  0.1596  0.1114
 6299TIP3    H118861   3.866   3.581   3.134 -0.0343  0.6130 -2.1257
 6299TIP3    H218862   3.982   3.600   3.039  3.0859  1.1016  1.5064
 6300TIP3   OH218863   6.595   2.009   0.187 -0.5499 -0.0682 -0.9593
 6300TIP3    H118864   6.689   2.017   0.203 -1.2141  1.1089  3.8977
 6300TIP3    H218865   6.573   2.086   0.136  1.1121 -0.5978 -2.5849
 6301TIP3   OH218866   0.203   5.447   3.744 -0.0169  0.4264 -0.1293
 6301TIP3    H118867   0.210   5.493   3.828  1.4520  0.3810 -0.2016
 6301TIP3    H218868   0.145   5.502   3.691 -0.3341  0.8580  0.6453
 6302TIP3   OH218869   6.885   2.068   5.621 -0.0561  0.0272  0.1757
 6302TIP3    H118870   6.887   1.999   5.556  0.8437 -0.2730  0.5067
 6302TIP3    H218871   6.906   2.025   5.704 -1.5165  0.3409  0.7341
 6303TIP3   OH218872   5.077   2.724   0.161  0.0620  0.0698 -0.3288
 6303TIP3    H118873   5.049   2.670   0.087  1.5061 -0.0102 -0.8462
 6303TIP3    H218874   5.041   2.811   0.141 -0.0340 -0.0782 -0.8349
 6304TIP3   OH218875   4.407   1.624   3.495 -0.9072  0.6393  1.0711
 6304TIP3    H118876   4.408   1.701   3.438 -0.9754  0.4020  0.7422
 6304TIP3    H218877   4.484   1.634   3.551  0.1921 -0.0035 -0.2680
 6305TIP3   OH218878   5.532   6.067   5.783  0.4416  0.2110 -0.2095
 6305TIP3    H118879   5.532   6.091   5.691 -0.3439 -0.5245 -0.4254
 6305TIP3    H218880   5.587   5.988   5.787  2.9922  1.9160  0.4844
 6306TIP3   OH218881   0.672   6.596   3.642 -0.1665  0.2740  0.2214
 6306TIP3    H118882   0.622   6.527   3.685  1.0642 -0.5988  0.3016
 6306TIP3    H218883   0.758   6.558   3.628  1.0764  2.3197  1.7429
 6307TIP3   OH218884   2.818   1.095   1.377 -0.4730 -0.1310 -0.3363
 6307TIP3    H118885   2.878   1.058   1.442 -0.4858  0.5829  0.0980
 6307TIP3    H218886   2.866   1.169   1.339 -1.2963  0.8796  0.4966
 6308TIP3   OH218887   6.307   4.457   1.211  0.0721  0.2137  1.0038
 6308TIP3    H118888   6.371   4.391   1.237  0.4426  0.8220  1.6637
 6308TIP3    H218889   6.225   4.409   1.203  0.8943 -0.9450 -1.5915
 6309TIP3   OH218890   3.265   4.189   5.734 -0.3833  0.4352  0.2466
 6309TIP3    H118891   3.196   4.122   5.743  0.3741 -0.7581 -2.0884
 6309TIP3    H218892   3.346   4.142   5.752  0.0613  1.0407 -0.1303
 6310TIP3   OH218893   0.236   5.733   5.322 -0.0341 -0.3219 -1.1294
 6310TIP3    H118894   0.212   5.653   5.369 -0.9472 -0.0067 -1.0455
 6310TIP3    H218895   0.330   5.723   5.304  0.2377 -0.6449  0.3673
 6311TIP3   OH218896   0.042   3.145   2.806  0.0550 -0.4937 -0.0957
 6311TIP3    H118897   0.120   3.192   2.836 -0.2708  0.1576 -0.2535
 6311TIP3    H218898  -0.002   3.207   2.748 -0.0100 -1.2615 -0.8733
 6312TIP3   OH218899   0.511   1.439   2.090  0.4030  0.0988  0.8351
 6312TIP3    H118900   0.483   1.506   2.153 -0.3417  1.5815 -0.9990
 6312TIP3    H218901   0.539   1.488   2.013  0.2320 -1.6957 -0.4290
 6313TIP3   OH218902   6.418   4.056   4.093  0.1885 -0.0333  0.2758
 6313TIP3    H118903   6.496   4.009   4.062 -0.7545 -1.5856  0.1838
 6313TIP3    H218904   6.401   4.121   4.025  1.3032  0.2221  0.2160
 6314TIP3   OH218905   5.584   3.641   2.246 -0.5539 -0.0188 -0.2299
 6314TIP3    H118906   5.621   3.636   2.158  1.4884  0.3636  0.5594
 6314TIP3    H218907   5.564   3.551   2.270  1.1307 -0.4142 -0.2043
 6315TIP3   OH218908   5.989   5.272   2.625  0.0021 -0.0761 -0.6802
 6315TIP3    H118909   5.905   5.281   2.580  0.6505  0.6388 -1.8067
 6315TIP3    H218910   6.054   5.302   2.561  1.3192 -2.4281 -0.5387
 6316TIP3   OH218911   0.275   2.031   1.417 -0.0585  0.1518  0.0018
 6316TIP3    H118912   0.216   2.080   1.359  0.5576  0.7437 -0.1463
 6316TIP3    H218913   0.355   2.084   1.419 -0.0475  0.1224  1.3533
 6317TIP3   OH218914   4.612   4.522   4.569  0.1116  0.6216 -0.1756
 6317TIP3    H118915   4.563   4.579   4.509 -1.5040 -0.3495  0.1565
 6317TIP3    H218916   4.583   4.549   4.656  2.0576  1.6755  0.1833
 6318TIP3   OH218917   6.925   0.888   3.593 -0.2478 -0.0890  0.2708
 6318TIP3    H118918   6.926   0.796   3.619 -0.5633 -0.2226 -0.1685
 6318TIP3    H218919   7.015   0.917   3.604  0.0513 -0.7041 -0.4571
 6319TIP3   OH218920   0.667   1.830   2.603 -0.2665 -0.1778 -0.5200
 6319TIP3    H118921   0.725   1.831   2.679 -1.2998  0.4764  0.2868
 6319TIP3    H218922   0.670   1.919   2.568 -0.1297 -0.3631 -0.9876
 6320TIP3   OH218923   3.969   0.148   3.533 -0.2033  0.3710 -0.0866
 6320TIP3    H118924   3.995   0.166   3.624  1.3294  0.3402 -0.4864
 6320TIP3    H218925   4.050   0.159   3.483 -0.7912 -0.6383 -1.3079
 6321TIP3   OH218926   3.268   0.301   2.682  0.0168 -0.3189 -0.2815
 6321TIP3    H118927   3.203   0.372   2.683  1.4584  1.0827 -1.3078
 6321TIP3    H218928   3.307   0.304   2.770 -1.4047 -1.3166  0.4178
 6322TIP3   OH218929   3.853   2.468   2.792  0.5475 -0.2239 -0.1533
 6322TIP3    H118930   3.854   2.525   2.715  0.1699  0.2764  0.2067
 6322TIP3    H218931   3.911   2.396   2.769  2.0118  0.9161 -0.1440
 6323TIP3   OH218932   6.211   4.669   1.055 -0.1322  0.4311 -0.3286
 6323TIP3    H118933   6.288   4.726   1.056  2.8084 -3.1277 -1.7716
 6323TIP3    H218934   6.225   4.609   1.128 -2.2288  0.4100  0.1158
 6324TIP3   OH218935   1.413   2.419   0.663  0.1880  0.3649 -0.4300
 6324TIP3    H118936   1.440   2.510   0.673 -1.8060  1.0663 -1.0451
 6324TIP3    H218937   1.447   2.393   0.577  1.1582  0.3386 -0.0598
 6325TIP3   OH218938   1.701   5.134   5.371  0.6988  0.3296  0.4999
 6325TIP3    H118939   1.657   5.158   5.452  0.4093 -1.0664  0.7807
 6325TIP3    H218940   1.641   5.163   5.302  0.1416 -0.0154  0.8322
 6326TIP3   OH218941   3.234   5.012   4.494  0.0377 -0.5520  0.5225
 6326TIP3    H118942   3.232   4.986   4.402 -1.1885  1.0922  0.0195
 6326TIP3    H218943   3.142   5.012   4.521  0.3389 -0.5395  1.6117
 6327TIP3   OH218944   2.452   0.265   5.374  0.3413  0.2291 -0.1495
 6327TIP3    H118945   2.406   0.341   5.409 -0.5548 -0.3711  0.0024
 6327TIP3    H218946   2.544   0.292   5.371  0.0343  1.3125 -0.1028
 6328TIP3   OH218947   2.396   1.679   4.494  0.0492  0.4226 -0.7815
 6328TIP3    H118948   2.382   1.679   4.399 -0.8374 -1.5871 -0.7160
 6328TIP3    H218949   2.316   1.718   4.529  0.0324  0.4509 -0.8506
 6329TIP3   OH218950   3.796   0.979   0.254  0.2283  0.0507  0.0608
 6329TIP3    H118951   3.763   0.956   0.167 -0.7688 -0.9179  0.6601
 6329TIP3    H218952   3.750   0.919   0.313  1.0156  0.5743  1.2391
 6330TIP3   OH218953   6.772   5.480   4.531 -0.1190  0.0420 -0.3075
 6330TIP3    H118954   6.813   5.394   4.542 -0.0001  0.0212 -0.8900
 6330TIP3    H218955   6.684   5.461   4.500 -0.5819  0.0893  0.9184
 6331TIP3   OH218956   2.205   5.476   5.876  0.7446 -0.4466  0.4144
 6331TIP3    H118957   2.265   5.547   5.900 -1.3423  1.1995  1.0345
 6331TIP3    H218958   2.152   5.512   5.805 -0.4344 -1.3696  0.8013
 6332TIP3   OH218959   6.791   3.619   3.697 -0.2973 -0.3757 -0.2243
 6332TIP3    H118960   6.850   3.692   3.682 -2.2061  2.1604  3.1849
 6332TIP3    H218961   6.846   3.552   3.738  0.7917  0.6516  0.0329
 6333TIP3   OH218962   5.066   2.865   4.886 -0.2062 -0.3286 -0.5548
 6333TIP3    H118963   4.995   2.915   4.845 -0.1527 -0.3627 -0.6899
 6333TIP3    H218964   5.127   2.931   4.917 -0.0666 -0.3159 -0.8596
 6334TIP3   OH218965   5.016   6.754   1.791  0.1410 -0.2336  0.2844
 6334TIP3    H118966   5.067   6.689   1.840  2.2268  0.0027 -1.4306
 6334TIP3    H218967   5.080   6.817   1.760 -0.8135 -0.8442 -3.4943
 6335TIP3   OH218968   0.871   6.379   4.001  0.1337  0.2959  0.5113
 6335TIP3    H118969   0.965   6.393   4.004  0.0942  0.8220 -0.4086
 6335TIP3    H218970   0.846   6.397   3.910 -0.9891  1.1276  0.9545
 6336TIP3   OH218971   4.802   0.247   1.670 -0.5481  0.0802 -0.5150
 6336TIP3    H118972   4.727   0.266   1.725  0.4521  2.9553  0.0173
 6336TIP3    H218973   4.871   0.219   1.731 -0.7257 -1.1272 -0.8427
 6337TIP3   OH218974   6.517   6.173   1.332  0.4462  0.2029 -0.2534
 6337TIP3    H118975   6.539   6.084   1.360  0.0161  0.4348  0.8610
 6337TIP3    H218976   6.580   6.229   1.377  0.3981  0.5057 -0.5571
 6338TIP3   OH218977   1.655   2.396   4.200  0.0507  0.1309 -0.0270
 6338TIP3    H118978   1.610   2.335   4.258  1.6521 -1.1860 -0.1061
 6338TIP3    H218979   1.664   2.349   4.117 -2.6025  2.1272 -1.6250
 6339TIP3   OH218980   3.213   2.131   3.698 -0.3318  0.0808  0.0605
 6339TIP3    H118981   3.308   2.127   3.682 -0.3315 -2.1346  0.3209
 6339TIP3    H218982   3.177   2.061   3.644 -1.5357 -0.5825  1.6612
 6340TIP3   OH218983   5.806   0.282   0.913 -0.3028 -0.2773  0.0920
 6340TIP3    H118984   5.841   0.367   0.887  0.0054 -0.0591  1.1803
 6340TIP3    H218985   5.766   0.247   0.833 -0.7384  1.0343 -0.2807
 6341TIP3   OH218986   2.908   3.632   1.853 -0.3882  0.0455  0.1676
 6341TIP3    H118987   2.929   3.613   1.944  0.0153 -0.7645 -0.0803
 6341TIP3    H218988   2.973   3.696   1.825  0.5653 -0.9640 -0.0198
 6342TIP3   OH218989   2.048   0.105   4.095 -0.1972 -0.3231 -0.4861
 6342TIP3    H118990   2.069   0.170   4.027 -1.2701 -1.0010 -1.5079
 6342TIP3    H218991   1.952   0.105   4.099 -0.1898 -1.4007 -0.0572
 6343TIP3   OH218992   1.446   0.654   5.522  0.6207 -0.2851 -0.1934
 6343TIP3    H118993   1.351   0.655   5.509  0.6623 -3.5931 -2.0107
 6343TIP3    H218994   1.474   0.743   5.501 -1.9692  0.5543 -0.4796
 6344TIP3   OH218995   1.417   6.383   1.211  0.6189  0.4295 -0.6561
 6344TIP3    H118996   1.426   6.367   1.305  0.5850  2.9798 -0.1304
 6344TIP3    H218997   1.484   6.328   1.171 -0.0330 -1.4721  0.7494
 6345TIP3   OH218998   6.906   0.542   4.485  0.3237  0.3764 -0.2125
 6345TIP3    H118999   6.994   0.504   4.484 -0.1106 -0.6874 -0.8953
 6345TIP3    H219000   6.912   0.616   4.545  1.3184 -0.5758  0.9372
 6346TIP3   OH219001   3.292   1.319   5.291 -0.0831  0.3716  0.2601
 6346TIP3    H119002   3.366   1.311   5.231 -0.6489 -1.3373 -0.2926
 6346TIP3    H219003   3.224   1.263   5.252 -2.2068  2.9349 -0.0355
 6347TIP3   OH219004   5.401   4.337   5.635  0.5264 -0.0913 -0.1883
 6347TIP3    H119005   5.346   4.298   5.568 -0.9293 -0.5277  1.2192
 6347TIP3    H219006   5.354   4.324   5.717  1.4035  1.9794  0.7330
 6348TIP3   OH219007   5.802   0.160   0.042 -0.1576  0.2663  0.1565
 6348TIP3    H119008   5.827   0.176   0.133 -0.4500 -0.6123  0.4064
 6348TIP3    H219009   5.719   0.112   0.048 -0.6547  1.0131 -0.5951
 6349TIP3   OH219010   5.548   6.555   1.197  0.0882 -0.4155  0.0663
 6349TIP3    H119011   5.557   6.470   1.240  0.7094  0.1082  1.0088
 6349TIP3    H219012   5.574   6.619   1.264  1.0955  0.4266 -1.0827
 6350TIP3   OH219013   1.174   5.327   0.159 -0.2749  0.0396 -0.0638
 6350TIP3    H119014   1.170   5.259   0.227 -0.6639 -0.7513 -0.8583
 6350TIP3    H219015   1.085   5.361   0.154  0.1600  1.4811  1.1602
 6351TIP3   OH219016   2.864   4.329   3.290 -0.1977 -0.2776  0.6051
 6351TIP3    H119017   2.792   4.270   3.269 -1.1364  1.5992 -2.0558
 6351TIP3    H219018   2.846   4.359   3.378 -1.4111 -1.5287  0.8235
 6352TIP3   OH219019   0.533   1.573   0.109 -0.1023  0.3225  0.1062
 6352TIP3    H119020   0.523   1.635   0.037 -0.6523 -1.5238 -1.5150
 6352TIP3    H219021   0.450   1.576   0.156  0.0294  1.0922  0.2962
 6353TIP3   OH219022   1.798   1.818   4.738  0.2804  0.4474  0.5793
 6353TIP3    H119023   1.846   1.740   4.764  0.9783  0.8636  0.5814
 6353TIP3    H219024   1.722   1.820   4.795  1.4760  1.0416  2.2345
 6354TIP3   OH219025   6.675   4.396   4.301  0.1805 -0.3538  0.3245
 6354TIP3    H119026   6.608   4.409   4.234  2.2515  0.8001 -1.6860
 6354TIP3    H219027   6.723   4.318   4.272  0.5106 -0.4042  0.9928
 6355TIP3   OH219028   0.320   6.723   0.101  0.0819 -0.9574  0.4453
 6355TIP3    H119029   0.312   6.814   0.129  1.4219  0.1946 -2.5099
 6355TIP3    H219030   0.238   6.705   0.055  0.5545 -0.5298 -0.6165
 6356TIP3   OH219031   2.027   1.618   0.718  0.2592  0.2515  0.0628
 6356TIP3    H119032   2.004   1.557   0.647  0.0361  1.1587 -0.6621
 6356TIP3    H219033   2.083   1.567   0.777  2.7513  0.1999 -2.1560
 6357TIP3   OH219034   6.590   2.092   1.492 -0.2933 -0.2215  0.8061
 6357TIP3    H119035   6.598   2.057   1.581 -3.0273 -0.1100  1.1924
 6357TIP3    H219036   6.640   2.173   1.493 -2.6748  1.3891  3.2663
 6358TIP3   OH219037   3.813   5.692   1.519 -0.2051  0.6093 -0.0167
 6358TIP3    H119038   3.795   5.654   1.432 -3.1398 -0.6392  1.0084
 6358TIP3    H219039   3.783   5.783   1.512 -0.9052  0.3727 -0.2097
 6359TIP3   OH219040   7.088   1.104   0.885  0.5289  0.0288 -0.7880
 6359TIP3    H119041   7.089   1.141   0.973  0.8271 -3.1319  0.6563
 6359TIP3    H219042   6.999   1.070   0.874  1.0820 -1.5126 -0.7730
 6360TIP3   OH219043   7.076   2.534   0.136 -0.2787  0.3388  0.0300
 6360TIP3    H119044   6.996   2.483   0.124 -0.0214  0.0044 -0.2833
 6360TIP3    H219045   7.125   2.521   0.054  1.5181 -1.9336  1.3564
 6361TIP3   OH219046   7.050   1.027   3.940  0.5396 -0.0706 -0.2499
 6361TIP3    H119047   7.144   1.015   3.927  0.6573 -0.7774  1.1563
 6361TIP3    H219048   7.043   1.107   3.991  0.3780 -0.0933 -0.2371
 6362TIP3   OH219049   6.730   4.461   4.558 -0.2280 -0.3184 -0.3817
 6362TIP3    H119050   6.703   4.420   4.476 -0.2953 -1.3977  0.1664
 6362TIP3    H219051   6.740   4.554   4.536 -0.1191 -0.6106 -1.6355
 6363TIP3   OH219052   5.995   4.910   5.752  0.6846 -0.4255  0.3414
 6363TIP3    H119053   6.050   4.851   5.700 -1.0228 -0.4428 -1.5917
 6363TIP3    H219054   5.921   4.856   5.779 -0.3616  0.5266 -0.5333
 6364TIP3   OH219055   0.168   4.717   2.309  0.0885 -0.2322 -0.2138
 6364TIP3    H119056   0.190   4.639   2.360 -0.8956 -0.1381  0.3750
 6364TIP3    H219057   0.083   4.697   2.270 -0.2016  0.5653 -0.0075
 6365TIP3   OH219058   6.335   6.182   4.118 -0.3642  0.5203  0.2915
 6365TIP3    H119059   6.308   6.094   4.091 -2.5366  1.2154  0.0256
 6365TIP3    H219060   6.353   6.227   4.035  0.3323  0.4645  0.4080
 6366TIP3   OH219061   7.073   3.518   4.918 -0.2275  0.3773  0.3880
 6366TIP3    H119062   7.098   3.470   4.839  0.8298 -0.5396  1.2546
 6366TIP3    H219063   7.138   3.589   4.924 -0.0741  0.2152  0.6413
 6367TIP3   OH219064   4.836   3.722   4.426  0.3462 -0.6684 -0.3877
 6367TIP3    H119065   4.758   3.755   4.471 -0.0360 -2.4823  0.3615
 6367TIP3    H219066   4.908   3.774   4.461 -0.1244 -1.1276  1.3710
 6368TIP3   OH219067   5.045   0.995   2.390 -0.0089 -0.0737 -0.0864
 6368TIP3    H119068   5.051   0.906   2.355  2.6700  0.8781 -2.4519
 6368TIP3    H219069   5.011   1.047   2.317  2.8081  1.4965 -0.4261
 6369TIP3   OH219070   5.713   0.108   2.528  0.2360 -0.0917  0.0368
 6369TIP3    H119071   5.658   0.055   2.586  0.5847  0.5372  0.9650
 6369TIP3    H219072   5.794   0.121   2.577  0.1540  1.3065 -0.1579
 6370TIP3   OH219073   4.860   5.888   5.381 -0.2324 -0.3305 -0.0854
 6370TIP3    H119074   4.955   5.892   5.397  0.1456  0.0615 -2.0712
 6370TIP3    H219075   4.821   5.882   5.468  1.5950  0.0550  0.8196
 6371TIP3   OH219076   7.165   3.005   0.159 -0.0580  0.5746  0.1505
 6371TIP3    H119077   7.210   3.071   0.107 -1.5776  0.1922 -1.7955
 6371TIP3    H219078   7.088   3.050   0.193  1.0395  0.8911  2.4183
 6372TIP3   OH219079   6.192   4.023   5.837  0.0950 -0.0887 -0.2888
 6372TIP3    H119080   6.279   4.048   5.867  0.1918  0.2506 -0.8306
 6372TIP3    H219081   6.207   3.987   5.749 -0.1796 -1.0269  0.0377
 6373TIP3   OH219082   6.276   4.981   5.769  0.4840 -0.1410 -0.1499
 6373TIP3    H119083   6.281   5.001   5.675  2.1895  2.5331  0.4168
 6373TIP3    H219084   6.184   4.993   5.790  0.0549 -0.8554 -1.4693
 6374TIP3   OH219085   1.357   4.139   0.605  0.0352  0.2601 -0.3884
 6374TIP3    H119086   1.333   4.231   0.591  0.3921  0.2453 -1.1609
 6374TIP3    H219087   1.274   4.095   0.621  0.0982  1.2243  3.3071
 6375TIP3   OH219088   3.768   5.910   3.501  0.0729 -0.2900  0.3384
 6375TIP3    H119089   3.757   5.854   3.578 -1.0684 -2.5168 -1.3247
 6375TIP3    H219090   3.692   5.968   3.502 -1.5874 -2.3489 -0.6449
 6376TIP3   OH219091   0.775   5.767   1.148 -0.1984  0.1871  0.4142
 6376TIP3    H119092   0.746   5.825   1.078 -0.5480  0.1759  0.5449
 6376TIP3    H219093   0.704   5.771   1.213 -1.8193 -2.8152 -0.9457
 6377TIP3   OH219094   3.511   0.268   3.314  0.2635  0.1415  0.0931
 6377TIP3    H119095   3.533   0.188   3.362 -0.8529 -0.6948 -0.7183
 6377TIP3    H219096   3.567   0.265   3.236  0.6809  0.4850  0.3796
 6378TIP3   OH219097   1.564   4.188   4.134  0.3002  0.3722 -0.2693
 6378TIP3    H119098   1.536   4.270   4.093  0.7831 -0.5172 -2.5499
 6378TIP3    H219099   1.521   4.120   4.082  2.2325 -0.8714 -0.3100
 6379TIP3   OH219100   4.092   2.684   1.401  0.3454 -0.2493  0.1538
 6379TIP3    H119101   4.132   2.764   1.368  0.9749 -0.8722 -0.6537
 6379TIP3    H219102   4.018   2.713   1.454  0.2779  0.8414 -0.5204
 6380TIP3   OH219103   0.770   1.485   0.188 -0.9571 -0.2732 -0.1111
 6380TIP3    H119104   0.686   1.523   0.163  0.4352  1.1678 -3.1980
 6380TIP3    H219105   0.810   1.458   0.105  1.4513 -1.2624  1.2639
 6381TIP3   OH219106   4.220   4.482   2.830 -0.2697  0.2125  0.1436
 6381TIP3    H119107   4.145   4.522   2.785  0.5522  0.2868 -1.1996
 6381TIP3    H219108   4.186   4.462   2.918 -1.6625  0.8528 -0.2078
 6382TIP3   OH219109   1.084   2.547   3.452  0.1284  0.1621  0.0624
 6382TIP3    H119110   1.065   2.549   3.359 -1.2029 -1.7245  0.2484
 6382TIP3    H219111   1.176   2.520   3.457 -0.0487 -0.6279 -0.6958
 6383TIP3   OH219112   5.376   6.423   5.733  0.2859 -0.0219 -0.2715
 6383TIP3    H119113   5.418   6.437   5.648  0.3257  2.2027  0.0576
 6383TIP3    H219114   5.293   6.469   5.727 -0.2106 -0.7783  0.5439
 6384TIP3   OH219115   6.341   2.038   5.327  0.3916  0.3458 -0.0453
 6384TIP3    H119116   6.393   2.073   5.254  0.8904  0.2797  0.2717
 6384TIP3    H219117   6.399   1.975   5.370 -0.5714 -1.0847 -0.7545
 6385TIP3   OH219118   0.722   5.586   3.452 -0.1932 -0.0485 -0.1074
 6385TIP3    H119119   0.726   5.496   3.485  2.5860  0.1985  0.4624
 6385TIP3    H219120   0.711   5.640   3.531 -2.7548  0.1721 -0.5082
 6386TIP3   OH219121   6.077   1.678   4.824  0.1531  0.1730  0.1754
 6386TIP3    H119122   6.054   1.625   4.900  0.8116 -0.0320  0.2330
 6386TIP3    H219123   6.066   1.619   4.749  1.6194 -0.2927  0.3012
 6387TIP3   OH219124   6.127   1.094   5.804  0.6012 -0.4402  0.2093
 6387TIP3    H119125   6.191   1.107   5.733 -0.2797 -0.4139 -0.5929
 6387TIP3    H219126   6.163   1.144   5.878  0.1735  1.8713 -1.0456
 6388TIP3   OH219127   4.685   2.968   2.408  0.0390  0.0438 -0.5699
 6388TIP3    H119128   4.728   3.049   2.381 -0.8401  0.5215 -0.5730
 6388TIP3    H219129   4.614   2.996   2.465 -0.4792 -0.7011 -0.8289
 6389TIP3   OH219130   4.426   1.929   0.066  0.4370  0.1716 -0.1196
 6389TIP3    H119131   4.512   1.893   0.045 -0.3198 -1.3145 -0.8639
 6389TIP3    H219132   4.371   1.852   0.079 -0.8752  1.0935 -0.0140
 6390TIP3   OH219133   1.255   5.226   4.694  0.4785 -0.0005  0.4366
 6390TIP3    H119134   1.294   5.144   4.663 -0.9004 -0.3238 -0.5531
 6390TIP3    H219135   1.231   5.207   4.785  0.5070 -0.5746  0.3297
 6391TIP3   OH219136   1.766   5.279   1.017  0.3952 -0.2739 -0.3791
 6391TIP3    H119137   1.771   5.337   1.093  0.7358  0.0199 -0.6209
 6391TIP3    H219138   1.842   5.221   1.027 -0.9253 -1.8814  0.8163
 6392TIP3   OH219139   6.331   6.489   2.704 -0.3065  0.0124  0.8651
 6392TIP3    H119140   6.251   6.464   2.751  0.9866 -0.0056  3.2197
 6392TIP3    H219141   6.399   6.434   2.742  0.9609  0.4911 -0.6132
 6393TIP3   OH219142   1.648   1.111   4.990  0.2009  0.0192 -0.0260
 6393TIP3    H119143   1.737   1.093   4.960  0.7688  2.3897  0.0143
 6393TIP3    H219144   1.660   1.165   5.068 -1.2913 -0.8759  0.8682
 6394TIP3   OH219145   0.807   6.435   1.890 -0.1761 -0.6267 -0.1371
 6394TIP3    H119146   0.721   6.461   1.856  0.9927  0.5497 -2.4160
 6394TIP3    H219147   0.818   6.487   1.970 -0.3936  1.5612 -1.4399
 6395TIP3   OH219148   5.899   5.548   2.290  0.2679 -0.4710  0.5633
 6395TIP3    H119149   5.937   5.635   2.276  0.2725 -0.5191  0.2707
 6395TIP3    H219150   5.813   5.565   2.328  0.2579 -0.3376  0.4829
 6396TIP3   OH219151   6.766   6.207   1.710  0.5524 -0.3858  0.0286
 6396TIP3    H119152   6.862   6.204   1.704  0.5220  0.4862 -1.2313
 6396TIP3    H219153   6.748   6.187   1.802  2.0395  0.8214  0.6406
 6397TIP3   OH219154   0.002   0.582   2.655 -0.4639 -0.0959 -0.0283
 6397TIP3    H119155  -0.017   0.647   2.722 -1.1352  0.2920 -0.5834
 6397TIP3    H219156   0.088   0.606   2.621 -1.1488  1.1391 -0.9516
 6398TIP3   OH219157   1.706   4.867   0.432 -0.1134  0.5950 -0.5172
 6398TIP3    H119158   1.678   4.795   0.375  1.2110 -0.5225  0.1838
 6398TIP3    H219159   1.711   4.829   0.519  1.6784  1.2038 -0.3025
 6399TIP3   OH219160   4.774   6.597   1.666 -0.1746  0.1520 -0.3249
 6399TIP3    H119161   4.815   6.575   1.582 -0.5908 -1.6400 -0.0869
 6399TIP3    H219162   4.842   6.643   1.715  0.1318  1.0705 -1.5572
 6400TIP3   OH219163   4.831   2.172   0.727 -0.3399 -0.8603  0.5063
 6400TIP3    H119164   4.813   2.197   0.818  1.3271  1.7269  0.2315
 6400TIP3    H219165   4.924   2.152   0.726 -0.3812 -1.0404 -0.6096
 6401TIP3   OH219166   2.327   2.497   0.226 -0.1604  0.3862  0.0899
 6401TIP3    H119167   2.367   2.447   0.297  1.0822 -0.1099 -0.9223
 6401TIP3    H219168   2.316   2.585   0.261  3.8211  1.1659 -0.1805
 6402TIP3   OH219169   0.513   5.584   0.296  1.0010 -0.5034 -0.0576
 6402TIP3    H119170   0.508   5.583   0.392  0.9152 -0.5858 -0.0623
 6402TIP3    H219171   0.579   5.650   0.276 -0.2003  0.7490  0.0030
 6403TIP3   OH219172   5.105   1.221   2.841 -0.1801  0.0578  0.1853
 6403TIP3    H119173   5.040   1.197   2.775 -2.9502 -0.0247  2.7818
 6403TIP3    H219174   5.124   1.313   2.824 -0.3719 -0.1066 -1.0430
 6404TIP3   OH219175   6.500   1.582   0.982 -0.1805 -0.0923  0.6165
 6404TIP3    H119176   6.457   1.630   1.053  0.9351  0.0140  1.2355
 6404TIP3    H219177   6.583   1.554   1.019  0.4395 -0.0146 -0.6686
 6405TIP3   OH219178   5.447   3.723   2.600  0.4673 -0.3038  0.4147
 6405TIP3    H119179   5.518   3.778   2.567  0.8818  0.0791  1.8567
 6405TIP3    H219180   5.460   3.721   2.695 -0.2144 -1.9743  0.5121
 6406TIP3   OH219181   3.671   6.733   2.938  0.4915  0.0622 -0.2197
 6406TIP3    H119182   3.603   6.793   2.970  0.6422  1.3267 -2.1157
 6406TIP3    H219183   3.746   6.751   2.994  0.0216  0.4298  0.3155
 6407TIP3   OH219184   1.587   6.340   3.282 -1.3842 -0.1712  0.4569
 6407TIP3    H119185   1.567   6.417   3.335 -0.6745  0.3366  0.0044
 6407TIP3    H219186   1.597   6.375   3.193 -0.8915 -0.7620  0.2790
 6408TIP3   OH219187   4.014   6.345   1.877  0.6059  0.0901  0.0167
 6408TIP3    H119188   4.049   6.428   1.908 -0.3901  0.1710  0.9603
 6408TIP3    H219189   4.076   6.317   1.809  1.8306  0.8047  0.8050
 6409TIP3   OH219190   7.112   4.143   0.704 -0.1634  0.0579  0.4164
 6409TIP3    H119191   7.177   4.209   0.679 -0.2521  0.1910  0.5331
 6409TIP3    H219192   7.143   4.062   0.663 -0.3082  0.2729 -0.1330
 6410TIP3   OH219193   3.776   3.356   4.722 -0.6355  0.4536 -0.4250
 6410TIP3    H119194   3.707   3.297   4.693 -0.5323  1.0007 -1.8241
 6410TIP3    H219195   3.737   3.403   4.796 -0.4897 -1.8065  1.2265
 6411TIP3   OH219196   0.276   1.816   2.112 -0.0069 -0.3576 -0.2145
 6411TIP3    H119197   0.304   1.800   2.022 -1.8621 -1.9893 -0.5947
 6411TIP3    H219198   0.310   1.742   2.162 -0.1045 -0.1640  0.1468
 6412TIP3   OH219199   0.464   5.477   5.897 -0.7794 -0.2391  0.8572
 6412TIP3    H119200   0.543   5.424   5.886 -1.6549 -1.4730  0.2229
 6412TIP3    H219201   0.431   5.488   5.808 -1.3425  0.2423  1.1231
 6413TIP3   OH219202   3.471   0.763   5.504  0.1418  0.2834  0.4243
 6413TIP3    H119203   3.428   0.808   5.431 -1.1367  0.5806  1.3167
 6413TIP3    H219204   3.491   0.833   5.566 -1.3883 -0.2440  1.5934
 6414TIP3   OH219205   5.084   0.560   5.298 -0.3600  0.1579  0.4061
 6414TIP3    H119206   5.053   0.567   5.388 -1.3872 -0.6912  0.1435
 6414TIP3    H219207   5.174   0.591   5.300 -0.0880 -0.6782  1.8919
 6415TIP3   OH219208   0.256   0.165   2.344 -0.7032 -0.0748  0.5036
 6415TIP3    H119209   0.235   0.073   2.330 -0.1015 -0.4373  1.8598
 6415TIP3    H219210   0.352   0.167   2.351 -0.8375 -0.1373  5.1342
 6416TIP3   OH219211   6.548   5.044   5.739  0.2052 -0.3603  0.2884
 6416TIP3    H119212   6.458   5.027   5.769 -0.5352 -0.9101 -2.0187
 6416TIP3    H219213   6.542   5.126   5.690  0.5623 -1.2615 -1.3258
 6417TIP3   OH219214   4.196   0.961   0.066  0.4178 -0.4651 -0.0783
 6417TIP3    H119215   4.261   0.892   0.078  2.1920  1.3700  1.4987
 6417TIP3    H219216   4.163   0.979   0.154 -0.7558  0.0548 -0.5913
 6418TIP3   OH219217   0.659   4.749   4.676  1.0562 -0.9707  0.1744
 6418TIP3    H119218   0.576   4.742   4.630  1.2517  0.5973 -0.4727
 6418TIP3    H219219   0.717   4.688   4.631  0.5208 -1.3769  0.0314
 6419TIP3   OH219220   0.216   3.950   3.332 -0.3474  0.2265 -0.7942
 6419TIP3    H119221   0.177   4.037   3.344  0.5176  0.4687  0.4257
 6419TIP3    H219222   0.196   3.927   3.241 -4.2662 -0.1637  0.0022
 6420TIP3   OH219223   1.936   6.363   0.788 -0.4464 -0.6062  0.2556
 6420TIP3    H119224   1.861   6.419   0.809  0.8204  1.2447  0.0482
 6420TIP3    H219225   1.983   6.411   0.720  0.7217 -1.9328  0.0944
 6421TIP3   OH219226   3.073   2.019   4.050 -0.4156  0.0499 -0.1495
 6421TIP3    H119227   3.036   1.976   3.973  0.0864 -0.6383 -0.0071
 6421TIP3    H219228   3.010   2.088   4.072 -0.9236 -0.2312 -0.7284
 6422TIP3   OH219229   5.298   2.999   1.855 -0.3347  0.3450 -0.0807
 6422TIP3    H119230   5.270   2.964   1.939 -0.1212  0.8823  0.2153
 6422TIP3    H219231   5.217   3.017   1.808 -0.4574  0.3259  0.1226
 6423TIP3   OH219232   2.713   4.082   0.143  0.6368 -0.5603 -0.1387
 6423TIP3    H119233   2.728   4.104   0.051 -0.5032 -0.2922 -0.2734
 6423TIP3    H219234   2.651   4.009   0.140 -0.4048  0.2723  0.4171
 6424TIP3   OH219235   5.264   2.609   2.281 -0.5954  0.7267 -0.5705
 6424TIP3    H119236   5.189   2.608   2.340 -0.0914 -0.9557  0.1085
 6424TIP3    H219237   5.226   2.606   2.193 -1.4037 -1.9406 -0.2364
 6425TIP3   OH219238   4.251   5.272   5.340 -0.1463 -0.0106 -0.4209
 6425TIP3    H119239   4.197   5.346   5.312 -0.8935  0.7351  2.6377
 6425TIP3    H219240   4.300   5.305   5.415 -0.0930 -2.4373  0.7141
 6426TIP3   OH219241   1.939   4.386   1.348 -0.0715  0.1836 -0.1736
 6426TIP3    H119242   1.870   4.326   1.377  0.2999 -0.7188 -1.0984
 6426TIP3    H219243   2.006   4.379   1.416 -0.4694  0.3468  0.2461
 6427TIP3   OH219244   5.690   3.007   3.169 -0.6635  0.4326 -0.1854
 6427TIP3    H119245   5.608   3.034   3.211 -1.0852  0.1687 -0.8167
 6427TIP3    H219246   5.717   3.083   3.119 -0.4938  0.5369  0.0638
 6428TIP3   OH219247   7.073   5.505   4.963 -0.8069 -0.2663 -0.1968
 6428TIP3    H119248   7.107   5.589   4.992  0.5447 -1.0304  0.5028
 6428TIP3    H219249   7.012   5.478   5.032  0.0754 -0.6527  0.4438
 6429TIP3   OH219250   0.052   2.020   1.881 -0.3130 -0.5002  0.3048
 6429TIP3    H119251   0.046   1.926   1.894 -1.7073 -0.8506 -2.1608
 6429TIP3    H219252   0.116   2.031   1.811  1.1409  0.5686  1.7305
 6430TIP3   OH219253   5.241   0.220   0.587 -0.2776  0.2596 -0.1770
 6430TIP3    H119254   5.325   0.248   0.621 -0.4434 -1.2838  1.6540
 6430TIP3    H219255   5.178   0.241   0.656 -1.2831  0.5999 -1.1510
 6431TIP3   OH219256   4.817   1.383   5.848  0.0538 -0.6024 -0.3754
 6431TIP3    H119257   4.852   1.466   5.816 -1.0861 -0.5057 -1.4502
 6431TIP3    H219258   4.832   1.322   5.776  0.8299 -1.3395  0.3878
 6432TIP3   OH219259   3.636   3.547   2.725  0.4631  0.3203 -0.4167
 6432TIP3    H119260   3.696   3.514   2.793  1.6480  0.8425 -1.1639
 6432TIP3    H219261   3.678   3.627   2.694 -0.5655  0.6124 -1.0902
 6433TIP3   OH219262   6.873   2.551   2.726  0.2378  0.0860 -0.0937
 6433TIP3    H119263   6.960   2.513   2.737  1.3585  1.1391 -3.7136
 6433TIP3    H219264   6.889   2.645   2.716 -1.5339  0.5169  0.7375
 6434TIP3   OH219265   6.016   6.714   2.609 -0.1447  0.1263 -0.5034
 6434TIP3    H119266   5.944   6.652   2.624 -0.7104  0.7468 -0.6126
 6434TIP3    H219267   6.021   6.765   2.689  1.0988 -0.8002  0.0592
 6435TIP3   OH219268   3.628   5.325   4.250  0.3721  0.4035  0.3917
 6435TIP3    H119269   3.596   5.285   4.331  2.1713 -0.4667  0.7166
 6435TIP3    H219270   3.712   5.365   4.274  1.4460 -0.7393 -1.2117
 6436TIP3   OH219271   4.332   4.500   0.417  0.0926 -0.4045 -0.4511
 6436TIP3    H119272   4.371   4.523   0.501  2.0774  1.9772 -1.8897
 6436TIP3    H219273   4.407   4.487   0.359 -1.1421  2.3664 -2.9015
 6437TIP3   OH219274   2.453   4.382   0.571 -0.2993  0.3844  0.5108
 6437TIP3    H119275   2.394   4.456   0.555 -2.4781 -1.3658 -0.1538
 6437TIP3    H219276   2.403   4.323   0.628 -0.0092 -2.0143 -1.5034
 6438TIP3   OH219277   2.091   1.953   4.890  0.5867  0.4008  0.0522
 6438TIP3    H119278   2.010   1.944   4.940  0.7061  0.1975  0.2149
 6438TIP3    H219279   2.133   1.867   4.897  0.4115  0.2390 -0.7452
 6439TIP3   OH219280   4.687   5.992   4.881  0.5016 -0.2441  0.9300
 6439TIP3    H119281   4.627   5.960   4.948  0.3094  1.8912  1.8476
 6439TIP3    H219282   4.630   6.036   4.817  0.6290 -2.6347 -0.9585
 6440TIP3   OH219283   3.085   2.734   3.771 -0.2818  0.0442 -0.2864
 6440TIP3    H119284   3.155   2.729   3.706 -0.2076 -0.8369 -0.1511
 6440TIP3    H219285   3.016   2.677   3.735 -1.4614  1.8415 -1.0363
 6441TIP3   OH219286   0.176   6.056   3.128 -0.2640  0.0226 -0.4461
 6441TIP3    H119287   0.168   5.963   3.146  1.6247 -0.1738 -0.4142
 6441TIP3    H219288   0.204   6.060   3.036  2.1121  0.3726  0.2169
 6442TIP3   OH219289   1.402   6.085   0.520  0.1203 -0.0429  0.5912
 6442TIP3    H119290   1.423   5.992   0.513 -0.1951 -0.0214 -1.0365
 6442TIP3    H219291   1.314   6.087   0.558  0.1814 -0.3930  0.7572
 6443TIP3   OH219292   3.122   4.370   1.986  0.4020 -0.2966 -0.2170
 6443TIP3    H119293   3.115   4.440   2.051  0.1581 -1.9295  1.5823
 6443TIP3    H219294   3.168   4.411   1.913  1.1677  1.4652  1.1723
 6444TIP3   OH219295   6.988   0.732   1.763  0.1434  0.3338  0.1343
 6444TIP3    H119296   6.938   0.658   1.730  3.0465 -1.6983 -0.0705
 6444TIP3    H219297   7.020   0.776   1.684  0.0090  0.6548  0.2565
 6445TIP3   OH219298   2.089   5.360   0.015  0.6481 -0.3102  0.3695
 6445TIP3    H119299   2.101   5.401   0.101  0.0009 -0.8072  0.7063
 6445TIP3    H219300   2.018   5.297   0.029 -0.1934  0.3532 -0.7781
 6446TIP3   OH219301   4.791   5.373   5.668 -0.3065  0.2575 -0.0703
 6446TIP3    H119302   4.806   5.465   5.645 -1.5190  0.2088 -1.1601
 6446TIP3    H219303   4.835   5.362   5.752  1.7942  1.2287 -0.9847
 6447TIP3   OH219304   2.831   4.739   4.767  0.0253  1.0550 -0.0142
 6447TIP3    H119305   2.872   4.703   4.688  0.9615  1.3116  0.3324
 6447TIP3    H219306   2.753   4.685   4.781  0.3036  0.4743 -0.6466
 6448TIP3   OH219307   5.947   1.984   1.383  0.4263  0.0409  0.2900
 6448TIP3    H119308   5.900   1.934   1.450  1.7904 -1.8132 -0.0690
 6448TIP3    H219309   5.911   2.072   1.390 -2.3260 -1.0128  0.7349
 6449TIP3   OH219310   5.925   2.464   3.152 -0.1606  0.2722  0.0628
 6449TIP3    H119311   6.016   2.472   3.180 -0.0274 -0.0640 -0.2593
 6449TIP3    H219312   5.930   2.434   3.061 -0.5649 -2.1304  0.7419
 6450TIP3   OH219313   5.141   1.661   3.632 -0.2710 -0.6739 -0.1660
 6450TIP3    H119314   5.102   1.604   3.565  1.9758 -0.4625 -1.7738
 6450TIP3    H219315   5.175   1.735   3.582 -2.0193  1.5402  1.7276
 6451TIP3   OH219316   6.709   6.763   3.420 -0.2702 -0.4376  0.0622
 6451TIP3    H119317   6.652   6.827   3.464  0.5644  1.3811 -1.3446
 6451TIP3    H219318   6.749   6.713   3.491 -0.4018  1.0904  1.2673
 6452TIP3   OH219319   6.166   3.834   5.302  0.1230  0.2515 -0.2499
 6452TIP3    H119320   6.243   3.836   5.245 -0.6749 -1.4066 -1.4632
 6452TIP3    H219321   6.096   3.870   5.248 -0.2998  0.1699  0.2441
 6453TIP3   OH219322   4.830   6.640   0.938  0.3363 -0.1047  0.0319
 6453TIP3    H119323   4.794   6.564   0.893  1.3439 -0.2122 -0.6266
 6453TIP3    H219324   4.757   6.702   0.942 -0.4438 -1.0123  0.4076
 6454TIP3   OH219325   3.883   2.197   0.295 -0.0680  0.2388 -0.1068
 6454TIP3    H119326   3.890   2.102   0.305 -0.8593  0.2328  0.6405
 6454TIP3    H219327   3.859   2.210   0.204 -0.5380 -0.3297 -0.0732
 6455TIP3   OH219328   1.870   3.173   0.079 -0.7923 -0.0319  0.3537
 6455TIP3    H119329   1.915   3.155   0.162 -1.7219 -0.8162  0.7092
 6455TIP3    H219330   1.941   3.183   0.015 -0.0841 -0.2414  1.0817
 6456TIP3   OH219331   5.731   2.930   4.898  0.2514 -0.1780 -0.4558
 6456TIP3    H119332   5.637   2.922   4.883  0.5666 -0.1833 -2.8808
 6456TIP3    H219333   5.744   2.903   4.989 -2.2421  1.3248  0.4335
 6457TIP3   OH219334   0.048   1.636   0.868 -0.6918 -1.1477  0.1195
 6457TIP3    H119335   0.086   1.684   0.941  2.3011 -1.2378 -1.2431
 6457TIP3    H219336  -0.019   1.695   0.832  1.2133  1.0555 -0.0480
 6458TIP3   OH219337   1.870   6.443   2.263 -0.3102 -0.3833 -0.1191
 6458TIP3    H119338   1.923   6.434   2.185  0.0318  0.1443  0.0533
 6458TIP3    H219339   1.888   6.363   2.313 -0.5623 -0.7413 -0.5888
 6459TIP3   OH219340   7.101   5.883   5.557 -0.1573 -0.1200  0.1671
 6459TIP3    H119341   7.084   5.978   5.555  0.6682  0.0657  1.1517
 6459TIP3    H219342   7.124   5.865   5.648 -0.3005 -1.2756 -0.0143
 6460TIP3   OH219343   1.545   1.214   2.721 -0.0948  0.0918 -0.0795
 6460TIP3    H119344   1.568   1.248   2.807 -1.7694 -2.6809  1.6133
 6460TIP3    H219345   1.628   1.189   2.681  0.7550  1.9777  0.4097
 6461TIP3   OH219346   0.218   0.877   2.596 -0.2582 -0.3388 -0.2786
 6461TIP3    H119347   0.160   0.948   2.626  2.4509  3.2809 -2.7667
 6461TIP3    H219348   0.187   0.856   2.508  0.6566 -0.1610 -0.6524
 6462TIP3   OH219349   2.336   3.003   4.074 -0.3639 -0.4209 -0.2223
 6462TIP3    H119350   2.277   3.070   4.037  0.8169 -0.1750 -1.7814
 6462TIP3    H219351   2.374   2.961   3.997  0.2263 -1.7229  0.7582
 6463TIP3   OH219352   4.441   2.014   5.638  0.4701 -0.5089 -0.2937
 6463TIP3    H119353   4.529   2.038   5.667  0.4210 -0.6043 -0.0674
 6463TIP3    H219354   4.427   2.067   5.559 -0.0186  0.9974  0.7553
 6464TIP3   OH219355   0.080   1.919   3.465  0.4716  0.3572  0.1163
 6464TIP3    H119356   0.036   1.999   3.493  2.0501  1.7025 -1.0716
 6464TIP3    H219357   0.057   1.855   3.532  0.0534  2.0884  1.7202
 6465TIP3   OH219358   5.653   4.388   2.618  0.4702  0.3272  0.2030
 6465TIP3    H119359   5.570   4.347   2.591  1.2698 -0.7111 -0.7824
 6465TIP3    H219360   5.645   4.398   2.713 -0.0336 -1.5599  0.4054
 6466TIP3   OH219361   0.104   4.198   0.376 -0.1705  0.9931 -0.6491
 6466TIP3    H119362   0.108   4.245   0.294  0.1314  0.8900 -0.6933
 6466TIP3    H219363   0.028   4.140   0.367  0.6608 -0.0118 -1.3895
 6467TIP3   OH219364   5.695   1.810   1.471 -0.0305 -0.0380  0.5551
 6467TIP3    H119365   5.655   1.751   1.408  0.0010 -0.0052  0.5048
 6467TIP3    H219366   5.669   1.897   1.443 -0.2416 -0.0375  0.7430
 6468TIP3   OH219367   6.463   0.234   3.161 -0.2497  0.1009 -0.2408
 6468TIP3    H119368   6.520   0.295   3.208 -0.5285 -0.7543  1.2827
 6468TIP3    H219369   6.396   0.210   3.225 -0.4023 -1.4373 -0.9364
 6469TIP3   OH219370   3.770   6.562   2.745 -0.5029  0.8327  0.1887
 6469TIP3    H119371   3.740   6.614   2.670  0.3120  1.8563  0.5443
 6469TIP3    H219372   3.777   6.626   2.817  0.4967  0.2295  0.6454
 6470TIP3   OH219373   1.441   0.499   5.745  0.1616  0.5708 -0.1756
 6470TIP3    H119374   1.447   0.553   5.666 -2.8438 -0.0085 -0.9601
 6470TIP3    H219375   1.466   0.411   5.716  1.5820  0.8217  0.2169
 6471TIP3   OH219376   0.363   1.936   3.671 -0.8383  0.1036  0.0781
 6471TIP3    H119377   0.376   1.946   3.765 -0.2355  0.9552 -0.0866
 6471TIP3    H219378   0.352   2.025   3.638  1.1836  0.0296 -0.9636
 6472TIP3   OH219379   2.539   4.226   5.246 -0.0110  0.2687  0.1965
 6472TIP3    H119380   2.542   4.185   5.160  2.3121  0.2134  0.2377
 6472TIP3    H219381   2.539   4.320   5.229  2.3370  0.3102  0.0491
 6473TIP3   OH219382   2.220   1.522   1.415 -0.2750  0.7252  0.6422
 6473TIP3    H119383   2.269   1.587   1.364 -0.2009  0.7967  0.8024
 6473TIP3    H219384   2.169   1.574   1.477 -0.7840  0.6640  0.2821
 6474TIP3   OH219385   6.408   4.120   3.708  0.7692 -0.5615  0.0482
 6474TIP3    H119386   6.333   4.100   3.651  0.6462  0.6871 -0.2529
 6474TIP3    H219387   6.368   4.139   3.794  0.8591 -1.2440  0.2468
 6475TIP3   OH219388   0.553   2.410   5.245 -0.5553  0.4406  0.3316
 6475TIP3    H119389   0.496   2.479   5.211  1.9697  2.7822  0.5014
 6475TIP3    H219390   0.557   2.345   5.175  1.3569  3.2209 -2.3869
 6476TIP3   OH219391   1.548   4.186   2.020  0.1249 -0.2929 -0.0351
 6476TIP3    H119392   1.490   4.255   1.988  0.6172 -0.4205 -1.2247
 6476TIP3    H219393   1.492   4.109   2.029 -0.6651  0.4527  2.2666
 6477TIP3   OH219394   3.843   1.134   2.178 -0.2869 -0.2779  0.2026
 6477TIP3    H119395   3.792   1.163   2.254 -0.6122  0.1563 -0.1738
 6477TIP3    H219396   3.897   1.063   2.211  1.1354  1.2779  1.3601
 6478TIP3   OH219397   4.659   6.248   5.459  0.0285 -0.9992  0.2520
 6478TIP3    H119398   4.617   6.202   5.531  0.1348 -0.5068  0.6343
 6478TIP3    H219399   4.590   6.303   5.422  0.3320 -0.1459  0.9169
 6479TIP3   OH219400   5.032   6.001   3.414  0.4463  0.5075  0.4344
 6479TIP3    H119401   5.007   5.965   3.499  1.0349 -0.6462  0.1451
 6479TIP3    H219402   5.123   5.976   3.403  0.8208  1.9168  0.0903
 6480TIP3   OH219403   1.868   1.749   1.676  0.3125 -0.1164  0.1090
 6480TIP3    H119404   1.852   1.843   1.682  0.2526 -0.1955  2.0283
 6480TIP3    H219405   1.833   1.714   1.759 -2.0202 -2.1922 -1.5931
 6481TIP3   OH219406   4.746  -0.031   4.566 -0.0272 -0.4738  0.1748
 6481TIP3    H119407   4.740   0.036   4.634 -0.3939 -1.2734  0.9399
 6481TIP3    H219408   4.761   0.019   4.486  0.9771  0.4632  0.9016
 6482TIP3   OH219409   0.927   2.645   4.818  0.6997  0.2582  0.2713
 6482TIP3    H119410   0.847   2.690   4.843  0.2480  0.0919 -0.8109
 6482TIP3    H219411   0.993   2.715   4.812 -0.0243  0.8421 -1.5343
 6483TIP3   OH219412   4.097   1.719   1.651  0.2041  0.0550  0.3284
 6483TIP3    H119413   4.123   1.669   1.728  1.2454  1.5114  0.9797
 6483TIP3    H219414   4.178   1.731   1.601 -0.6603 -1.9252 -1.7028
 6484TIP3   OH219415   1.974   6.620   5.815 -0.0444 -0.4057 -0.1989
 6484TIP3    H119416   1.918   6.571   5.875 -0.5088 -0.0232 -0.3183
 6484TIP3    H219417   1.931   6.705   5.806 -0.0469 -0.5035 -1.1782
 6485TIP3   OH219418   1.457   0.196   5.722 -0.0044 -0.0245 -0.0952
 6485TIP3    H119419   1.365   0.194   5.749  0.0662  1.4291  0.3114
 6485TIP3    H219420   1.458   0.154   5.636 -1.1622  0.5774 -0.4104
 6486TIP3   OH219421   5.014   0.164   1.793  0.2731  0.7338 -0.3638
 6486TIP3    H119422   4.975   0.140   1.877 -3.8260 -0.3284 -2.2970
 6486TIP3    H219423   5.015   0.083   1.743  3.1042  1.2343 -1.2842
 6487TIP3   OH219424   2.557   4.498   5.168 -0.9801 -0.3475  0.3700
 6487TIP3    H119425   2.509   4.558   5.109  0.8834 -1.1331 -2.1072
 6487TIP3    H219426   2.598   4.556   5.232 -2.3205  0.6488  0.3753
 6488TIP3   OH219427   1.345   1.496   0.498 -0.3649 -0.0807 -0.3616
 6488TIP3    H119428   1.403   1.429   0.462  2.0045  1.4413  0.4254
 6488TIP3    H219429   1.386   1.579   0.475 -2.2122  1.0731  0.3147
 6489TIP3   OH219430   4.176   1.113   3.759 -0.0452  0.1346 -0.1398
 6489TIP3    H119431   4.242   1.044   3.761  0.0952  0.2765  0.1603
 6489TIP3    H219432   4.226   1.194   3.770 -0.2667  0.2417  0.0821
 6490TIP3   OH219433   0.055   5.533   1.518 -0.4438  0.8404  1.2704
 6490TIP3    H119434   0.035   5.530   1.425 -1.0684  0.0102  1.4156
 6490TIP3    H219435   0.085   5.444   1.539  0.8956  1.3359  1.6173
 6491TIP3   OH219436   4.092   2.007   0.584  0.1512 -0.1957 -0.2340
 6491TIP3    H119437   4.186   2.023   0.585  0.1890 -0.4164  0.4909
 6491TIP3    H219438   4.074   1.975   0.496  1.0303 -1.6298  0.0673
 6492TIP3   OH219439   2.248   3.528   4.886  0.2567  0.2551  0.7888
 6492TIP3    H119440   2.333   3.557   4.853 -1.1988  2.9377 -0.9783
 6492TIP3    H219441   2.212   3.605   4.931 -1.3882 -0.6933  1.1627
 6493TIP3   OH219442   1.578   1.805   3.629 -0.2843 -0.5913 -0.4605
 6493TIP3    H119443   1.483   1.809   3.642 -0.3983  1.2702 -1.4902
 6493TIP3    H219444   1.610   1.891   3.658  1.2270 -1.4761  0.6625
 6494TIP3   OH219445   4.330   4.855   2.777  0.1855 -0.6951  0.3819
 6494TIP3    H119446   4.409   4.849   2.723  0.0298 -2.9102  0.2795
 6494TIP3    H219447   4.271   4.789   2.740 -0.2082 -1.8206  2.7903
 6495TIP3   OH219448   6.897   5.211   3.302 -0.3697  0.6237  0.2589
 6495TIP3    H119449   6.944   5.177   3.226  1.2329  0.8475  1.1184
 6495TIP3    H219450   6.947   5.181   3.377  0.0353  3.1858  1.1183
 6496TIP3   OH219451   3.844   2.432   3.494  0.4930  0.0595 -0.4125
 6496TIP3    H119452   3.767   2.489   3.487  0.3760 -0.2403 -2.0631
 6496TIP3    H219453   3.834   2.388   3.578 -0.2779  1.2398  0.1394
 6497TIP3   OH219454   4.827   2.762   1.051  0.0303 -0.4706 -0.6567
 6497TIP3    H119455   4.869   2.715   1.124 -0.1198  1.8372  1.0256
 6497TIP3    H219456   4.742   2.720   1.043 -0.0103 -0.6943  0.6131
 6498TIP3   OH219457   6.884   2.197   4.530 -0.2244  0.5462  0.1260
 6498TIP3    H119458   6.895   2.270   4.591 -0.8280  2.2602 -1.7265
 6498TIP3    H219459   6.926   2.123   4.574 -2.1421  1.2074  3.3842
 6499TIP3   OH219460   1.203   4.658   1.949  0.3556 -0.4723  0.0873
 6499TIP3    H119461   1.249   4.726   1.999 -1.3563  0.1667  0.8799
 6499TIP3    H219462   1.191   4.696   1.862 -0.1620  0.0528  0.3831
 6500TIP3   OH219463   5.346   5.865   0.118  0.4459 -0.0093  0.4159
 6500TIP3    H119464   5.261   5.833   0.090  0.7596  1.3991 -2.5057
 6500TIP3    H219465   5.326   5.926   0.190 -1.2251  1.3424 -1.0974
 6501TIP3   OH219466   2.581   5.142   0.270  0.3025  0.0455 -0.1475
 6501TIP3    H119467   2.529   5.145   0.190 -0.0661  1.7962  0.1292
 6501TIP3    H219468   2.587   5.048   0.290 -3.2274 -0.2446  0.1366
 6502TIP3   OH219469   4.151   6.196   2.548  0.6125  0.1019 -0.0462
 6502TIP3    H119470   4.109   6.167   2.467  2.6180  0.6877 -1.3910
 6502TIP3    H219471   4.080   6.233   2.600 -0.5376  1.3057 -2.2960
 6503TIP3   OH219472   1.932   6.565   3.217 -0.3809 -0.1228  0.1119
 6503TIP3    H119473   2.020   6.602   3.225 -0.7213  0.3807  2.1685
 6503TIP3    H219474   1.947   6.473   3.195  0.6069  0.1688 -0.5350
 6504TIP3   OH219475   4.656   6.111   1.938 -0.2641  0.4792  0.4633
 6504TIP3    H119476   4.636   6.107   2.032  2.3747 -0.4517  1.0812
 6504TIP3    H219477   4.688   6.201   1.925 -1.4100  0.8654  0.2539
 6505TIP3   OH219478   2.213   3.266   2.644  0.0039 -0.7100 -0.3980
 6505TIP3    H119479   2.152   3.303   2.581 -2.2551 -0.4320  1.8087
 6505TIP3    H219480   2.206   3.171   2.630 -0.5255 -0.6540 -0.5504
 6506TIP3   OH219481   1.394   3.646   4.961 -0.3158  0.1123  0.2424
 6506TIP3    H119482   1.430   3.734   4.968  1.7541 -0.5604 -1.1954
 6506TIP3    H219483   1.452   3.591   5.014  0.9083 -0.9829 -2.0755
 6507TIP3   OH219484   0.185   4.893   1.473  0.4036 -0.6704  0.0539
 6507TIP3    H119485   0.094   4.895   1.444 -0.0067  0.7368  1.2865
 6507TIP3    H219486   0.194   4.809   1.518  0.0779 -1.3393 -1.0919
 6508TIP3   OH219487   2.409   2.371   1.405  0.1938 -0.3394  0.7486
 6508TIP3    H119488   2.338   2.434   1.403 -2.9246 -3.5682 -0.4919
 6508TIP3    H219489   2.427   2.351   1.313  2.5880  0.1085  1.0341
 6509TIP3   OH219490   5.184   1.140   3.363  0.1838 -0.1116  0.1811
 6509TIP3    H119491   5.209   1.177   3.447  0.3731  0.2867 -0.0456
 6509TIP3    H219492   5.135   1.060   3.384  1.8735 -1.0735  0.6467
 6510TIP3   OH219493   7.000   3.542   4.452  0.0341  0.4333 -0.5224
 6510TIP3    H119494   7.028   3.486   4.379  1.6854  1.2099 -0.5279
 6510TIP3    H219495   6.918   3.582   4.423  0.3789  0.2920 -1.7127
 6511TIP3   OH219496   6.488   1.768   2.277  0.2924  0.1824 -0.0694
 6511TIP3    H119497   6.492   1.810   2.191 -0.3150 -1.1949 -0.7933
 6511TIP3    H219498   6.570   1.719   2.285  0.1356 -0.0833 -0.0747
 6512TIP3   OH219499   4.002   5.577   0.030  0.1939  0.1143  0.5575
 6512TIP3    H119500   4.007   5.631   0.110 -3.0543 -0.1054  1.0682
 6512TIP3    H219501   3.919   5.604  -0.011 -0.0002 -2.3246 -0.8221
 6513TIP3   OH219502   4.129   1.104   2.821 -0.4958  0.1064  0.5863
 6513TIP3    H119503   4.192   1.078   2.754 -1.4816  0.6414 -0.5747
 6513TIP3    H219504   4.066   1.032   2.824  0.0538 -0.3490  1.6231
 6514TIP3   OH219505   3.755   5.370   3.407  0.0218 -0.3618  0.1804
 6514TIP3    H119506   3.824   5.418   3.361  1.1532 -0.9026  1.2580
 6514TIP3    H219507   3.767   5.279   3.382 -0.7255 -0.3810 -0.1376
 6515TIP3   OH219508   6.407   1.675   2.534  0.2059  0.1469  0.6112
 6515TIP3    H119509   6.422   1.587   2.501  0.4373  0.1433  0.7203
 6515TIP3    H219510   6.431   1.732   2.461  0.4218  0.1307  0.6702
 6516TIP3   OH219511   1.783   5.896   1.864 -0.0187  0.6866  0.1402
 6516TIP3    H119512   1.863   5.843   1.858 -0.1021  0.4752  0.7967
 6516TIP3    H219513   1.813   5.983   1.889  0.2075  1.2260 -1.8431
 6517TIP3   OH219514   2.587   2.976   0.203  0.3177  0.1767 -0.1674
 6517TIP3    H119515   2.554   2.979   0.293  0.9855  0.3379  0.0754
 6517TIP3    H219516   2.578   2.884   0.178 -1.1416  0.3646 -0.4305
 6518TIP3   OH219517   0.488   0.901   2.562  0.1031 -0.1230 -0.5348
 6518TIP3    H119518   0.400   0.871   2.582 -0.0442  0.1038 -0.8273
 6518TIP3    H219519   0.543   0.823   2.571 -0.0273 -0.1259  0.2672
 6519TIP3   OH219520   0.313   5.199   5.666  0.2845 -0.6498 -0.6029
 6519TIP3    H119521   0.391   5.221   5.617  1.6347 -2.1214  0.7673
 6519TIP3    H219522   0.279   5.283   5.697  1.5301 -0.0099 -0.9218
 6520TIP3   OH219523   6.416   4.896   5.177 -0.1116 -0.3389 -0.4223
 6520TIP3    H119524   6.487   4.960   5.172 -0.3726 -0.0201 -0.0797
 6520TIP3    H219525   6.414   4.855   5.090 -0.5148  0.7335 -0.9375
 6521TIP3   OH219526   2.591   6.383   5.085 -0.6634 -0.0606 -0.5566
 6521TIP3    H119527   2.539   6.342   5.016 -0.9574  0.6436 -0.7689
 6521TIP3    H219528   2.529   6.442   5.129 -0.2261  0.2366 -0.3313
 6522TIP3   OH219529   1.838   3.840   5.789 -0.5237 -0.0806 -0.0921
 6522TIP3    H119530   1.823   3.749   5.764 -2.3395 -0.4551  1.9919
 6522TIP3    H219531   1.754   3.869   5.824  0.9199  1.2356  2.5953
 6523TIP3   OH219532   4.506   5.691   1.082  0.3430  1.0917 -0.0895
 6523TIP3    H119533   4.506   5.725   1.172 -1.8482  0.5460  0.1648
 6523TIP3    H219534   4.521   5.768   1.027  1.0666  1.5335  0.7066
 6524TIP3   OH219535   0.120   0.483   3.299 -0.5740 -0.2400  0.4609
 6524TIP3    H119536   0.149   0.568   3.332  0.2526  0.0694 -0.9862
 6524TIP3    H219537   0.027   0.480   3.320 -0.6938  1.1761  0.2554
 6525TIP3   OH219538   6.086   4.482   1.913 -0.3318 -0.4244  0.0284
 6525TIP3    H119539   6.118   4.549   1.853  1.5478 -0.2799  1.1165
 6525TIP3    H219540   6.029   4.529   1.973 -0.3023 -0.1117 -0.1882
 6526TIP3   OH219541   2.328   1.751   2.098 -0.4831 -0.6935  0.3362
 6526TIP3    H119542   2.336   1.669   2.147  0.5375 -0.8829 -0.1153
 6526TIP3    H219543   2.396   1.808   2.135 -1.0102 -0.1425  0.4664
 6527TIP3   OH219544   3.566   2.004   5.743 -0.1620  0.0632 -0.6117
 6527TIP3    H119545   3.515   1.925   5.758  0.4103 -0.5104 -1.5710
 6527TIP3    H219546   3.643   1.995   5.799  0.8675 -1.0192 -2.1001
 6528TIP3   OH219547   5.808   1.441   5.387 -1.0618  0.0907  0.1447
 6528TIP3    H119548   5.826   1.443   5.481  1.1750  0.0819 -0.2352
 6528TIP3    H219549   5.848   1.521   5.353  0.1687 -1.0041 -1.0938
 6529TIP3   OH219550   3.764   0.027   4.608  0.4415 -0.2108  0.1054
 6529TIP3    H119551   3.822   0.103   4.609 -1.3726  1.2489  1.4905
 6529TIP3    H219552   3.741   0.012   4.700 -1.6153 -0.4914 -0.3950
 6530TIP3   OH219553   7.232   3.966   4.630 -0.2233  0.0647  0.0787
 6530TIP3    H119554   7.162   3.904   4.609  1.5276 -1.2256 -2.4544
 6530TIP3    H219555   7.197   4.051   4.602 -0.7986 -0.5619 -1.2175
 6531TIP3   OH219556   3.360   1.848   4.428 -0.4825  0.1850 -0.4022
 6531TIP3    H119557   3.279   1.825   4.474 -0.6190 -0.0066 -0.7348
 6531TIP3    H219558   3.330   1.878   4.342 -0.3578  1.9987  0.1331
 6532TIP3   OH219559   2.233   6.206   5.857  0.3149  0.9390  0.2883
 6532TIP3    H119560   2.291   6.258   5.912  0.7835  1.0675 -0.3142
 6532TIP3    H219561   2.284   6.187   5.778 -0.2635  0.5728 -0.0127
 6533TIP3   OH219562   6.128   0.764   0.788  0.0232  0.2275  0.0888
 6533TIP3    H119563   6.217   0.792   0.770 -0.0758 -0.1044 -1.0154
 6533TIP3    H219564   6.073   0.832   0.749 -0.2159 -1.2852 -2.4571
 6534TIP3   OH219565   1.915   4.021   3.951  0.1786 -0.5232 -0.0699
 6534TIP3    H119566   1.819   4.017   3.950  0.1377  0.1777 -0.4746
 6534TIP3    H219567   1.936   4.083   4.021  0.2826  0.0891 -0.6296
 6535TIP3   OH219568   3.360   5.471   4.068  0.5341  0.2139 -0.1145
 6535TIP3    H119569   3.434   5.425   4.107 -0.1729 -0.7576  0.1141
 6535TIP3    H219570   3.340   5.423   3.987  0.6531  0.9525 -0.6007
 6536TIP3   OH219571   0.220   1.404   5.543  0.2210  0.0059  0.6293
 6536TIP3    H119572   0.223   1.489   5.586  2.5695 -0.6272  1.9217
 6536TIP3    H219573   0.251   1.421   5.454  0.6476  0.5466  0.8730
 6537TIP3   OH219574   0.570   5.092   5.169 -0.2946 -0.2270  0.9063
 6537TIP3    H119575   0.501   5.155   5.183 -0.2289 -0.0366  0.4124
 6537TIP3    H219576   0.591   5.099   5.075  0.9832  0.3354  1.2080
 6538TIP3   OH219577   3.384   4.536   0.992  0.2267  0.4976 -0.3894
 6538TIP3    H119578   3.292   4.529   1.016 -0.0319  2.1427 -0.7949
 6538TIP3    H219579   3.385   4.530   0.897  0.4280  1.3725 -0.4516
 6539TIP3   OH219580   4.528   5.291   5.182 -0.5308 -0.2269 -0.4049
 6539TIP3    H119581   4.577   5.292   5.265  1.0281 -0.4437 -1.2893
 6539TIP3    H219582   4.462   5.359   5.193 -1.0589 -0.9658  1.4075
 6540TIP3   OH219583   2.065   1.049   0.584 -0.0053 -0.2763  0.0814
 6540TIP3    H119584   1.992   0.988   0.572  0.6295 -0.8400 -1.0766
 6540TIP3    H219585   2.094   1.069   0.495  0.7304  0.5861  0.5027
 6541TIP3   OH219586   3.204   3.211   0.839  0.0803 -0.5315 -0.3142
 6541TIP3    H119587   3.134   3.175   0.785  0.4231  0.2205 -1.2895
 6541TIP3    H219588   3.222   3.298   0.801 -0.0838  0.2806  1.3774
 6542TIP3   OH219589   0.881   2.454   0.133 -0.6335 -0.4891 -0.1241
 6542TIP3    H119590   0.875   2.462   0.038 -1.2708  0.0339 -0.0429
 6542TIP3    H219591   0.973   2.471   0.153 -0.5179 -0.5033 -0.6312
 6543TIP3   OH219592   6.244   3.754   0.457 -0.2605 -0.0911 -0.2002
 6543TIP3    H119593   6.180   3.771   0.388  0.7504  1.9073 -0.7057
 6543TIP3    H219594   6.279   3.840   0.480  1.3130 -0.9844  0.9659
 6544TIP3   OH219595   4.597   2.614   2.407  0.1271 -0.8235  0.2936
 6544TIP3    H119596   4.544   2.548   2.363  0.7052 -0.5638 -0.8219
 6544TIP3    H219597   4.551   2.696   2.392  1.5697 -0.3576 -2.0154
 6545TIP3   OH219598   0.774   0.631   1.817 -0.5102 -0.3985  0.7949
 6545TIP3    H119599   0.774   0.717   1.860  0.8931 -1.3249  2.7962
 6545TIP3    H219600   0.695   0.632   1.763 -0.0161  2.5115 -0.0642
 6546TIP3   OH219601   4.779   4.734   1.710 -0.1355 -0.3748  0.2417
 6546TIP3    H119602   4.702   4.687   1.743  0.0904 -1.1773 -0.3410
 6546TIP3    H219603   4.826   4.761   1.789  0.2318 -2.0019  0.6125
 6547TIP3   OH219604   0.293   0.179   1.379 -0.0563 -0.1561  0.3151
 6547TIP3    H119605   0.297   0.226   1.462 -0.2034  0.3360  0.0465
 6547TIP3    H219606   0.201   0.185   1.352  0.3808  1.6238 -0.9733
 6548TIP3   OH219607   2.610   1.768   4.794 -0.1983  0.4826 -0.3013
 6548TIP3    H119608   2.522   1.740   4.821 -0.2888  1.0773  0.0562
 6548TIP3    H219609   2.596   1.855   4.755  0.1694  0.3717 -0.6813
 6549TIP3   OH219610   6.279   0.323   4.582  0.2047  0.1519 -0.0519
 6549TIP3    H119611   6.197   0.315   4.631 -0.2883 -1.6168 -1.0847
 6549TIP3    H219612   6.347   0.316   4.649 -0.4688 -0.6113  0.5708
 6550TIP3   OH219613   4.628   6.724   2.809  0.5130 -0.3486  0.7997
 6550TIP3    H119614   4.663   6.674   2.883  1.0582  0.0205  0.7898
 6550TIP3    H219615   4.538   6.690   2.799  0.6820 -0.9268  1.1510
 6551TIP3   OH219616   6.183   1.649   1.653 -0.5606  0.0497  0.0821
 6551TIP3    H119617   6.108   1.706   1.666 -0.5120 -0.1140  1.1497
 6551TIP3    H219618   6.186   1.634   1.558 -1.1494  1.0211 -0.0964
 6552TIP3   OH219619   5.066   4.710   5.590 -0.4152 -0.0177 -0.5189
 6552TIP3    H119620   5.035   4.624   5.619  0.7936 -0.2575  0.0891
 6552TIP3    H219621   5.103   4.750   5.668 -2.1378  1.6365 -0.4669
 6553TIP3   OH219622   0.838   0.041   0.566 -0.0796  0.4877 -0.0851
 6553TIP3    H119623   0.847   0.025   0.472  0.9646 -1.1297  0.2399
 6553TIP3    H219624   0.927   0.027   0.600 -0.7015 -0.2444  1.2969
 6554TIP3   OH219625   3.247   5.378   5.114 -0.0484 -0.5280  0.5129
 6554TIP3    H119626   3.307   5.351   5.184 -0.2491 -0.1497  0.8279
 6554TIP3    H219627   3.303   5.382   5.036  0.0345 -1.6609  0.4915
 6555TIP3   OH219628   5.020   5.424   3.310 -0.0659 -0.4457  0.1905
 6555TIP3    H119629   4.968   5.463   3.240 -1.3264 -2.3672  0.0099
 6555TIP3    H219630   5.100   5.478   3.312 -1.3317  1.5963 -0.5754
 6556TIP3   OH219631   4.055   5.639   1.626 -0.6131  0.2445 -0.1441
 6556TIP3    H119632   3.961   5.654   1.612 -0.8217 -1.8598 -1.3018
 6556TIP3    H219633   4.062   5.619   1.719 -2.0550 -3.7709 -0.7064
 6557TIP3   OH219634   5.236   3.382   1.211 -0.4668 -0.1393 -0.5485
 6557TIP3    H119635   5.175   3.434   1.264 -1.8530 -2.1303 -0.1108
 6557TIP3    H219636   5.219   3.410   1.121 -0.7326  0.6170 -0.2747
 6558TIP3   OH219637   7.005   1.072   3.055  0.6006 -0.1004 -0.1262
 6558TIP3    H119638   6.926   1.033   3.017 -0.9193  0.2181  2.5228
 6558TIP3    H219639   7.031   1.011   3.124  1.8016  0.5549  0.0273
 6559TIP3   OH219640   3.583   4.510   0.204 -0.5452 -0.1473 -0.4072
 6559TIP3    H119641   3.539   4.549   0.279 -1.5959 -2.7197  0.4507
 6559TIP3    H219642   3.676   4.533   0.215 -1.1599  2.7944 -0.5591
 6560TIP3   OH219643   6.714   0.667   3.902  0.8342 -0.2311  0.0169
 6560TIP3    H119644   6.639   0.672   3.961  0.6655  0.4323 -0.2487
 6560TIP3    H219645   6.787   0.699   3.954  0.7324  0.1113 -0.0450
 6561TIP3   OH219646   0.321   3.391   2.178  0.3121  0.1492  0.7273
 6561TIP3    H119647   0.377   3.438   2.240  0.3986  0.2108  0.6033
 6561TIP3    H219648   0.283   3.319   2.229  0.9478 -0.2316  0.6707
 6562TIP3   OH219649   7.079   2.072   4.304 -0.1810 -0.1648  0.0470
 6562TIP3    H119650   7.085   2.167   4.317  0.3070  0.0956 -1.7838
 6562TIP3    H219651   7.008   2.045   4.362  1.2433  0.8941  2.4337
 6563TIP3   OH219652   1.157   0.473   0.243 -0.6934  0.1878 -0.4789
 6563TIP3    H119653   1.187   0.527   0.316  0.7403  0.6150 -1.3529
 6563TIP3    H219654   1.117   0.397   0.285  0.1324  0.3989  0.7582
 6564TIP3   OH219655   7.163   1.682   4.731 -0.0027  0.0241 -0.2815
 6564TIP3    H119656   7.195   1.752   4.674  0.3611 -1.1295 -1.5387
 6564TIP3    H219657   7.090   1.643   4.683 -0.8817  0.1945  0.8801
 6565TIP3   OH219658   5.150   5.577   1.388  0.4816  0.5806 -0.2870
 6565TIP3    H119659   5.228   5.544   1.344 -0.4365  0.8155 -2.1675
 6565TIP3    H219660   5.078   5.525   1.352 -0.3793  1.1500  0.5482
 6566TIP3   OH219661   1.840   4.739   5.036 -0.6459  0.1141 -0.1723
 6566TIP3    H119662   1.875   4.803   5.098 -1.2796  0.7237 -0.4374
 6566TIP3    H219663   1.746   4.757   5.034 -0.8180 -0.7650 -0.3203
 6567TIP3   OH219664   1.215   4.368   2.351 -0.2966  0.1498  0.6775
 6567TIP3    H119665   1.154   4.335   2.285 -0.5473  1.4576  0.2363
 6567TIP3    H219666   1.252   4.447   2.312 -0.7978  1.2163  2.2911
 6568TIP3   OH219667   5.992   4.275   1.488  0.4234  0.4175  0.1248
 6568TIP3    H119668   6.002   4.197   1.432  0.9223 -0.4182  1.3350
 6568TIP3    H219669   6.082   4.303   1.505  0.2404  1.7883 -0.9636
 6569TIP3   OH219670   1.281   5.531   2.214  0.0397 -0.3670  0.4412
 6569TIP3    H119671   1.265   5.484   2.132  1.4244  1.9277 -1.2539
 6569TIP3    H219672   1.197   5.572   2.234 -0.4754 -1.4294  0.5529
 6570TIP3   OH219673   2.841   5.400   4.660 -0.0986 -0.2156 -0.3532
 6570TIP3    H119674   2.895   5.332   4.701  2.1721  1.8285  0.2446
 6570TIP3    H219675   2.885   5.419   4.577  0.4115  1.7356  0.3039
 6571TIP3   OH219676   4.648   6.381   5.003 -0.4607  0.5273 -0.6998
 6571TIP3    H119677   4.667   6.353   4.914 -2.2213  1.4776 -1.4169
 6571TIP3    H219678   4.661   6.476   5.002  2.0501  0.2941  0.7894
 6572TIP3   OH219679   2.671   1.550   0.776  0.0329  0.3324  0.0580
 6572TIP3    H119680   2.608   1.548   0.705  0.3757  0.6299 -0.2563
 6572TIP3    H219681   2.740   1.489   0.748  0.5899  1.0938 -0.2657
 6573TIP3   OH219682   5.797   5.392   0.961  0.0025  0.0068 -0.1726
 6573TIP3    H119683   5.776   5.423   1.049 -0.8076 -0.0745 -0.3317
 6573TIP3    H219684   5.837   5.468   0.918 -0.2518  0.2621  0.0366
 6574TIP3   OH219685   7.015   5.032   1.046  0.0996  0.1660  0.2293
 6574TIP3    H119686   7.050   4.943   1.048  0.7917  0.4405  0.6076
 6574TIP3    H219687   6.943   5.031   1.108 -0.8787 -0.5221 -0.8831
 6575TIP3   OH219688   5.068   6.584   4.404 -0.5292  0.2508  0.2885
 6575TIP3    H119689   5.000   6.534   4.360 -2.7801  0.6162  3.0167
 6575TIP3    H219690   5.134   6.519   4.428  1.3763  0.1797 -4.2055
 6576TIP3   OH219691   3.524   4.437   5.505  0.3673  0.0567  0.6620
 6576TIP3    H119692   3.494   4.517   5.463  0.8836 -0.1160 -0.0518
 6576TIP3    H219693   3.548   4.379   5.433  2.2174  0.1150  1.1882
 6577TIP3   OH219694   2.180   2.069   3.913 -0.2695 -0.3760  0.0868
 6577TIP3    H119695   2.103   2.088   3.966 -0.8449  0.4043 -0.9758
 6577TIP3    H219696   2.145   2.044   3.827  0.6352 -1.2021 -0.0624
 6578TIP3   OH219697   4.448   1.509   1.424  0.7315  0.1913 -0.0028
 6578TIP3    H119698   4.510   1.483   1.493  2.1711  1.7723 -0.6166
 6578TIP3    H219699   4.446   1.435   1.364  1.6618 -0.0970  0.3057
 6579TIP3   OH219700   4.904   2.004   0.353  0.3026  0.3169  0.2246
 6579TIP3    H119701   4.932   1.934   0.412  1.2751 -0.1077 -0.6966
 6579TIP3    H219702   4.983   2.026   0.304 -0.0536  1.8837  0.2998
 6580TIP3   OH219703   6.925   3.617   2.185  0.1857  0.1067  0.4881
 6580TIP3    H119704   6.862   3.553   2.151  1.7550 -0.1977 -2.1461
 6580TIP3    H219705   6.917   3.692   2.127 -0.1541  1.5244  2.2859
 6581TIP3   OH219706   2.875   0.957   3.327 -0.7444  0.6093 -0.1440
 6581TIP3    H119707   2.882   0.863   3.342 -0.1779  0.9543  2.1349
 6581TIP3    H219708   2.781   0.975   3.332 -0.8418  0.1997 -0.4222
 6582TIP3   OH219709   5.072   4.454   1.721  0.0319 -0.5030 -0.1997
 6582TIP3    H119710   5.163   4.434   1.742 -0.1629 -1.1183  0.0738
 6582TIP3    H219711   5.024   4.430   1.800 -0.2354  0.9285  0.1076
 6583TIP3   OH219712   1.674   2.894   0.707  0.0383  0.5961  0.0165
 6583TIP3    H119713   1.672   2.933   0.619  0.4871 -2.0604 -1.2886
 6583TIP3    H219714   1.588   2.853   0.717  0.4438 -0.2308  0.2257
 6584TIP3   OH219715   6.782   3.402   3.067  0.0521  0.3408 -0.2226
 6584TIP3    H119716   6.854   3.465   3.059  0.7770 -0.4460 -0.0738
 6584TIP3    H219717   6.753   3.387   2.977 -0.5230  1.3072 -0.2201
 6585TIP3   OH219718   0.782   0.798   3.020 -0.3491 -0.0765  0.3082
 6585TIP3    H119719   0.845   0.726   3.014 -0.1245 -0.0799  2.1665
 6585TIP3    H219720   0.698   0.755   3.033 -0.0718 -0.0618  2.5599
 6586TIP3   OH219721   3.396   0.651   4.691  0.1195  0.3709 -0.5550
 6586TIP3    H119722   3.462   0.607   4.639  0.1018 -0.8162  0.3925
 6586TIP3    H219723   3.374   0.729   4.641  2.1613  0.7539 -0.9432
 6587TIP3   OH219724   1.681   3.103   3.408 -0.2132 -0.8927  0.0711
 6587TIP3    H119725   1.763   3.054   3.400  0.2299 -0.2643  0.6967
 6587TIP3    H219726   1.619   3.054   3.354  0.1795 -2.2391  0.7886
 6588TIP3   OH219727   6.245   2.677   4.841 -0.1974 -0.3382  0.8744
 6588TIP3    H119728   6.270   2.600   4.893 -0.0640  0.1198  1.4932
 6588TIP3    H219729   6.256   2.648   4.750  0.6676 -0.7876  1.1059
 6589TIP3   OH219730   2.854   1.734   3.666 -0.1985  0.0905  0.3510
 6589TIP3    H119731   2.809   1.658   3.628 -1.1504  0.8578 -0.0940
 6589TIP3    H219732   2.925   1.753   3.604  0.1697 -0.5397  0.5651
 6590TIP3   OH219733   5.607   2.489   3.109 -0.1236  0.4865  0.5472
 6590TIP3    H119734   5.697   2.520   3.124 -0.0814  0.5960  0.0618
 6590TIP3    H219735   5.571   2.480   3.197 -0.5537  3.1282  0.7045
 6591TIP3   OH219736   5.206   5.607   4.730  0.3778  0.5325  0.3882
 6591TIP3    H119737   5.210   5.689   4.779 -1.7615  0.7562  0.3099
 6591TIP3    H219738   5.238   5.541   4.791 -1.0189  0.9928  1.6904
 6592TIP3   OH219739   5.210   1.697   2.888 -0.0157  0.1084 -0.3724
 6592TIP3    H119740   5.147   1.664   2.951 -0.1754  0.3434 -0.4067
 6592TIP3    H219741   5.244   1.618   2.844  0.5315 -0.0981  0.4068
 6593TIP3   OH219742   1.458   6.371   1.500 -0.3959 -0.2859  0.4271
 6593TIP3    H119743   1.366   6.398   1.507 -0.3370  0.3598 -0.9310
 6593TIP3    H219744   1.505   6.451   1.480  0.4666 -0.6315  1.0356
 6594TIP3   OH219745   4.654   0.499   5.735 -0.1094  0.1677  0.1699
 6594TIP3    H119746   4.705   0.547   5.800  0.9689 -0.2102 -0.3669
 6594TIP3    H219747   4.659   0.554   5.656  0.0236 -0.1933 -0.0739
 6595TIP3   OH219748   5.575   6.414   5.175 -0.0394 -0.3009  0.0287
 6595TIP3    H119749   5.560   6.343   5.113  0.3835  0.6341 -1.1760
 6595TIP3    H219750   5.596   6.369   5.257  1.5693 -1.5919 -1.0084
 6596TIP3   OH219751   6.518   6.520   3.562 -0.1716  0.1355 -0.3055
 6596TIP3    H119752   6.429   6.552   3.577  0.7694  3.2701 -0.5184
 6596TIP3    H219753   6.573   6.595   3.585  2.4803 -1.9480  0.5417
 6597TIP3   OH219754   3.391   2.324   1.746  0.1486  1.0250 -0.2944
 6597TIP3    H119755   3.401   2.264   1.672 -0.1054 -2.0795  1.9770
 6597TIP3    H219756   3.302   2.356   1.739 -0.8647 -1.4773  0.0854
 6598TIP3   OH219757   2.329   5.712   2.055  0.6076 -0.0963  0.7009
 6598TIP3    H119758   2.281   5.629   2.053  1.2119 -0.4366 -1.3859
 6598TIP3    H219759   2.398   5.702   1.990  0.5119  2.1516  0.1775
 6599TIP3   OH219760   2.508   4.290   5.534 -0.5115 -0.1519 -0.3357
 6599TIP3    H119761   2.505   4.257   5.443 -0.0565  1.1147 -0.8290
 6599TIP3    H219762   2.423   4.331   5.547 -0.4903 -0.1285 -0.2736
 6600TIP3   OH219763   0.401   0.972   3.117  0.1723  0.1600  0.0700
 6600TIP3    H119764   0.430   1.048   3.067  1.9065  0.0701  0.8707
 6600TIP3    H219765   0.442   0.897   3.073  1.1885  0.0241  1.2081
 6601TIP3   OH219766   1.023   4.845   0.593  0.6859 -0.3820 -0.1011
 6601TIP3    H119767   1.008   4.924   0.645  1.6944 -0.6018  0.5561
 6601TIP3    H219768   0.962   4.780   0.629 -0.6468  0.2842 -1.1124
 6602TIP3   OH219769   0.046   5.062   0.752 -0.4234  0.1225 -0.3113
 6602TIP3    H119770   0.092   5.098   0.676 -0.2825  0.1330 -0.2207
 6602TIP3    H219771  -0.045   5.089   0.739 -0.1687  1.3412  0.2283
 6603TIP3   OH219772   2.388   0.390   3.692  0.1003  0.1395 -0.2686
 6603TIP3    H119773   2.335   0.311   3.684 -0.4153  0.6128 -2.1478
 6603TIP3    H219774   2.460   0.377   3.630  0.6752  0.6540  0.2679
 6604TIP3   OH219775   6.660   4.805   2.268  0.0160  0.2626 -0.1918
 6604TIP3    H119776   6.636   4.850   2.349 -2.1103  0.4127 -0.8550
 6604TIP3    H219777   6.716   4.732   2.298  0.0850  0.8782  1.2870
 6605TIP3   OH219778   3.021   5.626   1.440 -0.5774  0.0296 -0.1419
 6605TIP3    H119779   3.079   5.684   1.390 -1.5024  0.4820 -0.7350
 6605TIP3    H219780   3.038   5.649   1.532  1.4057 -1.0695 -0.1889
 6606TIP3   OH219781   1.008   2.949   4.194  0.4390  0.1695 -0.5842
 6606TIP3    H119782   1.062   3.024   4.168 -0.4004  0.5758 -1.2151
 6606TIP3    H219783   0.931   2.955   4.138 -0.5134 -0.0963  0.6636
 6607TIP3   OH219784   1.300   3.075   2.088  0.2887 -0.3400  0.5151
 6607TIP3    H119785   1.265   3.138   2.024  0.1436  0.4165  1.3211
 6607TIP3    H219786   1.269   2.990   2.057 -0.1701  0.0672 -0.1706
 6608TIP3   OH219787   1.140   0.392   5.237  0.4508  0.0032  0.4391
 6608TIP3    H119788   1.219   0.349   5.205  0.7315  1.4106 -0.8583
 6608TIP3    H219789   1.072   0.324   5.234  1.3591 -0.9373  0.6094
 6609TIP3   OH219790   4.170   6.347   1.661  0.8773  0.0668  0.2552
 6609TIP3    H119791   4.254   6.394   1.663  1.1268 -0.0476 -2.7244
 6609TIP3    H219792   4.190   6.264   1.618 -0.2912 -1.1909  2.0338
 6610TIP3   OH219793   4.137   4.368   0.261 -0.5033 -0.1763  0.2253
 6610TIP3    H119794   4.195   4.421   0.316  0.4797 -0.2533 -0.7086
 6610TIP3    H219795   4.181   4.283   0.255 -1.7880 -0.9670  1.2484
 6611TIP3   OH219796   1.459   3.556   5.428  0.4655  0.4295  0.1331
 6611TIP3    H119797   1.509   3.476   5.442  1.1287  1.0324  1.3512
 6611TIP3    H219798   1.524   3.625   5.421 -0.1504  1.2400  1.8074
 6612TIP3   OH219799   2.064   6.453   5.619  0.1649 -0.4828 -0.6978
 6612TIP3    H119800   2.037   6.506   5.693  0.3487 -1.4938  0.1091
 6612TIP3    H219801   2.083   6.517   5.550  2.8490  0.7567  0.9907
 6613TIP3   OH219802   0.538   2.569   3.534  0.3121  0.3324  0.4810
 6613TIP3    H119803   0.585   2.612   3.463  0.4212 -1.4825 -0.5821
 6613TIP3    H219804   0.459   2.533   3.493  0.2797 -0.5876  1.3075
 6614TIP3   OH219805   6.042   6.236   0.455  0.1785 -0.1977  0.0463
 6614TIP3    H119806   6.136   6.237   0.470  0.1643  2.2406  0.4514
 6614TIP3    H219807   6.005   6.202   0.537  0.6703 -0.1731  0.2811
 6615TIP3   OH219808   3.138   1.948   3.512 -0.0040  0.5112  0.4613
 6615TIP3    H119809   3.179   1.882   3.455 -0.1220  0.6316  0.2347
 6615TIP3    H219810   3.076   1.994   3.455 -0.2445  0.5236  0.7316
 6616TIP3   OH219811   4.372   0.145   3.910 -0.4548 -0.0173  0.9058
 6616TIP3    H119812   4.342   0.231   3.882 -0.6081 -0.2540  0.3275
 6616TIP3    H219813   4.468   0.150   3.905 -0.4161  0.4385  1.8583
 6617TIP3   OH219814   5.197   6.338   2.151  0.4332  0.4711  0.3415
 6617TIP3    H119815   5.261   6.352   2.221 -0.7673  0.2362  1.5248
 6617TIP3    H219816   5.179   6.426   2.116  1.5648  0.5105 -0.1780
 6618TIP3   OH219817   5.656   6.611   5.346  0.1920  0.8982 -0.0567
 6618TIP3    H119818   5.571   6.595   5.388  0.2796 -4.6480 -1.1821
 6618TIP3    H219819   5.659   6.547   5.274  4.2645  2.7563 -1.8623
 6619TIP3   OH219820   5.861   6.469   3.958  0.4920  0.0158  0.1018
 6619TIP3    H119821   5.876   6.479   3.864  0.1437 -1.7720 -0.1798
 6619TIP3    H219822   5.949   6.453   3.994  0.3595 -2.0228 -0.3504
 6620TIP3   OH219823   3.651   1.724   3.800 -0.3240  0.1338 -0.2504
 6620TIP3    H119824   3.682   1.637   3.826 -1.9208 -0.8003 -1.3048
 6620TIP3    H219825   3.572   1.738   3.853 -1.7678 -0.3903 -2.1792
 6621TIP3   OH219826   6.951   5.211   3.926  0.5869  0.2777  0.7324
 6621TIP3    H119827   7.026   5.219   3.866  0.1257  1.3393  0.2615
 6621TIP3    H219828   6.886   5.272   3.891  0.2619  0.8637  2.2613
 6622TIP3   OH219829   4.989   4.651   2.290  0.0046 -0.1981 -0.1680
 6622TIP3    H119830   4.974   4.623   2.380  0.4446  1.1919  0.3651
 6622TIP3    H219831   4.964   4.743   2.289 -1.8517 -0.6467 -1.9614
 6623TIP3   OH219832   0.772   4.977   4.258 -0.1992 -0.2314  0.1905
 6623TIP3    H119833   0.689   5.003   4.217 -0.2938  0.5255  0.8297
 6623TIP3    H219834   0.765   5.011   4.348  1.5543  1.4397 -0.2602
 6624TIP3   OH219835   2.889   3.011   4.573  0.6205 -0.2465  0.1022
 6624TIP3    H119836   2.942   3.076   4.527  0.1668 -0.5393 -0.8772
 6624TIP3    H219837   2.934   2.998   4.657 -0.1623  2.5128  1.0527
 6625TIP3   OH219838   1.046   3.525   0.424 -0.6309 -0.0531  0.5581
 6625TIP3    H119839   0.992   3.498   0.349  0.7454  0.2863 -0.6018
 6625TIP3    H219840   1.126   3.559   0.384  0.3178 -0.2642  2.2292
 6626TIP3   OH219841   6.417   5.299   3.398 -0.1638 -0.1740 -0.5587
 6626TIP3    H119842   6.437   5.297   3.304  0.8756  1.7831 -0.4392
 6626TIP3    H219843   6.499   5.329   3.439 -1.3546  1.6382  0.6599
 6627TIP3   OH219844   2.964   1.589   1.918  0.2852  0.2108  0.1419
 6627TIP3    H119845   2.911   1.528   1.970  2.0434 -2.3271 -0.8683
 6627TIP3    H219846   2.914   1.601   1.838  0.5898 -1.1952 -0.2940
 6628TIP3   OH219847   4.189   4.013   1.464  0.2492  0.2686  0.4595
 6628TIP3    H119848   4.097   4.010   1.436  0.6771 -0.0370 -1.0414
 6628TIP3    H219849   4.213   4.105   1.458  0.2172  0.2614  0.1987
 6629TIP3   OH219850   6.199   0.716   3.203 -0.2616  0.0399 -0.4397
 6629TIP3    H119851   6.110   0.741   3.182  0.1663  0.9055 -1.2856
 6629TIP3    H219852   6.197   0.694   3.296 -1.0614  1.3931 -0.1228
 6630TIP3   OH219853   1.229   0.617   0.469  0.0132 -0.1852 -0.5760
 6630TIP3    H119854   1.166   0.681   0.503  0.0829  0.0057 -0.8088
 6630TIP3    H219855   1.312   0.663   0.467 -0.0196 -0.1388 -1.1645
 6631TIP3   OH219856   1.370   3.612   4.191  0.1594  0.0873 -0.2423
 6631TIP3    H119857   1.452   3.598   4.238  1.5074  2.4757 -1.6616
 6631TIP3    H219858   1.308   3.642   4.257  0.6046 -1.0660  0.7280
 6632TIP3   OH219859   0.334   2.752   1.145  0.2926  0.0143  0.2303
 6632TIP3    H119860   0.390   2.738   1.069  2.1416  1.8548  1.1373
 6632TIP3    H219861   0.277   2.675   1.148  0.1679 -0.1478 -2.9438
 6633TIP3   OH219862   3.585   6.089   3.560 -0.3638  0.1193  0.1235
 6633TIP3    H119863   3.522   6.159   3.546  0.6264  1.0592  0.2728
 6633TIP3    H219864   3.637   6.118   3.635 -0.4062 -1.1210  0.6602
 6634TIP3   OH219865   0.366   1.389   1.556  0.2654 -0.5375 -0.4416
 6634TIP3    H119866   0.419   1.410   1.478 -0.8536  0.5324 -0.9575
 6634TIP3    H219867   0.299   1.329   1.523 -0.2598 -0.0171 -0.3373
 6635TIP3   OH219868   4.631   3.571   2.655 -0.2575  0.1864  0.5159
 6635TIP3    H119869   4.580   3.494   2.628  0.0276 -0.0598  0.6725
 6635TIP3    H219870   4.639   3.562   2.750  0.4427 -0.0039  0.4438
 6636TIP3   OH219871   1.479   3.595   0.416  0.1145 -0.0152  0.0713
 6636TIP3    H119872   1.558   3.616   0.367 -0.5483  1.1588 -0.5491
 6636TIP3    H219873   1.496   3.509   0.455  1.4730 -0.0132 -0.4842
 6637TIP3   OH219874   5.494   6.667   0.739 -0.0978  0.7393 -0.4280
 6637TIP3    H119875   5.532   6.698   0.657  0.2936  1.1145 -0.1062
 6637TIP3    H219876   5.450   6.743   0.776  0.6839  0.8730  0.2581
 6638TIP3   OH219877   5.796   0.070   3.479 -0.4891  0.7060 -0.2930
 6638TIP3    H119878   5.712   0.030   3.454 -0.5318  1.0445 -0.6923
 6638TIP3    H219879   5.774   0.161   3.497 -0.2300  0.7605 -0.2579
 6639TIP3   OH219880   6.878   6.191   0.963 -0.4649  0.2744  0.1854
 6639TIP3    H119881   6.936   6.127   1.004  0.4182  0.7017 -0.3632
 6639TIP3    H219882   6.884   6.268   1.020 -1.2380  0.0025  0.6424
 6640TIP3   OH219883   1.843   5.724   3.611  0.2774 -0.4309  0.1708
 6640TIP3    H119884   1.873   5.799   3.662 -1.8400  1.3621 -1.0595
 6640TIP3    H219885   1.924   5.688   3.573  1.3529  1.3524  0.6331
 6641TIP3   OH219886   2.973   6.249   5.744  0.0302  0.1438 -0.4449
 6641TIP3    H119887   2.931   6.185   5.802  1.6094 -1.2544 -0.7755
 6641TIP3    H219888   2.919   6.249   5.665 -0.0453 -0.7417 -0.4077
 6642TIP3   OH219889   0.658   4.859   5.341 -0.2368 -0.6530 -0.1838
 6642TIP3    H119890   0.649   4.928   5.276 -1.2419 -0.6218 -0.0275
 6642TIP3    H219891   0.732   4.807   5.310  1.1512  1.0164  0.2037
 6643TIP3   OH219892   6.500   1.824   0.382  0.2383 -0.3271  0.4647
 6643TIP3    H119893   6.505   1.732   0.357 -0.3086 -0.1458 -0.3667
 6643TIP3    H219894   6.520   1.871   0.302 -0.0566  0.2771  0.7383
 6644TIP3   OH219895   1.717   4.372   0.611 -0.2126 -0.5084  0.2411
 6644TIP3    H119896   1.744   4.345   0.523  0.2871  1.5397 -0.2870
 6644TIP3    H219897   1.771   4.449   0.630 -0.9248 -0.3991  2.0012
 6645TIP3   OH219898   1.733   0.926   2.590 -0.1903  0.1434  0.3874
 6645TIP3    H119899   1.746   1.021   2.592 -0.8902  0.2432  1.4679
 6645TIP3    H219900   1.684   0.907   2.670 -1.2129 -0.9543 -0.4568
 6646TIP3   OH219901   0.104   3.900   4.889  0.7522 -0.3518 -0.1512
 6646TIP3    H119902   0.064   3.918   4.804  0.3501  1.0984  0.3267
 6646TIP3    H219903   0.048   3.943   4.953  2.8035  1.4305  0.5871
 6647TIP3   OH219904   5.254   4.150   1.049  0.3184 -0.1138  0.2452
 6647TIP3    H119905   5.300   4.148   0.964 -0.1840 -1.1278 -0.0204
 6647TIP3    H219906   5.244   4.243   1.068 -0.5224  0.1615 -1.3422
 6648TIP3   OH219907   6.849   5.478   0.347  0.1868  0.0817  0.4266
 6648TIP3    H119908   6.761   5.441   0.351 -0.5714  1.7052 -0.2454
 6648TIP3    H219909   6.835   5.571   0.326  2.0703  0.3034 -0.0401
 6649TIP3   OH219910   1.096   5.337   2.941 -0.1324 -0.0531 -0.0527
 6649TIP3    H119911   1.035   5.281   2.989  1.3842 -1.9172 -0.1928
 6649TIP3    H219912   1.105   5.295   2.855  1.7578 -0.1529  0.1552
 6650TIP3   OH219913   4.269   5.462   2.844 -0.1118 -0.5111  0.0107
 6650TIP3    H119914   4.246   5.429   2.931  0.9081 -0.4531  0.3172
 6650TIP3    H219915   4.217   5.410   2.784 -1.4655  0.0148  0.6955
 6651TIP3   OH219916   4.712   2.802   2.204  0.1750 -0.4268 -0.1562
 6651TIP3    H119917   4.621   2.776   2.200  0.3744 -1.0507 -0.9124
 6651TIP3    H219918   4.719   2.856   2.283 -0.7347 -0.7705  0.1635
 6652TIP3   OH219919   2.535   4.667   0.323  0.2790  0.3306 -0.1740
 6652TIP3    H119920   2.458   4.641   0.374 -0.1733  0.2576 -0.8836
 6652TIP3    H219921   2.592   4.590   0.324  0.3508  0.3875  0.3627
 6653TIP3   OH219922   0.921   3.589   3.735  0.2957 -0.0338 -0.1449
 6653TIP3    H119923   0.855   3.524   3.712 -1.1539  1.1438  0.5565
 6653TIP3    H219924   0.931   3.580   3.830  2.3546 -1.2567 -0.4049
 6654TIP3   OH219925   0.675   1.434   0.693  0.4755  0.5036 -0.1652
 6654TIP3    H119926   0.712   1.434   0.605 -0.0542 -0.7182 -0.4091
 6654TIP3    H219927   0.677   1.342   0.720 -0.5806  0.6783  0.5685
 6655TIP3   OH219928   3.468   2.780   4.350 -0.4611 -0.6335 -0.3449
 6655TIP3    H119929   3.438   2.709   4.407 -1.2830 -1.0767 -1.3082
 6655TIP3    H219930   3.406   2.781   4.278 -0.0109  0.5787 -0.7393
 6656TIP3   OH219931   0.552   4.303   3.640  0.2418  0.4786  0.3314
 6656TIP3    H119932   0.514   4.217   3.659 -0.3728  0.9924  1.5332
 6656TIP3    H219933   0.624   4.284   3.580 -2.0676 -0.5454 -2.3785
 6657TIP3   OH219934   1.861   1.989   2.396 -0.4863  0.2591 -0.2123
 6657TIP3    H119935   1.935   2.025   2.347 -1.6297  0.9598 -1.4993
 6657TIP3    H219936   1.896   1.912   2.440  0.9660  0.4921 -0.9170
 6658TIP3   OH219937   1.159   2.275   3.490 -0.0184  0.0110  0.1335
 6658TIP3    H119938   1.235   2.280   3.431 -0.4243 -1.1802 -0.5320
 6658TIP3    H219939   1.189   2.219   3.562 -0.2526 -0.4347 -0.1143
 6659TIP3   OH219940   5.065   2.648   3.623  0.1057  0.0581 -0.5457
 6659TIP3    H119941   5.057   2.730   3.671 -1.4281  0.2270 -1.0469
 6659TIP3    H219942   5.023   2.583   3.679  0.3086 -0.1768 -0.6619
 6660TIP3   OH219943   0.824   5.191   5.225 -0.6598 -0.1372  0.2571
 6660TIP3    H119944   0.813   5.264   5.163 -0.8489 -0.1488  0.2780
 6660TIP3    H219945   0.743   5.141   5.218 -0.2482 -0.7532 -0.2900
 6661TIP3   OH219946   1.993   4.246   4.428  0.4929 -0.3220  0.0835
 6661TIP3    H119947   1.959   4.282   4.511  0.1223 -0.9332  0.2062
 6661TIP3    H219948   2.079   4.211   4.451  1.6059  1.9216 -0.3946
 6662TIP3   OH219949   6.205   5.526   3.717  0.3202  0.2780 -0.5489
 6662TIP3    H119950   6.273   5.592   3.736  1.3231 -1.2035  1.3124
 6662TIP3    H219951   6.221   5.502   3.626  1.9194  0.4149 -0.3416
 6663TIP3   OH219952   4.660   5.267   1.159  0.1275 -0.0221  0.7295
 6663TIP3    H119953   4.702   5.340   1.113  0.3177  0.6468  1.8998
 6663TIP3    H219954   4.585   5.245   1.106  0.2718  0.7999  0.1591
 6664TIP3   OH219955   6.043   3.244   2.365  0.4074 -0.5617  0.3261
 6664TIP3    H119956   6.039   3.150   2.351  1.3447 -0.8558  1.7569
 6664TIP3    H219957   6.032   3.255   2.460 -0.3587  0.8236  0.1103
 6665TIP3   OH219958   4.825   0.039   1.273 -0.5349 -0.4987 -0.1456
 6665TIP3    H119959   4.899   0.080   1.319 -0.5842  0.5958 -0.9952
 6665TIP3    H219960   4.771   0.003   1.343  0.7836 -1.3001  0.4913
 6666TIP3   OH219961   6.508   4.125   4.349  0.4340 -0.1667  0.0398
 6666TIP3    H119962   6.468   4.131   4.262  1.8476  1.0364 -0.5711
 6666TIP3    H219963   6.549   4.039   4.351 -0.5343 -0.6426 -0.0438
 6667TIP3   OH219964   0.304   5.742   0.141  0.2497 -0.3899 -0.2546
 6667TIP3    H119965   0.339   5.818   0.188  1.0367 -0.1645 -1.1690
 6667TIP3    H219966   0.270   5.685   0.210  0.2473  0.4910  0.4930
 6668TIP3   OH219967   5.823   1.746   1.948 -0.4765 -0.8667 -0.1248
 6668TIP3    H119968   5.847   1.703   1.865 -0.7054 -1.5901  0.1753
 6668TIP3    H219969   5.728   1.732   1.955 -0.2132 -2.2125  1.0365
 6669TIP3   OH219970   5.289   4.701   5.123 -0.2144  0.1132  0.4748
 6669TIP3    H119971   5.265   4.696   5.216 -1.6994  0.6713  0.1479
 6669TIP3    H219972   5.354   4.631   5.111  0.0784  0.0992  1.9413
 6670TIP3   OH219973   4.791   5.248   0.216 -0.8469 -0.4824 -0.1912
 6670TIP3    H119974   4.861   5.305   0.248 -1.5970 -0.2976  1.2281
 6670TIP3    H219975   4.829   5.202   0.141  0.1248  1.0823 -0.6992
 6671TIP3   OH219976   5.466   0.865   1.370 -0.0395  0.5764  0.1469
 6671TIP3    H119977   5.460   0.806   1.295  0.1136 -0.9370  1.2821
 6671TIP3    H219978   5.560   0.880   1.382 -0.1080  1.9540 -0.7767
 6672TIP3   OH219979   7.133   2.006   0.271  1.0557 -0.3325  0.1713
 6672TIP3    H119980   7.163   2.065   0.341 -0.7142  0.7677  0.0728
 6672TIP3    H219981   7.174   2.040   0.192 -1.5743  2.2261 -0.2527
 6673TIP3   OH219982   4.141   1.511   4.633  0.3379 -0.0595  0.3053
 6673TIP3    H119983   4.113   1.603   4.635  1.5810  0.3493 -0.2368
 6673TIP3    H219984   4.091   1.474   4.560  1.6168  0.8413 -1.1082
 6674TIP3   OH219985   0.246   1.097   0.182  0.3530  0.5807 -0.6063
 6674TIP3    H119986   0.293   1.180   0.168  0.9068  0.1089 -1.6907
 6674TIP3    H219987   0.295   1.033   0.131  0.4786 -0.6278  0.9752
 6675TIP3   OH219988   6.477   5.236   4.804 -0.1667  0.2307  0.3841
 6675TIP3    H119989   6.425   5.237   4.723 -0.5197 -0.5066  0.5915
 6675TIP3    H219990   6.567   5.238   4.774 -0.3006  0.3261 -0.0207
 6676TIP3   OH219991   3.772   3.926   3.719  0.0557 -0.6126  0.4239
 6676TIP3    H119992   3.860   3.941   3.684  0.0085  0.6235  0.7911
 6676TIP3    H219993   3.785   3.924   3.814 -0.2087 -1.2124  0.4505
 6677TIP3   OH219994   6.252   0.295   1.310 -0.5994  0.0849 -0.2104
 6677TIP3    H119995   6.210   0.210   1.315 -0.6501 -0.0093 -1.7093
 6677TIP3    H219996   6.308   0.300   1.388 -1.3650 -0.8845  0.4086
 6678TIP3   OH219997   1.611   1.622   1.247 -0.6191 -0.2469 -0.1145
 6678TIP3    H119998   1.657   1.599   1.328  2.3780  0.0573 -1.5768
 6678TIP3    H219999   1.535   1.672   1.275 -0.1224 -0.8531  2.5294
 6679TIP3   OH220000   5.513   6.081   1.548 -0.3689  0.0122  0.3538
 6679TIP3    H120001   5.510   6.009   1.484  1.7955 -2.7244  3.0572
 6679TIP3    H220002   5.425   6.083   1.584 -0.0342 -2.8202  1.6188
 6680TIP3   OH220003   4.948   3.548   2.099 -0.0904 -0.2461  0.2947
 6680TIP3    H120004   5.012   3.599   2.049  0.7588 -2.0459 -0.5457
 6680TIP3    H220005   4.986   3.542   2.187  0.6823 -0.8726 -0.0651
 6681TIP3   OH220006   0.576   6.201   0.497  0.6695 -0.2521 -0.2902
 6681TIP3    H120007   0.537   6.155   0.571 -1.5427  0.4437 -0.9563
 6681TIP3    H220008   0.614   6.280   0.535 -0.2065 -0.0347  0.1526
 6682TIP3   OH220009   5.958   6.774   1.780  0.3237  0.2083  0.8425
 6682TIP3    H120010   6.018   6.841   1.813 -0.0935  0.3204  1.3767
 6682TIP3    H220011   6.005   6.692   1.791  0.8398  0.4016  0.1809
 6683TIP3   OH220012   0.744   2.887   4.032 -0.0099  0.7352  0.4667
 6683TIP3    H120013   0.798   2.840   3.969 -1.6810 -1.6068  0.6333
 6683TIP3    H220014   0.674   2.925   3.980 -0.6689 -0.0987  0.7161
 6684TIP3   OH220015   2.976   0.936   2.416  0.0947 -0.4820 -0.0534
 6684TIP3    H120016   2.881   0.944   2.419  0.1076 -0.3021 -0.1545
 6684TIP3    H220017   2.998   0.882   2.493 -0.0203  0.1197  0.4040
 6685TIP3   OH220018   0.135   3.484   4.195 -0.0908  0.1058 -0.2636
 6685TIP3    H120019   0.156   3.577   4.184 -0.9008  0.2346 -0.8592
 6685TIP3    H220020   0.132   3.471   4.290 -3.5488  1.6069  0.0017
 6686TIP3   OH220021   2.732   3.147   4.363 -0.3052  0.1835  0.2076
 6686TIP3    H120022   2.736   3.087   4.438  2.4930  0.1204  0.0983
 6686TIP3    H220023   2.651   3.122   4.317 -0.9260 -1.2653  1.9706
 6687TIP3   OH220024   2.171   2.817   4.866 -0.1170  0.4246 -0.0815
 6687TIP3    H120025   2.169   2.723   4.887 -0.6614  0.2730 -0.7821
 6687TIP3    H220026   2.107   2.827   4.796  1.8517  0.8520 -1.9266
 6688TIP3   OH220027   5.431   0.169   5.252 -0.6967 -0.2168  0.3230
 6688TIP3    H120028   5.500   0.144   5.191 -1.6515 -2.4960  0.0586
 6688TIP3    H220029   5.393   0.249   5.216 -0.0671 -0.5289 -1.0889
 6689TIP3   OH220030   1.721   2.745   1.706 -0.1688  0.0523  0.7764
 6689TIP3    H120031   1.746   2.654   1.722 -0.5966  0.0627  1.5901
 6689TIP3    H220032   1.799   2.786   1.670 -0.4919 -1.0603 -1.3836
 6690TIP3   OH220033   0.932   3.742   2.322  0.0823 -0.1592 -0.1027
 6690TIP3    H120034   0.939   3.824   2.371 -2.2643  1.4939 -2.2453
 6690TIP3    H220035   1.019   3.729   2.284  0.0293  2.4662 -1.2942
 6691TIP3   OH220036   1.036   4.924   0.225 -0.1086 -0.2044  0.5998
 6691TIP3    H120037   1.014   4.983   0.152 -1.1373  0.5037  1.4649
 6691TIP3    H220038   1.082   4.980   0.287  0.1700 -0.6533  0.7959
 6692TIP3   OH220039   0.842   0.790   0.797  0.1439  0.0553  0.1708
 6692TIP3    H120040   0.752   0.820   0.788  0.2712  0.3900 -0.0367
 6692TIP3    H220041   0.890   0.868   0.826  0.1032 -0.4931  1.8225
 6693TIP3   OH220042   3.253   3.873   3.822 -0.2261 -0.1662 -0.3416
 6693TIP3    H120043   3.329   3.928   3.806  0.0763 -0.1213  1.1011
 6693TIP3    H220044   3.287   3.798   3.870 -1.0659 -0.1685  0.2725
 6694TIP3   OH220045   1.630   1.622   4.286  0.1798  0.5325  0.4907
 6694TIP3    H120046   1.716   1.580   4.286  0.2654  0.6816  2.0970
 6694TIP3    H220047   1.641   1.702   4.337 -0.4938  1.4960 -0.8033
 6695TIP3   OH220048   6.025   2.926   0.814  0.2084  0.4748  0.2638
 6695TIP3    H120049   5.938   2.893   0.790  0.0082 -0.4004  2.0472
 6695TIP3    H220050   6.008   3.007   0.862  0.5168  1.3051 -0.9658
 6696TIP3   OH220051   3.309   3.611   2.177 -0.0755 -0.3572 -0.0177
 6696TIP3    H120052   3.393   3.593   2.220 -0.3460  1.1120  1.2268
 6696TIP3    H220053   3.332   3.668   2.104  0.1566 -1.1270 -0.5529
 6697TIP3   OH220054   1.551   0.852   1.119  0.2792 -0.1035 -0.1981
 6697TIP3    H120055   1.631   0.800   1.112 -0.5900 -1.3232 -1.6592
 6697TIP3    H220056   1.548   0.879   1.211  1.3414 -1.7151  0.3544
 6698TIP3   OH220057   1.167   2.077   5.601  0.2007 -0.2884  0.1911
 6698TIP3    H120058   1.200   2.165   5.580 -0.6995  0.1388  0.4868
 6698TIP3    H220059   1.084   2.071   5.554  0.3889 -1.0895 -0.0424
 6699TIP3   OH220060   0.518   2.040   4.859  0.7505 -0.0299 -0.0549
 6699TIP3    H120061   0.441   2.017   4.807  1.5442  2.6200 -2.6205
 6699TIP3    H220062   0.585   1.976   4.834  0.4579 -0.1420 -0.5564
 6700TIP3   OH220063   2.230   3.044   3.534 -0.6049  0.3865  0.0286
 6700TIP3    H120064   2.322   3.052   3.510  0.1457 -0.6209  2.2660
 6700TIP3    H220065   2.194   2.979   3.473  0.7771 -0.9024  0.5431
 6701TIP3   OH220066   4.932   5.362   2.158  0.0292  0.1612  0.2227
 6701TIP3    H120067   4.846   5.378   2.119  0.4317  2.2048  0.0845
 6701TIP3    H220068   4.956   5.445   2.198  1.0685 -0.9409  2.0550
 6702TIP3   OH220069   0.458   5.613   4.966  0.0422 -0.8672 -0.1222
 6702TIP3    H120070   0.460   5.675   5.039  0.0216  0.4972 -1.2338
 6702TIP3    H220071   0.366   5.608   4.940  0.1847 -0.5337 -0.7080
 6703TIP3   OH220072   5.454   1.057   3.431 -0.0217 -0.3498  0.1295
 6703TIP3    H120073   5.513   1.129   3.452 -0.5849 -0.1725  1.1487
 6703TIP3    H220074   5.389   1.095   3.371  0.0548 -0.1780  0.1566
 6704TIP3   OH220075   3.503   2.547   1.645  0.1549  0.7358  0.8061
 6704TIP3    H120076   3.460   2.473   1.688  0.7848  0.1979  0.5196
 6704TIP3    H220077   3.520   2.609   1.716 -0.3160  0.5779  1.0588
 6705TIP3   OH220078   4.981   2.677   2.314 -0.4788  0.1259 -0.0812
 6705TIP3    H120079   4.987   2.768   2.284  0.8693  0.2693  0.5489
 6705TIP3    H220080   4.898   2.673   2.362 -0.4488  1.0881  0.0730
 6706TIP3   OH220081   3.443   1.473   0.817  0.3392  0.4956  0.0337
 6706TIP3    H120082   3.365   1.438   0.861  0.0112 -0.0483 -0.9576
 6706TIP3    H220083   3.414   1.556   0.778  0.2899  0.3544 -0.2300
 6707TIP3   OH220084   0.820   0.392   4.417 -0.4108  0.6212 -0.2120
 6707TIP3    H120085   0.855   0.307   4.389 -0.8164  0.5732 -0.5750
 6707TIP3    H220086   0.842   0.452   4.345 -0.0716  0.8396  0.0695
 6708TIP3   OH220087   5.146   5.791   5.374  0.2508  0.1241 -0.0082
 6708TIP3    H120088   5.141   5.713   5.320 -2.9025 -0.0759  0.3669
 6708TIP3    H220089   5.145   5.864   5.311  0.6817 -0.1106 -0.2915
 6709TIP3   OH220090   0.093   4.078   1.927 -0.0707  0.1297 -0.1729
 6709TIP3    H120091   0.152   4.153   1.923  1.5606 -1.1087 -0.6372
 6709TIP3    H220092   0.067   4.073   2.019  0.2584  0.9323 -0.0314
 6710TIP3   OH220093   3.885   2.902   5.163  0.3783 -0.0196 -0.1954
 6710TIP3    H120094   3.861   2.904   5.070  1.1939 -0.4572 -0.4322
 6710TIP3    H220095   3.954   2.835   5.168  1.7490  1.3694  0.3797
 6711TIP3   OH220096   0.199   5.092   4.531  0.3117  0.1703 -0.4114
 6711TIP3    H120097   0.279   5.058   4.490  0.3056 -2.0442  1.2074
 6711TIP3    H220098   0.146   5.014   4.548 -1.6355  1.4597 -0.2562
 6712TIP3   OH220099   3.267   2.489   2.138  0.1644 -0.0921  0.2977
 6712TIP3    H120100   3.358   2.501   2.112  0.0870  0.3075  0.1974
 6712TIP3    H220101   3.217   2.518   2.061 -0.0657  0.7745  0.7626
 6713TIP3   OH220102   0.867   2.731   3.520  0.0406  0.0440  0.6723
 6713TIP3    H120103   0.806   2.706   3.451 -1.1431  0.3199  1.5802
 6713TIP3    H220104   0.950   2.689   3.496  0.1935  1.5655 -1.8499
 6714TIP3   OH220105   6.620   5.499   0.653 -0.4172 -0.6833 -0.4124
 6714TIP3    H120106   6.709   5.469   0.672  0.1538  0.5410 -1.0196
 6714TIP3    H220107   6.583   5.429   0.599  0.9886 -0.2169 -2.0696
 6715TIP3   OH220108   5.612   1.379   4.402 -0.3648  0.0654 -0.3722
 6715TIP3    H120109   5.531   1.396   4.452 -0.1678 -1.3909  0.4878
 6715TIP3    H220110   5.583   1.377   4.311 -2.0311 -3.6426  0.0286
 6716TIP3   OH220111   6.998   1.554   1.127  0.3288 -0.3801  0.0378
 6716TIP3    H120112   6.946   1.523   1.201 -0.2085 -1.2988 -0.6940
 6716TIP3    H220113   7.042   1.475   1.094  1.3191  0.1879 -0.0374
 6717TIP3   OH220114   2.666   3.909   1.771  0.4174 -0.8467 -0.2853
 6717TIP3    H120115   2.700   3.953   1.693 -3.1900  0.2405 -1.4209
 6717TIP3    H220116   2.678   3.816   1.754  0.1557 -0.6007 -1.9076
 6718TIP3   OH220117   3.396   0.730   2.472  0.1685 -0.4606  0.3601
 6718TIP3    H120118   3.445   0.752   2.393  0.9045  0.8970  1.1651
 6718TIP3    H220119   3.444   0.657   2.511  0.9254  0.1103  0.5308
 6719TIP3   OH220120   2.861   2.653   5.794 -0.5722  0.1749 -0.0808
 6719TIP3    H120121   2.783   2.654   5.849 -0.4273  1.3170  0.1324
 6719TIP3    H220122   2.933   2.637   5.854 -0.6209 -0.8997 -0.2803
 6720TIP3   OH220123   4.200   0.768   3.659 -0.3675  0.1903 -0.4756
 6720TIP3    H120124   4.211   0.678   3.630 -0.2236 -0.4990  1.5263
 6720TIP3    H220125   4.130   0.803   3.604  1.7427 -0.0270 -3.5528
 6721TIP3   OH220126   2.705   6.282   1.494 -0.1520 -0.0373 -0.5719
 6721TIP3    H120127   2.794   6.264   1.524 -0.6216  0.3555  1.1717
 6721TIP3    H220128   2.651   6.218   1.540 -0.9454  0.8175 -0.2862
 6722TIP3   OH220129   0.545   5.133   1.740  0.1871  1.0368 -0.5986
 6722TIP3    H120130   0.563   5.153   1.832  1.3634 -1.2351 -0.2749
 6722TIP3    H220131   0.457   5.167   1.726 -0.8933 -0.3789  2.0021
 6723TIP3   OH220132   5.680   4.874   3.491 -0.3097 -0.5225 -0.2759
 6723TIP3    H120133   5.604   4.817   3.486 -0.4967 -0.6112  2.3196
 6723TIP3    H220134   5.647   4.955   3.529  0.9655 -0.8073  1.5686
 6724TIP3   OH220135   7.107   5.211   4.348 -0.2985 -0.2567 -0.7511
 6724TIP3    H120136   7.047   5.166   4.289 -1.1289  0.9068 -0.8271
 6724TIP3    H220137   7.188   5.219   4.298  0.0549 -2.0720 -0.5541
 6725TIP3   OH220138   4.489   3.475   5.689 -0.0505 -0.8622  0.0868
 6725TIP3    H120139   4.435   3.474   5.768 -0.6090 -1.6423 -0.2945
 6725TIP3    H220140   4.428   3.496   5.618  0.3808 -0.5178 -0.1867
 6726TIP3   OH220141   4.172   5.161   4.780 -0.0151 -0.0013  0.3791
 6726TIP3    H120142   4.234   5.209   4.835  0.6203 -1.1193  0.6650
 6726TIP3    H220143   4.174   5.206   4.696 -0.4586  1.2977  1.0374
 6727TIP3   OH220144   4.429   6.561   1.155  0.3036 -0.2984  0.1126
 6727TIP3    H120145   4.435   6.470   1.124  0.4286 -0.2019 -0.1486
 6727TIP3    H220146   4.373   6.556   1.232  0.4138 -0.6181  0.1750
 6728TIP3   OH220147   3.462   6.529   2.180  0.3385  0.1440 -0.4802
 6728TIP3    H120148   3.418   6.610   2.204  0.0851 -0.0614 -0.2490
 6728TIP3    H220149   3.399   6.460   2.200  1.4022 -0.3144  1.5895
 6729TIP3   OH220150   5.549   4.512   1.214  0.0986 -0.4575  0.2834
 6729TIP3    H120151   5.488   4.569   1.259 -1.0753 -1.1408 -0.4041
 6729TIP3    H220152   5.617   4.493   1.280 -0.6837 -0.0949  1.2131
 6730TIP3   OH220153   1.885   4.224   2.432  0.4961  0.5048 -0.1284
 6730TIP3    H120154   1.878   4.201   2.339  0.2433  1.3348 -0.3244
 6730TIP3    H220155   1.948   4.161   2.467  0.2152 -0.1418 -0.7468
 6731TIP3   OH220156   7.063   2.886   1.196 -1.2444 -0.0975  0.1044
 6731TIP3    H120157   7.031   2.802   1.162 -1.5676  0.2543 -0.4712
 6731TIP3    H220158   7.142   2.903   1.146 -1.3179  0.0657  0.0449
 6732TIP3   OH220159   4.694   1.472   0.564 -1.0140 -0.2026 -0.2498
 6732TIP3    H120160   4.670   1.417   0.490  1.3488 -0.5481 -0.8388
 6732TIP3    H220161   4.735   1.412   0.626 -1.3344  0.3857  0.5531
 6733TIP3   OH220162   5.959   0.924   4.828 -0.4759  0.0081 -0.3744
 6733TIP3    H120163   6.040   0.960   4.790 -0.5498 -0.8509 -1.3839
 6733TIP3    H220164   5.984   0.836   4.857 -1.5488 -1.1361 -2.7054
 6734TIP3   OH220165   2.183   1.951   4.335  0.2858 -0.2268 -0.1213
 6734TIP3    H120166   2.269   1.920   4.307 -0.4290 -1.1443 -1.4476
 6734TIP3    H220167   2.164   1.902   4.415 -0.6104 -3.0666 -1.9108
 6735TIP3   OH220168   0.160   5.995   4.909 -0.0441 -0.3968  0.0333
 6735TIP3    H120169   0.191   6.076   4.870  2.1305 -1.7158 -1.2069
 6735TIP3    H220170   0.205   5.989   4.993  0.5797 -0.7444 -0.3131
 6736TIP3   OH220171   0.577   2.308   5.654  0.5830  0.0493 -0.5113
 6736TIP3    H120172   0.561   2.238   5.590 -2.3555  0.2528 -0.1464
 6736TIP3    H220173   0.496   2.360   5.653  1.4670  1.5941  1.4992
 6737TIP3   OH220174   4.124   0.704   2.137 -0.0536  0.0423 -0.3073
 6737TIP3    H120175   4.209   0.695   2.180  0.8054  1.5839 -1.5563
 6737TIP3    H220176   4.103   0.797   2.148 -0.3840  0.2012 -2.1084
 6738TIP3   OH220177   6.567   2.705   3.166 -0.1467  0.0930  0.1378
 6738TIP3    H120178   6.557   2.626   3.112  0.0155 -0.0625  0.3312
 6738TIP3    H220179   6.480   2.745   3.167 -0.1193  0.1651 -0.3409
 6739TIP3   OH220180   4.978   1.586   0.535 -0.1678  0.2775  0.2893
 6739TIP3    H120181   5.012   1.525   0.470 -0.5646  0.2747  0.0801
 6739TIP3    H220182   4.886   1.563   0.544 -0.4620  1.1908 -0.1985
 6740TIP3   OH220183   4.117   0.748   1.749 -0.1363  0.3078  0.5894
 6740TIP3    H120184   4.118   0.821   1.812  2.5478  1.9460 -1.1303
 6740TIP3    H220185   4.094   0.789   1.665  2.8093 -0.4134 -0.6921
 6741TIP3   OH220186   1.520   2.742   5.418  0.2505 -0.8707 -0.3942
 6741TIP3    H120187   1.487   2.831   5.405  0.4105 -0.7260  0.1432
 6741TIP3    H220188   1.471   2.689   5.355 -0.3609 -0.5156 -0.2324
 6742TIP3   OH220189   2.579   1.310   2.049 -0.4529 -0.0489 -0.6112
 6742TIP3    H120190   2.535   1.265   1.977 -0.8196  0.1218 -0.4965
 6742TIP3    H220191   2.592   1.399   2.018  1.9110 -0.6548 -1.5460
 6743TIP3   OH220192   0.038   2.468   3.853 -0.1595 -0.1849  0.3646
 6743TIP3    H120193   0.069   2.531   3.787  0.5178  0.0600  0.9162
 6743TIP3    H220194  -0.015   2.521   3.913  0.1444 -0.2057  0.6487
 6744TIP3   OH220195   5.117   0.339   0.868 -0.1707  0.0093 -0.3931
 6744TIP3    H120196   5.054   0.350   0.940 -0.6624  0.2253 -0.8449
 6744TIP3    H220197   5.066   0.360   0.789 -0.2764 -2.4110 -1.0308
 6745TIP3   OH220198   6.873   2.995   1.367 -0.2794  0.4044  0.3708
 6745TIP3    H120199   6.955   2.979   1.320  0.0178  0.0418  1.0053
 6745TIP3    H220200   6.806   2.957   1.310  0.1315 -0.5333  0.4863
 6746TIP3   OH220201   0.075   5.566   4.234 -0.2875 -0.5661 -0.1802
 6746TIP3    H120202   0.079   5.575   4.329  2.2707  0.8283 -0.3461
 6746TIP3    H220203   0.041   5.650   4.203 -1.7768 -1.2548 -0.5268
 6747TIP3   OH220204   1.448   5.979   4.635  0.1161 -0.0573  0.9124
 6747TIP3    H120205   1.455   5.943   4.723 -1.7826 -0.0383  1.1027
 6747TIP3    H220206   1.382   5.925   4.592  0.4435  0.4397 -0.2515
 6748TIP3   OH220207   2.327   1.333   0.732  0.5730  0.2333 -0.3836
 6748TIP3    H120208   2.318   1.239   0.748  1.7866  0.4085  1.6429
 6748TIP3    H220209   2.257   1.353   0.669  1.1714 -2.2518 -2.0152
 6749TIP3   OH220210   3.975   5.058   0.649  0.5536 -0.1998  0.0289
 6749TIP3    H120211   4.035   5.082   0.720  1.9337  0.2046 -1.2146
 6749TIP3    H220212   3.988   4.964   0.636 -0.5856 -0.5163  1.0831
 6750TIP3   OH220213   4.642   5.072   3.578 -0.2223 -0.0658 -0.2775
 6750TIP3    H120214   4.610   5.042   3.663  0.9238  1.1637  0.6350
 6750TIP3    H220215   4.606   5.160   3.569  1.0335  0.4705 -0.2566
 6751TIP3   OH220216   5.516   0.040   3.958  0.0332 -0.0813 -0.1773
 6751TIP3    H120217   5.477  -0.033   4.006  0.7441 -2.2633 -2.6522
 6751TIP3    H220218   5.447   0.106   3.952 -1.1397 -1.1671  0.8843
 6752TIP3   OH220219   4.470   2.934   2.921 -0.3927 -0.2602  0.6006
 6752TIP3    H120220   4.379   2.912   2.901 -1.2581  1.1696  2.6476
 6752TIP3    H220221   4.505   2.857   2.965 -0.0356 -1.4413 -1.5952
 6753TIP3   OH220222   4.189   3.029   4.935  0.1713  0.1554 -0.2053
 6753TIP3    H120223   4.185   3.067   5.023 -0.8252 -1.1462  0.3362
 6753TIP3    H220224   4.149   3.095   4.879 -0.4758  0.4067  0.5339
 6754TIP3   OH220225   3.631   3.541   0.031  0.4442 -0.6655  0.1337
 6754TIP3    H120226   3.642   3.455  -0.009  0.5955 -0.7769  0.4156
 6754TIP3    H220227   3.558   3.530   0.092  1.0487 -0.8303  0.8360
 6755TIP3   OH220228   5.305   6.063   0.282  0.2677  0.6816  0.3842
 6755TIP3    H120229   5.226   6.095   0.239  0.5003 -0.1637 -0.7191
 6755TIP3    H220230   5.370   6.132   0.269  0.3413  0.4343 -0.6746
 6756TIP3   OH220231   2.272   4.938   3.158  0.0708 -0.0996  0.6022
 6756TIP3    H120232   2.288   5.004   3.090  0.6999 -0.7711  0.0833
 6756TIP3    H220233   2.354   4.891   3.165 -0.1133 -0.2875  1.5769
 6757TIP3   OH220234   4.208   4.426   0.702 -0.8547 -1.0034 -0.3679
 6757TIP3    H120235   4.300   4.442   0.683 -0.3383 -0.9141  1.9039
 6757TIP3    H220236   4.178   4.369   0.631  0.9379 -1.0212 -1.1623
 6758TIP3   OH220237   4.917   1.046   4.260  0.4683  0.0281  0.7443
 6758TIP3    H120238   4.989   1.100   4.228  2.2685 -2.0550  0.9851
 6758TIP3    H220239   4.873   1.015   4.180  1.4321 -0.6726  0.4695
 6759TIP3   OH220240   6.625   3.552   2.424  0.1000  0.0317 -0.0040
 6759TIP3    H120241   6.662   3.633   2.458  0.3500  0.1703 -0.5851
 6759TIP3    H220242   6.532   3.571   2.412 -0.2855 -0.4764  1.9394
 6760TIP3   OH220243   7.060   5.803   3.558  0.0342  0.3618  0.1793
 6760TIP3    H120244   7.067   5.883   3.507 -0.3755 -0.0702 -0.5711
 6760TIP3    H220245   6.970   5.774   3.546 -1.5694  2.5099  4.6231
 6761TIP3   OH220246   3.127   1.165   3.770  0.1657 -0.1469 -0.1186
 6761TIP3    H120247   3.069   1.100   3.809 -0.3024  0.0520 -0.4754
 6761TIP3    H220248   3.213   1.124   3.770  0.1366 -0.2346  0.9359
 6762TIP3   OH220249   5.192   2.876   0.373 -0.4013 -0.2829 -0.5683
 6762TIP3    H120250   5.168   2.864   0.281  0.3623 -0.2711 -0.7802
 6762TIP3    H220251   5.111   2.863   0.422 -0.9749  0.4367 -1.2990
 6763TIP3   OH220252   5.542   5.666   5.733 -0.6030  0.1604  0.2107
 6763TIP3    H120253   5.506   5.721   5.664 -2.5118 -0.5565  0.5885
 6763TIP3    H220254   5.579   5.728   5.796  2.2962  0.8158 -1.9197
 6764TIP3   OH220255   0.587   0.502   4.221  0.0493 -0.4566  0.3562
 6764TIP3    H120256   0.517   0.444   4.253 -0.0777 -0.6020 -0.1838
 6764TIP3    H220257   0.633   0.529   4.301 -2.3404  1.9008  1.1111
 6765TIP3   OH220258   5.655   2.329   4.406 -0.4250  0.5547  0.0944
 6765TIP3    H120259   5.718   2.401   4.405  0.5641 -0.2477  1.4346
 6765TIP3    H220260   5.625   2.324   4.496  0.0573 -1.1271  0.2044
 6766TIP3   OH220261   6.862   1.117   0.645  0.2609  0.4547 -0.5540
 6766TIP3    H120262   6.834   1.047   0.586 -0.0627  0.7251 -0.7231
 6766TIP3    H220263   6.951   1.137   0.617 -0.4338  1.6982 -2.0377
 6767TIP3   OH220264   2.533   0.689   2.119 -0.3751  0.1826 -0.4274
 6767TIP3    H120265   2.477   0.751   2.073 -0.6165  0.9600  0.8869
 6767TIP3    H220266   2.529   0.609   2.065 -1.7360  0.6212 -1.0228
 6768TIP3   OH220267   5.375   2.684   4.303  0.1197 -0.0084  0.1032
 6768TIP3    H120268   5.376   2.610   4.363  0.5903 -0.9194 -0.9967
 6768TIP3    H220269   5.313   2.746   4.342  0.0398 -0.7880  1.2510
 6769TIP3   OH220270   4.226   2.482   5.142 -0.0089  0.2442 -0.5524
 6769TIP3    H120271   4.178   2.435   5.074  0.9300 -0.2092 -0.9130
 6769TIP3    H220272   4.308   2.434   5.151  0.4207  1.0645 -0.0151
 6770TIP3   OH220273   5.194   1.585   4.294 -0.0457  0.0927  0.0252
 6770TIP3    H120274   5.147   1.537   4.362  0.0320  0.0593  0.0558
 6770TIP3    H220275   5.205   1.673   4.330 -1.4577  0.5588 -0.6160
 6771TIP3   OH220276   6.358   5.274   1.884  0.6910  0.2125 -0.3069
 6771TIP3    H120277   6.366   5.260   1.979 -1.6375  0.4366 -0.0068
 6771TIP3    H220278   6.373   5.367   1.872 -0.9423  0.5634  0.1586
 6772TIP3   OH220279   4.892   2.797   4.190 -0.1063  0.3514 -0.1002
 6772TIP3    H120280   4.957   2.764   4.128  0.0034 -0.4410  0.4230
 6772TIP3    H220281   4.856   2.875   4.148 -1.0076 -0.9137 -1.8002
 6773TIP3   OH220282   1.349   4.710   5.036  0.2972  0.1707 -0.1016
 6773TIP3    H120283   1.380   4.621   5.052 -0.6414 -0.5179 -1.8725
 6773TIP3    H220284   1.295   4.703   4.958 -2.9118  1.6225  1.7949
 6774TIP3   OH220285   2.343   5.785   2.384  0.0567 -0.2035 -0.2001
 6774TIP3    H120286   2.391   5.703   2.394 -2.8001 -1.8253  1.9847
 6774TIP3    H220287   2.277   5.765   2.317 -1.8580 -0.4786  1.6363
 6775TIP3   OH220288   5.948   6.538   0.084  0.3819  0.4743  0.6431
 6775TIP3    H120289   5.890   6.512   0.013 -0.9579  0.6137  1.6578
 6775TIP3    H220290   6.016   6.589   0.041  0.9446 -1.4034 -0.8595
 6776TIP3   OH220291   4.084   2.619   5.748 -0.4886 -0.1901  0.2802
 6776TIP3    H120292   4.049   2.532   5.726 -0.1299 -0.6957  1.6342
 6776TIP3    H220293   4.161   2.628   5.691 -0.5657 -0.7366  0.0774
 6777TIP3   OH220294   0.430   4.495   2.902 -0.2860 -0.3593  0.3768
 6777TIP3    H120295   0.399   4.407   2.878 -0.8755 -0.0666  0.0360
 6777TIP3    H220296   0.475   4.526   2.824 -0.8690 -0.0067  0.1749
 6778TIP3   OH220297   6.826   6.659   1.539  0.8028 -1.0101 -0.2172
 6778TIP3    H120298   6.817   6.728   1.605  2.2167 -1.3031  0.3267
 6778TIP3    H220299   6.857   6.583   1.589  2.1291 -1.1748 -1.2412
 6779TIP3   OH220300   6.833   0.465   0.830  0.0495  0.9622  0.6661
 6779TIP3    H120301   6.889   0.388   0.841 -0.3928  0.5102 -0.1118
 6779TIP3    H220302   6.746   0.429   0.811  0.0040  1.6281 -0.4989
 6780TIP3   OH220303   3.368   5.717   2.919 -0.4790 -0.3742  0.1981
 6780TIP3    H120304   3.363   5.735   3.013 -0.5155  0.3193  0.0739
 6780TIP3    H220305   3.364   5.622   2.912  0.5340 -0.4843  0.9568
 6781TIP3   OH220306   5.160   2.726   1.338 -0.5217 -0.0290 -0.0302
 6781TIP3    H120307   5.209   2.762   1.265 -2.2598  1.1387 -0.6889
 6781TIP3    H220308   5.195   2.770   1.416 -0.4634  0.7202 -0.4772
 6782TIP3   OH220309   3.563   2.910   4.597  0.2631  0.4049 -0.4150
 6782TIP3    H120310   3.485   2.964   4.614 -0.3146 -0.3573 -0.5866
 6782TIP3    H220311   3.536   2.851   4.527  0.2564 -1.3582  0.9990
 6783TIP3   OH220312   6.036   4.341   5.106  0.2281 -0.2545  0.4802
 6783TIP3    H120313   5.974   4.319   5.037  0.3564 -1.1150  0.6195
 6783TIP3    H220314   6.007   4.289   5.181 -0.1628  0.9910  1.2092
 6784TIP3   OH220315   2.018   2.240   0.512  0.1677 -0.2718 -0.3644
 6784TIP3    H120316   2.102   2.195   0.509  0.5157  0.2847  0.6734
 6784TIP3    H220317   2.028   2.314   0.451 -0.0157 -0.9055 -1.1903
 6785TIP3   OH220318   3.590   4.046   1.682  0.0941 -0.0441 -0.1005
 6785TIP3    H120319   3.655   4.114   1.663 -2.3609  1.9767 -1.9637
 6785TIP3    H220320   3.609   3.977   1.619  0.0389  0.8313 -1.1100
 6786TIP3   OH220321   4.844   6.704   2.352  0.1052 -0.3220  0.5267
 6786TIP3    H120322   4.778   6.771   2.334 -0.1336 -0.3429  1.2823
 6786TIP3    H220323   4.818   6.668   2.436  0.2738 -1.3242  0.1569
 6787TIP3   OH220324   1.488   5.756   0.204 -0.1723  0.2635  0.1405
 6787TIP3    H120325   1.519   5.813   0.275  0.2339 -0.5668  0.6489
 6787TIP3    H220326   1.566   5.741   0.150 -0.3832  0.5493 -0.2502
 6788TIP3   OH220327   4.946   3.060   5.322 -0.1069  0.3318 -0.0188
 6788TIP3    H120328   4.904   3.013   5.394 -1.1558  1.4662  0.1402
 6788TIP3    H220329   5.011   2.998   5.288  0.0380 -0.4130  1.5375
 6789TIP3   OH220330   0.074   3.946   1.698  0.6005 -0.1092 -0.5598
 6789TIP3    H120331   0.082   4.000   1.777 -0.5390  0.9298 -1.1039
 6789TIP3    H220332   0.159   3.952   1.656  0.2908  1.9620 -0.9978
 6790TIP3   OH220333   2.217   4.451   3.533 -0.0988 -0.8129  0.5101
 6790TIP3    H120334   2.286   4.434   3.468 -1.1518 -1.0687 -0.5923
 6790TIP3    H220335   2.242   4.533   3.575  1.5800 -1.6046  1.1232
 6791TIP3   OH220336   5.187   3.893   3.865  0.3782  0.4530  0.2556
 6791TIP3    H120337   5.132   3.869   3.939  0.6650 -2.0593 -0.2367
 6791TIP3    H220338   5.126   3.925   3.799 -0.4668 -1.5774 -0.0126
 6792TIP3   OH220339   1.083   6.451   2.761  0.3014  0.3186 -0.2271
 6792TIP3    H120340   1.125   6.397   2.828  0.4711  0.3903 -0.2772
 6792TIP3    H220341   1.049   6.527   2.809 -1.3258 -0.5779  0.1171
 6793TIP3   OH220342   5.268   4.945   5.002  0.2779  0.6178 -0.4432
 6793TIP3    H120343   5.253   4.858   5.040 -2.1004 -0.5152 -3.5305
 6793TIP3    H220344   5.346   4.934   4.948 -0.2199  0.2795 -1.1010
 6794TIP3   OH220345   3.670   4.416   3.376  0.3236  0.1020  0.4487
 6794TIP3    H120346   3.658   4.384   3.286  0.2981 -1.9998  1.1501
 6794TIP3    H220347   3.763   4.438   3.381  0.1186  1.2555 -0.3797
 6795TIP3   OH220348   5.156   0.802   0.577 -0.2508  0.5236 -0.0806
 6795TIP3    H120349   5.129   0.891   0.554  0.2312  0.9420  0.9061
 6795TIP3    H220350   5.122   0.790   0.666  1.6553  0.5945  0.6939
 6796TIP3   OH220351   6.648   3.058   0.129  0.1804  0.1572 -0.1511
 6796TIP3    H120352   6.653   3.047   0.223 -1.7466 -1.0466 -0.1311
 6796TIP3    H220353   6.682   2.976   0.093  1.1791  0.7233 -0.5280
 6797TIP3   OH220354   4.337   2.392   5.797 -0.1393  0.0482  0.1283
 6797TIP3    H120355   4.293   2.456   5.741  0.4720 -0.0795 -0.5133
 6797TIP3    H220356   4.428   2.392   5.766  0.0093 -0.6476  0.5552
 6798TIP3   OH220357   5.645   3.799   3.088  0.3922  0.3029  0.2117
 6798TIP3    H120358   5.630   3.728   3.151  0.2152  0.1289 -0.0274
 6798TIP3    H220359   5.662   3.876   3.143 -0.4335  0.2969  0.4793
 6799TIP3   OH220360   1.477   0.517   1.729  0.4364  0.2169  0.8903
 6799TIP3    H120361   1.497   0.458   1.657  0.9138 -0.1169  1.2874
 6799TIP3    H220362   1.537   0.590   1.718  1.0225 -0.1837  1.3605
 6800TIP3   OH220363   3.782   5.656   2.580 -0.3879  0.0360  0.2260
 6800TIP3    H120364   3.772   5.719   2.509  0.3762 -0.8885 -0.7341
 6800TIP3    H220365   3.692   5.631   2.601 -0.6174 -1.4960 -2.1437
 6801TIP3   OH220366   1.525   5.596   0.875 -0.0949 -0.2015 -0.2097
 6801TIP3    H120367   1.452   5.626   0.821  0.3786  0.7494 -0.3434
 6801TIP3    H220368   1.493   5.515   0.916 -0.2716 -1.2911 -2.3458
 6802TIP3   OH220369   0.275   1.454   5.267  0.1012  0.5256 -0.1497
 6802TIP3    H120370   0.298   1.546   5.263  0.4588  0.4007 -1.9114
 6802TIP3    H220371   0.180   1.452   5.270  0.0983  0.9503 -0.0218
 6803TIP3   OH220372   4.581   6.106   2.262  0.1272 -0.0711 -0.5655
 6803TIP3    H120373   4.674   6.085   2.254 -0.0800 -0.6180 -1.8528
 6803TIP3    H220374   4.560   6.091   2.354  1.6672  1.6319  0.1330
 6804TIP3   OH220375   4.761   6.238   5.886 -0.5394  0.2163 -0.4625
 6804TIP3    H120376   4.791   6.313   5.835 -1.7371 -0.6255 -2.5411
 6804TIP3    H220377   4.838   6.182   5.895 -0.3981  0.1932 -1.7458
 6805TIP3   OH220378   6.678   2.929   4.509 -0.2770  0.7368 -0.3872
 6805TIP3    H120379   6.594   2.886   4.523 -0.5576  1.2846 -0.3396
 6805TIP3    H220380   6.726   2.870   4.451 -0.6785  0.3965 -0.3771
 6806TIP3   OH220381   6.887   6.646   0.248 -0.9656  0.7599  0.6168
 6806TIP3    H120382   6.848   6.560   0.235  0.1205 -0.0804  2.5064
 6806TIP3    H220383   6.940   6.660   0.170 -0.0156 -0.9619  0.9023
 6807TIP3   OH220384   2.789   0.756   3.753  0.2266  0.3652 -0.6026
 6807TIP3    H120385   2.798   0.669   3.714  2.0318 -0.0473  0.6225
 6807TIP3    H220386   2.830   0.748   3.839 -0.0910  2.2944 -0.2271
 6808TIP3   OH220387   2.300   0.670   1.632  0.3371 -0.3277  0.0442
 6808TIP3    H120388   2.254   0.651   1.713  0.6369  0.8462  0.5198
 6808TIP3    H220389   2.323   0.763   1.639 -0.2851 -0.0044 -1.7125
 6809TIP3   OH220390   3.528   6.454   1.899 -0.4206 -0.6017 -0.1005
 6809TIP3    H120391   3.462   6.465   1.968 -1.0684 -1.9510 -0.4655
 6809TIP3    H220392   3.505   6.371   1.858  2.0658 -1.5715  0.3433
 6810TIP3   OH220393   0.863   4.520   2.939  0.0534  0.4505 -0.1342
 6810TIP3    H120394   0.867   4.478   2.853 -1.3311  0.0060 -0.0078
 6810TIP3    H220395   0.951   4.509   2.975  0.3281 -0.3973 -1.0163
 6811TIP3   OH220396   2.191   1.524   4.902 -0.3381  0.3553  0.4142
 6811TIP3    H120397   2.173   1.506   4.994  0.4384 -0.9080  0.3445
 6811TIP3    H220398   2.206   1.438   4.863 -0.1831  0.9063 -0.7955
 6812TIP3   OH220399   2.799   4.294   5.359 -0.6274  0.3116  0.2658
 6812TIP3    H120400   2.827   4.203   5.361 -0.9065  0.2231  0.1380
 6812TIP3    H220401   2.727   4.296   5.297  0.4831  0.9318 -1.0435
 6813TIP3   OH220402   2.188   1.596   1.937 -0.2606 -0.0910 -0.1970
 6813TIP3    H120403   2.228   1.661   1.996  2.8290 -1.2026 -0.9072
 6813TIP3    H220404   2.162   1.525   1.995 -1.5524  0.7560  0.3095
 6814TIP3   OH220405   6.310   1.820   0.157 -0.0330  0.5113 -0.5481
 6814TIP3    H120406   6.285   1.840   0.247 -0.7332  1.6115 -0.9702
 6814TIP3    H220407   6.359   1.738   0.164  0.8476  1.1247  0.9530
 6815TIP3   OH220408   0.954   0.098   1.632  0.0626 -0.4831 -0.2239
 6815TIP3    H120409   0.990   0.131   1.550  0.8891 -0.9407 -0.0566
 6815TIP3    H220410   1.030   0.063   1.679 -0.5819 -1.3457  0.2016
 6816TIP3   OH220411   7.053   6.470   5.028 -0.4048 -0.0300  0.2356
 6816TIP3    H120412   7.063   6.533   5.100  1.3506 -0.8126  0.7225
 6816TIP3    H220413   7.108   6.396   5.053  1.8402  0.4324 -2.8086
 6817TIP3   OH220414   3.904   2.724   0.654 -0.3873 -0.2839  0.5408
 6817TIP3    H120415   3.843   2.760   0.589 -0.8040  2.6732  2.3709
 6817TIP3    H220416   3.990   2.748   0.621 -0.5129 -0.0464  0.3812
 6818TIP3   OH220417   3.467   1.187   2.479  0.5432  0.3898  0.2906
 6818TIP3    H120418   3.555   1.226   2.479  0.5879  0.2933  0.4536
 6818TIP3    H220419   3.411   1.256   2.515  0.1469  1.2995 -1.9068
 6819TIP3   OH220420   6.554   1.219   4.928  0.2536  1.0533  0.7142
 6819TIP3    H120421   6.473   1.214   4.978 -0.8690  0.9030 -1.0043
 6819TIP3    H220422   6.599   1.296   4.962 -1.3649  2.0638  0.6776
 6820TIP3   OH220423   5.949   4.348   3.441 -0.4403  0.5351 -0.1633
 6820TIP3    H120424   5.932   4.268   3.491  1.8179 -0.3376 -0.6996
 6820TIP3    H220425   5.939   4.321   3.350  0.5276  0.8018 -0.3540
 6821TIP3   OH220426   5.195   5.885   1.406 -0.4831  0.0201  0.0042
 6821TIP3    H120427   5.114   5.885   1.355 -0.7185  0.3479  0.3800
 6821TIP3    H220428   5.174   5.834   1.484 -0.4827  0.5480  0.3479
 6822TIP3   OH220429   6.543   4.579   1.153 -0.2697 -0.1738 -0.2988
 6822TIP3    H120430   6.521   4.671   1.136 -1.0234  0.0432  1.6210
 6822TIP3    H220431   6.462   4.540   1.187  0.5928 -0.9718  0.9605
 6823TIP3   OH220432   1.084   0.855   2.283  0.5495  0.4593 -0.4689
 6823TIP3    H120433   1.100   0.761   2.288 -0.8490  0.1580 -1.0808
 6823TIP3    H220434   1.060   0.870   2.192 -1.2927  1.0093  0.0459
 6824TIP3   OH220435   4.935   4.365   1.935  0.3936  0.1655  0.2722
 6824TIP3    H120436   4.842   4.384   1.948 -0.0520 -1.3192 -0.6114
 6824TIP3    H220437   4.949   4.281   1.979  1.0963 -0.1064 -0.4496
 6825TIP3   OH220438   0.843   0.558   2.784 -0.1564  0.4017 -0.6241
 6825TIP3    H120439   0.919   0.605   2.819 -0.2780  0.8706 -0.9708
 6825TIP3    H220440   0.796   0.526   2.861 -0.0891  0.8811 -0.3827
 6826TIP3   OH220441   0.672   1.247   5.201  0.1295 -0.6851  0.0577
 6826TIP3    H120442   0.597   1.191   5.221  0.8841 -1.4148  0.9684
 6826TIP3    H220443   0.748   1.189   5.212  0.9674  0.6248  1.4244
 6827TIP3   OH220444   0.821   5.124   1.848 -0.4061  0.6387 -0.3053
 6827TIP3    H120445   0.802   5.187   1.779  0.4306 -0.9911 -2.1366
 6827TIP3    H220446   0.858   5.049   1.802  0.7284 -0.3229  2.0020
 6828TIP3   OH220447   6.114   6.785   4.483  0.2776 -0.2083  0.5471
 6828TIP3    H120448   6.065   6.856   4.442  1.9183  0.5673 -0.1828
 6828TIP3    H220449   6.060   6.707   4.471 -1.0688  0.7279  0.4128
 6829TIP3   OH220450   6.104   5.985   5.247 -0.1932 -0.5600  0.0752
 6829TIP3    H120451   6.150   6.028   5.319 -0.8710  0.6563 -0.1999
 6829TIP3    H220452   6.174   5.952   5.190  0.3397 -0.9210  0.9120
 6830TIP3   OH220453   0.199   4.285   2.170 -0.4211 -0.0916  0.5567
 6830TIP3    H120454   0.262   4.352   2.198  0.6534 -0.2238 -1.3755
 6830TIP3    H220455   0.113   4.323   2.189  0.2128  0.7818  1.7559
 6831TIP3   OH220456   4.047   3.708   2.903  0.4786  0.4574  1.1565
 6831TIP3    H120457   4.123   3.667   2.862  0.8690 -0.0560  2.3564
 6831TIP3    H220458   4.056   3.801   2.883  0.5231  0.1983 -0.0989
 6832TIP3   OH220459   1.679   1.994   3.943 -0.8174 -0.1853 -0.3474
 6832TIP3    H120460   1.646   1.905   3.955  0.1681 -0.4409  0.7106
 6832TIP3    H220461   1.693   2.002   3.849  1.3285 -2.0357 -0.2874
 6833TIP3   OH220462   4.611   1.917   0.710  0.0779  0.8840 -0.2437
 6833TIP3    H120463   4.570   1.960   0.785 -0.9366  1.3732 -1.0541
 6833TIP3    H220464   4.613   1.984   0.641  0.4837  0.2887 -0.8278
 6834TIP3   OH220465   6.857   3.424   2.781  0.1518 -0.0081  0.0710
 6834TIP3    H120466   6.831   3.511   2.813  1.4585  0.0478  1.0409
 6834TIP3    H220467   6.941   3.438   2.738 -0.6165 -0.4539 -1.6832
 6835TIP3   OH220468   6.683   6.699   3.720 -0.4667  0.6121  0.0085
 6835TIP3    H120469   6.778   6.703   3.731 -0.0524 -0.9489 -2.3236
 6835TIP3    H220470   6.650   6.685   3.809  1.6193 -0.4614  0.6954
 6836TIP3   OH220471   2.908   1.534   2.405 -0.2027  0.4666  0.6053
 6836TIP3    H120472   2.831   1.491   2.368 -0.2163  1.5085 -0.6671
 6836TIP3    H220473   2.873   1.594   2.471 -0.4213  0.4583  0.4981
 6837TIP3   OH220474   5.684   0.305   3.232  0.1062 -0.0158 -0.1811
 6837TIP3    H120475   5.602   0.268   3.267  1.1655 -1.4963  0.8608
 6837TIP3    H220476   5.731   0.230   3.197  0.1658  1.1003 -2.7055
 6838TIP3   OH220477   7.016   4.084   3.914 -0.4109  0.3161 -0.6323
 6838TIP3    H120478   7.106   4.070   3.887 -0.9819 -3.0138 -1.2046
 6838TIP3    H220479   6.968   4.101   3.833 -0.3508  2.1783 -0.3214
 6839TIP3   OH220480   2.056   5.228   1.872 -0.4793  0.3973  0.1522
 6839TIP3    H120481   1.966   5.224   1.840 -0.1719 -0.3546 -0.6467
 6839TIP3    H220482   2.110   5.235   1.793  0.3392 -2.1807  0.4032
 6840TIP3   OH220483   6.930   4.607   1.493  0.4773 -0.4395  0.4219
 6840TIP3    H120484   6.885   4.630   1.574  0.0008  0.3169 -0.0454
 6840TIP3    H220485   6.985   4.683   1.473  0.4806 -0.5576 -0.0326
 6841TIP3   OH220486   6.456   3.609   5.486  0.0093 -0.1744  0.4210
 6841TIP3    H120487   6.381   3.550   5.495 -0.2080  0.2525  1.6574
 6841TIP3    H220488   6.461   3.627   5.392 -0.8396 -0.9722  0.2043
 6842TIP3   OH220489   0.283   6.617   1.436 -0.5508 -0.0234 -0.3450
 6842TIP3    H120490   0.374   6.605   1.462 -0.5544  1.5386  0.4915
 6842TIP3    H220491   0.282   6.595   1.342  0.4064 -1.2790 -0.0903
 6843TIP3   OH220492   1.013   2.376   2.528  0.4946 -0.1000  0.4298
 6843TIP3    H120493   1.072   2.428   2.473 -1.1192  0.0457 -1.2398
 6843TIP3    H220494   0.956   2.440   2.570 -0.4180 -0.4006 -0.3311
 6844TIP3   OH220495   6.842   3.970   0.560  0.0044 -0.3866  0.3919
 6844TIP3    H120496   6.793   3.909   0.505 -0.6555 -0.1138  0.6653
 6844TIP3    H220497   6.930   3.933   0.565  0.4596  0.2626 -1.9114
 6845TIP3   OH220498   5.559   1.709   0.385  0.0028 -0.4358 -0.0912
 6845TIP3    H120499   5.569   1.624   0.428 -1.1230 -0.9669 -0.8147
 6845TIP3    H220500   5.489   1.695   0.321 -0.6442  1.1973  0.1972
 6846TIP3   OH220501   2.708   2.642   5.063  0.3137 -0.1740  0.1205
 6846TIP3    H120502   2.785   2.645   5.120  0.9002  1.4153 -0.6913
 6846TIP3    H220503   2.641   2.691   5.109  0.4262  0.1423 -0.0510
 6847TIP3   OH220504   1.350   3.381   1.285 -0.3663 -0.3303  0.4861
 6847TIP3    H120505   1.398   3.447   1.234 -0.9041  1.5117  2.2447
 6847TIP3    H220506   1.416   3.315   1.306  0.6229  0.5038  0.0891
 6848TIP3   OH220507   3.096   5.530   2.381 -0.2304 -0.3558 -0.6284
 6848TIP3    H120508   3.091   5.625   2.384 -0.7847 -0.3982  0.2149
 6848TIP3    H220509   3.189   5.510   2.389 -0.1729  0.1016 -0.1219
 6849TIP3   OH220510   4.900   3.515   1.787  0.1396 -0.5407  0.8294
 6849TIP3    H120511   4.809   3.504   1.759  0.7571 -0.8094 -1.2647
 6849TIP3    H220512   4.911   3.610   1.795  0.3995 -0.2737 -1.8151
 6850TIP3   OH220513   4.973   0.630   5.027  0.8682  0.5405 -0.1810
 6850TIP3    H120514   4.936   0.718   5.024  0.9119  0.5810  0.4254
 6850TIP3    H220515   5.022   0.627   5.109  1.3846  0.1582 -0.4969
 6851TIP3   OH220516   6.489   2.399   1.476 -0.0684  0.7443  0.0489
 6851TIP3    H120517   6.539   2.469   1.517  0.3220  0.8805 -0.6463
 6851TIP3    H220518   6.480   2.426   1.385  1.5529 -0.8827 -0.6626
 6852TIP3   OH220519   1.975   2.161   2.177 -0.1764 -0.1964  0.0412
 6852TIP3    H120520   1.997   2.254   2.164  1.1836 -0.3716  0.8726
 6852TIP3    H220521   2.043   2.114   2.129 -0.1614 -0.7636  0.6130
 6853TIP3   OH220522   2.369   4.131   2.861 -0.5189 -0.3059 -0.6020
 6853TIP3    H120523   2.330   4.174   2.937  4.5519 -0.0234  2.2927
 6853TIP3    H220524   2.377   4.201   2.796  0.4324  1.1922  1.0177
 6854TIP3   OH220525   6.162   5.186   2.914 -0.3182  0.1402  0.0831
 6854TIP3    H120526   6.119   5.250   2.859  1.2616  0.8096 -0.4209
 6854TIP3    H220527   6.164   5.106   2.862 -1.8979 -0.2267  0.5436
 6855TIP3   OH220528   6.152   3.833   4.337  0.3237  0.7074  0.3559
 6855TIP3    H120529   6.179   3.774   4.267  0.0779  0.4518  0.4753
 6855TIP3    H220530   6.081   3.884   4.300 -0.1648  0.2043  0.5846
 6856TIP3   OH220531   1.067   5.606   1.586  0.1230 -0.1206 -0.9916
 6856TIP3    H120532   1.125   5.675   1.554 -1.1052  1.7170  0.5569
 6856TIP3    H220533   1.123   5.528   1.592  1.8318  1.0015 -1.7159
 6857TIP3   OH220534   4.265   1.785   5.603 -0.1037  0.2015  0.2365
 6857TIP3    H120535   4.306   1.859   5.649 -0.8839 -0.2361  1.7086
 6857TIP3    H220536   4.218   1.826   5.530  0.4474  1.0287  0.3226
 6858TIP3   OH220537   3.314   0.584   2.982  0.4194 -0.0028 -0.5917
 6858TIP3    H120538   3.256   0.559   2.910  0.2583 -0.0029 -0.4618
 6858TIP3    H220539   3.258   0.586   3.059  0.9174 -1.6818 -0.1379
 6859TIP3   OH220540   5.306   5.887   5.727  0.9906  0.1784  0.3648
 6859TIP3    H120541   5.227   5.855   5.684  0.3336  1.1335  0.8397
 6859TIP3    H220542   5.346   5.946   5.663  0.6372  0.6870  0.6108
 6860TIP3   OH220543   4.992   1.360   3.269 -0.1041 -0.2915  0.8948
 6860TIP3    H120544   4.967   1.337   3.179  0.5047  0.6203  0.4751
 6860TIP3    H220545   5.054   1.293   3.294  0.2505 -0.1671  0.3703
 6861TIP3   OH220546   1.168   4.063   4.643  0.3093 -0.3306 -0.1230
 6861TIP3    H120547   1.197   4.143   4.688  1.0824 -0.4161 -0.4609
 6861TIP3    H220548   1.122   4.013   4.711 -0.1442  0.3782  0.1042
 6862TIP3   OH220549   1.600   2.056   4.634 -0.0800  0.2431 -0.0178
 6862TIP3    H120550   1.666   2.000   4.674 -0.5577 -1.9414 -2.0436
 6862TIP3    H220551   1.540   2.078   4.705 -0.0078 -2.0870  0.8285
 6863TIP3   OH220552   3.876   6.195   5.108 -0.0590 -0.7894  0.2039
 6863TIP3    H120553   3.954   6.180   5.161 -0.5613 -0.9703  0.9097
 6863TIP3    H220554   3.881   6.288   5.083 -0.8859 -0.0796  2.4006
 6864TIP3   OH220555   1.389   1.969   0.337  0.0309  0.4549  0.4821
 6864TIP3    H120556   1.411   2.045   0.392 -0.5130  2.2982 -1.6946
 6864TIP3    H220557   1.469   1.953   0.286 -0.8470  1.7737 -1.4251
 6865TIP3   OH220558   7.130   5.725   1.681 -0.1842  0.1055 -0.7144
 6865TIP3    H120559   7.176   5.663   1.625 -2.2101 -1.8777 -0.2896
 6865TIP3    H220560   7.190   5.741   1.754  0.6695 -0.7503 -1.2169
 6866TIP3   OH220561   0.606   3.864   4.615 -0.0219  0.1014 -0.2252
 6866TIP3    H120562   0.607   3.821   4.701 -0.6586 -0.7245 -0.6093
 6866TIP3    H220563   0.556   3.944   4.629 -2.1756 -1.1435 -0.2801
 6867TIP3   OH220564   5.638   1.104   1.635  0.0365 -0.5172  0.4210
 6867TIP3    H120565   5.602   1.016   1.634  0.1390 -0.5571 -0.5350
 6867TIP3    H220566   5.567   1.159   1.668 -0.0175 -0.9469  1.0424
 6868TIP3   OH220567   6.833   6.043   2.299 -0.3286 -0.0729  0.0868
 6868TIP3    H120568   6.893   5.973   2.325 -0.8994 -0.5709  0.0665
 6868TIP3    H220569   6.833   6.040   2.203 -1.0245 -0.6250  0.0976
 6869TIP3   OH220570   2.867   6.716   5.268 -0.4379  0.0603  0.1215
 6869TIP3    H120571   2.865   6.706   5.172 -1.4107 -1.1379  0.2537
 6869TIP3    H220572   2.920   6.795   5.282  0.1116 -0.0010 -1.3833
 6870TIP3   OH220573   7.002   4.958   5.721 -0.1514 -0.3300 -0.1511
 6870TIP3    H120574   6.924   4.993   5.678  1.2101  3.1387 -0.1164
 6870TIP3    H220575   7.059   4.931   5.649 -0.5936 -1.1132 -0.2242
 6871TIP3   OH220576   4.666   5.934   5.186  0.9022 -0.9958 -0.3800
 6871TIP3    H120577   4.736   5.916   5.249 -0.7429 -1.1742  1.4677
 6871TIP3    H220578   4.660   6.030   5.184  3.4314 -0.7442 -3.2046
 6872TIP3   OH220579   1.319   3.351   1.878 -0.8752  0.3584  0.2287
 6872TIP3    H120580   1.246   3.289   1.870 -1.1150  0.7394 -0.8221
 6872TIP3    H220581   1.397   3.296   1.878 -1.1724 -0.1343  2.5333
 6873TIP3   OH220582   4.860   3.136   3.636 -0.6715 -0.3910 -0.3567
 6873TIP3    H120583   4.927   3.205   3.635  0.5066 -1.4572  0.8568
 6873TIP3    H220584   4.909   3.055   3.644 -2.1185 -1.1389  1.8687
 6874TIP3   OH220585   4.782   3.292   3.379  0.0772  0.3228  0.3198
 6874TIP3    H120586   4.702   3.240   3.383  0.0144 -0.1045 -3.1792
 6874TIP3    H220587   4.852   3.227   3.378  0.6797  0.7109  4.1175
 6875TIP3   OH220588   4.451   3.566   3.264  0.0108 -0.2163 -0.5033
 6875TIP3    H120589   4.363   3.528   3.261 -0.1779  0.2143 -2.7787
 6875TIP3    H220590   4.465   3.587   3.356 -1.9635 -0.9734  0.0365
 6876TIP3   OH220591   3.138   5.573   4.192 -0.1123 -0.5214 -0.2015
 6876TIP3    H120592   3.056   5.524   4.183  0.1324 -0.8285 -0.8337
 6876TIP3    H220593   3.204   5.516   4.152  0.8452 -1.3646  2.3860
 6877TIP3   OH220594   3.508   6.090   5.786  0.1546  0.0865 -0.0706
 6877TIP3    H120595   3.418   6.059   5.781 -0.5666  1.8735  0.8255
 6877TIP3    H220596   3.500   6.184   5.806  2.2054  0.4076 -0.5117
 6878TIP3   OH220597   7.090   6.247   2.733 -0.2070 -0.0652 -0.1785
 6878TIP3    H120598   7.030   6.172   2.733 -1.1899  0.6847  1.0204
 6878TIP3    H220599   7.123   6.250   2.643 -1.6359 -0.7720 -0.7745
 6879TIP3   OH220600   0.809   2.073   3.492  0.2569 -0.3252  0.2528
 6879TIP3    H120601   0.899   2.049   3.512  0.2309  0.3408  1.2766
 6879TIP3    H220602   0.756   2.015   3.545  0.1071 -0.2312  0.2067
 6880TIP3   OH220603   0.817   3.070   3.256  0.1730 -0.1446 -0.3709
 6880TIP3    H120604   0.756   3.073   3.330  0.7739  0.5102  0.1192
 6880TIP3    H220605   0.773   3.119   3.187  0.4807  1.0914  0.2704
 6881TIP3   OH220606   5.153   5.380   5.807 -0.0748  0.0131  0.8424
 6881TIP3    H120607   5.147   5.355   5.715 -0.0916 -2.4517  1.4289
 6881TIP3    H220608   5.242   5.411   5.818 -0.5073  1.8216 -0.2773
 6882TIP3   OH220609   5.140   0.503   1.283  0.2447 -0.1769 -0.7066
 6882TIP3    H120610   5.124   0.585   1.236 -0.8569 -1.2283 -2.2651
 6882TIP3    H220611   5.162   0.531   1.372 -2.1932  1.7772 -0.5998
 6883TIP3   OH220612   3.610   2.563   3.582 -0.1436  0.1557  0.9489
 6883TIP3    H120613   3.532   2.537   3.631  0.2475 -1.8711  0.5994
 6883TIP3    H220614   3.666   2.607   3.646 -0.0122 -1.6698  2.1521
 6884TIP3   OH220615   4.002   5.360   5.587 -0.1666  0.3300  0.0411
 6884TIP3    H120616   4.091   5.326   5.573 -0.4057 -0.0730 -0.5242
 6884TIP3    H220617   3.964   5.302   5.652  0.1933  0.8811  0.7552
 6885TIP3   OH220618   3.242   3.943   2.373 -0.3140  0.0659  0.0523
 6885TIP3    H120619   3.192   3.909   2.447 -1.4798 -0.8882 -1.1291
 6885TIP3    H220620   3.219   4.036   2.368  0.1809  0.2647  1.1787
 6886TIP3   OH220621   4.640   2.172   1.963 -0.4694 -0.0116 -0.1356
 6886TIP3    H120622   4.715   2.214   1.921 -0.3516  0.7592  0.7901
 6886TIP3    H220623   4.672   2.085   1.988 -0.0990  0.0612 -0.3507
 6887TIP3   OH220624   1.837   2.252   3.451  0.3147  0.3097 -0.0044
 6887TIP3    H120625   1.816   2.332   3.499 -1.6093  0.0163 -0.2962
 6887TIP3    H220626   1.858   2.282   3.363  0.7578  0.5801  0.1894
 6888TIP3   OH220627   3.203   0.886   5.684  0.0224  0.0779 -0.1425
 6888TIP3    H120628   3.243   0.883   5.771 -0.3296  2.6892  0.1871
 6888TIP3    H220629   3.109   0.892   5.701 -0.1344 -0.5975 -0.7462
 6889TIP3   OH220630   0.394   4.286   3.227  0.3318 -0.0592 -0.1377
 6889TIP3    H120631   0.446   4.213   3.261  1.3186  0.5571 -0.2629
 6889TIP3    H220632   0.402   4.354   3.294  1.3158  0.7415 -1.0302
 6890TIP3   OH220633   4.849   1.062   5.799 -0.0499 -0.6771 -0.2779
 6890TIP3    H120634   4.839   0.973   5.765 -0.3432 -0.7172 -0.0874
 6890TIP3    H220635   4.868   1.115   5.721 -0.3188 -0.8348 -0.4509
 6891TIP3   OH220636   3.820   2.137   0.646  0.5532  0.7679  0.1564
 6891TIP3    H120637   3.900   2.095   0.613  0.9765 -1.2567  3.3687
 6891TIP3    H220638   3.849   2.187   0.722 -1.1105  0.7505  0.8359
 6892TIP3   OH220639   6.704   5.195   4.616 -0.0257 -0.4791 -0.0919
 6892TIP3    H120640   6.796   5.205   4.593 -0.4608  1.3237 -1.2617
 6892TIP3    H220641   6.657   5.201   4.532 -1.2206 -1.5293  0.4522
 6893TIP3   OH220642   5.684   4.007   4.342  0.3372  0.0803 -0.5575
 6893TIP3    H120643   5.712   3.922   4.375  1.6728  0.5868 -0.3374
 6893TIP3    H220644   5.664   3.991   4.249  0.6751 -0.4462 -0.5440
 6894TIP3   OH220645   2.172   4.125   1.771 -0.1712 -0.7321  1.1158
 6894TIP3    H120646   2.114   4.176   1.714 -1.0337  0.7023  3.1571
 6894TIP3    H220647   2.116   4.095   1.842  1.3442 -0.1306  2.6466
 6895TIP3   OH220648   7.186   3.293   3.462 -0.1641 -0.0803 -0.2717
 6895TIP3    H120649   7.233   3.313   3.381 -0.0245 -4.2940 -1.4788
 6895TIP3    H220650   7.095   3.280   3.434 -1.1004  2.6347  1.1284
 6896TIP3   OH220651   6.867   5.096   5.234  0.2589 -0.2114  0.2215
 6896TIP3    H120652   6.958   5.067   5.229  0.2031 -0.2830 -0.4173
 6896TIP3    H220653   6.872   5.191   5.225  0.4659  0.0597  2.5860
 6897TIP3   OH220654   2.006   1.086   1.698 -0.0262 -0.3235 -0.7564
 6897TIP3    H120655   1.979   1.087   1.606  0.3971 -0.3941 -0.8837
 6897TIP3    H220656   1.951   1.153   1.740 -2.1177 -2.0586 -0.5119
 6898TIP3   OH220657   0.670   4.815   4.943  0.0840  0.2021  0.5966
 6898TIP3    H120658   0.661   4.910   4.932  0.7548  0.4681  2.0658
 6898TIP3    H220659   0.676   4.781   4.854  1.2612  1.7052  0.0531
 6899TIP3   OH220660   2.431   5.539   0.070 -1.0843 -0.0609 -0.7209
 6899TIP3    H120661   2.513   5.500   0.042 -0.7532  0.4320 -0.4403
 6899TIP3    H220662   2.416   5.501   0.157 -1.3844 -0.4844 -0.9481
 6900TIP3   OH220663   0.940   6.251   2.946  0.0948  0.5925  0.3560
 6900TIP3    H120664   0.905   6.338   2.966 -3.6564 -0.2931 -1.3719
 6900TIP3    H220665   0.905   6.195   3.015  1.0878  0.1675  0.5253
 6901TIP3   OH220666   5.065   1.960   5.574 -0.0995 -0.5167 -0.0952
 6901TIP3    H120667   5.031   1.981   5.661  1.0396 -2.1725  0.8120
 6901TIP3    H220668   5.095   2.044   5.539 -2.1601  0.4604  0.3568
 6902TIP3   OH220669   1.304   5.071   2.470 -0.0054 -0.6132  0.5634
 6902TIP3    H120670   1.323   5.111   2.555 -0.7810 -0.9880  0.9204
 6902TIP3    H220671   1.217   5.034   2.480  0.2202 -1.3526 -0.1493
 6903TIP3   OH220672   3.183   6.443   4.715 -0.5175 -0.3226  0.0692
 6903TIP3    H120673   3.238   6.377   4.756 -1.9827 -1.3184  0.5288
 6903TIP3    H220674   3.096   6.428   4.753 -1.0307  1.4689 -0.2811
 6904TIP3   OH220675   3.707   0.057   3.327  0.0568 -0.1825  0.3493
 6904TIP3    H120676   3.689   0.066   3.421  0.1887 -1.3105  0.5047
 6904TIP3    H220677   3.774  -0.011   3.323 -0.4676 -0.6567 -0.5967
 6905TIP3   OH220678   6.406   5.642   1.453  0.3713  0.4601  0.2282
 6905TIP3    H120679   6.327   5.603   1.414  0.4461 -0.2860  0.8139
 6905TIP3    H220680   6.462   5.663   1.378 -1.5963  3.8750 -0.5309
 6906TIP3   OH220681   5.570   4.201   1.424  0.9768 -0.0863 -0.0215
 6906TIP3    H120682   5.654   4.159   1.442  2.5909  2.2385 -1.5650
 6906TIP3    H220683   5.582   4.292   1.450 -1.6784 -0.0178  1.2567
 6907TIP3   OH220684   1.709   2.366   0.589 -0.4669  0.0861 -0.1828
 6907TIP3    H120685   1.757   2.296   0.632 -2.8937 -0.7848  1.2990
 6907TIP3    H220686   1.734   2.445   0.638 -0.2272 -0.2809  0.2991
 6908TIP3   OH220687   3.626   1.762   4.363  0.3871 -0.1762 -0.6090
 6908TIP3    H120688   3.552   1.800   4.411  1.3212 -0.7181  1.4083
 6908TIP3    H220689   3.601   1.671   4.350 -0.0232  0.0578 -1.5352
 6909TIP3   OH220690   2.811   5.643   1.649 -0.0514 -0.0278 -0.5007
 6909TIP3    H120691   2.806   5.730   1.611 -0.2438 -1.8144 -5.2156
 6909TIP3    H220692   2.902   5.633   1.675  0.2835  1.1120 -1.1887
 6910TIP3   OH220693   1.733   5.372   0.694 -0.4494 -0.1067 -0.0343
 6910TIP3    H120694   1.640   5.372   0.672 -0.6577 -0.5636  0.7997
 6910TIP3    H220695   1.736   5.356   0.788  0.5307 -1.6614 -0.2815
 6911TIP3   OH220696   3.127   4.162   0.657 -0.1960 -0.1747  0.9104
 6911TIP3    H120697   3.187   4.104   0.703 -1.3924 -1.0562  1.4010
 6911TIP3    H220698   3.169   4.178   0.572  0.5827 -1.0082  1.1240
 6912TIP3   OH220699   3.919   0.700   1.034 -0.1001 -0.2102  0.1477
 6912TIP3    H120700   3.974   0.700   1.112 -0.9505 -0.9180  0.7743
 6912TIP3    H220701   3.846   0.758   1.056  0.0918  0.2707 -0.4552
 6913TIP3   OH220702   7.013   3.765   2.511  0.0829  0.5077  0.3852
 6913TIP3    H120703   7.097   3.729   2.484  0.4015  0.8258  0.9331
 6913TIP3    H220704   6.950   3.695   2.492  0.6797 -0.3398  1.3958
 6914TIP3   OH220705   3.971   4.370   4.652  0.1269 -0.0815  0.1077
 6914TIP3    H120706   3.948   4.366   4.560 -1.1030  0.8005  0.3566
 6914TIP3    H220707   4.046   4.311   4.661  0.7806  0.4431 -1.5999
 6915TIP3   OH220708   5.748   3.591   2.741  0.1982 -0.1148  0.1539
 6915TIP3    H120709   5.664   3.613   2.781  0.1331 -1.5031  0.8403
 6915TIP3    H220710   5.726   3.562   2.652  0.1374  1.0205 -0.2234
 6916TIP3   OH220711   5.232   3.742   2.878 -0.0940 -0.0139 -0.5033
 6916TIP3    H120712   5.210   3.665   2.826 -0.7578  0.3305 -0.7486
 6916TIP3    H220713   5.148   3.783   2.897  0.3172  1.4693 -1.6412
 6917TIP3   OH220714   5.832   6.009   2.765  0.2603 -0.2296 -0.3062
 6917TIP3    H120715   5.926   5.989   2.765  0.2215 -0.5103  1.0580
 6917TIP3    H220716   5.796   5.953   2.834 -0.6512  1.0360  0.2766
 6918TIP3   OH220717   1.855   2.385   5.409  0.5871  0.1779 -0.3194
 6918TIP3    H120718   1.926   2.331   5.444  0.0792  0.4602  1.2122
 6918TIP3    H220719   1.788   2.384   5.478  0.3065  2.2401 -0.5096
 6919TIP3   OH220720   6.281   1.496   1.205 -0.2495 -0.0287  0.1472
 6919TIP3    H120721   6.351   1.511   1.269 -0.3465 -0.5723  0.3935
 6919TIP3    H220722   6.228   1.575   1.208 -0.2931 -0.0757  0.8039
 6920TIP3   OH220723   6.131   4.590   1.483 -0.0434  0.4640 -0.6329
 6920TIP3    H120724   6.194   4.526   1.515 -0.3314  1.1052  1.3956
 6920TIP3    H220725   6.083   4.545   1.414  0.3124 -1.2255  0.1671
 6921TIP3   OH220726   3.985   6.741   0.221  0.8990  0.1995 -0.0855
 6921TIP3    H120727   4.040   6.669   0.251 -0.4918 -0.4992  0.9174
 6921TIP3    H220728   3.921   6.753   0.291 -0.5626  0.6013 -1.4228
 6922TIP3   OH220729   3.337   5.011   1.490  0.3119 -0.0612 -0.3955
 6922TIP3    H120730   3.419   5.018   1.538  1.1503 -1.1470 -1.5844
 6922TIP3    H220731   3.358   5.043   1.402 -0.7583  0.3953 -0.5073
 6923TIP3   OH220732   0.153   5.169   1.460 -0.5228 -0.0046 -0.3023
 6923TIP3    H120733   0.168   5.197   1.369 -0.6928  1.5539  0.1303
 6923TIP3    H220734   0.130   5.076   1.452  0.1270 -0.0743 -1.7909
 6924TIP3   OH220735   2.118   0.661   1.828 -0.2789 -0.4560 -0.3368
 6924TIP3    H120736   2.032   0.704   1.829  0.1664  0.4687  0.6948
 6924TIP3    H220737   2.120   0.610   1.908 -0.2748 -1.3513 -0.8995
 6925TIP3   OH220738   3.966   6.403   0.645 -0.4068  0.8243 -0.6847
 6925TIP3    H120739   3.924   6.360   0.720 -0.6563  2.3053  0.0663
 6925TIP3    H220740   4.038   6.345   0.622  0.1471  0.6722  1.2175
 6926TIP3   OH220741   2.347   6.228   1.488 -0.4005 -0.3083 -0.1192
 6926TIP3    H120742   2.344   6.315   1.527  0.6752  0.1743 -1.0432
 6926TIP3    H220743   2.312   6.240   1.400 -1.2162 -1.0297  0.0953
 6927TIP3   OH220744   1.148   3.556   5.130  0.5524 -0.1609  0.3198
 6927TIP3    H120745   1.209   3.492   5.093  0.9825 -0.4527  1.5067
 6927TIP3    H220746   1.203   3.611   5.186  0.7874  3.0640 -2.7138
 6928TIP3   OH220747   2.293   4.617   2.234  0.2538  0.2449 -0.8674
 6928TIP3    H120748   2.249   4.695   2.266  0.7823 -0.5565  2.1048
 6928TIP3    H220749   2.228   4.573   2.179 -1.7545  0.4798  1.1673
 6929TIP3   OH220750   6.496   6.591   5.536  0.1271 -0.4052 -0.1620
 6929TIP3    H120751   6.551   6.513   5.535 -1.3182 -1.4598  0.1753
 6929TIP3    H220752   6.419   6.565   5.586 -0.6473  1.0619 -0.5507
 6930TIP3   OH220753   4.983   3.952   2.383  0.0378  0.2798 -0.1319
 6930TIP3    H120754   4.996   3.872   2.433 -2.0936 -0.1430 -0.1412
 6930TIP3    H220755   4.961   4.018   2.448 -0.7519  0.2070 -0.3072
 6931TIP3   OH220756   4.555   0.477   4.227 -0.3985  0.5417  0.3094
 6931TIP3    H120757   4.507   0.549   4.187 -1.0857  1.0802  1.9998
 6931TIP3    H220758   4.635   0.470   4.175 -0.4368  2.3620 -0.0615
 6932TIP3   OH220759   4.088   2.241   2.955 -0.3465  1.0566 -0.2180
 6932TIP3    H120760   4.174   2.241   2.996 -0.9086  1.6819  1.0402
 6932TIP3    H220761   4.104   2.221   2.863  1.1943  1.7935 -0.1298
 6933TIP3   OH220762   3.257   2.870   4.596  0.4610 -0.3014  0.3689
 6933TIP3    H120763   3.214   2.789   4.626 -3.2841  1.4165  0.1603
 6933TIP3    H220764   3.227   2.881   4.506  0.7215  1.4017  0.4570
 6934TIP3   OH220765   1.107   0.077   0.799 -0.0510  0.5168  0.5350
 6934TIP3    H120766   1.144   0.092   0.712  0.6160 -1.4270  0.4208
 6934TIP3    H220767   1.177   0.103   0.860 -0.3132  1.3584  0.4864
 6935TIP3   OH220768   0.139   4.292   0.998 -0.1051  0.0533 -0.2512
 6935TIP3    H120769   0.105   4.205   1.018 -1.0761  0.6030  0.6301
 6935TIP3    H220770   0.234   4.282   0.995 -0.1587 -0.8585  0.7407
 6936TIP3   OH220771   0.992   4.923   1.137  0.5419 -0.0868 -0.5133
 6936TIP3    H120772   1.055   4.871   1.188  0.6517  1.3859  0.9222
 6936TIP3    H220773   0.990   5.008   1.181 -2.3603 -0.0231 -0.5987
 6937TIP3   OH220774   4.263   5.552   1.155 -0.3172  0.5105 -0.6587
 6937TIP3    H120775   4.260   5.564   1.250  0.5432 -0.0791 -0.5447
 6937TIP3    H220776   4.340   5.601   1.127  0.0606 -0.2077 -0.9029
 6938TIP3   OH220777   5.864   4.793   2.887 -0.3620  0.3303 -0.0675
 6938TIP3    H120778   5.814   4.813   2.966  0.9432 -1.6114  1.3437
 6938TIP3    H220779   5.932   4.861   2.884 -2.1056  2.1399 -1.2220
 6939TIP3   OH220780   4.822   6.221   0.207  0.0929  0.2341 -0.1139
 6939TIP3    H120781   4.894   6.235   0.269 -0.6418  0.2968  0.7487
 6939TIP3    H220782   4.853   6.261   0.125  0.6831  1.0465  0.4814
 6940TIP3   OH220783   1.929   5.822   5.358  0.1338 -0.5258  0.4470
 6940TIP3    H120784   1.997   5.772   5.403 -0.0289  0.1202  1.4453
 6940TIP3    H220785   1.865   5.757   5.330  0.6680 -1.0297  0.3929
 6941TIP3   OH220786   2.725   1.891   4.117  0.3485 -0.0652 -0.2510
 6941TIP3    H120787   2.728   1.941   4.035 -0.9457 -0.0258 -0.2950
 6941TIP3    H220788   2.754   1.954   4.184 -0.2825  0.4402 -0.4451
 6942TIP3   OH220789   6.654   3.378   3.820 -0.1514 -0.4442 -0.2014
 6942TIP3    H120790   6.559   3.377   3.809 -0.0695 -0.3868 -1.0227
 6942TIP3    H220791   6.687   3.409   3.735  0.5485  0.7078  0.4696
 6943TIP3   OH220792   0.292   4.140   4.501 -0.3497 -0.8595 -0.2814
 6943TIP3    H120793   0.198   4.124   4.516 -0.7051  1.6359  0.6281
 6943TIP3    H220794   0.335   4.100   4.576 -0.9869  0.4265  0.8106
 6944TIP3   OH220795   4.639   0.136   2.587 -0.4308  0.2459  0.3395
 6944TIP3    H120796   4.558   0.167   2.627 -1.2909  0.1806 -1.2771
 6944TIP3    H220797   4.697   0.212   2.591 -0.8796  0.5792  0.6967
 6945TIP3   OH220798   6.312   2.501   5.464  0.1691 -0.3823  0.1409
 6945TIP3    H120799   6.400   2.487   5.427 -0.1590 -1.0374 -0.4207
 6945TIP3    H220800   6.254   2.495   5.389 -0.3494  0.2035  0.4902
 6946TIP3   OH220801   0.517   6.084   1.486 -0.1958 -0.1100 -0.1393
 6946TIP3    H120802   0.547   6.119   1.402  0.1877 -2.3997 -1.0302
 6946TIP3    H220803   0.424   6.106   1.490  0.1599  1.5415 -0.3136
 6947TIP3   OH220804   3.868   5.826   4.264 -0.9802 -0.0663  0.1542
 6947TIP3    H120805   3.963   5.833   4.268 -0.9302 -0.1723 -0.5648
 6947TIP3    H220806   3.836   5.914   4.281 -0.5834  0.9397 -3.4936
 6948TIP3   OH220807   5.924   1.037   5.615  0.3786  0.4223  0.4748
 6948TIP3    H120808   5.981   1.025   5.691  1.2284 -2.9631 -0.5336
 6948TIP3    H220809   5.835   1.025   5.650  0.6223  0.7722  1.2258
 6949TIP3   OH220810   5.910   6.459   0.902 -0.2715  0.7478  0.1386
 6949TIP3    H120811   5.899   6.466   0.997 -1.4171  2.8619 -0.0965
 6949TIP3    H220812   5.843   6.517   0.866  1.5161  1.6464 -1.9136
 6950TIP3   OH220813   0.601   6.734   2.485  0.9975 -0.1144  0.8437
 6950TIP3    H120814   0.544   6.810   2.491  0.7314 -0.3032  0.7607
 6950TIP3    H220815   0.637   6.723   2.573  1.2677  0.2810  0.7846
 6951TIP3   OH220816   4.733   6.676   4.288  0.0173  0.0583  0.0770
 6951TIP3    H120817   4.794   6.748   4.303  0.9188 -0.4657 -0.9088
 6951TIP3    H220818   4.760   6.639   4.204 -1.1357 -0.7286  0.0268
 6952TIP3   OH220819   3.171   1.418   2.415 -0.1115  0.1108 -0.1175
 6952TIP3    H120820   3.078   1.433   2.400  0.1931  0.9435 -1.2668
 6952TIP3    H220821   3.173   1.347   2.480 -1.5339  0.2774  0.1494
 6953TIP3   OH220822   5.200   6.612   3.895  0.0254 -0.2406  0.6126
 6953TIP3    H120823   5.279   6.636   3.847 -0.1450 -0.4191  0.2414
 6953TIP3    H220824   5.129   6.655   3.847 -0.0584  0.3819  1.2599
 6954TIP3   OH220825   3.442   2.024   4.188 -0.5754 -0.2373 -0.4689
 6954TIP3    H120826   3.416   2.053   4.100 -0.0023 -2.4582 -1.4165
 6954TIP3    H220827   3.431   2.103   4.242 -1.5508  1.0319 -2.3728
 6955TIP3   OH220828   4.341   5.768   1.850 -0.2732  0.0832  0.1159
 6955TIP3    H120829   4.312   5.855   1.879 -0.8974  0.5487 -1.7082
 6955TIP3    H220830   4.374   5.783   1.761  1.3741 -1.2565  0.4544
 6956TIP3   OH220831   3.594   6.499   4.611 -0.1937  0.1525  0.0463
 6956TIP3    H120832   3.531   6.566   4.637  1.2270  2.0401 -1.0847
 6956TIP3    H220833   3.645   6.481   4.690 -1.6560 -0.8879  0.7879
 6957TIP3   OH220834   6.205   4.548   0.070 -0.5011 -0.7849  0.0129
 6957TIP3    H120835   6.243   4.523  -0.014  2.6471 -0.2400  1.1556
 6957TIP3    H220836   6.185   4.641   0.062 -1.6481 -1.0630 -0.5759
 6958TIP3   OH220837   5.589   4.691   2.298 -0.1922 -0.1039 -0.2873
 6958TIP3    H120838   5.643   4.632   2.350  0.1199 -0.6931 -1.2651
 6958TIP3    H220839   5.542   4.633   2.238 -1.5321  0.4424  0.1953
 6959TIP3   OH220840   7.013   0.328   0.512 -0.2765 -0.3954 -0.4330
 6959TIP3    H120841   6.927   0.293   0.489 -0.8514  0.4207  0.3877
 6959TIP3    H220842   7.012   0.419   0.480 -0.8686  0.5738  2.1051
 6960TIP3   OH220843   4.040   2.020   5.166  0.1778 -0.5659  0.4169
 6960TIP3    H120844   4.121   2.070   5.180 -0.8678  0.6554  2.5483
 6960TIP3    H220845   3.982   2.080   5.121 -0.0459 -0.9531  0.1842
 6961TIP3   OH220846   5.740   1.813   5.668  0.0706 -0.1690 -0.4822
 6961TIP3    H120847   5.772   1.734   5.624  2.7933  2.4352 -3.7066
 6961TIP3    H220848   5.672   1.846   5.611  0.0802  0.6584 -0.0309
 6962TIP3   OH220849   1.352   1.974   3.928  0.5322  0.3654 -0.4920
 6962TIP3    H120850   1.413   1.903   3.913  1.3294  1.4243 -2.6685
 6962TIP3    H220851   1.267   1.940   3.898  0.0946 -0.8605  1.8877
 6963TIP3   OH220852   0.532   4.278   4.378  0.6328 -0.0431  0.1305
 6963TIP3    H120853   0.482   4.244   4.452  0.1383 -2.0738 -1.0876
 6963TIP3    H220854   0.590   4.206   4.353  0.0871  0.2351 -2.0704
 6964TIP3   OH220855   5.312   2.591   0.941  0.0570  0.3200 -0.5118
 6964TIP3    H120856   5.284   2.525   1.005 -1.6634  0.0625 -1.4636
 6964TIP3    H220857   5.296   2.551   0.856  1.9894  0.7909 -1.1508
 6965TIP3   OH220858   6.032   0.181   1.696 -0.0452 -0.1632  0.2581
 6965TIP3    H120859   6.002   0.109   1.640 -1.5237  0.4139  0.2722
 6965TIP3    H220860   6.074   0.138   1.770 -0.9046 -1.0273  0.2640
 6966TIP3   OH220861   0.494   6.252   4.149  0.3702  0.4233  0.2753
 6966TIP3    H120862   0.447   6.332   4.172  1.8288  0.8491  1.9802
 6966TIP3    H220863   0.571   6.252   4.205 -0.1530 -2.7843  1.2071
 6967TIP3   OH220864   3.556   5.574   1.762 -0.1635 -0.2897 -0.2105
 6967TIP3    H120865   3.637   5.622   1.744  0.0294 -0.2682  0.6487
 6967TIP3    H220866   3.528   5.606   1.848 -0.3810 -1.2398  0.0816
 6968TIP3   OH220867   1.519   0.463   0.648 -0.3825  0.5016  0.5055
 6968TIP3    H120868   1.440   0.446   0.699 -0.9978  0.0377 -0.5772
 6968TIP3    H220869   1.517   0.558   0.633 -0.3660  0.5931  1.0707
 6969TIP3   OH220870   0.152   0.115   3.962  0.5863  0.4230  0.0777
 6969TIP3    H120871   0.243   0.136   3.942  0.7161 -0.5099 -0.3331
 6969TIP3    H220872   0.121   0.067   3.886  0.4100 -1.1677  1.1067
 6970TIP3   OH220873   2.484   3.212   3.052 -0.4275 -0.1382  0.3615
 6970TIP3    H120874   2.476   3.285   3.112  1.2784  1.5578 -1.3437
 6970TIP3    H220875   2.448   3.244   2.970 -1.1336 -1.7907 -0.0092
 6971TIP3   OH220876   3.383   2.717   0.189  0.1604 -0.3572  0.1505
 6971TIP3    H120877   3.476   2.718   0.212  0.0274  2.9342  1.0448
 6971TIP3    H220878   3.382   2.731   0.094  0.6411  1.7087  0.4013
 6972TIP3   OH220879   3.016   4.630   0.087  0.4832  0.3237  0.1406
 6972TIP3    H120880   2.980   4.694   0.025  0.2240  0.9367  0.9105
 6972TIP3    H220881   2.962   4.552   0.074  1.0473  0.1087 -1.0778
 6973TIP3   OH220882   2.705   3.427   4.107 -0.2872  0.2022  0.3092
 6973TIP3    H120883   2.656   3.350   4.078  0.7084 -0.4084  0.2261
 6973TIP3    H220884   2.643   3.500   4.096 -1.1945 -0.5584  0.2722
 6974TIP3   OH220885   1.783   5.768   3.008 -0.2119 -0.3337 -0.3437
 6974TIP3    H120886   1.772   5.769   2.913  0.1777 -1.1741 -0.4088
 6974TIP3    H220887   1.698   5.798   3.041  0.2443  1.7539 -0.9648
 6975TIP3   OH220888   0.707   5.023   5.847 -0.0946  0.1103  0.2671
 6975TIP3    H120889   0.774   4.964   5.880  2.2848  1.8635 -1.1322
 6975TIP3    H220890   0.670   4.978   5.771 -0.3207 -0.7300  0.8590
 6976TIP3   OH220891   5.503   5.884   4.834 -0.1879  0.1253  0.3855
 6976TIP3    H120892   5.583   5.832   4.834 -1.3831 -1.8171 -1.0656
 6976TIP3    H220893   5.531   5.971   4.803  1.4065 -0.3455  0.4092
 6977TIP3   OH220894   0.315   3.702   0.121  0.0982  0.4140  0.1620
 6977TIP3    H120895   0.373   3.749   0.061 -0.5223 -0.1139 -0.8914
 6977TIP3    H220896   0.231   3.697   0.074 -0.9349  1.4915  1.8050
 6978TIP3   OH220897   0.927   2.825   1.018 -0.6062  0.2864  0.1690
 6978TIP3    H120898   0.986   2.786   0.954 -0.1677 -1.1405  1.3923
 6978TIP3    H220899   0.839   2.812   0.981 -0.2729  0.9047 -0.8645
 6979TIP3   OH220900   2.267   3.705   2.840 -1.0236 -0.5817  0.1894
 6979TIP3    H120901   2.359   3.710   2.815 -0.8076 -1.1136  0.8577
 6979TIP3    H220902   2.220   3.742   2.765 -0.1270  2.3994  0.9677
 6980TIP3   OH220903   5.231   2.337   5.759 -0.5592  0.5174 -0.5866
 6980TIP3    H120904   5.312   2.369   5.799 -1.1934  0.0630  1.1215
 6980TIP3    H220905   5.166   2.339   5.829 -1.2740 -2.0454 -1.0637
 6981TIP3   OH220906   5.543   1.898   5.467 -0.2178  0.4648 -0.0477
 6981TIP3    H120907   5.545   1.837   5.393 -0.9922  1.3745 -0.8548
 6981TIP3    H220908   5.511   1.980   5.429  1.5146  1.6164  0.8485
 6982TIP3   OH220909   5.782   6.493   4.522 -0.2080 -0.2058 -0.3883
 6982TIP3    H120910   5.849   6.466   4.584  0.3252  0.1807 -0.7913
 6982TIP3    H220911   5.738   6.566   4.565 -1.1946 -1.2346  0.4044
 6983TIP3   OH220912   1.547   5.343   2.157  0.2803 -0.5456  0.0175
 6983TIP3    H120913   1.515   5.315   2.243 -2.6228 -0.2446 -0.8849
 6983TIP3    H220914   1.542   5.438   2.159  1.9712 -0.4275  0.0995
 6984TIP3   OH220915   3.008   0.926   1.790 -0.3690  0.1754  0.6786
 6984TIP3    H120916   3.029   0.873   1.714 -1.7292  0.3114  0.1781
 6984TIP3    H220917   3.090   0.972   1.812  0.9219 -2.2378  1.2657
 6985TIP3   OH220918   3.901   6.571   5.719  0.2942 -0.3008  0.5897
 6985TIP3    H120919   3.852   6.489   5.725 -2.1657  0.8659 -1.4503
 6985TIP3    H220920   3.888   6.612   5.805 -2.9782  0.1754  0.0209
 6986TIP3   OH220921   6.750   1.021   2.918  0.3132  0.1464 -0.1679
 6986TIP3    H120922   6.695   1.091   2.955 -0.0120 -0.6381  0.8727
 6986TIP3    H220923   6.738   1.028   2.824  0.3440  1.5475 -0.0886
 6987TIP3   OH220924   4.707   3.831   2.862 -0.4022 -0.1137 -0.1854
 6987TIP3    H120925   4.691   3.741   2.890 -1.7330 -0.6079 -2.3171
 6987TIP3    H220926   4.632   3.880   2.896 -0.9550 -0.3140 -1.0904
 6988TIP3   OH220927   6.249   2.769   1.050 -0.6307  0.4653  0.0312
 6988TIP3    H120928   6.330   2.719   1.053 -1.0149 -0.3152 -1.5884
 6988TIP3    H220929   6.269   2.846   0.996 -0.6699  0.8594  0.5714
 6989TIP3   OH220930   2.408   6.619   5.135  0.4798 -0.2101  0.0513
 6989TIP3    H120931   2.479   6.658   5.186  0.7966 -1.0075  0.2337
 6989TIP3    H220932   2.357   6.694   5.105 -0.5002  0.2739  2.6493
 6990TIP3   OH220933   5.296   0.847   1.016 -0.6033  0.4071  0.4317
 6990TIP3    H120934   5.345   0.771   1.049  0.6922  1.0507  0.0556
 6990TIP3    H220935   5.239   0.872   1.089 -1.5872 -1.3382  0.3184
 6991TIP3   OH220936   1.502   0.783   0.478 -0.4465  0.7153 -0.1864
 6991TIP3    H120937   1.528   0.867   0.438 -0.3858  0.3119 -1.0182
 6991TIP3    H220938   1.545   0.783   0.563 -0.6773  1.6564 -0.0485
 6992TIP3   OH220939   5.149   2.259   2.812  0.3012 -0.4046  0.1257
 6992TIP3    H120940   5.169   2.309   2.733 -1.7925  0.9557  0.3802
 6992TIP3    H220941   5.228   2.207   2.828  2.2104  2.0295 -0.7477
 6993TIP3   OH220942   1.404   6.351   1.873  0.6555 -0.6292 -0.1140
 6993TIP3    H120943   1.378   6.377   1.961 -0.0054  1.5789 -0.8875
 6993TIP3    H220944   1.497   6.369   1.869  0.3650  0.9320 -0.3655
 6994TIP3   OH220945   3.878   3.226   5.148 -0.3715  0.2470  0.0740
 6994TIP3    H120946   3.894   3.267   5.233 -0.9888 -0.1654  0.3954
 6994TIP3    H220947   3.870   3.132   5.168  2.7179 -0.3297 -0.8413
 6995TIP3   OH220948   5.906   4.238   4.844  0.5310 -0.4361  0.2732
 6995TIP3    H120949   5.934   4.312   4.790 -0.6214 -0.4949 -0.4561
 6995TIP3    H220950   5.850   4.186   4.785  1.7501 -2.1916  0.5883
 6996TIP3   OH220951   6.193   1.521   2.742  0.0200 -0.0179 -0.3218
 6996TIP3    H120952   6.185   1.436   2.698  0.8312  0.2256 -0.9712
 6996TIP3    H220953   6.159   1.584   2.678  0.0455  0.2150 -0.1057
 6997TIP3   OH220954   0.718   2.226   4.780 -0.1893  0.7000  0.2551
 6997TIP3    H120955   0.659   2.297   4.807 -0.4269  0.5996  0.0039
 6997TIP3    H220956   0.672   2.147   4.807  0.2882  0.6542  0.9577
 6998TIP3   OH220957   5.065   3.232   4.148  0.7200 -0.1698  0.5049
 6998TIP3    H120958   5.045   3.298   4.215 -0.0865 -0.3458  0.4558
 6998TIP3    H220959   4.999   3.246   4.081  2.4267  0.9916 -1.0130
 6999TIP3   OH220960   0.514   2.122   5.481 -0.2406  0.4614  0.3004
 6999TIP3    H120961   0.542   2.031   5.475  0.5136  0.6672  0.6170
 6999TIP3    H220962   0.421   2.120   5.458  0.2278 -0.1001 -1.7957
 7000TIP3   OH220963   2.124   5.551   1.842  0.0968  0.1351 -0.3475
 7000TIP3    H120964   2.156   5.524   1.928 -1.6966  0.0957  0.3477
 7000TIP3    H220965   2.198   5.536   1.783  0.8314 -1.4253  0.8951
 7001TIP3   OH220966   0.506   1.540   3.529 -0.0881 -0.0341  0.7026
 7001TIP3    H120967   0.584   1.589   3.554 -0.1670  0.0730  0.7368
 7001TIP3    H220968   0.434   1.580   3.579  0.2679 -2.0187  2.9488
 7002TIP3   OH220969   2.009   0.433   3.358 -0.9459 -0.0304  0.3647
 7002TIP3    H120970   1.927   0.482   3.344 -0.4838  1.7581  2.9504
 7002TIP3    H220971   2.076   0.501   3.365  0.5479 -1.3771 -0.2583
 7003TIP3   OH220972   5.927   1.149   5.021  0.2449  0.1314  0.4457
 7003TIP3    H120973   5.938   1.080   4.956 -1.4214  0.2871 -0.0456
 7003TIP3    H220974   5.960   1.228   4.978 -0.3659  0.1351 -0.0304
 7004TIP3   OH220975   0.022   2.106   0.761  0.0722 -0.3732  0.1191
 7004TIP3    H120976   0.049   2.095   0.853  0.0002 -0.3710  0.1405
 7004TIP3    H220977  -0.013   2.021   0.736 -1.2297  0.0253  0.5306
 7005TIP3   OH220978   6.190   6.148   2.887  0.0832  0.1984  0.1112
 7005TIP3    H120979   6.220   6.220   2.942 -1.9455  0.2414  1.2731
 7005TIP3    H220980   6.169   6.190   2.803  1.7590  0.3999 -0.2333
 7006TIP3   OH220981   2.560   6.310   3.094  0.2590  0.0164 -0.3975
 7006TIP3    H120982   2.554   6.243   3.162  1.3746 -0.4498 -0.7398
 7006TIP3    H220983   2.599   6.386   3.138  0.5293 -0.1194 -0.4034
 7007TIP3   OH220984   5.769   1.565   2.209  0.4355 -0.3726 -0.5375
 7007TIP3    H120985   5.682   1.604   2.217  0.1697 -1.1777  0.7796
 7007TIP3    H220986   5.825   1.638   2.183 -0.5684  0.2270 -1.0756
 7008TIP3   OH220987   1.050   1.481   2.182  0.5615 -0.0347 -0.6381
 7008TIP3    H120988   1.108   1.448   2.113 -1.9573 -2.0639 -1.9570
 7008TIP3    H220989   1.076   1.431   2.260 -0.2990 -2.0781 -1.5807
 7009TIP3   OH220990   0.626   6.108   0.244 -0.4332  0.0387  0.2109
 7009TIP3    H120991   0.630   6.118   0.339  0.2172  0.3662  0.1475
 7009TIP3    H220992   0.714   6.082   0.219 -0.2680  1.2168 -0.4590
 7010TIP3   OH220993   6.580   0.356   0.278  0.8301 -0.1272  0.2549
 7010TIP3    H120994   6.566   0.307   0.197  1.3258 -0.6040  0.4502
 7010TIP3    H220995   6.659   0.407   0.262 -0.0193  1.1115 -0.1712
 7011TIP3   OH220996   4.710   1.524   3.206  0.1163  0.7063 -0.1134
 7011TIP3    H120997   4.636   1.569   3.166 -0.1392  1.3758  1.0848
 7011TIP3    H220998   4.772   1.512   3.133  0.2018  3.0006 -0.5064
 7012TIP3   OH220999   5.489   4.469   4.657 -0.0022 -0.4056 -0.0761
 7012TIP3    H121000   5.499   4.466   4.562  0.9842  0.6517 -0.0254
 7012TIP3    H221001   5.424   4.401   4.676 -1.6586  0.6262 -1.6974
 7013TIP3   OH221002   6.460   4.426   0.217  0.1483  0.8243 -0.0428
 7013TIP3    H121003   6.390   4.477   0.177 -0.5637 -0.5817 -0.6442
 7013TIP3    H221004   6.416   4.370   0.281  0.7127 -0.0613 -0.4083
 7014TIP3   OH221005   4.011   1.352   1.913 -0.1638  0.7005  0.0187
 7014TIP3    H121006   3.981   1.269   1.875  0.3483  0.2445  0.5831
 7014TIP3    H221007   3.949   1.417   1.880 -0.3203  0.1652 -0.7776
 7015TIP3   OH221008   3.682   1.218   0.447 -0.0453 -0.2791  0.4780
 7015TIP3    H121009   3.651   1.294   0.496 -1.2289 -1.4623  1.6541
 7015TIP3    H221010   3.772   1.205   0.478 -0.8901 -1.2610  2.8046
 7016TIP3   OH221011   1.447   6.018   3.396 -0.3441 -0.0107 -0.2416
 7016TIP3    H121012   1.390   5.942   3.384 -1.4459  0.5562  1.1366
 7016TIP3    H221013   1.387   6.093   3.402  0.4200  0.4952  2.2034
 7017TIP3   OH221014   6.139   3.851   4.826  0.6821  0.2232  0.0748
 7017TIP3    H121015   6.106   3.852   4.736  1.7471  0.3829 -0.3214
 7017TIP3    H221016   6.194   3.929   4.833  1.7492 -0.5348  0.4227
 7018TIP3   OH221017   6.564   4.048   4.981 -0.0515 -0.3339  0.0690
 7018TIP3    H121018   6.595   3.963   4.951 -0.7225 -0.5771  0.0341
 7018TIP3    H221019   6.632   4.109   4.956 -0.4704 -0.5707 -1.7312
 7019TIP3   OH221020   0.380   5.224   2.669 -0.0975 -0.3505  0.2386
 7019TIP3    H121021   0.453   5.234   2.730  1.4834 -1.0348 -1.4551
 7019TIP3    H221022   0.393   5.137   2.631  0.1627  0.7917 -2.4803
 7020TIP3   OH221023   2.394   2.792   3.886  0.2424  0.3273  0.4180
 7020TIP3    H121024   2.416   2.789   3.792 -2.4732 -0.6495 -0.2696
 7020TIP3    H221025   2.308   2.751   3.892  0.0756  0.8996  3.3008
 7021TIP3   OH221026   1.632   1.472   5.457 -0.3163 -0.0553  0.0535
 7021TIP3    H121027   1.596   1.428   5.380  1.7494  0.0055 -0.9933
 7021TIP3    H221028   1.677   1.548   5.423  0.4819  0.0885  1.3468
 7022TIP3   OH221029   4.682   0.851   5.202 -0.0738 -0.0298 -0.3102
 7022TIP3    H121030   4.695   0.895   5.286 -1.3349  0.8817 -0.5604
 7022TIP3    H221031   4.621   0.779   5.221 -0.0264 -0.0862 -0.3690
 7023TIP3   OH221032   4.854   4.633   0.283 -0.2679  0.0617  0.2572
 7023TIP3    H121033   4.801   4.632   0.363  0.5580  1.7186  0.8751
 7023TIP3    H221034   4.873   4.725   0.268 -1.5811 -0.0458 -2.6954
 7024TIP3   OH221035   2.061   3.641   4.671 -0.5111  0.5247  0.6341
 7024TIP3    H121036   2.045   3.615   4.762 -0.2470  0.3359  0.6297
 7024TIP3    H221037   2.127   3.579   4.640 -2.3593 -1.0035 -0.4706
 7025TIP3   OH221038   5.593   5.124   4.221  0.5403  0.6976 -0.1505
 7025TIP3    H121039   5.632   5.210   4.236 -1.1877  1.4804  0.2046
 7025TIP3    H221040   5.512   5.143   4.174 -0.6900 -0.5693  1.3442
 7026TIP3   OH221041   0.548   0.841   4.879 -0.1636  0.2192 -0.0057
 7026TIP3    H121042   0.621   0.899   4.856  0.3303 -0.5444 -0.3909
 7026TIP3    H221043   0.588   0.754   4.886 -1.2182 -0.4059 -1.3424
 7027TIP3   OH221044   5.969   1.707   2.786  0.1096  0.4936 -0.6676
 7027TIP3    H121045   5.985   1.784   2.839 -0.7312  1.9340 -2.3832
 7027TIP3    H221046   5.938   1.742   2.702 -1.1656 -1.7319 -1.2015
 7028TIP3   OH221047   3.250   4.424   3.000 -0.3687  0.0632  0.1775
 7028TIP3    H121048   3.280   4.425   3.091 -0.9875 -0.7326  0.4001
 7028TIP3    H221049   3.155   4.434   3.006 -0.2128  2.8394 -0.5215
 7029TIP3   OH221050   6.764   6.424   0.694 -0.2336 -0.2905 -0.2747
 7029TIP3    H121051   6.779   6.333   0.718 -1.6991 -0.7975 -1.1652
 7029TIP3    H221052   6.852   6.459   0.677  0.3536 -1.5164  0.1089
 7030TIP3   OH221053   6.132   3.477   1.451 -0.2807  0.4811  0.4178
 7030TIP3    H121054   6.119   3.419   1.526 -0.8086  0.1110  0.0440
 7030TIP3    H221055   6.219   3.515   1.465 -0.5160  0.6834  1.3909
 7031TIP3   OH221056   3.219   5.755   4.384 -0.5094  0.5403  0.3755
 7031TIP3    H121057   3.204   5.688   4.318  0.4012 -0.1811  0.8739
 7031TIP3    H221058   3.132   5.778   4.416 -1.0631  1.5384 -1.6563
 7032TIP3   OH221059   0.113   2.444   4.359  0.7224 -0.2578 -0.4027
 7032TIP3    H121060   0.148   2.379   4.298  1.2625 -2.2243  1.8699
 7032TIP3    H221061   0.173   2.518   4.352  1.5162 -0.9617 -1.2798
 7033TIP3   OH221062   5.145   0.279   3.619 -0.2443  0.5953  0.3136
 7033TIP3    H121063   5.203   0.355   3.611 -0.5649  0.8565  0.4542
 7033TIP3    H221064   5.204   0.206   3.639  0.0640  0.8078  0.1872
 7034TIP3   OH221065   3.417   3.124   3.244 -0.6019 -0.1733  0.0372
 7034TIP3    H121066   3.394   3.212   3.275 -1.2756  0.0790 -1.1088
 7034TIP3    H221067   3.487   3.096   3.302  0.5984  1.6929 -0.4248
 7035TIP3   OH221068   6.888   5.440   1.720 -0.2538  0.7330 -0.4373
 7035TIP3    H121069   6.825   5.368   1.707 -0.3937  0.5642  0.9346
 7035TIP3    H221070   6.870   5.501   1.649  1.0265 -1.3570 -2.7078
 7036TIP3   OH221071   6.868   3.865   3.716  0.6385 -0.0168 -0.6986
 7036TIP3    H121072   6.902   3.919   3.787 -0.1804  1.0555 -1.0928
 7036TIP3    H221073   6.786   3.907   3.691 -0.0799 -1.5116 -0.9676
 7037TIP3   OH221074   3.602   0.127   0.820  0.0952  0.6405  0.1163
 7037TIP3    H121075   3.640   0.214   0.808 -0.5025  0.9309  0.3037
 7037TIP3    H221076   3.593   0.092   0.732  1.4415  0.2813  0.0983
 7038TIP3   OH221077   2.052   0.340   1.100  0.1707  0.0949 -0.0180
 7038TIP3    H121078   2.005   0.407   1.050  0.9870 -1.0485 -2.4901
 7038TIP3    H221079   1.991   0.266   1.103  0.9951 -0.6936 -1.5218
 7039TIP3   OH221080   5.625   2.486   0.607 -0.0821  0.0697 -0.2626
 7039TIP3    H121081   5.631   2.534   0.524 -1.4186  0.7876  0.0136
 7039TIP3    H221082   5.534   2.498   0.634 -0.6262 -3.0616 -0.4041
 7040TIP3   OH221083   0.421   0.961   0.716  0.0004 -0.1901 -0.0625
 7040TIP3    H121084   0.409   0.867   0.712 -2.0562  0.0720 -2.1010
 7040TIP3    H221085   0.441   0.986   0.625 -2.7646  1.6356 -0.2920
 7041TIP3   OH221086   2.169   6.739   4.161 -0.4122 -0.0293 -0.0885
 7041TIP3    H121087   2.076   6.759   4.152 -0.3428  0.3830  0.0838
 7041TIP3    H221088   2.177   6.648   4.135 -0.4813  0.6157 -2.5494
 7042TIP3   OH221089   0.688   6.195   5.548 -0.5334 -0.2321 -0.2400
 7042TIP3    H121090   0.747   6.142   5.494 -0.1787 -0.5388  0.4477
 7042TIP3    H221091   0.665   6.138   5.621 -1.7768 -0.1648 -0.5568
 7043TIP3   OH221092   0.128   5.577   4.506  0.2594  0.4289 -0.6459
 7043TIP3    H121093   0.217   5.599   4.479 -0.3394  2.7791 -0.9645
 7043TIP3    H221094   0.106   5.643   4.572 -0.1408 -2.0882  1.9227
 7044TIP3   OH221095   5.761   6.670   0.292  0.3790 -0.2163 -0.0599
 7044TIP3    H121096   5.757   6.703   0.202 -1.2024  2.2576  0.8174
 7044TIP3    H221097   5.688   6.608   0.297  0.8846 -0.8755 -0.6352
 7045TIP3   OH221098   4.265   4.382   1.902 -0.3883 -0.5825 -0.4681
 7045TIP3    H121099   4.309   4.301   1.925  0.7421 -0.6419 -2.6087
 7045TIP3    H221100   4.172   4.362   1.909 -0.1331 -2.1513 -1.2412
 7046TIP3   OH221101   6.069   2.256   4.785 -0.2629 -0.8157  0.5169
 7046TIP3    H121102   5.989   2.217   4.822 -0.4912 -0.9205 -0.0733
 7046TIP3    H221103   6.137   2.237   4.850 -0.9364  0.2893  1.6038
 7047TIP3   OH221104   6.166   6.706   5.249 -0.5485  0.2246 -0.1416
 7047TIP3    H121105   6.238   6.724   5.188 -1.8470  0.9293 -1.5493
 7047TIP3    H221106   6.090   6.690   5.192 -1.8471  1.0058  1.2944
 7048TIP3   OH221107   4.467   3.291   3.806  0.0399  0.1798 -0.1138
 7048TIP3    H121108   4.525   3.226   3.766 -0.2061  0.9114 -1.7282
 7048TIP3    H221109   4.379   3.266   3.777 -0.0958  0.9908 -0.4233
 7049TIP3   OH221110   2.757   4.277   4.574 -0.0867 -0.5754 -0.3822
 7049TIP3    H121111   2.688   4.251   4.513 -1.6780 -0.5101  1.3130
 7049TIP3    H221112   2.779   4.367   4.549  0.4317 -1.0790 -1.8263
 7050TIP3   OH221113   6.960   5.072   0.752  0.1867  0.1697 -0.5884
 7050TIP3    H121114   6.911   5.012   0.695  0.8987  0.5909 -1.6747
 7050TIP3    H221115   6.945   5.038   0.840  0.4688 -1.5374 -1.1568
 7051TIP3   OH221116   4.938   2.858   2.925  0.2375  0.1734 -0.2564
 7051TIP3    H121117   4.873   2.916   2.884 -0.9319 -1.3416 -0.6222
 7051TIP3    H221118   5.012   2.859   2.865 -0.4612 -0.0303 -1.1449
 7052TIP3   OH221119   1.736   4.217   1.417 -0.5198  0.1378  0.0947
 7052TIP3    H121120   1.737   4.154   1.344  0.2896 -0.1810  0.3717
 7052TIP3    H221121   1.648   4.253   1.416 -1.1634 -1.3579  0.2205
 7053TIP3   OH221122   4.293   1.755   2.793  0.0658 -0.4388  0.2711
 7053TIP3    H121123   4.219   1.713   2.749 -0.7503  1.9024 -0.7593
 7053TIP3    H221124   4.263   1.771   2.882 -0.6086  0.2466 -0.0636
 7054TIP3   OH221125   0.279   3.112   1.666 -0.0761  0.3137  0.0241
 7054TIP3    H121126   0.326   3.167   1.729 -1.8052  1.3628  0.4694
 7054TIP3    H221127   0.311   3.142   1.581 -0.5236  1.6211  0.2847
 7055TIP3   OH221128   1.340   3.599   3.472  0.5259 -0.0032 -0.1990
 7055TIP3    H121129   1.302   3.516   3.441  0.0391  0.2851 -0.3803
 7055TIP3    H221130   1.399   3.626   3.401 -2.1111  1.7067 -1.9122
 7056TIP3   OH221131   0.863   1.866   1.304  0.2585  0.1991  0.2132
 7056TIP3    H121132   0.780   1.819   1.312 -0.8516  2.1232  0.6604
 7056TIP3    H221133   0.862   1.929   1.376  2.9938 -0.9377  1.4057
 7057TIP3   OH221134   2.380   0.470   5.065 -0.0564  0.3047  0.3660
 7057TIP3    H121135   2.293   0.447   5.097 -0.2966  0.1822 -0.3446
 7057TIP3    H221136   2.409   0.541   5.122 -0.7848  0.6010  0.3802
 7058TIP3   OH221137   0.711   5.725   5.439  0.4357  0.4189 -0.4710
 7058TIP3    H121138   0.751   5.643   5.466  1.8559  1.3952  0.4774
 7058TIP3    H221139   0.623   5.700   5.409 -0.2580 -1.0948  2.4924
 7059TIP3   OH221140   0.453   5.831   2.256  0.0538 -0.0132  0.7269
 7059TIP3    H121141   0.361   5.837   2.231  0.5501  0.7400 -1.1132
 7059TIP3    H221142   0.457   5.867   2.344 -1.6138 -1.4252  1.4350
 7060TIP3   OH221143   1.192   6.362   1.023 -0.3207  0.2340 -0.3300
 7060TIP3    H121144   1.263   6.412   1.064 -0.8976  0.7262  0.0965
 7060TIP3    H221145   1.166   6.414   0.947  0.0958 -0.1901 -0.7667
 7061TIP3   OH221146   2.461   3.559   0.690 -0.5303  0.2089 -0.5307
 7061TIP3    H121147   2.421   3.508   0.761 -0.5168 -1.3700 -1.5936
 7061TIP3    H221148   2.483   3.643   0.730  1.7829 -1.4623  2.0358
 7062TIP3   OH221149   2.640   6.233   2.837  0.4800  0.1747  0.1377
 7062TIP3    H121150   2.635   6.230   2.932  1.2765 -0.9183  0.1617
 7062TIP3    H221151   2.551   6.213   2.807  0.7143 -1.8212  0.6441
 7063TIP3   OH221152   6.343   0.460   2.182  0.3553  1.1334  0.0438
 7063TIP3    H121153   6.276   0.456   2.114  0.5137  0.6301 -0.0876
 7063TIP3    H221154   6.299   0.428   2.261  1.1604 -1.9136 -0.6378
 7064TIP3   OH221155   0.560   5.292   2.870 -0.3017  0.1486  0.2130
 7064TIP3    H121156   0.632   5.250   2.916  0.7606  0.9140 -0.6920
 7064TIP3    H221157   0.527   5.357   2.931 -0.1357 -0.1174  0.5888
 7065TIP3   OH221158   1.321   5.765   3.363  0.3264 -0.1147 -0.4156
 7065TIP3    H121159   1.312   5.714   3.444 -0.4391 -0.2554 -0.5854
 7065TIP3    H221160   1.356   5.702   3.300 -2.6032 -1.0763 -1.2126
 7066TIP3   OH221161   2.423   5.836   5.763  0.1105  0.0020  0.3467
 7066TIP3    H121162   2.499   5.883   5.727  1.0419 -0.5655  1.5288
 7066TIP3    H221163   2.356   5.845   5.695  1.0551  0.9634 -0.5008
 7067TIP3   OH221164   4.276   4.529   4.655  0.0152 -0.2329  0.0103
 7067TIP3    H121165   4.356   4.551   4.704 -0.0056  0.0810 -0.0966
 7067TIP3    H221166   4.205   4.564   4.708 -0.1025 -1.0961  0.4415
 7068TIP3   OH221167   0.522   2.025   1.790 -0.3153 -0.2452  0.1340
 7068TIP3    H121168   0.615   2.035   1.813 -0.0367  0.2917 -1.1626
 7068TIP3    H221169   0.508   1.930   1.793  0.4931 -0.3956 -0.4691
 7069TIP3   OH221170   3.803   6.278   3.343  0.0886  0.3194  0.3336
 7069TIP3    H121171   3.858   6.206   3.375 -0.0033  0.1106  0.0296
 7069TIP3    H221172   3.842   6.303   3.259 -0.7668 -0.4140 -0.3163
 7070TIP3   OH221173   1.066   0.376   0.545  0.3219  0.1218  0.9248
 7070TIP3    H121174   1.101   0.461   0.517  0.2732 -0.2667 -0.3440
 7070TIP3    H221175   1.035   0.392   0.634  3.2601  0.6314  1.9667
 7071TIP3   OH221176   5.963   1.958   5.727  0.3481  0.4103 -0.3456
 7071TIP3    H121177   5.972   1.960   5.822 -1.0407  2.0697 -0.2040
 7071TIP3    H221178   5.887   1.901   5.711 -0.8843  1.9423 -0.2549
 7072TIP3   OH221179   2.927   6.103   2.631 -0.2068 -0.4792  0.2200
 7072TIP3    H121180   2.946   6.103   2.724 -0.4854 -1.0023  0.2815
 7072TIP3    H221181   2.864   6.175   2.619  1.5902  1.1332  0.0413
 7073TIP3   OH221182   0.750   2.392   0.787  0.0090 -0.0029 -0.2496
 7073TIP3    H121183   0.726   2.419   0.876 -0.0610  0.1034 -0.3015
 7073TIP3    H221184   0.682   2.329   0.763  0.6161 -0.8474  0.1820
 7074TIP3   OH221185   0.010   5.218   1.753 -0.0002 -0.2856 -0.1946
 7074TIP3    H121186   0.097   5.210   1.715 -0.0388 -1.4346 -0.0774
 7074TIP3    H221187  -0.048   5.177   1.689 -0.3739 -0.0784  0.0093
 7075TIP3   OH221188   0.319   2.701   2.277  0.6506 -0.6825  0.2783
 7075TIP3    H121189   0.356   2.649   2.348  0.3231 -0.3167  0.7286
 7075TIP3    H221190   0.321   2.791   2.310 -1.8933 -0.7849  0.9117
 7076TIP3   OH221191   6.644   2.925   1.989  0.2069 -0.0641  0.0297
 7076TIP3    H121192   6.660   2.918   2.083  1.0418  0.9720 -0.0098
 7076TIP3    H221193   6.614   3.015   1.977  1.6626  0.3250 -0.8829
 7077TIP3   OH221194   4.866   6.485   0.513 -0.1286  0.2391 -0.1173
 7077TIP3    H121195   4.803   6.520   0.450 -0.0995  0.5331  0.0158
 7077TIP3    H221196   4.923   6.428   0.461  0.0061  0.6176 -0.3957
 7078TIP3   OH221197   1.158   2.895   0.525 -0.6344 -0.4344  0.0316
 7078TIP3    H121198   1.246   2.931   0.520 -0.6787 -0.3348 -0.0225
 7078TIP3    H221199   1.145   2.851   0.441 -0.9893  0.3547 -0.3319
 7079TIP3   OH221200   3.515   1.841   4.687  0.2636 -0.2451  0.8755
 7079TIP3    H121201   3.511   1.910   4.621 -0.9165 -0.2315  0.9386
 7079TIP3    H221202   3.605   1.807   4.682  0.6892  0.8982  0.4506
 7080TIP3   OH221203   1.926   4.956   5.218 -0.2357  0.6760 -0.1198
 7080TIP3    H121204   1.848   4.950   5.273  1.1453  2.8092  2.2982
 7080TIP3    H221205   1.912   5.035   5.165 -0.0383  0.6466 -0.2166
 7081TIP3   OH221206   1.594   2.523   0.327 -0.0014  0.1418 -0.1996
 7081TIP3    H121207   1.644   2.476   0.394 -0.1036 -0.2809 -0.4176
 7081TIP3    H221208   1.553   2.454   0.275  0.5283  0.4441 -1.0465
 7082TIP3   OH221209   4.295   0.983   2.107 -0.1524  0.1638  0.2449
 7082TIP3    H121210   4.227   0.987   2.174  0.9290  0.2047  1.3908
 7082TIP3    H221211   4.359   1.049   2.134  0.9491 -0.7290 -0.0775
 7083TIP3   OH221212   4.990   5.604   2.230  0.0442 -0.3719 -0.0518
 7083TIP3    H121213   4.919   5.669   2.233  1.9783  1.8248  0.9478
 7083TIP3    H221214   5.062   5.644   2.279  1.7907 -2.7870 -0.4490
 7084TIP3   OH221215   0.928   3.892   4.427 -0.1933 -0.0551  0.6773
 7084TIP3    H121216   0.875   3.813   4.440 -0.8775  0.5486  1.6573
 7084TIP3    H221217   0.976   3.875   4.346 -0.5742 -1.3395  0.6940
 7085TIP3   OH221218   3.752   1.470   4.620 -0.5023  0.1638  0.2819
 7085TIP3    H121219   3.786   1.549   4.664  1.0240 -0.3810  0.1358
 7085TIP3    H221220   3.786   1.397   4.673  0.0831 -0.4583 -0.9250
 7086TIP3   OH221221   2.052   0.965   4.056  0.7235 -0.8027  0.5151
 7086TIP3    H121222   2.147   0.950   4.058  0.6183 -1.7533 -0.4793
 7086TIP3    H221223   2.043   1.060   4.050  1.6901 -0.7801 -1.4009
 7087TIP3   OH221224   3.039   4.624   3.191  0.5680  0.1883  0.5745
 7087TIP3    H121225   3.134   4.619   3.190  0.5601 -0.9760  1.9464
 7087TIP3    H221226   3.019   4.712   3.159  2.1428  0.7424  1.0321
 7088TIP3   OH221227   6.068   0.142   5.327 -0.1215  0.1350 -0.2214
 7088TIP3    H121228   5.977   0.163   5.346  0.0844  0.4026  0.5107
 7088TIP3    H221229   6.113   0.151   5.412  0.6781  0.5417 -0.6753
 7089TIP3   OH221230   4.534   2.629   4.169 -0.6302  0.2604 -0.5220
 7089TIP3    H121231   4.556   2.608   4.260  1.3052  0.9821 -0.7699
 7089TIP3    H221232   4.461   2.690   4.176 -0.9009 -0.1618  0.5204
 7090TIP3   OH221233   6.688   6.523   1.783  0.3805 -0.4273 -0.3427
 7090TIP3    H121234   6.766   6.468   1.789 -1.0659 -2.6321 -0.4167
 7090TIP3    H221235   6.625   6.470   1.733 -1.6791  0.5917  1.0215
 7091TIP3   OH221236   0.176   1.807   0.507  0.5654 -0.2136  0.1594
 7091TIP3    H121237   0.110   1.794   0.576  0.0459  2.0064  0.1554
 7091TIP3    H221238   0.134   1.773   0.428 -1.9031  3.5676 -0.4296
 7092TIP3   OH221239   0.158   4.569   4.010  0.2655 -0.0642  0.1830
 7092TIP3    H121240   0.148   4.632   4.082 -0.3301  0.0194  0.0289
 7092TIP3    H221241   0.070   4.534   3.996  0.7020 -1.4912  0.7708
 7093TIP3   OH221242   1.540   2.104   5.623 -0.6999  0.9959  0.7042
 7093TIP3    H121243   1.464   2.153   5.591 -1.2587 -0.3956 -0.1808
 7093TIP3    H221244   1.511   2.070   5.708 -1.1472  0.3206  0.2885
 7094TIP3   OH221245   1.912   1.034   5.801 -0.1974 -0.5966  0.2485
 7094TIP3    H121246   1.937   1.089   5.875 -2.5231 -0.7302  1.2443
 7094TIP3    H221247   1.992   0.987   5.778  1.3714  1.6998  0.6346
 7095TIP3   OH221248   1.575   5.025   2.168 -0.2622  0.6148 -0.2924
 7095TIP3    H121249   1.558   5.117   2.145 -0.8534  0.5121 -0.2790
 7095TIP3    H221250   1.573   4.979   2.084 -1.2525  0.4201 -0.1730
 7096TIP3   OH221251   6.737   2.041   2.729  0.4471 -0.3444  0.2841
 7096TIP3    H121252   6.687   2.086   2.661  1.3666  0.7204  0.2819
 7096TIP3    H221253   6.813   2.006   2.683 -0.0236 -1.5093  0.3800
 7097TIP3   OH221254   2.247   5.819   4.556  0.3852 -0.3414  0.3426
 7097TIP3    H121255   2.174   5.871   4.587  0.0830 -0.1504 -0.6584
 7097TIP3    H221256   2.256   5.749   4.622  0.2564  0.4645  1.2382
 7098TIP3   OH221257   4.130   5.351   4.986 -0.7430 -0.2604  0.1624
 7098TIP3    H121258   4.086   5.343   5.071  0.1584 -0.7672  0.5980
 7098TIP3    H221259   4.188   5.426   4.996 -1.9128  0.7799 -0.6136
 7099TIP3   OH221260   3.414   1.198   3.225  0.0659 -0.5448 -0.3634
 7099TIP3    H121261   3.482   1.133   3.242  0.3717 -0.4907 -1.3433
 7099TIP3    H221262   3.390   1.184   3.134  1.3086  1.7754 -1.1237
 7100TIP3   OH221263   5.463   0.794   3.130 -0.2883  0.2597 -0.2955
 7100TIP3    H121264   5.557   0.785   3.116 -0.4626  0.8362 -2.0879
 7100TIP3    H221265   5.451   0.884   3.159 -0.1326 -0.3966  2.0741
 7101TIP3   OH221266   3.656   3.676   1.818  0.1253  0.3284  0.1802
 7101TIP3    H121267   3.681   3.586   1.840 -0.1209  0.2963  0.3253
 7101TIP3    H221268   3.704   3.695   1.737  2.4968  1.0765  1.6420
 7102TIP3   OH221269   3.327   1.511   2.206  0.3752  0.0568  0.4928
 7102TIP3    H121270   3.299   1.441   2.146 -1.7367  0.2287  1.1809
 7102TIP3    H221271   3.266   1.504   2.280 -0.8083  3.4404  0.0040
 7103TIP3   OH221272   5.389   2.031   4.360 -0.0724 -0.3161 -0.3019
 7103TIP3    H121273   5.451   1.997   4.295  0.6665  0.4883 -0.0414
 7103TIP3    H221274   5.384   2.125   4.342 -0.6937 -0.2617  0.1165
 7104TIP3   OH221275   3.926   0.536   2.012  0.3449  0.3007  0.0567
 7104TIP3    H121276   3.977   0.592   2.071  1.1983  0.9470 -1.2524
 7104TIP3    H221277   3.975   0.454   2.008  2.0501  1.3320 -2.1461
 7105TIP3   OH221278   3.784   0.948   1.083 -0.3330  0.2869 -0.3375
 7105TIP3    H121279   3.751   1.024   1.131  1.2205  1.5355 -1.1637
 7105TIP3    H221280   3.858   0.981   1.033  0.1608 -1.7066 -1.0245
 7106TIP3   OH221281   0.090   5.281   5.881  0.3876  0.6135  0.2166
 7106TIP3    H121282   0.001   5.262   5.911  1.2189 -2.0374  1.2805
 7106TIP3    H221283   0.078   5.338   5.805 -2.1762  0.8267  0.6906
 7107TIP3   OH221284   3.739   5.040   5.497  0.2667  0.2466 -0.0455
 7107TIP3    H121285   3.826   5.051   5.534 -0.5008  1.4417  1.5121
 7107TIP3    H221286   3.719   5.124   5.457 -0.1878 -0.0192 -0.3875
 7108TIP3   OH221287   4.017   1.413   0.052  0.0108  0.1329  0.7956
 7108TIP3    H121288   3.952   1.351   0.085  0.9388 -0.5984  1.2808
 7108TIP3    H221289   3.970   1.463  -0.015 -1.0639 -0.3422  1.1690
 7109TIP3   OH221290   2.603   3.141   3.555  0.2900  0.0092 -0.2243
 7109TIP3    H121291   2.548   3.114   3.482  0.2649 -1.1874  0.2105
 7109TIP3    H221292   2.560   3.219   3.591 -2.5342 -2.2003  1.5802
 7110TIP3   OH221293   2.050   4.874   0.825  0.4029 -0.0768 -0.3914
 7110TIP3    H121294   2.104   4.858   0.748  0.1031 -1.2340 -0.3744
 7110TIP3    H221295   2.053   4.792   0.874 -0.6596  0.1356  0.0501
 7111TIP3   OH221296   3.806   3.717   2.582  0.7272 -0.5785 -0.2371
 7111TIP3    H121297   3.781   3.777   2.653 -1.0438 -0.6709 -0.7328
 7111TIP3    H221298   3.902   3.717   2.583  0.7840  1.5460  0.3931
 7112TIP3   OH221299   0.922   3.008   0.650 -1.1357 -0.2223  0.2990
 7112TIP3    H121300   1.001   2.982   0.603  0.4215 -0.2259  2.7053
 7112TIP3    H221301   0.851   2.969   0.601  0.5404 -2.2106 -0.7107
 7113TIP3   OH221302   3.792   4.896   0.023 -0.3674  0.0159  0.1255
 7113TIP3    H121303   3.811   4.990   0.022 -0.4794  0.1147  2.7398
 7113TIP3    H221304   3.706   4.890   0.064 -0.8471 -1.1989 -0.9872
 7114TIP3   OH221305   4.255   6.252   3.574 -0.5000  0.4146  0.0872
 7114TIP3    H121306   4.337   6.273   3.619  0.0700  0.5455 -0.9754
 7114TIP3    H221307   4.238   6.160   3.598  1.1797 -0.3600 -1.4410
 7115TIP3   OH221308   0.680   5.785   0.010  0.1450 -0.3236 -0.9785
 7115TIP3    H121309   0.703   5.811   0.099  1.1668 -0.9141 -1.0610
 7115TIP3    H221310   0.683   5.689   0.011  0.0793 -0.3418 -1.6317
 7116TIP3   OH221311   2.684   6.675   0.851 -0.2023  0.3379 -0.1476
 7116TIP3    H121312   2.661   6.745   0.913  1.8260  0.6018  0.3950
 7116TIP3    H221313   2.620   6.606   0.868 -2.8354  2.3135 -1.2994
 7117TIP3   OH221314   0.248   6.045   1.935 -0.3902  0.2108 -0.0811
 7117TIP3    H121315   0.283   6.080   2.017  2.4944  1.1416 -1.6052
 7117TIP3    H221316   0.310   5.977   1.909 -0.1715  1.2172 -2.4122
 7118TIP3   OH221317   0.336   2.455   0.030  0.0482 -0.3136 -0.0364
 7118TIP3    H121318   0.361   2.370  -0.005 -0.2775  0.3343 -1.9206
 7118TIP3    H221319   0.344   2.445   0.125  0.0219 -2.4318 -0.2179
 7119TIP3   OH221320   3.085   4.277   0.336 -0.3044 -0.7628 -0.2384
 7119TIP3    H121321   3.003   4.294   0.383 -0.5634 -3.0773  0.2584
 7119TIP3    H221322   3.061   4.286   0.243 -0.6204  0.4547 -0.0610
 7120TIP3   OH221323   5.058   5.040   1.231 -0.0805  0.1620  0.6323
 7120TIP3    H121324   5.101   4.986   1.297  1.4213 -1.0936 -1.2470
 7120TIP3    H221325   4.983   4.988   1.202  1.1730 -0.8964 -0.9351
 7121TIP3   OH221326   5.188   6.149   4.214 -0.2799 -0.3486  0.3520
 7121TIP3    H121327   5.242   6.103   4.150 -1.2132 -0.8594 -0.1041
 7121TIP3    H221328   5.232   6.232   4.228 -0.6205  0.2758 -1.8528
 7122TIP3   OH221329   2.056   2.017   3.658  0.1922  0.0064 -0.5952
 7122TIP3    H121330   2.127   2.064   3.616  0.8378 -0.2467  0.1931
 7122TIP3    H221331   2.016   1.967   3.587 -1.8997  3.2683 -1.9551
 7123TIP3   OH221332   6.173   2.070   1.202 -0.7403  0.1315 -0.2473
 7123TIP3    H121333   6.235   2.134   1.238 -0.6697  0.2798 -0.6218
 7123TIP3    H221334   6.108   2.058   1.271 -1.0720  1.0474 -0.3840
 7124TIP3   OH221335   2.072   0.214   3.544  0.5566 -0.3204 -0.3972
 7124TIP3    H121336   2.063   0.287   3.483 -0.5711 -0.5442 -0.5249
 7124TIP3    H221337   1.982   0.191   3.566  0.9315 -0.7200  0.7837
 7125TIP3   OH221338   6.740   1.791   4.650  0.5534  0.6800 -0.2018
 7125TIP3    H121339   6.658   1.825   4.613  0.4102  2.1662  1.3528
 7125TIP3    H221340   6.758   1.848   4.725  1.6087 -1.2610  1.1094
 7126TIP3   OH221341   6.439   4.087   5.319 -0.0535 -0.3703  0.1004
 7126TIP3    H121342   6.414   4.133   5.239  1.3864  0.9607  0.3657
 7126TIP3    H221343   6.419   4.149   5.390  1.7138 -0.1709  0.4789
 7127TIP3   OH221344   4.977   4.925   3.404  0.1946  0.4783  0.0384
 7127TIP3    H121345   5.042   4.992   3.383  0.6221  0.8219  2.2555
 7127TIP3    H221346   4.896   4.957   3.363  0.8483  1.2935 -0.6573
 7128TIP3   OH221347   5.583   0.684   5.651 -0.2031  0.3552 -0.5959
 7128TIP3    H121348   5.565   0.694   5.558 -1.3727 -1.3509 -0.6059
 7128TIP3    H221349   5.496   0.676   5.691  0.1976  2.4846  0.8632
 7129TIP3   OH221350   6.547   3.157   3.011  0.0678  0.0114  0.0859
 7129TIP3    H121351   6.548   3.245   2.974 -0.9130 -0.2711 -0.6501
 7129TIP3    H221352   6.523   3.100   2.938  0.4698 -0.8491  0.6039
 7130TIP3   OH221353   3.547   6.498   1.207 -0.2307  0.3393 -0.1733
 7130TIP3    H121354   3.458   6.495   1.172 -0.0765 -0.2488 -0.5340
 7130TIP3    H221355   3.600   6.534   1.136 -0.0426 -0.1436 -0.2849
 7131TIP3   OH221356   1.013   6.483   0.051 -0.0014  0.1777 -0.2488
 7131TIP3    H121357   0.929   6.464   0.092  0.0360  0.9230  0.1969
 7131TIP3    H221358   1.063   6.401   0.060  0.9883  1.0161  3.6670
 7132TIP3   OH221359   2.224   6.634   3.808 -0.4962 -0.4546  0.0601
 7132TIP3    H121360   2.208   6.633   3.902 -0.5008 -1.3539  0.0592
 7132TIP3    H221361   2.230   6.541   3.784  0.9859 -0.2158 -0.5849
 7133TIP3   OH221362   5.131   3.877   4.336 -0.0574  0.8462  0.1347
 7133TIP3    H121363   5.067   3.939   4.372 -0.4844  1.2923 -1.3253
 7133TIP3    H221364   5.130   3.804   4.398 -2.2110  0.7068  0.0268
 7134TIP3   OH221365   1.430   0.023   4.177  0.1934  0.2919 -0.0309
 7134TIP3    H121366   1.404   0.065   4.095 -1.1254  0.8106  0.6198
 7134TIP3    H221367   1.459   0.096   4.233  0.5080  0.0157  0.1664
 7135TIP3   OH221368   0.793   3.208   0.045  0.3572  0.7550  0.1405
 7135TIP3    H121369   0.842   3.132   0.013  2.1411  0.4621  3.1293
 7135TIP3    H221370   0.821   3.280  -0.012  2.3224  0.0621  0.1475
 7136TIP3   OH221371   1.534   1.976   1.016 -0.2617  0.0903  0.1899
 7136TIP3    H121372   1.477   1.955   1.090 -0.7184  1.9057  0.4001
 7136TIP3    H221373   1.502   1.921   0.945 -2.5756  1.3045  0.1934
 7137TIP3   OH221374   6.730   6.159   0.726  0.1299 -0.4007  0.0584
 7137TIP3    H121375   6.682   6.077   0.744  0.9755 -0.9332 -0.0771
 7137TIP3    H221376   6.786   6.170   0.802 -1.5071  1.2253  1.1207
 7138TIP3   OH221377   0.897   0.937   3.229 -0.2841  0.0506 -0.1853
 7138TIP3    H121378   0.909   0.870   3.162 -1.6745  0.4537 -0.8815
 7138TIP3    H221379   0.809   0.920   3.265 -0.1798  0.7836  0.4461
 7139TIP3   OH221380   1.234   5.684   0.096 -0.0831  0.2859  0.3267
 7139TIP3    H121381   1.323   5.694   0.128  0.3171 -0.4772 -0.5144
 7139TIP3    H221382   1.231   5.595   0.060 -1.6988 -0.3766  1.9439
 7140TIP3   OH221383   3.814   0.906   4.763 -0.3867 -0.3798 -0.6728
 7140TIP3    H121384   3.833   0.856   4.843  0.0188 -0.5986 -0.9029
 7140TIP3    H221385   3.775   0.842   4.703 -0.9102 -0.1635 -0.5717
 7141TIP3   OH221386   3.618   0.526   1.739 -0.1384 -0.0726 -0.7014
 7141TIP3    H121387   3.702   0.559   1.707 -0.4289 -0.4689 -1.9466
 7141TIP3    H221388   3.562   0.525   1.661 -0.9162 -0.9998 -0.1476
 7142TIP3   OH221389   0.943   6.455   1.646  0.5870 -0.4942  0.3629
 7142TIP3    H121390   0.902   6.536   1.617  0.3617 -0.8414 -0.3061
 7142TIP3    H221391   0.906   6.438   1.733 -0.4094 -0.6004 -0.0668
 7143TIP3   OH221392   6.339   0.117   1.539  0.0884  0.2046 -0.1855
 7143TIP3    H121393   6.406   0.135   1.473 -0.4513  1.7739 -0.3262
 7143TIP3    H221394   6.316   0.025   1.524  0.5302  0.3095 -1.6749
 7144TIP3   OH221395   3.242   5.195   5.456 -0.0264 -0.1906 -0.2413
 7144TIP3    H121396   3.189   5.121   5.426 -0.8065 -0.1385  0.9163
 7144TIP3    H221397   3.316   5.197   5.396 -1.1636 -0.4648 -1.7177
 7145TIP3   OH221398   1.848   3.994   4.368  0.3373 -0.1209  0.1228
 7145TIP3    H121399   1.904   4.070   4.386  1.0126 -0.7631  0.7971
 7145TIP3    H221400   1.906   3.919   4.376 -0.6717 -0.8291  1.0739
 7146TIP3   OH221401   5.204   4.753   4.076  0.7159  0.2603 -0.2387
 7146TIP3    H121402   5.197   4.819   4.007  2.0387 -1.5392 -2.2259
 7146TIP3    H221403   5.150   4.680   4.045 -1.8356  0.7699  2.5457
 7147TIP3   OH221404   0.759   3.637   1.612  0.2014  0.1571  0.1112
 7147TIP3    H121405   0.699   3.581   1.661 -1.1960  2.1315  0.8029
 7147TIP3    H221406   0.724   3.638   1.523  0.5826 -0.5343 -0.0477
 7148TIP3   OH221407   5.983   6.598   3.095  0.3851  0.1414 -0.2705
 7148TIP3    H121408   5.990   6.658   3.021 -2.8726 -0.0593 -0.9060
 7148TIP3    H221409   5.936   6.522   3.059  0.8751 -1.0399  1.4670
 7149TIP3   OH221410   4.641   4.359   2.052  0.3892  0.2163 -0.0526
 7149TIP3    H121411   4.691   4.352   2.133 -1.6230 -0.2229  1.2184
 7149TIP3    H221412   4.611   4.450   2.050  0.2528  0.1692 -0.1818
 7150TIP3   OH221413   3.592   2.252   3.125  0.3117  0.6190 -0.8534
 7150TIP3    H121414   3.581   2.214   3.038 -0.7798 -3.7048  0.9268
 7150TIP3    H221415   3.677   2.221   3.155  0.5071  1.7317 -0.1729
 7151TIP3   OH221416   6.401   4.389   5.756 -0.5241  0.1914  0.1845
 7151TIP3    H121417   6.462   4.346   5.817  0.0349 -1.3544 -1.3780
 7151TIP3    H221418   6.352   4.450   5.811 -0.8302 -1.8872  2.4461
 7152TIP3   OH221419   0.045   5.763   2.855 -0.2400  0.5860  0.4417
 7152TIP3    H121420   0.041   5.675   2.817 -2.5988 -0.1271  2.0702
 7152TIP3    H221421   0.038   5.748   2.949  0.1023  2.5014  0.8119
 7153TIP3   OH221422   2.422   1.871   2.950  0.1348  0.9010 -0.0012
 7153TIP3    H121423   2.339   1.919   2.941  0.5375  1.6711  0.3576
 7153TIP3    H221424   2.455   1.896   3.037  0.6535  0.4461 -0.0632
 7154TIP3   OH221425   1.272   5.152   2.131  0.1061 -0.1445  0.2398
 7154TIP3    H121426   1.255   5.193   2.047  1.4941  0.7394  0.3513
 7154TIP3    H221427   1.216   5.200   2.193  1.1746  1.1598  0.2498
 7155TIP3   OH221428   1.920   1.435   3.114  0.5073 -0.0469  0.1189
 7155TIP3    H121429   1.873   1.512   3.085  0.1830  0.2203  1.3092
 7155TIP3    H221430   2.007   1.444   3.075  0.1222  0.3115 -0.6955
 7156TIP3   OH221431   5.657   1.121   4.240  0.0920 -0.0875 -0.5081
 7156TIP3    H121432   5.736   1.147   4.193  0.3764  2.8576  1.3407
 7156TIP3    H221433   5.588   1.178   4.205 -0.4943 -0.4129  0.0906
 7157TIP3   OH221434   5.069   1.832   0.514  0.5670 -0.3698  0.1287
 7157TIP3    H121435   5.129   1.832   0.439 -0.6680 -1.7642 -0.9300
 7157TIP3    H221436   5.056   1.739   0.534  1.3532 -0.0348  2.5368
 7158TIP3   OH221437   1.645   4.180   3.337  0.3376  0.1840  0.2056
 7158TIP3    H121438   1.563   4.132   3.321 -0.0784  0.6816  0.7593
 7158TIP3    H221439   1.670   4.215   3.252  0.8783 -1.3595 -0.2965
 7159TIP3   OH221440   5.606   6.322   5.879  0.3325 -0.8306  0.0099
 7159TIP3    H121441   5.585   6.232   5.854 -0.7980 -1.3704  2.5471
 7159TIP3    H221442   5.523   6.369   5.867 -0.4711 -1.2566  2.9222
 7160TIP3   OH221443   1.542   6.293   2.827 -0.1893 -0.5258 -0.2812
 7160TIP3    H121444   1.471   6.343   2.867  0.4911 -0.7089  1.2247
 7160TIP3    H221445   1.579   6.242   2.899  0.4783 -1.6121 -1.3505
 7161TIP3   OH221446   5.144   4.990   2.087 -0.1929 -0.9649 -0.5421
 7161TIP3    H121447   5.051   4.973   2.074 -0.3552  1.4029 -3.5388
 7161TIP3    H221448   5.150   5.023   2.177 -2.0391 -2.0277  0.0300
 7162TIP3   OH221449   1.363   4.803   1.590  0.0779 -0.2672 -0.0629
 7162TIP3    H121450   1.332   4.888   1.559 -1.8051 -0.5142  1.0079
 7162TIP3    H221451   1.428   4.824   1.657 -1.8386  0.4579  1.6927
 7163TIP3   OH221452   4.114   3.144   2.019  0.2079 -0.2967 -0.2152
 7163TIP3    H121453   4.034   3.113   2.063  0.7851  0.2999  1.2926
 7163TIP3    H221454   4.085   3.163   1.930 -1.2262 -0.5678  0.1555
 7164TIP3   OH221455   5.073   6.086   0.096  0.1953  0.0045 -0.4981
 7164TIP3    H121456   4.985   6.048   0.104  0.8091 -1.5422 -0.8693
 7164TIP3    H221457   5.057   6.174   0.061 -1.3491  0.6143  1.4656
 7165TIP3   OH221458   3.886   0.788   2.393  0.0249 -0.5961  0.4022
 7165TIP3    H121459   3.824   0.813   2.461 -0.6073 -0.4992 -0.1995
 7165TIP3    H221460   3.831   0.763   2.318  0.6220  2.4439 -1.2404
 7166TIP3   OH221461   0.601   3.783   1.108 -0.0048 -0.4473  0.1271
 7166TIP3    H121462   0.549   3.786   1.028 -0.4784 -0.7696  0.4159
 7166TIP3    H221463   0.676   3.840   1.090 -0.2779 -0.2500 -0.4204
 7167TIP3   OH221464   6.404   2.156   4.209  0.9782 -0.9508 -0.0143
 7167TIP3    H121465   6.480   2.178   4.157  1.6297 -1.6806  0.6032
 7167TIP3    H221466   6.354   2.237   4.214  0.6747 -0.9569 -2.0859
 7168TIP3   OH221467   6.392   3.552   2.036  0.5709 -0.3650 -0.8829
 7168TIP3    H121468   6.305   3.538   2.074  1.0709  0.6579  0.7265
 7168TIP3    H221469   6.382   3.631   1.982  0.1940 -1.0479 -1.8538
 7169TIP3   OH221470   4.699   2.117   0.490  0.4404 -0.1303 -0.0893
 7169TIP3    H121471   4.735   2.160   0.568  1.3921 -3.3824  1.4974
 7169TIP3    H221472   4.775   2.075   0.449 -0.6503 -2.1938 -0.1255
 7170TIP3   OH221473   4.936   5.159   3.597 -0.1212 -0.1446 -0.1958
 7170TIP3    H121474   4.884   5.235   3.572 -0.7308 -0.5407 -0.1477
 7170TIP3    H221475   4.883   5.084   3.571  0.4455 -0.5582 -0.1822
 7171TIP3   OH221476   4.948   1.274   1.138  0.8637  0.5706 -0.2566
 7171TIP3    H121477   4.988   1.350   1.180  0.2831  0.7193  0.0396
 7171TIP3    H221478   4.907   1.310   1.059  0.7672  0.5312 -0.2247
 7172TIP3   OH221479   2.537   1.178   5.295  0.5424  0.8421 -0.1748
 7172TIP3    H121480   2.586   1.208   5.371 -0.1669  0.4783  0.4467
 7172TIP3    H221481   2.450   1.217   5.306  0.0998 -0.1003 -0.1936
 7173TIP3   OH221482   4.656   5.492   4.416  0.1920  0.1099  0.4485
 7173TIP3    H121483   4.712   5.423   4.451 -0.2893 -0.7199 -0.3629
 7173TIP3    H221484   4.617   5.533   4.493  0.2851 -0.6959  0.9418
 7174TIP3   OH221485   1.647   0.639   2.810  0.5454 -0.2627 -0.4141
 7174TIP3    H121486   1.736   0.605   2.796  0.8264 -0.3868  1.3785
 7174TIP3    H221487   1.600   0.565   2.848 -0.3360 -0.1962 -1.3619
 7175TIP3   OH221488   0.093   4.619   2.840  0.4135  0.4511 -0.5252
 7175TIP3    H121489   0.001   4.606   2.863  1.0254  0.4995  2.4232
 7175TIP3    H221490   0.120   4.538   2.797 -0.4805 -0.4629  0.5958
 7176TIP3   OH221491   3.710   3.173   0.462  0.0262 -0.1442  0.3491
 7176TIP3    H121492   3.776   3.105   0.476  0.6482  0.2985 -0.4139
 7176TIP3    H221493   3.730   3.239   0.528 -0.4647 -0.6033  0.9699
 7177TIP3   OH221494   5.882   3.332   2.600 -0.0648 -0.0620 -0.1059
 7177TIP3    H121495   5.862   3.245   2.565 -1.6833  0.1530  0.2188
 7177TIP3    H221496   5.797   3.374   2.610  0.5767  0.9815  1.2791
 7178TIP3   OH221497   4.504   1.172   1.103 -0.2714 -0.4612  0.3428
 7178TIP3    H121498   4.567   1.099   1.110  0.1031 -0.1136  0.6650
 7178TIP3    H221499   4.548   1.236   1.046 -0.9765 -0.8645 -0.6815
 7179TIP3   OH221500   6.816   2.592   5.112  1.0120 -0.0969  0.0096
 7179TIP3    H121501   6.828   2.545   5.195  2.6691 -0.5620 -0.4523
 7179TIP3    H221502   6.722   2.587   5.095  0.9406 -1.9913  0.7227
 7180TIP3   OH221503   2.948   0.039   3.486  0.0103  0.0035  0.4318
 7180TIP3    H121504   3.032   0.085   3.496  0.7799 -1.2751  0.0836
 7180TIP3    H221505   2.958  -0.042   3.536 -1.2288  0.0797  0.8331
 7181TIP3   OH221506   5.688   5.843   5.839  0.4963  0.2358 -0.6588
 7181TIP3    H121507   5.777   5.879   5.832  0.5582  0.1448 -0.3303
 7181TIP3    H221508   5.682   5.811   5.929 -0.2249  1.1886 -0.3504
 7182TIP3   OH221509   0.441   4.946   3.861 -0.2000  0.0484  0.1873
 7182TIP3    H121510   0.503   4.896   3.914 -0.6699  0.1920  0.9012
 7182TIP3    H221511   0.464   5.038   3.878 -1.8561  0.1889  2.1144
 7183TIP3   OH221512   2.228   2.555   4.871  0.1380 -0.3675  0.0635
 7183TIP3    H121513   2.212   2.467   4.905 -0.2964 -0.8478 -1.3081
 7183TIP3    H221514   2.323   2.562   4.864  0.2565 -0.1742  1.5081
 7184TIP3   OH221515   5.896   0.086   1.086  0.3088 -0.1829  0.0350
 7184TIP3    H121516   5.813   0.056   1.122  0.9233  0.8674  2.5523
 7184TIP3    H221517   5.874   0.168   1.041  0.1736  1.1680  2.3920
 7185TIP3   OH221518   3.054   3.193   4.418  0.1551  0.2151  0.7072
 7185TIP3    H121519   3.147   3.199   4.395 -0.0168 -0.6971 -0.3588
 7185TIP3    H221520   3.009   3.238   4.346 -0.2888 -0.7025  0.3943
 7186TIP3   OH221521   0.417   5.625   0.746 -0.2406 -0.0178  0.6092
 7186TIP3    H121522   0.396   5.704   0.696 -0.9435 -0.2323  0.5673
 7186TIP3    H221523   0.509   5.607   0.723 -0.2098  0.5292  0.2770
 7187TIP3   OH221524   6.978   2.491   5.835 -0.2007 -0.2265 -0.7369
 7187TIP3    H121525   6.944   2.577   5.861 -1.0594  0.2807 -3.2277
 7187TIP3    H221526   6.913   2.429   5.867  0.2798  0.0149  0.8273
 7188TIP3   OH221527   6.071   2.549   4.233 -0.1697 -0.2207 -0.8201
 7188TIP3    H121528   6.063   2.550   4.138  1.8401 -2.1517 -1.0987
 7188TIP3    H221529   6.061   2.457   4.257  0.6422  0.0443  0.6787
 7189TIP3   OH221530   5.752   0.416   2.886 -0.5806  0.1285  0.0931
 7189TIP3    H121531   5.836   0.445   2.923 -1.0389 -0.5288  1.7479
 7189TIP3    H221532   5.741   0.470   2.808  2.4926 -1.3723 -1.5931
 7190TIP3   OH221533   5.314   0.387   5.113 -0.7349 -0.2461 -0.1685
 7190TIP3    H121534   5.298   0.451   5.043  0.1237  0.1661  0.0025
 7190TIP3    H221535   5.243   0.324   5.104 -1.3328  0.4773 -0.6396
 7191TIP3   OH221536   2.392   6.517   1.299  0.1785  0.5908 -0.1187
 7191TIP3    H121537   2.297   6.507   1.306  0.1615  0.3962 -0.5895
 7191TIP3    H221538   2.405   6.611   1.288 -0.1113  0.4361 -2.0771
 7192TIP3   OH221539   6.844   2.245   5.861  0.5158 -0.7478 -0.0228
 7192TIP3    H121540   6.827   2.184   5.789 -1.0902 -0.8998  0.4355
 7192TIP3    H221541   6.851   2.189   5.938 -1.9088 -0.3833  0.5596
 7193TIP3   OH221542   3.980   6.637   1.544  0.3045 -0.3848  0.4423
 7193TIP3    H121543   3.912   6.591   1.594  0.7229  0.0106  1.3840
 7193TIP3    H221544   3.959   6.618   1.452 -1.3898  0.1505  0.6859
 7194TIP3   OH221545   2.315   1.753   1.241  0.4144 -0.1436 -0.0285
 7194TIP3    H121546   2.371   1.794   1.307  0.7580 -1.4677  0.5394
 7194TIP3    H221547   2.303   1.820   1.174  1.7202  0.5569  0.4082
 7195TIP3   OH221548   2.549   6.518   5.856  0.2978 -0.2630  0.0366
 7195TIP3    H121549   2.587   6.430   5.857  1.5162  0.2117 -1.1728
 7195TIP3    H221550   2.540   6.540   5.763 -1.3340  0.3563  0.3032
 7196TIP3   OH221551   1.581   1.559   1.819 -0.0579 -0.1657  0.2638
 7196TIP3    H121552   1.547   1.507   1.892 -1.9434  0.8767  0.2166
 7196TIP3    H221553   1.654   1.509   1.784 -1.9171 -2.9123  0.0437
 7197TIP3   OH221554   0.382   4.178   5.539 -0.4037  0.1217  0.3989
 7197TIP3    H121555   0.415   4.256   5.494  1.0772 -1.9444 -2.4302
 7197TIP3    H221556   0.309   4.148   5.485  0.0113 -1.2423  0.5550
 7198TIP3   OH221557   1.016   3.947   2.031 -0.1601  0.3854 -0.3895
 7198TIP3    H121558   0.927   3.978   2.048 -0.0548 -0.2809  1.7421
 7198TIP3    H221559   1.006   3.853   2.015  0.2577 -0.0370  1.5568
 7199TIP3   OH221560   6.587   1.234   5.246 -0.9797 -0.5137  0.0176
 7199TIP3    H121561   6.521   1.183   5.199 -0.0896 -1.3553 -0.3447
 7199TIP3    H221562   6.574   1.210   5.338 -1.1840 -0.6734 -0.0506
 7200TIP3   OH221563   6.821   4.621   2.366  0.0386  0.3936  0.4695
 7200TIP3    H121564   6.906   4.649   2.332  0.3298  0.0622  0.9317
 7200TIP3    H221565   6.841   4.556   2.433 -0.5499  0.8173  1.0673
 7201TIP3   OH221566   6.938   4.111   5.462 -0.5765 -0.1039 -0.5509
 7201TIP3    H121567   6.898   4.023   5.458  0.1721 -0.5580  1.0188
 7201TIP3    H221568   6.894   4.153   5.535  1.0212 -0.2302  0.5344
 7202TIP3   OH221569   5.448   2.582   3.598 -0.5448  0.7557 -0.2138
 7202TIP3    H121570   5.514   2.543   3.656 -1.6284  0.2977  0.7436
 7202TIP3    H221571   5.498   2.608   3.520  0.9054  1.1694  0.8078
 7203TIP3   OH221572   7.161   6.217   0.568 -0.0858 -0.1043 -0.1301
 7203TIP3    H121573   7.089   6.155   0.558 -0.2177 -0.2983  1.7627
 7203TIP3    H221574   7.145   6.283   0.500 -1.4899 -0.6525 -0.3690
 7204TIP3   OH221575   4.436   0.154   3.271 -0.0236 -0.2898  0.0098
 7204TIP3    H121576   4.527   0.183   3.264 -0.4569  1.6162  1.2810
 7204TIP3    H221577   4.422   0.100   3.193  1.5335  1.2988 -1.4938
 7205TIP3   OH221578   2.345   6.116   0.636 -0.0760 -0.0994  0.5575
 7205TIP3    H121579   2.412   6.183   0.625  0.1999 -0.5775 -0.8158
 7205TIP3    H221580   2.387   6.049   0.691  0.7830 -0.6470 -0.7319
 7206TIP3   OH221581   1.672   6.495   5.088  0.3118 -0.7871  0.2421
 7206TIP3    H121582   1.634   6.582   5.099 -0.5765 -1.0297 -0.7780
 7206TIP3    H221583   1.622   6.456   5.017  1.1093 -1.9087  0.2774
 7207TIP3   OH221584   4.568   1.167   0.701 -0.1874 -0.1228  0.0685
 7207TIP3    H121585   4.530   1.255   0.702  1.3109  0.5570 -0.5677
 7207TIP3    H221586   4.654   1.176   0.742  0.4442 -1.0540 -0.9721
 7208TIP3   OH221587   5.803   1.178   1.843 -0.0333 -0.3664 -0.0490
 7208TIP3    H121588   5.818   1.267   1.809  2.5638 -1.1546 -1.1664
 7208TIP3    H221589   5.750   1.136   1.774 -0.2146 -0.0744 -0.0940
 7209TIP3   OH221590   1.750   6.106   4.055 -0.2061 -0.2967  0.1611
 7209TIP3    H121591   1.664   6.083   4.019  0.2986  1.1834 -2.1517
 7209TIP3    H221592   1.736   6.107   4.150 -3.1806  1.3799 -0.1707
 7210TIP3   OH221593   6.119   6.009   2.506  0.3225 -0.0969 -0.1893
 7210TIP3    H121594   6.090   5.924   2.538 -0.0811  1.0829  2.8828
 7210TIP3    H221595   6.051   6.036   2.445 -0.5314 -1.1122  0.2868
 7211TIP3   OH221596   2.955   2.897   3.931  0.3346 -0.2324 -0.5369
 7211TIP3    H121597   3.010   2.855   3.865  1.0454 -0.4014  0.1373
 7211TIP3    H221598   3.013   2.960   3.974  0.1817 -0.8138  0.5682
 7212TIP3   OH221599   5.584   0.384   5.441  0.0258  0.5477  0.3906
 7212TIP3    H121600   5.654   0.446   5.462  1.0553 -1.0630  1.9706
 7212TIP3    H221601   5.586   0.377   5.345  1.0159  1.6325  0.3098
 7213TIP3   OH221602   1.730   3.360   4.830  0.2206 -0.3210  0.0518
 7213TIP3    H121603   1.669   3.424   4.795 -0.7867 -1.5251 -0.4521
 7213TIP3    H221604   1.691   3.331   4.912  0.6384 -0.3478  0.2468
 7214TIP3   OH221605   1.125   2.856   2.898  0.1416 -0.1526 -0.4694
 7214TIP3    H121606   1.109   2.951   2.897 -0.6902 -0.2768 -0.1522
 7214TIP3    H221607   1.078   2.823   2.822  1.0849 -0.2256 -1.0340
 7215TIP3   OH221608   5.844   5.018   2.358 -0.2337  0.7363  0.0982
 7215TIP3    H121609   5.927   4.975   2.379 -1.7859 -2.0457  1.0594
 7215TIP3    H221610   5.840   5.016   2.262 -0.9489 -3.0343  0.0627
 7216TIP3   OH221611   6.186   1.330   3.735 -0.0212 -0.4289 -0.0210
 7216TIP3    H121612   6.176   1.256   3.675 -0.3594 -1.1418  0.8719
 7216TIP3    H221613   6.112   1.387   3.716  0.2616 -0.2986 -0.7435
 7217TIP3   OH221614   5.272   5.532   0.256  0.0711  0.0146  0.6147
 7217TIP3    H121615   5.289   5.523   0.162 -0.1860  0.2530  0.5426
 7217TIP3    H221616   5.264   5.442   0.287 -0.0610 -0.0635  0.3645
 7218TIP3   OH221617   6.555   2.399   4.308  0.6296 -0.1161  0.1434
 7218TIP3    H121618   6.507   2.323   4.342  2.1999 -0.5108  1.5968
 7218TIP3    H221619   6.598   2.436   4.385 -0.2036  2.3812 -0.4949
 7219TIP3   OH221620   7.124   4.879   2.950  0.1441 -0.1951 -0.5073
 7219TIP3    H121621   7.216   4.872   2.978  0.1416  0.1425 -0.4086
 7219TIP3    H221622   7.087   4.946   3.008 -0.5949 -1.4858  0.5798
 7220TIP3   OH221623   0.650   6.537   4.588 -0.5541 -0.3784  0.3816
 7220TIP3    H121624   0.704   6.595   4.642 -1.0082  0.0994  0.3182
 7220TIP3    H221625   0.678   6.449   4.614  0.6296 -0.1480 -0.0141
 7221TIP3   OH221626   5.024   5.602   4.103  0.0164 -0.6170 -0.9081
 7221TIP3    H121627   5.023   5.623   4.196 -1.7837  0.2598 -1.0919
 7221TIP3    H221628   4.994   5.682   4.060  1.1762 -0.8779 -2.2932
 7222TIP3   OH221629   3.386   1.786   3.468 -0.2980 -0.3713 -0.2482
 7222TIP3    H121630   3.386   1.792   3.563  0.8224  0.4277 -0.2801
 7222TIP3    H221631   3.438   1.861   3.439 -0.3262 -0.8019 -1.4727
 7223TIP3   OH221632   0.387   6.626   2.823  0.3488 -0.0103 -0.8659
 7223TIP3    H121633   0.441   6.702   2.844 -0.0000 -0.0240  0.1130
 7223TIP3    H221634   0.450   6.560   2.793  0.7515  0.3555 -0.8328
 7224TIP3   OH221635   3.538   5.187   2.957 -0.1569  0.3674  0.0003
 7224TIP3    H121636   3.626   5.225   2.953 -1.2500  3.1683  0.6538
 7224TIP3    H221637   3.509   5.186   2.865  0.3903 -0.2711 -0.1801
 7225TIP3   OH221638   1.420   3.785   1.820 -0.0261  0.0253  0.2018
 7225TIP3    H121639   1.466   3.846   1.763  0.0761 -1.2725 -1.1495
 7225TIP3    H221640   1.433   3.820   1.908 -0.3552  2.1946 -0.5523
 7226TIP3   OH221641   3.067   1.495   5.814 -0.0588 -0.4618  0.0519
 7226TIP3    H121642   2.984   1.508   5.768 -1.0669  1.6102  2.2100
 7226TIP3    H221643   3.132   1.536   5.757 -0.8622 -0.1513 -0.6797
 7227TIP3   OH221644   1.527   5.866   3.037 -0.0311 -0.2801  0.7151
 7227TIP3    H121645   1.472   5.793   3.064  1.3420 -1.5605  0.1763
 7227TIP3    H221646   1.485   5.901   2.958 -0.2992 -0.9606  0.5539
 7228TIP3   OH221647   6.181   2.221   4.529 -0.6079 -0.0878 -0.3544
 7228TIP3    H121648   6.138   2.223   4.615  0.5713  0.2128  0.2506
 7228TIP3    H221649   6.214   2.132   4.521 -0.1950  0.0475 -0.2135
 7229TIP3   OH221650   0.238   1.531   4.388  0.3060  0.1019 -0.3380
 7229TIP3    H121651   0.192   1.505   4.308  0.1435 -1.9617  0.3606
 7229TIP3    H221652   0.219   1.461   4.450 -0.3148  2.0568  1.8504
 7230TIP3   OH221653   6.511   2.014   3.253 -0.0705 -0.1228  0.2387
 7230TIP3    H121654   6.584   2.016   3.316  1.9645 -3.6520 -1.6609
 7230TIP3    H221655   6.463   1.933   3.275 -1.9098  0.8031 -0.1772
 7231TIP3   OH221656   5.423   3.702   0.416 -0.1607  0.9682 -0.5139
 7231TIP3    H121657   5.499   3.647   0.434 -0.3162 -0.0198 -2.5961
 7231TIP3    H221658   5.349   3.652   0.451 -0.0775  0.9815 -0.3126
 7232TIP3   OH221659   3.637   2.503   4.599  0.3303 -0.1113  0.4652
 7232TIP3    H121660   3.551   2.533   4.570  0.0617 -1.5309 -0.2723
 7232TIP3    H221661   3.697   2.531   4.529 -0.1189 -2.3391 -0.9146
 7233TIP3   OH221662   1.332   3.881   2.630  0.3383 -0.4608  0.0960
 7233TIP3    H121663   1.275   3.837   2.693  0.7905 -1.2937 -0.0502
 7233TIP3    H221664   1.288   3.963   2.610 -1.3759 -1.5452 -0.8618
 7234TIP3   OH221665   6.819   1.902   0.805  0.5002  0.6125 -0.3052
 7234TIP3    H121666   6.762   1.892   0.881  2.4927 -0.1136  1.1828
 7234TIP3    H221667   6.766   1.874   0.731 -1.6143  1.6599  0.7400
 7235TIP3   OH221668   5.546   3.308   5.335  0.1325 -0.2901 -0.3404
 7235TIP3    H121669   5.567   3.318   5.428  1.9389 -0.8505 -0.6637
 7235TIP3    H221670   5.588   3.383   5.292 -1.1234  0.2573 -0.6858
 7236TIP3   OH221671   4.557   1.881   3.027  0.1936  0.7229  0.6422
 7236TIP3    H121672   4.480   1.936   3.038 -2.2937 -1.8666 -2.1036
 7236TIP3    H221673   4.592   1.906   2.941 -0.9943 -1.7423 -0.6689
 7237TIP3   OH221674   5.302   2.378   4.059  0.1697  0.3014 -0.3097
 7237TIP3    H121675   5.397   2.373   4.057  0.3012  2.1237 -1.0034
 7237TIP3    H221676   5.278   2.416   3.975 -1.0718  0.9853  0.3152
 7238TIP3   OH221677   6.100   3.694   5.660 -0.6535 -0.1185 -0.3456
 7238TIP3    H121678   6.010   3.710   5.689 -0.9328 -0.8228 -0.7981
 7238TIP3    H221679   6.149   3.676   5.740 -0.3055  2.8103  0.2370
 7239TIP3   OH221680   5.762   6.316   2.724  0.1489  0.1443 -0.2126
 7239TIP3    H121681   5.723   6.248   2.668 -1.5774 -0.1285  1.2402
 7239TIP3    H221682   5.743   6.398   2.679  1.2768 -0.2250 -1.4231
 7240TIP3   OH221683   3.856   1.780   0.907 -0.3050  0.1104  0.2220
 7240TIP3    H121684   3.852   1.854   0.968 -1.3263 -0.4805  0.9006
 7240TIP3    H221685   3.839   1.703   0.961  1.2190 -0.6951 -0.3827
 7241TIP3   OH221686   1.339   4.644   2.255 -0.0132 -0.2087 -0.2115
 7241TIP3    H121687   1.381   4.695   2.324 -0.1564 -0.7414  0.2747
 7241TIP3    H221688   1.397   4.652   2.180  1.1447 -1.2294  0.5508
 7242TIP3   OH221689   3.726   5.050   5.846  0.7400 -0.1011 -0.4266
 7242TIP3    H121690   3.805   5.054   5.792  3.0721 -0.2778  2.7226
 7242TIP3    H221691   3.703   4.957   5.847  1.1168 -0.1982 -0.5096
 7243TIP3   OH221692   2.989   6.312   1.836  0.3314  0.4733 -0.0093
 7243TIP3    H121693   2.930   6.382   1.866  0.1716 -0.4923  2.1501
 7243TIP3    H221694   2.973   6.240   1.897  0.5625 -1.4500 -2.0877
 7244TIP3   OH221695   2.338   4.248   4.768  0.0865  0.1857 -0.7737
 7244TIP3    H121696   2.276   4.300   4.716  1.1676  1.2302 -1.0623
 7244TIP3    H221697   2.290   4.229   4.849 -1.3461 -0.8300 -1.8094
 7245TIP3   OH221698   1.658   5.505   3.553 -0.2518  0.3035  0.1779
 7245TIP3    H121699   1.706   5.427   3.582 -0.6981 -0.5750 -1.2891
 7245TIP3    H221700   1.718   5.577   3.567  0.4204 -0.3945  0.9972
 7246TIP3   OH221701   4.766   6.667   5.851 -0.1075 -0.3279  0.1004
 7246TIP3    H121702   4.750   6.657   5.945  0.3345 -2.8028 -0.0187
 7246TIP3    H221703   4.809   6.585   5.825  1.7254  1.1328 -1.8709
 7247TIP3   OH221704   2.642   1.645   1.343 -0.0398 -0.0022 -0.0732
 7247TIP3    H121705   2.638   1.732   1.305  0.8232 -0.4095 -1.1751
 7247TIP3    H221706   2.579   1.593   1.293 -0.2561 -0.1092  0.3048
 7248TIP3   OH221707   1.393   0.530   1.335 -0.2312 -0.1141  0.2074
 7248TIP3    H121708   1.312   0.483   1.351 -0.6049  0.1097 -0.9300
 7248TIP3    H221709   1.377   0.618   1.370 -2.0734  1.2593 -3.5134
 7249TIP3   OH221710   7.118   3.664   3.326 -0.1016  0.8712 -0.0180
 7249TIP3    H121711   7.091   3.704   3.408 -0.1707  1.1861 -0.1914
 7249TIP3    H221712   7.206   3.697   3.310 -0.7540  2.2633 -0.9716
 7250TIP3   OH221713   2.038   5.268   2.862 -0.4082  1.1341 -0.2795
 7250TIP3    H121714   2.054   5.175   2.877  0.1482  1.0983 -1.0061
 7250TIP3    H221715   2.056   5.309   2.946  0.3969  0.7010 -0.2292
 7251TIP3   OH221716   2.926   5.836   4.052 -0.6327 -0.0725  0.2890
 7251TIP3    H121717   2.953   5.816   3.962 -1.7122 -1.0521  0.1634
 7251TIP3    H221718   3.005   5.871   4.094  0.1384 -0.5281 -0.7548
 7252TIP3   OH221719   6.287   6.163   1.776  0.1474 -0.0551  0.5094
 7252TIP3    H121720   6.244   6.080   1.756 -1.0307  0.6239  0.1426
 7252TIP3    H221721   6.257   6.187   1.863  2.0917 -0.9908  1.4923
 7253TIP3   OH221722   0.648   0.993   4.521  0.0687 -0.4560  0.0998
 7253TIP3    H121723   0.617   1.029   4.438 -1.2433  1.3775  1.3148
 7253TIP3    H221724   0.568   0.984   4.574  1.2602  3.0657  2.8672
 7254TIP3   OH221725   4.398   5.115   1.346 -0.3590 -0.1766  0.0464
 7254TIP3    H121726   4.317   5.154   1.315  0.0817 -0.4713 -1.5967
 7254TIP3    H221727   4.410   5.038   1.290  1.1771  0.0141  0.0708
 7255TIP3   OH221728   0.119   0.870   2.331 -0.7388 -0.2128 -0.7974
 7255TIP3    H121729   0.158   0.804   2.274 -0.8755 -0.9639 -0.0419
 7255TIP3    H221730   0.127   0.952   2.282  1.9000 -0.3057 -0.6145
 7256TIP3   OH221731   5.421   2.804   5.833 -0.5536 -0.1936 -0.0866
 7256TIP3    H121732   5.413   2.788   5.927 -0.2518  0.3086  0.0254
 7256TIP3    H221733   5.338   2.846   5.809  0.0081  1.1833  0.2788
 7257TIP3   OH221734   5.379   5.685   3.343  0.6861  0.4240  0.3184
 7257TIP3    H121735   5.463   5.667   3.301  1.5507 -0.1161  2.1590
 7257TIP3    H221736   5.330   5.603   3.336  0.7779  0.3729  0.2847
 7258TIP3   OH221737   2.029   5.050   2.514 -0.5747 -0.0839  0.1370
 7258TIP3    H121738   2.009   5.133   2.557  0.8218 -0.5167  1.7369
 7258TIP3    H221739   1.955   4.993   2.537  0.6173 -0.6231  3.0018
 7259TIP3   OH221740   0.772   2.016   2.167  0.8840  0.2441 -0.1913
 7259TIP3    H121741   0.753   2.102   2.129 -2.3534 -0.1182  0.3246
 7259TIP3    H221742   0.737   2.020   2.256  2.1798 -1.1056  0.4276
 7260TIP3   OH221743   6.081   4.686   3.379 -0.4127  0.4480 -0.9788
 7260TIP3    H121744   6.062   4.778   3.397  0.3409  1.0078 -2.8433
 7260TIP3    H221745   6.129   4.656   3.456 -0.1932  1.7603 -0.5828
 7261TIP3   OH221746   2.304   1.953   0.743 -0.5945  0.3782  0.0022
 7261TIP3    H121747   2.360   2.025   0.773  1.2073  0.1279 -2.4451
 7261TIP3    H221748   2.282   1.976   0.653 -0.7506 -1.6763 -0.5293
 7262TIP3   OH221749   6.982   0.987   4.263  0.3190  0.2555 -0.1079
 7262TIP3    H121750   6.988   1.081   4.248  2.7034  0.3756  1.0842
 7262TIP3    H221751   7.021   0.974   4.350  1.7854 -1.9907 -0.9992
 7263TIP3   OH221752   3.729   1.363   4.358 -0.3681  0.7571 -0.2704
 7263TIP3    H121753   3.647   1.409   4.337 -0.5937  0.5190  0.0685
 7263TIP3    H221754   3.749   1.390   4.448 -0.3612  0.4062 -0.1633
 7264TIP3   OH221755   1.343   5.949   3.937  0.1987 -0.2700  0.0966
 7264TIP3    H121756   1.337   6.044   3.935 -1.2429 -0.3512 -0.9968
 7264TIP3    H221757   1.310   5.925   4.023  2.0205  0.2638  0.9869
 7265TIP3   OH221758   3.812   6.670   3.168 -0.0949 -0.2923 -0.2718
 7265TIP3    H121759   3.906   6.663   3.153 -0.0630  2.0440 -1.6755
 7265TIP3    H221760   3.777   6.587   3.139  1.6337 -1.9328  1.9491
 7266TIP3   OH221761   0.110   1.229   1.327  0.8090 -0.2317 -0.0268
 7266TIP3    H121762   0.173   1.253   1.258 -1.4199  0.0017 -2.1105
 7266TIP3    H221763   0.097   1.135   1.315 -1.6227  0.2628 -1.8323
 7267TIP3   OH221764   0.641   5.035   3.547 -0.3683 -0.0922 -0.2396
 7267TIP3    H121765   0.662   4.995   3.462  0.5805  2.1334 -1.1348
 7267TIP3    H221766   0.706   4.998   3.607 -0.1245 -0.6190 -0.8126
 7268TIP3   OH221767   4.968   6.730   2.115 -0.3579  0.0900  0.8785
 7268TIP3    H121768   4.945   6.822   2.100  0.2102  0.1025  0.0070
 7268TIP3    H221769   4.945   6.714   2.206  2.0370  1.8713  1.8914
 7269TIP3   OH221770   2.629   1.946   3.352 -0.9156  0.3677 -0.1369
 7269TIP3    H121771   2.694   1.880   3.328 -1.9928 -0.5053 -0.7365
 7269TIP3    H221772   2.636   2.013   3.284 -0.4720  0.4106 -0.0515
 7270TIP3   OH221773   0.206   6.055   2.844 -0.4536  0.2198  0.6018
 7270TIP3    H121774   0.301   6.041   2.839 -0.5126 -0.4164  1.0666
 7270TIP3    H221775   0.169   5.970   2.820 -0.9362  0.7054 -0.4608
 7271TIP3   OH221776   1.105   2.168   3.790 -0.5283  0.1963 -0.2392
 7271TIP3    H121777   1.125   2.092   3.735 -0.6910  0.1530 -0.2371
 7271TIP3    H221778   1.019   2.150   3.826  0.8902 -1.3315  2.7031
 7272TIP3   OH221779   5.152   2.293   1.014  0.3225 -0.1371 -0.4801
 7272TIP3    H121780   5.152   2.329   0.925  2.1866  1.1676 -0.0139
 7272TIP3    H221781   5.177   2.367   1.069 -1.7215 -0.6717  1.2959
 7273TIP3   OH221782   0.347   4.792   3.584 -0.0870 -0.5877 -0.3934
 7273TIP3    H121783   0.327   4.725   3.650  0.1538  1.4091  1.8432
 7273TIP3    H221784   0.418   4.843   3.622 -0.5373  1.2178 -1.8217
 7274TIP3   OH221785   5.728   0.826   0.489 -0.4351  0.4832 -0.2275
 7274TIP3    H121786   5.744   0.896   0.554 -2.9004 -0.3960  1.4787
 7274TIP3    H221787   5.687   0.871   0.416 -1.6853  0.9305  0.7130
 7275TIP3   OH221788   7.001   4.458   2.609 -0.3156  0.5076 -0.5940
 7275TIP3    H121789   7.031   4.384   2.661  0.3779 -0.9822 -2.9613
 7275TIP3    H221790   6.923   4.489   2.655 -0.3923 -1.4168  0.7056
 7276TIP3   OH221791   0.881   6.348   5.727  0.5126  0.1912 -0.3130
 7276TIP3    H121792   0.857   6.441   5.732  1.0918  0.3379 -0.1727
 7276TIP3    H221793   0.798   6.302   5.727  0.2265  0.6962 -0.0052
 7277TIP3   OH221794   6.672   1.342   0.583 -0.3301  0.5501  0.4829
 7277TIP3    H121795   6.740   1.302   0.637 -0.4611 -0.2492  0.0773
 7277TIP3    H221796   6.671   1.289   0.503  0.7467  2.4565 -0.8825
 7278TIP3   OH221797   1.975   5.891   1.067  0.3775  0.5392  0.2537
 7278TIP3    H121798   1.979   5.982   1.096  2.4503 -0.0436  2.0739
 7278TIP3    H221799   2.006   5.893   0.977  1.9107  1.5255  0.7499
 7279TIP3   OH221800   2.654   3.469   2.385  0.0732 -0.5709  0.3577
 7279TIP3    H121801   2.685   3.481   2.474  0.4423 -0.8356  0.2665
 7279TIP3    H221802   2.583   3.405   2.393  1.5695 -2.3357  0.2083
 7280TIP3   OH221803   0.892   3.938   2.526 -1.1971  0.2733  0.4518
 7280TIP3    H121804   0.850   3.995   2.591  0.8674 -0.0008  2.1253
 7280TIP3    H221805   0.963   3.992   2.489 -0.8091 -0.3874  0.2161
 7281TIP3   OH221806   5.255   6.150   5.881 -0.6399 -0.1293  0.1244
 7281TIP3    H121807   5.268   6.218   5.815 -2.7262 -0.4380 -0.6741
 7281TIP3    H221808   5.307   6.076   5.849  1.4467  0.9375  0.8745
 7282TIP3   OH221809   4.468   4.538   0.711  0.6703  0.1065  0.1610
 7282TIP3    H121810   4.466   4.631   0.730  0.9783 -0.2959  2.4590
 7282TIP3    H221811   4.508   4.498   0.788  0.2713 -1.9608 -0.6191
 7283TIP3   OH221812   3.561   2.176   1.882  0.1600  0.3978 -0.1493
 7283TIP3    H121813   3.630   2.239   1.863  0.2488  0.8113  1.4139
 7283TIP3    H221814   3.485   2.209   1.836  0.8553  0.1903 -1.5100
 7284TIP3   OH221815   1.832   2.264   0.187  0.8525  0.1606  0.1407
 7284TIP3    H121816   1.806   2.177   0.215  0.3417  0.7719  1.7023
 7284TIP3    H221817   1.750   2.310   0.171  1.1221  0.0068 -1.9765
 7285TIP3   OH221818   6.224   1.550   1.890  0.0060 -0.0036 -0.5840
 7285TIP3    H121819   6.207   1.594   1.807 -1.3521 -2.7453 -1.8941
 7285TIP3    H221820   6.137   1.527   1.923  0.5808  0.0418  1.0585
 7286TIP3   OH221821   6.814   2.754   4.342  0.7213 -0.1762 -0.5002
 7286TIP3    H121822   6.908   2.763   4.329  0.9587 -0.1388  1.0806
 7286TIP3    H221823   6.802   2.666   4.376  0.0680 -0.4969 -1.5028
 7287TIP3   OH221824   5.884   5.713   1.695 -0.8332 -0.7512 -0.4498
 7287TIP3    H121825   5.874   5.800   1.734  0.1724  0.1198 -1.9941
 7287TIP3    H221826   5.843   5.653   1.757 -1.3098  0.7967  0.7872
 7288TIP3   OH221827   2.610   2.385   3.975  0.0269  0.2649 -0.1069
 7288TIP3    H121828   2.540   2.449   3.973 -0.1368  0.1008  0.3634
 7288TIP3    H221829   2.566   2.300   3.969  0.2512  0.1939 -0.9345
 7289TIP3   OH221830   0.960   6.650   4.297 -0.0433  0.1163  0.0935
 7289TIP3    H121831   0.985   6.606   4.215  0.6103  0.7802 -0.0749
 7289TIP3    H221832   0.866   6.662   4.290  0.0123  0.2255 -0.6020
 7290TIP3   OH221833   5.011   5.252   0.652  0.2958 -0.1189 -0.0477
 7290TIP3    H121834   4.921   5.277   0.673 -0.8019 -3.5296 -0.0685
 7290TIP3    H221835   5.040   5.202   0.728  1.3375 -0.9312 -0.9553
 7291TIP3   OH221836   3.690   5.802   3.819  0.5452 -0.2108  0.5303
 7291TIP3    H121837   3.757   5.865   3.844  0.8061 -0.4322  0.3912
 7291TIP3    H221838   3.666   5.758   3.901 -0.5951  0.9752  0.8734
 7292TIP3   OH221839   6.218   2.445   3.085 -0.1648  0.4683 -0.2351
 7292TIP3    H121840   6.275   2.485   3.020 -0.5154  1.8306  0.2783
 7292TIP3    H221841   6.277   2.390   3.137  0.4327  0.7784 -0.5670
 7293TIP3   OH221842   6.959   3.014   4.608  0.1552 -0.2288 -0.0731
 7293TIP3    H121843   6.953   3.096   4.557  2.5852  0.8110  1.1597
 7293TIP3    H221844   6.870   2.980   4.608 -0.5743  1.4165 -2.2495
 7294TIP3   OH221845   5.226   2.072   1.162  0.3646 -0.1017 -0.1085
 7294TIP3    H121846   5.210   2.147   1.105 -0.6537  0.2096  0.5599
 7294TIP3    H221847   5.306   2.095   1.209 -1.7082  2.2680  2.6653
 7295TIP3   OH221848   2.474   3.813   0.850 -0.0449  0.1069 -0.1507
 7295TIP3    H121849   2.511   3.900   0.870 -0.1290  0.0811  0.1186
 7295TIP3    H221850   2.440   3.782   0.934  0.1722 -0.2781 -0.2056
 7296TIP3   OH221851   2.933   1.461   0.174 -0.3225  0.8936 -0.5246
 7296TIP3    H121852   2.884   1.521   0.118 -0.8905  0.5325 -0.4276
 7296TIP3    H221853   2.888   1.465   0.259  0.9597  1.9744  0.1341
 7297TIP3   OH221854   1.583   4.765   3.924  0.5236 -0.0384  0.3324
 7297TIP3    H121855   1.616   4.694   3.980  1.4294 -0.4497 -0.6837
 7297TIP3    H221856   1.488   4.755   3.927  0.6191 -1.0946  0.4766
 7298TIP3   OH221857   5.133   3.233   5.086 -0.1922 -0.1891  0.1395
 7298TIP3    H121858   5.188   3.258   5.161 -0.3600 -0.9002  0.5170
 7298TIP3    H221859   5.047   3.269   5.107 -0.3556 -0.7793  0.5290
 7299TIP3   OH221860   3.241   1.597   2.924  0.1247 -0.1411  0.6932
 7299TIP3    H121861   3.331   1.564   2.925 -0.6971 -2.5702  1.0178
 7299TIP3    H221862   3.249   1.688   2.897  2.8337  0.2375  2.3894
 7300TIP3   OH221863   2.413   1.536   2.970  0.0294  0.2303  0.5764
 7300TIP3    H121864   2.437   1.445   2.955  1.2524  0.3414  1.6837
 7300TIP3    H221865   2.470   1.586   2.911  1.4538  0.4051  2.0359
 7301TIP3   OH221866   2.891   2.990   2.464  0.3486 -0.6363  0.0656
 7301TIP3    H121867   2.896   3.062   2.527  0.5617 -0.5122 -0.0919
 7301TIP3    H221868   2.941   3.021   2.388  0.7096 -1.0706  0.1194
 7302TIP3   OH221869   3.826   5.595   2.868 -0.6582 -0.1684  0.6102
 7302TIP3    H121870   3.745   5.632   2.834 -0.4519 -0.4639 -0.2301
 7302TIP3    H221871   3.839   5.515   2.817  0.6439  0.3552  0.0784
 7303TIP3   OH221872   6.064   1.134   2.024 -0.8411  0.3152  0.6206
 7303TIP3    H121873   6.077   1.109   2.116 -2.7372 -0.7657  0.6431
 7303TIP3    H221874   5.970   1.147   2.015 -0.7291  0.1724 -1.2408
 7304TIP3   OH221875   6.195   1.940   0.430  0.0943 -0.7314 -0.2030
 7304TIP3    H121876   6.119   1.946   0.488 -0.6249 -1.7124 -0.9937
 7304TIP3    H221877   6.167   1.983   0.349  0.0193 -1.9223 -0.8304
 7305TIP3   OH221878   6.703   3.854   1.623  0.0862  0.2878  0.1222
 7305TIP3    H121879   6.750   3.931   1.591 -0.0071 -0.1701 -1.1453
 7305TIP3    H221880   6.770   3.786   1.627 -0.1132  0.0836 -0.0381
 7306TIP3   OH221881   0.429   2.313   5.009  0.3368 -0.6800  0.0416
 7306TIP3    H121882   0.380   2.392   4.987  0.0943 -1.0622 -0.8481
 7306TIP3    H221883   0.363   2.244   5.016  0.4147 -0.6112  1.9641
 7307TIP3   OH221884   1.663   6.611   5.387 -0.3681  0.4009  0.1457
 7307TIP3    H121885   1.720   6.650   5.454  0.9803 -2.7574  1.0134
 7307TIP3    H221886   1.707   6.628   5.304  1.1187 -0.6503  0.6714
 7308TIP3   OH221887   6.367   2.270   1.712 -0.3102  0.7817  0.0206
 7308TIP3    H121888   6.413   2.296   1.633 -0.3967  2.2536  0.4292
 7308TIP3    H221889   6.279   2.246   1.682  0.1165 -0.2057 -0.5065
 7309TIP3   OH221890   4.808   4.958   3.164  0.0852  0.3659  0.3171
 7309TIP3    H121891   4.796   4.864   3.153  2.8498  0.1892 -2.6335
 7309TIP3    H221892   4.724   4.996   3.140 -0.5733 -1.2898 -0.1253
 7310TIP3   OH221893   6.593   2.281   3.558  0.0700 -0.1529  0.3890
 7310TIP3    H121894   6.518   2.323   3.516 -0.5716  0.6838  2.2530
 7310TIP3    H221895   6.603   2.328   3.641  1.8904 -1.0725  0.7310
 7311TIP3   OH221896   3.978   1.755   5.757  0.0179  0.2719  0.6576
 7311TIP3    H121897   4.032   1.771   5.680  1.3573  1.6893  1.8190
 7311TIP3    H221898   4.019   1.680   5.801 -1.2192 -1.0656 -0.3543
 7312TIP3   OH221899   1.842   5.114   0.416 -0.0174  0.5485 -0.2809
 7312TIP3    H121900   1.879   5.122   0.503 -2.6363  0.9412  0.8988
 7312TIP3    H221901   1.777   5.044   0.424  0.5436 -0.2868 -2.2851
 7313TIP3   OH221902   7.029   3.253   0.052 -0.0497 -0.1122  0.4819
 7313TIP3    H121903   6.955   3.214   0.006  1.8354 -2.5217 -0.7460
 7313TIP3    H221904   7.080   3.296  -0.016 -0.2300  1.5014  1.3141
 7314TIP3   OH221905   4.243   4.262   4.277 -0.1131 -0.5519 -0.8400
 7314TIP3    H121906   4.155   4.229   4.260 -0.2871  0.0808 -1.1590
 7314TIP3    H221907   4.283   4.271   4.191 -0.1550  0.3251 -0.7671
 7315TIP3   OH221908   0.247   6.533   5.021  0.0246  0.0440  0.3289
 7315TIP3    H121909   0.258   6.607   4.962  1.3046 -0.6333 -0.3034
 7315TIP3    H221910   0.246   6.572   5.109 -0.8606  0.9435 -0.0681
 7316TIP3   OH221911   5.873   1.426   5.646  0.3226 -0.4183  0.5188
 7316TIP3    H121912   5.952   1.478   5.658 -0.4567  1.0041 -0.2735
 7316TIP3    H221913   5.872   1.365   5.720  0.7980  1.3090  1.9928
 7317TIP3   OH221914   3.981   5.465   4.754  0.7196 -0.2179 -0.3551
 7317TIP3    H121915   3.943   5.547   4.784  1.2832 -0.0350 -0.1270
 7317TIP3    H221916   4.014   5.424   4.834 -1.7235 -1.8336 -0.0660
 7318TIP3   OH221917   3.631   4.358   4.551  0.1851  0.0443 -0.0986
 7318TIP3    H121918   3.646   4.434   4.606 -1.8007  0.1160  0.4260
 7318TIP3    H221919   3.634   4.392   4.461  0.5415  0.4863  0.0778
 7319TIP3   OH221920   7.025   4.529   0.174 -0.2566 -0.0373  0.2868
 7319TIP3    H121921   6.938   4.567   0.183 -0.3556 -0.0476 -0.5545
 7319TIP3    H221922   7.060   4.567   0.094 -0.5011 -1.9578 -0.7771
 7320TIP3   OH221923   7.172   5.999   1.611  0.7022 -0.0763  0.3552
 7320TIP3    H121924   7.141   5.909   1.620  2.3523 -0.5483  1.9883
 7320TIP3    H221925   7.141   6.027   1.525 -1.9901 -1.3101  0.8179
 7321TIP3   OH221926   0.202   4.669   4.432 -0.0564 -0.9181  0.1614
 7321TIP3    H121927   0.209   4.579   4.400  1.9983 -0.9673  0.6343
 7321TIP3    H221928   0.190   4.722   4.353  2.5774 -1.2691 -0.5643
 7322TIP3   OH221929   0.196   3.198   5.267 -0.2466  0.3774  0.2602
 7322TIP3    H121930   0.287   3.168   5.271  0.1615  1.5785  0.3903
 7322TIP3    H221931   0.196   3.281   5.313 -0.9783  1.3907 -1.4728
 7323TIP3   OH221932   2.170   2.088   4.641  0.6997 -0.3796 -0.5144
 7323TIP3    H121933   2.148   2.092   4.734  1.0821  0.0247 -0.4430
 7323TIP3    H221934   2.213   2.171   4.622  2.0112 -1.0815 -0.7033
 7324TIP3   OH221935   3.723   3.751   4.371 -0.8013  0.1779  0.0539
 7324TIP3    H121936   3.675   3.733   4.451 -1.8374  1.0357 -0.3482
 7324TIP3    H221937   3.814   3.763   4.399 -1.0853  0.1003  1.0369
 7325TIP3   OH221938   5.527   0.546   1.487 -0.0601  0.1610  0.4288
 7325TIP3    H121939   5.581   0.620   1.462  2.2901 -1.4541  0.3532
 7325TIP3    H221940   5.560   0.473   1.435 -0.9665 -1.3635  1.8676
 7326TIP3   OH221941   3.917   1.604   1.468  0.3261 -0.0536 -0.3970
 7326TIP3    H121942   3.973   1.629   1.541 -0.5724 -0.9534  0.6389
 7326TIP3    H221943   3.831   1.642   1.490 -0.1830 -1.1185 -0.5012
 7327TIP3   OH221944   6.410   1.317   1.889  0.3889  0.4174  0.6824
 7327TIP3    H121945   6.324   1.358   1.890  0.6903  1.1195  2.7262
 7327TIP3    H221946   6.460   1.368   1.825 -0.7260 -0.1452 -0.7013
 7328TIP3   OH221947   3.923   3.100   2.250 -0.2327  0.4509  0.4836
 7328TIP3    H121948   3.868   3.028   2.281  0.1415 -0.5567 -1.0960
 7328TIP3    H221949   3.864   3.154   2.197  0.3671 -1.0893 -1.9238
 7329TIP3   OH221950   0.467   2.655   1.737  0.5051  0.0222 -0.4441
 7329TIP3    H121951   0.499   2.697   1.817 -0.2175  2.8425 -1.4826
 7329TIP3    H221952   0.443   2.567   1.763 -0.7572  1.1669  2.7540
 7330TIP3   OH221953   3.350   3.588   1.642 -0.2381 -0.4273  0.4782
 7330TIP3    H121954   3.424   3.630   1.686  0.2208 -1.1986  0.4745
 7330TIP3    H221955   3.306   3.538   1.711 -2.5929  2.3421  1.1853
 7331TIP3   OH221956   0.665   6.216   1.263  0.3366  0.0068  0.4317
 7331TIP3    H121957   0.687   6.152   1.195  0.4489  0.2635  0.2208
 7331TIP3    H221958   0.745   6.267   1.274  0.2467  0.1115  0.5946
 7332TIP3   OH221959   2.704   1.242   5.529 -0.2091  0.5005  0.4389
 7332TIP3    H121960   2.727   1.176   5.596  1.1398  0.7076  0.2163
 7332TIP3    H221961   2.653   1.307   5.576  0.5135  0.5150  1.2314
 7333TIP3   OH221962   6.616   0.949   5.467  0.0013  0.4261  0.1002
 7333TIP3    H121963   6.710   0.967   5.474  0.2149  0.1635 -1.7596
 7333TIP3    H221964   6.610   0.854   5.460 -0.3654  0.4831 -0.3674
 7334TIP3   OH221965   1.539   0.472   1.991 -0.6542 -0.6060 -0.4747
 7334TIP3    H121966   1.633   0.455   1.992  0.3255  3.6617 -0.3944
 7334TIP3    H221967   1.515   0.471   1.898 -0.7395 -2.2541 -0.4666
 7335TIP3   OH221968   3.098   1.062   0.045 -0.0856  0.4045 -0.4582
 7335TIP3    H121969   3.033   1.130   0.030  0.3693  1.3583  1.5161
 7335TIP3    H221970   3.047   0.987   0.076 -0.3753  0.7246 -0.1452
 7336TIP3   OH221971   0.563   0.334   1.673 -0.4253 -0.3763  0.7350
 7336TIP3    H121972   0.591   0.401   1.610  0.1200 -2.4193 -1.3426
 7336TIP3    H221973   0.640   0.316   1.726 -0.1781 -0.2786  0.4121
 7337TIP3   OH221974   1.534   3.437   5.070  0.5970  0.0470 -0.3377
 7337TIP3    H121975   1.533   3.355   5.119 -1.1051  0.8156  1.0214
 7337TIP3    H221976   1.594   3.494   5.118  1.9790 -0.4265 -1.4241
 7338TIP3   OH221977   1.403   3.260   5.641  0.0774  0.1563 -0.2785
 7338TIP3    H121978   1.367   3.181   5.600 -0.7439  0.7505 -0.7302
 7338TIP3    H221979   1.495   3.261   5.615 -0.2897  0.2272 -1.6834
 7339TIP3   OH221980   5.884   0.925   1.948 -0.3797  0.6767 -0.1943
 7339TIP3    H121981   5.935   0.860   1.899 -0.8577 -1.6519  2.1417
 7339TIP3    H221982   5.883   1.002   1.892 -0.5043 -1.5703 -3.5665
 7340TIP3   OH221983   3.247   0.308   3.218  0.1085  0.1186 -0.4828
 7340TIP3    H121984   3.244   0.403   3.220  1.3582  0.1575 -0.1165
 7340TIP3    H221985   3.321   0.284   3.274 -1.3781 -1.1497  1.0557
 7341TIP3   OH221986   5.522   3.065   0.860 -0.4205  0.6028 -0.7216
 7341TIP3    H121987   5.524   2.970   0.853  1.4305  0.5810 -0.4204
 7341TIP3    H221988   5.462   3.083   0.933 -0.6324 -0.3228 -0.6538
 7342TIP3   OH221989   5.049   4.020   1.399  0.3224 -0.7141  0.4659
 7342TIP3    H121990   5.027   4.039   1.308 -0.4524 -0.0125  0.7836
 7342TIP3    H221991   5.139   4.050   1.409  0.1421 -0.0446  0.1386
 7343TIP3   OH221992   0.917   4.954   1.457  0.2683  0.4959  0.3781
 7343TIP3    H121993   0.993   5.009   1.440 -0.0476  0.6650 -0.5237
 7343TIP3    H221994   0.842   5.008   1.431 -0.0200 -0.5403 -1.0619
 7344TIP3   OH221995   6.465   1.855   4.620  0.4771 -0.6679  0.3895
 7344TIP3    H121996   6.386   1.871   4.671 -2.3001 -1.1414 -3.3413
 7344TIP3    H221997   6.470   1.928   4.559  1.2250 -2.0891 -1.3331
 7345TIP3   OH221998   0.060   4.646   1.878  0.4075 -0.2959  0.9603
 7345TIP3    H121999   0.039   4.729   1.921  0.1627 -0.8964  2.0180
 7345TIP3    H222000  -0.024   4.615   1.844  0.4920 -0.1383  0.6009
 7346TIP3   OH222001   5.457   2.118   0.898 -0.4607 -0.3615  0.2170
 7346TIP3    H122002   5.462   2.032   0.857 -0.5410 -0.2057 -0.1287
 7346TIP3    H222003   5.392   2.165   0.846  1.2588  0.6980 -1.0907
 7347TIP3   OH222004   2.163   2.596   3.549 -0.4714  0.0609 -0.2447
 7347TIP3    H122005   2.195   2.549   3.627 -1.0502  0.3484  0.1719
 7347TIP3    H222006   2.235   2.654   3.526  0.4286 -1.3107 -1.0230
 7348TIP3   OH222007   2.598   3.700   4.131  0.3955 -0.0147  0.5730
 7348TIP3    H122008   2.619   3.724   4.222 -2.1275 -1.3012  1.6035
 7348TIP3    H222009   2.509   3.733   4.119  0.4366 -0.4945 -1.2305
 7349TIP3   OH222010   0.512   2.453   4.773  0.7506  0.0617  0.0250
 7349TIP3    H122011   0.490   2.472   4.865 -1.1541 -0.2133 -0.3442
 7349TIP3    H222012   0.556   2.533   4.742  2.3873 -0.2271  1.4334
 7350TIP3   OH222013   4.254   2.347   4.300 -0.3577 -0.1970  0.2942
 7350TIP3    H122014   4.199   2.274   4.272 -1.6220  0.7903  0.1187
 7350TIP3    H222015   4.194   2.405   4.346  0.8051  0.3312  1.1906
 7351TIP3   OH222016   2.644   4.930   2.221  0.1928 -0.3105  0.0598
 7351TIP3    H122017   2.707   4.941   2.149  1.4821 -0.5049  1.1068
 7351TIP3    H222018   2.665   5.001   2.282 -1.6708  0.5789 -0.2715
 7352TIP3   OH222019   5.779   3.916   3.404  0.1673 -0.1825  0.1999
 7352TIP3    H122020   5.854   3.944   3.352 -0.4200 -0.9385 -1.0968
 7352TIP3    H222021   5.712   3.983   3.388  0.7517  0.8434  1.8707
 7353TIP3   OH222022   3.747   5.964   5.315  0.4364 -0.1990  0.4816
 7353TIP3    H122023   3.752   6.053   5.281  0.3659 -0.7135 -0.9456
 7353TIP3    H222024   3.657   5.956   5.347 -0.5598 -0.6899 -2.2186
 7354TIP3   OH222025   0.960   4.859   2.778  0.2936 -0.3804  0.2362
 7354TIP3    H122026   0.902   4.834   2.705  0.3114  0.7354 -0.1669
 7354TIP3    H222027   1.016   4.782   2.790  1.9533  0.2642 -2.5556
 7355TIP3   OH222028   2.148   4.397   1.555 -0.2998  0.3572 -0.1744
 7355TIP3    H122029   2.210   4.338   1.512 -0.9464  0.2361 -0.9695
 7355TIP3    H222030   2.202   4.447   1.616  0.7158  0.6801 -1.2768
 7356TIP3   OH222031   0.836   5.514   2.908 -0.1562  0.3792 -0.1497
 7356TIP3    H122032   0.928   5.487   2.900 -0.6429 -0.8711 -2.3721
 7356TIP3    H222033   0.829   5.550   2.997  2.3562  0.0848  0.2397
 7357TIP3   OH222034   2.394   3.966   5.530 -0.0688  0.2710 -0.3051
 7357TIP3    H122035   2.489   3.953   5.531 -0.3263 -2.5436 -1.3246
 7357TIP3    H222036   2.373   3.978   5.438 -0.7052  0.8510 -0.0876
 7358TIP3   OH222037   4.361   2.901   4.230 -0.4005 -0.4260  0.5451
 7358TIP3    H122038   4.326   2.928   4.315 -0.2536 -0.0400  0.4878
 7358TIP3    H222039   4.425   2.969   4.208 -1.2517  0.1068 -0.3858
 7359TIP3   OH222040   1.598   5.071   3.728  0.3611  0.3648  0.5426
 7359TIP3    H122041   1.580   5.145   3.669  1.0896 -0.4835 -0.7851
 7359TIP3    H222042   1.521   5.068   3.785 -0.2424  1.4000 -0.1685
 7360TIP3   OH222043   0.698   1.669   0.366 -0.2420 -0.2275  0.6636
 7360TIP3    H122044   0.763   1.739   0.366 -0.7317  0.2354  0.9508
 7360TIP3    H222045   0.733   1.603   0.306 -0.6673  1.0897 -1.1211
 7361TIP3   OH222046   3.186   5.942   4.172  0.2041  0.2965 -0.1739
 7361TIP3    H122047   3.278   5.970   4.171  1.1977 -2.4245 -2.8106
 7361TIP3    H222048   3.184   5.870   4.235  0.1266 -0.1072 -0.6197
 7362TIP3   OH222049   3.187   2.587   3.999  0.2206 -0.0083 -0.0324
 7362TIP3    H122050   3.124   2.639   3.949  0.8162  0.0583 -0.7293
 7362TIP3    H222051   3.243   2.547   3.933  1.2515  0.3594  0.5909
 7363TIP3   OH222052   4.508   1.647   1.066  0.5758 -0.2947 -0.2411
 7363TIP3    H122053   4.449   1.666   1.138  2.2387  0.8483  0.8935
 7363TIP3    H222054   4.478   1.703   0.995 -1.5327 -1.9599 -0.7788
 7364TIP3   OH222055   0.802   1.297   3.505  0.1163  0.2390 -0.4486
 7364TIP3    H122056   0.710   1.292   3.479 -0.1551 -0.3490  0.5727
 7364TIP3    H222057   0.851   1.291   3.423 -0.6931 -1.8226 -0.8497
 7365TIP3   OH222058   0.269   4.313   3.978  0.2393 -0.5618  0.2205
 7365TIP3    H122059   0.360   4.337   3.963  0.0359 -0.6657 -1.4561
 7365TIP3    H222060   0.227   4.393   4.010  0.4699  0.1488 -1.1737
 7366TIP3   OH222061   5.166   1.325   0.753  0.8469 -0.1625  0.0509
 7366TIP3    H122062   5.117   1.386   0.808  1.4000 -0.1449  0.5371
 7366TIP3    H222063   5.253   1.320   0.794  0.5309 -2.0283  0.6142
 7367TIP3   OH222064   2.929   6.549   0.445  0.8233  0.4665  0.1974
 7367TIP3    H122065   2.876   6.587   0.515  2.7132  2.6204  0.6165
 7367TIP3    H222066   3.014   6.531   0.487  1.3105 -0.2657 -1.0482
 7368TIP3   OH222067   3.111   0.847   3.086 -0.0040  0.1927  0.2659
 7368TIP3    H122068   3.140   0.866   3.175  2.1399  0.5640 -0.4582
 7368TIP3    H222069   3.179   0.884   3.030 -0.1077 -2.0268 -1.4769
 7369TIP3   OH222070   0.145   3.982   4.121  0.0844 -0.2842 -0.2881
 7369TIP3    H122071   0.145   4.051   4.188  0.6466  0.0590 -0.6350
 7369TIP3    H222072   0.119   4.026   4.041 -0.2973 -0.6364 -0.3616
 7370TIP3   OH222073   1.473   6.144   0.221  0.3099 -0.6782 -0.3071
 7370TIP3    H122074   1.412   6.096   0.165 -1.4507 -1.2848  1.9628
 7370TIP3    H222075   1.525   6.076   0.263 -0.3437 -0.4592  0.8936
 7371TIP3   OH222076   0.342   5.808   2.976 -0.0379  0.0406 -0.4910
 7371TIP3    H122077   0.289   5.739   2.936  0.7719 -0.6805 -0.3525
 7371TIP3    H222078   0.433   5.782   2.959  0.2916  0.8174 -0.0071
 7372TIP3   OH222079   7.105   6.772   2.346 -0.0350  0.1858 -0.2323
 7372TIP3    H122080   7.155   6.797   2.268  3.4126 -1.8479  1.0645
 7372TIP3    H222081   7.092   6.677   2.336 -0.1695  0.0148  1.2795
 7373TIP3   OH222082   4.002   3.135   0.089  0.1808 -0.0978 -0.2795
 7373TIP3    H122083   4.007   3.132  -0.007 -0.7068 -1.2523 -0.3147
 7373TIP3    H222084   3.957   3.218   0.107  1.2846  0.6400 -0.7885
 7374TIP3   OH222085   4.941   3.837   0.161  0.5260 -0.1446  0.3210
 7374TIP3    H122086   4.927   3.877   0.075  1.5058 -0.1827  0.1362
 7374TIP3    H222087   4.957   3.745   0.141  1.6661  0.0110  0.4541
 7375TIP3   OH222088   4.197   2.112   3.729 -0.6808  0.1226 -0.7500
 7375TIP3    H122089   4.185   2.059   3.808  1.0877 -0.3112 -0.7328
 7375TIP3    H222090   4.135   2.184   3.739 -2.7615 -1.5976 -0.5082
 7376TIP3   OH222091   1.774   2.821   5.719 -0.1051  0.7311  0.1463
 7376TIP3    H122092   1.856   2.785   5.754 -0.3973 -0.5634 -0.4340
 7376TIP3    H222093   1.781   2.807   5.624 -1.0928  0.3633  0.1144
 7377TIP3   OH222094   5.514   0.246   2.154  0.5511  0.1719  0.1214
 7377TIP3    H122095   5.513   0.317   2.217 -1.2076  1.4539 -1.2824
 7377TIP3    H222096   5.433   0.255   2.105  0.8796 -2.0403 -0.9664
 7378TIP3   OH222097   5.630   5.606   4.177  0.1929 -0.7908 -0.3090
 7378TIP3    H122098   5.575   5.671   4.220  0.2854 -1.6222  1.1392
 7378TIP3    H222099   5.705   5.655   4.144 -0.9520  0.2174 -1.5590
 7379TIP3   OH222100   6.142   6.558   1.785  0.1582 -0.4063 -0.2882
 7379TIP3    H122101   6.228   6.546   1.744  1.3366  1.7047  1.4041
 7379TIP3    H222102   6.155   6.534   1.877 -1.3733 -1.0966 -0.2129
 7380TIP3   OH222103   1.459   1.597   3.413  0.3783  0.1135  0.2472
 7380TIP3    H122104   1.510   1.586   3.493  1.2414  0.9743 -0.1602
 7380TIP3    H222105   1.373   1.627   3.443  0.1896 -1.0390  0.9258
 7381TIP3   OH222106   3.192   6.108   1.356 -0.0688 -0.1255  0.6690
 7381TIP3    H122107   3.136   6.044   1.311  1.0439 -1.0683  0.5697
 7381TIP3    H222108   3.139   6.187   1.360 -0.4647 -0.1659 -1.8090
 7382TIP3   OH222109   4.820   2.417   5.120 -0.0311 -0.1089 -0.3231
 7382TIP3    H122110   4.730   2.403   5.091  0.2491 -0.6300 -0.9923
 7382TIP3    H222111   4.831   2.357   5.195 -0.0762 -0.4648 -0.5975
 7383TIP3   OH222112   3.591   2.287   2.815 -0.0912 -0.1327 -0.1849
 7383TIP3    H122113   3.682   2.257   2.808  0.2239  0.2463  1.7388
 7383TIP3    H222114   3.546   2.242   2.744  1.2517 -1.6805 -0.1235
 7384TIP3   OH222115   0.527   0.119   4.001  0.5054 -0.6559  0.3005
 7384TIP3    H122116   0.497   0.046   4.056 -0.3996  0.2652  1.0624
 7384TIP3    H222117   0.608   0.149   4.043  1.2249 -1.5768 -0.3642
 7385TIP3   OH222118   3.729   5.835   2.365 -0.1603 -0.1486 -0.0041
 7385TIP3    H122119   3.661   5.790   2.315 -0.6402  0.0563  0.4561
 7385TIP3    H222120   3.684   5.909   2.405  0.3271 -0.0375  0.3457
 7386TIP3   OH222121   0.748   0.245   4.097 -0.6363 -0.5677 -0.0850
 7386TIP3    H122122   0.746   0.340   4.104 -0.9220 -0.6073  0.4249
 7386TIP3    H222123   0.805   0.228   4.022  0.6298 -0.0221  0.7060
 7387TIP3   OH222124   6.264   3.923   2.981  0.2423 -0.3079  0.2991
 7387TIP3    H122125   6.232   4.014   2.976  0.2567 -0.1951  1.8832
 7387TIP3    H222126   6.202   3.879   3.040  0.2060 -1.3592 -0.4933
 7388TIP3   OH222127   3.332   2.629   2.366 -0.0538  0.2165 -0.3176
 7388TIP3    H122128   3.411   2.674   2.336  0.4077 -1.5751 -1.9280
 7388TIP3    H222129   3.298   2.585   2.288 -1.1558 -1.2268  0.9176
 7389TIP3   OH222130   0.376   1.714   5.147  0.4937 -0.1700 -0.7120
 7389TIP3    H122131   0.358   1.757   5.064 -1.8179 -0.4134 -0.4033
 7389TIP3    H222132   0.405   1.784   5.205  1.2015  0.1632 -1.4602
 7390TIP3   OH222133   0.374   3.904   2.186 -0.2354 -0.1766 -0.3014
 7390TIP3    H122134   0.345   3.834   2.127  2.3628 -1.1896 -0.5389
 7390TIP3    H222135   0.453   3.939   2.144 -0.4786  1.7134  0.7081
 7391TIP3   OH222136   0.605   4.761   0.962 -0.2334 -0.1342  0.5279
 7391TIP3    H122137   0.663   4.725   1.029 -1.1067  1.3522  2.1647
 7391TIP3    H222138   0.636   4.851   0.948 -1.8498  0.5700  1.1718
 7392TIP3   OH222139   3.735   6.443   0.472 -0.4074 -0.1861  0.4874
 7392TIP3    H122140   3.820   6.472   0.505 -0.4113 -1.1661  1.4000
 7392TIP3    H222141   3.747   6.438   0.377 -0.2957  2.3233  0.2886
 7393TIP3   OH222142   2.304   4.762   4.666 -0.1316 -0.1235  0.1096
 7393TIP3    H122143   2.304   4.801   4.753 -1.6199  0.2470 -0.0192
 7393TIP3    H222144   2.339   4.831   4.609 -1.8251  0.7330  0.0301
 7394TIP3   OH222145   0.876   6.812   2.376  0.1478  0.7283  0.4649
 7394TIP3    H122146   0.782   6.799   2.389  0.4103  0.5034  2.4490
 7394TIP3    H222147   0.917   6.739   2.423  1.3145  0.1538 -1.3516
 7395TIP3   OH222148   4.851   5.915   2.021 -0.6578 -0.1326 -0.1472
 7395TIP3    H122149   4.804   5.979   1.967 -0.1984  0.0149 -0.3736
 7395TIP3    H222150   4.906   5.969   2.079  0.7016 -0.3354 -1.2020
 7396TIP3   OH222151   5.845   4.753   0.685 -0.9585  0.3746 -0.1264
 7396TIP3    H122152   5.841   4.657   0.690 -0.3039  0.3782  0.8164
 7396TIP3    H222153   5.833   4.781   0.776 -0.8125  1.1748 -0.3499
 7397TIP3   OH222154   1.481   1.690   4.692 -0.3515 -0.0257  0.1366
 7397TIP3    H122155   1.477   1.594   4.695  1.1552 -0.2213 -1.6771
 7397TIP3    H222156   1.465   1.711   4.600  0.9926  1.3111  0.1677
 7398TIP3   OH222157   6.221   0.658   5.506 -0.5770 -0.5536  0.2559
 7398TIP3    H122158   6.197   0.579   5.555 -2.2181 -0.8855 -0.9691
 7398TIP3    H222159   6.235   0.725   5.574 -0.7295 -1.5016  1.2555
 7399TIP3   OH222160   2.873   5.243   1.842  0.3906 -0.2741  0.3862
 7399TIP3    H122161   2.818   5.279   1.773  1.7809 -0.9791 -1.1722
 7399TIP3    H222162   2.827   5.263   1.923 -2.4370 -1.3409 -0.8359
 7400TIP3   OH222163   7.051   5.080   3.127 -0.4023 -0.3219 -0.2646
 7400TIP3    H122164   7.063   5.143   3.056 -0.2579 -0.7276 -0.6011
 7400TIP3    H222165   7.135   5.081   3.174  0.2448 -1.5687 -1.3349
 7401TIP3   OH222166   5.123   4.895   4.305 -0.0066  0.0739 -0.7938
 7401TIP3    H122167   5.131   4.855   4.219 -1.1390 -0.3287 -0.7334
 7401TIP3    H222168   5.029   4.894   4.323  0.1556  0.7197  0.1811
 7402TIP3   OH222169   3.044   3.493   0.410  0.1892 -0.0306 -0.1160
 7402TIP3    H122170   2.961   3.539   0.422  0.6744  0.6081  0.9092
 7402TIP3    H222171   3.024   3.423   0.347 -1.5656 -0.9964  1.3996
 7403TIP3   OH222172   3.666   5.175   1.870  0.0595  0.2704  0.1334
 7403TIP3    H122173   3.728   5.207   1.935 -0.2157  0.1196  0.4697
 7403TIP3    H222174   3.587   5.226   1.885 -0.7967 -1.3751  1.4692
 7404TIP3   OH222175   1.845   0.583   0.757 -0.5403  0.5783 -0.0685
 7404TIP3    H122176   1.899   0.602   0.834 -0.5945  0.4636 -0.0014
 7404TIP3    H222177   1.899   0.526   0.703  0.5324  2.7021 -1.3649
 7405TIP3   OH222178   5.232   5.110   1.851  0.1205  0.1056 -0.1048
 7405TIP3    H122179   5.166   5.176   1.874 -0.2879  0.2483 -1.6128
 7405TIP3    H222180   5.219   5.041   1.916 -1.3282  0.2737 -0.1808
 7406TIP3   OH222181   5.393   6.131   2.796 -0.6055 -0.1699 -0.4960
 7406TIP3    H122182   5.327   6.181   2.747  0.0352  1.2941  0.0656
 7406TIP3    H222183   5.342   6.067   2.845 -1.4245 -0.3889 -1.5860
 7407TIP3   OH222184   4.206   3.207   4.719  0.3789  0.3037  0.8622
 7407TIP3    H122185   4.131   3.256   4.753  0.4734  1.2756 -0.2433
 7407TIP3    H222186   4.266   3.274   4.687  0.4952 -0.4961 -0.7357
 7408TIP3   OH222187   0.355   2.404   2.218  0.3884 -0.0219  0.4236
 7408TIP3    H122188   0.264   2.376   2.224  0.8255 -1.1730  2.7184
 7408TIP3    H222189   0.358   2.486   2.268  0.3563  0.9123 -1.0213
 7409TIP3   OH222190   1.724   3.443   2.494  0.0337 -0.4776  0.4394
 7409TIP3    H122191   1.662   3.420   2.563  0.1110 -0.6952  0.4339
 7409TIP3    H222192   1.686   3.522   2.455 -0.3445 -0.7232  0.3045
 7410TIP3   OH222193   4.290   3.769   0.694 -0.6784  0.2105 -0.3837
 7410TIP3    H122194   4.291   3.676   0.670 -0.8918  0.3490 -0.9388
 7410TIP3    H222195   4.342   3.773   0.775 -1.9867 -0.6230  0.5357
 7411TIP3   OH222196   3.659   1.663   0.096  0.5421  0.4988  0.6475
 7411TIP3    H122197   3.627   1.608   0.168  0.0501  0.1719  0.1936
 7411TIP3    H222198   3.632   1.617   0.017  1.2465  0.7558  0.2465
 7412TIP3   OH222199   3.880   2.852   2.940 -0.0469 -0.1884 -0.1866
 7412TIP3    H122200   3.918   2.930   2.980 -0.1047 -0.0312 -0.4380
 7412TIP3    H222201   3.849   2.800   3.015  1.5381 -0.7903  0.0900
 7413TIP3   OH222202   3.158   3.677   0.253  0.2034  0.2522  0.1913
 7413TIP3    H122203   3.133   3.596   0.298 -0.4713 -0.0735 -0.7476
 7413TIP3    H222204   3.116   3.746   0.303  1.9550  0.1883  1.8721
 7414TIP3   OH222205   5.605   5.064   5.883  0.4239 -0.4201 -0.3511
 7414TIP3    H122206   5.616   5.114   5.802  1.7094 -1.7551 -1.0531
 7414TIP3    H222207   5.694   5.037   5.907  0.1314  0.2553  1.7478
 7415TIP3   OH222208   0.825   0.804   4.572 -0.4409 -0.6106  0.1305
 7415TIP3    H122209   0.774   0.885   4.578 -1.2968 -1.0784 -0.6356
 7415TIP3    H222210   0.886   0.819   4.500  0.4735 -0.0855  0.9876
 7416TIP3   OH222211   6.039   0.484   1.675  0.1719 -0.4104 -0.6120
 7416TIP3    H122212   5.974   0.419   1.702  2.7021 -3.0075 -0.2830
 7416TIP3    H222213   6.066   0.456   1.588  2.9408 -1.3516  0.4203
 7417TIP3   OH222214   1.410   6.347   2.167  0.1635  0.4596 -0.0387
 7417TIP3    H122215   1.468   6.383   2.234 -0.0399  0.6738  0.0217
 7417TIP3    H222216   1.394   6.257   2.194 -1.2715  1.0193  1.1157
 7418TIP3   OH222217   7.116   3.560   3.618 -0.1568  0.3570 -0.1491
 7418TIP3    H122218   7.199   3.530   3.581 -0.3549  0.5320 -0.7321
 7418TIP3    H222219   7.111   3.652   3.595 -0.2408  0.4949  0.3969
 7419TIP3   OH222220   2.450   4.587   0.949 -0.2412  0.3515 -0.0753
 7419TIP3    H122221   2.390   4.561   0.879  0.5712 -0.9571 -0.3084
 7419TIP3    H222222   2.428   4.679   0.966 -0.7969  0.5454 -1.6861
 7420TIP3   OH222223   3.438   1.474   3.181 -0.5037  0.0536  0.5107
 7420TIP3    H122224   3.429   1.380   3.199  2.2946 -0.2392  0.8242
 7420TIP3    H222225   3.427   1.481   3.086 -1.5893 -0.4346  0.5854
 7421TIP3   OH222226   5.959   5.468   1.186  0.4696 -0.1740  0.3636
 7421TIP3    H122227   6.028   5.468   1.120 -0.3538 -0.0649 -0.5244
 7421TIP3    H222228   5.933   5.560   1.194  0.2883 -0.2381  0.5369
 7422TIP3   OH222229   3.695   1.220   1.688  0.2860 -0.3133  0.1045
 7422TIP3    H122230   3.666   1.202   1.777  1.6831  0.7694  0.8130
 7422TIP3    H222231   3.763   1.286   1.697 -0.5782  0.9614 -1.8962
 7423TIP3   OH222232   6.876   2.307   2.608 -0.3429  0.2996  0.4801
 7423TIP3    H122233   6.800   2.267   2.565  0.7722  0.5079 -1.8392
 7423TIP3    H222234   6.861   2.401   2.599  0.6315  0.3540 -0.9605
 7424TIP3   OH222235   1.280   5.164   3.629 -0.3027 -0.3298  0.2163
 7424TIP3    H122236   1.190   5.160   3.660 -0.7410  0.8748 -0.7838
 7424TIP3    H222237   1.286   5.249   3.585  1.2578 -0.4877  0.0630
 7425TIP3   OH222238   0.958   1.473   4.416 -0.0434  0.5372 -0.9851
 7425TIP3    H122239   0.979   1.481   4.509 -0.0884 -1.1948 -0.7909
 7425TIP3    H222240   1.038   1.439   4.376 -0.4287  0.0280 -1.3409
 7426TIP3   OH222241   7.155   2.797   4.604 -0.2230  0.5756  0.2943
 7426TIP3    H122242   7.210   2.817   4.680 -1.8089  0.5166  1.4952
 7426TIP3    H222243   7.087   2.863   4.606 -2.2068 -1.3547  0.9318
 7427TIP3   OH222244   1.137   5.926   2.592 -0.3057 -0.1868  0.3250
 7427TIP3    H122245   1.115   6.017   2.609  1.0137 -0.1696  2.2406
 7427TIP3    H222246   1.230   5.927   2.568 -0.1456 -1.0481  0.8409
 7428TIP3   OH222247   5.115   6.584   0.848 -0.6802 -0.0870  0.3582
 7428TIP3    H122248   5.174   6.584   0.924 -1.4350 -3.1922  1.0843
 7428TIP3    H222249   5.046   6.523   0.872 -1.2586 -0.7253 -2.6338
 7429TIP3   OH222250   3.191   4.109   3.119  0.3229  0.0450 -0.6350
 7429TIP3    H122251   3.201   4.131   3.211  1.4967  0.7649 -0.9150
 7429TIP3    H222252   3.256   4.163   3.074 -0.2444 -0.2770 -1.8880
 7430TIP3   OH222253   1.217   1.357   4.317  0.6241 -0.1330 -0.6179
 7430TIP3    H122254   1.307   1.351   4.350  0.1147 -0.0494  0.8644
 7430TIP3    H222255   1.206   1.278   4.263  0.7897 -1.5400  1.3068
 7431TIP3   OH222256   3.706   6.513   0.875 -0.1239  0.8625 -0.3031
 7431TIP3    H122257   3.749   6.576   0.817 -0.6484  0.1547 -1.4872
 7431TIP3    H222258   3.763   6.436   0.874 -0.0854  0.8796  0.2123
 7432TIP3   OH222259   5.069   3.155   0.941 -0.1849  0.3441  0.7012
 7432TIP3    H122260   5.020   3.201   1.009 -1.4048  1.2470 -0.7243
 7432TIP3    H222261   5.090   3.222   0.876  1.6218 -0.3431  0.5120
 7433TIP3   OH222262   3.060   3.770   2.525  0.4238  0.1474  0.0219
 7433TIP3    H122263   3.077   3.736   2.612 -0.5181 -1.5861 -0.4251
 7433TIP3    H222264   2.965   3.775   2.519  0.4582 -0.1472 -1.0453
 7434TIP3   OH222265   4.825   5.007   1.540  0.0947  0.4484 -0.3503
 7434TIP3    H122266   4.751   5.047   1.495 -0.2702 -0.1354 -0.2849
 7434TIP3    H222267   4.792   4.923   1.570  0.7175  0.2808 -0.1111
 7435TIP3   OH222268   0.585   0.724   1.010 -0.2258 -0.2100  0.5888
 7435TIP3    H122269   0.500   0.765   1.024 -0.7206 -0.9072 -0.2163
 7435TIP3    H222270   0.564   0.636   0.977  0.8003 -0.9530  1.8054
 7436TIP3   OH222271   0.632   6.114   2.410 -0.4104  0.3198  0.5514
 7436TIP3    H122272   0.539   6.091   2.412 -0.1676 -0.7148  0.6896
 7436TIP3    H222273   0.660   6.105   2.501  0.1980 -1.0566  0.2452
 7437TIP3   OH222274   2.222   3.941   4.218  0.0879 -0.5431  0.4621
 7437TIP3    H122275   2.128   3.937   4.237 -0.3464 -1.5297 -1.6336
 7437TIP3    H222276   2.235   3.878   4.147  1.8472  1.5278 -1.1895
 7438TIP3   OH222277   6.027   1.774   1.213  0.2112 -0.0309 -0.1049
 7438TIP3    H122278   6.023   1.852   1.269  1.2821  0.7686 -1.0894
 7438TIP3    H222279   6.016   1.809   1.124  1.2702 -0.9380 -0.6058
 7439TIP3   OH222280   4.663   5.196   1.706 -0.1945  0.3652  0.0525
 7439TIP3    H122281   4.653   5.174   1.613 -0.2906 -0.0174  0.1510
 7439TIP3    H222282   4.739   5.144   1.735  2.2765  3.2840 -0.7053
 7440TIP3   OH222283   4.654   4.739   1.045 -0.1074 -0.1204 -0.4854
 7440TIP3    H122284   4.700   4.781   1.118 -1.2471  0.4901 -0.0832
 7440TIP3    H222285   4.609   4.665   1.086  1.1876 -1.2528 -1.0335
 7441TIP3   OH222286   0.054   4.793   5.788 -0.2668 -0.2704 -0.0658
 7441TIP3    H122287   0.136   4.813   5.743  0.8645  2.2189  2.8247
 7441TIP3    H222288  -0.004   4.866   5.765 -0.6574 -0.4570  0.3168
 7442TIP3   OH222289   3.487   5.459   3.761 -0.4398  0.6146 -0.4641
 7442TIP3    H122290   3.482   5.554   3.748 -0.1518  0.6692 -0.1860
 7442TIP3    H222291   3.579   5.438   3.743 -0.7807  0.1993 -1.7727
 7443TIP3   OH222292   0.946   5.508   5.335 -0.4064 -0.0293 -0.7845
 7443TIP3    H122293   1.036   5.542   5.337  0.1279 -1.3578  0.8774
 7443TIP3    H222294   0.955   5.418   5.303 -1.2290  0.0210 -1.1782
 7444TIP3   OH222295   4.055   0.877   5.776  0.0359  0.2244 -0.3811
 7444TIP3    H122296   4.115   0.803   5.790  0.5332  0.8220  0.7578
 7444TIP3    H222297   3.987   0.865   5.842  1.3066  1.9594  1.3629
 7445TIP3   OH222298   0.569   4.903   1.295 -0.3158  0.4540  0.2782
 7445TIP3    H122299   0.562   4.914   1.390  0.4374  0.5306  0.3276
 7445TIP3    H222300   0.481   4.878   1.267 -0.1382 -1.3673  1.2287
 7446TIP3   OH222301   3.532   6.768   1.545 -0.8912  0.2741  0.0694
 7446TIP3    H122302   3.574   6.682   1.538 -0.9413  0.2160  0.4931
 7446TIP3    H222303   3.470   6.760   1.616 -2.0568  0.1950 -0.9261
 7447TIP3   OH222304   5.246   4.424   2.885  0.2572  0.0304 -0.0995
 7447TIP3    H122305   5.185   4.386   2.948  0.0841  0.6895  0.1382
 7447TIP3    H222306   5.200   4.502   2.851  0.9760  0.5540  0.1040
 7448TIP3   OH222307   2.487   5.211   3.441 -0.4857  0.2548  0.2590
 7448TIP3    H122308   2.548   5.165   3.383 -1.0252  0.1069 -0.1939
 7448TIP3    H222309   2.505   5.174   3.527  0.7353  0.8975  0.3047
 7449TIP3   OH222310   0.780   6.435   2.692 -0.2806 -0.6981  0.5819
 7449TIP3    H122311   0.864   6.408   2.730 -0.9520 -1.3040  1.6804
 7449TIP3    H222312   0.769   6.525   2.721  0.9217  0.1218 -1.2698
 7450TIP3   OH222313   6.576   5.906   1.385 -0.8056 -0.0225 -0.2857
 7450TIP3    H122314   6.537   5.864   1.461  0.7895  0.3502  0.7979
 7450TIP3    H222315   6.669   5.885   1.391 -0.4308  1.1889 -1.3648
 7451TIP3   OH222316   2.282   0.800   5.402 -0.0490  0.1394 -0.3114
 7451TIP3    H122317   2.220   0.781   5.331  0.6447  0.1068 -0.9164
 7451TIP3    H222318   2.358   0.838   5.358  1.4033 -2.0955  0.1159
 7452TIP3   OH222319   6.422   0.728   3.006 -0.2311 -0.4623  0.1633
 7452TIP3    H122320   6.351   0.721   3.070 -0.7689 -1.3225 -0.4896
 7452TIP3    H222321   6.387   0.787   2.939  0.2250  0.2230  0.5167
 7453TIP3   OH222322   3.835   1.414   3.675  0.0090  0.0862 -0.0768
 7453TIP3    H122323   3.914   1.453   3.713  0.4746 -1.2323  0.3832
 7453TIP3    H222324   3.770   1.417   3.745 -0.0629  0.3342 -0.1529
 7454TIP3   OH222325   6.408   1.772   4.904  0.6052 -0.0902 -0.0369
 7454TIP3    H122326   6.317   1.786   4.880  0.1748 -1.0714  0.9278
 7454TIP3    H222327   6.456   1.840   4.858 -0.6959  0.8717 -0.0139
 7455TIP3   OH222328   4.220   1.042   1.443  0.0768 -0.3419 -0.5655
 7455TIP3    H122329   4.271   1.089   1.377  0.9220  0.5722  0.6897
 7455TIP3    H222330   4.245   1.083   1.526 -2.5013 -0.0347  0.1375
 7456TIP3   OH222331   2.629   4.760   5.267  0.2406 -0.3062  0.0625
 7456TIP3    H122332   2.681   4.804   5.334 -1.4661 -0.3451  1.4896
 7456TIP3    H222333   2.682   4.765   5.188  2.5673 -0.6809  1.4997
 7457TIP3   OH222334   0.323   3.075   5.701 -0.1018 -0.1371 -0.0796
 7457TIP3    H122335   0.307   3.170   5.704  0.5258 -0.0109 -0.5379
 7457TIP3    H222336   0.418   3.067   5.706 -0.2358 -0.8521  2.0644
 7458TIP3   OH222337   3.178   2.662   0.378 -0.5719 -0.2431  0.2621
 7458TIP3    H122338   3.099   2.675   0.326 -1.6475 -1.0819  1.6449
 7458TIP3    H222339   3.248   2.657   0.312 -1.4637  1.6377 -0.9203
 7459TIP3   OH222340   0.932   3.296   5.029 -0.7390 -0.8195 -0.0641
 7459TIP3    H122341   0.901   3.285   5.119  1.2420 -1.7070  0.5665
 7459TIP3    H222342   0.922   3.389   5.011 -2.4042 -0.8419  0.5672
 7460TIP3   OH222343   2.480   6.204   4.867  0.0470 -0.1125  0.0080
 7460TIP3    H122344   2.396   6.244   4.845  0.6103  0.3107 -1.5337
 7460TIP3    H222345   2.463   6.110   4.865 -0.7431 -0.0141  1.3066
 7461TIP3   OH222346   2.564   2.364   5.681  0.3987 -0.0605  0.1804
 7461TIP3    H122347   2.597   2.293   5.626 -0.3869 -0.5121  0.2767
 7461TIP3    H222348   2.473   2.376   5.653  0.3029  0.4046  0.6710
 7462TIP3   OH222349   3.638   2.964   5.628  1.0129  0.0830  0.8799
 7462TIP3    H122350   3.683   3.018   5.562  0.6089  0.8353  1.2106
 7462TIP3    H222351   3.700   2.893   5.646  2.3057  1.3626  1.6871
 7463TIP3   OH222352   0.157   0.241   5.597 -0.2145 -0.3901 -0.0375
 7463TIP3    H122353   0.163   0.194   5.680  0.5512 -0.6992 -0.2556
 7463TIP3    H222354   0.104   0.184   5.541  0.0016 -0.6006 -0.0318
 7464TIP3   OH222355   4.967   1.614   2.486  0.3376 -0.3028  0.4281
 7464TIP3    H122356   4.926   1.670   2.420 -0.1890  1.1402  1.9102
 7464TIP3    H222357   5.051   1.654   2.504  0.4165 -0.5997  0.7473
 7465TIP3   OH222358   1.436   5.970   2.536  0.0539  0.2559 -0.4941
 7465TIP3    H122359   1.472   5.883   2.556 -0.8178 -0.6748 -2.6989
 7465TIP3    H222360   1.496   6.007   2.471  0.0307  1.0296 -0.0885
 7466TIP3   OH222361   4.808   3.512   3.562  0.1161  0.1383  0.6046
 7466TIP3    H122362   4.755   3.497   3.640  0.7743 -1.6737  0.7557
 7466TIP3    H222363   4.788   3.438   3.504 -0.1119  1.2711 -0.8221
 7467TIP3   OH222364   6.991   5.358   3.636  0.3109  0.1750 -0.1002
 7467TIP3    H122365   6.902   5.364   3.670  0.0804 -1.8374 -0.2361
 7467TIP3    H222366   7.027   5.278   3.676  1.7778  0.5179 -0.6648
 7468TIP3   OH222367   6.619   4.026   2.011 -0.4114  0.3694  0.5565
 7468TIP3    H122368   6.553   4.000   2.075  1.8059  0.4347  3.0471
 7468TIP3    H222369   6.656   3.943   1.981 -0.5830  0.3748  0.3294
 7469TIP3   OH222370   6.092   6.626   2.356 -0.4109  0.6889  0.0467
 7469TIP3    H122371   6.088   6.645   2.450  0.9817  0.1481  0.2412
 7469TIP3    H222372   6.026   6.683   2.317 -0.7924  1.1476  1.3188
 7470TIP3   OH222373   0.866   2.715   3.802 -0.1302  0.1124 -0.3054
 7470TIP3    H122374   0.884   2.622   3.814 -0.3128 -0.0910 -1.4591
 7470TIP3    H222375   0.854   2.725   3.708 -1.1763  1.1159 -0.0872
 7471TIP3   OH222376   3.934   6.153   5.832 -0.5189 -0.2884 -0.1151
 7471TIP3    H122377   4.002   6.204   5.876  0.4481 -0.0781 -1.7931
 7471TIP3    H222378   3.880   6.218   5.788 -0.8206 -0.5681 -0.1639
 7472TIP3   OH222379   5.423   1.167   0.458 -0.3458 -0.0272 -0.3501
 7472TIP3    H122380   5.377   1.249   0.475  0.8928  0.8047 -0.8350
 7472TIP3    H222381   5.485   1.188   0.388  0.8951 -1.0400  0.3925
 7473TIP3   OH222382   6.405   0.344   1.730 -0.0241  0.6587  0.7136
 7473TIP3    H122383   6.359   0.420   1.695 -2.3556 -0.5031  1.0649
 7473TIP3    H222384   6.367   0.269   1.684 -0.0566 -0.5230  2.5381
 7474TIP3   OH222385   2.514   4.049   5.801 -0.3569  0.5079  0.1990
 7474TIP3    H122386   2.588   3.991   5.785  0.4950  0.7410  2.7550
 7474TIP3    H222387   2.438   4.002   5.766  1.0150  0.9189 -3.9093
 7475TIP3   OH222388   0.784   1.012   3.536  0.5916  0.2039  0.5229
 7475TIP3    H122389   0.746   0.999   3.449 -0.1122 -0.6364  0.9360
 7475TIP3    H222390   0.785   1.106   3.548 -0.4261  0.2856  0.0735
 7476TIP3   OH222391   0.651   6.738   1.751 -0.0020 -0.2031  0.3406
 7476TIP3    H122392   0.652   6.768   1.842 -4.2703  1.9730 -0.0997
 7476TIP3    H222393   0.704   6.803   1.704 -0.9415  0.9468  0.8149
 7477TIP3   OH222394   6.632   3.821   2.499  0.0306 -0.3503  0.1430
 7477TIP3    H122395   6.549   3.839   2.543 -0.3307  0.0233 -0.6609
 7477TIP3    H222396   6.697   3.870   2.548 -0.1867 -0.8279  0.9207
 7478TIP3   OH222397   4.879   6.323   3.024  0.1102  0.3367  0.2983
 7478TIP3    H122398   4.958   6.289   3.066  0.5478 -1.2439 -1.6735
 7478TIP3    H222399   4.817   6.251   3.028 -0.5408  0.8749  0.0270
 7479TIP3   OH222400   4.994   0.153   2.330  0.0037  0.5102 -0.4263
 7479TIP3    H122401   4.973   0.234   2.376  1.6354  0.5214  0.3480
 7479TIP3    H222402   5.072   0.119   2.374  0.1112 -0.8128 -1.5618
 7480TIP3   OH222403   1.294   4.701   4.568  0.4062  0.6086  0.2682
 7480TIP3    H122404   1.269   4.767   4.634 -2.2572 -0.8756  0.8724
 7480TIP3    H222405   1.246   4.623   4.594  0.7091 -0.5597 -2.4636
 7481TIP3   OH222406   6.993   2.159   5.155  0.3843  0.5731 -0.4742
 7481TIP3    H122407   7.076   2.118   5.178 -0.5095 -1.2751 -0.3544
 7481TIP3    H222408   6.933   2.086   5.142 -0.9469  1.8127 -1.7047
 7482TIP3   OH222409   0.147   1.241   2.502  0.3100 -0.7408 -0.1708
 7482TIP3    H122410   0.180   1.153   2.480  0.5117 -0.3171 -1.6797
 7482TIP3    H222411   0.225   1.297   2.500  0.4061 -0.6948  2.0711
 7483TIP3   OH222412   4.680   2.081   1.176  0.1001 -0.3233 -0.4837
 7483TIP3    H122413   4.755   2.083   1.116  1.1511 -1.0253  0.7469
 7483TIP3    H222414   4.707   2.136   1.249 -0.4655 -0.8511  0.1286
 7484TIP3   OH222415   2.042   2.277   4.972  0.0435  0.2335  0.1403
 7484TIP3    H122416   2.133   2.286   4.943  0.2097 -1.8029 -0.0788
 7484TIP3    H222417   2.048   2.230   5.056 -0.6218  3.4202  2.1584
 7485TIP3   OH222418   4.763   0.126   5.100 -0.0114  0.3293  0.2371
 7485TIP3    H122419   4.791   0.213   5.072  0.2125 -0.7649 -3.6348
 7485TIP3    H222420   4.680   0.113   5.055  0.2281 -1.6224  0.2870
 7486TIP3   OH222421   6.044   6.170   1.181 -0.4683 -0.2934 -0.4179
 7486TIP3    H122422   6.127   6.207   1.211 -0.9511  0.5046 -0.0357
 7486TIP3    H222423   5.980   6.240   1.193 -2.2981 -2.3677  4.2113
 7487TIP3   OH222424   2.377   3.442   2.233  0.0508  0.2303  0.4555
 7487TIP3    H122425   2.414   3.400   2.311  0.1427  0.8906  0.7761
 7487TIP3    H222426   2.429   3.521   2.221  0.8222 -0.4520 -0.9990
 7488TIP3   OH222427   4.228   3.796   4.417  0.0924 -0.4208 -0.1602
 7488TIP3    H122428   4.279   3.731   4.368  0.8573 -0.8538  1.1623
 7488TIP3    H222429   4.291   3.835   4.477 -0.7848  0.2282  0.3504
 7489TIP3   OH222430   1.647   6.134   3.045  0.0309 -0.1457 -0.2716
 7489TIP3    H122431   1.570   6.180   3.078 -1.3136 -1.7057 -1.0878
 7489TIP3    H222432   1.625   6.041   3.051  1.3265 -0.6040 -1.7063
 7490TIP3   OH222433   5.498   4.180   5.007  0.1793  0.4688  0.1860
 7490TIP3    H122434   5.592   4.193   5.019  1.2134 -1.7834 -3.7001
 7490TIP3    H222435   5.476   4.232   4.929 -1.1358 -1.1989 -0.6173
 7491TIP3   OH222436   5.970   6.097   5.627  0.3720  0.2319  0.4371
 7491TIP3    H122437   5.984   6.024   5.688  1.0765 -1.0113 -1.1104
 7491TIP3    H222438   5.877   6.090   5.603  0.6065 -0.6849 -0.2858
 7492TIP3   OH222439   1.738   6.492   1.040 -0.0968  0.0651  0.0924
 7492TIP3    H122440   1.680   6.438   0.987  1.2848 -1.9706  0.5337
 7492TIP3    H222441   1.681   6.556   1.081 -1.6345 -0.2810 -1.4164
 7493TIP3   OH222442   1.628   5.922   0.779  0.5523 -0.0268  0.1707
 7493TIP3    H122443   1.687   5.846   0.786  0.2985 -0.0836  2.5280
 7493TIP3    H222444   1.558   5.903   0.841  0.7047  2.3227  1.1477
 7494TIP3   OH222445   3.636   2.978   4.239 -0.1681  0.1294 -0.0017
 7494TIP3    H122446   3.704   2.977   4.306  0.2862 -0.8291 -0.4549
 7494TIP3    H222447   3.582   2.901   4.259  0.6660 -0.8597 -1.4097
 7495TIP3   OH222448   3.645   0.044   3.948 -0.1468 -0.0205 -0.0583
 7495TIP3    H122449   3.718   0.034   3.887  0.5033 -1.5407  0.9185
 7495TIP3    H222450   3.656  -0.027   4.011 -1.5124  0.7455  1.1080
 7496TIP3   OH222451   6.168   2.378   5.288 -0.6802  0.4324 -0.2183
 7496TIP3    H122452   6.151   2.284   5.290  0.5980  0.1939  0.3839
 7496TIP3    H222453   6.093   2.418   5.332  0.0789 -0.5432  2.1163
 7497TIP3   OH222454   0.530   5.951   3.154 -0.5212 -0.5437  0.5384
 7497TIP3    H122455   0.528   5.894   3.231 -2.2158  1.1781  1.8553
 7497TIP3    H222456   0.458   5.920   3.099 -0.0539 -1.0252  0.1848
 7498TIP3   OH222457   6.752   3.635   2.890  0.7234  0.0986 -0.0278
 7498TIP3    H122458   6.664   3.673   2.902  0.6694  0.3170 -1.0284
 7498TIP3    H222459   6.787   3.628   2.979 -0.9912 -1.6587  0.5721
 7499TIP3   OH222460   4.979   2.991   0.735  0.1572  0.2639  0.1194
 7499TIP3    H122461   4.915   2.958   0.798  0.9104 -0.9106  0.3006
 7499TIP3    H222462   5.000   3.079   0.766 -1.2368  0.6100  0.1372
 7500TIP3   OH222463   0.998   1.036   3.908 -0.3930  0.0939 -0.2516
 7500TIP3    H122464   0.973   1.128   3.919  3.4510  1.1447  1.1127
 7500TIP3    H222465   1.011   1.027   3.813 -2.0604  0.4923 -0.5649
 7501TIP3   OH222466   2.494   0.636   1.110  0.5308  0.2945  0.1194
 7501TIP3    H122467   2.453   0.604   1.190  0.7953 -2.0861 -0.6250
 7501TIP3    H222468   2.422   0.670   1.058 -0.4309 -2.4753 -0.5469
 7502TIP3   OH222469   1.279   6.400   5.676  0.2407  0.3720 -0.5335
 7502TIP3    H122470   1.232   6.329   5.718  0.9375  0.4258  0.3724
 7502TIP3    H222471   1.309   6.363   5.592  0.1500 -0.2347 -0.3028
 7503TIP3   OH222472   0.159   4.131   5.405 -0.3757 -0.2295 -0.3602
 7503TIP3    H122473   0.141   4.042   5.375  0.7688 -0.1837 -1.2504
 7503TIP3    H222474   0.109   4.187   5.345 -0.4657 -0.2445 -0.2991
 7504TIP3   OH222475   4.438   4.447   3.433 -0.3605  0.5657 -0.0060
 7504TIP3    H122476   4.376   4.448   3.360  1.1524 -1.0409 -1.4334
 7504TIP3    H222477   4.523   4.461   3.391  0.6526 -1.2546  1.2806
 7505TIP3   OH222478   4.688   1.435   5.476  0.1150 -0.1904 -0.0902
 7505TIP3    H122479   4.723   1.443   5.387  1.2252  0.3464  0.3919
 7505TIP3    H222480   4.603   1.480   5.472  0.7133  0.9361 -0.5688
 7506TIP3   OH222481   5.904   4.644   1.273 -0.2095 -0.4524  0.4599
 7506TIP3    H122482   5.817   4.685   1.282  0.4390  1.1688 -0.2098
 7506TIP3    H222483   5.920   4.643   1.179  1.0333  0.4793  0.6356
 7507TIP3   OH222484   1.563   5.438   3.305  0.4198  0.2407  0.1038
 7507TIP3    H122485   1.470   5.421   3.319  0.6844 -1.1423  0.3673
 7507TIP3    H222486   1.594   5.475   3.388  0.1894  0.2710  0.1756
 7508TIP3   OH222487   7.080   4.772   3.343 -0.3365  0.1594  0.4326
 7508TIP3    H122488   7.137   4.846   3.365  1.5493 -1.8696  2.9964
 7508TIP3    H222489   7.138   4.706   3.306 -1.7189 -0.6434 -0.3935
 7509TIP3   OH222490   4.096   3.595   4.887 -0.0184 -0.3108 -0.4909
 7509TIP3    H122491   4.033   3.666   4.902  0.3494  0.4352 -2.1577
 7509TIP3    H222492   4.046   3.529   4.839 -0.5092 -1.4856  1.5479
 7510TIP3   OH222493   3.736   3.650   0.826 -0.1425  0.2653  0.0969
 7510TIP3    H122494   3.736   3.746   0.823  0.9991  0.2612 -0.6564
 7510TIP3    H222495   3.825   3.625   0.802 -0.3292 -0.9857  0.6439
 7511TIP3   OH222496   6.737   0.281   0.537  0.1399 -0.2208  0.2735
 7511TIP3    H122497   6.735   0.206   0.596  1.7356 -0.3018  0.2476
 7511TIP3    H222498   6.653   0.276   0.490  0.5328 -2.4849 -0.3335
 7512TIP3   OH222499   0.421   6.044   0.733  0.0317  0.5779  0.0143
 7512TIP3    H122500   0.458   6.001   0.811 -0.0089 -0.9825 -0.7791
 7512TIP3    H222501   0.350   6.099   0.767 -0.9334 -1.1613  0.9919
 7513TIP3   OH222502   5.177   6.256   1.162  0.1811  0.5416 -0.6871
 7513TIP3    H122503   5.189   6.253   1.067  0.8604 -0.3809 -0.5838
 7513TIP3    H222504   5.121   6.333   1.177  2.4378  2.4579 -1.5721
 7514TIP3   OH222505   1.368   0.596   0.997  0.2504 -0.4630 -0.3015
 7514TIP3    H122506   1.373   0.659   0.926 -0.2022 -0.9061 -0.7371
 7514TIP3    H222507   1.306   0.634   1.060 -0.3599 -0.6617 -0.7694
 7515TIP3   OH222508   2.755   1.370   2.250 -0.5242  0.1395  0.7566
 7515TIP3    H122509   2.711   1.334   2.173  1.5179  0.3399 -0.5664
 7515TIP3    H222510   2.745   1.302   2.317 -1.7475 -0.3322  0.1314
 7516TIP3   OH222511   0.168   2.057   1.649  0.1287 -0.2470 -0.1430
 7516TIP3    H122512   0.235   2.121   1.624  0.9632 -0.5807  1.1299
 7516TIP3    H222513   0.181   1.984   1.589  1.8239 -0.8665  0.9084
 7517TIP3   OH222514   0.254   4.466   4.751 -0.4230 -0.0753 -0.1821
 7517TIP3    H122515   0.166   4.476   4.716 -1.3867 -1.1315  1.7749
 7517TIP3    H222516   0.242   4.463   4.846  1.7478 -0.1106  0.1427
 7518TIP3   OH222517   0.475   1.647   3.040 -0.0198  0.1765  0.1692
 7518TIP3    H122518   0.439   1.729   3.007 -1.2102  0.5258  2.2315
 7518TIP3    H222519   0.450   1.644   3.132  1.7734 -1.5332  0.6726
 7519TIP3   OH222520   4.033   6.585   3.971 -0.3812  0.5418 -0.2170
 7519TIP3    H122521   3.968   6.515   3.982 -0.9681  1.1961  0.6213
 7519TIP3    H222522   4.005   6.653   4.033  0.5299  1.2597 -0.5800
 7520TIP3   OH222523   2.116   3.799   0.842  0.6254  0.1593 -0.0518
 7520TIP3    H122524   2.125   3.894   0.851  1.5166 -0.0493  1.5995
 7520TIP3    H222525   2.077   3.771   0.925 -1.9841 -0.6733 -1.4638
 7521TIP3   OH222526   4.844   5.932   0.041 -0.3056  0.3814  0.3283
 7521TIP3    H122527   4.802   5.865   0.095 -1.6958 -0.1854 -1.3611
 7521TIP3    H222528   4.904   5.883  -0.016 -1.3838  0.4908 -0.9662
 7522TIP3   OH222529   6.463   6.201   2.270  0.1966  0.2147 -0.3557
 7522TIP3    H122530   6.424   6.254   2.339  0.6271  0.6135 -0.4144
 7522TIP3    H222531   6.557   6.217   2.277  0.3832 -0.9294 -0.0531
 7523TIP3   OH222532   4.644   0.122   3.851  0.4309 -0.1675  0.0696
 7523TIP3    H122533   4.706   0.131   3.779  0.2445 -1.3326 -0.2662
 7523TIP3    H222534   4.624   0.028   3.853 -0.7577  0.0787  0.6381
 7524TIP3   OH222535   3.462   5.728   4.822  0.5385 -0.3025  0.3139
 7524TIP3    H122536   3.538   5.765   4.867  2.6187 -0.1084 -2.9785
 7524TIP3    H222537   3.440   5.794   4.755 -2.0923 -0.7278  0.6617
 7525TIP3   OH222538   0.617   3.188   1.343  0.4421 -0.0624 -0.8034
 7525TIP3    H122539   0.619   3.208   1.249  1.6734 -1.6119 -1.1427
 7525TIP3    H222540   0.524   3.170   1.361  0.1406  0.5558 -1.6360
 7526TIP3   OH222541   4.385   3.695   5.434 -0.5757  0.4230  0.0639
 7526TIP3    H122542   4.362   3.757   5.365 -0.7972 -0.6096 -0.8192
 7526TIP3    H222543   4.321   3.625   5.425  0.8883 -0.9185 -0.2953
 7527TIP3   OH222544   4.590   5.615   2.277 -0.4822 -0.1932 -0.0156
 7527TIP3    H122545   4.542   5.648   2.201 -0.1431  2.5944  0.8739
 7527TIP3    H222546   4.668   5.670   2.283  0.8697 -2.0994  0.8337
 7528TIP3   OH222547   3.539   2.528   5.846  0.4609 -0.0943  0.5476
 7528TIP3    H122548   3.580   2.457   5.797 -0.5199 -0.4896  0.2855
 7528TIP3    H222549   3.613   2.583   5.873  1.0976 -0.3463 -0.6015
 7529TIP3   OH222550   6.880   4.038   0.822  0.3373 -0.5067 -0.1676
 7529TIP3    H122551   6.949   4.104   0.813 -0.4098  0.1246 -1.5633
 7529TIP3    H222552   6.862   4.009   0.733 -0.2509 -1.6735  0.3088
 7530TIP3   OH222553   0.155   0.145   4.219  0.5233 -0.1626 -0.1751
 7530TIP3    H122554   0.139   0.119   4.128 -1.1102 -1.6725  0.4950
 7530TIP3    H222555   0.230   0.091   4.246  0.7601 -0.0008 -0.5005
 7531TIP3   OH222556   5.449   5.014   3.852  0.1961 -0.1508  0.3802
 7531TIP3    H122557   5.443   4.951   3.781 -0.3470 -1.0173  1.1689
 7531TIP3    H222558   5.542   5.036   3.857 -0.0792  2.1400 -2.4328
 7532TIP3   OH222559   3.149   1.138   5.110  0.0578 -0.5370 -0.1131
 7532TIP3    H122560   3.121   1.051   5.138 -0.4309 -0.2754  0.2130
 7532TIP3    H222561   3.175   1.126   5.018 -1.0971 -0.7849 -0.4192
 7533TIP3   OH222562   3.632   5.111   1.460  0.1809 -0.2153  0.4207
 7533TIP3    H122563   3.597   5.192   1.497  0.7157  0.5865 -0.7921
 7533TIP3    H222564   3.609   5.044   1.525 -3.1418  0.3267 -0.0007
 7534TIP3   OH222565   6.650   0.387   3.317 -0.0864  0.0713 -0.0727
 7534TIP3    H122566   6.645   0.461   3.379 -0.4957  1.3036 -1.5131
 7534TIP3    H222567   6.694   0.423   3.241 -2.3454 -0.4784 -1.7361
 7535TIP3   OH222568   0.928   2.176   0.133  0.7963 -0.3920  0.0908
 7535TIP3    H122569   1.016   2.168   0.096  1.0479 -0.0217  0.5777
 7535TIP3    H222570   0.908   2.270   0.125 -0.0129 -0.6498 -1.0174
 7536TIP3   OH222571   7.005   1.820   2.118  0.4225 -0.0987 -0.4165
 7536TIP3    H122572   7.087   1.867   2.135  0.5844 -0.4533 -0.2096
 7536TIP3    H222573   7.016   1.736   2.163  0.4332 -0.6279 -1.3831
 7537TIP3   OH222574   2.334   6.776   1.956  0.4572 -0.0445  0.2455
 7537TIP3    H122575   2.368   6.864   1.971  2.3647 -0.5141 -0.9054
 7537TIP3    H222576   2.408   6.719   1.976  0.0922 -1.2126 -1.5560
 7538TIP3   OH222577   6.773   4.986   1.185 -0.0367 -0.1138 -0.0535
 7538TIP3    H122578   6.749   4.930   1.259 -1.1058 -1.2788 -1.2081
 7538TIP3    H222579   6.769   4.928   1.109 -0.3314  1.3339 -1.2033
 7539TIP3   OH222580   1.071   0.354   3.113  0.4444 -0.1268  0.2051
 7539TIP3    H122581   0.978   0.367   3.128 -0.0103 -1.1009 -1.4572
 7539TIP3    H222582   1.080   0.259   3.101  1.3682  0.0906 -1.1266
 7540TIP3   OH222583   6.629   4.359   1.403  0.3698 -0.0569  0.0610
 7540TIP3    H122584   6.699   4.295   1.413 -0.1521 -0.5106  0.8623
 7540TIP3    H222585   6.590   4.338   1.318 -0.9263 -1.9612  1.0757
 7541TIP3   OH222586   0.370   5.098   3.505 -0.0350  0.1696  0.0150
 7541TIP3    H122587   0.453   5.062   3.538 -0.7567 -0.7899  0.8412
 7541TIP3    H222588   0.359   5.058   3.419  0.2682  0.1508 -0.0160
 7542TIP3   OH222589   6.485   0.677   5.903  0.0421 -0.1333  0.0886
 7542TIP3    H122590   6.505   0.585   5.919 -0.0677 -0.2860 -0.6052
 7542TIP3    H222591   6.493   0.686   5.808 -1.6288  0.1709 -0.0427
 7543TIP3   OH222592   2.066   0.374   2.469  0.2612  0.0654  0.3271
 7543TIP3    H122593   1.992   0.434   2.459  0.4513  0.1662 -0.5294
 7543TIP3    H222594   2.034   0.291   2.431 -0.0119 -0.4055  1.5254
 7544TIP3   OH222595   0.568   3.065   5.842 -0.0585 -0.3219 -0.4360
 7544TIP3    H122596   0.640   3.107   5.794  1.3890 -0.8595  1.1689
 7544TIP3    H222597   0.564   3.112   5.925 -0.4841 -1.3509  0.1376
 7545TIP3   OH222598   2.237   4.302   0.370 -0.3238  0.0794 -0.4292
 7545TIP3    H122599   2.263   4.350   0.449 -0.6267 -1.3901  0.5919
 7545TIP3    H222600   2.177   4.234   0.402 -1.1167 -0.0191 -2.0404
 7546TIP3   OH222601   4.111   4.750   2.579 -0.0401  0.0071  0.0875
 7546TIP3    H122602   4.180   4.714   2.524  0.6170  0.3653  0.6739
 7546TIP3    H222603   4.071   4.819   2.525  1.0301  0.8011  0.2814
 7547TIP3   OH222604   6.422   5.463   2.741  0.3861 -0.2114  0.3483
 7547TIP3    H122605   6.433   5.373   2.772  1.0839 -0.1256  0.3680
 7547TIP3    H222606   6.444   5.517   2.817 -1.1621 -0.0118  0.7004
 7548TIP3   OH222607   2.572   3.587   0.439 -0.1695 -0.7937  0.3620
 7548TIP3    H122608   2.558   3.650   0.509  0.2526 -1.0453  0.6770
 7548TIP3    H222609   2.503   3.522   0.451 -0.0828 -0.8497  0.5596
 7549TIP3   OH222610   3.339   6.393   1.548  0.5056  0.5519 -0.2087
 7549TIP3    H122611   3.328   6.301   1.527 -0.6401  0.6425 -0.0750
 7549TIP3    H222612   3.428   6.414   1.518  0.2615 -0.2291 -1.5854
 7550TIP3   OH222613   2.101   4.212   1.161  0.3981 -0.2276  0.1941
 7550TIP3    H122614   2.176   4.203   1.220  1.5746  0.5533 -1.1137
 7550TIP3    H222615   2.040   4.269   1.208  0.8590 -0.4177  1.0433
 7551TIP3   OH222616   3.904   1.672   4.349 -0.5829  0.0547  0.3357
 7551TIP3    H122617   3.974   1.732   4.325 -0.4737  0.2468  1.1039
 7551TIP3    H222618   3.825   1.711   4.311 -0.6573  1.1884  1.5609
 7552TIP3   OH222619   4.602   4.442   0.105 -0.5281  0.0603  0.6214
 7552TIP3    H122620   4.620   4.406   0.192  1.4523 -1.2246 -0.2426
 7552TIP3    H222621   4.660   4.517   0.097  0.1215 -0.4813  0.0450
 7553TIP3   OH222622   3.677   2.437   5.568  0.5516 -0.6708  0.1859
 7553TIP3    H122623   3.665   2.453   5.474  1.1646 -1.4431 -0.0374
 7553TIP3    H222624   3.671   2.342   5.577 -0.4936 -0.5333  1.0951
 7554TIP3   OH222625   1.081   1.623   0.490  0.3202  0.9484  0.2014
 7554TIP3    H122626   1.176   1.607   0.487  0.1149 -0.1082 -1.7359
 7554TIP3    H222627   1.053   1.583   0.572  1.5893  1.6032  0.9884
 7555TIP3   OH222628   3.043   2.362   5.652  0.2110  0.4873  0.1702
 7555TIP3    H122629   3.035   2.419   5.575  0.4512  0.0469 -0.1847
 7555TIP3    H222630   3.079   2.280   5.617 -0.4532 -0.0023  0.6182
 7556TIP3   OH222631   1.452   0.917   3.837  0.3690 -0.1771 -0.0366
 7556TIP3    H122632   1.515   0.981   3.870  1.3659 -0.8653 -0.5509
 7556TIP3    H222633   1.406   0.964   3.767 -0.7412  0.8019  1.2908
 7557TIP3   OH222634   6.485   4.566   5.316  0.0559  0.6350  0.5229
 7557TIP3    H122635   6.417   4.511   5.278  1.3537 -1.0767  0.5381
 7557TIP3    H222636   6.476   4.650   5.273 -0.7486 -0.1939 -0.9845
 7558TIP3   OH222637   4.999   1.595   4.849 -0.3658  0.3233 -0.2838
 7558TIP3    H122638   4.937   1.570   4.781 -2.1172  3.3021  0.0124
 7558TIP3    H222639   4.974   1.685   4.872  1.0841  0.0054  3.2221
 7559TIP3   OH222640   5.155   0.167   5.028 -0.3897 -0.0491 -0.1217
 7559TIP3    H122641   5.106   0.145   4.949  1.0186  1.2616 -1.4139
 7559TIP3    H222642   5.242   0.128   5.014 -0.4944 -0.8781  1.3585
 7560TIP3   OH222643   7.131   3.221   5.482  1.0247  0.3633  0.0581
 7560TIP3    H122644   7.132   3.256   5.571  2.6064  0.1621  0.1534
 7560TIP3    H222645   7.219   3.187   5.469  0.4602 -0.7247 -1.1593
 7561TIP3   OH222646   2.661   0.806   1.466  0.7314  0.2928 -0.4572
 7561TIP3    H122647   2.732   0.821   1.404  2.3821 -0.6226  1.1245
 7561TIP3    H222648   2.674   0.716   1.496 -0.7388  0.3179  0.3499
 7562TIP3   OH222649   2.101   4.908   1.282  0.1830 -0.2779 -0.1448
 7562TIP3    H122650   2.182   4.937   1.241 -0.1290 -0.6527 -1.0397
 7562TIP3    H222651   2.127   4.830   1.332  0.8163  0.8956  1.4504
 7563TIP3   OH222652   2.045   0.938   1.153 -0.0445 -0.0164 -0.3513
 7563TIP3    H122653   1.975   0.892   1.199  0.2503  1.3328  1.5935
 7563TIP3    H222654   2.110   0.957   1.221  0.5087  1.9298 -1.3460
 7564TIP3   OH222655   3.974   4.578   0.169  0.4795  0.5488  0.0028
 7564TIP3    H122656   4.016   4.493   0.181  0.0533  0.0539 -1.7555
 7564TIP3    H222657   3.946   4.579   0.078  2.2182  3.3740 -0.6571
 7565TIP3   OH222658   1.680   0.539   3.954 -0.1936  0.7052  0.3770
 7565TIP3    H122659   1.760   0.581   3.922 -0.6251  0.5863 -0.9196
 7565TIP3    H222660   1.683   0.450   3.919 -1.2843  0.9543 -0.4368
 7566TIP3   OH222661   0.304   6.067   5.139  0.2335  0.4709 -0.4571
 7566TIP3    H122662   0.395   6.063   5.168 -0.4994 -0.1361  2.0347
 7566TIP3    H222663   0.274   6.153   5.169  0.0229  0.7868 -1.5218
 7567TIP3   OH222664   0.362   2.392   0.287 -0.1909 -0.0246 -0.3750
 7567TIP3    H122665   0.367   2.445   0.366  2.4027 -1.4268  0.5254
 7567TIP3    H222666   0.384   2.304   0.316 -2.3691 -1.2884 -2.1580
 7568TIP3   OH222667   3.583   4.536   1.175 -0.0261  0.1599 -0.0715
 7568TIP3    H122668   3.511   4.536   1.112  1.1645 -1.7436 -1.5301
 7568TIP3    H222669   3.589   4.446   1.206  1.0200  0.5343  0.9095
 7569TIP3   OH222670   6.191   1.004   4.692  0.0060  0.4131 -0.2377
 7569TIP3    H122671   6.268   1.042   4.734 -1.3591  1.9332  1.0768
 7569TIP3    H222672   6.173   1.061   4.617 -2.4778  3.1605  2.1558
 7570TIP3   OH222673   4.676   3.978   1.798  0.1717  0.0669 -0.0387
 7570TIP3    H122674   4.738   4.049   1.814  0.5307  0.1345 -1.6026
 7570TIP3    H222675   4.645   3.954   1.885  2.5460 -0.1258  0.8338
 7571TIP3   OH222676   1.106   5.152   0.366 -0.7247 -0.1369  0.1935
 7571TIP3    H122677   1.016   5.140   0.395 -0.1443 -0.3230  2.0044
 7571TIP3    H222678   1.157   5.094   0.421  0.4943 -0.2777 -1.0317
 7572TIP3   OH222679   3.037   4.563   0.842 -0.0591 -0.1221 -0.5831
 7572TIP3    H122680   2.952   4.536   0.808 -0.0485 -1.3333  0.2915
 7572TIP3    H222681   3.099   4.499   0.807  0.4464  0.5575 -0.9464
 7573TIP3   OH222682   5.346   2.718   3.195  0.1532 -0.4021  0.3002
 7573TIP3    H122683   5.269   2.667   3.220  0.9004 -1.2432  0.9397
 7573TIP3    H222684   5.411   2.700   3.264  0.4777  1.3430  0.4952
 7574TIP3   OH222685   6.324   4.934   0.831  0.3397  0.2314  0.5049
 7574TIP3    H122686   6.337   5.027   0.850  1.1462  0.1440  0.4000
 7574TIP3    H222687   6.274   4.933   0.749  0.3528  0.5723  0.4925
 7575TIP3   OH222688   4.986   5.321   3.827  0.4105 -0.4605 -0.0108
 7575TIP3    H122689   4.966   5.253   3.763  1.1587  0.4658 -1.2728
 7575TIP3    H222690   5.078   5.306   3.849 -0.0377 -1.2226  1.4364
 7576TIP3   OH222691   4.544   0.044   0.685  0.0542  0.2711  0.3475
 7576TIP3    H122692   4.618   0.083   0.733  1.5469 -0.5978 -1.1445
 7576TIP3    H222693   4.492   0.119   0.657  0.3001  0.9031  1.5101
 7577TIP3   OH222694   4.439   4.944   5.604 -0.3696 -0.1484  0.1507
 7577TIP3    H122695   4.388   4.907   5.676 -1.3709 -1.1343 -1.0033
 7577TIP3    H222696   4.392   4.916   5.525  1.5989 -0.5358 -0.9581
 7578TIP3   OH222697   1.774   4.376   4.079  0.1184  0.5930  0.1045
 7578TIP3    H122698   1.798   4.292   4.119 -0.3920  0.6884  0.6055
 7578TIP3    H222699   1.743   4.352   3.991 -0.1368  0.2454  0.2875
 7579TIP3   OH222700   3.373   2.690   4.918 -0.9011  0.3697 -0.0000
 7579TIP3    H122701   3.419   2.773   4.909 -0.7685  0.1741 -1.5423
 7579TIP3    H222702   3.440   2.624   4.898 -1.0896 -0.0899  0.8629
 7580TIP3   OH222703   4.742   0.129   4.286 -0.4273 -0.1886  0.9661
 7580TIP3    H122704   4.778   0.199   4.230 -1.5030  0.9860  1.6859
 7580TIP3    H222705   4.683   0.080   4.228 -0.4642  0.1485  0.7162
 7581TIP3   OH222706   4.172   4.466   5.113  0.0520 -0.3048  0.0557
 7581TIP3    H122707   4.114   4.395   5.086 -1.0456  0.7694 -0.4894
 7581TIP3    H222708   4.118   4.545   5.109  1.3382  0.6305  0.2914
 7582TIP3   OH222709   1.528   4.428   2.357  0.5993 -0.6853  0.6440
 7582TIP3    H122710   1.476   4.506   2.336 -0.4698 -1.7594 -0.9835
 7582TIP3    H222711   1.601   4.431   2.295  0.0210 -1.4543 -0.0910
 7583TIP3   OH222712   4.809   0.602   3.391  0.5213  0.4383 -0.5561
 7583TIP3    H122713   4.844   0.513   3.400 -0.5661 -0.0627 -1.0580
 7583TIP3    H222714   4.887   0.657   3.380  1.2405 -0.3648  0.3456
 7584TIP3   OH222715   0.570   6.036   5.162 -0.5539  0.2818 -0.4219
 7584TIP3    H122716   0.587   6.041   5.068  0.6419  0.2387 -0.2153
 7584TIP3    H222717   0.647   6.076   5.202 -0.4745 -0.8596  0.5869
 7585TIP3   OH222718   2.956   5.288   2.374  0.3300  0.0321 -0.5074
 7585TIP3    H122719   3.017   5.223   2.409  0.4576  0.1301 -0.5457
 7585TIP3    H222720   3.003   5.372   2.383  0.2578  0.0900 -0.6673
 7586TIP3   OH222721   4.034   6.062   4.940  0.4256  0.6917 -0.3508
 7586TIP3    H122722   3.970   5.994   4.920 -0.9197  2.2015 -1.4267
 7586TIP3    H222723   3.987   6.125   4.993  0.6869  2.3058 -1.9419
 7587TIP3   OH222724   3.454   6.414   0.836 -0.3237  0.6633  0.6020
 7587TIP3    H122725   3.527   6.474   0.852 -1.1777  1.9585 -0.2861
 7587TIP3    H222726   3.389   6.436   0.903 -0.9946  1.3354 -0.2517
 7588TIP3   OH222727   4.359   2.420   1.076  0.5848  0.5699  0.0143
 7588TIP3    H122728   4.298   2.380   1.014  1.3371  1.4311 -1.3343
 7588TIP3    H222729   4.308   2.488   1.120  0.5465  1.2764 -1.0944
 7589TIP3   OH222730   6.571   5.831   4.225 -0.0487  0.1076 -0.3661
 7589TIP3    H122731   6.598   5.900   4.165  1.4384 -0.9647 -1.0088
 7589TIP3    H222732   6.624   5.845   4.304  0.6711 -0.5933 -0.7095
 7590TIP3   OH222733   5.839   3.270   5.718 -0.7327  0.2085  0.5770
 7590TIP3    H122734   5.892   3.218   5.658 -0.0383 -0.6025  1.8601
 7590TIP3    H222735   5.856   3.233   5.804  0.2711  2.9419  1.6493
 7591TIP3   OH222736   3.724   4.110   4.611  0.2391  0.2398 -0.3441
 7591TIP3    H122737   3.638   4.069   4.600 -0.1615 -0.4950  3.9855
 7591TIP3    H222738   3.707   4.204   4.597 -0.7787 -0.0746 -1.4339
 7592TIP3   OH222739   6.787   4.209   4.943  0.2745  0.4647  0.3107
 7592TIP3    H122740   6.829   4.216   5.029  1.0059  0.7986 -0.0637
 7592TIP3    H222741   6.774   4.300   4.915  1.7967  0.3872 -0.7547
 7593TIP3   OH222742   1.012   2.952   1.639 -0.6795  0.2739  0.4945
 7593TIP3    H122743   0.999   3.046   1.650 -0.4533  0.3010  0.5421
 7593TIP3    H222744   1.039   2.921   1.726 -4.6425 -0.5403  1.6404
 7594TIP3   OH222745   2.433   0.249   3.971 -0.4639 -0.4566  0.6320
 7594TIP3    H122746   2.483   0.205   4.040  0.5482 -0.0506  0.1681
 7594TIP3    H222747   2.451   0.342   3.984 -0.8367 -0.3272  0.2514
 7595TIP3   OH222748   7.192   3.203   2.067  0.2452 -0.4222 -0.3614
 7595TIP3    H122749   7.169   3.293   2.090 -0.1183 -0.5334 -0.2854
 7595TIP3    H222750   7.233   3.210   1.980  0.5785 -0.1395 -0.1815
 7596TIP3   OH222751   4.489   2.474   1.408  0.5882  0.0649 -0.3810
 7596TIP3    H122752   4.424   2.423   1.359  0.1960  1.5639 -1.4892
 7596TIP3    H222753   4.573   2.451   1.369  0.4503 -0.0030 -0.6367
 7597TIP3   OH222754   6.352   6.468   0.760 -0.0997 -0.2699  0.1314
 7597TIP3    H122755   6.291   6.408   0.802 -0.9100  0.3188 -0.1763
 7597TIP3    H222756   6.431   6.464   0.815 -0.4427 -0.9710  0.5878
 7598TIP3   OH222757   4.433   3.027   4.722 -0.2774 -0.5818  0.6171
 7598TIP3    H122758   4.510   3.078   4.749 -1.0025  0.1842  1.3106
 7598TIP3    H222759   4.362   3.059   4.778 -1.5699  0.1212 -1.3034
 7599TIP3   OH222760   1.444   1.766   5.904  0.4521  0.0662 -0.2132
 7599TIP3    H122761   1.419   1.856   5.882 -1.4781 -0.5429 -0.7048
 7599TIP3    H222762   1.497   1.737   5.829 -0.1730  0.3135 -0.7609
 7600TIP3   OH222763   5.698   3.265   4.948  0.0696  0.3063  0.1822
 7600TIP3    H122764   5.694   3.188   4.890 -2.1741  1.2805 -1.0997
 7600TIP3    H222765   5.735   3.334   4.893 -1.2668  1.0191  0.1295
 7601TIP3   OH222766   6.175   0.835   5.010 -0.5316 -0.0207 -0.0694
 7601TIP3    H122767   6.200   0.743   5.007 -0.0531  0.0802  0.6772
 7601TIP3    H222768   6.223   0.875   4.938 -0.2381 -0.2362  0.0060
 7602TIP3   OH222769   2.614   0.082   3.009 -0.5659  0.2025  0.4918
 7602TIP3    H122770   2.584   0.013   2.949  0.1781  0.8421 -0.6592
 7602TIP3    H222771   2.691   0.044   3.052 -0.8656 -0.1146  0.7587
 7603TIP3   OH222772   3.300   2.355   5.358  0.1904  0.0144 -0.2435
 7603TIP3    H122773   3.284   2.326   5.268 -0.7819 -1.1151  0.2677
 7603TIP3    H222774   3.254   2.438   5.365 -0.9907 -0.6024 -0.3828
 7604TIP3   OH222775   3.780   4.060   4.230 -0.0426 -0.2580 -0.1436
 7604TIP3    H122776   3.859   4.006   4.220  1.4487  1.6205  0.7437
 7604TIP3    H222777   3.716   4.001   4.271  1.6596 -1.2439  1.2663
 7605TIP3   OH222778   3.010   5.651   3.324 -0.2757  0.0687 -0.1901
 7605TIP3    H122779   3.074   5.721   3.336 -0.1511 -0.2095  0.8035
 7605TIP3    H222780   3.040   5.604   3.246 -0.3046  1.0422 -0.8072
 7606TIP3   OH222781   1.406   1.580   2.310 -0.1912  0.3576  0.0296
 7606TIP3    H122782   1.310   1.574   2.304 -0.0627 -0.8360 -1.4558
 7606TIP3    H222783   1.432   1.501   2.359  0.0834  0.2252 -0.3263
 7607TIP3   OH222784   6.385   2.192   2.432  0.0314  0.2984  0.5284
 7607TIP3    H122785   6.377   2.132   2.358  0.3798  0.7765  0.0888
 7607TIP3    H222786   6.303   2.184   2.479 -0.8158  1.0845 -0.7609
 7608TIP3   OH222787   3.348   4.319   0.548  0.2836 -0.7817 -0.0486
 7608TIP3    H122788   3.411   4.248   0.552  0.3188 -0.8472 -1.2999
 7608TIP3    H222789   3.321   4.322   0.456  0.9870  1.4179 -0.2479
 7609TIP3   OH222790   7.091   5.071   4.736  0.1886  0.0524 -0.0704
 7609TIP3    H122791   7.159   5.139   4.736  1.1687 -0.8741  1.6981
 7609TIP3    H222792   7.128   5.000   4.684  0.0752 -0.0130 -0.0624
 7610TIP3   OH222793   2.888   1.526   4.963 -0.7285  0.4151 -0.4849
 7610TIP3    H122794   2.954   1.457   4.967 -0.2066  0.8248 -1.6173
 7610TIP3    H222795   2.860   1.528   4.872 -0.9151  1.5159 -0.4212
 7611TIP3   OH222796   3.334   2.080   0.242  0.2540  0.3643  0.5342
 7611TIP3    H122797   3.423   2.048   0.257 -0.0228  0.0476  1.5474
 7611TIP3    H222798   3.282   2.000   0.233  0.2990  0.5249 -1.6426
 7612TIP3   OH222799   5.735   4.016   1.714 -0.0354  0.1185  0.5668
 7612TIP3    H122800   5.751   3.931   1.756  0.9892  0.4463  0.8828
 7612TIP3    H222801   5.803   4.073   1.751 -0.4954  0.9817  0.0919
 7613TIP3   OH222802   5.508   2.121   5.308 -0.1761  0.2723  0.2767
 7613TIP3    H122803   5.492   2.203   5.262  1.1918 -0.9391 -2.5813
 7613TIP3    H222804   5.580   2.140   5.368 -0.9761  1.5264  0.8786
 7614TIP3   OH222805   4.329   6.508   4.374  0.2402  0.4227 -0.3743
 7614TIP3    H122806   4.423   6.493   4.382 -0.1562 -1.8440  0.7244
 7614TIP3    H222807   4.306   6.556   4.453  0.3576  0.2883 -0.2578
 7615TIP3   OH222808   4.504   3.981   0.599 -0.2205 -0.1643  0.4512
 7615TIP3    H122809   4.414   3.967   0.627 -0.3477  1.3396  0.9302
 7615TIP3    H222810   4.520   4.074   0.616  0.6263  0.1894 -1.9134
 7616TIP3   OH222811   6.740   5.664   3.981  0.4323 -0.0745  0.3160
 7616TIP3    H122812   6.712   5.580   4.019  1.4212 -0.9772 -0.8614
 7616TIP3    H222813   6.764   5.717   4.057 -0.7792 -0.6166  1.1261
 7617TIP3   OH222814   4.227   0.220   0.371  0.3559  0.2664  0.1201
 7617TIP3    H122815   4.292   0.280   0.409 -0.3087  1.5011 -0.6237
 7617TIP3    H222816   4.143   0.251   0.406  0.0481 -0.5898  0.1638
 7618TIP3   OH222817   2.527   1.167   3.190 -0.0012 -0.0229 -0.1767
 7618TIP3    H122818   2.497   1.104   3.256 -0.3434 -0.0798 -0.3848
 7618TIP3    H222819   2.575   1.233   3.241 -1.8832  0.9769  0.3988
 7619TIP3   OH222820   2.084   4.885   4.401  0.2774 -1.0895 -0.1431
 7619TIP3    H122821   2.095   4.792   4.422 -1.4726 -0.8565  2.2940
 7619TIP3    H222822   2.163   4.927   4.434  0.7489 -1.6077 -0.5937
 7620TIP3   OH222823   4.737   0.126   0.413  0.1444  0.1997 -0.2627
 7620TIP3    H122824   4.722   0.219   0.397 -0.7991  0.2100  0.5803
 7620TIP3    H222825   4.687   0.082   0.344  0.8041  0.3162 -0.8199
 7621TIP3   OH222826   1.155   6.200   0.638  0.1660 -0.5839  0.8324
 7621TIP3    H122827   1.063   6.189   0.614  0.4778  0.3827 -0.9303
 7621TIP3    H222828   1.158   6.177   0.731 -2.2992  1.6163  1.5610
 7622TIP3   OH222829   5.105   2.867   1.040 -0.4022  0.7035  0.1544
 7622TIP3    H122830   5.093   2.950   0.994 -1.0490  0.7758  0.4404
 7622TIP3    H222831   5.017   2.833   1.053 -0.1503  0.0302  0.1561
 7623TIP3   OH222832   5.546   0.589   3.697  0.5434 -0.1856  0.5625
 7623TIP3    H122833   5.610   0.606   3.767  1.4719  1.9301 -0.7165
 7623TIP3    H222834   5.581   0.634   3.621 -1.4235 -0.8019 -0.7871
 7624TIP3   OH222835   6.013   4.146   5.605 -0.3422  0.0088 -0.3155
 7624TIP3    H122836   6.050   4.234   5.609 -0.8558  0.3001 -1.4620
 7624TIP3    H222837   6.088   4.088   5.593  0.2107  0.0569  2.4046
 7625TIP3   OH222838   1.196   3.192   4.144  0.4019  0.3510  0.1996
 7625TIP3    H122839   1.186   3.263   4.207  2.7680  0.1260  0.9637
 7625TIP3    H222840   1.123   3.202   4.084 -2.1128  0.4889  3.0267
 7626TIP3   OH222841   6.050   1.523   5.066 -0.1879 -0.2068 -0.4182
 7626TIP3    H122842   6.020   1.544   5.154  1.9169  0.3962  0.2161
 7626TIP3    H222843   6.112   1.450   5.078  0.8040  0.4659 -1.2521
 7627TIP3   OH222844   5.898   5.292   1.372  0.3018 -0.2219  0.0724
 7627TIP3    H122845   5.805   5.316   1.376  0.2584 -0.2292 -0.7619
 7627TIP3    H222846   5.934   5.348   1.303  1.2976  1.0001  1.5224
 7628TIP3   OH222847   4.646   1.195   2.454 -0.0063  0.0091  0.2514
 7628TIP3    H122848   4.626   1.129   2.388 -0.3384  0.6693 -0.3223
 7628TIP3    H222849   4.572   1.192   2.515 -1.8431  2.2176 -1.6812
 7629TIP3   OH222850   1.295   0.843   1.766  0.0978  0.2963 -0.0789
 7629TIP3    H122851   1.229   0.908   1.790  1.3014  1.3311  0.5322
 7629TIP3    H222852   1.306   0.791   1.846  0.0503  0.1435 -0.1717
 7630TIP3   OH222853   4.088   4.872   0.283  0.4630 -0.1411 -0.2432
 7630TIP3    H122854   4.011   4.927   0.271  2.1759  2.3539 -0.5895
 7630TIP3    H222855   4.108   4.838   0.196 -0.0950 -0.6380 -0.1861
 7631TIP3   OH222856   4.050   6.002   0.930  0.5129  0.1523 -0.0806
 7631TIP3    H122857   3.955   5.996   0.940  0.6021 -0.0279  0.7506
 7631TIP3    H222858   4.076   5.916   0.895  0.5405 -0.4059  1.2441
 7632TIP3   OH222859   3.162   0.365   4.429 -0.6160  0.8034  0.0093
 7632TIP3    H122860   3.082   0.418   4.425 -0.8038  0.6366  1.1770
 7632TIP3    H222861   3.131   0.275   4.430 -0.4617  0.7475  1.0472
 7633TIP3   OH222862   3.208   3.478   2.939 -0.4895 -0.0699  0.3794
 7633TIP3    H122863   3.209   3.427   2.858 -1.0616 -1.2918  1.1205
 7633TIP3    H222864   3.133   3.445   2.988  0.2023  0.2149  1.6847
 7634TIP3   OH222865   2.844   0.608   1.290  0.0676  0.2704  0.5914
 7634TIP3    H122866   2.820   0.531   1.341 -1.0584  0.6356  0.6381
 7634TIP3    H222867   2.786   0.605   1.214  0.3394  0.8279  0.3569
 7635TIP3   OH222868   1.349   6.428   2.936 -0.9364 -0.4316  0.0124
 7635TIP3    H122869   1.334   6.358   2.999 -2.2201  0.1662  0.3954
 7635TIP3    H222870   1.317   6.507   2.979 -0.5933  0.2040 -0.8700
 7636TIP3   OH222871   3.764   1.703   5.464 -0.1672 -0.4199 -1.0963
 7636TIP3    H122872   3.826   1.644   5.507  1.0351 -2.0206 -4.6395
 7636TIP3    H222873   3.678   1.666   5.485  0.2136 -0.2176  1.0390
 7637TIP3   OH222874   6.206   3.451   4.088 -0.3611 -0.5256  0.6045
 7637TIP3    H122875   6.170   3.539   4.076  0.7535 -0.0393  0.7265
 7637TIP3    H222876   6.132   3.393   4.070 -1.1702  0.4305  0.7086
 7638TIP3   OH222877   3.840   4.303   0.653 -0.6306 -0.2843 -0.1930
 7638TIP3    H122878   3.928   4.275   0.626 -0.5675  0.1559 -0.4454
 7638TIP3    H222879   3.825   4.385   0.607 -1.6580 -0.9425 -1.0860
 7639TIP3   OH222880   5.637   1.408   1.548  0.2146  0.6789 -0.0712
 7639TIP3    H122881   5.618   1.501   1.548 -0.3184  0.6206 -2.1208
 7639TIP3    H222882   5.552   1.366   1.557  0.1711  0.4141 -1.5153
 7640TIP3   OH222883   6.605   3.023   2.628 -0.0822  0.0323  0.2552
 7640TIP3    H122884   6.642   3.108   2.604 -0.3614  0.7230  2.1043
 7640TIP3    H222885   6.678   2.962   2.620  1.1563  1.1224  2.4495
 7641TIP3   OH222886   2.410   0.092   2.095  0.1018 -0.0927 -0.1031
 7641TIP3    H122887   2.347   0.152   2.054  0.2494  0.0315 -0.1459
 7641TIP3    H222888   2.447   0.043   2.022 -1.0101 -1.2007  0.0382
 7642TIP3   OH222889   2.401   3.345   2.814  0.5343  0.3780  0.1204
 7642TIP3    H122890   2.325   3.307   2.770  0.0184  0.1680  1.1664
 7642TIP3    H222891   2.455   3.379   2.742  1.4682 -2.9909 -0.9794
 7643TIP3   OH222892   4.963   4.190   4.947 -0.7658 -0.2637  0.2800
 7643TIP3    H122893   4.929   4.133   4.879  2.2808  0.0847 -1.7330
 7643TIP3    H222894   4.906   4.267   4.946 -1.5536 -0.8481 -0.9441
 7644TIP3   OH222895   7.079   1.420   5.572  0.3492  0.1598 -0.3064
 7644TIP3    H122896   7.155   1.411   5.516 -0.1375  1.6294 -1.2555
 7644TIP3    H222897   7.008   1.379   5.524  0.6712 -2.0533  0.9849
 7645TIP3   OH222898   5.273   0.467   1.558 -0.6713 -0.1175 -0.2721
 7645TIP3    H122899   5.274   0.444   1.651 -0.0114 -1.3719 -0.5728
 7645TIP3    H222900   5.363   0.494   1.540 -1.2717  2.1911 -0.0864
 7646TIP3   OH222901   1.084   3.811   1.692 -0.5150  0.7692 -0.3776
 7646TIP3    H122902   1.021   3.754   1.737  0.5566  1.1851  1.8142
 7646TIP3    H222903   1.055   3.900   1.713  0.8461  0.9618  0.8031
 7647TIP3   OH222904   1.197   6.470   5.256  0.0424  0.3579 -0.3458
 7647TIP3    H122905   1.245   6.394   5.288 -1.7976 -0.9222 -0.5119
 7647TIP3    H222906   1.105   6.449   5.271 -0.5217  2.5430 -0.4359
 7648TIP3   OH222907   3.526   5.271   1.239 -1.3234  0.1368 -0.0382
 7648TIP3    H122908   3.594   5.338   1.227 -1.6879  0.7481  1.1746
 7648TIP3    H222909   3.559   5.215   1.308 -0.1799 -2.1158 -2.2545
 7649TIP3   OH222910   4.056   3.740   0.075  0.0130 -0.5675  0.2256
 7649TIP3    H122911   3.966   3.726   0.048 -0.0215  0.3446 -0.1822
 7649TIP3    H222912   4.054   3.823   0.123  0.5827 -0.6900  0.4723
 7650TIP3   OH222913   3.503   1.906   4.972 -0.0680  0.2767  0.0575
 7650TIP3    H122914   3.521   1.954   5.053  0.9229 -1.6099  1.0542
 7650TIP3    H222915   3.571   1.934   4.912  0.3667  0.3008  0.5497
 7651TIP3   OH222916   4.692   4.185   4.297  0.5198  0.1266 -0.1100
 7651TIP3    H122917   4.694   4.278   4.274 -2.0025  0.8856  2.1358
 7651TIP3    H222918   4.686   4.184   4.393  1.0975 -2.3956 -0.0220
 7652TIP3   OH222919   2.757   0.800   1.887 -0.2682  0.1425  0.2431
 7652TIP3    H122920   2.724   0.876   1.935 -1.8904  0.1902 -0.8619
 7652TIP3    H222921   2.842   0.827   1.853 -0.3094  1.0437  0.8307
 7653TIP3   OH222922   4.312   0.592   1.399 -0.3846 -0.0623 -0.0262
 7653TIP3    H122923   4.273   0.505   1.409 -0.5222  0.1439  1.5871
 7653TIP3    H222924   4.346   0.613   1.487 -1.7138  2.1408  0.0254
 7654TIP3   OH222925   6.017   3.305   3.952  0.1500  0.2465  0.5159
 7654TIP3    H122926   6.047   3.231   3.899 -0.5899 -1.3119  2.1502
 7654TIP3    H222927   5.933   3.277   3.987 -0.3641  2.0774  0.8353
 7655TIP3   OH222928   4.243   2.576   2.891 -0.0306  0.5499 -0.4882
 7655TIP3    H122929   4.338   2.591   2.898 -0.0907  0.7865 -0.0973
 7655TIP3    H222930   4.235   2.497   2.839  0.4755 -0.8572  1.4599
 7656TIP3   OH222931   5.632   1.260   3.489 -0.0250 -0.0263 -0.8514
 7656TIP3    H122932   5.637   1.353   3.469  0.3831  0.2669  0.4897
 7656TIP3    H222933   5.716   1.241   3.531 -1.1412 -0.3505  1.3827
 7657TIP3   OH222934   3.301   0.900   0.334 -0.0059  0.2369  0.3168
 7657TIP3    H122935   3.210   0.891   0.361 -0.7732  1.2858 -1.7099
 7657TIP3    H222936   3.315   0.829   0.271 -0.4391  1.8809 -1.7356
 7658TIP3   OH222937   1.935   3.807   0.185 -0.0624  0.4393 -0.2974
 7658TIP3    H122938   1.957   3.901   0.184  0.7834  0.2845  1.2928
 7658TIP3    H222939   2.017   3.763   0.165 -0.5696  0.0201 -1.5576
 7659TIP3   OH222940   0.491   5.733   3.331  0.4625  0.6015 -0.2907
 7659TIP3    H122941   0.576   5.691   3.320 -0.2399 -1.5514  1.7649
 7659TIP3    H222942   0.483   5.746   3.425 -1.4823  0.8032 -0.4542
 7660TIP3   OH222943   5.097   2.440   0.780 -0.3497 -0.3870  0.0151
 7660TIP3    H122944   5.105   2.437   0.684 -0.2159  1.1421 -0.0368
 7660TIP3    H222945   5.019   2.492   0.796  0.8741  1.3024  0.7349
 7661TIP3   OH222946   2.339   3.973   1.403  0.6516 -0.2527  0.1180
 7661TIP3    H122947   2.394   3.965   1.325 -0.7672  1.2015 -1.0941
 7661TIP3    H222948   2.278   3.900   1.397 -0.4441  0.7202 -1.0029
 7662TIP3   OH222949   2.062   2.174   0.020 -0.6638 -0.5389 -0.5293
 7662TIP3    H122950   2.131   2.226  -0.021  0.6943 -2.6348 -1.0684
 7662TIP3    H222951   2.003   2.239   0.059  0.5997  1.3854 -1.6359
 7663TIP3   OH222952   0.002   1.978   5.213  0.3316  0.2307  0.4069
 7663TIP3    H122953  -0.039   1.902   5.253  0.4695 -0.2611 -0.3690
 7663TIP3    H222954   0.083   1.945   5.174  0.1821  0.6838 -0.3085
 7664TIP3   OH222955   6.147   5.121   0.186  0.2940 -0.1954  0.4657
 7664TIP3    H122956   6.242   5.131   0.190  0.3091  0.7505 -1.2764
 7664TIP3    H222957   6.116   5.204   0.151 -1.3171 -0.0455  2.1403
 7665TIP3   OH222958   4.716   5.590   0.453 -0.0843  0.3432  0.1527
 7665TIP3    H122959   4.693   5.505   0.414 -0.1568 -0.5910  2.1040
 7665TIP3    H222960   4.801   5.575   0.494 -0.6737  0.8260  1.6077
 7666TIP3   OH222961   6.839   6.296   5.071  0.7833  0.2708  0.0473
 7666TIP3    H122962   6.856   6.265   4.982  0.8854 -1.5793  0.6710
 7666TIP3    H222963   6.899   6.370   5.082  0.0670  1.1908 -1.7267
 7667TIP3   OH222964   0.861   4.421   2.683 -0.1675 -0.3121 -0.1404
 7667TIP3    H122965   0.932   4.475   2.649  0.5831 -0.0527  1.7233
 7667TIP3    H222966   0.785   4.446   2.630  1.0366 -0.4573 -2.0488
 7668TIP3   OH222967   2.490   2.535   1.646 -0.4122 -0.7680  0.0513
 7668TIP3    H122968   2.433   2.482   1.702  1.2952 -0.3149  2.3746
 7668TIP3    H222969   2.512   2.611   1.700  2.9780 -1.2932 -0.3932
 7669TIP3   OH222970   2.970   3.804   5.174 -0.1488 -0.2453 -0.2159
 7669TIP3    H122971   2.876   3.820   5.164  0.1193  1.2871 -0.5444
 7669TIP3    H222972   3.009   3.891   5.182  1.0867 -0.9025  1.6199
 7670TIP3   OH222973   4.627   4.769   0.776  0.1930 -0.2269  0.0784
 7670TIP3    H122974   4.632   4.760   0.872 -2.5087 -2.1323  0.1315
 7670TIP3    H222975   4.554   4.829   0.762 -0.8646 -1.6744 -0.7815
 7671TIP3   OH222976   4.692   1.558   4.135 -0.1075 -0.3024  0.0483
 7671TIP3    H122977   4.719   1.615   4.207 -1.4807 -0.4587  0.7147
 7671TIP3    H222978   4.723   1.471   4.160  0.3666 -0.1776 -0.0866
 7672TIP3   OH222979   5.285   5.087   3.106  0.3493 -0.3804 -0.6232
 7672TIP3    H122980   5.239   5.014   3.066 -0.3489 -1.1116  1.3701
 7672TIP3    H222981   5.220   5.128   3.163  1.3511  0.4126 -0.0101
 7673TIP3   OH222982   1.709   1.303   0.595  0.2144 -0.2514 -0.0527
 7673TIP3    H122983   1.642   1.327   0.659  0.9992 -0.8522  1.0178
 7673TIP3    H222984   1.792   1.315   0.641  1.0509  2.6282 -2.0452
 7674TIP3   OH222985   2.746   1.545   4.706 -0.1338  0.3462 -0.3994
 7674TIP3    H122986   2.687   1.609   4.745  0.5139  1.1509 -0.7059
 7674TIP3    H222987   2.691   1.468   4.691 -1.1514  1.1348 -0.8523
 7675TIP3   OH222988   2.491   1.312   5.046 -0.3913 -0.2962  0.4944
 7675TIP3    H122989   2.493   1.406   5.063 -0.7261 -0.4109  1.1861
 7675TIP3    H222990   2.504   1.272   5.132  1.4228 -0.8819 -0.0077
 7676TIP3   OH222991   0.561   3.442   0.048  0.0706 -0.6419  0.3148
 7676TIP3    H122992   0.546   3.516   0.107 -1.0194  0.6183 -1.4526
 7676TIP3    H222993   0.640   3.465   0.000  0.5306 -1.3113  0.7386
 7677TIP3   OH222994   3.127   3.802   4.089 -0.6775 -0.2768 -0.9550
 7677TIP3    H122995   3.039   3.830   4.063 -0.7851  0.0258 -0.2806
 7677TIP3    H222996   3.185   3.839   4.023 -0.8549  1.1935 -0.3061
 7678TIP3   OH222997   1.983   4.072   0.158 -0.0413  0.0832 -0.2699
 7678TIP3    H122998   2.076   4.071   0.135 -0.2575  1.4531 -1.3116
 7678TIP3    H222999   1.979   4.118   0.241  0.1154  1.0113 -0.7695
 7679TIP3   OH223000   5.484   6.382   0.715  0.2324 -0.4113 -0.5268
 7679TIP3    H123001   5.501   6.357   0.806  0.9282  0.6550 -0.3406
 7679TIP3    H223002   5.481   6.477   0.717 -0.3684 -0.4009 -1.5268
 7680TIP3   OH223003   3.985   6.677   4.756  0.8286 -0.1357  0.1565
 7680TIP3    H123004   4.021   6.590   4.771 -0.4694 -0.2079  3.8076
 7680TIP3    H223005   4.048   6.736   4.798  0.4164  0.4374 -0.0243
 7681TIP3   OH223006   4.744   4.948   4.055 -0.1606 -0.3712 -0.0774
 7681TIP3    H123007   4.799   5.024   4.072  1.6013 -1.5667 -0.2525
 7681TIP3    H223008   4.772   4.916   3.969 -2.3837  0.0166 -1.0258
 7682TIP3   OH223009   0.482   1.499   1.317 -0.2853 -0.1273 -0.0646
 7682TIP3    H123010   0.533   1.455   1.249  0.3751 -0.0832  0.3900
 7682TIP3    H223011   0.512   1.589   1.316  0.4707 -0.3485  0.9549
 7683TIP3   OH223012   3.798   6.409   3.599 -0.2095  0.0049 -0.8737
 7683TIP3    H123013   3.844   6.357   3.664  0.4725  1.0977 -0.4480
 7683TIP3    H223014   3.822   6.370   3.515 -0.9828 -1.3317 -0.5007
 7684TIP3   OH223015   0.418   1.173   1.349 -0.4642 -1.0556  0.1766
 7684TIP3    H123016   0.392   1.225   1.273 -1.2104  0.5653  1.4880
 7684TIP3    H223017   0.513   1.169   1.344 -0.4714 -0.5400 -0.5553
 7685TIP3   OH223018   1.947   0.767   0.027  0.0172 -0.5125  0.1659
 7685TIP3    H123019   1.904   0.831   0.084 -0.1450 -0.0271 -0.4888
 7685TIP3    H223020   1.984   0.702   0.087 -2.2350 -1.3438  0.7538
 7686TIP3   OH223021   1.299   5.176   1.152 -0.0261 -0.3413  0.2797
 7686TIP3    H123022   1.340   5.120   1.086 -0.5659 -1.0425  0.5283
 7686TIP3    H223023   1.322   5.265   1.125 -1.7925 -0.4758 -1.9462
 7687TIP3   OH223024   3.367   0.039   2.670 -0.5218 -0.4599 -0.0984
 7687TIP3    H123025   3.330   0.127   2.659 -0.7406 -0.5332  0.0583
 7687TIP3    H223026   3.429   0.049   2.743  0.5481 -0.0950 -1.0250
 7688TIP3   OH223027   7.016   1.677   1.472  0.1150  0.0682  0.0017
 7688TIP3    H123028   7.082   1.741   1.497  0.1308 -0.3483  1.0430
 7688TIP3    H223029   7.064   1.597   1.454 -0.0251 -0.0023 -0.0646
 7689TIP3   OH223030   2.732   4.064   3.511  0.1386  0.0881 -0.1119
 7689TIP3    H123031   2.743   4.118   3.588 -0.2258  0.9432 -0.6401
 7689TIP3    H223032   2.637   4.061   3.497  0.2216  0.2835 -0.7563
 7690TIP3   OH223033   4.815   5.277   5.135 -0.0430  0.2828  0.3502
 7690TIP3    H123034   4.725   5.251   5.113 -0.9960  3.0030  0.5989
 7690TIP3    H223035   4.822   5.263   5.229 -0.2412  0.1085  0.3391
 7691TIP3   OH223036   6.941   4.538   0.541  0.2329 -0.4979  0.0788
 7691TIP3    H123037   6.853   4.506   0.521  0.0029  1.6036 -2.8725
 7691TIP3    H223038   6.999   4.478   0.494  0.0777  0.5207 -1.4699
 7692TIP3   OH223039   2.875   0.756   4.522  0.3800 -0.5036 -0.0696
 7692TIP3    H123040   2.780   0.758   4.536  0.3709  1.7649 -0.1445
 7692TIP3    H223041   2.912   0.782   4.607  0.7475  2.2851 -1.0028
 7693TIP3   OH223042   3.860   5.109   3.207  0.5283 -0.4261  0.2835
 7693TIP3    H123043   3.837   5.027   3.164  0.5039 -0.2012 -0.1425
 7693TIP3    H223044   3.860   5.174   3.136  0.2338 -0.0005  0.6647
 7694TIP3   OH223045   3.504   2.001   3.357  0.1990  0.1911 -0.1636
 7694TIP3    H123046   3.561   2.011   3.281  0.7355 -1.3471  0.0013
 7694TIP3    H223047   3.459   2.086   3.365  1.9600  1.2226 -0.6867
 7695TIP3   OH223048   4.872   2.974   2.014 -0.2568 -0.2529 -0.5765
 7695TIP3    H123049   4.843   2.916   2.085 -0.5691  0.4008 -0.1651
 7695TIP3    H223050   4.935   3.033   2.055 -1.3380  0.9111 -0.5574
 7696TIP3   OH223051   0.817   1.144   5.776  0.0407  0.7956  0.2966
 7696TIP3    H123052   0.777   1.179   5.856  1.1530 -0.6264  1.5371
 7696TIP3    H223053   0.857   1.061   5.803  0.0612  0.0355 -1.8593
 7697TIP3   OH223054   4.543   1.984   1.392  0.3918 -0.0447  0.0373
 7697TIP3    H123055   4.555   2.053   1.457  0.3816 -0.6405  0.6754
 7697TIP3    H223056   4.555   2.029   1.308 -2.0489  1.2721  0.2927
 7698TIP3   OH223057   2.717   0.668   2.694 -0.3544  0.3806 -0.4852
 7698TIP3    H123058   2.704   0.601   2.627 -2.5972  1.3259 -1.1124
 7698TIP3    H223059   2.710   0.751   2.647 -2.4517  1.0826  0.8840
 7699TIP3   OH223060   1.738   2.312   3.016  0.0154 -0.4310 -1.0296
 7699TIP3    H123061   1.796   2.241   2.989  2.5127  0.2896  1.9356
 7699TIP3    H223062   1.668   2.269   3.064  0.2110 -1.0664 -1.3082
 7700TIP3   OH223063   3.324   6.224   4.778 -0.0047  0.3458 -0.3455
 7700TIP3    H123064   3.358   6.159   4.839  1.6158  0.2526 -1.2777
 7700TIP3    H223065   3.377   6.213   4.699 -3.7844 -1.4450 -2.9352
 7701TIP3   OH223066   6.576   1.018   0.871 -0.1666 -0.4326 -0.5134
 7701TIP3    H123067   6.529   1.066   0.939 -2.9229 -1.2715 -1.7140
 7701TIP3    H223068   6.615   1.087   0.816 -0.9712  0.3381 -0.1410
 7702TIP3   OH223069   1.806   1.860   2.734  0.2765  0.4856 -0.4032
 7702TIP3    H123070   1.889   1.849   2.688  0.6086 -0.0197  0.3081
 7702TIP3    H223071   1.762   1.776   2.723  0.9687 -0.1429  1.3932
 7703TIP3   OH223072   1.038   6.272   1.226  0.4732  0.3309  0.4598
 7703TIP3    H123073   1.123   6.294   1.187 -0.2534  0.0899 -1.3888
 7703TIP3    H223074   0.975   6.303   1.161 -0.8094 -0.5462  1.2661
 7704TIP3   OH223075   0.453   5.176   0.834 -0.0732  0.5019 -0.1974
 7704TIP3    H123076   0.417   5.137   0.755 -1.1978  0.4250  0.3328
 7704TIP3    H223077   0.510   5.108   0.871  1.1771  0.8518 -1.3738
 7705TIP3   OH223078   2.881   0.882   0.046  0.2902  0.0120 -0.4158
 7705TIP3    H123079   2.807   0.901   0.104 -0.2393 -0.7546 -0.8273
 7705TIP3    H223080   2.865   0.792   0.016  1.4079 -0.1746 -0.4838
 7706TIP3   OH223081   6.412   6.688   2.930 -0.1248 -0.1116  0.1744
 7706TIP3    H123082   6.507   6.676   2.929  0.1883  1.9372  0.5454
 7706TIP3    H223083   6.384   6.664   2.842  0.9526  0.5929 -0.3818
 7707TIP3   OH223084   2.919   6.068   3.159 -0.2250 -0.2764  0.1552
 7707TIP3    H123085   2.868   5.987   3.146 -0.7826  0.2314 -1.0463
 7707TIP3    H223086   2.963   6.081   3.075 -0.2041  0.7078  0.3137
 7708TIP3   OH223087   1.385   4.247   3.796 -0.2116  0.4748  0.5594
 7708TIP3    H123088   1.327   4.307   3.843 -1.5075 -0.1675 -0.1452
 7708TIP3    H223089   1.397   4.287   3.710 -0.1632  0.2850  0.4752
 7709TIP3   OH223090   3.360   3.046   4.778  0.0459 -0.2004  0.5597
 7709TIP3    H123091   3.316   3.129   4.761  1.1885  0.1761 -0.7014
 7709TIP3    H223092   3.302   2.980   4.742 -0.3982  0.1355  0.6587
 7710TIP3   OH223093   2.975   3.399   5.210 -0.0328 -0.0880 -0.0184
 7710TIP3    H123094   3.013   3.315   5.236  0.7365  0.0979 -0.4855
 7710TIP3    H223095   3.016   3.463   5.268  0.2163  0.0889 -0.3816
 7711TIP3   OH223096   2.598   6.770   0.116 -0.1262  0.0004 -0.2736
 7711TIP3    H123097   2.590   6.851   0.167  0.0639 -0.3567  0.3241
 7711TIP3    H223098   2.658   6.716   0.166  0.9448  0.0725 -1.4316
 7712TIP3   OH223099   4.792   3.807   5.779  0.2695  0.6253  0.1500
 7712TIP3    H123100   4.789   3.851   5.694  0.2415  0.7360  0.2080
 7712TIP3    H223101   4.758   3.872   5.841 -0.9441  0.0903  0.0666
 7713TIP3   OH223102   0.247   6.110   0.218 -0.1122  0.1992 -0.0400
 7713TIP3    H123103   0.186   6.129   0.289 -2.4114  0.0993 -1.8764
 7713TIP3    H223104   0.304   6.041   0.253  0.2622  1.6291  2.3854
 7714TIP3   OH223105   3.608   3.102   3.448  0.0268  0.0179  0.3413
 7714TIP3    H123106   3.635   3.192   3.465  0.6909 -0.0167 -0.4440
 7714TIP3    H223107   3.688   3.058   3.422 -0.6230 -0.2807 -1.3002
 7715TIP3   OH223108   2.365   2.274   5.498 -0.0909 -0.4529  0.6241
 7715TIP3    H123109   2.341   2.181   5.503  1.1437 -0.7937  0.3653
 7715TIP3    H223110   2.288   2.316   5.459 -0.7101 -1.3441  0.8538
 7716TIP3   OH223111   3.097   4.154   4.754 -0.1205 -0.0452 -0.4270
 7716TIP3    H123112   3.119   4.173   4.663  1.9820  0.0725  0.0520
 7716TIP3    H223113   3.048   4.230   4.784  2.1759  1.5655 -0.5158
 7717TIP3   OH223114   1.066   3.339   0.141 -0.1390  0.2438 -0.1751
 7717TIP3    H123115   0.991   3.391   0.114 -0.1703  0.3968  0.1985
 7717TIP3    H223116   1.028   3.264   0.187 -0.1113 -0.3140 -1.0391
 7718TIP3   OH223117   0.250   2.961   3.578 -0.0907 -0.0170  0.1830
 7718TIP3    H123118   0.314   2.890   3.572  1.0500  0.7875  1.9394
 7718TIP3    H223119   0.231   2.983   3.487  3.0417  0.4610 -0.4792
 7719TIP3   OH223120   5.561   1.602   4.816  0.2168 -0.4400 -0.4505
 7719TIP3    H123121   5.501   1.675   4.832 -1.6263 -2.0995  0.7547
 7719TIP3    H223122   5.637   1.621   4.870 -0.9883 -0.2154  1.2370
 7720TIP3   OH223123   4.893   6.438   5.745 -0.3619  0.2718 -0.0019
 7720TIP3    H123124   4.981   6.474   5.747 -0.7106  1.1390  0.0307
 7720TIP3    H223125   4.873   6.427   5.652  0.0123 -0.5341  0.0025
 7721TIP3   OH223126  -0.007   0.500   3.619  0.1692 -0.5153 -0.1513
 7721TIP3    H123127   0.080   0.499   3.659  0.6338 -0.8874 -1.1310
 7721TIP3    H223128  -0.057   0.562   3.671  1.1006 -0.1047  0.2751
 7722TIP3   OH223129   5.481   0.314   4.433  0.4073 -0.9101 -0.1738
 7722TIP3    H123130   5.566   0.356   4.418  0.1497 -0.7242 -1.1109
 7722TIP3    H223131   5.421   0.386   4.452  0.4215 -1.0324  0.3629
 7723TIP3   OH223132   6.069   3.756   0.200  0.1228  0.2890 -0.0077
 7723TIP3    H123133   5.981   3.769   0.164 -0.0684  1.4421  0.8004
 7723TIP3    H223134   6.094   3.667   0.174 -0.6788  0.4738 -1.5069
 7724TIP3   OH223135   1.795   4.808   1.010 -0.2338  0.5970 -0.3047
 7724TIP3    H123136   1.849   4.875   1.052  0.6232  1.8124 -3.1014
 7724TIP3    H223137   1.852   4.731   1.005 -0.4991  0.2842  1.0514
 7725TIP3   OH223138   4.667   4.878   5.462  0.1214 -0.1565 -0.6854
 7725TIP3    H123139   4.581   4.920   5.464  1.0186  1.7984 -0.8750
 7725TIP3    H223140   4.661   4.806   5.524 -0.7118  1.8665  1.7125
 7726TIP3   OH223141   0.482   5.889   1.925 -0.2848  0.2130 -0.0085
 7726TIP3    H123142   0.547   5.958   1.910 -0.0965  0.2243  0.7786
 7726TIP3    H223143   0.495   5.864   2.017  0.9614 -2.2310 -0.7582
 7727TIP3   OH223144   0.368   4.111   0.431  0.0011  0.0086  0.1589
 7727TIP3    H123145   0.369   4.022   0.395  0.4574 -0.4888  1.3700
 7727TIP3    H223146   0.277   4.138   0.427 -0.0231 -0.1803 -0.9861
 7728TIP3   OH223147   3.332   0.023   1.203  0.5361  0.6746 -0.0314
 7728TIP3    H123148   3.393   0.086   1.240 -0.4139  2.0945 -0.7783
 7728TIP3    H223149   3.367   0.004   1.116  1.0026 -0.1194  0.3182
 7729TIP3   OH223150   0.886   5.226   0.924 -0.0533  0.4460  0.3160
 7729TIP3    H123151   0.813   5.289   0.918 -0.5177 -0.1633 -0.7620
 7729TIP3    H223152   0.961   5.279   0.951 -0.4446  1.4879 -0.5521
 7730TIP3   OH223153   5.886   6.692   0.528 -0.1169  0.2425  0.0141
 7730TIP3    H123154   5.845   6.620   0.576  0.5061  0.1034  0.3482
 7730TIP3    H223155   5.852   6.685   0.439 -0.0528 -0.4651  0.0427
 7731TIP3   OH223156   3.475   0.683   5.837 -0.0119  0.4232  0.0527
 7731TIP3    H123157   3.478   0.709   5.745 -2.0887  0.6436  0.0115
 7731TIP3    H223158   3.407   0.738   5.875  1.8799  1.4690  2.1407
 7732TIP3   OH223159   1.430   6.553   4.528 -0.6646 -0.0824  0.4983
 7732TIP3    H123160   1.504   6.534   4.585 -0.8585 -0.6604  0.5648
 7732TIP3    H223161   1.411   6.646   4.543 -1.0438 -0.3428  1.7627
 7733TIP3   OH223162   1.933   4.113   3.082  0.3107 -0.5820  0.3559
 7733TIP3    H123163   2.026   4.103   3.063  0.0185 -0.0434 -1.6760
 7733TIP3    H223164   1.893   4.031   3.052  0.2426 -1.3534  2.4283
 7734TIP3   OH223165   5.250   6.646   2.525  0.6070  0.1537 -0.3623
 7734TIP3    H123166   5.196   6.569   2.505  1.5375 -0.8231  0.6882
 7734TIP3    H223167   5.188   6.717   2.539 -0.4659 -1.0226  1.1984
 7735TIP3   OH223168   4.062   3.651   3.946  0.6706  0.0267 -0.2770
 7735TIP3    H123169   4.025   3.576   3.991  1.7673 -0.3055  0.0924
 7735TIP3    H223170   3.991   3.683   3.890  0.3688 -1.6453 -0.9021
 7736TIP3   OH223171   4.617   1.628   0.252 -0.0181  0.2870  0.1750
 7736TIP3    H123172   4.555   1.573   0.302  1.3610  1.7701  3.8797
 7736TIP3    H223173   4.701   1.585   0.263  0.1997  0.0696 -1.9866
 7737TIP3   OH223174   3.130   5.160   3.556 -0.2307  0.3707 -0.5658
 7737TIP3    H123175   3.134   5.123   3.644 -0.5109 -1.1218 -1.1509
 7737TIP3    H223176   3.218   5.195   3.541 -0.1300  0.4786  0.2342
 7738TIP3   OH223177   2.945   3.053   0.578  0.1004 -0.4464  0.0118
 7738TIP3    H123178   2.929   2.962   0.554  0.2854 -0.6277  0.5710
 7738TIP3    H223179   2.935   3.101   0.496 -1.0337 -0.8275 -0.0861
 7739TIP3   OH223180   6.950   1.212   0.340  0.0110 -0.1454 -0.0179
 7739TIP3    H123181   7.006   1.212   0.417 -2.1689 -0.1140  1.6798
 7739TIP3    H223182   6.863   1.189   0.373 -1.3147  1.2189 -2.2521
 7740TIP3   OH223183   2.534   3.656   3.576  0.1099  0.5138 -0.0124
 7740TIP3    H123184   2.616   3.672   3.622  0.8995 -0.6735 -0.9625
 7740TIP3    H223185   2.550   3.687   3.487 -1.1878  2.2035  0.2854
 7741TIP3   OH223186   3.882   4.514   0.919  0.3924  0.1929 -0.0016
 7741TIP3    H123187   3.833   4.550   0.845  1.3270 -1.5269 -1.5404
 7741TIP3    H223188   3.850   4.424   0.928  0.0989  0.4392  1.9171
 7742TIP3   OH223189   5.940   6.248   4.238 -0.3111  0.9708 -0.0411
 7742TIP3    H123190   5.979   6.322   4.191  0.2965  1.8282  1.6982
 7742TIP3    H223191   6.015   6.192   4.260 -0.9186 -1.1812 -2.8270
 7743TIP3   OH223192   6.849   6.289   4.029 -0.3275  0.1499  0.1920
 7743TIP3    H123193   6.787   6.314   3.961  1.0689 -2.1560 -2.1174
 7743TIP3    H223194   6.884   6.372   4.061 -0.1848  1.3577 -2.8068
 7744TIP3   OH223195   6.577   3.918   5.837  0.1366 -0.0984 -0.2776
 7744TIP3    H123196   6.521   3.847   5.807  0.9361 -1.1181  0.5905
 7744TIP3    H223197   6.516   3.986   5.866 -0.7019 -1.4786  1.3610
 7745TIP3   OH223198   5.431   3.646   5.260  0.0812 -0.6330 -0.0770
 7745TIP3    H123199   5.466   3.717   5.314  0.7080 -0.3659 -0.8178
 7745TIP3    H223200   5.478   3.653   5.178 -1.5271 -0.4555 -1.0203
 7746TIP3   OH223201   2.119   2.523   3.047  0.2010 -0.3706  0.3721
 7746TIP3    H123202   2.189   2.510   3.110  0.7321 -1.5750 -0.4146
 7746TIP3    H223203   2.084   2.435   3.032  0.9929 -0.3642 -1.9762
 7747TIP3   OH223204   6.327   6.604   4.817  0.1878  0.0621  0.2941
 7747TIP3    H123205   6.373   6.644   4.744 -0.6278 -0.2777 -0.4334
 7747TIP3    H223206   6.234   6.621   4.799  0.0154  0.9124  1.8261
 7748TIP3   OH223207   1.251   2.213   5.055 -0.4711  0.3366 -0.4857
 7748TIP3    H123208   1.217   2.130   5.087 -0.0397  0.5604  0.6259
 7748TIP3    H223209   1.184   2.277   5.078  1.0408  0.9624  2.7641
 7749TIP3   OH223210   2.339   2.878   5.742  0.2637  0.3384  0.0314
 7749TIP3    H123211   2.330   2.817   5.669 -0.9383  0.0138  0.4211
 7749TIP3    H223212   2.278   2.846   5.808  1.3297  0.6215  1.1997
 7750TIP3   OH223213   6.665   0.359   1.585  0.0134  0.0103 -0.3101
 7750TIP3    H123214   6.692   0.277   1.543 -1.4884 -0.2935 -0.7546
 7750TIP3    H223215   6.610   0.330   1.658  0.1216  0.6194  0.0150
 7751TIP3   OH223216   0.202   6.482   1.103  0.0311  0.1909  0.1432
 7751TIP3    H123217   0.272   6.418   1.116  1.2856  0.5930 -3.5964
 7751TIP3    H223218   0.121   6.432   1.117  1.0056 -1.4630  0.1722
 7752TIP3   OH223219   2.492   2.523   5.411  0.7354 -0.2276  0.5987
 7752TIP3    H123220   2.437   2.445   5.409  0.2467  0.1203  0.3026
 7752TIP3    H223221   2.564   2.503   5.351 -0.3519  0.2399 -0.9285
 7753TIP3   OH223222   5.432   2.383   2.232 -0.1411 -0.4112 -0.4735
 7753TIP3    H123223   5.483   2.454   2.195 -0.4735 -0.1379 -0.4144
 7753TIP3    H223224   5.359   2.427   2.277  0.3400 -0.7158  0.6472
 7754TIP3   OH223225   2.246   2.161   3.519 -0.0683 -0.4398  0.2097
 7754TIP3    H123226   2.339   2.138   3.516  0.0878 -0.1747  1.9031
 7754TIP3    H223227   2.245   2.249   3.558 -1.0390 -0.6165  0.6114
 7755TIP3   OH223228   2.290   0.283   4.472 -0.3757 -0.3489 -0.0960
 7755TIP3    H123229   2.283   0.197   4.432  0.9262 -0.2676 -0.5652
 7755TIP3    H223230   2.310   0.342   4.399  3.6318 -0.4233  0.6858
 7756TIP3   OH223231   6.671   6.457   4.606 -0.6838  0.5153  0.7248
 7756TIP3    H123232   6.665   6.376   4.656 -0.3963  0.4541  0.6634
 7756TIP3    H223233   6.608   6.447   4.534 -1.3359  0.7349  1.2508
 7757TIP3   OH223234   3.056   3.346   3.388 -0.0642 -0.4616  0.3435
 7757TIP3    H123235   2.997   3.420   3.401  0.6007  0.3611 -1.1218
 7757TIP3    H223236   3.068   3.310   3.476 -1.4157  0.3686  0.9006
 7758TIP3   OH223237   3.833   0.608   4.328 -0.0634  0.1530  0.0809
 7758TIP3    H123238   3.761   0.564   4.283 -0.5588  0.4143  0.5977
 7758TIP3    H223239   3.848   0.687   4.278  0.6835 -0.4849 -0.7267
 7759TIP3   OH223240   1.819   2.888   2.978 -0.7977 -0.5940 -0.1708
 7759TIP3    H123241   1.853   2.969   2.940 -0.9013 -0.5333 -0.1357
 7759TIP3    H223242   1.769   2.847   2.907 -1.5009 -0.1786  0.0790
 7760TIP3   OH223243   5.969   4.033   4.997  0.1753  0.0999  0.1156
 7760TIP3    H123244   5.965   3.958   4.938 -0.2501 -0.7191  1.1565
 7760TIP3    H223245   5.942   4.108   4.942  0.5006 -0.5062 -0.9004
 7761TIP3   OH223246   5.492   6.732   4.504  0.1672  0.3800  0.2571
 7761TIP3    H123247   5.513   6.757   4.414 -0.2626 -0.3699 -0.0639
 7761TIP3    H223248   5.438   6.805   4.537 -0.0916  0.4306 -0.2648
 7762TIP3   OH223249   3.332   3.732   0.830  0.5366 -0.1171  0.0396
 7762TIP3    H123250   3.324   3.646   0.870  2.3634 -0.2031  0.3344
 7762TIP3    H223251   3.307   3.719   0.739  0.3886 -0.8650  0.1789
 7763TIP3   OH223252   5.645   3.336   4.546 -0.3850 -0.2012 -0.2173
 7763TIP3    H123253   5.657   3.262   4.605  1.4840  0.8087  0.7893
 7763TIP3    H223254   5.578   3.390   4.589  0.0583 -0.0898  0.3405
 7764TIP3   OH223255   1.717   1.309   3.576  0.0379 -0.2928  0.2277
 7764TIP3    H123256   1.730   1.301   3.481  2.1159  0.6628  0.3775
 7764TIP3    H223257   1.658   1.383   3.585 -0.0732 -0.3067 -0.3227
 7765TIP3   OH223258   5.158   5.684   2.947  0.8775  0.3875  0.4549
 7765TIP3    H123259   5.083   5.667   3.003 -1.2524  1.9069 -1.7143
 7765TIP3    H223260   5.192   5.598   2.925 -2.1671 -0.6022 -0.8704
 7766TIP3   OH223261   2.759   5.427   2.241 -0.7181 -0.3977 -0.3965
 7766TIP3    H123262   2.739   5.489   2.311  0.3915 -1.5246  0.9870
 7766TIP3    H223263   2.835   5.379   2.273  1.0906  0.3154 -3.2149
 7767TIP3   OH223264   5.929   3.207   2.853  0.5828 -0.5733  0.0946
 7767TIP3    H123265   5.930   3.245   2.766  1.2386 -0.5319  0.1215
 7767TIP3    H223266   5.982   3.265   2.907 -1.1358  0.3252  0.9284
 7768TIP3   OH223267   6.047   0.444   1.403 -0.3448  0.1394 -0.4481
 7768TIP3    H123268   5.980   0.375   1.395  0.2739 -0.3005 -2.4078
 7768TIP3    H223269   6.122   0.411   1.353  1.1803  0.8620  1.2290
 7769TIP3   OH223270   4.576   3.290   2.405 -0.0728  0.1348 -0.4005
 7769TIP3    H123271   4.668   3.305   2.385 -0.1917  0.0579 -1.0548
 7769TIP3    H223272   4.543   3.374   2.436  0.5803 -0.2242  1.3876
 7770TIP3   OH223273   2.231   0.129   4.973  0.3784 -0.6958  0.2629
 7770TIP3    H123274   2.321   0.162   4.979  0.1607  0.0673 -0.3911
 7770TIP3    H223275   2.202   0.158   4.886 -0.4626 -1.0270  0.4308
 7771TIP3   OH223276   3.580   4.309   1.950 -0.2692 -0.0949 -0.6001
 7771TIP3    H123277   3.660   4.353   1.924 -0.6528  1.1849  0.3112
 7771TIP3    H223278   3.609   4.224   1.984  0.8004  0.6580  0.4540
 7772TIP3   OH223279   0.127   0.948   3.845  0.1769  0.0278 -0.8212
 7772TIP3    H123280   0.193   1.017   3.852 -0.1746  0.2120  1.3370
 7772TIP3    H223281   0.164   0.874   3.892 -0.6296 -0.2858 -0.6606
 7773TIP3   OH223282   2.182   2.975   1.006 -0.2675 -0.3696 -1.1571
 7773TIP3    H123283   2.269   2.998   0.975 -0.1587  1.6848  0.4557
 7773TIP3    H223284   2.126   3.048   0.977 -0.5983  0.4286  1.2360
 7774TIP3   OH223285   3.941   6.290   1.243 -0.1529  0.4957  0.2082
 7774TIP3    H123286   3.847   6.306   1.241 -0.2671 -0.1550  0.1039
 7774TIP3    H223287   3.949   6.196   1.228  0.5633  0.7040 -0.7746
 7775TIP3   OH223288   1.154   3.179   0.863  0.4261 -0.1150 -0.4276
 7775TIP3    H123289   1.240   3.218   0.850  1.5895 -2.1520  0.7581
 7775TIP3    H223290   1.171   3.094   0.902 -2.1589 -0.4124  0.2554
 7776TIP3   OH223291   6.904   3.799   0.977  0.4601  0.3799  0.0018
 7776TIP3    H123292   6.842   3.732   0.948  0.8545 -1.0535  2.2461
 7776TIP3    H223293   6.897   3.868   0.911 -0.3717 -1.5970 -2.1357
 7777TIP3   OH223294   5.037   4.838   3.648  0.7146  0.0042 -0.7149
 7777TIP3    H123295   5.005   4.869   3.564 -0.9732 -2.1418 -0.9476
 7777TIP3    H223296   5.094   4.764   3.627 -0.8174 -1.4638 -0.0162
 7778TIP3   OH223297   3.908   1.749   0.168  0.0577  0.2112 -0.5953
 7778TIP3    H123298   3.824   1.725   0.129 -0.1234  0.5699 -0.4296
 7778TIP3    H223299   3.949   1.807   0.104 -1.3524  2.9176  0.7814
 7779TIP3   OH223300   5.519   2.192   1.186 -0.1151  0.2348  0.4975
 7779TIP3    H123301   5.582   2.121   1.178 -0.3158 -0.0603  1.4335
 7779TIP3    H223302   5.498   2.216   1.095  0.2309 -0.6470  0.1753
 7780TIP3   OH223303   3.103   2.209   0.602 -0.1228  0.0571 -0.1343
 7780TIP3    H123304   3.158   2.259   0.542 -1.4765  3.5021  1.1704
 7780TIP3    H223305   3.158   2.194   0.678  0.3578 -0.6106 -0.6111
 7781TIP3   OH223306   0.706   4.145   1.607  0.2919  0.2607 -0.2735
 7781TIP3    H123307   0.650   4.195   1.666 -1.9270 -1.3195 -0.8962
 7781TIP3    H223308   0.728   4.066   1.657  1.0149  0.3393 -0.4575
 7782TIP3   OH223309   0.223   4.367   5.043 -0.1817 -0.4241  0.2359
 7782TIP3    H123310   0.246   4.291   4.990  1.8025 -0.2642  0.7835
 7782TIP3    H223311   0.305   4.394   5.084 -1.0269  1.4063  0.8644
 7783TIP3   OH223312   1.268   6.319   0.387 -0.0660  0.0910 -0.6426
 7783TIP3    H123313   1.256   6.294   0.478  0.3283 -1.0923 -0.9014
 7783TIP3    H223314   1.340   6.264   0.356  1.4793  2.1898 -1.0008
 7784TIP3   OH223315   2.091   3.773   5.035 -0.2157 -0.2831  0.7628
 7784TIP3    H123316   2.017   3.735   4.988 -1.2200 -0.6374  2.5461
 7784TIP3    H223317   2.100   3.861   4.998  0.8814 -1.4744 -2.0454
 7785TIP3   OH223318   4.552   4.762   2.985  0.0226  0.8448  0.2069
 7785TIP3    H123319   4.527   4.759   2.892  0.3330  3.2469 -0.0031
 7785TIP3    H223320   4.638   4.720   2.988  0.8527  2.3626 -0.9507
 7786TIP3   OH223321   4.178   6.126   3.922  0.3899  0.3252 -0.0671
 7786TIP3    H123322   4.162   6.036   3.951  1.0751  0.4307  0.6496
 7786TIP3    H223323   4.177   6.179   4.002 -2.5684  1.3834 -0.6914
 7787TIP3   OH223324   5.481   0.009   2.695  0.1400 -0.4729 -0.6274
 7787TIP3    H123325   5.436   0.045   2.618  0.2763  0.0961 -0.4460
 7787TIP3    H223326   5.423   0.030   2.768  1.4653  1.8559 -0.1313
 7788TIP3   OH223327   2.020   0.816   5.525  0.2553  0.2455  0.0612
 7788TIP3    H123328   2.000   0.740   5.470  0.1236 -1.6550  2.5911
 7788TIP3    H223329   2.111   0.837   5.504  0.7753 -1.5681  0.3612
 7789TIP3   OH223330   1.564   0.379   2.868 -0.4586 -0.4102  0.2607
 7789TIP3    H123331   1.531   0.326   2.795  0.2643 -1.1211  0.4228
 7789TIP3    H223332   1.659   0.363   2.867 -0.1647  1.2100  0.0762
 7790TIP3   OH223333   5.482   3.159   3.398  0.1937  0.1491 -0.3725
 7790TIP3    H123334   5.425   3.088   3.367  2.0505 -1.3555 -0.5090
 7790TIP3    H223335   5.430   3.239   3.385 -1.6755 -1.0955 -0.9350
 7791TIP3   OH223336   2.796   3.458   2.616 -0.7041  0.1393  0.2521
 7791TIP3    H123337   2.875   3.479   2.566 -0.5492  0.7029  0.7251
 7791TIP3    H223338   2.808   3.366   2.641 -1.1755 -0.4125 -1.4390
 7792TIP3   OH223339   1.060   6.179   3.850 -0.1167  0.2285  0.5467
 7792TIP3    H123340   1.120   6.134   3.791 -0.0631  4.0363 -2.7382
 7792TIP3    H223341   1.110   6.252   3.885 -1.4849  0.5945  1.8450
 7793TIP3   OH223342   0.395   6.679   1.156  0.2484  0.3374 -0.4256
 7793TIP3    H123343   0.470   6.639   1.111  0.3083 -1.0151  0.8071
 7793TIP3    H223344   0.320   6.626   1.129 -0.0803  0.9570 -0.7353
 7794TIP3   OH223345   6.997   2.331   2.892 -0.2571  0.2233  0.1934
 7794TIP3    H123346   6.911   2.313   2.855 -0.2732  1.6127 -0.5335
 7794TIP3    H223347   7.040   2.246   2.897 -1.8447 -0.5666  1.0655
 7795TIP3   OH223348   2.554   3.507  -0.021 -0.1482  0.3013  0.3528
 7795TIP3    H123349   2.515   3.421  -0.034 -0.2242  0.2100  1.1396
 7795TIP3    H223350   2.592   3.503   0.067 -0.0051  1.0091  0.3276
 7796TIP3   OH223351   4.072   3.036   2.610 -0.3057 -0.0548  0.2044
 7796TIP3    H123352   3.982   3.012   2.633 -1.2791  2.8269 -0.1003
 7796TIP3    H223353   4.086   2.999   2.523 -0.2593 -2.5265  1.1868
 7797TIP3   OH223354   2.050   6.240   3.532 -0.0549  0.0324 -0.3467
 7797TIP3    H123355   1.967   6.283   3.554 -0.2623 -0.2653 -0.5344
 7797TIP3    H223356   2.024   6.157   3.493  0.3249  0.0913 -0.7359
 7798TIP3   OH223357   2.380   4.527   1.197 -0.2863 -0.0621  0.1124
 7798TIP3    H123358   2.408   4.531   1.106  0.2454 -1.3819  0.1942
 7798TIP3    H223359   2.441   4.467   1.239 -1.8823 -1.3235  0.7870
 7799TIP3   OH223360   2.857   2.793   0.499 -0.2014  0.0900  0.1577
 7799TIP3    H123361   2.852   2.734   0.574 -3.8431  0.3418  0.2981
 7799TIP3    H223362   2.886   2.737   0.427  0.8309 -0.7419  1.1673
 7800TIP3   OH223363   1.321   4.309   3.150  0.4781  0.1155  0.0403
 7800TIP3    H123364   1.276   4.361   3.216  0.8178 -1.0131  1.2009
 7800TIP3    H223365   1.260   4.238   3.131  1.1020 -0.5372  0.4473
 7801TIP3   OH223366   6.539   0.958   0.528  0.3343  0.6727 -0.0103
 7801TIP3    H123367   6.492   0.917   0.601  0.4059  0.8895  0.1595
 7801TIP3    H223368   6.609   0.896   0.507  0.1950  0.5196 -0.0221
 7802TIP3   OH223369   2.004   3.197   1.665 -0.2561 -0.6145  0.2225
 7802TIP3    H123370   2.097   3.218   1.671 -0.4639  0.2947  0.4277
 7802TIP3    H223371   1.992   3.167   1.575  0.0543  0.2313 -0.1099
 7803TIP3   OH223372   1.789   0.200   4.110 -0.0764  0.0943  0.0848
 7803TIP3    H123373   1.796   0.277   4.053 -1.5206  1.8884  2.1821
 7803TIP3    H223374   1.713   0.217   4.165  0.0607 -2.4869  1.2184
 7804TIP3   OH223375   1.861   6.191   1.098  0.4443  0.3279 -0.7491
 7804TIP3    H123376   1.802   6.261   1.071  0.5492  0.4237 -0.7302
 7804TIP3    H223377   1.860   6.195   1.194  0.7992  0.5974 -0.7539
 7805TIP3   OH223378   3.180   0.995   4.365  0.0797  0.0197 -0.0684
 7805TIP3    H123379   3.092   0.998   4.403  0.4183 -1.2613  0.8727
 7805TIP3    H223380   3.213   1.084   4.374 -0.6691  0.2312  0.6684
 7806TIP3   OH223381   1.727   6.006   0.294 -0.0447  0.0000 -0.3815
 7806TIP3    H123382   1.767   5.945   0.232  1.0048  0.2235  0.0620
 7806TIP3    H223383   1.783   6.083   0.291 -1.5438  1.1223 -1.2021
 7807TIP3   OH223384   2.568   4.406   2.039  0.2823  0.1546  0.1438
 7807TIP3    H123385   2.521   4.461   2.102  0.6915 -1.9087  2.3627
 7807TIP3    H223386   2.503   4.390   1.969 -0.3215  2.1289  0.1742
 7808TIP3   OH223387   6.161   5.972   4.030  0.0630  0.0933 -0.4125
 7808TIP3    H123388   6.153   5.877   4.022  0.3753  0.1248 -1.1720
 7808TIP3    H223389   6.071   6.001   4.047 -0.1255 -0.2926 -0.7154
 7809TIP3   OH223390   5.121   4.034   0.808  0.0754 -0.4075 -0.5119
 7809TIP3    H123391   5.055   3.965   0.802  3.5198 -4.0157 -1.1879
 7809TIP3    H223392   5.130   4.052   0.901 -0.5416 -1.2696 -0.2815
 7810TIP3   OH223393   5.102   0.008   4.364  0.0790  0.5720 -0.7369
 7810TIP3    H123394   5.192   0.016   4.333  0.2590 -1.1683 -0.7877
 7810TIP3    H223395   5.075   0.097   4.386  2.0612  1.0302 -0.0117
 7811TIP3   OH223396   0.431   4.018   3.674  0.6085  0.3486  0.0219
 7811TIP3    H123397   0.415   3.976   3.759 -0.6107 -0.2967 -0.5010
 7811TIP3    H223398   0.401   3.953   3.610 -0.6839  1.7274 -0.8265
 7812TIP3   OH223399   1.070   1.567   1.424  0.3816 -0.2546  0.2027
 7812TIP3    H123400   1.125   1.585   1.348  1.4336 -2.1405  0.4529
 7812TIP3    H223401   1.090   1.637   1.486 -0.5819  1.3774 -1.2396
 7813TIP3   OH223402   5.448   4.356   1.012 -0.0752 -0.1783  0.3739
 7813TIP3    H123403   5.511   4.322   0.948 -0.1345  3.4988 -1.9238
 7813TIP3    H223404   5.501   4.396   1.080  0.0926  0.6701 -0.2398
 7814TIP3   OH223405   2.332   4.416   5.814 -0.6527 -0.3585  0.3864
 7814TIP3    H123406   2.410   4.470   5.809 -1.0289  0.0959 -0.8183
 7814TIP3    H223407   2.260   4.478   5.822 -1.0413 -0.6871 -0.4011
 7815TIP3   OH223408   0.690   2.393   3.737  0.0749  0.2329  0.0218
 7815TIP3    H123409   0.635   2.458   3.693  0.1414  0.0578 -0.3289
 7815TIP3    H223410   0.778   2.410   3.703 -0.0971 -0.8134 -1.0133
 7816TIP3   OH223411   5.365   3.807   1.715 -0.0142  0.4802 -0.0254
 7816TIP3    H123412   5.368   3.810   1.810 -0.4815 -0.0764  0.0056
 7816TIP3    H223413   5.452   3.776   1.689  0.1276  0.6736  0.2126
 7817TIP3   OH223414   6.633   3.874   4.327  0.0231 -0.3112 -0.2616
 7817TIP3    H123415   6.727   3.885   4.341 -0.1316  0.4592  0.1878
 7817TIP3    H223416   6.623   3.873   4.232  0.3158  1.2131 -0.3307
 7818TIP3   OH223417   5.396   3.820   4.290  0.5451  0.1349  0.2017
 7818TIP3    H123418   5.422   3.911   4.272  0.1789  0.3655  0.7914
 7818TIP3    H223419   5.302   3.826   4.310  0.4389 -0.4280 -0.1133
 7819TIP3   OH223420   5.501   2.278   4.624  0.4591  0.2907 -0.1712
 7819TIP3    H123421   5.512   2.183   4.631 -0.0422  0.1917 -0.6667
 7819TIP3    H223422   5.468   2.304   4.710  1.5579  0.1681  0.3013
 7820TIP3   OH223423   1.413   0.710   2.032 -0.7055  0.2768 -0.2516
 7820TIP3    H123424   1.330   0.665   2.011 -0.5768 -0.1280  0.0977
 7820TIP3    H223425   1.480   0.643   2.019 -0.5150  0.3506  0.3252
 7821TIP3   OH223426   2.651   3.002   2.923 -0.1625 -0.6300 -0.0148
 7821TIP3    H123427   2.590   3.068   2.957 -0.5893 -1.7256  1.4250
 7821TIP3    H223428   2.616   2.980   2.836  0.6034  1.7858 -1.0151
 7822TIP3   OH223429   7.211   2.115   5.667  0.4695  0.4826  0.0899
 7822TIP3    H123430   7.206   2.121   5.763 -1.3658 -0.5083  0.0865
 7822TIP3    H223431   7.145   2.176   5.636 -0.6587 -0.9657 -0.4571
 7823TIP3   OH223432   2.577   2.934   5.863 -0.1772 -0.1219 -0.2580
 7823TIP3    H123433   2.623   2.999   5.809  0.5446 -0.1189  0.3321
 7823TIP3    H223434   2.497   2.914   5.815 -0.7450  1.6916 -0.1465
 7824TIP3   OH223435   4.763   1.188   2.175  0.3067  0.0510 -0.2795
 7824TIP3    H123436   4.732   1.102   2.147 -0.7452  0.0075  0.9461
 7824TIP3    H223437   4.746   1.191   2.269  1.5181  1.1099 -0.0613
 7825TIP3   OH223438   0.038   0.333   2.863  0.0411 -0.3566  0.4808
 7825TIP3    H123439   0.025   0.255   2.809 -0.3693  0.2921 -0.3931
 7825TIP3    H223440   0.026   0.406   2.802 -0.4110  0.4002  1.4472
 7826TIP3   OH223441   1.060   4.420   3.887 -0.5400 -0.6128 -0.3746
 7826TIP3    H123442   1.034   4.469   3.809 -0.5275  0.3621  0.2116
 7826TIP3    H223443   0.978   4.401   3.933 -0.4251  0.8159  0.5106
 7827TIP3   OH223444   0.919   1.162   1.575 -0.4335  0.2441 -0.3529
 7827TIP3    H123445   0.999   1.213   1.561 -0.2220 -0.4403 -1.9755
 7827TIP3    H223446   0.867   1.214   1.636  0.5262  1.5182 -0.5763
 7828TIP3   OH223447   0.472   0.954   5.134 -0.0582 -0.3396 -0.6574
 7828TIP3    H123448   0.481   0.904   5.052  0.8917 -0.2116 -0.6390
 7828TIP3    H223449   0.458   1.044   5.106  1.7337 -0.0464 -0.6982
 7829TIP3   OH223450   6.865   3.551   5.299  0.2669  0.1282 -0.0879
 7829TIP3    H123451   6.804   3.598   5.357 -1.0791 -0.0275 -1.3141
 7829TIP3    H223452   6.810   3.490   5.251  1.6778 -1.2158 -0.0668
 7830TIP3   OH223453   3.467   0.744   4.296 -0.3395 -0.3076 -0.8754
 7830TIP3    H123454   3.453   0.806   4.367 -2.9030 -1.3100 -0.3940
 7830TIP3    H223455   3.434   0.789   4.218 -0.2328 -0.2673 -0.8963
 7831TIP3   OH223456   7.039   2.398   0.671 -0.1301 -0.1040  0.4063
 7831TIP3    H123457   7.043   2.424   0.579 -0.4120  1.0831  0.7104
 7831TIP3    H223458   6.991   2.315   0.670  0.4477 -0.4469 -0.5721
 7832TIP3   OH223459   0.359   0.332   4.354  0.1727  0.0079 -0.5539
 7832TIP3    H123460   0.325   0.247   4.324  0.2120  0.6778 -2.7063
 7832TIP3    H223461   0.281   0.380   4.383  0.2231 -0.9421  1.2757
 7833TIP3   OH223462   4.380   2.226   1.945  0.3188  0.2430  0.2730
 7833TIP3    H123463   4.341   2.256   1.863  1.0451 -1.3107 -0.6906
 7833TIP3    H223464   4.467   2.195   1.920 -0.2031 -2.1811  1.2329
 7834TIP3   OH223465   0.186   2.534   5.782 -0.4513 -0.4111 -0.1080
 7834TIP3    H123466   0.220   2.611   5.827  1.2338 -1.0229 -0.2902
 7834TIP3    H223467   0.131   2.490   5.847 -1.3654  0.8635  0.0214
 7835TIP3   OH223468   7.062   4.767   0.613  0.4089 -0.4242  0.3670
 7835TIP3    H123469   7.026   4.679   0.607 -0.1846 -0.2298  0.9744
 7835TIP3    H223470   7.145   4.756   0.660  0.6057 -0.7291 -0.0519
 7836TIP3   OH223471   2.208   4.982   2.836 -0.1697 -0.7216 -0.1838
 7836TIP3    H123472   2.272   4.918   2.869  0.8043 -0.7818 -2.0415
 7836TIP3    H223473   2.250   5.067   2.847 -1.2334 -0.3903  1.7556
 7837TIP3   OH223474   1.016   2.749   2.501 -0.4222 -1.0021  0.8590
 7837TIP3    H123475   1.093   2.787   2.459  0.4979 -1.0581  2.4067
 7837TIP3    H223476   0.950   2.746   2.432  0.7559 -0.3655 -0.3477
 7838TIP3   OH223477   3.222   3.119   1.396  0.3892 -0.0639 -0.2098
 7838TIP3    H123478   3.236   3.180   1.323  2.7112 -0.7705 -0.4349
 7838TIP3    H223479   3.140   3.148   1.436  0.2403  1.7659 -1.6989
 7839TIP3   OH223480   1.692   3.684   1.765 -0.3600 -0.0804 -0.3133
 7839TIP3    H123481   1.611   3.731   1.783  1.0970  2.9350 -0.9156
 7839TIP3    H223482   1.685   3.655   1.675 -0.8357  0.0506 -0.3179
 7840TIP3   OH223483   2.715   4.221   1.874  0.9793 -0.2481 -0.3118
 7840TIP3    H123484   2.803   4.198   1.846  0.5126  0.0325 -2.1394
 7840TIP3    H223485   2.712   4.316   1.867  1.6797  0.2079  3.4807
 7841TIP3   OH223486   1.412   1.787   1.335  0.1935  0.0955 -0.4176
 7841TIP3    H123487   1.326   1.796   1.375  0.4808 -2.3276  0.8979
 7841TIP3    H223488   1.470   1.836   1.392  0.0810 -0.5339  0.2471
 7842TIP3   OH223489   5.257   2.144   5.542 -0.5404  0.3413  0.0884
 7842TIP3    H123490   5.320   2.211   5.518 -0.1665 -0.0026  0.1088
 7842TIP3    H223491   5.229   2.167   5.631  0.6541 -0.3221  0.6629
 7843TIP3   OH223492   5.593   2.123   4.966 -0.5114 -0.0097 -0.0761
 7843TIP3    H123493   5.520   2.184   4.957  0.7953  1.6218 -0.2235
 7843TIP3    H223494   5.573   2.053   4.904 -1.8629  0.4590 -0.2118
 7844TIP3   OH223495   0.003   2.254   0.057 -0.7054 -0.1897  0.3382
 7844TIP3    H123496   0.016   2.330  -0.001  0.3901  0.4930  1.4363
 7844TIP3    H223497   0.042   2.280   0.140 -0.3936 -1.9363  0.7773
 7845TIP3   OH223498   2.863   1.876   4.562  0.1887  0.5426 -0.1266
 7845TIP3    H123499   2.791   1.843   4.508 -0.0512  0.6216  0.1411
 7845TIP3    H223500   2.870   1.969   4.540  0.2337  0.5270 -0.1791
 7846TIP3   OH223501   3.294   4.015   4.920 -0.2583 -0.6721 -0.4514
 7846TIP3    H123502   3.228   4.072   4.881 -0.4319  0.1097  0.9104
 7846TIP3    H223503   3.257   3.927   4.910 -0.1780 -0.5224 -2.1998
 7847TIP3   OH223504   6.372   5.398   1.153 -0.1049 -0.1436 -0.0128
 7847TIP3    H123505   6.308   5.346   1.202  0.5747 -1.3815 -0.3957
 7847TIP3    H223506   6.322   5.472   1.119 -1.1520 -0.6544  0.3746
 7848TIP3   OH223507   6.086   4.952   3.110  0.0837 -0.3405  0.2288
 7848TIP3    H123508   6.079   5.041   3.075 -1.2661 -0.6001 -0.2310
 7848TIP3    H223509   6.059   4.959   3.201  1.1539 -0.0895  0.5385
 7849TIP3   OH223510   6.033   3.297   3.347 -0.0129 -0.1513 -0.2371
 7849TIP3    H123511   5.939   3.310   3.350  0.1031  1.2315 -1.4803
 7849TIP3    H223512   6.064   3.323   3.434 -0.7149 -0.2039  0.0360
 7850TIP3   OH223513   4.455   3.844   3.566  0.2837  0.2994  0.7392
 7850TIP3    H123514   4.533   3.819   3.516 -1.5969 -1.6130 -1.4963
 7850TIP3    H223515   4.437   3.769   3.622 -1.1338 -0.2482 -0.3924
 7851TIP3   OH223516   6.825   1.953   1.971  0.1092  0.0549  0.3970
 7851TIP3    H123517   6.742   1.908   1.983 -0.2966  1.0833  1.7820
 7851TIP3    H223518   6.889   1.899   2.017 -0.2246  0.4260  1.3228
 7852TIP3   OH223519   2.016   3.507   1.343  0.2299  0.3680  0.4915
 7852TIP3    H123520   1.999   3.441   1.276  1.6200  0.6804 -0.1806
 7852TIP3    H223521   2.097   3.479   1.385  0.2376  1.0564  0.9508
 7853TIP3   OH223522   2.873   1.636   1.665 -0.1109  0.1857 -0.0820
 7853TIP3    H123523   2.778   1.639   1.650 -0.0171  1.1206 -0.5226
 7853TIP3    H223524   2.894   1.542   1.663 -1.1027 -0.0674  0.5680
 7854TIP3   OH223525   3.657   1.189   1.985 -0.6032 -0.8909 -0.4481
 7854TIP3    H123526   3.725   1.167   2.048 -0.9291 -2.8147 -0.7038
 7854TIP3    H223527   3.619   1.270   2.018  0.9284 -0.4875  0.4052
 7855TIP3   OH223528   1.760   3.711   1.062 -0.8471 -0.0827  0.2574
 7855TIP3    H123529   1.767   3.782   1.126 -0.9248  1.2497 -1.1468
 7855TIP3    H223530   1.757   3.755   0.978 -1.6367 -1.7440 -0.6384
 7856TIP3   OH223531   3.722   1.989   4.201  0.0544 -0.5358 -0.6672
 7856TIP3    H123532   3.630   2.015   4.199  0.7429  2.9944  2.5771
 7856TIP3    H223533   3.722   1.905   4.248 -1.4975 -0.7550 -1.0050
 7857TIP3   OH223534   5.306   0.249   3.942 -0.0949 -0.0183  0.4134
 7857TIP3    H123535   5.309   0.226   3.849  1.6874  0.1607  0.3940
 7857TIP3    H223536   5.234   0.197   3.978 -0.6720 -0.2412 -1.0104
 7858TIP3   OH223537   0.929   1.320   3.942 -0.2748 -0.2514  0.0645
 7858TIP3    H123538   0.897   1.363   4.021  2.2254  1.0472  0.4698
 7858TIP3    H223539   0.937   1.390   3.877  1.1879 -0.5806 -0.1475
 7859TIP3   OH223540   6.330   4.263   5.517 -0.0540  0.1684 -0.1234
 7859TIP3    H123541   6.379   4.280   5.598  3.0439 -1.0348 -1.5969
 7859TIP3    H223542   6.269   4.337   5.510  0.7175  1.1556  2.4288
 7860TIP3   OH223543   5.654   4.537   3.009 -0.7431 -0.0278 -0.2778
 7860TIP3    H123544   5.703   4.519   3.089  0.9493  1.0717 -1.0045
 7860TIP3    H223545   5.640   4.451   2.969 -3.1052 -0.7982  1.9470
 7861TIP3   OH223546   3.589   0.284   5.039 -0.0203 -0.2646 -0.1869
 7861TIP3    H123547   3.599   0.263   5.132  0.1962  0.8969  0.0698
 7861TIP3    H223548   3.650   0.226   4.994  1.0619  0.2639  0.5483
 7862TIP3   OH223549   2.971   1.513   1.141 -0.3989  0.4264  0.8062
 7862TIP3    H123550   2.876   1.501   1.145 -0.5849  1.4613 -0.0700
 7862TIP3    H223551   2.985   1.572   1.067  1.1330 -1.7349 -0.7668
 7863TIP3   OH223552   1.188   0.841   4.545 -0.6256  0.4197  0.6640
 7863TIP3    H123553   1.202   0.747   4.557 -2.0335  0.0857 -0.0880
 7863TIP3    H223554   1.257   0.868   4.484 -1.1755 -0.4806 -0.3987
 7864TIP3   OH223555   0.709   0.479   3.006 -0.0374  0.1031 -0.5106
 7864TIP3    H123556   0.759   0.444   3.079 -1.5633  1.0766  1.0778
 7864TIP3    H223557   0.654   0.406   2.977 -1.3688  0.3896  1.1332
 7865TIP3   OH223558   3.691   0.949   3.790  0.6022  0.2555 -0.0501
 7865TIP3    H123559   3.635   0.906   3.725 -0.7115  2.6159 -0.5954
 7865TIP3    H223560   3.727   1.025   3.745  0.7223  1.2151  1.5730
 7866TIP3   OH223561   6.121   0.985  -0.027  0.2519 -0.0379  0.3002
 7866TIP3    H123562   6.103   0.895  -0.000  1.5070 -0.3064  0.3110
 7866TIP3    H223563   6.166   1.024   0.048 -1.6223  1.1030  0.9059
 7867TIP3   OH223564   0.647   5.292   0.610 -0.2689 -0.2749 -0.5147
 7867TIP3    H123565   0.565   5.254   0.580 -0.7430  0.4036 -0.0853
 7867TIP3    H223566   0.645   5.283   0.706 -0.1497  0.3552 -0.4487
 7868TIP3   OH223567   2.319   2.382   1.781 -0.0193 -0.2189 -0.0964
 7868TIP3    H123568   2.256   2.324   1.738 -1.0030  0.6044  0.1923
 7868TIP3    H223569   2.292   2.383   1.872  0.4043  0.1595  0.0269
 7869TIP3   OH223570   4.586   2.913   1.175  0.2338  0.6931 -0.1911
 7869TIP3    H123571   4.508   2.883   1.221  0.2884  0.1325 -0.4477
 7869TIP3    H223572   4.657   2.857   1.208  0.5392  1.2498  0.0975
 7870TIP3   OH223573   4.107   6.728   0.622  0.3329  0.1616 -0.5299
 7870TIP3    H123574   4.187   6.779   0.618  0.7896 -0.5618 -0.7887
 7870TIP3    H223575   4.123   6.663   0.691 -0.4588  0.7168  0.2061
 7871TIP3   OH223576   4.881   1.196   0.695  0.1465  0.4149  0.4226
 7871TIP3    H123577   4.966   1.180   0.735  0.9433 -1.5727 -1.8204
 7871TIP3    H223578   4.891   1.167   0.604 -2.6074  1.1500 -0.2133
 7872TIP3   OH223579   4.915   1.566   3.786  0.3247 -0.4672  0.0074
 7872TIP3    H123580   4.972   1.593   3.713  0.2052  0.4321  0.2389
 7872TIP3    H223581   4.902   1.645   3.837  1.1732 -1.2724  1.5558
 7873TIP3   OH223582   3.772   0.627   4.744  0.4839 -0.0102  0.1902
 7873TIP3    H123583   3.690   0.590   4.712  0.0657  1.1278 -0.1109
 7873TIP3    H223584   3.759   0.638   4.838  0.9661 -1.4639  0.4602
 7874TIP3   OH223585   7.216   0.880   1.034  0.0465 -0.3882 -0.1615
 7874TIP3    H123586   7.193   0.953   0.977 -0.9319  0.2934  1.0634
 7874TIP3    H223587   7.171   0.805   0.996  0.7384 -0.3039 -1.1988
 7875TIP3   OH223588   2.834   6.144   0.724 -0.2526  0.5990 -0.0575
 7875TIP3    H123589   2.806   6.161   0.635  0.9446  0.8702 -0.3986
 7875TIP3    H223590   2.785   6.207   0.777 -1.4919 -0.0248 -0.4157
 7876TIP3   OH223591   1.319   0.775   1.488  0.4061 -0.1949  0.0334
 7876TIP3    H123592   1.227   0.759   1.468  0.7112 -0.3998 -1.3263
 7876TIP3    H223593   1.318   0.817   1.574 -1.2055  2.7545 -1.2652
 7877TIP3   OH223594   0.147   3.783   1.234  0.0358  0.1655 -0.0220
 7877TIP3    H123595   0.075   3.778   1.171 -0.4457 -0.0589  0.5463
 7877TIP3    H223596   0.105   3.800   1.318  0.7867  2.0039  0.0081
 7878TIP3   OH223597   6.582   1.326   1.439  0.1414  0.0939  0.5793
 7878TIP3    H123598   6.505   1.277   1.410 -1.7297  2.3205  1.4564
 7878TIP3    H223599   6.614   1.277   1.515 -0.8825 -0.4749  0.6653
 7879TIP3   OH223600   5.502   1.791   3.201  0.7303  0.3546 -0.0809
 7879TIP3    H123601   5.595   1.789   3.178  1.5103  2.3268  2.4550
 7879TIP3    H223602   5.497   1.847   3.278 -2.6909  0.9119 -0.5342
 7880TIP3   OH223603   0.965   4.523   1.893  0.0025  0.1205  0.0274
 7880TIP3    H123604   0.940   4.470   1.969 -0.7863  1.6808  0.9095
 7880TIP3    H223605   1.040   4.574   1.924 -0.4103  0.8657 -0.1757
 7881TIP3   OH223606   3.559   1.714   3.205  0.5628 -0.0804  0.4919
 7881TIP3    H123607   3.513   1.764   3.272  0.2415  0.2097  0.0537
 7881TIP3    H223608   3.506   1.635   3.193 -0.4908  0.8130 -0.8840
 7882TIP3   OH223609   4.036   3.762   0.969  0.3111 -0.1730  0.1105
 7882TIP3    H123610   4.031   3.840   0.914 -0.4823 -0.0960  0.2797
 7882TIP3    H223611   4.019   3.690   0.908  1.1631 -0.2385 -0.0695
 7883TIP3   OH223612   1.486   5.485   5.265  0.5708 -0.2694  0.6006
 7883TIP3    H123613   1.544   5.561   5.264 -0.2701  0.3862  0.3805
 7883TIP3    H223614   1.529   5.421   5.209  0.3940  0.7450 -0.7480
 7884TIP3   OH223615   3.655   5.887   5.037 -0.5786  0.1089 -0.3501
 7884TIP3    H123616   3.679   5.896   5.129  0.8956  1.1865 -0.7890
 7884TIP3    H223617   3.605   5.966   5.018 -0.0831  0.3499 -0.6829
 7885TIP3   OH223618   6.936   0.322   1.668 -0.3633  0.1666 -0.7136
 7885TIP3    H123619   6.850   0.363   1.669 -0.3700  0.1974  1.1577
 7885TIP3    H223620   6.944   0.281   1.754  1.7177  0.6756 -0.6079
 7886TIP3   OH223621   1.367   2.346   3.333 -0.2289 -0.3613 -0.7870
 7886TIP3    H123622   1.340   2.281   3.268  0.9596 -0.5667 -1.0997
 7886TIP3    H223623   1.350   2.430   3.291  2.8803 -0.4437 -2.5035
 7887TIP3   OH223624   0.037   4.668   5.337  0.6174 -0.3543 -0.6929
 7887TIP3    H123625  -0.031   4.612   5.298 -0.1364  1.1136 -1.5762
 7887TIP3    H223626   0.111   4.661   5.276  0.4193 -0.1660 -0.9582
 7888TIP3   OH223627   5.261   0.372   5.785 -0.3259 -0.0603 -0.0106
 7888TIP3    H123628   5.350   0.354   5.816 -0.9155 -0.6203  1.4178
 7888TIP3    H223629   5.262   0.465   5.761  0.0269  0.6017  2.3144
 7889TIP3   OH223630   4.646   5.675   0.746  0.0494 -0.4252 -0.4559
 7889TIP3    H123631   4.574   5.682   0.684  0.3314 -1.9394 -1.0064
 7889TIP3    H223632   4.645   5.758   0.794  0.7465  1.5044 -3.4881
 7890TIP3   OH223633   4.771   2.399   2.491 -0.2535 -0.0776  0.3323
 7890TIP3    H123634   4.701   2.431   2.435 -1.2115 -1.0600  0.9446
 7890TIP3    H223635   4.789   2.472   2.551 -0.1998  0.4590 -0.3262
 7891TIP3   OH223636   1.225   0.932   5.492 -0.1910 -0.4674  0.2406
 7891TIP3    H123637   1.276   1.004   5.455 -0.8912 -0.3004 -0.4389
 7891TIP3    H223638   1.271   0.907   5.572  0.8698 -0.2395 -0.2904
 7892TIP3   OH223639   6.492   1.288   2.209  0.2639 -0.1943 -0.3972
 7892TIP3    H123640   6.410   1.328   2.180 -0.7013 -1.6321  0.2240
 7892TIP3    H223641   6.519   1.234   2.135 -1.0154 -2.1080  0.4512
 7893TIP3   OH223642   5.878   3.492   5.443  0.1076  0.3723 -0.3740
 7893TIP3    H123643   5.799   3.460   5.486 -0.0372  1.0914 -0.0908
 7893TIP3    H223644   5.859   3.486   5.349 -0.7319  1.6058 -0.3030
 7894TIP3   OH223645   6.601   5.379   0.393 -0.1383 -0.0573  0.6059
 7894TIP3    H123646   6.600   5.339   0.306  1.8475 -0.9950  0.9664
 7894TIP3    H223647   6.549   5.320   0.447 -0.4560 -0.0601  0.3036
 7895TIP3   OH223648   2.834   3.014   5.272  0.0441 -0.1746  0.1467
 7895TIP3    H123649   2.760   3.046   5.221  0.6383 -0.1699 -0.7302
 7895TIP3    H223650   2.862   3.089   5.323 -0.4286 -0.1221  0.3306
 7896TIP3   OH223651   5.373   4.349   3.705 -0.2616  0.1371 -0.2619
 7896TIP3    H123652   5.426   4.270   3.693  0.0580  0.4465 -0.9300
 7896TIP3    H223653   5.386   4.399   3.624 -1.7457  0.1173 -0.5328
 7897TIP3   OH223654   0.250   4.665   1.629  0.4194  0.4408  0.0401
 7897TIP3    H123655   0.268   4.654   1.722 -3.7569  2.5794  1.3796
 7897TIP3    H223656   0.191   4.593   1.608  0.4194  0.6297 -0.6274
 7898TIP3   OH223657   5.822   0.568   5.751 -0.2710  0.0745 -0.5034
 7898TIP3    H123658   5.884   0.633   5.786 -0.0556 -0.3208 -0.1437
 7898TIP3    H223659   5.743   0.618   5.733 -0.0487  0.4725 -0.3961
 7899TIP3   OH223660   0.704   6.056   4.899  0.7157  0.6185 -0.2568
 7899TIP3    H123661   0.797   6.061   4.874  0.6546  0.3929 -0.5226
 7899TIP3    H223662   0.687   6.141   4.942  1.6940 -0.2656  2.0735
 7900TIP3   OH223663   5.925   0.457   5.531 -0.2833 -0.2163  0.2650
 7900TIP3    H123664   6.013   0.433   5.560 -0.9891 -1.5649  1.4233
 7900TIP3    H223665   5.897   0.524   5.594 -0.8209 -1.2564  1.1748
 7901TIP3   OH223666   0.062   2.739   2.242 -0.2329  0.2743 -0.9236
 7901TIP3    H123667   0.031   2.678   2.309 -0.7806 -0.1411 -1.5488
 7901TIP3    H223668   0.156   2.720   2.235 -0.3806 -0.4470 -1.0537
 7902TIP3   OH223669   0.146   1.603   3.484  0.1174  0.0755  0.5876
 7902TIP3    H123670   0.199   1.653   3.546 -0.5191  0.7716  0.5862
 7902TIP3    H223671   0.058   1.642   3.490  0.2804  0.9334 -1.5440
 7903TIP3   OH223672   3.019   3.370   3.113  0.3082  0.1030  0.1688
 7903TIP3    H123673   3.031   3.282   3.077  0.8626 -0.2606  1.2083
 7903TIP3    H223674   3.038   3.361   3.206  0.4752  1.3519  0.2720
 7904TIP3   OH223675   5.252   1.368   5.569  1.0351  0.0424 -0.3651
 7904TIP3    H123676   5.190   1.429   5.529  0.5252 -1.0489 -1.2801
 7904TIP3    H223677   5.268   1.405   5.656  1.4702  1.9748 -1.2094
 7905TIP3   OH223678   4.798   5.384   1.861 -0.2273 -0.1663 -0.4499
 7905TIP3    H123679   4.735   5.340   1.803  0.5272  0.2542 -1.6256
 7905TIP3    H223680   4.750   5.458   1.897 -0.6609 -0.3355 -0.6639
 7906TIP3   OH223681   4.872   5.534   0.833  0.4207  0.0598  0.3159
 7906TIP3    H123682   4.819   5.614   0.842  1.4389  0.8007 -0.0376
 7906TIP3    H223683   4.820   5.477   0.777  0.2060  0.9734 -0.4388
 7907TIP3   OH223684   5.854   2.859   1.685 -0.7478 -0.4461 -0.1778
 7907TIP3    H123685   5.919   2.833   1.620  1.5078  2.6323  0.6239
 7907TIP3    H223686   5.844   2.953   1.671 -1.2381  0.0613  3.0078
 7908TIP3   OH223687   0.313   3.783   2.449 -0.5614  0.1647  0.2008
 7908TIP3    H123688   0.393   3.732   2.467 -1.2854 -1.8132 -1.7027
 7908TIP3    H223689   0.332   3.829   2.367 -1.0804  0.3534  0.1834
 7909TIP3   OH223690   1.839   4.841   5.891  0.1013 -0.1051  0.2360
 7909TIP3    H123691   1.876   4.924   5.921 -2.2824  1.6491 -1.3247
 7909TIP3    H223692   1.832   4.851   5.796 -0.4694 -2.0173  0.0377
 7910TIP3   OH223693   2.482   4.162   3.441 -0.3803  0.0501 -0.3727
 7910TIP3    H123694   2.417   4.100   3.410 -1.7696  0.3286  1.7789
 7910TIP3    H223695   2.449   4.191   3.527  1.4831  1.8448 -0.1795
 7911TIP3   OH223696   4.221   5.057   1.896 -0.6529 -0.0953  0.3120
 7911TIP3    H123697   4.194   5.143   1.863  0.3212  0.7838  1.7071
 7911TIP3    H223698   4.315   5.054   1.879 -0.6946 -0.9278  0.2155
 7912TIP3   OH223699   4.986   4.549   5.110  0.3493  0.0806 -0.3771
 7912TIP3    H123700   5.041   4.616   5.070  1.6495 -1.2891 -0.9226
 7912TIP3    H223701   4.919   4.530   5.044  1.6731 -1.1824 -1.3957
 7913TIP3   OH223702   2.677   2.139   5.540  0.1841 -0.5932  0.0397
 7913TIP3    H123703   2.597   2.096   5.509 -0.5921 -0.2023  1.4531
 7913TIP3    H223704   2.714   2.078   5.604  0.1968 -0.0846  0.5166
 7914TIP3   OH223705   6.366   6.618   0.193 -0.4008 -0.0066 -0.3022
 7914TIP3    H123706   6.305   6.659   0.131 -0.6728  2.0710  1.2315
 7914TIP3    H223707   6.443   6.674   0.191 -0.7880  0.7164  1.8683
 7915TIP3   OH223708   5.912   1.200   1.093  0.0323  0.1030 -0.1244
 7915TIP3    H123709   5.984   1.244   1.139  0.2424 -1.5337  1.1940
 7915TIP3    H223710   5.835   1.215   1.149 -0.1758 -0.0731 -0.3587
 7916TIP3   OH223711   7.069   3.822   3.536  0.2637  0.0778 -0.2848
 7916TIP3    H123712   7.126   3.898   3.528  1.8415 -0.9964  0.3413
 7916TIP3    H223713   6.999   3.850   3.596  1.0362  0.9096  0.2470
 7917TIP3   OH223714   2.275   5.302   5.580 -0.1332  0.8237 -0.0694
 7917TIP3    H123715   2.342   5.371   5.577  0.4684  0.3114  0.9889
 7917TIP3    H223716   2.196   5.346   5.610  0.0348  1.2079 -0.1819
 7918TIP3   OH223717   3.701   3.100   3.016  0.0591  0.2833 -0.0297
 7918TIP3    H123718   3.626   3.080   2.958 -0.9160  1.1738  0.8912
 7918TIP3    H223719   3.707   3.024   3.073 -0.4949  0.4417  0.2447
 7919TIP3   OH223720   1.565   1.534   3.659  0.3999 -0.0675 -0.2934
 7919TIP3    H123721   1.555   1.629   3.648  1.6319  0.1744  0.5054
 7919TIP3    H223722   1.561   1.520   3.753 -0.0372 -0.8610 -0.4188
 7920TIP3   OH223723   6.230   3.077   4.217  0.6309 -0.1302 -0.4056
 7920TIP3    H123724   6.137   3.068   4.196  0.3430  1.0082  0.3048
 7920TIP3    H223725   6.267   2.991   4.198 -0.2011 -0.0859 -2.4371
 7921TIP3   OH223726   1.559   0.987   5.505  0.4409 -0.0718 -0.5611
 7921TIP3    H123727   1.495   1.056   5.489 -0.6448 -1.0392 -0.5401
 7921TIP3    H223728   1.564   0.939   5.422 -0.1897 -1.0462 -0.0579
 7922TIP3   OH223729   2.822   2.317   4.438 -0.5710 -0.0934  0.3001
 7922TIP3    H123730   2.876   2.318   4.517 -2.3968 -2.1142  1.6939
 7922TIP3    H223731   2.758   2.387   4.453  0.8890  1.5913 -0.8761
 7923TIP3   OH223732   5.259   0.842   2.948  0.2292 -0.4007  0.2733
 7923TIP3    H123733   5.328   0.822   3.011  0.1993  0.3576  0.5683
 7923TIP3    H223734   5.194   0.890   3.000  0.5292  0.8506 -0.4738
 7924TIP3   OH223735   2.993   4.780   1.945 -0.2246 -0.3573  0.2978
 7924TIP3    H123736   2.935   4.854   1.925 -0.0107 -0.6703 -1.7529
 7924TIP3    H223737   2.973   4.715   1.878  1.0042 -1.3463  0.8378
 7925TIP3   OH223738   1.553   4.130   2.342  0.5072 -0.2384 -0.6134
 7925TIP3    H123739   1.641   4.118   2.305  1.9829 -1.6851  2.8982
 7925TIP3    H223740   1.549   4.223   2.365  1.8118 -0.4403  0.5762
 7926TIP3   OH223741   0.202   3.068   3.310  0.2889  0.0279  0.0834
 7926TIP3    H123742   0.146   2.998   3.274  2.4099 -2.9216  2.1056
 7926TIP3    H223743   0.276   3.072   3.250 -0.2164  1.2632 -0.5008
 7927TIP3   OH223744   5.685   0.649   1.064 -0.3473  0.6495  0.0409
 7927TIP3    H123745   5.776   0.621   1.071 -0.5747 -0.1912 -0.2568
 7927TIP3    H223746   5.647   0.592   0.997 -1.2089  0.6751  0.4918
 7928TIP3   OH223747   5.094   0.287   4.269  0.2440 -0.4270 -0.0182
 7928TIP3    H123748   5.028   0.354   4.250  1.1553  0.5682  0.2587
 7928TIP3    H223749   5.138   0.318   4.347  1.8471 -0.4508 -0.8764
 7929TIP3   OH223750   1.238   1.183   5.125  0.3291 -0.3471 -0.5316
 7929TIP3    H123751   1.205   1.096   5.148 -0.9404  0.1048 -0.5765
 7929TIP3    H223752   1.265   1.175   5.034  1.2844 -0.9819 -0.2086
 7930TIP3   OH223753   1.327   4.764   4.122 -0.8375 -0.4462 -0.4204
 7930TIP3    H123754   1.247   4.775   4.173 -0.5432  1.0325 -0.2407
 7930TIP3    H223755   1.301   4.711   4.047 -2.0815  0.3520 -0.5745
 7931TIP3   OH223756   4.297   4.820   5.796  1.0102 -0.5960 -0.0458
 7931TIP3    H123757   4.231   4.831   5.865  2.1427 -0.8402  1.1153
 7931TIP3    H223758   4.249   4.779   5.724 -0.2754 -0.0671  0.4704
 7932TIP3   OH223759   1.399   0.080   1.393  0.1179 -0.0106  0.2092
 7932TIP3    H123760   1.355   0.011   1.344  0.6084 -0.0433 -0.1890
 7932TIP3    H223761   1.470   0.109   1.336  0.0787  0.6441  0.4795
 7933TIP3   OH223762   5.388   1.836   0.112  0.0063  0.3224  0.1227
 7933TIP3    H123763   5.441   1.912   0.135  2.1852 -1.1785  0.4342
 7933TIP3    H223764   5.444   1.785   0.053 -0.4918 -2.0163  1.5228
 7934TIP3   OH223765   3.792   5.027   4.372 -0.0256 -0.5070  0.3417
 7934TIP3    H123766   3.791   4.943   4.417 -1.5506 -0.7759 -0.1217
 7934TIP3    H223767   3.850   5.082   4.425  0.2464 -1.5664  1.1818
 7935TIP3   OH223768   1.696   2.165   1.159  0.5363 -0.4324  0.3215
 7935TIP3    H123769   1.627   2.101   1.141  1.0824 -0.9101 -0.1113
 7935TIP3    H223770   1.728   2.192   1.073  1.5198 -0.9261  0.5068
 7936TIP3   OH223771   2.505   5.123   5.401 -0.1182 -0.1779 -0.2962
 7936TIP3    H123772   2.428   5.117   5.458  1.1787  1.8076  1.8803
 7936TIP3    H223773   2.565   5.057   5.435  0.6017  0.9156  0.6715
 7937TIP3   OH223774   0.649   0.384   2.211 -0.1323  0.1518 -0.1737
 7937TIP3    H123775   0.613   0.389   2.122  0.2706  2.4416 -0.2827
 7937TIP3    H223776   0.742   0.364   2.197 -0.0756  0.4771 -0.2797
 7938TIP3   OH223777   6.786   4.742   5.565 -0.4499  0.1287  0.3409
 7938TIP3    H123778   6.697   4.706   5.560 -0.6610  0.7779 -0.7940
 7938TIP3    H223779   6.787   4.812   5.500  1.2498 -0.6600 -0.5405
 7939TIP3   OH223780   2.843   5.272   2.773  0.4520 -0.3251 -0.1615
 7939TIP3    H123781   2.756   5.276   2.735 -0.0899 -2.8337  0.6664
 7939TIP3    H223782   2.829   5.278   2.867  1.2781  0.1580 -0.0525
 7940TIP3   OH223783   4.770   3.796   4.169 -0.0890 -0.0253 -1.1159
 7940TIP3    H123784   4.780   3.771   4.261 -1.0070  0.9402 -0.7407
 7940TIP3    H223785   4.858   3.787   4.132  0.4305  0.2316  0.0275
 7941TIP3   OH223786   4.472   1.137   2.666  0.2688 -0.1198 -0.1292
 7941TIP3    H123787   4.539   1.172   2.725 -1.0257  0.3230  1.1090
 7941TIP3    H223788   4.397   1.195   2.678 -0.1157 -0.1504 -2.0716
 7942TIP3   OH223789   5.589   3.098   5.120 -0.0866 -0.0002  0.1640
 7942TIP3    H123790   5.622   3.158   5.187 -0.7111  0.5393 -0.0016
 7942TIP3    H223791   5.601   3.145   5.038  3.2458 -1.6951 -0.5117
 7943TIP3   OH223792   0.024   0.102   0.648 -0.2288 -0.1455  0.0656
 7943TIP3    H123793   0.051   0.167   0.583  0.3778 -1.1596 -0.7228
 7943TIP3    H223794   0.102   0.089   0.703 -0.7244  0.6747  1.0032
 7944TIP3   OH223795   1.386   2.130   4.810 -0.6149  0.6684 -0.1638
 7944TIP3    H123796   1.304   2.084   4.791 -0.2503  0.2470 -0.7488
 7944TIP3    H223797   1.368   2.178   4.891 -1.3710  0.4134 -0.1705
 7945TIP3   OH223798   4.271   1.354   2.759 -0.3989  0.0869  0.0810
 7945TIP3    H123799   4.273   1.416   2.832 -2.3273  0.3228 -0.0071
 7945TIP3    H223800   4.207   1.288   2.786 -1.3228  0.2978 -1.4500
 7946TIP3   OH223801   3.396   3.680   1.919  0.4294  0.2289 -0.1569
 7946TIP3    H123802   3.491   3.689   1.911  0.2665  0.6715 -2.2206
 7946TIP3    H223803   3.362   3.766   1.893 -0.5466  0.2070  0.9462
 7947TIP3   OH223804   4.478   5.462   4.189  0.1649 -0.1415 -0.6230
 7947TIP3    H123805   4.538   5.460   4.264 -0.7069 -0.6431  0.0832
 7947TIP3    H223806   4.391   5.461   4.228 -0.3157  0.8957 -1.6321
 7948TIP3   OH223807   4.293   2.598   5.571 -0.1770 -0.3015 -0.4530
 7948TIP3    H123808   4.245   2.542   5.510 -0.5687 -2.0685  1.3824
 7948TIP3    H223809   4.382   2.601   5.535  0.0425 -2.7319 -0.2447
 7949TIP3   OH223810   4.271   5.784   5.651  0.7518 -0.3296  0.0899
 7949TIP3    H123811   4.254   5.817   5.739 -0.6607  2.0684 -0.9787
 7949TIP3    H223812   4.338   5.842   5.615 -0.3930  0.2765 -1.1838
 7950TIP3   OH223813   6.054   5.719   4.035  0.0368 -0.0264 -0.5481
 7950TIP3    H123814   6.092   5.640   4.072 -0.3788 -0.2805 -0.6578
 7950TIP3    H223815   6.005   5.689   3.959 -2.6532 -0.1168  1.0966
 7951TIP3   OH223816   0.495   0.206   5.297  0.5817 -0.4605  0.1835
 7951TIP3    H123817   0.473   0.293   5.331 -0.1524 -0.3947 -0.4332
 7951TIP3    H223818   0.530   0.159   5.373  0.2558  0.1249  0.7059
 7952TIP3   OH223819   1.444   5.464   3.706 -0.0180 -0.2583 -0.6324
 7952TIP3    H123820   1.519   5.492   3.654  1.3042 -0.7811  0.9005
 7952TIP3    H223821   1.372   5.459   3.644  1.2103  0.2503 -2.1649
 7953TIP3   OH223822   1.182   5.169   4.941 -0.3579  0.2090  0.0803
 7953TIP3    H123823   1.121   5.236   4.974  1.0444  1.1183  0.9783
 7953TIP3    H223824   1.192   5.108   5.014  0.0084  0.2300  0.0512
 7954TIP3   OH223825   1.731   1.400   5.882 -0.2918  0.7601  0.1220
 7954TIP3    H123826   1.642   1.364   5.876  0.2186 -0.5474  0.0272
 7954TIP3    H223827   1.763   1.401   5.792  0.3697 -0.3674  0.3214
 7955TIP3   OH223828   6.660   0.696   5.112  0.1249  0.1555  0.3723
 7955TIP3    H123829   6.689   0.703   5.021 -1.7403 -0.0981 -0.2761
 7955TIP3    H223830   6.590   0.632   5.110 -0.6901  0.9580  1.8099
 7956TIP3   OH223831   0.127   4.753   0.717  0.2224 -0.2942  0.1152
 7956TIP3    H123832   0.168   4.667   0.722  1.2747  0.1773  0.0174
 7956TIP3    H223833   0.156   4.798   0.796 -0.1167  0.0516  0.0449
 7957TIP3   OH223834   5.555   3.515   0.077 -0.1228  0.3357  0.0204
 7957TIP3    H123835   5.525   3.591   0.126  3.2973  1.6016  0.3896
 7957TIP3    H223836   5.587   3.550  -0.006  0.9547 -0.7744 -0.0656
 7958TIP3   OH223837   4.265   1.755   0.616  0.5888 -0.2367  0.5351
 7958TIP3    H123838   4.350   1.714   0.635 -0.4335 -3.6408 -1.4624
 7958TIP3    H223839   4.263   1.762   0.521 -1.1972  0.2059  0.5889
 7959TIP3   OH223840   2.800   0.907   4.239  0.5588 -0.5621  0.5418
 7959TIP3    H123841   2.876   0.849   4.248  0.0404 -0.9156  3.9990
 7959TIP3    H223842   2.736   0.870   4.300 -1.9075  0.5319 -1.2585
 7960TIP3   OH223843   1.339   3.013   2.717  0.4587  0.1478 -1.0625
 7960TIP3    H123844   1.283   2.935   2.710  0.9374 -0.1119 -2.1246
 7960TIP3    H223845   1.279   3.087   2.707 -0.1371 -0.0235  0.8027
 7961TIP3   OH223846   4.509   5.740   2.050  0.4714 -0.1283  0.2555
 7961TIP3    H123847   4.547   5.827   2.044 -2.4035  1.3155  0.7872
 7961TIP3    H223848   4.440   5.739   1.983 -0.1280 -1.6546  0.8408
 7962TIP3   OH223849   4.233   6.558   1.408 -0.5389  0.3340  0.3584
 7962TIP3    H123850   4.167   6.616   1.448 -0.7433 -0.2215  0.8308
 7962TIP3    H223851   4.183   6.484   1.375 -0.3193  0.5871 -0.5723
 7963TIP3   OH223852   0.495   2.843   5.118  0.8675 -0.0967  0.3331
 7963TIP3    H123853   0.478   2.796   5.036  0.9328 -0.2189  0.3881
 7963TIP3    H223854   0.563   2.906   5.096  1.6182 -0.8201  0.5262
 7964TIP3   OH223855   4.963   6.032   0.423 -0.1632  0.1878  0.0605
 7964TIP3    H123856   4.913   5.990   0.493 -0.9049  0.2078 -0.4436
 7964TIP3    H223857   4.981   5.962   0.360  0.7738  0.1025  0.4147
 7965TIP3   OH223858   2.880   4.285   1.076 -0.0094 -0.5238  0.2822
 7965TIP3    H123859   2.957   4.275   1.132 -0.5459 -0.4620  1.0588
 7965TIP3    H223860   2.848   4.373   1.097 -0.8095 -0.8921  0.6623
 7966TIP3   OH223861   5.096   0.115   3.405 -0.2245 -0.1022  0.1492
 7966TIP3    H123862   5.095   0.195   3.458 -0.6608  0.8294 -1.2157
 7966TIP3    H223863   5.152   0.136   3.330 -0.2367 -1.1268 -0.1670
 7967TIP3   OH223864   0.475   3.030   1.090  0.5431 -0.3772 -0.3353
 7967TIP3    H123865   0.442   3.004   1.004 -0.1325 -2.6184  0.5100
 7967TIP3    H223866   0.414   2.989   1.152  1.7756  0.0539  1.2246
 7968TIP3   OH223867   4.520   4.924   1.849  0.0684 -0.4022 -0.0449
 7968TIP3    H123868   4.604   4.880   1.862  1.4926  1.8795 -0.8041
 7968TIP3    H223869   4.504   4.917   1.755 -0.5530 -0.7323  0.0821
 7969TIP3   OH223870   6.834   5.348   0.760  0.0732  0.0218 -0.0403
 7969TIP3    H123871   6.880   5.272   0.797  0.1601  0.9158  1.8171
 7969TIP3    H223872   6.756   5.357   0.814  0.2670  1.4780  0.0332
 7970TIP3   OH223873   6.892   4.789   3.147  0.4800 -0.3807  0.2564
 7970TIP3    H123874   6.942   4.774   3.227  0.3192  0.0528  0.4412
 7970TIP3    H223875   6.913   4.880   3.123 -2.5638  0.9109  2.0077
 7971TIP3   OH223876   4.798   1.196   3.123  0.1016 -0.0351 -0.2580
 7971TIP3    H123877   4.817   1.226   3.034 -0.9091  1.8671  0.1202
 7971TIP3    H223878   4.703   1.198   3.130  0.1488 -0.5820  0.7324
 7972TIP3   OH223879   6.164   4.808   4.159  0.2742  0.7830 -0.0451
 7972TIP3    H123880   6.238   4.810   4.219  0.7542 -0.5368 -0.5490
 7972TIP3    H223881   6.087   4.818   4.215  0.6598 -1.1346  0.9185
 7973TIP3   OH223882   3.600   2.450   5.302 -0.3453 -0.3562 -0.3768
 7973TIP3    H123883   3.607   2.545   5.290 -1.8516 -0.3064 -1.0378
 7973TIP3    H223884   3.507   2.431   5.293 -0.3739 -1.6499  1.8340
 7974TIP3   OH223885   3.620   6.154   0.869 -0.3212 -0.1534 -0.3870
 7974TIP3    H123886   3.540   6.178   0.915  0.1593  0.1160  0.3379
 7974TIP3    H223887   3.606   6.184   0.779  0.0622  2.5532  0.3524
 7975TIP3   OH223888   6.471   4.839   2.819  0.2667 -0.3953 -0.3185
 7975TIP3    H123889   6.530   4.858   2.892  0.8314 -1.7469 -0.3998
 7975TIP3    H223890   6.389   4.811   2.861 -0.5464  1.9043 -0.1971
 7976TIP3   OH223891   5.503   3.850   0.815  0.0410 -0.0786 -0.0759
 7976TIP3    H123892   5.459   3.935   0.813  1.4043  0.6998  1.3132
 7976TIP3    H223893   5.583   3.863   0.765  1.3147  0.1280  1.9187
 7977TIP3   OH223894   6.918   1.160   5.408  0.7789  0.7002 -0.0233
 7977TIP3    H123895   6.991   1.099   5.415  0.1773 -0.0016  0.2164
 7977TIP3    H223896   6.905   1.170   5.313 -0.2101 -0.9036 -0.1025
 7978TIP3   OH223897   4.845   0.800   5.707  0.4352 -0.0582  0.0539
 7978TIP3    H123898   4.811   0.736   5.769 -0.5933  0.2540 -0.1657
 7978TIP3    H223899   4.796   0.783   5.626  0.6253  0.5783 -0.2004
 7979TIP3   OH223900   7.101   1.928   1.557 -0.1913 -0.4936  0.5231
 7979TIP3    H123901   7.161   1.912   1.630  0.4404 -0.8063 -0.0544
 7979TIP3    H223902   7.031   1.980   1.596  0.1322 -0.6496  1.3551
 7980TIP3   OH223903   3.523   4.885   1.275 -0.2258 -0.0490 -0.4867
 7980TIP3    H123904   3.561   4.949   1.215  1.1439  1.7345  2.0842
 7980TIP3    H223905   3.429   4.885   1.253 -0.3591  3.1578 -0.4379
 7981TIP3   OH223906   6.441   4.864   5.485  0.2867  0.1503 -0.2432
 7981TIP3    H123907   6.443   4.782   5.533 -0.6939  0.7754  0.9112
 7981TIP3    H223908   6.525   4.867   5.439  1.8648  0.1455  2.4749
 7982TIP3   OH223909   7.214   4.542   4.623 -0.0424  0.0843  0.1234
 7982TIP3    H123910   7.247   4.599   4.554 -0.3406  0.9264  0.6504
 7982TIP3    H223911   7.132   4.507   4.588  1.1723 -1.7490 -1.0509
 7983TIP3   OH223912   0.078   2.487   0.617 -0.1194  0.8601  0.3936
 7983TIP3    H123913   0.058   2.533   0.535 -0.0347 -0.5567 -0.4696
 7983TIP3    H223914  -0.006   2.457   0.649  0.0789 -1.5884 -1.0833
 7984TIP3   OH223915   0.653   4.728   2.846 -0.2009  0.7193  0.1652
 7984TIP3    H123916   0.683   4.734   2.756 -0.2096 -1.8645 -0.0781
 7984TIP3    H223917   0.694   4.649   2.880 -1.8647  0.4727  1.7482
 7985TIP3   OH223918   4.493   2.443   2.074  0.1098  0.1544 -0.2513
 7985TIP3    H123919   4.441   2.491   2.009 -0.3297 -0.8764 -0.6855
 7985TIP3    H223920   4.445   2.361   2.087  0.3966  0.1736  1.0929
 7986TIP3   OH223921   4.635   4.411   0.888  0.3006 -0.3453  0.4150
 7986TIP3    H123922   4.699   4.349   0.924  0.9688  0.4403  0.6288
 7986TIP3    H223923   4.580   4.434   0.963 -0.6939 -1.5374  0.0845
 7987TIP3   OH223924   2.976   0.577   5.697  0.0413  0.2199  0.7695
 7987TIP3    H123925   3.067   0.549   5.696 -0.6691 -2.4586  1.4735
 7987TIP3    H223926   2.974   0.650   5.759  1.8454  1.1281 -0.1677
 7988TIP3   OH223927   5.039   1.548   2.112 -0.1560 -0.1074  0.1357
 7988TIP3    H123928   5.055   1.580   2.024 -0.3077  1.3262  0.6087
 7988TIP3    H223929   4.954   1.585   2.137 -0.5771 -1.2813  0.5418
 7989TIP3   OH223930   0.409   4.784   4.231 -0.5346  0.7974 -0.1858
 7989TIP3    H123931   0.451   4.736   4.160 -1.9011  0.3434 -0.7218
 7989TIP3    H223932   0.317   4.787   4.206 -1.0024  0.8310  1.4619
 7990TIP3   OH223933   4.825   3.205   2.337 -0.2276 -0.3146 -0.4162
 7990TIP3    H123934   4.877   3.254   2.401  2.0676 -1.1133 -1.5534
 7990TIP3    H223935   4.843   3.248   2.254 -0.1584 -1.5375 -1.0583
 7991TIP3   OH223936   6.321   0.316   4.194  0.0235  0.5739 -0.2226
 7991TIP3    H123937   6.269   0.258   4.249 -0.0487  0.6196 -0.2430
 7991TIP3    H223938   6.259   0.350   4.129 -0.0029  0.9313 -0.0087
 7992TIP3   OH223939   5.023   4.986   0.584 -0.1348 -0.0535 -0.1875
 7992TIP3    H123940   5.039   5.072   0.623 -1.0690 -0.2022  0.5659
 7992TIP3    H223941   5.008   4.928   0.659 -1.1547 -0.5092 -0.7211
 7993TIP3   OH223942   4.941   2.657   1.582  0.9002  0.1066  0.4879
 7993TIP3    H123943   4.995   2.736   1.576 -0.0211  0.7823  0.8470
 7993TIP3    H223944   4.851   2.690   1.588  0.5215 -0.9617  0.8980
 7994TIP3   OH223945   5.296   5.755   4.396  0.3038  0.0498  0.5247
 7994TIP3    H123946   5.217   5.722   4.353  0.4252  0.6379 -0.1651
 7994TIP3    H223947   5.300   5.707   4.479 -1.1853  0.5475  0.9142
 7995TIP3   OH223948   3.851   5.068   2.145  0.1067  0.1790 -0.1990
 7995TIP3    H123949   3.783   5.055   2.212 -1.2518  0.3372 -1.5057
 7995TIP3    H223950   3.885   5.156   2.162  0.7804 -0.3109  1.1354
 7996TIP3   OH223951   5.846   5.265   0.361 -0.0430 -0.4456 -0.3256
 7996TIP3    H123952   5.754   5.239   0.366 -0.3269  0.6675  0.3727
 7996TIP3    H223953   5.873   5.278   0.451  0.5051  0.2341 -0.5760
 7997TIP3   OH223954   5.024   5.685   4.373 -0.7024  0.1043 -0.5454
 7997TIP3    H123955   5.015   5.621   4.443  0.8523  2.2423  1.8087
 7997TIP3    H223956   4.954   5.749   4.390  0.7209  1.5479  0.2537
 7998TIP3   OH223957   0.185   5.257   1.214 -0.1807  0.7479 -0.0796
 7998TIP3    H123958   0.196   5.253   1.119 -0.0925 -0.8529 -0.0328
 7998TIP3    H223959   0.144   5.342   1.230  0.7508  1.4935 -1.4370
 7999TIP3   OH223960   6.673   2.395   3.811  0.3205  0.8099 -0.0147
 7999TIP3    H123961   6.744   2.410   3.873 -0.0648  2.2294  0.1185
 7999TIP3    H223962   6.649   2.482   3.780 -0.2706  0.2184 -1.2977
 8000TIP3   OH223963   4.557   3.800   0.079 -0.4884 -0.6359  0.0193
 8000TIP3    H123964   4.585   3.850   0.157 -0.7236 -0.4075 -0.0420
 8000TIP3    H223965   4.605   3.718   0.086 -1.1263 -0.9601  0.8429
 8001TIP3   OH223966   1.171   1.953   5.005  0.2568  0.0704  0.6085
 8001TIP3    H123967   1.078   1.962   4.981  0.8199  1.1551 -1.4082
 8001TIP3    H223968   1.201   1.876   4.956  0.4346 -0.2791  1.2581
 8002TIP3   OH223969   0.268   6.394   3.747  0.4654  0.5632 -0.3456
 8002TIP3    H123970   0.276   6.364   3.657  1.2538 -0.8579  0.1545
 8002TIP3    H223971   0.174   6.401   3.763  0.2406 -1.6014 -0.5359
 8003TIP3   OH223972   2.584   5.627   1.492 -0.0162 -0.6435  0.0467
 8003TIP3    H123973   2.622   5.545   1.460 -0.4613 -1.5607  1.7212
 8003TIP3    H223974   2.651   5.663   1.551 -0.1361 -0.2028 -0.0851
 8004TIP3   OH223975   1.193   1.518   0.209  0.1503  0.1855  1.0304
 8004TIP3    H123976   1.210   1.479   0.295  0.2415  0.4451  1.1311
 8004TIP3    H223977   1.170   1.609   0.228  2.5215  0.9278  0.6315
 8005TIP3   OH223978   1.825   1.334   2.231  0.4667  0.2294 -0.7539
 8005TIP3    H123979   1.883   1.259   2.243 -0.6590 -0.3223  1.8571
 8005TIP3    H223980   1.881   1.410   2.249  0.8793 -0.1700 -0.3286
 8006TIP3   OH223981   0.757   3.522   2.417  0.4739 -0.4929  0.0761
 8006TIP3    H123982   0.781   3.607   2.379 -1.1730 -0.5036 -1.1078
 8006TIP3    H223983   0.838   3.487   2.452  1.8242  0.2256 -2.1516
 8007TIP3   OH223984   5.647   3.767   3.580 -0.1704  0.6264  0.3092
 8007TIP3    H123985   5.690   3.807   3.505  0.9807  0.6046  0.9401
 8007TIP3    H223986   5.558   3.747   3.549 -0.2098  2.0247 -0.5633
 8008TIP3   OH223987   5.715   5.605   4.817 -0.2655 -0.0852 -0.1425
 8008TIP3    H123988   5.730   5.615   4.723 -0.2919 -1.6454 -0.3274
 8008TIP3    H223989   5.750   5.519   4.838  0.1414  0.4299  1.3735
 8009TIP3   OH223990   3.820   5.266   5.102  0.5531  0.0881  0.1619
 8009TIP3    H123991   3.781   5.204   5.164 -0.0904  1.0745  0.7687
 8009TIP3    H223992   3.850   5.211   5.030  0.0754 -0.9442  0.7179
 8010TIP3   OH223993   6.712   4.532   2.690 -0.7271 -0.2492 -0.3595
 8010TIP3    H123994   6.656   4.561   2.618 -0.8720 -0.5369 -0.3626
 8010TIP3    H223995   6.742   4.614   2.731 -0.2153 -0.0767 -1.0709
 8011TIP3   OH223996   3.936   0.205   2.068 -0.1479  0.3363 -0.1372
 8011TIP3    H123997   4.017   0.251   2.088 -1.3034  1.8193  1.5448
 8011TIP3    H223998   3.927   0.142   2.140 -1.0301  0.9939  0.3454
 8012TIP3   OH223999   2.817   4.772   2.722 -0.5143  0.0609  0.0592
 8012TIP3    H124000   2.816   4.678   2.737 -0.0573 -0.0442 -0.5547
 8012TIP3    H224001   2.781   4.783   2.634 -2.0922  0.5869  0.7358
 8013TIP3   OH224002   4.305   5.519   2.321  0.5278 -0.2988 -0.2629
 8013TIP3    H124003   4.344   5.432   2.324 -0.5263 -0.8325 -1.1165
 8013TIP3    H224004   4.378   5.577   2.302  0.9656 -1.2366 -1.5975
 8014TIP3   OH224005   6.084   2.103   5.283 -0.0472  0.1369  0.1738
 8014TIP3    H124006   6.170   2.068   5.304  0.1811  0.4602 -0.2025
 8014TIP3    H224007   6.048   2.132   5.367  0.1225 -0.1899  0.3604
 8015TIP3   OH224008   6.537   5.738   5.118  0.7931  0.3304 -0.4007
 8015TIP3    H124009   6.614   5.785   5.149  1.6466 -1.2135 -0.1033
 8015TIP3    H224010   6.518   5.675   5.188  1.1577 -1.4134 -1.8040
 8016TIP3   OH224011   6.366   1.778   3.295 -0.1882  0.4508 -0.3493
 8016TIP3    H124012   6.384   1.684   3.293 -0.7872  0.3394 -0.8021
 8016TIP3    H224013   6.271   1.785   3.306 -0.1549  0.9996 -0.3422
 8017TIP3   OH224014   3.834   4.797   4.519  0.3288 -0.2777 -0.3234
 8017TIP3    H124015   3.923   4.778   4.548  0.1471  1.3278  1.4802
 8017TIP3    H224016   3.778   4.748   4.580 -0.0503 -0.2968 -0.6785
 8018TIP3   OH224017   2.826   5.337   5.883  0.1083 -0.2367  0.1999
 8018TIP3    H124018   2.920   5.350   5.866 -0.2084 -0.1760 -1.8002
 8018TIP3    H224019   2.800   5.269   5.820 -1.7356  1.7132 -1.2914
 8019TIP3   OH224020   6.918   0.632   5.752 -0.2336 -0.3836  0.6206
 8019TIP3    H124021   6.970   0.613   5.830  0.9904 -1.2278 -0.3544
 8019TIP3    H224022   6.951   0.571   5.686 -0.7481  0.7807 -0.7709
 8020TIP3   OH224023   6.155   5.682   1.676 -0.3900  0.3921  0.0912
 8020TIP3    H124024   6.059   5.692   1.679 -0.4079  0.1151  0.8616
 8020TIP3    H224025   6.171   5.628   1.599 -0.9174 -0.1659  0.3626
 8021TIP3   OH224026   0.910   5.889   2.407 -0.3825  0.3562  0.6167
 8021TIP3    H124027   0.991   5.883   2.458 -0.7367 -4.1148  1.0445
 8021TIP3    H224028   0.842   5.903   2.473 -0.2143  2.5071  0.4102
 8022TIP3   OH224029   0.928   2.409   3.634  0.5373 -0.0304  0.2541
 8022TIP3    H124030   1.007   2.354   3.630  0.5047 -0.2073  1.5774
 8022TIP3    H224031   0.950   2.486   3.582  2.0961  0.5210  1.6331
 8023TIP3   OH224032   6.168   1.301   4.260 -0.1236 -0.6257  0.0246
 8023TIP3    H124033   6.238   1.291   4.196 -0.5847 -2.6102 -0.2497
 8023TIP3    H224034   6.088   1.287   4.209 -0.7037  0.8986  0.4646
 8024TIP3   OH224035   1.869   2.678   2.513  0.1552 -0.0132  0.0229
 8024TIP3    H124036   1.894   2.586   2.522  1.0840  0.1804 -0.3988
 8024TIP3    H224037   1.903   2.703   2.427  0.5260  0.9047  0.4216
 8025TIP3   OH224038   1.859   1.981   1.962 -0.3124  0.5137 -0.0163
 8025TIP3    H124039   1.854   1.991   1.867  0.8398  0.1787 -0.1360
 8025TIP3    H224040   1.906   2.059   1.992 -0.3160  0.4243  0.2247
 8026TIP3   OH224041   1.466   5.145   5.509  0.8570  0.3659  0.2967
 8026TIP3    H124042   1.417   5.227   5.502  0.7316  0.3914  1.3381
 8026TIP3    H224043   1.445   5.112   5.596  1.1001 -0.6546 -0.0154
 8027TIP3   OH224044   5.764   5.317   4.901  0.0883  0.0140  0.0428
 8027TIP3    H124045   5.846   5.335   4.946  0.3973  0.1643 -0.5752
 8027TIP3    H224046   5.784   5.247   4.840 -0.6614 -1.1581  1.0995
 8028TIP3   OH224047   1.028   0.227   0.313 -0.1903 -0.4898 -0.1305
 8028TIP3    H124048   1.045   0.271   0.396  0.3045 -0.3399 -0.3109
 8028TIP3    H224049   0.934   0.211   0.314 -0.4681  1.0030 -0.2806
 8029TIP3   OH224050   0.602   4.213   0.343  0.4466  0.1172  0.2416
 8029TIP3    H124051   0.512   4.209   0.376  0.7576 -0.7923  1.0044
 8029TIP3    H224052   0.602   4.158   0.265 -0.2026  1.9899 -1.1692
 8030TIP3   OH224053   4.535   2.117   0.919  0.2237  0.1514 -0.0805
 8030TIP3    H124054   4.605   2.094   0.980 -0.3990 -0.9392  0.2487
 8030TIP3    H224055   4.459   2.134   0.974  0.1795  1.1929 -0.4421
 8031TIP3   OH224056   3.648   5.875   5.693  0.1050  0.3692  0.2515
 8031TIP3    H124057   3.576   5.819   5.662 -0.2024 -0.3640  2.1412
 8031TIP3    H224058   3.605   5.936   5.752  1.2308 -1.5919  3.3385
 8032TIP3   OH224059   0.840   6.526   5.207 -0.6958  0.3860 -0.0017
 8032TIP3    H124060   0.808   6.501   5.294 -0.9212 -1.8194 -0.6550
 8032TIP3    H224061   0.861   6.619   5.215 -0.8509  0.2811  2.3579
 8033TIP3   OH224062   6.262   3.716   1.876 -0.0317  0.0532  0.3250
 8033TIP3    H124063   6.292   3.747   1.791  0.0739 -0.5352  0.1384
 8033TIP3    H224064   6.208   3.787   1.911 -0.3738  0.1487 -0.3897
 8034TIP3   OH224065   5.929   4.275   2.841  0.1657  0.0676 -0.4067
 8034TIP3    H124066   5.869   4.279   2.915 -0.6186 -0.1158 -1.0210
 8034TIP3    H224067   5.948   4.367   2.820 -0.0269  0.1273 -0.3122
 8035TIP3   OH224068   5.961   0.770   5.849 -0.0906  0.4440  0.5818
 8035TIP3    H124069   6.014   0.743   5.925 -0.2676  0.0967  0.5867
 8035TIP3    H224070   6.025   0.797   5.784  0.0444  1.4033  1.0911
 8036TIP3   OH224071   0.830   6.325   2.429  0.8057  0.3027 -0.0736
 8036TIP3    H124072   0.806   6.352   2.517  1.0878 -3.2064  1.2350
 8036TIP3    H224073   0.761   6.264   2.402  1.8525 -0.3815 -1.3402
 8037TIP3   OH224074   0.150   5.038   4.900 -0.1367 -0.1250 -0.0545
 8037TIP3    H124075   0.224   5.073   4.851  0.0226 -0.3827  0.0047
 8037TIP3    H224076   0.129   4.956   4.857 -0.0373 -0.3236  0.2746
 8038TIP3   OH224077   1.603   3.032   4.886 -0.9400  0.3418 -0.1322
 8038TIP3    H124078   1.545   3.099   4.849 -0.5373  0.1596 -1.1243
 8038TIP3    H224079   1.544   2.973   4.932 -1.4315  0.7222 -0.2655
 8039TIP3   OH224080   5.884   2.159   4.975  0.3661 -0.3123  0.4974
 8039TIP3    H124081   5.851   2.073   4.998  0.2864 -0.4778 -0.2033
 8039TIP3    H224082   5.806   2.210   4.954  0.2458  0.4971  2.6308
 8040TIP3   OH224083   2.257   5.233   0.561 -0.2797  0.4085  0.0393
 8040TIP3    H124084   2.228   5.196   0.478  0.8498 -1.5658  0.4522
 8040TIP3    H224085   2.352   5.240   0.552 -0.3687  2.6798  0.2578
 8041TIP3   OH224086   1.515   3.864   5.417  0.4790  0.4061  0.2945
 8041TIP3    H124087   1.448   3.894   5.356  0.0688 -0.6664  0.2108
 8041TIP3    H224088   1.596   3.866   5.366  0.2717  0.2721 -0.0429
 8042TIP3   OH224089   0.105   1.173   0.738  0.3640 -0.1492  0.2748
 8042TIP3    H124090   0.037   1.143   0.798  1.3259 -0.4508  1.2266
 8042TIP3    H224091   0.140   1.253   0.778 -0.0085  0.5003 -0.6513
 8043TIP3   OH224092   6.944   6.719   1.277 -0.3338  0.3365 -0.8836
 8043TIP3    H124093   6.915   6.727   1.368  0.9251  1.7721 -0.5601
 8043TIP3    H224094   7.029   6.762   1.275  0.0957 -0.4872 -2.5638
 8044TIP3   OH224095   5.269   4.154   0.548 -0.2665  0.3900 -0.0516
 8044TIP3    H124096   5.252   4.060   0.543 -0.2812  0.3426  0.7760
 8044TIP3    H224097   5.340   4.169   0.486  0.5193 -0.3628  0.6456
 8045TIP3   OH224098   4.296   6.139   5.398 -0.3207  0.2762 -0.1400
 8045TIP3    H124099   4.206   6.119   5.375 -0.1612  0.8180 -1.2731
 8045TIP3    H224100   4.298   6.233   5.413 -0.2354  0.0662  1.3337
 8046TIP3   OH224101   1.077   4.128   5.143 -0.3206  0.2197 -0.0409
 8046TIP3    H124102   1.062   4.065   5.213 -0.7022  0.8551  0.4674
 8046TIP3    H224103   1.133   4.195   5.182 -2.3047  1.7389  0.4062
 8047TIP3   OH224104   6.641   2.198   4.052 -0.2193 -0.3991 -0.7332
 8047TIP3    H124105   6.645   2.275   3.996 -1.4446  0.7059  0.6198
 8047TIP3    H224106   6.733   2.179   4.073  0.0522  1.7284  0.2446
 8048TIP3   OH224107   5.338   4.084   3.050  0.5569  0.2876  0.0077
 8048TIP3    H124108   5.246   4.109   3.043  0.3307 -0.5898 -0.2466
 8048TIP3    H224109   5.363   4.061   2.961  0.3004 -1.8914  0.4454
 8049TIP3   OH224110   2.423   2.625   0.580  0.9674  0.8028 -0.5386
 8049TIP3    H124111   2.465   2.692   0.526  0.5719  1.2028 -0.3535
 8049TIP3    H224112   2.444   2.651   0.670  0.1889  1.1085 -0.4346
 8050TIP3   OH224113   6.554   1.060   3.659 -0.1136 -0.3489  0.0971
 8050TIP3    H124114   6.634   1.101   3.691  0.9512 -1.9545 -0.4115
 8050TIP3    H224115   6.550   0.976   3.704 -0.0447 -1.4724 -1.8880
 8051TIP3   OH224116   5.773   1.335   3.869  0.3815  0.1707 -0.1431
 8051TIP3    H124117   5.714   1.407   3.892  0.5453  0.4888 -0.7028
 8051TIP3    H224118   5.800   1.299   3.954  1.0864  1.4217  0.2095
 8052TIP3   OH224119   0.265   1.034   1.537 -0.3669 -0.4579  0.0215
 8052TIP3    H124120   0.298   1.119   1.507 -1.0674 -0.1596  0.0892
 8052TIP3    H224121   0.311   0.970   1.483 -0.9446  0.0321 -1.0748
 8053TIP3   OH224122   3.455   5.691   0.296  0.2817 -0.5346 -0.0233
 8053TIP3    H124123   3.381   5.688   0.357 -0.3531 -1.3747 -0.7840
 8053TIP3    H224124   3.488   5.780   0.302 -2.0895  0.5186 -1.1169
 8054TIP3   OH224125   6.283   0.805   1.864 -0.1553 -0.4798  1.1250
 8054TIP3    H124126   6.295   0.899   1.881 -0.3380 -0.6654  2.3782
 8054TIP3    H224127   6.371   0.768   1.876  0.3078 -0.2439 -1.1673
 8055TIP3   OH224128   3.350   5.342   1.008 -0.2887 -0.4509  0.1719
 8055TIP3    H124129   3.419   5.295   1.055  0.9436 -0.1502 -1.2366
 8055TIP3    H224130   3.352   5.430   1.044  1.6341  0.1896 -1.2888
 8056TIP3   OH224131   4.705   6.361   1.814  0.6394 -0.2664 -0.2145
 8056TIP3    H124132   4.690   6.426   1.745 -0.0779 -0.0029  0.1712
 8056TIP3    H224133   4.796   6.372   1.839  0.2939  1.2746  0.5016
 8057TIP3   OH224134   0.815   4.665   5.164  0.4341  0.6547  0.1915
 8057TIP3    H124135   0.771   4.693   5.083  0.0345  1.9147  0.8204
 8057TIP3    H224136   0.908   4.661   5.140  0.2165 -0.0249 -0.6003
 8058TIP3   OH224137   4.259   2.269   1.687  0.2844  0.5542 -0.2324
 8058TIP3    H124138   4.186   2.322   1.654  0.2658  1.1803  0.7857
 8058TIP3    H224139   4.229   2.179   1.679 -1.4944  0.8475  2.1492
 8059TIP3   OH224140   1.985   0.059   3.185 -0.0457 -0.2871 -0.1174
 8059TIP3    H124141   1.946   0.030   3.268  1.8117 -2.0968  0.1864
 8059TIP3    H224142   2.077   0.073   3.205  0.0705  1.1324 -1.4766
 8060TIP3   OH224143   5.340   4.637   1.378  0.6286 -0.4228  0.0365
 8060TIP3    H124144   5.400   4.666   1.447  1.9215  1.4479 -1.7472
 8060TIP3    H224145   5.286   4.714   1.359  1.1709 -0.4581 -1.8626
 8061TIP3   OH224146   5.209   4.339   4.318 -0.2940 -0.2934 -0.0247
 8061TIP3    H124147   5.249   4.346   4.231 -0.7184  1.8898 -0.1005
 8061TIP3    H224148   5.116   4.352   4.303 -0.5519 -1.2387  0.6395
 8062TIP3   OH224149   2.935   5.747   4.439 -0.1462 -0.2304 -0.2101
 8062TIP3    H124150   2.914   5.835   4.472 -0.4378 -0.4861  0.3125
 8062TIP3    H224151   2.870   5.731   4.371 -0.1564 -0.0800 -0.2373
 8063TIP3   OH224152   3.187   3.940   2.081  0.5360 -0.7360  0.7085
 8063TIP3    H124153   3.200   3.909   2.171 -0.5118  0.8057  1.4484
 8063TIP3    H224154   3.246   4.015   2.073  0.1374 -0.4536  0.3568
 8064TIP3   OH224155   1.687   5.866   2.753  0.5799  0.0387 -0.2002
 8064TIP3    H124156   1.594   5.865   2.774  0.1541  0.9666 -1.8825
 8064TIP3    H224157   1.700   5.792   2.693  1.1889 -0.8066  0.9356
 8065TIP3   OH224158   4.825   4.227   0.948  0.1944 -0.3351 -0.7829
 8065TIP3    H124159   4.868   4.209   1.032  1.7024 -1.6188 -1.7647
 8065TIP3    H224160   4.823   4.142   0.903 -0.1290  0.4029 -2.2338
 8066TIP3   OH224161   2.248   4.042   0.119 -0.1040 -0.1245 -0.6319
 8066TIP3    H124162   2.288   4.014   0.202  0.2434 -0.9838 -1.0806
 8066TIP3    H224163   2.286   4.128   0.103 -0.3777  0.1727  0.2386
 8067TIP3   OH224164   3.255   4.382   3.568  0.4709 -1.0251  0.0223
 8067TIP3    H124165   3.343   4.415   3.554  0.1155  0.5908  1.3407
 8067TIP3    H224166   3.197   4.450   3.535 -0.3096 -1.9701 -0.6273
 8068TIP3   OH224167   0.934   2.533   5.333 -0.5763 -0.0906 -0.0345
 8068TIP3    H124168   0.908   2.625   5.323 -0.8125  0.1211  2.1439
 8068TIP3    H224169   0.870   2.496   5.394 -1.4795 -2.1940 -2.0654
 8069TIP3   OH224170   1.970   6.047   3.348 -0.0227  0.1218 -0.0108
 8069TIP3    H124171   1.883   6.086   3.334  0.2273  0.5423 -0.4449
 8069TIP3    H224172   1.970   5.968   3.294 -0.6995 -0.7557  1.2326
 8070TIP3   OH224173   2.379   4.967   5.636 -0.3935  0.3951 -0.2131
 8070TIP3    H124174   2.390   4.874   5.613  0.3660  0.3515  0.3035
 8070TIP3    H224175   2.310   4.997   5.577 -0.1015 -0.2986 -0.9436
 8071TIP3   OH224176   1.563   0.684   4.804  0.1836 -0.2909  0.1427
 8071TIP3    H124177   1.640   0.739   4.792  0.5051 -0.8975 -0.6933
 8071TIP3    H224178   1.581   0.634   4.884  0.6073 -0.3481  0.0123
 8072TIP3   OH224179   1.184   6.493   0.799  0.4102 -0.0936 -0.2649
 8072TIP3    H124180   1.141   6.537   0.726 -0.6577  0.5517  0.7243
 8072TIP3    H224181   1.272   6.474   0.767 -0.0611  0.0751 -1.7495
 8073TIP3   OH224182   6.629   2.523   2.456 -0.3131 -0.2781 -0.4589
 8073TIP3    H124183   6.594   2.458   2.395  0.7080  1.4670 -3.0740
 8073TIP3    H224184   6.710   2.554   2.415  0.7784  0.6111  2.1030
 8074TIP3   OH224185   3.366   6.181   3.122 -0.1619  0.5541  0.0653
 8074TIP3    H124186   3.423   6.242   3.168 -1.5996  1.7805  0.2962
 8074TIP3    H224187   3.389   6.095   3.158  0.8120  1.1284  0.8818
 8075TIP3   OH224188   5.605   5.377   2.666 -0.0300 -0.0739 -0.2008
 8075TIP3    H124189   5.682   5.340   2.623 -1.1259 -0.8039 -1.6388
 8075TIP3    H224190   5.578   5.310   2.728  0.8145  0.4384  0.7454
 8076TIP3   OH224191   7.196   0.150   2.676  0.5762  0.4384  1.1104
 8076TIP3    H124192   7.110   0.175   2.642  0.5390  0.7014  1.3968
 8076TIP3    H224193   7.180   0.069   2.724  0.6149  0.1088  0.5703
 8077TIP3   OH224194   4.655   4.256   4.565  0.1603 -0.3653  0.4418
 8077TIP3    H124195   4.563   4.230   4.556  0.0934 -0.1052  0.3681
 8077TIP3    H224196   4.654   4.351   4.558  0.7541 -0.4694 -2.6541
 8078TIP3   OH224197   0.828   4.282   2.340  0.4336 -0.1820 -0.1646
 8078TIP3    H124198   0.847   4.375   2.355  1.4339 -0.3412 -0.3491
 8078TIP3    H224199   0.915   4.241   2.338  0.1679 -0.7413 -2.6592
 8079TIP3   OH224200   2.724   5.158   2.369  0.4598 -0.0155  0.4202
 8079TIP3    H124201   2.804   5.211   2.367 -0.1209  0.8806 -0.4361
 8079TIP3    H224202   2.703   5.149   2.462  2.3339 -1.5274  0.7521
 8080TIP3   OH224203   3.749   0.614   2.730  0.1667 -0.3684  0.1616
 8080TIP3    H124204   3.759   0.532   2.778 -1.9983 -0.3262  0.7722
 8080TIP3    H224205   3.659   0.612   2.697  0.4298  1.2678 -0.7739
 8081TIP3   OH224206   6.168   2.812   2.984 -0.2522  0.8539  0.0096
 8081TIP3    H124207   6.142   2.822   2.892 -0.9390 -0.8509 -0.0083
 8081TIP3    H224208   6.224   2.735   2.985 -1.4297 -0.0319  1.2252
 8082TIP3   OH224209   3.026   1.767   2.295  0.0534 -0.3215  0.2592
 8082TIP3    H124210   3.113   1.772   2.336  0.7165  1.5105 -1.2261
 8082TIP3    H224211   2.998   1.677   2.310  1.4613 -0.5038  2.2462
 8083TIP3   OH224212   3.308   3.135   1.893  0.1201  0.5247 -0.2973
 8083TIP3    H124213   3.265   3.220   1.901  0.6782  0.9437 -1.4925
 8083TIP3    H224214   3.315   3.121   1.799  0.7921 -0.4660 -0.1137
 8084TIP3   OH224215   6.878   5.480   3.351  0.0961 -0.1591 -0.4550
 8084TIP3    H124216   6.958   5.478   3.403 -0.9804  0.3552  1.3478
 8084TIP3    H224217   6.859   5.388   3.331  0.4778 -0.3858  0.2048
 8085TIP3   OH224218   4.560   2.584   5.501 -0.6611 -0.3882  0.1553
 8085TIP3    H124219   4.555   2.675   5.470 -2.7811 -0.4146  0.3152
 8085TIP3    H224220   4.629   2.545   5.448 -0.9886  0.8322 -1.2339
 8086TIP3   OH224221   3.943   2.987   0.485  0.0863 -0.0049  0.0648
 8086TIP3    H124222   4.024   2.937   0.491 -0.6891 -1.4316 -0.8161
 8086TIP3    H224223   3.903   2.980   0.571  0.5700  0.1407  0.3037
 8087TIP3   OH224224   3.525   2.948   0.489 -0.1382  0.1720 -0.2239
 8087TIP3    H124225   3.551   3.036   0.517  0.6893 -0.7693  2.2304
 8087TIP3    H224226   3.441   2.933   0.532 -0.6697  0.0547 -1.2881
 8088TIP3   OH224227   1.369   2.819   4.634 -0.5699  0.1001  0.2396
 8088TIP3    H124228   1.317   2.747   4.599 -0.4082  0.3061 -0.4282
 8088TIP3    H224229   1.388   2.874   4.558  4.2527 -2.0975 -0.5024
 8089TIP3   OH224230   5.903   1.722   1.658  0.6270  0.5805  0.1466
 8089TIP3    H124231   5.829   1.769   1.619  0.4111  0.2769  0.1908
 8089TIP3    H224232   5.929   1.659   1.591 -2.6522 -3.2032  2.0601
 8090TIP3   OH224233   3.347   4.380   1.786  0.5634 -0.7915  0.3640
 8090TIP3    H124234   3.420   4.359   1.845  1.3907 -1.3667 -0.8263
 8090TIP3    H224235   3.336   4.475   1.795  1.4517 -0.6954  0.5935
 8091TIP3   OH224236   2.763   4.205   1.420  0.2147  0.0311  0.5644
 8091TIP3    H124237   2.765   4.146   1.495 -1.1556 -0.3015  0.3511
 8091TIP3    H224238   2.827   4.273   1.442  2.2983 -1.7893  0.5628
 8092TIP3   OH224239   2.544   0.407   1.501  0.2870  0.5171 -0.5558
 8092TIP3    H124240   2.459   0.451   1.508  0.3770  0.5070  1.2343
 8092TIP3    H224241   2.521   0.314   1.492  0.1048  0.5305 -0.2458
 8093TIP3   OH224242   5.281   1.405   0.474 -0.0506 -0.0137  0.3318
 8093TIP3    H124243   5.187   1.400   0.457 -0.2337  0.8179  1.0375
 8093TIP3    H224244   5.315   1.460   0.403  0.1158 -1.2688 -0.6095
 8094TIP3   OH224245   3.631   1.032   5.254  0.1322 -0.1301  0.4478
 8094TIP3    H124246   3.565   0.977   5.297  1.0199 -0.3801  1.5619
 8094TIP3    H224247   3.707   0.975   5.245 -0.0134 -0.0695 -1.5129
 8095TIP3   OH224248   5.350   0.559   4.860 -0.6048  0.2488 -0.1876
 8095TIP3    H124249   5.355   0.650   4.889  0.0026 -0.4678  2.1654
 8095TIP3    H224250   5.420   0.551   4.795  1.4326  0.7639  1.8004
 8096TIP3   OH224251   0.815   4.369   2.071 -0.1759  0.3372  0.2699
 8096TIP3    H124252   0.800   4.463   2.085 -0.6683  0.2177  0.5623
 8096TIP3    H224253   0.787   4.328   2.153 -1.5065 -0.2139 -0.4300
 8097TIP3   OH224254   7.013   4.957   4.965 -0.4002  0.2678 -0.0048
 8097TIP3    H124255   7.059   5.005   4.896  0.4095 -0.9260 -0.3361
 8097TIP3    H224256   7.061   4.978   5.045  0.8559 -1.0604 -0.3658
 8098TIP3   OH224257   5.570   6.165   4.689  0.5456 -0.5000  0.1614
 8098TIP3    H124258   5.657   6.127   4.681  0.5017 -0.2473 -1.8740
 8098TIP3    H224259   5.573   6.245   4.637 -0.9680 -0.5985 -0.1251
 8099TIP3   OH224260   2.156   5.241   5.187  0.0843 -0.3421 -0.1457
 8099TIP3    H124261   2.230   5.300   5.173  0.3965 -1.1797 -2.4990
 8099TIP3    H224262   2.172   5.201   5.273  2.0335 -0.0412 -0.3291
 8100TIP3   OH224263   5.276   5.263   1.507 -0.5259 -0.1472 -0.5229
 8100TIP3    H124264   5.192   5.217   1.519 -0.6316  0.2066  0.1245
 8100TIP3    H224265   5.255   5.336   1.449 -0.6057 -0.2045 -0.5684
 8101TIP3   OH224266   2.152   4.826   5.166 -0.4244 -0.1905  0.3294
 8101TIP3    H124267   2.234   4.876   5.165 -0.4801 -0.1093 -0.1093
 8101TIP3    H224268   2.086   4.891   5.190 -0.1747 -0.5438  2.1081
 8102TIP3   OH224269   2.726   0.006   5.682  0.2467 -0.3918  0.4315
 8102TIP3    H124270   2.760  -0.060   5.742 -1.0940 -0.5927  1.0129
 8102TIP3    H224271   2.772   0.086   5.706  0.0480 -0.5631  1.4549
 8103TIP3   OH224272   6.952   2.043   0.595 -0.3206 -0.2384  0.0196
 8103TIP3    H124273   6.929   1.993   0.517  0.5735  0.2164 -0.5528
 8103TIP3    H224274   6.914   1.993   0.667 -0.8728 -0.8481 -0.6739
 8104TIP3   OH224275   1.802   2.804   4.128  0.3303 -0.6293  0.0261
 8104TIP3    H124276   1.770   2.799   4.038 -1.7117  1.6280  0.5102
 8104TIP3    H224277   1.896   2.817   4.120 -0.0828  2.1243 -1.9735
 8105TIP3   OH224278   5.593   5.864   2.947  0.3263 -0.4416  0.1418
 8105TIP3    H124279   5.610   5.780   2.904  2.2331  0.6800 -1.4516
 8105TIP3    H224280   5.646   5.860   3.027 -0.6309 -1.2337  0.7621
 8106TIP3   OH224281   3.407   0.892   2.958 -0.1727 -0.3837  0.5811
 8106TIP3    H124282   3.382   0.800   2.961  0.0871 -0.4350  1.5303
 8106TIP3    H224283   3.500   0.893   2.982 -0.3115  0.1688  1.1391
 8107TIP3   OH224284   5.941   6.425   1.659 -0.0544 -0.8316 -0.4798
 8107TIP3    H124285   5.995   6.481   1.715 -0.4974  0.1617 -1.0282
 8107TIP3    H224286   6.003   6.361   1.623  0.6669 -0.0290 -0.6919
 8108TIP3   OH224287   2.633   6.555   1.493  0.1017 -0.6442  0.1158
 8108TIP3    H124288   2.684   6.585   1.418  0.5853 -0.2198  0.6095
 8108TIP3    H224289   2.646   6.460   1.494  2.3177 -0.4148  1.2171
 8109TIP3   OH224290   1.775   6.121   2.702 -0.8420 -0.2020 -0.0108
 8109TIP3    H124291   1.704   6.159   2.650 -1.7525 -0.2016  1.1934
 8109TIP3    H224292   1.740   6.038   2.734  0.3082 -0.9992 -0.7398
 8110TIP3   OH224293   0.398   1.758   0.761  0.1183 -0.3203  0.2171
 8110TIP3    H124294   0.359   1.691   0.817 -2.0560  1.0662  0.4720
 8110TIP3    H224295   0.378   1.730   0.672 -0.9672  0.0642  0.3292
 8111TIP3   OH224296   2.579   3.837   0.567  0.7746  0.3504  0.0323
 8111TIP3    H124297   2.534   3.838   0.652  1.4152 -1.8076  0.4512
 8111TIP3    H224298   2.576   3.928   0.538 -0.7861  0.8888  1.6550
 8112TIP3   OH224299   6.065   5.223   4.665 -0.8020  0.0840  0.3747
 8112TIP3    H124300   6.033   5.248   4.752 -1.2937 -0.4630  0.3582
 8112TIP3    H224301   6.121   5.147   4.681 -0.3601  0.3840  0.2803
 8113TIP3   OH224302   2.720   0.865   2.258  0.2687 -0.3047 -0.0331
 8113TIP3    H124303   2.658   0.825   2.196  3.1203 -0.3443 -3.1741
 8113TIP3    H224304   2.759   0.790   2.304  0.1332 -0.5257 -0.2739
 8114TIP3   OH224305   6.033   0.429   5.141  0.2682  0.0624  0.3155
 8114TIP3    H124306   6.009   0.493   5.074 -1.4417  1.1790  1.8886
 8114TIP3    H224307   6.051   0.482   5.219  0.8938 -1.2706  1.1110
 8115TIP3   OH224308   3.524   3.600   1.434 -0.3083 -0.2574 -0.1592
 8115TIP3    H124309   3.518   3.532   1.368 -1.4134  0.7517 -1.1311
 8115TIP3    H224310   3.448   3.586   1.491 -0.7616  0.3661 -0.5911
 8116TIP3   OH224311   5.810   0.845   0.766 -0.3199  0.0429  0.6264
 8116TIP3    H124312   5.882   0.889   0.812 -1.2383  0.7219  1.4539
 8116TIP3    H224313   5.731   0.873   0.812 -1.1806 -0.1789 -0.6589
 8117TIP3   OH224314   4.338   4.645   0.114 -0.3807 -0.2807  0.6801
 8117TIP3    H124315   4.251   4.674   0.086  0.2742 -0.1258 -1.3336
 8117TIP3    H224316   4.371   4.718   0.167 -0.7176  0.5004 -0.1600
 8118TIP3   OH224317   4.938   5.124   4.707 -0.0453  0.2973  0.1120
 8118TIP3    H124318   4.970   5.127   4.797 -0.5245  1.5448  0.2635
 8118TIP3    H224319   5.017   5.117   4.654  0.1836 -2.2778  0.6414
 8119TIP3   OH224320   0.634   6.575   3.029 -0.0453 -0.2905  0.1330
 8119TIP3    H124321   0.628   6.668   3.006 -1.6775 -0.3352  0.2645
 8119TIP3    H224322   0.610   6.571   3.121 -0.9860 -0.9322 -0.1181
 8120TIP3   OH224323   2.297   4.606   5.496 -0.0200 -0.2770  0.4224
 8120TIP3    H124324   2.282   4.609   5.401  1.7094 -0.2170  0.1204
 8120TIP3    H224325   2.276   4.516   5.520  0.2387 -0.4930 -0.1486
 8121TIP3   OH224326   1.850   4.862   3.099 -0.3293 -0.2286 -0.4043
 8121TIP3    H124327   1.842   4.895   3.009  1.1550  3.9934  0.7571
 8121TIP3    H224328   1.930   4.809   3.097  0.9889  1.6492 -1.2508
 8122TIP3   OH224329   7.126   5.435   1.901  0.6078 -0.1529  0.1380
 8122TIP3    H124330   7.163   5.369   1.843  1.8207  1.5999 -1.2141
 8122TIP3    H224331   7.038   5.451   1.866  0.7063 -0.3036 -0.1823
 8123TIP3   OH224332   2.510   3.696   3.074  0.0697 -0.1004 -0.6009
 8123TIP3    H124333   2.598   3.662   3.060  0.2887  0.8008 -1.4976
 8123TIP3    H224334   2.495   3.757   3.001 -0.3324  1.6667  0.8669
 8124TIP3   OH224335   5.981   4.541   2.802 -0.2314 -0.2985  0.2725
 8124TIP3    H124336   5.950   4.599   2.871 -1.1105 -0.0349 -0.3288
 8124TIP3    H224337   6.058   4.585   2.767 -0.3957  0.0866  0.3890
 8125TIP3   OH224338   4.229   5.406   3.539  0.0534 -0.1705  0.4127
 8125TIP3    H124339   4.277   5.456   3.605 -0.4534 -1.1517  1.5603
 8125TIP3    H224340   4.173   5.471   3.496  0.6045  0.5397  0.7354
 8126TIP3   OH224341   5.298   5.449   3.630  0.1983 -0.4739  0.4355
 8126TIP3    H124342   5.240   5.499   3.688 -0.6830 -2.8685  1.7492
 8126TIP3    H224343   5.384   5.455   3.671  0.2949  0.5727  0.1257
 8127TIP3   OH224344   4.632   4.073   1.118 -0.0461 -0.3111  0.3590
 8127TIP3    H124345   4.714   4.052   1.072 -0.5726 -1.8026  0.0309
 8127TIP3    H224346   4.660   4.119   1.197  1.0942 -0.4928  0.0832
 8128TIP3   OH224347   6.808   6.074   5.650 -0.2395  0.3823 -0.1003
 8128TIP3    H124348   6.756   6.147   5.682 -0.0039  0.6770 -0.3734
 8128TIP3    H224349   6.823   6.019   5.726 -0.2673  0.7149  0.1471
 8129TIP3   OH224350   4.026   0.687   0.123  0.4907  0.0240  0.2877
 8129TIP3    H124351   3.995   0.659   0.209 -0.4679  1.6226  0.4992
 8129TIP3    H224352   4.075   0.768   0.140  3.1438 -1.3536 -0.2926
 8130TIP3   OH224353   4.396   2.904   2.452  0.4656  0.8281  0.0014
 8130TIP3    H124354   4.377   2.813   2.474 -1.6538  1.1101 -0.4791
 8130TIP3    H224355   4.423   2.944   2.535 -1.4183  0.4207  0.8472
 8131TIP3   OH224356   6.141   5.155   4.411  0.2726 -0.0494 -0.2077
 8131TIP3    H124357   6.074   5.166   4.343  0.7804  0.0357 -0.7007
 8131TIP3    H224358   6.099   5.184   4.491 -0.3590 -0.2111 -0.4747
 8132TIP3   OH224359   1.848   1.912   0.970  0.1835  0.4113  0.5215
 8132TIP3    H124360   1.761   1.951   0.980  1.1057  3.4027 -1.6487
 8132TIP3    H224361   1.844   1.866   0.886  0.4853 -0.1183  0.7930
 8133TIP3   OH224362   5.322   5.079   5.840 -0.5678  0.6112  0.5220
 8133TIP3    H124363   5.332   5.135   5.763  0.6880  0.1254  0.3092
 8133TIP3    H224364   5.412   5.063   5.870 -1.0266  0.8174  2.1105
 8134TIP3   OH224365   0.480   5.221   2.050 -0.5420 -0.2439  0.1928
 8134TIP3    H124366   0.470   5.211   2.145 -1.2530  0.4381  0.1947
 8134TIP3    H224367   0.393   5.201   2.015 -0.2640 -0.5521 -0.3278
 8135TIP3   OH224368   2.969   6.768   4.979 -0.0237  0.2069  0.7023
 8135TIP3    H124369   3.002   6.679   4.995  0.8475  0.5204  0.6615
 8135TIP3    H224370   3.021   6.800   4.905 -2.5385 -0.4460 -1.5142
 8136TIP3   OH224371   4.563   1.381   0.042 -0.1895 -0.1567  0.1523
 8136TIP3    H124372   4.656   1.359   0.036 -0.5709 -2.4036  1.2204
 8136TIP3    H224373   4.558   1.473   0.017  1.8209 -0.8809 -3.6633
 8137TIP3   OH224374   0.348   3.261   1.937  0.1597 -0.0031  0.2237
 8137TIP3    H124375   0.333   3.321   2.009  1.2974  0.3765  0.1575
 8137TIP3    H224376   0.383   3.182   1.978  1.5926  0.5094  0.0329
 8138TIP3   OH224377   0.148   5.248   4.213 -0.4036  0.0256  0.3579
 8138TIP3    H124378   0.232   5.228   4.254  0.1742  0.5739 -0.5304
 8138TIP3    H224379   0.154   5.341   4.191 -0.2770 -0.4574 -1.8892
 8139TIP3   OH224380   0.304   3.017   4.477  0.4028  0.2936 -0.2585
 8139TIP3    H124381   0.392   3.029   4.443  0.2710 -0.5096 -0.8931
 8139TIP3    H224382   0.311   3.038   4.570  0.8340  2.2097 -0.6812
 8140TIP3   OH224383   5.503   1.761   2.566 -0.2284  0.0823  0.1478
 8140TIP3    H124384   5.469   1.851   2.571 -1.2291 -0.3221  1.4583
 8140TIP3    H224385   5.583   1.768   2.514  0.4978  1.9760  1.4040
 8141TIP3   OH224386   0.104   6.372   2.904 -0.3536  0.3321  0.7027
 8141TIP3    H124387   0.119   6.463   2.877 -0.3502  0.7219  1.9363
 8141TIP3    H224388   0.038   6.339   2.843 -0.0961  1.0534  0.0248
 8142TIP3   OH224389   6.829   1.184   5.118  0.1941  0.0156  0.3721
 8142TIP3    H124390   6.823   1.090   5.130  0.7039  0.0714  1.1167
 8142TIP3    H224391   6.739   1.216   5.132 -0.0802 -0.4057 -0.3911
 8143TIP3   OH224392   6.554   0.399   5.832  0.1020 -0.1780  0.2658
 8143TIP3    H124393   6.545   0.307   5.807 -0.9988  0.2791 -1.1338
 8143TIP3    H224394   6.586   0.396   5.922 -0.2380 -1.9316  0.3668
 8144TIP3   OH224395   5.138   2.872   5.203 -0.2813  0.3710 -0.4411
 8144TIP3    H124396   5.228   2.880   5.173 -0.4057  0.7573 -0.7184
 8144TIP3    H224397   5.122   2.778   5.207  0.4118  0.2768  0.4565
 8145TIP3   OH224398   2.737   1.573   5.885 -0.0942 -0.4588  0.2670
 8145TIP3    H124399   2.778   1.562   5.799 -0.7565  0.2301 -0.1599
 8145TIP3    H224400   2.800   1.537   5.947  0.5321 -0.6907 -0.4843
 8146TIP3   OH224401   1.710   3.722   3.783  0.0747  0.1201 -0.0803
 8146TIP3    H124402   1.776   3.654   3.768  0.0829  0.0386  0.3132
 8146TIP3    H224403   1.679   3.706   3.872  0.4690  0.9632  0.2197
 8147TIP3   OH224404   6.173   2.901   4.547  0.0826 -0.2306 -0.4496
 8147TIP3    H124405   6.255   2.875   4.505 -0.2638 -0.1750 -1.1681
 8147TIP3    H224406   6.105   2.883   4.482 -0.3859  0.5630 -0.1996
 8148TIP3   OH224407   4.220   1.212   1.076  0.5904  0.2865  0.1354
 8148TIP3    H124408   4.244   1.296   1.037  0.8034 -1.3121 -3.4722
 8148TIP3    H224409   4.302   1.164   1.081  0.0327 -0.7918 -0.7563
 8149TIP3   OH224410   4.310   2.428   3.291 -0.2714 -0.4923  0.5034
 8149TIP3    H124411   4.290   2.498   3.353  0.8574 -0.1484  0.4980
 8149TIP3    H224412   4.383   2.462   3.239 -0.7536 -1.0527 -0.5603
 8150TIP3   OH224413   4.053   0.153   3.093  0.0132 -0.4949  0.2031
 8150TIP3    H124414   4.072   0.245   3.114 -1.3796 -0.0334 -0.4671
 8150TIP3    H224415   4.125   0.104   3.134  1.5707  0.9928 -0.6100
 8151TIP3   OH224416   6.213   4.362   4.881 -0.1530 -0.1637 -0.5042
 8151TIP3    H124417   6.198   4.455   4.861 -1.4772 -0.3569 -0.5574
 8151TIP3    H224418   6.146   4.341   4.947  0.9480 -0.7773  0.4494
 8152TIP3   OH224419   4.315   5.147   3.739 -0.2265 -0.3381 -0.5698
 8152TIP3    H124420   4.401   5.133   3.777  0.1305  0.0080 -1.2165
 8152TIP3    H224421   4.328   5.221   3.679 -0.3177 -1.9451 -2.7132
 8153TIP3   OH224422   1.224   2.910   2.370 -0.0838  0.3451 -1.0816
 8153TIP3    H124423   1.314   2.882   2.355  0.4717 -0.8819  3.1273
 8153TIP3    H224424   1.232   2.993   2.416 -1.0357  0.1962 -0.6098
 8154TIP3   OH224425   4.724   0.161   0.003  0.4318  0.8985  0.3062
 8154TIP3    H124426   4.639   0.186  -0.035  0.0052 -0.9440 -0.0413
 8154TIP3    H224427   4.702   0.095   0.069  1.6612 -0.4184 -0.5511
 8155TIP3   OH224428   4.014   3.460   1.371  0.0788  0.6894 -0.1880
 8155TIP3    H124429   3.996   3.510   1.291  0.5131  0.4995 -0.4127
 8155TIP3    H224430   3.930   3.421   1.395 -0.6436  2.7533  0.8624
 8156TIP3   OH224431   2.014   0.150   2.780 -0.0449  0.6291 -0.0434
 8156TIP3    H124432   2.029   0.109   2.695 -1.0014 -1.7486  0.8440
 8156TIP3    H224433   2.101   0.155   2.819  0.3921  1.6655 -1.1065
 8157TIP3   OH224434   6.213   4.501   3.509 -0.2433 -0.4418  0.1347
 8157TIP3    H124435   6.299   4.459   3.496 -0.0880  0.2045 -1.0204
 8157TIP3    H224436   6.150   4.438   3.473 -0.2868 -0.9599  1.0700
 8158TIP3   OH224437   5.864   6.139   4.679 -0.8008  0.1718  0.0889
 8158TIP3    H124438   5.821   6.204   4.624 -0.6923  0.7302  0.6621
 8158TIP3    H224439   5.871   6.061   4.623 -1.4910  0.4495 -0.3900
 8159TIP3   OH224440   3.576   6.171   0.351 -0.1607 -0.2697 -0.4407
 8159TIP3    H124441   3.607   6.214   0.431 -1.1047 -0.9839  0.3356
 8159TIP3    H224442   3.615   6.221   0.280  0.2477  0.7265  0.4606
 8160TIP3   OH224443   2.171   6.493   3.515 -0.3405 -0.2129  0.7362
 8160TIP3    H124444   2.119   6.412   3.520 -0.6956 -0.6224 -4.5454
 8160TIP3    H224445   2.108   6.563   3.534 -1.6919 -0.9465 -0.8084
 8161TIP3   OH224446   5.199   0.876   3.567  0.1499 -0.1503  0.5978
 8161TIP3    H124447   5.287   0.850   3.539  0.1967  1.0472 -0.4911
 8161TIP3    H224448   5.214   0.931   3.643  0.2102 -1.2962  1.4359
 8162TIP3   OH224449   2.793   0.267   3.418 -0.4533  0.3470  0.5529
 8162TIP3    H124450   2.841   0.204   3.473  0.6911  0.0652 -0.7272
 8162TIP3    H224451   2.851   0.284   3.344 -0.2674  3.7084  1.3236
 8163TIP3   OH224452   6.553   1.277   4.119  0.2811  0.7122 -0.1196
 8163TIP3    H124453   6.629   1.234   4.080 -0.8723 -2.0406  0.4567
 8163TIP3    H224454   6.570   1.276   4.213 -0.4877 -0.1114  0.0348
 8164TIP3   OH224455   0.529   2.694   1.352 -0.0255  0.3820  0.6127
 8164TIP3    H124456   0.472   2.703   1.275  0.1828 -0.6611  0.3279
 8164TIP3    H224457   0.496   2.617   1.398  0.6367  0.2587  0.8947
 8165TIP3   OH224458   2.731   5.698   0.141  0.0161  0.6992 -0.5687
 8165TIP3    H124459   2.695   5.655   0.219 -0.5125  0.3584 -0.9875
 8165TIP3    H224460   2.674   5.668   0.069  1.3052 -0.0579 -1.2997
 8166TIP3   OH224461   3.297   5.271   0.750 -0.7749  0.5055 -0.2371
 8166TIP3    H124462   3.304   5.315   0.835 -0.6855  2.8401 -1.3823
 8166TIP3    H224463   3.386   5.243   0.731 -0.8361 -0.2550  0.5267
 8167TIP3   OH224464   1.967   3.348   3.967 -0.4421  0.0693 -0.4634
 8167TIP3    H124465   2.060   3.328   3.975 -0.1332  0.8050 -1.8465
 8167TIP3    H224466   1.922   3.270   4.000  0.6765 -0.8766 -1.0826
 8168TIP3   OH224467   4.229   4.273   0.956  0.1768  0.1906  0.0310
 8168TIP3    H124468   4.198   4.330   0.886  0.2908  1.0661  0.6749
 8168TIP3    H224469   4.163   4.283   1.026  0.8305  0.4808  0.6154
 8169TIP3   OH224470   0.895   4.234   4.026 -0.1682  0.2373 -0.5491
 8169TIP3    H124471   0.969   4.179   4.000  0.2903  0.2556  0.6637
 8169TIP3    H224472   0.819   4.177   4.018  0.3511 -0.7307  1.1010
 8170TIP3   OH224473   1.032   4.001   3.927 -0.4178  0.6535  0.2088
 8170TIP3    H124474   1.030   3.971   4.018 -1.9529  2.3838  0.8108
 8170TIP3    H224475   0.963   3.950   3.884  0.9699 -0.8832 -0.2803
 8171TIP3   OH224476   3.094   2.121   5.213 -0.3823 -0.7416  0.1187
 8171TIP3    H124477   3.038   2.183   5.168 -0.1656 -0.1638  0.6295
 8171TIP3    H224478   3.081   2.038   5.167 -0.8296 -0.3651 -0.4365
 8172TIP3   OH224479   6.872   6.056   4.613 -0.7137 -0.2829 -0.1788
 8172TIP3    H124480   6.797   6.100   4.652  0.5717  0.6069  1.4431
 8172TIP3    H224481   6.940   6.061   4.680  0.6579 -1.4667 -1.4045
 8173TIP3   OH224482   4.861   2.458   1.952  0.6355  0.1166 -0.0032
 8173TIP3    H124483   4.849   2.542   1.908  0.7189 -0.0661 -0.3782
 8173TIP3    H224484   4.825   2.472   2.040 -0.4793  0.1803 -0.4552
 8174TIP3   OH224485   5.190   1.100   0.597  0.5423 -0.0949 -0.1589
 8174TIP3    H124486   5.151   1.176   0.638  2.0747  1.4424 -1.3937
 8174TIP3    H224487   5.269   1.133   0.554 -0.3239 -1.7458 -3.3550
 8175TIP3   OH224488   0.379   0.243   3.801 -0.1133  0.3220 -0.2176
 8175TIP3    H124489   0.423   0.281   3.725 -1.5886 -0.9849 -1.7985
 8175TIP3    H224490   0.450   0.209   3.856  1.0097  1.9521 -0.6019
 8176TIP3   OH224491   3.821   6.539   1.841 -0.0955  0.2149 -0.3717
 8176TIP3    H124492   3.884   6.469   1.824  1.2937  1.7809 -2.1050
 8176TIP3    H224493   3.736   6.495   1.846  0.8106 -1.6568 -0.7152
 8177TIP3   OH224494   0.499   4.371   4.709  0.5011  0.3245  0.8844
 8177TIP3    H124495   0.554   4.433   4.660  0.2704  0.4521  0.7891
 8177TIP3    H224496   0.412   4.409   4.707  0.3897  0.0730  0.9605
 8178TIP3   OH224497   5.772   4.799   4.973 -0.1378  0.6207 -0.3931
 8178TIP3    H124498   5.856   4.762   4.997 -0.3687 -0.1761 -0.7734
 8178TIP3    H224499   5.723   4.806   5.055 -0.4959 -0.9731 -0.4486
 8179TIP3   OH224500   4.035   3.063   5.366  0.6825 -0.0895 -0.5316
 8179TIP3    H124501   4.085   3.002   5.420  1.8001  1.7284  0.6177
 8179TIP3    H224502   4.096   3.091   5.298  0.2218 -0.1660 -0.9777
 8180TIP3   OH224503   3.436   6.108   1.125  0.2048 -0.2085  0.5240
 8180TIP3    H124504   3.404   6.088   1.213  0.2757 -0.8866  0.4023
 8180TIP3    H224505   3.371   6.067   1.066 -0.4648  1.2086  0.2393
 8181TIP3   OH224506   3.613   2.588   4.130 -0.0298 -0.1529 -0.0658
 8181TIP3    H124507   3.637   2.588   4.038 -0.3222  1.1002 -0.1543
 8181TIP3    H224508   3.578   2.676   4.146 -0.8084 -0.6381  1.0179
 8182TIP3   OH224509   4.305   0.765   4.317  0.0172  0.1447  0.1736
 8182TIP3    H124510   4.256   0.701   4.368 -0.4256 -0.3549 -0.8543
 8182TIP3    H224511   4.334   0.718   4.239 -0.5147  1.2281 -0.7177
 8183TIP3   OH224512   1.831   5.866   5.803  0.0760 -0.9124  0.2166
 8183TIP3    H124513   1.904   5.924   5.782 -0.0432 -0.0160  2.1490
 8183TIP3    H224514   1.763   5.890   5.741  1.2357 -1.5040 -1.3695
 8184TIP3   OH224515   0.126   5.600   0.719 -0.0358 -0.0861  0.0626
 8184TIP3    H124516   0.083   5.675   0.678 -0.0278 -1.3037 -2.4172
 8184TIP3    H224517   0.200   5.636   0.767 -1.2030  1.6361  0.6344
 8185TIP3   OH224518   5.824   2.148   4.665 -0.1243  0.3071 -0.4810
 8185TIP3    H124519   5.775   2.071   4.695  3.3177 -1.4925  1.1135
 8185TIP3    H224520   5.860   2.122   4.580  1.6314 -0.2344  0.3784
 8186TIP3   OH224521   3.738   3.385   3.471  0.1246  0.4060  0.1906
 8186TIP3    H124522   3.784   3.467   3.489 -0.0059  0.6089 -0.3835
 8186TIP3    H224523   3.770   3.357   3.385 -0.7444  0.5085 -0.1789
 8187TIP3   OH224524   2.895   5.647   0.964  0.1210  0.9648  0.4547
 8187TIP3    H124525   2.936   5.712   0.907  1.1364 -1.4211 -1.7433
 8187TIP3    H224526   2.801   5.669   0.961  0.1577  1.0827 -2.0197
 8188TIP3   OH224527   7.055   2.367   3.305 -0.3939 -0.2348 -0.4748
 8188TIP3    H124528   6.975   2.313   3.306 -0.6862  0.1231  2.0084
 8188TIP3    H224529   7.033   2.443   3.359  1.4827  0.1106 -0.1275
 8189TIP3   OH224530   0.945   0.430   5.537  0.2415  0.0072 -0.6699
 8189TIP3    H124531   1.029   0.414   5.581  0.4978 -0.1572 -1.2088
 8189TIP3    H224532   0.969   0.459   5.449 -0.2651  0.4261 -0.6709
 8190TIP3   OH224533   4.265   2.377   3.875  0.1679 -0.4788  0.1246
 8190TIP3    H124534   4.208   2.339   3.941 -1.5343 -1.3377 -1.7362
 8190TIP3    H224535   4.206   2.420   3.813  1.7398  1.0658 -0.4039
 8191TIP3   OH224536   6.167   3.198   2.618 -0.2780  0.3957  0.3828
 8191TIP3    H124537   6.256   3.192   2.584  0.3566 -1.8389  2.1813
 8191TIP3    H224538   6.137   3.107   2.623 -2.6990  1.0973 -0.1842
 8192TIP3   OH224539   5.535   5.838   4.308  0.2369  0.0212  0.7511
 8192TIP3    H124540   5.517   5.932   4.302  0.9752  0.1102 -0.5560
 8192TIP3    H224541   5.453   5.799   4.337 -0.9230  0.7937 -1.3114
 8193TIP3   OH224542   0.636   2.571   2.129  0.0151  0.3836 -0.0908
 8193TIP3    H124543   0.683   2.602   2.052 -0.1303  0.3058 -0.2121
 8193TIP3    H224544   0.544   2.591   2.110 -0.1584 -0.7145 -0.4580
 8194TIP3   OH224545   3.449   1.427   0.550 -0.3795 -0.4441 -0.1311
 8194TIP3    H124546   3.450   1.413   0.644 -0.3179 -0.0794 -0.0795
 8194TIP3    H224547   3.425   1.518   0.538  2.7364  0.4759 -0.3584
 8195TIP3   OH224548   4.382   5.253   0.668  0.4922  0.0449 -0.0048
 8195TIP3    H124549   4.318   5.193   0.706 -0.0118  0.6791  0.1630
 8195TIP3    H224550   4.329   5.324   0.631  1.0430  0.0286 -0.8425
 8196TIP3   OH224551   1.253   0.540   4.884  0.7633  0.1847  0.4676
 8196TIP3    H124552   1.172   0.506   4.923  0.1317  0.0483 -0.9310
 8196TIP3    H224553   1.231   0.628   4.854  0.5021 -0.5912 -1.7703
 8197TIP3   OH224554   7.196   0.742   1.983  0.0695 -0.0435  0.0750
 8197TIP3    H124555   7.145   0.714   1.907 -0.4688 -0.7679  0.6853
 8197TIP3    H224556   7.173   0.834   1.996 -1.9827 -0.6337  1.0165
 8198TIP3   OH224557   0.019   2.481   1.977  0.2287 -0.6467 -0.8872
 8198TIP3    H124558   0.057   2.557   1.933  1.9979 -1.8989 -1.6016
 8198TIP3    H224559  -0.075   2.501   1.982  0.7175  1.8848 -0.4019
 8199TIP3   OH224560   4.242   1.388   0.190 -0.0069 -0.1425  0.1344
 8199TIP3    H124561   4.157   1.395   0.146 -0.5290  2.5626  1.3616
 8199TIP3    H224562   4.292   1.326   0.137 -2.7877 -2.0056 -0.4864
 8200TIP3   OH224563   5.037   5.223   5.598  0.3443  0.3687  1.1032
 8200TIP3    H124564   4.957   5.268   5.627  0.7073  1.5206  0.3738
 8200TIP3    H224565   5.020   5.131   5.617 -1.3066  0.5356  0.6692
 8201TIP3   OH224566   4.154   5.331   2.636  0.2575  0.4363  0.2100
 8201TIP3    H124567   4.205   5.259   2.674  0.8015  1.5326  1.6132
 8201TIP3    H224568   4.192   5.343   2.549 -0.0380 -1.1537 -0.1679
 8202TIP3   OH224569   6.684   2.547   4.503  0.1001 -0.4666  0.5788
 8202TIP3    H124570   6.753   2.565   4.566  0.0383  2.1586 -0.0021
 8202TIP3    H224571   6.603   2.567   4.550 -0.0178  0.3037  0.0590
 8203TIP3   OH224572   2.282   0.176   2.842 -0.4409  0.4014  0.0969
 8203TIP3    H124573   2.285   0.180   2.938 -0.1663 -1.0756  0.1771
 8203TIP3    H224574   2.319   0.260   2.813 -0.6870  0.9338  1.2767
 8204TIP3   OH224575   3.497   0.970   5.682  0.2188 -0.3602  0.3469
 8204TIP3    H124576   3.460   0.990   5.767 -1.4528 -1.4061 -0.0918
 8204TIP3    H224577   3.470   1.042   5.625 -1.1006 -1.0621  0.0566
 8205TIP3   OH224578   3.419   2.243   4.353  0.5841 -0.0795  0.0401
 8205TIP3    H124579   3.513   2.254   4.366  0.4874 -0.2022  0.8878
 8205TIP3    H224580   3.394   2.319   4.301  0.8548  0.9538  1.3532
 8206TIP3   OH224581   3.571   3.801   0.552 -0.2265  0.1051 -0.2792
 8206TIP3    H124582   3.488   3.762   0.524 -0.5054  1.0793 -0.8503
 8206TIP3    H224583   3.637   3.753   0.501 -0.2868 -1.5700  1.1211
 8207TIP3   OH224584   4.120   2.721   5.199 -0.4970 -0.2929  0.2116
 8207TIP3    H124585   4.132   2.628   5.179 -1.4446 -0.3523 -0.1445
 8207TIP3    H224586   4.193   2.765   5.156 -1.3764 -0.6359 -1.7384
 8208TIP3   OH224587   0.169   5.872   1.247  0.0416 -0.4751 -0.2016
 8208TIP3    H124588   0.210   5.828   1.321  1.8318  1.5171  0.0962
 8208TIP3    H224589   0.162   5.804   1.179 -0.3761 -1.9798  1.2831
 8209TIP3   OH224590   5.507   2.928   4.460  0.0773  0.1822  0.1789
 8209TIP3    H124591   5.583   2.871   4.476  0.3817 -0.2121 -2.2523
 8209TIP3    H224592   5.444   2.871   4.417 -1.0486  0.8771  0.8621
 8210TIP3   OH224593   7.179   4.052   5.100  0.4715 -0.8377 -0.0698
 8210TIP3    H124594   7.218   4.136   5.126  1.3106 -0.2162 -2.9271
 8210TIP3    H224595   7.087   4.059   5.125 -0.1539  2.1531 -2.5312
 8211TIP3   OH224596   1.260   2.570   1.391 -0.0161 -0.0157  0.4025
 8211TIP3    H124597   1.331   2.600   1.447  0.0988 -1.1838  0.9166
 8211TIP3    H224598   1.182   2.612   1.426  0.2045  0.0827  0.7818
 8212TIP3   OH224599   2.465   2.625   1.923 -0.4975 -0.1481 -0.3869
 8212TIP3    H124600   2.416   2.707   1.910 -0.0114  0.1490 -0.3612
 8212TIP3    H224601   2.533   2.648   1.986 -0.3506 -0.5693 -0.3921
 8213TIP3   OH224602   2.731   6.181   0.474 -0.2962 -0.5478  0.3676
 8213TIP3    H124603   2.666   6.114   0.451 -1.0169  0.0992  0.5012
 8213TIP3    H224604   2.699   6.261   0.434  0.5712 -0.2677  0.2007
 8214TIP3   OH224605   6.025   4.578   4.822  0.1033 -0.2039 -0.1382
 8214TIP3    H124606   6.028   4.595   4.916  0.4215 -3.3988  0.5628
 8214TIP3    H224607   5.934   4.594   4.797 -0.6312 -1.7111  1.3380
 8215TIP3   OH224608   3.114   2.325   0.937 -0.5281 -0.4989 -0.3577
 8215TIP3    H124609   3.158   2.387   0.878  1.8667 -3.3436 -1.8326
 8215TIP3    H224610   3.047   2.283   0.882 -0.4139 -0.9607 -0.1530
 8216TIP3   OH224611   7.022   0.101   5.773  0.2675 -0.1185 -0.2303
 8216TIP3    H124612   7.065   0.170   5.824 -0.5109  0.0633  0.2001
 8216TIP3    H224613   7.059   0.019   5.807 -0.1292  0.0064  0.5279
 8217TIP3   OH224614   5.994   6.634   5.012 -0.5927 -0.2154 -0.4602
 8217TIP3    H124615   6.005   6.696   4.940 -1.4151  1.1735  0.5501
 8217TIP3    H224616   5.902   6.609   5.009 -0.3379 -1.1730 -0.6640
 8218TIP3   OH224617   6.439   3.218   0.035 -0.0286 -0.2147  0.1489
 8218TIP3    H124618   6.374   3.224  -0.035  1.3611 -1.5246 -1.3396
 8218TIP3    H224619   6.417   3.137   0.082 -1.0567  0.7473  1.3629
 8219TIP3   OH224620   1.423   5.395   1.771  0.1574 -0.4671  0.0407
 8219TIP3    H124621   1.377   5.466   1.816 -1.1650 -1.6767  0.6705
 8219TIP3    H224622   1.355   5.349   1.722  0.4206 -2.9815  1.8760
 8220TIP3   OH224623   0.952   2.297   2.260  0.2004 -0.1157  0.2923
 8220TIP3    H124624   0.966   2.206   2.286 -0.0265  0.2634  1.8023
 8220TIP3    H224625   0.945   2.345   2.342 -1.9623  0.9407 -0.4334
 8221TIP3   OH224626   6.727   5.168   2.451 -0.7457 -0.2585 -0.4262
 8221TIP3    H124627   6.690   5.118   2.524 -2.0996 -0.3553 -1.1478
 8221TIP3    H224628   6.653   5.220   2.418  0.4810  1.8563 -0.0266
 8222TIP3   OH224629   3.891   2.155   3.870  0.0374 -0.1116  0.2541
 8222TIP3    H124630   3.900   2.074   3.820  0.4363  0.4688 -0.6411
 8222TIP3    H224631   3.836   2.211   3.815 -1.6334 -0.3350  1.5878
 8223TIP3   OH224632   3.402   2.165   1.520 -0.3765 -0.2011  0.2166
 8223TIP3    H124633   3.335   2.191   1.457  0.1447 -0.3403 -0.4083
 8223TIP3    H224634   3.355   2.115   1.587 -0.6270 -1.9938 -1.2392
 8224TIP3   OH224635   0.174   2.679   1.871 -0.4461  0.0047 -0.2198
 8224TIP3    H124636   0.169   2.690   1.776 -0.9123 -0.3702 -0.2363
 8224TIP3    H224637   0.264   2.649   1.886 -0.5049 -0.3568 -0.5797
 8225TIP3   OH224638   2.567   6.286   0.685 -0.2093 -0.4096  0.3571
 8225TIP3    H124639   2.584   6.359   0.625 -0.5469 -0.1672  0.5521
 8225TIP3    H224640   2.554   6.328   0.770  0.5731 -0.7785  0.6629
 8226TIP3   OH224641   3.334  -0.002   0.184  0.7040 -0.5670 -0.6089
 8226TIP3    H124642   3.261  -0.015   0.123 -0.0350 -1.6021  0.4314
 8226TIP3    H224643   3.346   0.092   0.188 -1.9198 -0.1794  0.6471
 8227TIP3   OH224644   1.115   2.329   1.279  0.0909  0.2613 -0.2332
 8227TIP3    H124645   1.156   2.403   1.324  0.0061 -0.7693  1.6472
 8227TIP3    H224646   1.103   2.263   1.347  0.2484 -1.5371 -1.8563
 8228TIP3   OH224647   4.274   4.671   3.333  0.2037 -0.2021  0.7382
 8228TIP3    H124648   4.295   4.685   3.426  0.9788 -0.0093  0.5411
 8228TIP3    H224649   4.325   4.737   3.287  0.1646 -0.5852  0.1422
 8229TIP3   OH224650   6.751   6.201   3.537  0.2983 -0.5314 -0.1424
 8229TIP3    H124651   6.790   6.165   3.457 -0.9982 -0.0414 -1.0389
 8229TIP3    H224652   6.771   6.137   3.605  1.0484 -1.1867 -0.9539
 8230TIP3   OH224653   0.725   2.988   5.052 -0.0809  0.5055  0.6505
 8230TIP3    H124654   0.739   3.060   4.991 -1.3285  1.6425  1.6478
 8230TIP3    H224655   0.810   2.976   5.095  0.3635  0.7840 -0.1247
 8231TIP3   OH224656   3.598   3.579   1.058  0.7382 -0.0003 -0.3654
 8231TIP3    H124657   3.644   3.596   0.975  1.0893  1.9236  0.1641
 8231TIP3    H224658   3.662   3.531   1.111  0.9987 -0.0640 -0.7293
 8232TIP3   OH224659   2.915   5.872   3.789  0.2929 -0.3446 -0.2097
 8232TIP3    H124660   2.833   5.846   3.831  0.1519 -1.5655 -1.1516
 8232TIP3    H224661   2.903   5.964   3.767  0.0618  0.1020  1.6286
 8233TIP3   OH224662   1.161   2.238   4.070 -0.2559 -0.1105  0.4825
 8233TIP3    H124663   1.119   2.320   4.043  2.4982  0.8591 -1.2961
 8233TIP3    H224664   1.178   2.192   3.988  0.5376 -1.2483  1.2631
 8234TIP3   OH224665   1.589   3.482   1.161 -0.3074 -0.3548 -0.1904
 8234TIP3    H124666   1.648   3.482   1.085 -0.2049  1.7205 -0.1774
 8234TIP3    H224667   1.581   3.575   1.185  0.0763 -0.9756  2.6761
 8235TIP3   OH224668   4.975   0.585   1.654  0.5448  0.0473 -0.1920
 8235TIP3    H124669   4.944   0.660   1.704  0.5539 -0.6625  0.9223
 8235TIP3    H224670   5.030   0.622   1.585 -0.6343  1.1462 -0.5782
 8236TIP3   OH224671   5.332   5.129   4.187  0.1015 -0.1007 -0.1122
 8236TIP3    H124672   5.291   5.172   4.261  0.6250  1.4662 -0.6928
 8236TIP3    H224673   5.260   5.085   4.141 -0.0700 -2.1444  1.9371
 8237TIP3   OH224674   2.291   0.059   0.431 -0.0270  0.0252 -0.0085
 8237TIP3    H124675   2.229  -0.009   0.404  1.0634 -1.8290  1.8598
 8237TIP3    H224676   2.249   0.103   0.504 -0.6455  1.2994 -1.0898
 8238TIP3   OH224677   5.054   1.453   0.305 -0.0229  0.3736 -0.1058
 8238TIP3    H124678   5.025   1.390   0.239  0.1530 -0.4929  0.6222
 8238TIP3    H224679   5.026   1.538   0.271 -0.9483 -0.1676 -0.7366
 8239TIP3   OH224680   4.649   5.143   1.406 -0.5383 -0.2787  0.0365
 8239TIP3    H124681   4.555   5.138   1.389 -0.5178  1.5753 -0.8826
 8239TIP3    H224682   4.688   5.167   1.322  0.7626 -0.9104  0.4280
 8240TIP3   OH224683   3.811   4.231   0.901 -0.4279  0.5544  0.1145
 8240TIP3    H124684   3.803   4.250   0.807  0.3584 -0.5759 -0.2043
 8240TIP3    H224685   3.730   4.186   0.924  0.6983 -2.1458 -0.8277
 8241TIP3   OH224686   5.694   0.707   1.353  0.0782 -0.2514  0.0822
 8241TIP3    H124687   5.787   0.703   1.378  0.1767 -1.3446 -0.3974
 8241TIP3    H224688   5.696   0.722   1.258 -0.2471  0.2986  0.1620
 8242TIP3   OH224689   0.094   2.176   0.500 -0.1228 -0.4559 -0.0691
 8242TIP3    H124690   0.048   2.152   0.580 -0.1531 -0.0312  0.0438
 8242TIP3    H224691   0.108   2.271   0.508 -0.0417 -0.4277 -0.5182
 8243TIP3   OH224692   1.134   2.808   5.423  0.4077  0.8621  0.1659
 8243TIP3    H124693   1.176   2.728   5.454  1.9262  1.8490  0.7736
 8243TIP3    H224694   1.088   2.842   5.500 -0.4283  0.4712 -0.1515
 8244TIP3   OH224695   4.121   1.602   0.799 -0.4008 -0.1242  0.7475
 8244TIP3    H124696   4.187   1.638   0.740 -1.5366  0.5067 -0.1938
 8244TIP3    H224697   4.043   1.655   0.782 -1.4546 -1.5325  1.0156
 8245TIP3   OH224698   6.309   0.342   0.400  0.7368 -0.2207 -0.2599
 8245TIP3    H124699   6.299   0.415   0.461 -1.3141 -1.3741  0.9026
 8245TIP3    H224700   6.400   0.348   0.369  0.3769  3.3618 -1.0016
 8246TIP3   OH224701   4.036   2.747   4.074 -0.5653 -0.0378 -0.0690
 8246TIP3    H124702   4.118   2.753   4.025 -2.0511 -1.1028 -2.8676
 8246TIP3    H224703   4.045   2.667   4.126 -1.0672 -2.1965 -3.0745
 8247TIP3   OH224704   5.603   6.086   2.629  0.1726 -0.0711 -0.2071
 8247TIP3    H124705   5.543   6.091   2.704  1.0080 -0.4361  0.5166
 8247TIP3    H224706   5.679   6.038   2.663  0.5232 -0.3427 -1.3342
 8248TIP3   OH224707   2.783   1.499   4.355  0.6249 -0.3006  0.3009
 8248TIP3    H124708   2.817   1.447   4.282  0.5599  0.2798 -0.1476
 8248TIP3    H224709   2.835   1.471   4.430  0.3306 -1.2907  0.1470
 8249TIP3   OH224710   3.150   1.872   0.199 -0.2962 -0.0318  0.1408
 8249TIP3    H124711   3.187   1.821   0.126  0.8820  0.7712  0.1475
 8249TIP3    H224712   3.057   1.851   0.198 -0.1425 -0.7559 -1.0121
 8250TIP3   OH224713   0.937   4.205   0.775 -0.0829 -0.0067  0.0303
 8250TIP3    H124714   0.962   4.225   0.865 -1.0673 -0.8117  0.4974
 8250TIP3    H224715   0.846   4.178   0.781 -0.0390 -0.4759 -1.1567
 8251TIP3   OH224716   3.690   3.831   2.798  0.0891  0.0462 -0.1472
 8251TIP3    H124717   3.705   3.831   2.893  0.1784  0.4288 -0.1614
 8251TIP3    H224718   3.608   3.877   2.787  0.5964  0.9239 -0.3352
 8252TIP3   OH224719   5.708   0.116   1.729  0.5246 -0.3919  0.0989
 8252TIP3    H124720   5.735   0.024   1.731  0.2356 -0.4889 -0.4053
 8252TIP3    H224721   5.617   0.115   1.758  0.4142 -0.3021 -0.2482
 8253TIP3   OH224722   0.464   3.167   2.694  0.0446 -0.2180  0.2339
 8253TIP3    H124723   0.525   3.133   2.628  0.4127  0.7335  0.0644
 8253TIP3    H224724   0.520   3.202   2.763 -0.3318 -0.4232  0.6486
 8254TIP3   OH224725   2.522   4.015   4.994 -0.3452  0.2956  0.0814
 8254TIP3    H124726   2.524   3.993   4.901  0.0067  0.7647 -0.0257
 8254TIP3    H224727   2.603   3.977   5.029  0.2369  1.3275 -0.0932
 8255TIP3   OH224728   5.779   0.297   5.790  0.2606  1.0681  0.2448
 8255TIP3    H124729   5.856   0.261   5.835 -0.3415  1.3790  1.5614
 8255TIP3    H224730   5.807   0.384   5.762  0.5281  1.0153  0.3442
 8256TIP3   OH224731   1.980   3.438   0.441  0.3775  0.0722  0.0522
 8256TIP3    H124732   1.896   3.471   0.473  0.9741  0.8413  0.9074
 8256TIP3    H224733   2.045   3.484   0.495  1.3057 -1.4162  0.2529
 8257TIP3   OH224734   6.679   3.615   4.568  0.6006  0.2568  0.3265
 8257TIP3    H124735   6.629   3.534   4.554 -2.7472  1.9791  1.1632
 8257TIP3    H224736   6.697   3.648   4.480  0.1367 -0.3683 -0.0118
 8258TIP3   OH224737   3.862   1.596   2.390  0.0591  0.1914 -0.2780
 8258TIP3    H124738   3.913   1.533   2.339 -0.4479 -1.5583  1.2622
 8258TIP3    H224739   3.773   1.563   2.388 -0.0035  0.1270  1.5846
 8259TIP3   OH224740   3.536   0.510   3.701  0.4115 -0.7939 -0.4612
 8259TIP3    H124741   3.626   0.535   3.722 -0.6991  1.4597  2.2458
 8259TIP3    H224742   3.500   0.481   3.785 -1.6464 -0.8184 -1.3116
 8260TIP3   OH224743   0.760   0.273   0.710 -0.6555 -0.0468  0.3455
 8260TIP3    H124744   0.806   0.202   0.666  1.1924 -0.2490  2.4418
 8260TIP3    H224745   0.686   0.230   0.754 -0.5995 -0.3531  0.1432
 8261TIP3   OH224746   0.759   4.038   2.989 -0.4659  0.1929 -0.5785
 8261TIP3    H124747   0.831   3.986   3.026 -0.2343  1.3689  0.7490
 8261TIP3    H224748   0.681   3.984   3.002 -0.0136 -0.5105 -0.7401
 8262TIP3   OH224749   6.021   5.090   5.330  0.1413  0.1950  0.0718
 8262TIP3    H124750   5.947   5.099   5.270 -0.0667  0.6355  0.3850
 8262TIP3    H224751   6.032   5.177   5.367 -0.0598 -0.1735  1.0395
 8263TIP3   OH224752   3.922   6.466   5.051  0.4954 -0.0496  0.2025
 8263TIP3    H124753   4.018   6.462   5.055  0.5374 -0.5533 -0.9123
 8263TIP3    H224754   3.901   6.556   5.075  1.1887 -0.1547  1.2880
 8264TIP3   OH224755   1.098   1.004   3.412 -0.6609 -0.2626  0.0741
 8264TIP3    H124756   1.025   0.974   3.359 -0.5259 -1.4065  0.4983
 8264TIP3    H224757   1.174   0.957   3.378 -0.3356  0.0192  0.3960
 8265TIP3   OH224758   0.716   2.362   3.162 -0.2001  0.1956  0.8096
 8265TIP3    H124759   0.659   2.410   3.102 -0.5530  0.1733  1.1169
 8265TIP3    H224760   0.673   2.372   3.247  0.2607  0.1776  1.0440
 8266TIP3   OH224761   2.191   4.567   5.240 -0.2922 -0.2620  0.0909
 8266TIP3    H124762   2.215   4.654   5.209 -0.6999 -0.3334 -0.4450
 8266TIP3    H224763   2.099   4.575   5.267 -0.1872 -0.4066  0.5013
 8267TIP3   OH224764   4.084   2.415   0.273 -0.1392 -0.3501 -0.2887
 8267TIP3    H124765   4.016   2.477   0.295 -0.6009 -0.1231 -2.2011
 8267TIP3    H224766   4.045   2.329   0.291  0.0436 -0.1608  1.1198
 8268TIP3   OH224767   1.917   5.954   2.319 -0.4198  0.1547 -0.0502
 8268TIP3    H124768   1.981   5.890   2.286 -0.2031  0.4354 -0.1786
 8268TIP3    H224769   1.832   5.911   2.308 -0.2326 -0.3680  0.4462
 8269TIP3   OH224770   3.935   2.048   4.596  0.1730 -0.1085 -0.3600
 8269TIP3    H124771   3.840   2.031   4.598  0.1149 -0.1148  3.0112
 8269TIP3    H224772   3.944   2.132   4.641  1.6988  0.9060 -2.4101
 8270TIP3   OH224773   4.388   0.139   2.742  0.2767 -0.2285 -0.2814
 8270TIP3    H124774   4.445   0.184   2.804 -0.3057 -1.3380  1.1168
 8270TIP3    H224775   4.301   0.175   2.758 -0.1722 -1.6690  0.7566
 8271TIP3   OH224776   4.267   0.482   1.781  0.7170  0.1506  0.1273
 8271TIP3    H124777   4.242   0.439   1.862 -0.8298  0.0460 -0.3761
 8271TIP3    H224778   4.194   0.541   1.761 -0.0340 -1.4178 -2.3137
 8272TIP3   OH224779   3.121   4.913   4.253  0.2102  0.1115  0.5471
 8272TIP3    H124780   3.150   4.840   4.198 -0.4841 -0.9385  1.5359
 8272TIP3    H224781   3.031   4.929   4.226 -0.2279 -0.6002  1.5575
 8273TIP3   OH224782   4.980   3.875   0.558 -0.3434  0.4908  0.1506
 8273TIP3    H124783   5.039   3.821   0.611  0.0956  0.7657 -0.0509
 8273TIP3    H224784   4.893   3.842   0.578 -0.1633  0.4345  0.8597
 8274TIP3   OH224785   3.718   0.401   2.403 -0.4337 -0.3164 -0.5382
 8274TIP3    H124786   3.813   0.400   2.386 -0.3675  0.5168 -0.2770
 8274TIP3    H224787   3.695   0.310   2.418  0.7039 -0.3355  1.3843
 8275TIP3   OH224788   1.179   5.153   3.153 -0.0488 -0.4969 -0.0461
 8275TIP3    H124789   1.210   5.114   3.071 -0.3101 -2.3604  0.7062
 8275TIP3    H224790   1.259   5.167   3.204  0.1763  1.1978 -0.7887
 8276TIP3   OH224791   1.147   3.682   4.346 -0.0344  0.0099 -0.0261
 8276TIP3    H124792   1.133   3.594   4.381  1.6270 -0.1908  0.2116
 8276TIP3    H224793   1.145   3.739   4.422  0.0473  0.0347 -0.0430
 8277TIP3   OH224794   2.086   0.436   0.661 -0.6752 -0.2308 -0.0277
 8277TIP3    H124795   2.144   0.478   0.723 -1.4373 -0.0973  0.6042
 8277TIP3    H224796   2.120   0.347   0.652 -0.8856 -0.4229  1.0098
 8278TIP3   OH224797   7.001   1.145   3.393  0.1943 -0.0009 -0.7239
 8278TIP3    H124798   7.011   1.062   3.440  0.6971  0.3789 -0.1548
 8278TIP3    H224799   7.086   1.160   3.352  0.1914  0.3820 -0.5878
 8279TIP3   OH224800   1.812   3.939   3.307  0.0482 -0.5077 -0.5259
 8279TIP3    H124801   1.811   4.032   3.329 -1.9358 -0.5889 -0.1096
 8279TIP3    H224802   1.736   3.902   3.353  2.5272 -3.0070  1.9930
 8280TIP3   OH224803   5.037   6.718   1.253  0.2026 -0.2024  0.4846
 8280TIP3    H124804   5.084   6.780   1.309  0.9318  1.1211 -1.4877
 8280TIP3    H224805   4.950   6.756   1.243  0.4250  0.1641 -0.1435
 8281TIP3   OH224806   3.014   3.589   0.046 -0.0277  0.5758  0.3504
 8281TIP3    H124807   3.088   3.545   0.005  0.5156  1.7728 -0.0017
 8281TIP3    H224808   3.051   3.635   0.121 -0.6799  0.0264  1.0303
 8282TIP3   OH224809   6.983   3.024   0.868 -0.2898 -0.0101 -0.2054
 8282TIP3    H124810   6.925   3.074   0.925 -1.1471  0.5356 -1.5154
 8282TIP3    H224811   6.977   2.934   0.900 -0.6952  0.2927  0.5945
 8283TIP3   OH224812   1.904   6.525   0.100 -0.3637  0.1400 -0.2556
 8283TIP3    H124813   1.962   6.587   0.056 -0.6435 -0.3604 -1.3625
 8283TIP3    H224814   1.861   6.577   0.168  0.7990  0.6945  0.0772
 8284TIP3   OH224815   0.281   5.586   2.618 -0.0270 -0.0200 -0.2465
 8284TIP3    H124816   0.213   5.541   2.567  0.2183 -2.0186  1.0976
 8284TIP3    H224817   0.362   5.570   2.569  0.0016 -0.7271  0.0283
 8285TIP3   OH224818   1.992   1.879   5.536  0.2051 -0.2023 -0.6273
 8285TIP3    H124819   2.040   1.868   5.618  1.5682  0.7164 -1.2528
 8285TIP3    H224820   2.059   1.906   5.473 -0.5847 -2.0488 -2.3535
 8286TIP3   OH224821   1.064   0.120   4.571 -0.1556  0.1817  0.0151
 8286TIP3    H124822   1.007   0.055   4.611  0.7312 -0.6928 -0.0923
 8286TIP3    H224823   1.025   0.137   4.486 -0.3211 -0.3206 -0.0130
 8287TIP3   OH224824   1.368   4.190   1.508 -0.1621  0.1287  0.1976
 8287TIP3    H124825   1.416   4.260   1.464 -0.0546 -0.1397 -0.1158
 8287TIP3    H224826   1.279   4.224   1.517  0.1608  0.7582  1.0788
 8288TIP3   OH224827   6.309   6.559   1.327  0.0471 -0.2888 -0.1686
 8288TIP3    H124828   6.223   6.592   1.300  0.4149 -0.4850 -1.6415
 8288TIP3    H224829   6.368   6.582   1.256  1.1414 -0.5550  0.6192
 8289TIP3   OH224830   7.035   1.722   0.535  0.2883  0.1942  0.2250
 8289TIP3    H124831   6.985   1.736   0.455 -0.9004 -1.2328  0.6809
 8289TIP3    H224832   7.000   1.641   0.572  1.0428  0.6330  2.0203
 8290TIP3   OH224833   5.875   4.109   2.610 -0.1197  0.4959 -0.3595
 8290TIP3    H124834   5.966   4.082   2.603  0.4356  2.0032  0.4437
 8290TIP3    H224835   5.864   4.130   2.703 -1.0174  1.1896 -0.6137
 8291TIP3   OH224836   6.495   3.610   4.277  0.2169 -0.0245  0.2349
 8291TIP3    H124837   6.589   3.627   4.282  0.2166 -0.3753  2.3778
 8291TIP3    H224838   6.489   3.517   4.253  0.3730  0.2246 -0.8320
 8292TIP3   OH224839   2.379   1.376   5.367  0.3592  1.0402 -0.0743
 8292TIP3    H124840   2.289   1.401   5.390 -0.3852  0.2106 -1.8721
 8292TIP3    H224841   2.407   1.444   5.306  0.6943  0.9248 -0.0477
 8293TIP3   OH224842   4.060   6.703   5.539  0.2887  0.5162  0.3811
 8293TIP3    H124843   4.003   6.676   5.611  1.4733  0.4546  1.3342
 8293TIP3    H224844   4.146   6.714   5.580  1.3462 -1.0379 -1.3129
 8294TIP3   OH224845   1.594   5.117   1.625 -0.3380 -0.2096  0.0218
 8294TIP3    H124846   1.506   5.106   1.659 -0.8904  3.2139  0.0833
 8294TIP3    H224847   1.582   5.134   1.531  0.2219  0.3779  0.0464
 8295TIP3   OH224848   5.136   3.653   0.665  0.9078  0.0768 -0.1317
 8295TIP3    H124849   5.187   3.576   0.643  1.3570 -0.1476  1.6159
 8295TIP3    H224850   5.186   3.697   0.734  0.0846  1.3087 -0.2868
 8296TIP3   OH224851   1.110   6.704   0.957  0.5914 -0.5152 -0.3533
 8296TIP3    H124852   1.158   6.771   0.910 -0.5212 -1.6625 -3.3687
 8296TIP3    H224853   1.133   6.622   0.913 -0.5824 -1.6887  1.0901
 8297TIP3   OH224854   0.442   1.369   1.809 -0.5529 -0.3734 -0.4062
 8297TIP3    H124855   0.410   1.375   1.719 -0.3954 -1.2372 -0.5276
 8297TIP3    H224856   0.369   1.400   1.863 -1.0480 -0.8717 -0.7744
 8298TIP3   OH224857   0.900   2.295   1.655  0.1129 -0.0746  0.4059
 8298TIP3    H124858   0.959   2.369   1.671 -0.1632  1.3871 -3.9750
 8298TIP3    H224859   0.831   2.305   1.720  1.1500  2.3671  1.2418
 8299TIP3   OH224860   4.424   2.761   1.396  0.0984  0.4050 -0.3387
 8299TIP3    H124861   4.406   2.667   1.402 -0.2745  0.5147  0.5230
 8299TIP3    H224862   4.481   2.779   1.471  0.4194  0.8108 -0.6768
 8300TIP3   OH224863   6.373   5.254   2.157  0.4205 -0.4997  0.3182
 8300TIP3    H124864   6.356   5.165   2.188 -0.0156 -0.3056  0.6512
 8300TIP3    H224865   6.418   5.296   2.230  1.2877 -0.6658 -0.1209
 8301TIP3   OH224866   1.018   4.576   4.686  0.4563  0.1896  0.4344
 8301TIP3    H124867   1.020   4.482   4.672  1.3235  0.1145  0.9408
 8301TIP3    H224868   0.950   4.609   4.627  1.5362 -0.5089 -1.2897
 8302TIP3   OH224869   0.682   6.345   0.912  0.3280 -0.4231  0.8062
 8302TIP3    H124870   0.679   6.258   0.951  0.4746 -0.4844  0.6852
 8302TIP3    H224871   0.741   6.335   0.837 -1.4203 -0.7840 -0.5807
 8303TIP3   OH224872   5.059   4.112   3.044  0.4438 -0.3420  1.3415
 8303TIP3    H124873   5.003   4.087   3.118  0.9477 -0.6108  1.6345
 8303TIP3    H224874   5.046   4.206   3.036  1.5152 -0.0391  2.7422
 8304TIP3   OH224875   4.427   4.854   4.640 -0.0421 -0.1584 -0.2397
 8304TIP3    H124876   4.434   4.787   4.708 -0.9848  0.1397  0.1572
 8304TIP3    H224877   4.334   4.878   4.638 -0.1405 -0.5103 -1.9684
 8305TIP3   OH224878   6.286   1.184   5.062 -0.2535  0.2574 -0.4718
 8305TIP3    H124879   6.260   1.254   5.122 -1.1293  0.8231 -1.4654
 8305TIP3    H224880   6.244   1.208   4.979 -0.9788 -1.6965 -0.7227
 8306TIP3   OH224881   4.076   6.764   1.769 -0.1066 -0.1271 -0.2591
 8306TIP3    H124882   4.103   6.685   1.816 -0.4878 -0.7769 -1.1229
 8306TIP3    H224883   4.062   6.736   1.679  2.1612  1.3954 -1.1919
 8307TIP3   OH224884   3.869   6.650   0.704  0.0165  0.0864 -0.4159
 8307TIP3    H124885   3.946   6.701   0.677  1.7348 -1.0624  2.0273
 8307TIP3    H224886   3.890   6.560   0.680 -2.3152  0.1391 -3.2176
 8308TIP3   OH224887   7.068   2.533   4.464 -0.0001  0.1983  0.3417
 8308TIP3    H124888   7.154   2.514   4.426 -0.2139 -2.0482  0.8282
 8308TIP3    H224889   7.084   2.601   4.529  1.0750  1.1337 -0.8614
 8309TIP3   OH224890   6.931   5.770   5.359  0.3934 -0.0285  0.2798
 8309TIP3    H124891   6.952   5.685   5.396  0.5904 -0.5340 -0.9344
 8309TIP3    H224892   6.981   5.832   5.412  0.4667 -0.6875  1.0020
 8310TIP3   OH224893   7.088   4.247   2.788 -0.0048 -0.0917 -0.2569
 8310TIP3    H124894   7.035   4.235   2.867  1.5799  1.2038  1.0736
 8310TIP3    H224895   7.167   4.195   2.803  0.3738  0.2703 -0.9399
 8311TIP3   OH224896   1.319   6.604   4.115 -0.0533  0.4656 -0.0245
 8311TIP3    H124897   1.335   6.672   4.181  2.7747 -1.4647  1.5123
 8311TIP3    H224898   1.358   6.525   4.152 -0.6722 -1.3711 -2.9354
 8312TIP3   OH224899   4.609   6.148   4.097  0.3779 -0.5303 -0.2171
 8312TIP3    H124900   4.648   6.206   4.032  1.4252 -0.7725  0.1720
 8312TIP3    H224901   4.553   6.206   4.149 -1.1146 -0.4768 -1.7873
 8313TIP3   OH224902   1.835   5.116   1.760  0.6108 -0.1097  0.6035
 8313TIP3    H124903   1.795   5.068   1.833 -0.0036 -2.3360 -1.0673
 8313TIP3    H224904   1.760   5.142   1.706  1.1145  0.3976  0.1499
 8314TIP3   OH224905   3.893   5.706   4.894 -0.6254  0.3186  0.0598
 8314TIP3    H124906   3.984   5.721   4.921 -1.0030  0.7197  1.1829
 8314TIP3    H224907   3.845   5.699   4.977 -1.7048  0.6724 -0.5230
 8315TIP3   OH224908   0.716   3.980   3.444  0.3267  0.2001 -0.4992
 8315TIP3    H124909   0.636   4.010   3.402 -0.0211  1.4260  0.9290
 8315TIP3    H224910   0.761   4.061   3.470  0.1188 -0.4379  2.1562
 8316TIP3   OH224911   0.821   4.748   4.107 -0.1711  0.0760  0.6170
 8316TIP3    H124912   0.746   4.758   4.048  1.2323  0.1059 -1.2519
 8316TIP3    H224913   0.810   4.818   4.171 -0.4547  1.6994 -1.1156
 8317TIP3   OH224914   6.830   3.131   4.138  0.3958  0.3388  0.6261
 8317TIP3    H124915   6.797   3.217   4.109  1.1610  0.6667  0.7058
 8317TIP3    H224916   6.774   3.109   4.212 -1.2377 -0.2601 -0.7039
 8318TIP3   OH224917   5.235   0.853   1.485 -0.2334 -0.0850  0.3894
 8318TIP3    H124918   5.323   0.856   1.448 -1.2081  1.0515 -2.0388
 8318TIP3    H224919   5.177   0.846   1.409 -2.3099  0.7667  1.8013
 8319TIP3   OH224920   6.995   2.924   5.401 -0.4426  0.3277 -0.4292
 8319TIP3    H124921   6.938   2.972   5.341  0.2462  0.4306 -1.0117
 8319TIP3    H224922   7.067   2.984   5.420 -1.7808  1.2303  2.4083
 8320TIP3   OH224923   7.030   4.366   4.164  0.5085  0.5840  0.1056
 8320TIP3    H124924   6.956   4.307   4.146  0.2963  0.3420  1.6368
 8320TIP3    H224925   7.061   4.392   4.077  0.2502 -1.3386 -0.6237
 8321TIP3   OH224926   5.717   4.265   0.085 -0.2866 -0.1587 -0.1278
 8321TIP3    H124927   5.726   4.246   0.178 -1.8590  0.2555  0.1308
 8321TIP3    H224928   5.712   4.361   0.081  1.3569 -0.0575 -0.8215
 8322TIP3   OH224929   2.600   1.270   4.114  0.1287  0.2859  0.0550
 8322TIP3    H124930   2.628   1.251   4.204 -0.5886 -0.2474  0.1690
 8322TIP3    H224931   2.543   1.346   4.122 -0.6173 -0.2794  0.1615
 8323TIP3   OH224932   6.905   1.118   1.173 -0.5140 -0.2593  0.6049
 8323TIP3    H124933   6.887   1.067   1.093 -0.3027  0.2610  0.2225
 8323TIP3    H224934   6.829   1.102   1.228 -1.1588  0.1975 -0.1276
 8324TIP3   OH224935   0.545   6.495   1.792  0.6063 -0.7204 -0.5147
 8324TIP3    H124936   0.562   6.579   1.751  1.1613 -0.1163  0.8716
 8324TIP3    H224937   0.552   6.431   1.721  0.5273  0.3537 -1.5183
 8325TIP3   OH224938   0.388   2.922   0.842 -0.1673 -0.1394 -0.4197
 8325TIP3    H124939   0.305   2.966   0.859 -0.1741 -0.0980 -0.5580
 8325TIP3    H224940   0.371   2.866   0.765  0.4293  1.2963 -1.6492
 8326TIP3   OH224941   6.672   2.857   2.262 -0.4641  0.1444  0.2158
 8326TIP3    H124942   6.681   2.944   2.303 -1.0750  0.1248  0.3962
 8326TIP3    H224943   6.607   2.812   2.315  0.7214 -0.8765  0.8618
 8327TIP3   OH224944   3.390   3.026   5.735  0.3818 -0.4920  0.3459
 8327TIP3    H124945   3.477   3.005   5.702  0.3787  0.7255 -0.5033
 8327TIP3    H224946   3.353   2.942   5.761  1.9419 -0.9846  1.0955
 8328TIP3   OH224947   4.212   5.950   0.149  0.0346  0.6474 -0.1576
 8328TIP3    H124948   4.204   5.861   0.116 -0.0928 -0.5437  2.7683
 8328TIP3    H224949   4.265   5.996   0.084 -0.2267 -1.4196 -1.9257
 8329TIP3   OH224950   3.294   2.700   3.218 -0.0922  0.2799 -0.0893
 8329TIP3    H124951   3.363   2.728   3.278  1.0676  0.8570 -1.6080
 8329TIP3    H224952   3.330   2.623   3.174 -0.6145  0.2927 -0.5534
 8330TIP3   OH224953   3.679   4.626   4.656 -0.1133  0.2249  0.1686
 8330TIP3    H124954   3.698   4.605   4.748 -1.2924 -0.9857  0.1668
 8330TIP3    H224955   3.596   4.674   4.659 -0.2452  0.0290 -0.2770
 8331TIP3   OH224956   1.586   3.337   3.122 -0.1848  0.7902 -0.2053
 8331TIP3    H124957   1.660   3.305   3.174  0.1396  1.2484 -0.3757
 8331TIP3    H224958   1.602   3.302   3.034 -0.5199  0.3485 -0.0923
 8332TIP3   OH224959   4.476   6.480   3.064 -0.3246 -0.3670  0.0884
 8332TIP3    H124960   4.388   6.502   3.033  0.0932  0.6199 -0.4576
 8332TIP3    H224961   4.480   6.519   3.152 -0.2700 -0.0028 -0.0761
 8333TIP3   OH224962   6.593   3.224   2.260 -0.0241 -0.5201  0.5632
 8333TIP3    H124963   6.636   3.301   2.222 -0.1915  0.2780  1.9216
 8333TIP3    H224964   6.654   3.193   2.327 -0.7871 -0.4079  1.3290
 8334TIP3   OH224965   6.203   1.352   5.281 -0.1331 -1.1284  0.7567
 8334TIP3    H124966   6.148   1.304   5.343 -0.0960 -0.1198  1.5870
 8334TIP3    H224967   6.241   1.423   5.331 -0.1140 -0.2672 -0.4280
 8335TIP3   OH224968   2.655   3.011   1.537  0.1314 -0.2926 -0.4565
 8335TIP3    H124969   2.632   3.035   1.627  0.2858 -2.2949  0.1624
 8335TIP3    H224970   2.750   3.019   1.533  0.1926 -0.8794 -0.2217
 8336TIP3   OH224971   1.048   0.121   1.373  0.3063 -0.7522 -0.4444
 8336TIP3    H124972   1.034   0.107   1.279  0.6566  0.9600 -0.7897
 8336TIP3    H224973   1.116   0.189   1.377  1.6859 -2.1453  1.0887
 8337TIP3   OH224974   6.054   2.070   3.236 -0.0056 -0.2130  0.4000
 8337TIP3    H124975   5.981   2.093   3.295  0.0916 -0.5478  0.6534
 8337TIP3    H224976   6.073   1.979   3.256 -0.3390 -0.5009 -0.5501
 8338TIP3   OH224977   1.753   3.585   5.165  0.2429  0.6285 -0.0047
 8338TIP3    H124978   1.766   3.599   5.259  1.6500  0.9976 -0.2331
 8338TIP3    H224979   1.750   3.674   5.128 -1.8168  0.5459 -0.1603
 8339TIP3   OH224980   2.479   0.524   3.952  0.0501 -0.0113  0.2015
 8339TIP3    H124981   2.441   0.516   3.864  1.2552 -0.4611 -0.3091
 8339TIP3    H224982   2.436   0.600   3.990 -2.7762 -1.5791  0.4297
 8340TIP3   OH224983   4.417   1.807   4.833  0.2215 -0.1162  0.5531
 8340TIP3    H124984   4.410   1.737   4.768 -2.1310 -0.4848  1.1006
 8340TIP3    H224985   4.477   1.773   4.898  0.0089 -1.1531  0.2297
 8341TIP3   OH224986   1.505   4.075   2.825 -0.5951  0.3152 -0.1453
 8341TIP3    H124987   1.498   4.126   2.745 -0.8493  1.3417  0.5180
 8341TIP3    H224988   1.599   4.070   2.842 -0.5915  1.2582  0.2000
 8342TIP3   OH224989   2.538   3.673   2.256 -0.1621 -0.4301  0.1902
 8342TIP3    H124990   2.590   3.668   2.176  1.4346  1.4339  1.0257
 8342TIP3    H224991   2.593   3.633   2.323  0.4824  1.8707  1.1587
 8343TIP3   OH224992   4.518   5.240   0.907  0.2212  0.3043  0.5537
 8343TIP3    H124993   4.492   5.255   0.816 -0.1948 -0.1022  0.6017
 8343TIP3    H224994   4.506   5.146   0.920  2.7584 -0.1071  0.2633
 8344TIP3   OH224995   2.809   2.688   0.763 -0.5066  0.0609 -0.0948
 8344TIP3    H124996   2.793   2.593   0.764 -0.0238 -0.0226  1.2965
 8344TIP3    H224997   2.871   2.703   0.834 -0.4297  1.4099 -0.4183
 8345TIP3   OH224998   6.048   5.282   1.837  0.6183  0.4547  0.0604
 8345TIP3    H124999   6.003   5.336   1.902 -0.1929  0.8834 -0.8366
 8345TIP3    H225000   6.140   5.284   1.863  0.2728  0.3886  1.3449
 8346TIP3   OH225001   4.675   6.404   0.886 -0.0226  0.3576 -0.2216
 8346TIP3    H125002   4.739   6.350   0.933  1.0397  1.8425  0.1000
 8346TIP3    H225003   4.592   6.358   0.897  0.2790  0.3483  2.6597
 8347TIP3   OH225004   5.288   3.988   4.930  0.4381 -0.2308 -0.2948
 8347TIP3    H125005   5.333   4.072   4.942 -0.8087  0.4533 -0.2932
 8347TIP3    H225006   5.226   3.983   5.003  1.1141 -1.6013  0.2433
 8348TIP3   OH225007   2.307   3.492   5.818  0.0695  0.1711  0.9510
 8348TIP3    H125008   2.229   3.435   5.823  0.4309 -0.4600 -0.1892
 8348TIP3    H225009   2.273   3.580   5.830 -0.8325 -0.1026  0.5132
 8349TIP3   OH225010   3.309   0.522   3.869  0.4424  0.1576 -1.1702
 8349TIP3    H125011   3.311   0.428   3.888 -1.6299 -0.0078 -1.5719
 8349TIP3    H225012   3.227   0.552   3.906 -0.7604  1.0547 -4.2687
 8350TIP3   OH225013   5.248   1.932   4.766  0.2666 -0.8735  0.1462
 8350TIP3    H125014   5.200   1.963   4.843  1.9977 -1.0850  1.3811
 8350TIP3    H225015   5.181   1.898   4.707 -1.4043  2.0905  0.1752
 8351TIP3   OH225016   0.677   3.790   2.832  0.6511  0.0021  0.1117
 8351TIP3    H125017   0.637   3.852   2.771  0.8811  0.8277  0.7795
 8351TIP3    H225018   0.662   3.705   2.792 -1.8611  0.2569  0.3775
 8352TIP3   OH225019   3.709   6.660   3.707 -0.1680 -0.6182  0.3089
 8352TIP3    H125020   3.707   6.611   3.624 -0.8013 -0.3932  0.1913
 8352TIP3    H225021   3.803   6.674   3.723 -0.0437 -0.4432 -0.5018
 8353TIP3   OH225022   4.011   4.986   2.476  0.0275  0.3147 -0.0898
 8353TIP3    H125023   3.933   4.945   2.438  0.5780 -0.3893 -0.4948
 8353TIP3    H225024   3.983   5.016   2.562 -0.7005  0.0868 -0.2389
 8354TIP3   OH225025   5.360   3.784   1.215 -0.3974 -0.0443 -0.3347
 8354TIP3    H125026   5.404   3.742   1.141 -0.0839  0.3491 -0.3724
 8354TIP3    H225027   5.339   3.711   1.275  1.1646 -0.1297  0.1363
 8355TIP3   OH225028   0.733   3.486   1.973 -0.5160  0.5741  0.5582
 8355TIP3    H125029   0.738   3.541   2.051 -0.2674 -0.1725  1.0858
 8355TIP3    H225030   0.674   3.415   1.997 -0.8782  0.6285 -0.1329
 8356TIP3   OH225031   1.934   0.518   5.486  0.7279  0.1438 -0.0858
 8356TIP3    H125032   1.859   0.484   5.533  0.8451 -1.3259 -0.9073
 8356TIP3    H225033   2.003   0.453   5.500  1.0182  0.0980 -1.5529
 8357TIP3   OH225034   3.799   6.016   3.160  0.1919 -0.8335  0.0261
 8357TIP3    H125035   3.830   5.926   3.145 -0.6349 -0.9541 -1.1155
 8357TIP3    H225036   3.852   6.047   3.234  2.5118 -1.2614 -1.3551
 8358TIP3   OH225037   6.648   2.855   4.901  0.0886  0.6393  0.0051
 8358TIP3    H125038   6.653   2.848   4.996 -1.6971 -0.6697  0.0577
 8358TIP3    H225039   6.621   2.945   4.884 -0.7706  0.5513  0.8257
 8359TIP3   OH225040   1.742   5.249   5.840  0.8261 -0.7527 -0.6412
 8359TIP3    H125041   1.675   5.264   5.907  2.0540 -0.4986  0.5721
 8359TIP3    H225042   1.771   5.336   5.814  0.1339 -0.8383 -1.7812
 8360TIP3   OH225043   7.030   2.536   3.080  0.2251  0.0473 -0.2670
 8360TIP3    H125044   7.014   2.460   3.024  1.4929 -0.4303 -0.0169
 8360TIP3    H225045   6.959   2.534   3.144  0.6538 -1.3813  0.1932
 8361TIP3   OH225046   4.413   5.345   0.065 -0.4070 -0.2199 -0.3307
 8361TIP3    H125047   4.490   5.360   0.011  0.3853 -0.8410  0.5861
 8361TIP3    H225048   4.384   5.257   0.041  0.5284 -0.8998  0.8927
 8362TIP3   OH225049   6.325   1.478   4.971 -0.0316  0.4070 -0.0148
 8362TIP3    H125050   6.416   1.502   4.953 -0.2470  0.7475 -0.7067
 8362TIP3    H225051   6.287   1.556   5.012  0.0395  0.1964  0.4508
 8363TIP3   OH225052   3.163   6.740   3.445 -0.6031  0.3756 -0.1791
 8363TIP3    H125053   3.163   6.696   3.360 -1.4219 -0.9210  0.4648
 8363TIP3    H225054   3.130   6.674   3.506  0.4153  1.1366  1.2349
 8364TIP3   OH225055   1.135   4.132   2.771 -0.0582 -0.2711 -0.1843
 8364TIP3    H125056   1.194   4.132   2.696  0.8619 -1.8408  0.5104
 8364TIP3    H225057   1.052   4.098   2.736 -0.0268  0.2316 -0.7629
 8365TIP3   OH225058   3.544   1.555   5.810 -0.4202 -0.6421  0.5829
 8365TIP3    H125059   3.540   1.507   5.892 -1.2356 -1.5641  0.0224
 8365TIP3    H225060   3.488   1.632   5.824 -0.2359 -0.5855  1.0172
 8366TIP3   OH225061   4.419   0.657   4.030  0.3966 -0.0112 -0.1876
 8366TIP3    H125062   4.328   0.684   4.025  0.5108  0.6626  1.0410
 8366TIP3    H225063   4.452   0.668   3.941 -0.7670 -0.4804 -0.6925
 8367TIP3   OH225064   4.489   5.943   0.338 -0.8057  0.4240  0.3574
 8367TIP3    H125065   4.469   6.033   0.312  0.6070  0.6397 -0.0831
 8367TIP3    H225066   4.493   5.894   0.256  0.4889  0.4195  0.4014
 8368TIP3   OH225067   4.894   3.057   1.435 -0.1917 -0.4056 -0.3935
 8368TIP3    H125068   4.813   3.106   1.418  0.0614  0.2753  0.2938
 8368TIP3    H225069   4.957   3.091   1.372  0.6661  1.9169  1.5441
 8369TIP3   OH225070   2.250   1.504   3.330 -0.3852 -0.3931 -0.0767
 8369TIP3    H125071   2.185   1.461   3.385 -1.5680  1.4620  0.0620
 8369TIP3    H225072   2.334   1.469   3.360 -1.1539 -1.0888  1.3492
 8370TIP3   OH225073   5.539   4.573   5.325  0.2297 -0.3647 -0.1382
 8370TIP3    H125074   5.480   4.533   5.261  0.0035 -0.8758  0.3825
 8370TIP3    H225075   5.481   4.606   5.393  0.4958 -0.1933  0.0032
 8371TIP3   OH225076   4.265   6.692   3.819 -0.2676  0.1909  0.3502
 8371TIP3    H125077   4.221   6.612   3.848 -1.2003  0.6401  0.2032
 8371TIP3    H225078   4.253   6.754   3.891 -2.7118  1.3585 -0.9326
 8372TIP3   OH225079   0.089   2.405   0.296  0.1496  0.2153 -0.0822
 8372TIP3    H125080   0.183   2.400   0.280  0.1964  0.7988 -0.0388
 8372TIP3    H225081   0.062   2.489   0.257 -0.6760 -0.7388 -1.6411
 8373TIP3   OH225082   1.316   0.773   0.171 -0.4276  0.3690 -0.0924
 8373TIP3    H125083   1.250   0.732   0.227  0.7364  0.3251  1.3121
 8373TIP3    H225084   1.332   0.708   0.102  0.1952 -0.8745  1.1659
 8374TIP3   OH225085   3.638   5.574   0.450  0.1312 -0.5167 -0.6227
 8374TIP3    H125086   3.671   5.535   0.370 -1.6190  0.3120 -1.8063
 8374TIP3    H225087   3.572   5.636   0.421 -0.8503 -0.4906  1.4961
 8375TIP3   OH225088   1.492   2.722   0.491  0.3609 -0.2530 -0.1616
 8375TIP3    H125089   1.479   2.692   0.581  2.8106  1.0362  0.7165
 8375TIP3    H225090   1.524   2.645   0.444  1.6765 -0.3072  0.7859
 8376TIP3   OH225091   4.352   1.328   5.350 -0.1176 -0.6153  0.4990
 8376TIP3    H125092   4.358   1.334   5.446  1.6222 -1.6872  0.5011
 8376TIP3    H225093   4.364   1.418   5.320 -0.8611 -0.2338  1.2812
 8377TIP3   OH225094   6.656   0.676   1.367  0.1273 -0.4113 -0.1634
 8377TIP3    H125095   6.607   0.756   1.345  1.5940  0.4805 -0.3280
 8377TIP3    H225096   6.666   0.679   1.462  1.1934  0.2387 -0.2821
 8378TIP3   OH225097   6.790   5.402   3.795  0.0833 -0.1510 -0.2678
 8378TIP3    H125098   6.786   5.497   3.780  0.7836 -0.0880 -0.0931
 8378TIP3    H225099   6.700   5.378   3.817 -0.4121  0.2230 -1.7777
 8379TIP3   OH225100   4.763   0.516   1.861  0.4554  0.5627  0.6387
 8379TIP3    H125101   4.671   0.537   1.844  0.0864 -0.5005  1.2385
 8379TIP3    H225102   4.808   0.545   1.782 -0.3114  1.5563  0.5363
 8380TIP3   OH225103   2.217   6.247   1.238  0.0942  0.2537  0.2582
 8380TIP3    H125104   2.254   6.262   1.150  0.3433  1.8660  0.5952
 8380TIP3    H225105   2.159   6.322   1.252 -1.4920 -0.9995  0.7130
 8381TIP3   OH225106   2.350   1.675   0.771 -0.1188  0.2078 -0.6709
 8381TIP3    H125107   2.319   1.765   0.768  1.5657  0.8565  0.1224
 8381TIP3    H225108   2.323   1.643   0.856 -0.3809  0.0905 -0.7978
 8382TIP3   OH225109   5.344   2.455   4.478 -0.4311  0.6867  0.6963
 8382TIP3    H125110   5.265   2.407   4.452 -0.3524  0.0937  1.4969
 8382TIP3    H225111   5.397   2.389   4.524  0.9686  0.8134 -0.6574
 8383TIP3   OH225112   1.126   3.149   4.905  0.2791  0.2068  0.3534
 8383TIP3    H125113   1.067   3.216   4.941  0.2070  0.0685  0.4908
 8383TIP3    H225114   1.193   3.199   4.859 -0.2630  0.3531 -0.2994
 8384TIP3   OH225115   6.816   6.228  -0.014 -0.7837 -0.4441 -0.7128
 8384TIP3    H125116   6.747   6.194   0.042  0.3733 -0.3460  0.8391
 8384TIP3    H225117   6.887   6.164  -0.007 -0.4654 -0.2479 -1.8096
 8385TIP3   OH225118   0.773   4.364   0.173 -0.8594 -0.9021  0.0600
 8385TIP3    H125119   0.848   4.308   0.188  0.2747  1.2354  3.4457
 8385TIP3    H225120   0.699   4.316   0.209 -0.7593 -1.9835 -1.0984
 8386TIP3   OH225121   5.255   5.147   0.938 -0.0256 -0.0346 -0.4187
 8386TIP3    H125122   5.277   5.236   0.912  0.1518 -0.2072 -0.8766
 8386TIP3    H225123   5.160   5.148   0.949 -0.0775  0.1074 -0.8494
 8387TIP3   OH225124   1.093   2.839   4.792 -0.3118  0.1845  0.0312
 8387TIP3    H125125   1.079   2.921   4.839  1.4151  0.2609  0.4684
 8387TIP3    H225126   1.180   2.849   4.752 -0.2363 -1.2874 -0.2046
 8388TIP3   OH225127   3.430   3.574   0.239 -0.5137 -0.0693  1.4920
 8388TIP3    H125128   3.340   3.606   0.241 -1.1679 -1.7951  0.9550
 8388TIP3    H225129   3.435   3.512   0.312  0.6445  0.9286  2.3170
 8389TIP3   OH225130   2.798   3.486   3.571  0.5983 -0.0580  0.3224
 8389TIP3    H125131   2.776   3.468   3.479 -1.2276  1.3197  0.4275
 8389TIP3    H225132   2.792   3.581   3.578 -1.3489 -0.2620  2.3148
 8390TIP3   OH225133   1.953   1.441   0.287 -0.3967 -0.1692  0.1016
 8390TIP3    H125134   1.893   1.366   0.281 -2.2665  1.3334 -1.4521
 8390TIP3    H225135   1.908   1.502   0.346 -0.4912  1.0160 -1.1425
 8391TIP3   OH225136   2.178   5.115   0.326 -0.3523  0.8244 -0.2749
 8391TIP3    H125137   2.099   5.080   0.287  0.5432 -1.4689 -0.2027
 8391TIP3    H225138   2.244   5.110   0.257  0.3693  0.1088  0.4317
 8392TIP3   OH225139   2.309   6.740   0.183  0.3018 -0.2043 -0.3095
 8392TIP3    H125140   2.268   6.654   0.185  0.5140 -0.2985  1.4909
 8392TIP3    H225141   2.396   6.724   0.145 -0.1614 -0.5306 -1.2552
 8393TIP3   OH225142   5.217   6.011   4.466  0.1684  0.3717  0.2201
 8393TIP3    H125143   5.227   5.922   4.431 -0.7863 -0.2622  1.4971
 8393TIP3    H225144   5.258   6.067   4.400  1.3875 -1.0619 -0.2956
 8394TIP3   OH225145   0.498   6.402   2.680  0.1001  0.3768 -0.2120
 8394TIP3    H125146   0.501   6.409   2.584  0.6707  2.4832 -0.0832
 8394TIP3    H225147   0.589   6.396   2.707  0.0828  1.9713  0.2926
 8395TIP3   OH225148   5.216   3.427   4.878  0.0414 -0.6114 -0.0730
 8395TIP3    H125149   5.229   3.486   4.952 -1.7037 -0.1981 -0.0358
 8395TIP3    H225150   5.169   3.352   4.915 -2.4770  0.4088 -0.9992
 8396TIP3   OH225151   5.721   4.314   5.835  0.6649 -0.3169  0.1115
 8396TIP3    H125152   5.744   4.255   5.907  3.1234  0.7774  0.3022
 8396TIP3    H225153   5.642   4.358   5.864  1.4265 -0.1382  2.0368
 8397TIP3   OH225154   3.985   3.806   3.334 -0.4522  0.5033  0.2435
 8397TIP3    H125155   3.982   3.889   3.285  0.9040 -0.8360 -2.2757
 8397TIP3    H225156   4.074   3.803   3.369 -0.9619  0.7567  1.6103
 8398TIP3   OH225157   3.867   4.551   0.552 -0.4546  0.6949  0.4416
 8398TIP3    H125158   3.825   4.616   0.608  0.9505  1.2096  0.9243
 8398TIP3    H225159   3.949   4.592   0.525  0.8014 -1.1334  1.3158
 8399TIP3   OH225160   2.303   0.468   5.454 -0.3616 -0.0578 -0.2359
 8399TIP3    H125161   2.286   0.447   5.546  1.2964  0.9513  0.3454
 8399TIP3    H225162   2.333   0.559   5.456  0.7611 -0.3690 -1.6380
 8400TIP3   OH225163   6.289   4.271   3.921  0.0401 -0.3266 -0.3355
 8400TIP3    H125164   6.194   4.254   3.919 -0.0239 -0.3941  1.8057
 8400TIP3    H225165   6.299   4.356   3.878 -0.9539 -0.3905 -0.7265
 8401TIP3   OH225166   6.679   1.071   2.635 -0.2135 -0.3463  0.4790
 8401TIP3    H125167   6.691   1.166   2.625 -0.3862 -0.3391  0.3312
 8401TIP3    H225168   6.636   1.044   2.554 -1.3127 -0.3445  1.0502
 8402TIP3   OH225169   6.715   4.057   3.371  0.5476 -0.0466 -0.8468
 8402TIP3    H125170   6.633   4.057   3.321 -0.8145 -2.1033  1.1933
 8402TIP3    H225171   6.755   3.973   3.350 -0.3777 -1.2635  1.8406
 8403TIP3   OH225172   1.303   2.606   3.214 -0.1961 -0.1011  0.1412
 8403TIP3    H125173   1.301   2.573   3.124  0.0567  0.8911 -0.2438
 8403TIP3    H225174   1.265   2.694   3.208 -1.7891 -0.6752  1.3142
 8404TIP3   OH225175   6.632   5.466   3.535 -0.0375 -0.1525  0.2918
 8404TIP3    H125176   6.643   5.538   3.597  0.5317 -1.7074  2.0883
 8404TIP3    H225177   6.716   5.461   3.489 -0.7397  1.5443 -1.3137
 8405TIP3   OH225178   3.268   4.828   3.483  0.1225 -0.0484  0.1836
 8405TIP3    H125179   3.224   4.743   3.475  0.1000  0.0599 -1.1785
 8405TIP3    H225180   3.200   4.892   3.463  0.4308  0.2180 -0.0259
 8406TIP3   OH225181   3.403   3.195   1.092 -0.2917 -0.2228 -0.0214
 8406TIP3    H125182   3.355   3.184   1.010  0.6704 -0.6935 -0.5408
 8406TIP3    H225183   3.425   3.106   1.119  2.1371 -0.0016 -0.9551
 8407TIP3   OH225184   2.859   4.496   4.450 -0.4439  1.0559  0.4090
 8407TIP3    H125185   2.883   4.580   4.490  3.4391  1.5513 -2.4806
 8407TIP3    H225186   2.824   4.519   4.364  1.8120 -0.1667 -0.9376
 8408TIP3   OH225187   0.106   5.323   0.616  0.4996  0.0457  0.1720
 8408TIP3    H125188   0.019   5.346   0.584  0.2832  0.3001  0.9251
 8408TIP3    H225189   0.136   5.400   0.663 -0.1583 -1.0564  2.5756
 8409TIP3   OH225190   4.002   3.585   5.741 -0.2489 -0.4211  0.9285
 8409TIP3    H125191   4.042   3.504   5.709  0.3998  0.4055 -0.4475
 8409TIP3    H225192   4.075   3.646   5.750 -1.0820  1.0541 -1.3867
 8410TIP3   OH225193   4.787   5.681   3.412 -0.4395 -0.7350 -0.0059
 8410TIP3    H125194   4.872   5.673   3.456 -0.4109  0.7602  0.2703
 8410TIP3    H225195   4.807   5.671   3.319 -0.2148 -1.9961  0.1653
 8411TIP3   OH225196   1.930   4.933   2.841  0.2722  0.3703 -0.3375
 8411TIP3    H125197   1.883   4.921   2.758  3.1552 -0.4969 -1.9978
 8411TIP3    H225198   2.023   4.926   2.817  1.2801  1.2903  2.8122
 8412TIP3   OH225199   0.399   2.044   2.255 -0.5786 -0.2085 -0.1798
 8412TIP3    H125200   0.350   1.972   2.214  1.8190 -1.8787 -0.3001
 8412TIP3    H225201   0.424   2.101   2.183 -1.2052 -0.0494 -0.2777
 8413TIP3   OH225202   6.909   1.872   4.401 -0.3104 -0.5456 -0.2527
 8413TIP3    H125203   6.923   1.803   4.336 -0.7690 -0.2747 -0.6507
 8413TIP3    H225204   6.852   1.832   4.466 -0.4247 -0.5998 -0.3855
 8414TIP3   OH225205   5.770   0.376   1.671  0.9785 -0.4554  0.1371
 8414TIP3    H125206   5.738   0.359   1.583  2.7031 -1.3905 -0.3676
 8414TIP3    H225207   5.742   0.299   1.722 -1.9300  1.0659  1.0464
 8415TIP3   OH225208   4.211   1.650   3.969  0.1387  0.6472  0.5959
 8415TIP3    H125209   4.306   1.638   3.960  0.3568  1.5144  1.5576
 8415TIP3    H225210   4.195   1.639   4.063 -1.1336 -2.1938  0.1624
 8416TIP3   OH225211   2.319   0.775   4.008 -0.3085  0.6602  0.1152
 8416TIP3    H125212   2.332   0.785   3.914  1.1981 -2.1455 -0.0772
 8416TIP3    H225213   2.239   0.723   4.016  0.2150 -0.1524  0.2679
 8417TIP3   OH225214   5.117   1.305   4.743 -0.0988  0.4586  0.3007
 8417TIP3    H125215   5.109   1.315   4.649  1.3182 -0.2829  0.0876
 8417TIP3    H225216   5.027   1.291   4.773 -0.4117 -0.7656 -1.1141
 8418TIP3   OH225217   6.464   3.099   0.740  0.1191  0.2874  0.0448
 8418TIP3    H125218   6.553   3.128   0.719  0.5578 -1.3190 -0.4413
 8418TIP3    H225219   6.429   3.067   0.657  0.2721 -2.0477  0.8232
 8419TIP3   OH225220   1.166   2.442   0.131  0.4280  0.2447  0.4554
 8419TIP3    H125221   1.240   2.502   0.117  0.7776 -0.2969 -0.1035
 8419TIP3    H225222   1.202   2.356   0.110  0.1876 -0.2929  2.1085
 8420TIP3   OH225223   6.260   0.723   1.439  0.0492  0.4072 -0.1245
 8420TIP3    H125224   6.306   0.675   1.508  0.8990 -1.6100 -1.9635
 8420TIP3    H225225   6.201   0.782   1.485  2.7256  1.3678  2.3437
 8421TIP3   OH225226   7.016   0.593   0.472 -0.8281 -0.5508  0.1389
 8421TIP3    H125227   7.110   0.593   0.490 -0.8033  0.1143  0.0545
 8421TIP3    H225228   6.977   0.630   0.551 -0.7436  2.0911 -0.9258
 8422TIP3   OH225229   0.610   4.988   2.735  0.3549  0.2518 -0.0136
 8422TIP3    H125230   0.525   4.963   2.771  1.9218 -2.2853  2.3091
 8422TIP3    H225231   0.660   5.017   2.811  1.8768  0.7715 -1.1756
 8423TIP3   OH225232   0.671   2.668   4.202 -0.0676 -0.2836  0.2596
 8423TIP3    H125233   0.721   2.593   4.171  0.6692 -0.1517  1.0926
 8423TIP3    H225234   0.706   2.742   4.153  0.1610 -0.2804  0.4250
 8424TIP3   OH225235   0.762   6.090   3.094  0.2753 -0.0855  0.4331
 8424TIP3    H125236   0.692   6.035   3.128 -1.0097  0.5470 -1.0580
 8424TIP3    H225237   0.716   6.156   3.041  2.1038 -1.0840 -2.6103
 8425TIP3   OH225238   1.620   3.813   3.508  0.2160 -0.1957  0.1351
 8425TIP3    H125239   1.617   3.797   3.603 -2.0725 -0.7773  0.0029
 8425TIP3    H225240   1.642   3.728   3.470 -0.8999 -0.4563  0.0494
 8426TIP3   OH225241   3.490   6.736   3.249 -0.1110  0.0424 -0.3476
 8426TIP3    H125242   3.585   6.740   3.246 -0.0358 -0.9686  0.3168
 8426TIP3    H225243   3.466   6.777   3.332 -0.1013 -1.5364  0.4783
 8427TIP3   OH225244   5.084   4.390   3.353  0.5694 -0.4292  0.3508
 8427TIP3    H125245   5.041   4.466   3.393  0.3922  0.2567 -1.0799
 8427TIP3    H225246   5.050   4.315   3.402 -1.7138  0.1537 -0.2147
 8428TIP3   OH225247   6.222   1.765   2.264  0.4918 -0.1008 -0.0822
 8428TIP3    H125248   6.308   1.758   2.305  0.3195  2.6823  1.0020
 8428TIP3    H225249   6.241   1.791   2.173  0.7922 -1.8747 -0.5548
 8429TIP3   OH225250   6.338   5.269   4.246  0.1367  0.2590 -0.0751
 8429TIP3    H125251   6.262   5.237   4.295  1.7766  1.3251  3.5177
 8429TIP3    H225252   6.368   5.193   4.196 -0.4995 -1.6936  2.2780
 8430TIP3   OH225253   4.750   2.561   4.722  0.0312 -0.1893  0.2589
 8430TIP3    H125254   4.842   2.535   4.730  0.5543  1.0052 -1.4329
 8430TIP3    H225255   4.702   2.494   4.772  1.8083 -0.7557  1.2801
 8431TIP3   OH225256   0.749   2.394   0.373  0.5840 -0.5930  0.0880
 8431TIP3    H125257   0.758   2.371   0.281  1.7330  0.5732 -0.1245
 8431TIP3    H225258   0.772   2.314   0.420 -0.3305 -1.2944 -0.6181
 8432TIP3   OH225259   4.052   6.601   2.508 -0.3729  0.2093 -0.2395
 8432TIP3    H125260   4.097   6.594   2.424  0.0571 -0.6668  0.0530
 8432TIP3    H225261   4.047   6.511   2.540 -1.9962  0.3170 -0.0805
 8433TIP3   OH225262   2.818   2.639   4.684  0.0476  0.1718  0.2789
 8433TIP3    H125263   2.779   2.568   4.734  0.5015  0.1058  0.5490
 8433TIP3    H225264   2.794   2.622   4.593  0.4333 -0.5172  0.3030
 8434TIP3   OH225265   5.297   4.168   1.476 -0.4145  0.5404  0.2614
 8434TIP3    H125266   5.388   4.178   1.449 -0.3951  1.4480  0.6105
 8434TIP3    H225267   5.247   4.224   1.416 -0.9766 -1.2728 -1.0444
 8435TIP3   OH225268   1.370   3.909   2.309  0.4888  0.0073 -0.2194
 8435TIP3    H125269   1.428   3.985   2.318  0.9191 -0.3064 -0.2962
 8435TIP3    H225270   1.321   3.906   2.391  1.0172 -0.0754  0.0987
 8436TIP3   OH225271   4.460   2.230   5.470  0.3145  0.2312  0.4993
 8436TIP3    H125272   4.523   2.189   5.411 -1.1870 -0.9321 -0.3903
 8436TIP3    H225273   4.486   2.321   5.474  1.0222  0.1445 -1.2513
 8437TIP3   OH225274   3.518   5.751   1.956 -0.1294 -0.0957  0.0021
 8437TIP3    H125275   3.451   5.760   2.024 -0.6211 -0.4788 -0.4238
 8437TIP3    H225276   3.543   5.841   1.935  0.1575  0.0212  0.8126
 8438TIP3   OH225277   1.763   1.578   1.481 -0.4767  0.4030 -0.1788
 8438TIP3    H125278   1.805   1.492   1.476 -1.1288  0.0803 -0.2186
 8438TIP3    H225279   1.819   1.628   1.540  0.1734  0.1060 -0.5283
 8439TIP3   OH225280   5.968   0.320   4.232  0.1265 -0.2646  0.1000
 8439TIP3    H125281   6.018   0.341   4.153  0.6919 -0.2240  0.4628
 8439TIP3    H225282   6.031   0.278   4.290  0.4849  2.1501  1.6429
 8440TIP3   OH225283   4.648   3.708   2.275  0.0395 -0.3219 -0.1272
 8440TIP3    H125284   4.665   3.797   2.241  1.0837 -1.4468 -2.8632
 8440TIP3    H225285   4.714   3.695   2.342  0.0408  0.8696  0.1298
 8441TIP3   OH225286   0.705   5.573   4.831  0.1703 -0.3653  0.1038
 8441TIP3    H125287   0.702   5.624   4.751 -0.1700  1.5466  1.2713
 8441TIP3    H225288   0.622   5.590   4.874  0.0381 -1.9549  0.5370
 8442TIP3   OH225289   0.143   4.976   2.743 -0.2727  0.4594 -0.3738
 8442TIP3    H125290   0.170   5.014   2.827  1.0532 -0.9446 -0.1125
 8442TIP3    H225291   0.213   4.914   2.721 -0.4393  0.9983 -2.6862
 8443TIP3   OH225292   2.296   4.923   4.056 -0.0964  0.0125 -0.3007
 8443TIP3    H125293   2.252   4.906   3.973 -0.2337  2.1661 -0.7215
 8443TIP3    H225294   2.248   4.996   4.095  1.9725  1.2951  0.0372
 8444TIP3   OH225295   1.070   2.235   4.345 -0.1963 -0.5724  0.0253
 8444TIP3    H125296   1.142   2.252   4.406 -0.1559 -1.0174  0.1045
 8444TIP3    H225297   1.113   2.202   4.266 -0.0391  2.0875 -1.1053
 8445TIP3   OH225298   3.716   4.950   0.442 -0.3137 -0.0770  0.0271
 8445TIP3    H125299   3.747   4.869   0.402 -2.9102 -0.2293 -1.9153
 8445TIP3    H225300   3.646   4.924   0.501  0.5555  0.5748  1.4065
 8446TIP3   OH225301   1.132   3.535   1.768  0.0052 -0.4398  0.7897
 8446TIP3    H125302   1.059   3.481   1.737  1.3217 -0.4697 -2.7007
 8446TIP3    H225303   1.203   3.472   1.784  0.7606 -0.0170 -0.7879
 8447TIP3   OH225304   4.408   0.713   5.560 -0.0603  0.0009  0.0871
 8447TIP3    H125305   4.364   0.698   5.643  2.0430 -0.4095  1.2047
 8447TIP3    H225306   4.358   0.662   5.496 -0.8851 -0.8105  1.3531
 8448TIP3   OH225307   2.891   6.405   4.243 -0.6004 -0.0955  0.7325
 8448TIP3    H125308   2.959   6.418   4.310 -1.1386 -0.7257  1.4277
 8448TIP3    H225309   2.926   6.335   4.187 -0.4062  0.0132  0.7177
 8449TIP3   OH225310   3.289   2.324   5.095 -0.0038 -0.5630  0.1382
 8449TIP3    H125311   3.282   2.387   5.023  0.3359  0.8158  1.2721
 8449TIP3    H225312   3.281   2.238   5.052 -1.4286  0.2396 -1.3314
 8450TIP3   OH225313   5.814   3.761   1.016  0.1883 -0.6191  0.0380
 8450TIP3    H125314   5.782   3.852   1.015  0.8198 -0.3762  0.6170
 8450TIP3    H225315   5.901   3.767   1.056  0.7420 -1.3292 -1.0079
 8451TIP3   OH225316   5.751   5.576   3.034 -0.5923 -0.0940 -0.3987
 8451TIP3    H125317   5.751   5.593   2.940  0.2225 -0.6411 -0.5100
 8451TIP3    H225318   5.810   5.501   3.044 -1.7641 -0.9384  0.3937
 8452TIP3   OH225319   5.160   5.500   0.584  0.0266  0.0933 -0.0431
 8452TIP3    H125320   5.109   5.433   0.630 -0.8966  1.5076  1.0799
 8452TIP3    H225321   5.098   5.570   0.565  1.2591  1.3138  0.2008
 8453TIP3   OH225322   1.672   5.970   1.052  0.4520 -0.1672  0.1072
 8453TIP3    H125323   1.755   6.019   1.049  0.7548 -0.6537  0.4085
 8453TIP3    H225324   1.692   5.893   1.106 -0.4790  0.2499  1.0748
 8454TIP3   OH225325   4.683   2.317   2.759 -0.0467  0.1684 -0.1897
 8454TIP3    H125326   4.719   2.359   2.680  1.1241  3.0579  1.7101
 8454TIP3    H225327   4.727   2.232   2.763 -0.4436 -0.2410 -2.7938
 8455TIP3   OH225328   2.108   0.973   1.942  0.2535  0.2741  0.3878
 8455TIP3    H125329   2.078   1.016   1.862  1.9790 -1.2032 -1.1176
 8455TIP3    H225330   2.031   0.928   1.976 -0.1584 -0.2795 -1.2395
 8456TIP3   OH225331   2.142   1.497   2.755 -0.2102 -0.3148  0.0719
 8456TIP3    H125332   2.076   1.528   2.693  1.2610 -0.8117 -1.8353
 8456TIP3    H225333   2.205   1.569   2.760  1.4829 -1.5644 -1.7950
 8457TIP3   OH225334   6.624   2.890   5.173 -0.4993  0.2955  0.5382
 8457TIP3    H125335   6.625   2.983   5.152 -0.1126 -0.0326 -1.0466
 8457TIP3    H225336   6.532   2.866   5.171 -0.5116  0.3457 -0.6590
 8458TIP3   OH225337   4.556   3.095   4.244  0.3383  0.3960  0.5443
 8458TIP3    H125338   4.556   3.057   4.332 -1.1489  0.9661  0.8071
 8458TIP3    H225339   4.490   3.163   4.246 -0.0313  0.1431 -1.1406
 8459TIP3   OH225340   4.113   6.732   1.035 -0.0144  0.3624 -0.2774
 8459TIP3    H125341   4.031   6.761   0.996 -0.1432  0.3528 -0.0139
 8459TIP3    H225342   4.177   6.797   1.007 -0.3256  0.9700  0.3996
 8460TIP3   OH225343   7.090   5.573   0.951  0.0376 -0.1467  0.3922
 8460TIP3    H125344   7.149   5.498   0.949 -0.3645 -0.4900  0.9142
 8460TIP3    H225345   7.126   5.635   0.887 -1.1127 -1.8709 -2.0707
 8461TIP3   OH225346   6.161   6.264   2.002 -0.1943 -0.0050  0.0627
 8461TIP3    H125347   6.100   6.267   2.075  0.5374  0.6659  0.6618
 8461TIP3    H225348   6.205   6.349   2.003 -0.3409  0.1223 -1.3091
 8462TIP3   OH225349   6.848   5.616   5.135 -0.0561  0.1408  0.1936
 8462TIP3    H125350   6.893   5.688   5.179  0.8862  0.1422 -0.7176
 8462TIP3    H225351   6.834   5.648   5.046  0.7100 -0.9168 -0.3306
 8463TIP3   OH225352   6.522   1.599   4.522 -0.0695  0.0640 -0.4049
 8463TIP3    H125353   6.534   1.548   4.602 -1.0280 -0.1589 -0.3931
 8463TIP3    H225354   6.500   1.687   4.552  0.3158  0.1688 -0.4262
 8464TIP3   OH225355   4.909   2.179   1.015 -0.4961 -0.5574  0.3897
 8464TIP3    H125356   4.873   2.253   1.064 -0.1322 -1.1463  1.5615
 8464TIP3    H225357   5.004   2.192   1.017 -0.4904 -0.3295 -0.5964
 8465TIP3   OH225358   4.828   1.745   4.358 -0.0059 -0.0806  0.3379
 8465TIP3    H125359   4.805   1.833   4.388  1.3312  0.7711 -0.9994
 8465TIP3    H225360   4.865   1.758   4.271 -0.1104 -2.0260 -0.0521
 8466TIP3   OH225361   3.176   0.015   3.241  0.5649 -0.5526  0.8750
 8466TIP3    H125362   3.184   0.038   3.333 -1.0038 -0.1204  0.9364
 8466TIP3    H225363   3.169   0.099   3.195 -1.3143 -0.7551  0.6866
 8467TIP3   OH225364   5.783   0.651   3.838 -0.2235 -0.3890 -0.0996
 8467TIP3    H125365   5.769   0.708   3.914 -1.5850 -1.1723  0.2576
 8467TIP3    H225366   5.818   0.570   3.875  0.7492 -0.1724 -0.5080
 8468TIP3   OH225367   6.701   1.438   4.980 -0.4596 -0.2195 -0.2400
 8468TIP3    H125368   6.786   1.459   4.941 -0.4278 -0.6190 -0.3948
 8468TIP3    H225369   6.666   1.523   5.008  0.2830 -0.1287  0.4479
 8469TIP3   OH225370   3.609   5.198   4.503 -0.0907 -0.1943  0.5520
 8469TIP3    H125371   3.703   5.203   4.489  0.0602 -1.3818  1.0033
 8469TIP3    H225372   3.593   5.107   4.527 -1.2824  0.1152  1.0149
 8470TIP3   OH225373   1.082   1.927   2.045  0.4379 -0.3261  0.3538
 8470TIP3    H125374   0.998   1.916   2.090  1.2911 -0.0377  2.0890
 8470TIP3    H225375   1.072   1.877   1.964 -0.8545 -1.6058  1.2538
 8471TIP3   OH225376   3.031   4.990   2.775  0.0619 -0.0360 -0.2374
 8471TIP3    H125377   3.057   4.984   2.867  0.2728 -0.1756 -0.3045
 8471TIP3    H225378   2.973   4.915   2.762  0.1945 -0.1327 -0.2708
 8472TIP3   OH225379   3.602   1.934   1.461 -0.0333  0.1726  0.3196
 8472TIP3    H125380   3.559   2.018   1.478  0.8738  0.2460  2.5319
 8472TIP3    H225381   3.533   1.880   1.421 -1.5269  1.0360  1.6111
 8473TIP3   OH225382   3.455   1.044   4.992  0.0074 -0.3307  0.4860
 8473TIP3    H125383   3.538   1.032   4.946 -0.6910  0.4299 -1.0514
 8473TIP3    H225384   3.474   1.022   5.083  1.5877 -1.3389 -0.0544
 8474TIP3   OH225385   3.439   1.051   1.278 -0.5630 -0.3225  0.2844
 8474TIP3    H125386   3.457   1.070   1.370  0.6247  1.5256 -0.2823
 8474TIP3    H225387   3.491   0.974   1.259 -0.5598 -0.5228  1.0735
 8475TIP3   OH225388   2.069   0.568   0.188 -0.0947  0.1427  0.0230
 8475TIP3    H125389   1.982   0.542   0.219  0.1078  0.1516  0.5968
 8475TIP3    H225390   2.130   0.528   0.249  0.2148  2.5522  1.4105
 8476TIP3   OH225391   4.897   0.621   0.495  0.1298 -0.0849  0.2152
 8476TIP3    H125392   4.969   0.634   0.432 -0.2729 -2.1055 -0.7322
 8476TIP3    H225393   4.871   0.710   0.520  2.0276  0.7190 -0.4840
 8477TIP3   OH225394   1.385   1.335   0.037  0.3635 -0.1785 -0.5176
 8477TIP3    H125395   1.336   1.299   0.111  1.7829  0.5999  0.8560
 8477TIP3    H225396   1.322   1.336  -0.035 -1.3848  0.0333  0.9458
 8478TIP3   OH225397   1.592   5.246   5.139  0.2168  0.0102 -0.2629
 8478TIP3    H125398   1.687   5.229   5.143  0.3289  0.4943 -0.7319
 8478TIP3    H225399   1.573   5.254   5.046  0.3144  3.0896 -0.1162
 8479TIP3   OH225400   6.030   5.847   3.103  0.5996  0.1596  0.0334
 8479TIP3    H125401   6.018   5.789   3.028 -0.9682  1.1481 -0.5386
 8479TIP3    H225402   5.978   5.925   3.082  0.1000  0.4678  2.1326
 8480TIP3   OH225403   4.856   1.886   2.332  0.2998  0.2521 -0.4207
 8480TIP3    H125404   4.951   1.891   2.330  0.3144  0.0697 -2.8622
 8480TIP3    H225405   4.826   1.973   2.305 -0.2570  0.4528  0.7779
 8481TIP3   OH225406   4.698   6.193   1.131  0.0834  1.0050  0.0741
 8481TIP3    H125407   4.715   6.159   1.043  1.6374  0.9084  0.3839
 8481TIP3    H225408   4.618   6.148   1.159  1.0784 -1.0435 -0.2389
 8482TIP3   OH225409   1.824   3.695   3.177  0.3231 -0.0619 -0.1175
 8482TIP3    H125410   1.897   3.671   3.121  0.7409 -0.3293  0.5223
 8482TIP3    H225411   1.847   3.782   3.211 -0.3992  0.5407 -1.1257
 8483TIP3   OH225412   1.897   1.591   1.905  0.9374  0.6321 -0.4832
 8483TIP3    H125413   1.888   1.597   2.001  1.0747  0.3829 -0.4533
 8483TIP3    H225414   1.991   1.600   1.890  1.0568 -0.4942 -0.4999
 8484TIP3   OH225415   0.173   0.912   1.792  0.1474 -0.6292  0.2331
 8484TIP3    H125416   0.078   0.921   1.794  0.2355  0.3480  1.0568
 8484TIP3    H225417   0.200   0.953   1.710 -0.0434  0.3505  0.6490
 8485TIP3   OH225418   4.283   0.127   4.421  0.6743  0.1768 -0.6695
 8485TIP3    H125419   4.274   0.037   4.390 -0.7381  0.3316 -0.7671
 8485TIP3    H225420   4.337   0.121   4.500  0.7849 -0.7204 -0.8089
 8486TIP3   OH225421   6.527   4.877   2.527 -0.1187  0.2842  0.0059
 8486TIP3    H125422   6.466   4.804   2.534 -1.2278  1.1973  0.1671
 8486TIP3    H225423   6.558   4.892   2.616  5.3085 -4.1302 -0.6381
 8487TIP3   OH225424   0.197   6.280   4.926 -0.0690 -0.5508 -0.0580
 8487TIP3    H125425   0.290   6.261   4.910 -0.1460 -1.6717  0.7015
 8487TIP3    H225426   0.197   6.365   4.969  0.4883  0.1529 -1.3881
 8488TIP3   OH225427   1.516   4.315   2.608  0.5378 -0.0597 -0.5343
 8488TIP3    H125428   1.611   4.321   2.602  0.5107 -0.4620 -1.5569
 8488TIP3    H225429   1.484   4.368   2.535 -0.1286  2.3411  1.3585
 8489TIP3   OH225430   5.474   4.399   4.398 -0.4777 -0.3013 -0.2733
 8489TIP3    H125431   5.403   4.336   4.388 -0.7158  0.1938 -2.0971
 8489TIP3    H225432   5.435   4.483   4.374  0.4998  0.1091 -0.4723
 8490TIP3   OH225433   3.038   4.610   5.659 -0.5590  0.1771  0.4127
 8490TIP3    H125434   3.117   4.561   5.680 -1.1474 -0.9965  0.0239
 8490TIP3    H225435   3.065   4.701   5.656  1.0671 -0.3025 -0.9878
 8491TIP3   OH225436   3.769   1.127   4.008  0.1027  0.2332 -0.4059
 8491TIP3    H125437   3.736   1.067   3.941  0.0801 -0.2655  0.0441
 8491TIP3    H225438   3.805   1.070   4.076  1.5091  0.7675 -0.6828
 8492TIP3   OH225439   0.390   1.917   3.972 -0.0505  0.1564 -0.1367
 8492TIP3    H125440   0.476   1.884   3.946 -0.2357  1.5649 -2.9895
 8492TIP3    H225441   0.409   1.982   4.040  0.9582 -0.6971  0.4257
 8493TIP3   OH225442   4.483   5.873   4.057  0.2603  0.5787  0.4144
 8493TIP3    H125443   4.531   5.805   4.011  0.8119  0.6891  0.8144
 8493TIP3    H225444   4.534   5.953   4.043 -0.4680  0.9506 -0.1920
 8494TIP3   OH225445   0.656   4.151   4.884 -0.4054  0.3242  0.0324
 8494TIP3    H125446   0.637   4.207   4.808 -1.0182 -1.7899 -1.4810
 8494TIP3    H225447   0.749   4.165   4.901 -0.6549  2.1555  0.0370
 8495TIP3   OH225448   5.116   5.158   4.940  0.2392 -0.8768 -0.1819
 8495TIP3    H125449   5.181   5.089   4.927  0.0122 -0.9734 -0.8672
 8495TIP3    H225450   5.067   5.130   5.018 -0.1231 -1.7128 -0.6987
 8496TIP3   OH225451   0.958   6.128   3.307  0.1018  0.1355  0.2820
 8496TIP3    H125452   0.887   6.088   3.257 -0.2372  0.7724  0.2447
 8496TIP3    H225453   0.957   6.084   3.392 -1.2780  1.1145  0.8089
 8497TIP3   OH225454   6.362   0.881   0.819 -0.8535 -0.1694  0.0502
 8497TIP3    H125455   6.449   0.920   0.816 -1.6793  1.7660 -0.1157
 8497TIP3    H225456   6.356   0.843   0.907  0.5773 -1.4818 -0.3664
 8498TIP3   OH225457   5.207   1.632   1.090  0.2018 -0.5982 -0.0273
 8498TIP3    H125458   5.155   1.694   1.040  0.3885 -2.7930 -3.2243
 8498TIP3    H225459   5.144   1.588   1.147 -0.7133 -0.4517 -0.8981
 8499TIP3   OH225460   5.950   2.801   4.784 -0.2849 -0.4603 -0.2568
 8499TIP3    H125461   5.872   2.825   4.834  0.6009  0.2079  0.8589
 8499TIP3    H225462   6.007   2.758   4.848  0.3750 -0.7087 -0.9873
 8500TIP3   OH225463   4.376   0.950   0.807 -0.5537  0.1625  0.0286
 8500TIP3    H125464   4.432   1.002   0.749  1.9119 -1.1904  1.0550
 8500TIP3    H225465   4.313   0.908   0.747  1.6489 -0.8943 -1.6860
 8501TIP3   OH225466   4.103   3.179   4.402  0.3501 -0.1293 -0.0066
 8501TIP3    H125467   4.091   3.086   4.418  1.2663 -0.1348  0.6820
 8501TIP3    H225468   4.114   3.218   4.488  1.7992  0.3439 -0.3787
 8502TIP3   OH225469   4.133   0.726   1.250  0.1632 -0.0449 -0.1094
 8502TIP3    H125470   4.211   0.689   1.292  0.5751  1.9677  1.0646
 8502TIP3    H225471   4.169   0.785   1.183 -0.2893  1.2094  0.7145
 8503TIP3   OH225472   0.578   1.825   3.500 -0.6443 -0.0014 -0.1661
 8503TIP3    H125473   0.495   1.853   3.538 -0.6788  0.2734 -0.4326
 8503TIP3    H225474   0.634   1.804   3.574 -0.5110  1.0900  0.0569
 8504TIP3   OH225475   6.702   4.545   3.340 -0.4075  0.3837 -0.3510
 8504TIP3    H125476   6.618   4.516   3.304 -1.0999  1.9230 -0.0757
 8504TIP3    H225477   6.682   4.628   3.382  1.1393  0.4500  0.3233
 8505TIP3   OH225478   0.708   1.266   4.920 -0.2490 -0.1851 -0.4548
 8505TIP3    H125479   0.663   1.278   5.003 -0.6628  0.2975 -0.7455
 8505TIP3    H225480   0.662   1.324   4.859  2.5910  2.6357 -0.1293
 8506TIP3   OH225481   1.960   6.306   2.665  0.1631 -0.0351 -0.4798
 8506TIP3    H125482   1.901   6.238   2.696  1.8066 -1.0473  0.6065
 8506TIP3    H225483   1.964   6.294   2.570 -1.8259  0.4926 -0.6752
 8507TIP3   OH225484   0.137   6.450   5.742  0.1278 -0.4938  0.0802
 8507TIP3    H125485   0.184   6.413   5.816 -0.1313 -0.3855  0.3005
 8507TIP3    H225486   0.199   6.447   5.669  1.5186  2.3074  1.0348
 8508TIP3   OH225487   1.570   0.622   2.452 -0.4271 -0.0237 -0.0548
 8508TIP3    H125488   1.480   0.605   2.477 -0.8967  0.5036 -1.2791
 8508TIP3    H225489   1.621   0.606   2.531 -1.4668 -1.3346  0.3855
 8509TIP3   OH225490   6.355   0.135   1.953 -0.0646 -0.2069 -0.0475
 8509TIP3    H125491   6.378   0.072   1.885  1.2241 -1.6454  1.6237
 8509TIP3    H225492   6.376   0.220   1.915 -0.6588 -0.8428 -1.9046
 8510TIP3   OH225493   3.762   1.632   0.487 -0.6483 -0.5877  0.7369
 8510TIP3    H125494   3.772   1.607   0.579 -0.1016  1.5308  1.2933
 8510TIP3    H225495   3.847   1.613   0.448 -0.1381  0.5732  1.2274
 8511TIP3   OH225496   0.681   6.615   4.321  0.0121  0.5893 -0.0302
 8511TIP3    H125497   0.669   6.567   4.403 -1.3813  0.5361 -0.2497
 8511TIP3    H225498   0.602   6.598   4.271  1.1946 -0.0716 -1.7622
 8512TIP3   OH225499   7.103   5.850   2.626 -0.3348  0.3027  0.1146
 8512TIP3    H125500   7.061   5.923   2.671  0.4284  1.3269 -0.7836
 8512TIP3    H225501   7.170   5.819   2.687 -0.0295  0.9817  0.1361
 8513TIP3   OH225502   5.690   0.481   0.073 -0.3191  0.2768 -0.0584
 8513TIP3    H125503   5.716   0.538   0.146 -0.6052 -1.1726  1.2244
 8513TIP3    H225504   5.771   0.438   0.046 -0.3201  0.3488 -0.1755
 8514TIP3   OH225505   1.785   3.609   1.474 -0.2030 -0.3421 -0.3611
 8514TIP3    H125506   1.865   3.580   1.429  0.1883  0.8678 -0.4845
 8514TIP3    H225507   1.730   3.531   1.478  1.2146 -1.3573  0.2425
 8515TIP3   OH225508   0.199   3.681   2.096  0.1444 -0.5496 -0.3103
 8515TIP3    H125509   0.211   3.596   2.139 -1.9206 -1.3917 -1.2607
 8515TIP3    H225510   0.178   3.659   2.005 -2.6527  0.8054 -0.1018
 8516TIP3   OH225511   5.488   2.921   5.503 -0.0857 -0.0578  0.5943
 8516TIP3    H125512   5.453   3.006   5.475  0.7599 -0.0447 -0.5383
 8516TIP3    H225513   5.537   2.940   5.583  0.7293  0.6910 -0.0545
 8517TIP3   OH225514   1.677   4.923   0.739  0.0605 -0.2368 -0.2602
 8517TIP3    H125515   1.737   4.887   0.805 -1.1974  2.2519  2.4467
 8517TIP3    H225516   1.726   4.995   0.699 -0.5949  1.0478  1.1356
 8518TIP3   OH225517   5.430   0.760   0.736  0.0331 -0.0604  0.1614
 8518TIP3    H125518   5.355   0.801   0.693 -0.6539 -2.0055 -0.6349
 8518TIP3    H225519   5.392   0.713   0.810  1.0096  1.9786  2.0717
 8519TIP3   OH225520   4.999   5.811   2.738 -0.0437 -0.4140 -0.1647
 8519TIP3    H125521   4.931   5.832   2.802 -0.3537  0.2297 -0.6846
 8519TIP3    H225522   5.062   5.757   2.786 -1.0747 -1.2918  0.2377
 8520TIP3   OH225523   1.836   3.893   0.885 -0.6548  0.1798  0.4252
 8520TIP3    H125524   1.786   3.932   0.813  0.3767 -0.4251 -0.6571
 8520TIP3    H225525   1.854   3.966   0.944  0.7418  1.2742 -1.2601
 8521TIP3   OH225526   2.126   6.607   5.073 -0.2209 -0.1645 -0.6435
 8521TIP3    H125527   2.108   6.527   5.122  0.4524  0.7640  1.2204
 8521TIP3    H225528   2.209   6.591   5.029 -0.0816 -0.4914 -0.2669
 8522TIP3   OH225529   5.910   0.159   3.068  0.0724 -0.0505 -0.0109
 8522TIP3    H125530   5.924   0.110   3.149 -2.7728 -0.3315  0.4248
 8522TIP3    H225531   5.966   0.236   3.076  1.1987 -0.9522  1.3757
 8523TIP3   OH225532   2.529   5.272   0.537 -0.1454 -0.0607  0.2477
 8523TIP3    H125533   2.555   5.207   0.471 -0.8561  1.1015 -1.2590
 8523TIP3    H225534   2.610   5.296   0.581  0.4274 -0.5655 -0.5040
 8524TIP3   OH225535   0.132   2.826   5.809 -0.0178  0.6244  0.2463
 8524TIP3    H125536   0.080   2.903   5.832 -1.5381  0.4325 -2.1596
 8524TIP3    H225537   0.125   2.821   5.713  0.9799 -1.8588  0.2383
 8525TIP3   OH225538   1.704   0.402   3.217 -0.2027  0.8158 -0.1348
 8525TIP3    H125539   1.670   0.393   3.306  1.2482  0.1201  0.3878
 8525TIP3    H225540   1.710   0.312   3.185 -1.2629  1.0977 -1.1755
 8526TIP3   OH225541   1.436   2.812   4.897 -0.6192 -0.1919  0.0831
 8526TIP3    H125542   1.411   2.829   4.806  2.0318 -0.8856 -0.8711
 8526TIP3    H225543   1.420   2.719   4.909 -0.2177 -0.2698  0.0382
 8527TIP3   OH225544   4.395   3.623   4.271 -0.2556 -0.4622 -0.1958
 8527TIP3    H125545   4.376   3.565   4.197 -0.1590  0.1509 -0.7078
 8527TIP3    H225546   4.450   3.570   4.329  1.9189 -0.1396 -1.8277
 8528TIP3   OH225547   3.516   4.010   3.720 -0.2678 -0.0048 -0.3897
 8528TIP3    H125548   3.528   4.059   3.639  1.2536 -1.4691 -1.1048
 8528TIP3    H225549   3.604   3.980   3.743 -0.9756 -1.4298  0.6250
 8529TIP3   OH225550   5.626   1.258   5.303  0.2565 -0.1322  0.4299
 8529TIP3    H125551   5.609   1.290   5.215  0.2920 -0.2926  0.3634
 8529TIP3    H225552   5.666   1.332   5.349 -3.8322  1.5501  1.7060
 8530TIP3   OH225553   1.107   2.937   3.660 -0.3469  0.0091 -0.0494
 8530TIP3    H125554   1.117   2.842   3.662 -1.6329 -0.1798 -0.9751
 8530TIP3    H225555   1.110   2.959   3.567  0.2893  0.9251  0.1771
 8531TIP3   OH225556   1.378   3.076   0.573 -0.1231  0.0562 -0.1668
 8531TIP3    H125557   1.392   3.169   0.595  0.9962 -0.3769  1.1116
 8531TIP3    H225558   1.463   3.046   0.541 -0.4882 -0.5264 -0.6015
 8532TIP3   OH225559   4.677   1.600   1.735 -0.5552  1.1167  0.0778
 8532TIP3    H125560   4.654   1.692   1.730  0.3248  1.7282  3.9301
 8532TIP3    H225561   4.612   1.562   1.795  0.5365 -0.1635  0.5088
 8533TIP3   OH225562   3.505   4.618   2.126  0.5448 -0.1152  0.0390
 8533TIP3    H125563   3.598   4.598   2.133  1.3272  2.6527 -1.0890
 8533TIP3    H225564   3.493   4.650   2.037 -1.0748  1.3265  0.7013
 8534TIP3   OH225565   2.760   2.309   1.246  0.8126  0.3384 -0.2327
 8534TIP3    H125566   2.711   2.339   1.322  0.5580  1.4209 -0.8131
 8534TIP3    H225567   2.741   2.215   1.241  1.7840 -0.0222  1.7275
 8535TIP3   OH225568   6.194   3.780   2.255  0.3093 -0.3856  0.2519
 8535TIP3    H125569   6.128   3.806   2.191 -1.0226 -0.7163  1.4454
 8535TIP3    H225570   6.170   3.826   2.335  1.3044 -0.8121  0.8185
 8536TIP3   OH225571   0.379   2.790   4.825  0.3376  0.1696  0.0231
 8536TIP3    H125572   0.329   2.720   4.868 -1.0006  0.6047 -0.7491
 8536TIP3    H225573   0.326   2.814   4.749  0.6760  2.1330  0.3440
 8537TIP3   OH225574   2.554   4.560   2.272  0.0304 -0.5524 -0.5033
 8537TIP3    H125575   2.607   4.609   2.335 -0.7125 -0.0774 -0.2359
 8537TIP3    H225576   2.464   4.589   2.288 -0.0701  0.4790 -2.5537
 8538TIP3   OH225577   2.159   2.574   0.663 -0.1234  0.2193  0.0871
 8538TIP3    H125578   2.240   2.575   0.612 -0.3173 -2.1508 -0.3919
 8538TIP3    H225579   2.090   2.592   0.598 -0.1668 -0.1383  0.0351
 8539TIP3   OH225580   2.398   2.236   3.267 -0.0657  0.4638  0.3248
 8539TIP3    H125581   2.421   2.206   3.355 -0.4454 -0.6491  0.0628
 8539TIP3    H225582   2.364   2.324   3.280  0.9165  0.7268  1.1545
 8540TIP3   OH225583   5.449   3.297   2.850 -0.2248 -0.1788 -0.3461
 8540TIP3    H125584   5.530   3.283   2.899  0.4059 -0.4647 -1.4155
 8540TIP3    H225585   5.475   3.286   2.758 -0.7691  2.8299 -0.9860
 8541TIP3   OH225586   5.864   6.374   4.910 -0.0259  0.4148 -0.1474
 8541TIP3    H125587   5.789   6.431   4.897  1.2448  2.5251  1.3047
 8541TIP3    H225588   5.832   6.304   4.967 -1.4389 -0.0961 -1.4679
 8542TIP3   OH225589   1.386   5.906   0.939 -0.0654 -0.2704 -0.1454
 8542TIP3    H125590   1.332   5.839   0.980  0.6651 -0.6466  0.2373
 8542TIP3    H225591   1.458   5.920   1.001 -0.3011  1.0051 -0.1371
 8543TIP3   OH225592   5.525   1.989   3.898  0.0157 -0.1767  0.0568
 8543TIP3    H125593   5.545   1.945   3.815 -1.0724 -0.8063  0.1081
 8543TIP3    H225594   5.431   2.004   3.895 -0.0350 -0.1839  1.1744
 8544TIP3   OH225595   2.705   1.174   0.284  0.0070 -0.2605  0.0059
 8544TIP3    H125596   2.737   1.241   0.345 -0.4979 -0.0402  0.0325
 8544TIP3    H225597   2.630   1.135   0.329  0.0485 -0.5612 -0.1873
 8545TIP3   OH225598   1.447   6.523   0.119 -0.2099  0.2226 -0.1831
 8545TIP3    H125599   1.482   6.462   0.183 -0.1008  2.3128  1.8808
 8545TIP3    H225600   1.390   6.581   0.170 -1.6415  0.8358 -2.3321
 8546TIP3   OH225601   6.627   6.118   2.766 -0.4729  0.1455  0.0963
 8546TIP3    H125602   6.692   6.119   2.696 -1.1721  1.2831 -0.5781
 8546TIP3    H225603   6.555   6.066   2.731 -0.4484 -0.0606  0.3477
 8547TIP3   OH225604   1.623   2.485   5.548  0.4291 -0.5548 -0.3060
 8547TIP3    H125605   1.618   2.479   5.643 -2.2764 -3.1516 -0.4721
 8547TIP3    H225606   1.612   2.578   5.528  0.7306 -0.0073  1.8525
 8548TIP3   OH225607   4.340   5.760   4.251 -0.1654  0.0050 -0.1411
 8548TIP3    H125608   4.378   5.766   4.163  0.8298 -0.2386  0.2588
 8548TIP3    H225609   4.295   5.675   4.252  0.6435 -0.4296 -0.1058
 8549TIP3   OH225610   1.982   6.225   4.247  0.0866  0.1537 -0.0614
 8549TIP3    H125611   1.981   6.144   4.197  0.8315  0.8799 -1.3176
 8549TIP3    H225612   1.890   6.249   4.257 -0.1444 -0.9017  0.4518
 8550TIP3   OH225613   3.473   0.279   2.190 -0.3083  0.0714 -0.0752
 8550TIP3    H125614   3.398   0.338   2.203 -0.0969  0.0290  1.6038
 8550TIP3    H225615   3.539   0.333   2.148  0.4962  1.6123  2.9363
 8551TIP3   OH225616   2.105   3.767   5.750 -0.5433 -0.6928 -0.2816
 8551TIP3    H125617   2.014   3.795   5.751 -0.5416 -0.6788 -0.5374
 8551TIP3    H225618   2.155   3.847   5.769 -0.5911 -0.7340  0.0270
 8552TIP3   OH225619   2.533   6.059   1.250 -0.3396  0.3669 -0.0168
 8552TIP3    H125620   2.441   6.049   1.274  0.1067 -0.3582  1.5276
 8552TIP3    H225621   2.547   6.154   1.246 -1.0280  0.4835  0.2539
 8553TIP3   OH225622   4.699   4.401   1.333  0.0059 -0.6344  0.3067
 8553TIP3    H125623   4.660   4.314   1.328 -0.6159 -0.3738  0.5046
 8553TIP3    H225624   4.767   4.394   1.399  0.8085 -1.2856 -0.5652
 8554TIP3   OH225625   1.240   5.820   4.570  0.7558  0.3173 -0.3724
 8554TIP3    H125626   1.189   5.785   4.643  0.2400  0.8005 -0.4949
 8554TIP3    H225627   1.209   5.772   4.494  0.3570  0.7370 -0.4745
 8555TIP3   OH225628   5.106   2.397   5.530 -0.2927  0.0581 -0.3072
 8555TIP3    H125629   5.142   2.362   5.612  1.2728 -0.5370 -1.2153
 8555TIP3    H225630   5.173   2.456   5.497 -1.4602  1.3144 -0.5553
 8556TIP3   OH225631   1.654   1.109   2.345 -0.2996  0.1845  0.2665
 8556TIP3    H125632   1.653   1.018   2.375 -0.5846  0.4678  1.1593
 8556TIP3    H225633   1.717   1.110   2.274  3.2121  0.1409  3.0928
 8557TIP3   OH225634   0.796   5.236   5.656  0.1776 -0.5547  0.3295
 8557TIP3    H125635   0.730   5.182   5.613  0.8165 -0.4772 -0.7902
 8557TIP3    H225636   0.851   5.174   5.704 -0.6324 -0.6289  1.1686
 8558TIP3   OH225637   1.579   6.400   0.342  0.6610 -0.1918 -0.3970
 8558TIP3    H125638   1.643   6.439   0.401  0.4050 -1.3588  0.6785
 8558TIP3    H225639   1.588   6.306   0.354 -0.1832 -0.4192 -1.3862
 8559TIP3   OH225640   0.173   3.643   1.594 -0.7802  0.3163 -0.1721
 8559TIP3    H125641   0.081   3.664   1.610 -0.8029  1.4151 -1.5330
 8559TIP3    H225642   0.195   3.691   1.514  0.3247 -1.7905 -1.2054
 8560TIP3   OH225643   0.108   5.445   3.129  0.0237 -0.2861 -0.2306
 8560TIP3    H125644   0.148   5.476   3.047 -1.3431  0.0510 -0.7974
 8560TIP3    H225645   0.182   5.426   3.186  1.0181 -0.6217 -1.5828
 8561TIP3   OH225646   3.049   5.099   5.056  0.0904  0.3154  0.1903
 8561TIP3    H125647   3.066   5.183   5.014  0.8080  0.6545  1.1493
 8561TIP3    H225648   3.049   5.036   4.984 -2.6158  1.3618 -0.8844
 8562TIP3   OH225649   3.141   2.346   3.206 -0.4469  0.0032 -0.2415
 8562TIP3    H125650   3.087   2.377   3.279  0.2605  0.0112  0.2841
 8562TIP3    H225651   3.083   2.353   3.130 -1.3895 -0.5685  0.4032
 8563TIP3   OH225652   1.784   1.684   3.146 -0.3521  0.2304  0.1321
 8563TIP3    H125653   1.693   1.663   3.125 -0.0106 -2.8420  1.2377
 8563TIP3    H225654   1.780   1.721   3.234 -0.6390  1.6813 -0.4645
 8564TIP3   OH225655   4.553   1.333   2.985 -0.7156  0.0408  0.3353
 8564TIP3    H125656   4.558   1.417   3.031  0.4507 -0.4633  1.2093
 8564TIP3    H225657   4.635   1.328   2.935 -1.8147  0.4269 -1.5925
 8565TIP3   OH225658   3.290   1.870   5.442  0.1306 -0.2317  0.5040
 8565TIP3    H125659   3.329   1.926   5.374 -1.0539 -0.0440 -0.0405
 8565TIP3    H225660   3.260   1.792   5.394  0.7912 -0.8614  1.0900
 8566TIP3   OH225661   5.029   6.151   2.055  0.1943  0.3482  0.2603
 8566TIP3    H125662   5.090   6.210   2.100  0.3140  1.4309 -1.2168
 8566TIP3    H225663   4.984   6.208   1.992 -0.3035 -0.9933 -0.6327
 8567TIP3   OH225664   7.187   0.383   1.615 -0.0812  0.4203 -0.2813
 8567TIP3    H125665   7.094   0.386   1.638 -0.0636  1.3080 -0.2689
 8567TIP3    H225666   7.223   0.313   1.669 -0.8025 -0.1327 -0.5131
 8568TIP3   OH225667   5.426   1.869   0.792  0.5231  0.0685  0.0744
 8568TIP3    H125668   5.453   1.778   0.794  0.3138 -0.0988 -2.1117
 8568TIP3    H225669   5.334   1.868   0.820 -0.1803 -0.7614 -2.0439
 8569TIP3   OH225670   6.603   0.047   2.588  0.2813 -0.0737  0.5169
 8569TIP3    H125671   6.552  -0.014   2.535 -0.1526  0.2422  0.5597
 8569TIP3    H225672   6.565   0.133   2.568 -0.7071 -0.0709  2.2619
 8570TIP3   OH225673   4.165   5.162   3.472  0.7287  0.4942  0.0004
 8570TIP3    H125674   4.239   5.140   3.414  0.9847  0.4351  0.3475
 8570TIP3    H225675   4.182   5.251   3.500  0.2320  0.7797 -0.5749
 8571TIP3   OH225676   4.955   1.681   0.169 -0.2818 -0.3362 -0.2965
 8571TIP3    H125677   5.017   1.670   0.097  0.4909  0.3329  0.2481
 8571TIP3    H225678   4.888   1.740   0.133 -0.5834 -1.0015 -0.8605
 8572TIP3   OH225679   4.765   6.470   3.424 -0.1760 -0.2545  0.4832
 8572TIP3    H125680   4.796   6.392   3.377 -1.9850 -1.5519  1.2935
 8572TIP3    H225681   4.798   6.543   3.373 -1.1601 -1.5742 -2.2629
 8573TIP3   OH225682   6.822   5.853   1.473  0.7120 -0.1807 -0.1101
 8573TIP3    H125683   6.838   5.848   1.567  0.2302  2.3565  0.1714
 8573TIP3    H225684   6.899   5.813   1.433  0.4424 -2.2866  1.3135
 8574TIP3   OH225685   1.070   3.613   0.726 -0.1520  0.2117  0.2545
 8574TIP3    H125686   1.003   3.612   0.657  0.7708  0.3765 -0.6606
 8574TIP3    H225687   1.073   3.522   0.758 -1.9190  0.5115  1.4365
 8575TIP3   OH225688   5.832   6.126   0.162  0.5687  0.2143 -0.3352
 8575TIP3    H125689   5.871   6.077   0.235 -1.3074  0.2524  0.7699
 8575TIP3    H225690   5.769   6.065   0.124  0.5965  0.6542 -1.0900
 8576TIP3   OH225691   1.549   1.441   0.793 -0.2003 -0.0918  0.1411
 8576TIP3    H125692   1.524   1.370   0.852  0.4497  0.3470  0.9725
 8576TIP3    H225693   1.581   1.510   0.851  2.5948 -0.4788 -0.7610
 8577TIP3   OH225694   5.230   3.547   2.688 -0.2229 -0.5896  0.4089
 8577TIP3    H125695   5.217   3.476   2.626 -1.1379  0.2841 -0.4412
 8577TIP3    H225696   5.323   3.568   2.682 -0.2684 -0.6228 -0.5755
 8578TIP3   OH225697   5.466   4.919   4.400 -0.0078  0.2849  0.2412
 8578TIP3    H125698   5.477   5.000   4.350 -0.7323  0.5690  0.5285
 8578TIP3    H225699   5.402   4.941   4.467 -0.4923 -0.6375  0.0913
 8579TIP3   OH225700   3.792   1.768   5.202 -0.3847 -0.2870  0.0527
 8579TIP3    H125701   3.762   1.754   5.292 -1.2690  0.3887 -0.1228
 8579TIP3    H225702   3.729   1.830   5.165  0.6335  0.3372 -0.6785
 8580TIP3   OH225703   6.865   1.476   4.152  0.1984 -0.5252 -0.0339
 8580TIP3    H125704   6.778   1.457   4.185  0.4377  0.7111  1.4284
 8580TIP3    H225705   6.892   1.555   4.200  0.9363  0.8756 -2.5894
 8581TIP3   OH225706   3.515   4.057   5.279  0.8047 -0.2503  0.1771
 8581TIP3    H125707   3.431   4.018   5.302  1.1036 -0.2667  1.3059
 8581TIP3    H225708   3.555   3.994   5.218  1.4125 -1.9433  2.1892
 8582TIP3   OH225709   7.116   5.102   3.443 -0.7221  0.3117 -0.5640
 8582TIP3    H125710   7.152   5.049   3.372 -0.2912 -1.0420  0.6150
 8582TIP3    H225711   7.188   5.159   3.469  0.6931 -2.2449  1.6527
 8583TIP3   OH225712   1.015   4.889   3.958 -0.1793 -0.5031 -0.0989
 8583TIP3    H125713   0.955   4.844   4.017 -0.8585 -0.0429 -0.4323
 8583TIP3    H225714   1.095   4.900   4.010 -0.8068  0.0086  0.7771
 8584TIP3   OH225715   1.901   4.507   3.187  0.0832  0.0960 -0.0770
 8584TIP3    H125716   1.943   4.586   3.153 -0.3440 -0.2886 -1.5460
 8584TIP3    H225717   1.973   4.447   3.205  0.2995  0.1290 -0.8001
 8585TIP3   OH225718   2.812   5.602   5.811 -0.0985 -0.0721 -0.7613
 8585TIP3    H125719   2.906   5.593   5.823  0.2455  0.6244 -2.5935
 8585TIP3    H225720   2.781   5.512   5.799  0.2593 -0.3365  0.2174
 8586TIP3   OH225721   5.626   6.087   3.881 -0.0321  0.1320 -0.5661
 8586TIP3    H125722   5.578   6.007   3.902  1.3280 -1.2075 -2.2344
 8586TIP3    H225723   5.617   6.096   3.786  0.5515  1.4961 -0.5208
 8587TIP3   OH225724   6.046   2.725   5.046  0.1850  0.3547 -0.0596
 8587TIP3    H125725   6.091   2.658   4.994  1.1353  1.2386 -0.4041
 8587TIP3    H225726   6.101   2.736   5.123 -1.0523 -0.7213  1.0449
 8588TIP3   OH225727   1.741   3.620   0.288  0.1066  0.5883  0.1026
 8588TIP3    H125728   1.797   3.691   0.256  1.0697 -0.5232 -0.7869
 8588TIP3    H225729   1.797   3.543   0.286 -1.4790 -0.5949 -0.9467
 8589TIP3   OH225730   2.465   3.533   2.608 -0.0795 -0.6207 -0.5015
 8589TIP3    H125731   2.507   3.618   2.624 -1.1834 -0.0412 -0.5567
 8589TIP3    H225732   2.375   3.555   2.582 -0.4166 -1.8133 -0.4216
 8590TIP3   OH225733   2.728   0.834   5.537  0.7442 -0.3689 -0.5132
 8590TIP3    H125734   2.748   0.923   5.564 -1.4306 -0.3118  1.2492
 8590TIP3    H225735   2.790   0.779   5.585  0.0088  0.0517  0.9742
 8591TIP3   OH225736   1.883   5.608   4.259 -0.6181  0.6053  0.8023
 8591TIP3    H125737   1.857   5.606   4.351 -0.3635 -2.0481  0.8907
 8591TIP3    H225738   1.810   5.568   4.212  1.0843 -2.6000  0.5307
 8592TIP3   OH225739   6.602   1.560   1.991 -0.3250 -0.6588  0.5008
 8592TIP3    H125740   6.676   1.512   2.029  0.2679  0.2154  0.4694
 8592TIP3    H225741   6.586   1.517   1.907 -0.4113 -1.3999  0.8933
 8593TIP3   OH225742   7.063   0.889   0.448  0.1609 -0.4259  0.3999
 8593TIP3    H125743   7.119   0.846   0.512  0.1740 -0.7204  0.1928
 8593TIP3    H225744   7.119   0.902   0.372 -0.9359 -4.1454 -1.2956
 8594TIP3   OH225745   4.836   3.995   3.581 -0.8286 -0.0632 -0.0019
 8594TIP3    H125746   4.770   4.065   3.584  0.8240  1.5642  0.1856
 8594TIP3    H225747   4.786   3.916   3.560 -2.7276  1.2347 -0.6592
 8595TIP3   OH225748   6.457   6.607   5.245  0.3019 -0.4643 -0.1894
 8595TIP3    H125749   6.438   6.598   5.338  0.1542 -1.4365 -0.2980
 8595TIP3    H225750   6.537   6.556   5.232  1.3537  1.1587 -0.2728
 8596TIP3   OH225751   6.129   0.507   1.025  0.1572  0.4589  0.2305
 8596TIP3    H125752   6.107   0.428   1.075  1.8057 -1.1148 -1.3790
 8596TIP3    H225753   6.080   0.498   0.944  0.5340  0.9658 -0.0594
 8597TIP3   OH225754   7.053   3.630   0.335  0.1061  0.0206 -0.0161
 8597TIP3    H125755   7.135   3.588   0.307 -0.1041  0.1524 -0.8851
 8597TIP3    H225756   7.074   3.672   0.418  0.7874 -0.3695  0.0120
 8598TIP3   OH225757   3.119   1.564   4.182 -0.3058 -0.6080 -0.1595
 8598TIP3    H125758   3.039   1.512   4.192  0.5414 -2.1483 -0.9792
 8598TIP3    H225759   3.188   1.499   4.165  1.0163  0.7176 -0.0675
 8599TIP3   OH225760   6.437   2.853   1.301  0.2358  0.1806  0.5628
 8599TIP3    H125761   6.380   2.884   1.230  1.9777  2.7806  0.1365
 8599TIP3    H225762   6.407   2.902   1.378  1.3568  1.0244  0.4899
 8600TIP3   OH225763   1.079   2.713   0.762  0.2978 -0.1662 -0.2046
 8600TIP3    H125764   1.112   2.713   0.672 -1.1167 -1.2589 -0.7568
 8600TIP3    H225765   1.056   2.622   0.780  0.6865  0.0105  1.3253
 8601TIP3   OH225766   3.136   0.166   1.607  0.1915 -0.4013 -0.1103
 8601TIP3    H125767   3.223   0.189   1.640 -1.2378  2.4293  2.1280
 8601TIP3    H225768   3.144   0.173   1.512  2.1103  1.1365  0.0934
 8602TIP3   OH225769   3.210   4.542   0.286  0.0822 -0.3489  0.3022
 8602TIP3    H125770   3.197   4.450   0.260  0.5365  0.0499 -1.5048
 8602TIP3    H225771   3.150   4.591   0.231  3.3127  0.8200 -2.5948
 8603TIP3   OH225772   4.089   5.108   3.045  0.2774 -0.4371 -0.0247
 8603TIP3    H125773   4.030   5.086   3.117 -0.8846  2.0241 -0.1177
 8603TIP3    H225774   4.113   5.024   3.007 -0.5300 -1.6999  2.0731
 8604TIP3   OH225775   7.200   5.372   5.627  0.3170 -0.3010 -0.5299
 8604TIP3    H125776   7.250   5.452   5.614  0.0638 -0.3560 -2.0652
 8604TIP3    H225777   7.115   5.402   5.659 -0.6156  0.3220 -3.2905
 8605TIP3   OH225778   3.496   5.082   0.161  0.5447  0.1427  0.4362
 8605TIP3    H125779   3.517   4.990   0.177  0.5734  0.1527  0.4574
 8605TIP3    H225780   3.543   5.129   0.230 -1.7390 -0.0269  2.2307
 8606TIP3   OH225781   7.159   6.441   1.943 -0.7701 -0.4698  0.0722
 8606TIP3    H125782   7.246   6.409   1.918  0.3321  2.0379  0.2965
 8606TIP3    H225783   7.171   6.473   2.033 -2.1816 -0.8785  0.4210
 8607TIP3   OH225784   5.142   0.745   4.415 -0.4530  0.4874  0.2429
 8607TIP3    H125785   5.194   0.823   4.396 -1.1336  0.6729 -1.0141
 8607TIP3    H225786   5.081   0.740   4.342 -1.1604 -0.6004  0.8903
 8608TIP3   OH225787   7.079   6.398   5.480 -0.1364  0.0396 -0.7175
 8608TIP3    H125788   7.075   6.474   5.422 -1.5184  0.5452 -0.0055
 8608TIP3    H225789   6.992   6.359   5.475 -0.3167  0.1188  1.0019
 8609TIP3   OH225790   1.233   1.404   2.015 -0.7410  0.2349  0.2283
 8609TIP3    H125791   1.242   1.435   1.925 -1.5429  0.2084  0.1316
 8609TIP3    H225792   1.305   1.342   2.027 -2.0408 -1.7041 -1.2327
 8610TIP3   OH225793   6.746   0.879   3.341 -0.2938  0.6907 -0.1132
 8610TIP3    H125794   6.804   0.901   3.414 -0.9599 -0.5988  0.8507
 8610TIP3    H225795   6.666   0.929   3.357 -0.6563 -0.0231  0.3917
 8611TIP3   OH225796   5.749   4.705   4.271 -0.8547 -0.4906  0.4277
 8611TIP3    H125797   5.751   4.737   4.361 -2.0572 -3.9819  1.8373
 8611TIP3    H225798   5.681   4.758   4.228 -1.7196 -0.1260  2.1627
 8612TIP3   OH225799   3.283   5.785   1.398  0.1098 -0.3807 -0.2171
 8612TIP3    H125800   3.332   5.867   1.405 -0.9221  0.2497 -0.0729
 8612TIP3    H225801   3.244   5.789   1.310  0.0468 -0.7084 -0.2037
 8613TIP3   OH225802   5.447   4.100   2.781  0.0500 -0.1107 -0.2303
 8613TIP3    H125803   5.373   4.062   2.734 -0.1402  0.3679 -0.3226
 8613TIP3    H225804   5.524   4.059   2.741  0.0611  1.9790 -2.6418
 8614TIP3   OH225805   7.156   4.987   5.198  0.6037 -0.6321 -0.4898
 8614TIP3    H125806   7.133   4.926   5.268 -0.7822 -0.6076 -0.8895
 8614TIP3    H225807   7.252   4.987   5.196  0.6596 -1.1633  0.9258
 8615TIP3   OH225808   4.880   3.762   4.921  0.1939  0.4198  0.6808
 8615TIP3    H125809   4.961   3.805   4.895  0.8019 -0.5483  0.9402
 8615TIP3    H225810   4.811   3.818   4.885  0.9776  0.8283 -0.2285
 8616TIP3   OH225811   4.987   5.598   1.834 -0.0016 -0.2782 -0.4354
 8616TIP3    H125812   4.895   5.608   1.857 -0.0343  0.7925 -0.9638
 8616TIP3    H225813   4.999   5.505   1.820 -0.6121 -0.6549  1.2420
 8617TIP3   OH225814   0.426   1.465   0.912  0.3905  0.8844 -0.3386
 8617TIP3    H125815   0.480   1.420   0.847 -0.9291 -1.5409  0.1215
 8617TIP3    H225816   0.488   1.516   0.963  2.3362 -1.7122  0.1147
 8618TIP3   OH225817   2.790   3.748   4.835  0.6549  0.1265  0.6349
 8618TIP3    H125818   2.878   3.713   4.846  1.0072  1.0634  0.8701
 8618TIP3    H225819   2.803   3.842   4.822 -0.0935 -0.0693 -2.2893
 8619TIP3   OH225820   5.105   3.770   1.556 -0.3780 -0.3818 -0.3537
 8619TIP3    H125821   5.083   3.863   1.552 -0.1324 -0.3315 -0.5600
 8619TIP3    H225822   5.155   3.761   1.638 -0.6603 -0.3903 -0.1800
 8620TIP3   OH225823   6.228   0.862   5.726 -0.9480  0.1805  0.0870
 8620TIP3    H125824   6.317   0.898   5.724 -1.2537  1.0393  1.0133
 8620TIP3    H225825   6.173   0.936   5.753 -1.7184 -0.7744  1.1960
 8621TIP3   OH225826   5.390   1.915   2.933 -0.1239 -0.0171  0.0253
 8621TIP3    H125827   5.439   1.880   3.007  0.9583 -1.7031 -1.4014
 8621TIP3    H225828   5.329   1.844   2.910 -0.8485  0.7117 -0.3536
 8622TIP3   OH225829   3.655   0.343   1.149  0.1813 -0.2906 -0.2346
 8622TIP3    H125830   3.724   0.327   1.213  0.5198 -0.7300 -0.7005
 8622TIP3    H225831   3.575   0.312   1.191  0.3302 -0.1388  0.1573
 8623TIP3   OH225832   2.876   4.464   5.138  0.1539 -0.0397 -0.3342
 8623TIP3    H125833   2.856   4.553   5.168  1.5478  0.0919  0.2925
 8623TIP3    H225834   2.872   4.411   5.218 -1.4632 -0.7136 -0.8292
 8624TIP3   OH225835   0.769   1.966   4.571  0.8679  0.5760 -0.1427
 8624TIP3    H125836   0.760   1.925   4.656 -0.5790  1.6512  0.2460
 8624TIP3    H225837   0.805   1.897   4.515  0.8696 -0.4441  1.0769
 8625TIP3   OH225838   3.780   2.193   0.037  0.0464 -0.2818  0.0106
 8625TIP3    H125839   3.694   2.212  -0.001 -0.4842 -3.3296 -0.5244
 8625TIP3    H225840   3.827   2.145  -0.031  0.4450 -2.6781  1.8545
 8626TIP3   OH225841   0.525   0.770   5.558 -0.2862 -0.3007  0.6850
 8626TIP3    H125842   0.480   0.736   5.481  0.0285  0.5927  0.0904
 8626TIP3    H225843   0.616   0.781   5.531  0.3689 -2.1786  1.9108
 8627TIP3   OH225844   1.068   5.533   1.987 -0.1090  0.5375 -0.1580
 8627TIP3    H125845   1.136   5.585   1.943  0.6443  0.5519  0.9975
 8627TIP3    H225846   0.995   5.594   1.997  0.2650  0.9691 -0.0379
 8628TIP3   OH225847   5.968   3.272   1.129  0.3686 -0.0486 -0.5555
 8628TIP3    H125848   5.989   3.364   1.114  0.6829 -0.0340 -0.0424
 8628TIP3    H225849   5.900   3.253   1.064 -0.1272  0.7095 -0.2808
 8629TIP3   OH225850   4.632   2.764   0.476  0.2799  0.2196  0.4614
 8629TIP3    H125851   4.725   2.763   0.497  0.6098 -0.0240 -0.8765
 8629TIP3    H225852   4.603   2.853   0.494  1.0318  0.5870 -0.1003
 8630TIP3   OH225853   5.715   1.510   0.638 -0.3027 -0.4485  0.3141
 8630TIP3    H125854   5.768   1.547   0.709  0.0548  0.3831 -0.3811
 8630TIP3    H225855   5.777   1.494   0.567 -0.7389 -0.8611  0.0190
 8631TIP3   OH225856   4.428   5.639   3.191 -0.0043  0.0416  0.2498
 8631TIP3    H125857   4.463   5.604   3.109  0.9333 -0.7327  0.9520
 8631TIP3    H225858   4.470   5.586   3.259  0.1847  1.4824  1.2898
 8632TIP3   OH225859   2.990   1.297   5.390 -0.0537 -0.0212 -0.4259
 8632TIP3    H125860   2.953   1.276   5.304 -1.7127 -1.7735  0.6255
 8632TIP3    H225861   2.921   1.347   5.434  0.6998  0.6947 -0.0433
 8633TIP3   OH225862   4.260   3.330   2.154  0.3324 -0.0103  0.4585
 8633TIP3    H125863   4.178   3.375   2.177 -0.1699  1.2289 -3.1258
 8633TIP3    H225864   4.231   3.251   2.108  1.1651 -0.3268  0.4663
 8634TIP3   OH225865   5.419   1.466   1.257  0.7385  0.5019 -0.2028
 8634TIP3    H125866   5.361   1.493   1.187 -0.0324 -2.8365 -1.0371
 8634TIP3    H225867   5.507   1.473   1.220  0.2986 -2.3160 -2.1219
 8635TIP3   OH225868   6.997   2.417   0.376  0.5520  0.1339 -0.6806
 8635TIP3    H125869   6.971   2.509   0.383  1.0797  0.2027  0.8227
 8635TIP3    H225870   7.069   2.417   0.314 -0.8983  0.3793 -2.4557
 8636TIP3   OH225871   1.056   5.747   3.282  0.3742  0.4382  0.0407
 8636TIP3    H125872   1.149   5.762   3.297  0.9684 -1.8306 -1.0355
 8636TIP3    H225873   1.018   5.745   3.370  1.3997  0.9260  0.5091
 8637TIP3   OH225874   0.638   6.676   5.100 -0.4772 -0.2234 -0.1153
 8637TIP3    H125875   0.586   6.599   5.121  0.2458 -1.0281 -1.1736
 8637TIP3    H225876   0.660   6.714   5.185 -0.6182 -1.3423  0.4393
 8638TIP3   OH225877   3.787   4.710   0.328 -0.4097  0.0132  0.1724
 8638TIP3    H125878   3.863   4.694   0.273  0.7195  0.7619  1.4488
 8638TIP3    H225879   3.796   4.648   0.401 -0.8558  0.3156  0.4939
 8639TIP3   OH225880   7.073   3.885   2.744 -0.2301  0.0129  0.6813
 8639TIP3    H125881   7.134   3.943   2.699  1.8581 -1.7340  1.1057
 8639TIP3    H225882   7.044   3.824   2.676  0.0771 -0.3816  0.8984
 8640TIP3   OH225883   2.050   2.939   5.823 -0.0761  0.1667  0.3772
 8640TIP3    H125884   2.007   3.024   5.814  2.1814  1.2288 -1.2289
 8640TIP3    H225885   2.068   2.911   5.733  0.7156 -1.2116  0.9229
 8641TIP3   OH225886   6.799   3.274   5.779  0.2356  0.2164 -0.4235
 8641TIP3    H125887   6.712   3.312   5.779  0.0642  0.0248  2.1067
 8641TIP3    H225888   6.788   3.188   5.738 -1.2550 -0.6423  1.5995
 8642TIP3   OH225889   0.321   1.107   2.285  0.6563  0.3543  0.3980
 8642TIP3    H125890   0.410   1.072   2.291  0.1916 -0.8967  0.3162
 8642TIP3    H225891   0.273   1.043   2.232 -0.6096  0.3611  1.4745
 8643TIP3   OH225892   6.959   4.584   0.906  0.2828 -0.4139  0.5106
 8643TIP3    H125893   7.035   4.550   0.860  0.1034 -1.1500  0.7510
 8643TIP3    H225894   6.888   4.581   0.842  0.2136 -0.7025  0.6025
 8644TIP3   OH225895   6.942   5.978   1.167  0.4245 -0.1423  0.4767
 8644TIP3    H125896   7.037   5.971   1.164  0.3837 -1.6069  1.3438
 8644TIP3    H225897   6.919   5.959   1.258 -0.7397 -0.8875  0.0627
 8645TIP3   OH225898   6.649   2.159   1.161  0.2500 -0.6782 -0.0722
 8645TIP3    H125899   6.563   2.188   1.193 -0.0878 -0.2179 -1.3259
 8645TIP3    H225900   6.628   2.091   1.097  0.8714 -1.2414  0.3264
 8646TIP3   OH225901   0.455   5.103   3.215 -0.1193 -0.5665 -0.1029
 8646TIP3    H125902   0.413   5.017   3.220  0.2640 -0.8035  5.3175
 8646TIP3    H225903   0.537   5.087   3.169 -1.2669 -2.3754 -1.6747
 8647TIP3   OH225904   1.734   2.095   1.418 -0.0346  0.0679  0.4128
 8647TIP3    H125905   1.718   2.153   1.343  1.0055 -0.2742 -0.1027
 8647TIP3    H225906   1.653   2.046   1.428 -0.1674  0.0688 -0.5525
 8648TIP3   OH225907   5.246   4.719   5.386  0.1066 -0.7338 -0.5010
 8648TIP3    H125908   5.160   4.710   5.428  0.1664 -1.1521 -0.4586
 8648TIP3    H225909   5.309   4.704   5.456  0.2293  0.3802 -0.3602
 8649TIP3   OH225910   3.407   6.432   3.939 -0.1141 -0.1295  0.0200
 8649TIP3    H125911   3.375   6.505   3.885  1.2407  1.3781  1.1238
 8649TIP3    H225912   3.369   6.449   4.025  0.2653 -0.6955  0.2994
 8650TIP3   OH225913   3.006   4.071   5.134 -0.3808  0.0513 -0.1422
 8650TIP3    H125914   2.926   4.096   5.088  1.6872  2.2139 -2.8980
 8650TIP3    H225915   3.052   4.153   5.150  1.8196 -1.1727  0.3534
 8651TIP3   OH225916   6.972   3.087   0.322  0.1113 -0.1283  0.2581
 8651TIP3    H125917   6.947   3.179   0.319  0.0042 -0.0788  1.7473
 8651TIP3    H225918   6.966   3.064   0.415 -1.4543 -2.0801 -0.2637
 8652TIP3   OH225919   5.895   3.278   5.151  0.2068  0.0796 -0.2820
 8652TIP3    H125920   5.832   3.288   5.079 -0.5025  3.9306  0.6572
 8652TIP3    H225921   5.980   3.274   5.107 -0.3297  0.1994 -1.3786
 8653TIP3   OH225922   0.311   1.061   0.961  0.2170  0.3391  0.3374
 8653TIP3    H125923   0.320   0.980   1.011 -0.1292  0.5381  0.7290
 8653TIP3    H225924   0.364   1.047   0.883 -0.4752 -0.5840  0.0150
 8654TIP3   OH225925   5.173   4.014   5.855 -0.0337  0.1838 -0.1014
 8654TIP3    H125926   5.206   3.975   5.774 -0.0551 -1.0124  0.4480
 8654TIP3    H225927   5.114   3.948   5.892 -1.2179  1.3184  0.1429
 8655TIP3   OH225928   1.167   6.647   0.202 -0.1114  0.5038  0.5520
 8655TIP3    H125929   1.097   6.712   0.196  0.1099  0.7744  0.9289
 8655TIP3    H225930   1.126   6.566   0.169 -1.1717  0.2109  2.4182
 8656TIP3   OH225931   4.217   0.994   1.860  0.1288  0.0011 -0.1797
 8656TIP3    H125932   4.291   1.015   1.803  0.8513  0.7577  0.9795
 8656TIP3    H225933   4.258   0.964   1.941 -0.8673 -0.5341  0.1323
 8657TIP3   OH225934   0.415   3.943   4.338  0.7343  0.0231  0.7139
 8657TIP3    H125935   0.507   3.966   4.336  0.9590 -0.4770  3.0004
 8657TIP3    H225936   0.371   4.019   4.375 -0.0542  0.8625 -1.7336
 8658TIP3   OH225937   1.501   4.429   1.375  0.3546 -0.5179 -0.1117
 8658TIP3    H125938   1.504   4.425   1.279 -0.0392 -1.1739 -0.0996
 8658TIP3    H225939   1.409   4.450   1.395  0.3281 -0.8755  0.1377
 8659TIP3   OH225940   4.726   0.330   2.286  0.3232 -0.0083 -0.3271
 8659TIP3    H125941   4.803   0.335   2.342  0.9342 -0.5381 -1.0956
 8659TIP3    H225942   4.716   0.237   2.266 -0.6984  0.0196 -0.0051
 8660TIP3   OH225943   0.766   1.869   4.835  0.2078 -0.5997  0.0534
 8660TIP3    H125944   0.789   1.776   4.833  0.4638 -0.5322 -0.8071
 8660TIP3    H225945   0.809   1.904   4.913 -0.9661 -1.4558  1.1288
 8661TIP3   OH225946   4.049   2.511   2.164 -0.0178  0.0348 -0.6102
 8661TIP3    H125947   4.134   2.474   2.188 -0.8272 -2.4167 -1.2189
 8661TIP3    H225948   3.991   2.487   2.236 -0.8698 -1.1285 -1.6478
 8662TIP3   OH225949   5.813   5.095   2.103  0.2102  0.0380 -0.2456
 8662TIP3    H125950   5.840   5.185   2.085  0.7414 -0.1392 -0.3393
 8662TIP3    H225951   5.804   5.054   2.017  4.1752 -1.2367 -0.2633
 8663TIP3   OH225952   3.230   1.616   5.323  0.4733 -0.2312  0.4199
 8663TIP3    H125953   3.258   1.535   5.364  1.1318 -0.9428 -1.3356
 8663TIP3    H225954   3.259   1.609   5.232 -0.5926  1.4136 -0.1081
 8664TIP3   OH225955   3.190   2.816   2.510  0.0463 -0.4363 -1.1979
 8664TIP3    H125956   3.222   2.899   2.474 -0.7672  0.2595 -0.3711
 8664TIP3    H225957   3.232   2.749   2.456 -0.6783  0.5258 -3.0683
 8665TIP3   OH225958   5.472   5.429   3.061  0.0665 -0.5780  0.0634
 8665TIP3    H125959   5.496   5.369   3.132  0.2384  1.4700  1.8183
 8665TIP3    H225960   5.546   5.490   3.056  0.3108 -0.9865 -2.3107
 8666TIP3   OH225961   1.073   1.012   1.151 -0.1118  0.0994 -0.6880
 8666TIP3    H125962   0.993   0.959   1.152 -0.2409  0.2774 -1.2862
 8666TIP3    H225963   1.141   0.951   1.121  0.1448 -0.2672  0.5764
 8667TIP3   OH225964   4.345   0.116   5.716 -0.2496 -0.4473  0.0648
 8667TIP3    H125965   4.417   0.116   5.779  0.5387  0.9101 -0.7683
 8667TIP3    H225966   4.267   0.135   5.768  0.1533 -0.8869  0.8412
 8668TIP3   OH225967   3.123   5.116   0.647  0.2943  0.1764  0.5026
 8668TIP3    H125968   3.073   5.172   0.588 -3.0152 -0.6561  2.2421
 8668TIP3    H225969   3.181   5.175   0.694  0.3832  1.3425 -0.9920
 8669TIP3   OH225970   6.419   1.152   1.179  0.0234  0.7407  0.1579
 8669TIP3    H125971   6.347   1.105   1.220  0.7619 -0.3853  0.1971
 8669TIP3    H225972   6.384   1.240   1.164 -1.4613  0.1477 -0.1017
 8670TIP3   OH225973   5.928   0.316   2.368  0.1159  0.0296 -0.1191
 8670TIP3    H125974   5.958   0.226   2.378 -1.7651 -0.4792  1.7494
 8670TIP3    H225975   5.856   0.311   2.306  0.9031  0.5332 -1.1192
 8671TIP3   OH225976   3.800   0.207   0.044 -0.4527  0.1195  0.0485
 8671TIP3    H125977   3.738   0.227   0.114  1.0662  1.3343  1.1199
 8671TIP3    H225978   3.836   0.122   0.068 -1.4955 -0.4622 -0.4304
 8672TIP3   OH225979   6.665   0.352   4.502 -0.4464 -0.5729 -0.4028
 8672TIP3    H125980   6.742   0.410   4.499 -0.2159 -0.8314  0.2503
 8672TIP3    H225981   6.609   0.383   4.431  0.5838 -0.8447 -1.3605
 8673TIP3   OH225982   1.465   1.169   5.784  0.3422 -0.2179 -0.0858
 8673TIP3    H125983   1.385   1.116   5.776 -0.6171  0.8552  1.6886
 8673TIP3    H225984   1.446   1.247   5.732  0.4730 -0.2343 -0.1559
 8674TIP3   OH225985   4.252   6.283   2.114 -0.0244  0.0897  0.7302
 8674TIP3    H125986   4.308   6.297   2.038  0.4481  0.7949  1.1976
 8674TIP3    H225987   4.232   6.189   2.112  0.6618 -0.0519  0.2030
 8675TIP3   OH225988   5.210   3.500   0.971  0.7106  0.5798  0.2305
 8675TIP3    H125989   5.191   3.594   0.975  1.1978  0.7420 -0.8132
 8675TIP3    H225990   5.292   3.495   0.922 -0.1556 -0.4805 -1.1731
 8676TIP3   OH225991   1.012   5.727   4.744  0.0644  0.0531 -0.2694
 8676TIP3    H125992   0.969   5.802   4.704  1.0896  1.4519  1.1189
 8676TIP3    H225993   1.008   5.745   4.838  0.3527 -1.6360  0.0957
 8677TIP3   OH225994   3.393   0.293   2.921  0.6265 -0.4984 -0.0646
 8677TIP3    H125995   3.359   0.319   3.007  0.8884 -1.1888  0.2528
 8677TIP3    H225996   3.469   0.349   2.907  1.1295 -1.0117  0.5698
 8678TIP3   OH225997   2.652   6.691   1.737  0.0222  0.0184 -0.1018
 8678TIP3    H125998   2.652   6.682   1.642 -1.0325 -0.5955 -0.0578
 8678TIP3    H225999   2.603   6.615   1.769 -1.9306  1.5301  0.7538
 8679TIP3   OH226000   5.150   6.553   5.734  0.2785 -0.1295 -0.2174
 8679TIP3    H126001   5.137   6.641   5.699 -2.6465 -0.5504 -0.4248
 8679TIP3    H226002   5.133   6.561   5.827 -4.5151 -1.0370 -0.7522
 8680TIP3   OH226003   6.687   5.039   2.738 -0.1791  0.2322  0.1172
 8680TIP3    H126004   6.754   4.971   2.727  0.6953  1.2804 -1.3328
 8680TIP3    H226005   6.705   5.076   2.824  0.4431 -0.2074  0.1875
 8681TIP3   OH226006   6.377   0.205   0.685 -0.8990 -0.3401 -0.1083
 8681TIP3    H126007   6.397   0.143   0.615 -0.0941  0.4419 -0.5903
 8681TIP3    H226008   6.363   0.289   0.640 -3.0221 -0.3557  0.4272
 8682TIP3   OH226009   0.094   0.582   0.957  0.4842  0.2821 -0.5428
 8682TIP3    H126010   0.137   0.510   0.911  0.0525 -0.0868 -0.3771
 8682TIP3    H226011   0.100   0.557   1.050  0.3374  0.4610 -0.4865
 8683TIP3   OH226012   1.150   5.610   2.966 -0.4897  0.5765  0.7271
 8683TIP3    H126013   1.125   5.652   2.884 -1.7597  0.2220  0.9023
 8683TIP3    H226014   1.151   5.517   2.946  2.2459  0.6039  0.3573
 8684TIP3   OH226015   3.831   3.704   5.529  0.1780 -0.6463 -0.6994
 8684TIP3    H126016   3.740   3.697   5.502 -0.2252 -0.7553  0.6375
 8684TIP3    H226017   3.854   3.618   5.564  0.3520 -0.2350  0.2463
 8685TIP3   OH226018   1.167   5.324   4.134  0.2026 -0.1956 -0.0331
 8685TIP3    H126019   1.209   5.296   4.216  0.7863 -0.2218 -0.3366
 8685TIP3    H226020   1.240   5.339   4.074 -0.1683  0.6631 -0.2885
 8686TIP3   OH226021   1.464   6.570   2.740 -0.2486 -0.1055 -0.2458
 8686TIP3    H126022   1.410   6.512   2.794  0.2933  0.8633  1.4207
 8686TIP3    H226023   1.497   6.514   2.671 -0.3483 -1.6185  0.8711
 8687TIP3   OH226024   6.071   4.302   1.175  0.3371 -0.0645 -0.2776
 8687TIP3    H126025   6.032   4.325   1.090  1.4525 -1.5760 -1.2568
 8687TIP3    H226026   5.997   4.268   1.226  0.2103 -2.8854 -2.0969
 8688TIP3   OH226027   5.143   2.240   1.580 -0.3640  0.1746 -0.8306
 8688TIP3    H126028   5.209   2.293   1.536  0.6509  0.9519  1.4709
 8688TIP3    H226029   5.165   2.247   1.673 -2.0478 -1.8150 -0.2094
 8689TIP3   OH226030   0.296   0.169   3.432 -0.0015  0.6017 -0.1710
 8689TIP3    H126031   0.335   0.104   3.492  1.3041  1.6879  0.2097
 8689TIP3    H226032   0.202   0.151   3.434  0.3348 -1.4460 -0.2849
 8690TIP3   OH226033   0.332   3.883   1.031  0.1410 -0.3140  0.4559
 8690TIP3    H126034   0.264   3.868   1.096 -0.3020  0.5408  0.2058
 8690TIP3    H226035   0.285   3.895   0.949  0.7439 -2.7225 -0.3281
 8691TIP3   OH226036   3.975   1.267   0.500  0.1567  0.4900 -0.3782
 8691TIP3    H126037   4.059   1.313   0.501  0.0999  0.5932  0.2413
 8691TIP3    H226038   3.951   1.259   0.593 -0.1394 -0.2347 -0.5081
 8692TIP3   OH226039   4.228   1.253   4.473  0.4542 -0.2131  0.2222
 8692TIP3    H126040   4.225   1.326   4.535 -1.5422 -1.4843  1.7399
 8692TIP3    H226041   4.301   1.199   4.504 -0.6198 -0.9178  1.6607
 8693TIP3   OH226042   0.782   1.009   4.871  0.6804  0.0448  0.3131
 8693TIP3    H126043   0.858   1.012   4.813 -0.2077  0.6566 -0.8481
 8693TIP3    H226044   0.761   1.101   4.886 -0.6658 -0.1119 -0.5134
 8694TIP3   OH226045   1.428   1.892   4.489  0.1461 -0.2754  0.3753
 8694TIP3    H126046   1.488   1.952   4.533  0.0131 -0.0143  0.2074
 8694TIP3    H226047   1.460   1.887   4.399 -0.6292  0.6149  0.0335
 8695TIP3   OH226048   5.031   1.331   2.391  0.3338  0.4185 -0.7814
 8695TIP3    H126049   5.083   1.314   2.312  1.2000  2.0366 -0.6096
 8695TIP3    H226050   5.025   1.427   2.395 -0.5572  0.3254  0.5663
 8696TIP3   OH226051   3.114   6.398   4.410  0.3814  0.0523 -0.0648
 8696TIP3    H126052   3.140   6.423   4.499  0.3145 -0.5683  0.1332
 8696TIP3    H226053   3.117   6.302   4.410  0.4521  0.0464 -0.7532
 8697TIP3   OH226054   6.577   5.089   0.794 -0.0016 -0.2776 -0.0445
 8697TIP3    H126055   6.509   5.109   0.859 -0.9043  0.4983 -1.1887
 8697TIP3    H226056   6.645   5.043   0.844  0.7686  2.8738  2.1310
 8698TIP3   OH226057   7.148   3.054   0.620  0.2173  0.0627 -0.4083
 8698TIP3    H126058   7.152   3.150   0.628  1.5018 -0.1062  1.8114
 8698TIP3    H226059   7.090   3.027   0.690 -0.6010 -0.7972 -1.3838
 8699TIP3   OH226060   3.559   6.011   2.012 -0.3792  0.3054  0.3070
 8699TIP3    H126061   3.599   6.097   1.997  0.7570 -0.2076  0.3622
 8699TIP3    H226062   3.484   6.031   2.069  0.1581  1.2067  0.7343
 8700TIP3   OH226063   5.031   4.329   0.800 -0.5473 -0.2561  0.5858
 8700TIP3    H126064   4.970   4.288   0.860  0.1487 -0.4670  1.1695
 8700TIP3    H226065   5.014   4.288   0.715 -1.3932 -0.1047  0.6789
 8701TIP3   OH226066   5.409   5.009   1.462 -0.2928  0.8228 -0.1135
 8701TIP3    H126067   5.339   5.052   1.513 -1.0357 -0.6293  0.1350
 8701TIP3    H226068   5.362   4.951   1.402  0.6691  0.8700 -0.9287
 8702TIP3   OH226069   4.719   0.776   3.606 -0.0550 -0.4275 -0.4225
 8702TIP3    H126070   4.689   0.857   3.565  0.3793  0.0860  0.2492
 8702TIP3    H226071   4.712   0.710   3.537  1.3796  0.5544 -1.5749
 8703TIP3   OH226072   6.115   3.332   1.699  0.4223  0.4372  0.1357
 8703TIP3    H126073   6.207   3.337   1.725  0.7509  0.0746 -0.9388
 8703TIP3    H226074   6.097   3.239   1.690  0.4726  0.5636 -1.4546
 8704TIP3   OH226075   2.779   2.572   5.536 -0.2065 -0.5170 -0.0259
 8704TIP3    H126076   2.852   2.581   5.597  0.3175 -0.5308 -0.6305
 8704TIP3    H226077   2.723   2.505   5.574 -0.3748  0.1414  0.9034
 8705TIP3   OH226078   1.042   4.529   3.642  0.3751 -0.3754  0.4096
 8705TIP3    H126079   0.967   4.553   3.587 -0.8349 -0.5315  1.9504
 8705TIP3    H226080   1.109   4.593   3.618 -0.4336  0.1492 -0.5680
 8706TIP3   OH226081   3.072   5.414   0.872 -0.4975  0.1540  0.5667
 8706TIP3    H126082   3.078   5.322   0.846  2.3295  0.5837 -0.6735
 8706TIP3    H226083   3.031   5.457   0.797  1.3207  0.3410 -0.3872
 8707TIP3   OH226084   5.879   4.758   3.597 -0.0380  0.1357  0.3655
 8707TIP3    H126085   5.809   4.808   3.556 -0.1633  0.2233  0.6834
 8707TIP3    H226086   5.932   4.823   3.644  1.0363  0.2580 -0.9408
 8708TIP3   OH226087   0.654   0.999   1.657  0.1724 -0.1000  0.3932
 8708TIP3    H126088   0.745   0.971   1.656  0.1516 -0.2500  1.6349
 8708TIP3    H226089   0.659   1.095   1.666  0.2213 -0.1839  1.4079
 8709TIP3   OH226090   5.863   2.738   2.643 -0.3685 -0.1361  0.3817
 8709TIP3    H126091   5.798   2.679   2.682  1.4339 -2.6738 -0.1760
 8709TIP3    H226092   5.947   2.708   2.679  0.6913  1.8287 -0.3096
 8710TIP3   OH226093   4.454   5.255   3.503 -0.1871 -0.1103 -0.3557
 8710TIP3    H126094   4.371   5.302   3.498 -0.6129 -0.8469 -0.2241
 8710TIP3    H226095   4.468   5.221   3.414  0.9139  1.5754 -0.8823
 8711TIP3   OH226096   3.785   1.521   3.134 -0.7900  0.5665 -0.1318
 8711TIP3    H126097   3.708   1.571   3.108  0.3810  2.5852  0.0789
 8711TIP3    H226098   3.820   1.567   3.210  0.6740 -0.2178 -0.2857
 8712TIP3   OH226099   3.951   3.095   1.075 -0.0163  0.3057  0.0231
 8712TIP3    H126100   3.961   3.001   1.063  0.4787  0.5283 -1.4042
 8712TIP3    H226101   4.030   3.121   1.122  0.4722  0.2122 -0.7426
 8713TIP3   OH226102   4.955   0.741   4.639 -0.6109 -0.0834 -0.4610
 8713TIP3    H126103   5.003   0.668   4.677 -1.9077 -0.5700  0.3231
 8713TIP3    H226104   5.020   0.790   4.588  1.5756  1.2455  3.2064
 8714TIP3   OH226105   2.621   0.732   4.603 -0.1535  0.3719  0.0323
 8714TIP3    H126106   2.616   0.637   4.589 -2.4504  0.5032 -0.3964
 8714TIP3    H226107   2.564   0.748   4.678 -0.1140  1.4614 -0.1580
 8715TIP3   OH226108   6.859   1.806   1.119  0.0712 -0.9570 -0.8847
 8715TIP3    H126109   6.873   1.715   1.095  1.5261 -2.1612  3.6983
 8715TIP3    H226110   6.944   1.837   1.150 -0.9005  1.2763 -0.2214
 8716TIP3   OH226111   4.394   1.853   3.323  0.0648  0.1060 -0.9803
 8716TIP3    H126112   4.315   1.892   3.360  0.1791  0.3804 -1.0293
 8716TIP3    H226113   4.362   1.786   3.263 -0.1711  1.4015 -2.3448
 8717TIP3   OH226114   6.528   0.733   4.080 -0.2153  0.7196 -0.0961
 8717TIP3    H126115   6.601   0.721   4.141  0.5089 -1.5261 -1.2706
 8717TIP3    H226116   6.450   0.721   4.134  0.3443  0.5810  0.7101
 8718TIP3   OH226117   1.978   1.625   4.733 -0.3611  0.2733  0.5020
 8718TIP3    H126118   2.027   1.593   4.808 -1.2109 -1.9614  0.1824
 8718TIP3    H226119   2.027   1.594   4.657 -1.4021 -0.6245  0.1739
 8719TIP3   OH226120   2.339   3.471   3.029  0.5862 -0.0626 -0.2100
 8719TIP3    H126121   2.353   3.437   2.941 -0.6242 -1.2902  0.0313
 8719TIP3    H226122   2.404   3.540   3.039  1.0227 -0.1878 -1.9027
 8720TIP3   OH226123   1.552   6.633   3.249 -0.0040 -0.4680 -0.0510
 8720TIP3    H126124   1.556   6.590   3.164  0.3898 -0.2158 -0.1668
 8720TIP3    H226125   1.612   6.708   3.240  0.3419 -0.6648  0.5672
 8721TIP3   OH226126   2.364   5.718   0.592 -0.1164  0.1422 -0.7026
 8721TIP3    H126127   2.386   5.661   0.665  0.4346  0.9301 -0.2476
 8721TIP3    H226128   2.449   5.751   0.561 -0.3617  0.0132 -1.5342
 8722TIP3   OH226129   6.886   5.239   1.440 -0.2497  0.9650  0.0160
 8722TIP3    H126130   6.889   5.333   1.458  0.5139  0.9359  0.0805
 8722TIP3    H226131   6.977   5.211   1.446 -0.6551 -0.1047  1.7439
 8723TIP3   OH226132   4.546   6.269   3.236 -0.4866  0.1039  0.3355
 8723TIP3    H126133   4.576   6.330   3.303 -3.8913  0.2670  1.9362
 8723TIP3    H226134   4.526   6.324   3.160  2.3543  0.0485 -0.5785
 8724TIP3   OH226135   4.177   1.324   3.329 -0.0806  0.4628  0.3575
 8724TIP3    H126136   4.248   1.334   3.392  0.6881  0.3576 -0.4851
 8724TIP3    H226137   4.127   1.406   3.336 -0.9815 -0.1888  2.2605
 8725TIP3   OH226138   4.762   3.692   3.175  0.3555 -0.2164  0.5991
 8725TIP3    H126139   4.737   3.599   3.173 -0.3414 -0.0669 -2.0936
 8725TIP3    H226140   4.856   3.692   3.155  0.2107 -0.3517 -0.1363
 8726TIP3   OH226141   2.417   4.823   2.077  0.3445 -0.6661  0.4268
 8726TIP3    H126142   2.494   4.871   2.106 -1.3211  1.5275  1.5645
 8726TIP3    H226143   2.402   4.757   2.144  0.9620 -0.8164  0.4213
 8727TIP3   OH226144   0.040   6.117   0.811 -0.4218 -0.0715 -0.1227
 8727TIP3    H126145   0.005   6.173   0.741 -0.2617  1.5100  1.0024
 8727TIP3    H226146   0.114   6.167   0.847 -0.9836 -0.4546  1.6763
 8728TIP3   OH226147   3.574   5.219   0.736 -0.1509 -0.3442 -0.3431
 8728TIP3    H126148   3.623   5.185   0.810 -0.1607 -0.3406 -0.3350
 8728TIP3    H226149   3.624   5.192   0.659 -0.5584 -1.0447 -0.3769
 8729TIP3   OH226150   6.918   1.886   2.512  0.4285 -0.3514  0.0365
 8729TIP3    H126151   6.996   1.934   2.537 -0.7189  1.8520 -0.3410
 8729TIP3    H226152   6.944   1.794   2.514  3.1186  0.3210 -0.4989
 8730TIP3   OH226153   3.610   1.504   2.393  0.1585  0.2543  0.5692
 8730TIP3    H126154   3.640   1.445   2.463 -0.3268  0.4654  0.9655
 8730TIP3    H226155   3.527   1.538   2.425  0.4683  1.2233  0.3848
 8731TIP3   OH226156   1.810   6.790   3.278 -0.2497 -0.5040  0.2866
 8731TIP3    H126157   1.844   6.707   3.247 -0.2515 -0.7060  0.8187
 8731TIP3    H226158   1.887   6.836   3.312 -0.3733 -0.6220  0.7320
 8732TIP3   OH226159   2.422   5.515   2.431  0.0900  0.4129 -0.2770
 8732TIP3    H126160   2.446   5.441   2.376  0.4270  1.3511 -1.4382
 8732TIP3    H226161   2.340   5.488   2.472  0.0041 -0.4513 -0.9725
 8733TIP3   OH226162   3.316   0.301   1.913 -1.1474  0.0664  0.2165
 8733TIP3    H126163   3.367   0.258   1.844 -1.2080  0.6123 -0.1798
 8733TIP3    H226164   3.306   0.235   1.981 -1.4001 -0.6054 -0.4577
 8734TIP3   OH226165   3.800   5.417   1.636  0.2065  0.2493  0.2521
 8734TIP3    H126166   3.716   5.387   1.600 -0.6532 -0.6223  2.7938
 8734TIP3    H226167   3.804   5.509   1.610 -2.0731  0.6086  0.9027
 8735TIP3   OH226168   4.099   6.355   4.619 -0.0071  0.3634 -0.3664
 8735TIP3    H126169   4.036   6.410   4.573 -1.1082  0.1439  0.8242
 8735TIP3    H226170   4.136   6.411   4.687 -1.1621 -0.3356  0.8761
 8736TIP3   OH226171   0.734   0.167   0.309 -0.1069  0.3331 -0.1578
 8736TIP3    H126172   0.658   0.202   0.355 -0.6570 -1.5902  0.5106
 8736TIP3    H226173   0.704   0.157   0.218 -0.1411  0.9784 -0.2219
 8737TIP3   OH226174   2.316   1.060   0.690 -0.7557  1.0048 -0.2370
 8737TIP3    H126175   2.311   0.984   0.749  0.2353  0.4739 -0.8186
 8737TIP3    H226176   2.229   1.065   0.651 -0.7050 -0.1187 -0.5305
 8738TIP3   OH226177   4.226   6.669   5.285  0.0669 -0.5058 -0.5163
 8738TIP3    H126178   4.180   6.735   5.336  0.8236 -0.1233 -0.3039
 8738TIP3    H226179   4.312   6.662   5.327  1.1210  0.6001 -2.3483
 8739TIP3   OH226180   5.913   6.352   5.540  0.0282 -0.1589  0.3857
 8739TIP3    H126181   5.958   6.272   5.568 -0.2534 -0.4108  0.1138
 8739TIP3    H226182   5.876   6.388   5.621  1.6162  0.6344  0.8084
 8740TIP3   OH226183   6.116   5.409   2.114  0.3454  0.0626  0.1517
 8740TIP3    H126184   6.204   5.375   2.095  0.2289  0.3913 -1.0180
 8740TIP3    H226185   6.132   5.496   2.151  0.5091  0.2977 -0.4574
 8741TIP3   OH226186   0.544   3.906   3.084  0.4852 -0.1775 -0.0924
 8741TIP3    H126187   0.496   3.902   3.001  2.6675 -1.8292 -1.3681
 8741TIP3    H226188   0.588   3.822   3.091 -0.7881 -0.7277  3.5784
 8742TIP3   OH226189   2.537   1.445   2.477  0.2151  0.1157 -0.4115
 8742TIP3    H126190   2.550   1.392   2.398 -0.3194  1.8822 -1.7690
 8742TIP3    H226191   2.470   1.397   2.527  0.4222 -0.9496 -1.1124
 8743TIP3   OH226192   1.664   4.618   2.733  0.4281 -0.0158  0.2603
 8743TIP3    H126193   1.681   4.708   2.705  0.3946 -0.5838 -1.7438
 8743TIP3    H226194   1.740   4.568   2.702  0.1346 -0.7823  0.7467
 8744TIP3   OH226195   5.427   0.404   3.031 -0.0945 -0.4098 -0.7957
 8744TIP3    H126196   5.387   0.441   2.952  0.0842 -1.3516 -1.3416
 8744TIP3    H226197   5.494   0.468   3.056 -1.3766  0.8019 -0.3230
 8745TIP3   OH226198   6.207   5.199   1.303 -0.4873  0.7900 -0.2626
 8745TIP3    H126199   6.146   5.133   1.271  1.5997 -0.9879 -0.7518
 8745TIP3    H226200   6.212   5.182   1.397  0.8513 -0.5066 -0.5413
 8746TIP3   OH226201   4.252   0.203   3.568 -0.4635 -0.4614 -0.0032
 8746TIP3    H126202   4.268   0.227   3.659 -2.3391  2.6766 -0.3441
 8746TIP3    H226203   4.333   0.226   3.523 -0.6058  1.1061  0.4563
 8747TIP3   OH226204   7.004   5.974   1.936  0.4722 -0.3690 -0.1959
 8747TIP3    H126205   7.059   6.019   2.000 -1.5165  0.2059  1.1901
 8747TIP3    H226206   6.950   5.914   1.988 -1.1542  0.0528 -1.3172
 8748TIP3   OH226207   7.107   5.292   1.061  0.4302  0.3901  0.0323
 8748TIP3    H126208   7.179   5.237   1.030  0.1721 -0.0772  0.2473
 8748TIP3    H226209   7.029   5.237   1.052  0.1116  0.8595 -0.1152
 8749TIP3   OH226210   0.226   3.155   4.927 -0.0973 -0.1329 -0.0917
 8749TIP3    H126211   0.308   3.134   4.883 -0.3020 -0.1390 -0.4771
 8749TIP3    H226212   0.226   3.250   4.936 -0.7226  0.0223 -1.4617
 8750TIP3   OH226213   5.380   3.734   3.534 -0.4313 -0.2067 -0.0704
 8750TIP3    H126214   5.303   3.688   3.567 -1.0942 -0.1514 -1.4651
 8750TIP3    H226215   5.345   3.799   3.473  0.7751 -1.3828 -2.1391
 8751TIP3   OH226216   3.715   0.807   1.872 -0.2174  0.4845 -0.2633
 8751TIP3    H126217   3.714   0.711   1.871 -0.7498  0.4574  0.9461
 8751TIP3    H226218   3.772   0.832   1.800  1.4448 -0.7769  0.5547
 8752TIP3   OH226219   4.952   4.222   1.186  0.1620 -0.3353  0.0315
 8752TIP3    H126220   5.039   4.254   1.162 -0.1398 -0.0447 -0.7046
 8752TIP3    H226221   4.940   4.250   1.276  0.5549  0.2371 -0.0869
 8753TIP3   OH226222   6.655   5.513   3.065 -0.0234  0.0741 -0.3022
 8753TIP3    H126223   6.585   5.578   3.058 -2.2707 -2.2823 -1.3555
 8753TIP3    H226224   6.670   5.503   3.159 -0.2343  1.4732 -0.1037
 8754TIP3   OH226225   0.587   6.590   0.963  0.6300 -0.7513 -0.4392
 8754TIP3    H126226   0.597   6.495   0.959  1.4648 -0.6302 -2.0083
 8754TIP3    H226227   0.661   6.624   0.912  0.7960  0.7694  0.7587
 8755TIP3   OH226228   5.169   3.013   2.500 -0.1232 -0.1859  0.1730
 8755TIP3    H126229   5.244   2.954   2.509  0.1455  0.1797  0.3989
 8755TIP3    H226230   5.165   3.059   2.585  0.0141  0.5037 -0.1838
 8756TIP3   OH226231   2.232   1.511   2.241  0.0108 -0.0458 -0.0394
 8756TIP3    H126232   2.234   1.543   2.331 -1.1596 -1.4492  0.5355
 8756TIP3    H226233   2.297   1.441   2.239  1.3942  1.2010 -0.8439
 8757TIP3   OH226234   3.976   4.786   0.683 -0.7755  0.3431  0.6374
 8757TIP3    H126235   4.027   4.771   0.603 -0.8306 -0.4962  0.7479
 8757TIP3    H226236   4.026   4.742   0.752 -0.8881  0.7972  1.0097
 8758TIP3   OH226237   5.194   5.556   5.524  0.3332 -0.1952 -0.8426
 8758TIP3    H126238   5.142   5.512   5.457 -0.3288  0.4846 -0.7827
 8758TIP3    H226239   5.184   5.649   5.506 -0.0931  0.0160  0.3657
 8759TIP3   OH226240   2.825   0.167   5.201  0.3947 -0.3451  0.1457
 8759TIP3    H126241   2.861   0.168   5.289 -1.1459 -1.0670  0.8284
 8759TIP3    H226242   2.821   0.260   5.176  0.7661 -0.1291  0.8615
 8760TIP3   OH226243   1.744   1.444   2.658 -0.1183 -0.4898  0.0259
 8760TIP3    H126244   1.730   1.530   2.619  3.1212 -0.1114 -0.5811
 8760TIP3    H226245   1.712   1.452   2.747  0.4400  1.4692  0.0767
 8761TIP3   OH226246   3.272   3.079   5.069  0.2167 -0.4152  0.1393
 8761TIP3    H126247   3.180   3.054   5.060  0.5348 -2.0573  0.9874
 8761TIP3    H226248   3.311   3.055   4.985  0.1839 -1.3212  0.3695
 8762TIP3   OH226249   2.704   4.893   1.484  0.4293  0.2024 -0.4251
 8762TIP3    H126250   2.619   4.933   1.497 -0.1483 -1.4190  1.2090
 8762TIP3    H226251   2.755   4.920   1.561  0.9435  0.0794 -0.7211
 8763TIP3   OH226252   6.120   0.211   3.797  0.1842 -0.2605  0.2289
 8763TIP3    H126253   6.191   0.228   3.734  0.2145 -0.9758  0.0496
 8763TIP3    H226254   6.107   0.116   3.791 -0.7328 -0.1425  0.3280
 8764TIP3   OH226255   1.644   1.157   3.972 -0.3000  0.0232 -0.4151
 8764TIP3    H126256   1.731   1.190   3.949 -1.0721  1.8919 -0.8974
 8764TIP3    H226257   1.591   1.176   3.894 -2.2175  3.4392  1.4676
 8765TIP3   OH226258   4.042   0.324   2.492  0.1003 -0.0116  0.1582
 8765TIP3    H126259   4.062   0.278   2.574  1.0325 -0.2268 -0.1814
 8765TIP3    H226260   4.070   0.414   2.508  1.7303 -0.3882 -0.4361
 8766TIP3   OH226261   1.722   1.755   2.091 -0.3220  0.8957  0.5299
 8766TIP3    H126262   1.764   1.826   2.043 -1.4879  1.2356 -0.0108
 8766TIP3    H226263   1.689   1.696   2.023 -0.8862  0.7387  0.9303
 8767TIP3   OH226264   4.154   2.779   4.880 -0.2590  0.4677 -0.0873
 8767TIP3    H126265   4.149   2.866   4.918 -0.4752  0.7892 -0.8454
 8767TIP3    H226266   4.200   2.726   4.946 -1.5477  0.7628  1.0768
 8768TIP3   OH226267   0.022   2.167   2.134 -0.0600 -0.4133 -0.4208
 8768TIP3    H126268   0.035   2.092   2.192  0.6256  0.2292  0.2765
 8768TIP3    H226269   0.034   2.132   2.046  0.3530 -1.1015 -0.0953
 8769TIP3   OH226270   4.232   4.514   4.391 -0.0903  0.0509  0.0627
 8769TIP3    H126271   4.257   4.502   4.483  2.6450 -1.4716 -0.7443
 8769TIP3    H226272   4.254   4.430   4.350 -2.1323  0.3669 -1.8460
 8770TIP3   OH226273   2.779   1.571   5.356 -0.0786 -0.1458  0.4026
 8770TIP3    H126274   2.756   1.524   5.276  1.1812  0.2843 -0.2421
 8770TIP3    H226275   2.831   1.646   5.326 -0.8520  0.8678  1.5175
 8771TIP3   OH226276   2.362   2.281   4.609  0.2068 -0.5755 -0.1980
 8771TIP3    H126277   2.424   2.242   4.670 -3.0795 -0.7207  3.4310
 8771TIP3    H226278   2.383   2.375   4.611  2.4067 -0.9511 -1.8615
 8772TIP3   OH226279   3.084   4.990   5.321 -0.4305 -0.2485 -0.3648
 8772TIP3    H126280   3.071   5.037   5.239 -2.4912 -1.2895 -0.6864
 8772TIP3    H226281   3.064   4.899   5.301  2.5237 -1.2268  0.4725
 8773TIP3   OH226282   4.934   2.739   0.516  0.3413  0.4359 -0.0540
 8773TIP3    H126283   4.918   2.657   0.563 -0.9964  1.3816  1.2622
 8773TIP3    H226284   4.943   2.805   0.586  1.6056  1.3936 -1.0600
 8774TIP3   OH226285   3.370   5.069   3.790  0.6380 -0.0179 -0.1381
 8774TIP3    H126286   3.465   5.051   3.792  0.4389 -1.1419  0.2335
 8774TIP3    H226287   3.361   5.145   3.733  1.7961  0.2888  0.0633
 8775TIP3   OH226288   0.472   0.863   1.477 -0.0047 -0.3226 -0.3245
 8775TIP3    H126289   0.489   0.894   1.566  0.3950 -0.7687 -0.2368
 8775TIP3    H226290   0.535   0.911   1.423  0.2247 -0.5552 -0.2675
 8776TIP3   OH226291   6.321   5.545   5.663 -0.0178 -0.2219 -0.1443
 8776TIP3    H126292   6.261   5.522   5.592  1.1007 -1.3314 -0.7913
 8776TIP3    H226293   6.384   5.605   5.622  0.0416 -0.0612  0.1827
 8777TIP3   OH226294   4.965   3.739   5.184  0.0606  0.5387  0.8536
 8777TIP3    H126295   4.922   3.773   5.106  1.5676 -0.2153 -0.3663
 8777TIP3    H226296   4.934   3.794   5.255  0.8056  3.1087 -0.7005
 8778TIP3   OH226297   4.181   6.502   2.279 -0.3556 -0.0013 -0.1881
 8778TIP3    H126298   4.163   6.416   2.241 -0.8279  0.3312 -0.7458
 8778TIP3    H226299   4.276   6.505   2.289 -0.1894 -0.0494 -1.5053
 8779TIP3   OH226300   0.546   3.960   5.551  0.3515  0.7538 -0.4920
 8779TIP3    H126301   0.497   4.042   5.551  0.3461  0.7549 -0.9839
 8779TIP3    H226302   0.609   3.969   5.622 -0.9623  0.3809  0.7566
 8780TIP3   OH226303   1.451   5.810   4.868 -0.7558  0.3876 -0.2574
 8780TIP3    H126304   1.540   5.824   4.902 -0.8996 -0.8449  0.6635
 8780TIP3    H226305   1.400   5.883   4.903 -0.2046  0.8934 -0.4834
 8781TIP3   OH226306   5.566   5.351   0.248 -0.0869 -0.1380 -0.0266
 8781TIP3    H126307   5.581   5.443   0.227 -1.9259  0.0555 -0.6799
 8781TIP3    H226308   5.546   5.310   0.164 -0.1471 -0.9605  0.3769
 8782TIP3   OH226309   0.932   4.875   1.720 -0.2843  0.3204 -0.0136
 8782TIP3    H126310   0.996   4.804   1.720  0.3927  0.9170 -0.1135
 8782TIP3    H226311   0.907   4.884   1.628 -0.5831  0.0230  0.0386
 8783TIP3   OH226312   2.088   2.557   5.144 -0.7146  0.1271  0.0095
 8783TIP3    H126313   2.015   2.519   5.096 -1.5767  1.2858  0.3432
 8783TIP3    H226314   2.051   2.636   5.184  0.7522  0.7987  0.0931
 8784TIP3   OH226315   0.115   5.282  -0.002 -0.2317 -0.3918  0.6650
 8784TIP3    H126316   0.099   5.247   0.085 -1.5158 -0.0724  0.5764
 8784TIP3    H226317   0.037   5.259  -0.052  0.5482 -0.7017 -0.4545
 8785TIP3   OH226318   0.310   4.039   1.495  0.2084  0.2308 -0.5544
 8785TIP3    H126319   0.326   3.998   1.410 -0.2957 -1.0375 -0.0625
 8785TIP3    H226320   0.373   4.111   1.499 -0.3990  0.9114 -2.3848
 8786TIP3   OH226321   1.772   1.540   4.996  0.2222 -0.3640  0.0948
 8786TIP3    H126322   1.693   1.539   4.942  0.1455 -0.3973  0.2080
 8786TIP3    H226323   1.818   1.459   4.974 -0.1370 -0.7027  0.5649
 8787TIP3   OH226324   1.841   4.504   1.978  0.4963 -0.0809  0.0397
 8787TIP3    H126325   1.881   4.591   1.983 -0.4201  0.3517 -0.0234
 8787TIP3    H226326   1.810   4.487   2.067 -0.4423  0.2047 -0.2241
 8788TIP3   OH226327   1.375   4.996   3.913 -0.4906 -0.3742  0.4514
 8788TIP3    H126328   1.308   5.064   3.912  0.2033  0.3193 -0.6139
 8788TIP3    H226329   1.397   4.986   4.006  0.6977  2.2057  0.5381
 8789TIP3   OH226330   2.460   3.407   3.659  0.4992  0.1653  0.2009
 8789TIP3    H126331   2.471   3.502   3.654 -2.4806  0.5607 -1.0682
 8789TIP3    H226332   2.539   3.376   3.702  1.8402  3.1514  0.1400
 8790TIP3   OH226333   4.440   5.561   3.720  0.1900  0.0014 -0.3769
 8790TIP3    H126334   4.455   5.647   3.681  0.8039 -0.2755 -0.7635
 8790TIP3    H226335   4.521   5.543   3.769  0.4500 -0.7582 -1.0640
 8791TIP3   OH226336   0.813   0.794   3.907  0.0917  0.6031  0.2917
 8791TIP3    H126337   0.894   0.815   3.860 -0.1812  0.6161 -0.1774
 8791TIP3    H226338   0.800   0.701   3.892 -0.5837  0.8300 -0.5870
 8792TIP3   OH226339   0.717   3.875   5.035 -0.2475  0.4650  0.4942
 8792TIP3    H126340   0.623   3.863   5.017 -0.1740 -0.9859  0.9346
 8792TIP3    H226341   0.757   3.882   4.949 -0.6716  0.1788  0.2690
 8793TIP3   OH226342   4.686   1.850   5.593  0.1388  0.3075  0.1583
 8793TIP3    H126343   4.715   1.939   5.610 -1.0276  0.7055  0.1254
 8793TIP3    H226344   4.641   1.823   5.673 -0.4883  0.1628 -0.2306
 8794TIP3   OH226345   2.561   5.866   2.082  0.2437  0.1942 -0.2247
 8794TIP3    H126346   2.575   5.951   2.123 -0.8132 -0.1871  1.0137
 8794TIP3    H226347   2.467   5.851   2.090 -0.1444  0.3497 -3.4042
 8795TIP3   OH226348   2.827   1.073   5.735  0.0082 -0.0135 -0.3428
 8795TIP3    H126349   2.789   1.106   5.816  0.2198 -1.1551  0.2400
 8795TIP3    H226350   2.906   1.126   5.722  0.9598 -0.9769  1.1726
 8796TIP3   OH226351   1.251   0.230   1.581 -0.1821 -0.2642 -0.5392
 8796TIP3    H126352   1.290   0.206   1.665 -2.4333 -4.1789 -0.3257
 8796TIP3    H226353   1.314   0.199   1.515  0.4456  0.4915 -0.3070
 8797TIP3   OH226354   2.197   3.248   1.182 -0.5136  0.6264 -0.0561
 8797TIP3    H126355   2.162   3.191   1.251 -1.5383 -0.8114 -1.6986
 8797TIP3    H226356   2.269   3.294   1.224 -0.3244 -1.0892  1.6412
 8798TIP3   OH226357   6.722   5.184   2.997 -0.2125  0.0372 -0.2400
 8798TIP3    H126358   6.790   5.220   3.053 -1.3535 -0.8817  1.8502
 8798TIP3    H226359   6.696   5.257   2.940  0.5559  1.2084  0.8675
 8799TIP3   OH226360   2.749   4.740   1.194 -0.0149  0.2536  0.2227
 8799TIP3    H126361   2.698   4.802   1.141  0.9360  1.3473  0.5441
 8799TIP3    H226362   2.713   4.748   1.282  0.4502  0.7561  0.3736
 8800TIP3   OH226363   0.597   6.691   0.680 -0.1765 -0.5201  0.4754
 8800TIP3    H126364   0.588   6.688   0.585  0.4188 -1.1522  0.4312
 8800TIP3    H226365   0.648   6.771   0.696 -0.7122 -0.1363  0.3098
 8801TIP3   OH226366   4.356   6.630   4.630  0.1020  0.2429  0.2204
 8801TIP3    H126367   4.293   6.694   4.597  1.2426  0.4089 -1.8275
 8801TIP3    H226368   4.439   6.678   4.637  0.8192 -0.7936 -0.6893
 8802TIP3   OH226369   6.286   4.553   3.765  0.3966  0.3538  0.3718
 8802TIP3    H126370   6.342   4.624   3.733  1.3890 -0.6376 -0.1979
 8802TIP3    H226371   6.248   4.516   3.685 -2.1462  1.8103  0.8314
 8803TIP3   OH226372   1.470   2.509   4.660 -0.5205  0.1943  0.0021
 8803TIP3    H126373   1.527   2.451   4.710 -0.5176  1.2704  1.2896
 8803TIP3    H226374   1.401   2.535   4.721 -1.1547  0.6773 -0.8803
 8804TIP3   OH226375   6.629   2.607   4.161  0.3242  0.2125  0.1396
 8804TIP3    H126376   6.567   2.555   4.212  1.7193 -0.4099  1.2895
 8804TIP3    H226377   6.669   2.665   4.226  2.1562 -0.5939 -0.2091
 8805TIP3   OH226378   6.141   3.468   2.281  0.1148  0.5802 -0.3872
 8805TIP3    H126379   6.105   3.382   2.300 -0.2918  0.9214  0.4933
 8805TIP3    H226380   6.072   3.513   2.231  0.4838  0.2666 -1.1832
 8806TIP3   OH226381   4.485   3.414   4.433  0.7168 -0.8144  0.2357
 8806TIP3    H126382   4.437   3.351   4.379 -0.0304 -0.6692  0.7164
 8806TIP3    H226383   4.508   3.366   4.512  0.9151 -0.7378  0.2246
 8807TIP3   OH226384   6.261   1.125   3.554 -1.2499  0.0867 -0.1038
 8807TIP3    H126385   6.253   1.036   3.519 -0.3653  0.3782 -1.1191
 8807TIP3    H226386   6.355   1.136   3.571 -1.4197  0.6385  0.5500
 8808TIP3   OH226387   4.396   4.636   5.113 -0.5950 -0.1020 -0.0017
 8808TIP3    H126388   4.350   4.554   5.129 -1.0304 -0.1065 -1.1918
 8808TIP3    H226389   4.422   4.631   5.021 -0.3049  0.9376  0.0131
 8809TIP3   OH226390   0.361   2.965   0.047 -0.0246  0.1673  0.4467
 8809TIP3    H126391   0.427   2.998  -0.015 -0.5166 -0.6153 -0.5263
 8809TIP3    H226392   0.391   2.876   0.067 -0.7063 -0.1526  0.0834
 8810TIP3   OH226393   2.921   0.160   5.473  0.2048 -0.2880 -0.4453
 8810TIP3    H126394   2.927   0.238   5.528 -0.8925  0.2578 -1.0670
 8810TIP3    H226395   2.880   0.094   5.529  0.5875 -0.2398 -0.1053
 8811TIP3   OH226396   6.997   4.725   5.126  0.1761 -0.1681  0.1534
 8811TIP3    H126397   6.903   4.721   5.109  0.5092 -0.7921 -1.7879
 8811TIP3    H226398   7.030   4.789   5.063  0.7467  2.2202  2.6641
 8812TIP3   OH226399   2.989   6.033   2.887  0.1269  0.4351  0.3689
 8812TIP3    H126400   2.954   5.953   2.848 -0.3705  0.1541  1.3620
 8812TIP3    H226401   3.082   6.013   2.901 -0.4357 -0.8431  2.6875
 8813TIP3   OH226402   7.048   5.810   4.602 -0.0371 -0.1242 -0.2300
 8813TIP3    H126403   6.973   5.859   4.634  0.4126 -0.1665  0.9349
 8813TIP3    H226404   7.046   5.822   4.507 -1.1476  0.3862 -0.1560
 8814TIP3   OH226405   5.982   1.687   0.567  0.1065  0.5555  0.4603
 8814TIP3    H126406   5.922   1.723   0.502  0.0080 -0.3420  0.0283
 8814TIP3    H226407   6.068   1.693   0.526  0.0371 -0.0663  0.1996
 8815TIP3   OH226408   2.515   5.896   2.867 -0.0653 -0.2621 -0.0207
 8815TIP3    H126409   2.427   5.897   2.906  0.1302  0.7736  0.4333
 8815TIP3    H226410   2.499   5.917   2.774 -0.3326 -0.4908 -0.0291
 8816TIP3   OH226411   6.417   2.275   0.983  0.7505 -0.8183  0.2967
 8816TIP3    H126412   6.476   2.344   0.953 -0.4131 -0.4431 -1.2400
 8816TIP3    H226413   6.436   2.200   0.927 -0.1749 -0.7009 -0.2028
 8817TIP3   OH226414   4.549   5.903   0.892  0.0377 -0.0326  0.0632
 8817TIP3    H126415   4.460   5.930   0.869  0.9180  1.2839 -2.1253
 8817TIP3    H226416   4.595   5.985   0.910  0.6919 -0.7324  1.8121
 8818TIP3   OH226417   5.103   3.259   3.678 -0.0915  0.3674 -0.1770
 8818TIP3    H126418   5.089   3.349   3.709  1.3419  0.2693  0.8133
 8818TIP3    H226419   5.182   3.264   3.624  1.3009 -0.6350  1.6454
 8819TIP3   OH226420   3.349   0.264   0.144 -0.1902 -0.0172  0.1477
 8819TIP3    H126421   3.335   0.300   0.057 -1.6431 -2.7290 -0.8680
 8819TIP3    H226422   3.300   0.322   0.202 -1.5881  0.2686 -1.2445
 8820TIP3   OH226423   7.165   2.993   1.572  0.0656  0.3054 -0.3758
 8820TIP3    H126424   7.243   2.960   1.528 -0.3686 -0.9109 -0.2664
 8820TIP3    H226425   7.133   2.919   1.622 -0.6212  1.0777  0.3477
 8821TIP3   OH226426   0.334   6.024   5.594 -0.0941 -0.2044 -0.2367
 8821TIP3    H126427   0.295   5.955   5.541 -3.5910  1.8880 -0.6861
 8821TIP3    H226428   0.299   6.011   5.682  0.2094  0.2833 -0.0319
 8822TIP3   OH226429   4.535   2.584   3.533  0.0080 -0.3686 -0.2916
 8822TIP3    H126430   4.565   2.665   3.491 -0.5474  0.2419  0.4671
 8822TIP3    H226431   4.474   2.546   3.470 -0.9740  0.6456  0.0194
 8823TIP3   OH226432   6.301   0.201   5.617 -0.1147  0.1553 -0.2544
 8823TIP3    H126433   6.220   0.152   5.631 -0.3199 -0.3816 -2.8240
 8823TIP3    H226434   6.371   0.143   5.646 -0.4788 -0.9415 -1.4497
 8824TIP3   OH226435   3.294   3.273   4.323 -0.4727  0.1848  0.3855
 8824TIP3    H126436   3.319   3.321   4.401 -1.4218 -1.3402  1.6952
 8824TIP3    H226437   3.374   3.229   4.295  0.0517  1.3402  0.0241
 8825TIP3   OH226438   0.992   1.496   0.713  0.4329 -0.0631 -0.1681
 8825TIP3    H126439   0.919   1.558   0.721 -0.3205 -1.0067  0.5471
 8825TIP3    H226440   0.962   1.431   0.649 -0.8096 -2.3133  2.4803
 8826TIP3   OH226441   1.443   5.733   2.084 -0.2622  0.4554  0.2987
 8826TIP3    H126442   1.447   5.665   2.152  0.2020 -1.8015 -1.8292
 8826TIP3    H226443   1.532   5.737   2.049 -0.4464  1.7248 -0.0729
 8827TIP3   OH226444   1.138   0.200   4.855  0.0109  0.2200 -0.2098
 8827TIP3    H126445   1.088   0.190   4.774 -2.5158 -1.6393  1.4641
 8827TIP3    H226446   1.094   0.271   4.902 -0.1065 -0.3918  0.6121
 8828TIP3   OH226447   4.540   6.670   5.141  0.7423 -0.4204 -1.0329
 8828TIP3    H126448   4.605   6.673   5.071  0.7048 -0.8106 -1.0858
 8828TIP3    H226449   4.533   6.761   5.171 -0.6605  0.1179 -2.8143
 8829TIP3   OH226450   7.180   5.240   0.242  0.2759 -0.3301 -0.0981
 8829TIP3    H126451   7.116   5.193   0.295 -0.3662  1.0686  0.3912
 8829TIP3    H226452   7.252   5.259   0.302  0.3511 -0.3066 -0.1955
 8830TIP3   OH226453   5.131   4.553   2.065 -0.3642 -0.0705  0.3830
 8830TIP3    H126454   5.090   4.609   2.131 -0.7478  2.0344 -1.4931
 8830TIP3    H226455   5.058   4.522   2.011 -0.0177 -1.3716  0.6420
 8831TIP3   OH226456   5.656   3.590   1.994 -0.2506 -0.3900 -0.3687
 8831TIP3    H126457   5.641   3.545   1.911  1.6419 -1.2818 -0.2575
 8831TIP3    H226458   5.672   3.681   1.970 -0.1295 -0.5637 -0.9459
 8832TIP3   OH226459   0.312   2.993   0.369  0.0273 -0.1274  0.5260
 8832TIP3    H126460   0.231   2.955   0.334 -0.0669 -0.1374  0.7469
 8832TIP3    H226461   0.362   3.019   0.292 -0.3890  0.2979  0.3939
 8833TIP3   OH226462   1.931   6.077   5.250 -0.1704  0.2298 -0.0936
 8833TIP3    H126463   1.925   5.983   5.270 -0.0755  0.6890  2.4123
 8833TIP3    H226464   1.846   6.112   5.273 -0.7812  0.6028 -2.5714
 8834TIP3   OH226465   1.098   1.923   2.656  0.6238  0.0200 -0.0781
 8834TIP3    H126466   1.008   1.951   2.670  0.5574 -0.1612 -0.1490
 8834TIP3    H226467   1.111   1.931   2.561  0.9883  0.9873  0.0333
 8835TIP3   OH226468   2.199   1.566   1.037  0.2797  0.7272  0.2487
 8835TIP3    H126469   2.146   1.644   1.057  1.7789  2.3821 -1.8181
 8835TIP3    H226470   2.285   1.586   1.074  0.0333 -1.2087  2.0675
 8836TIP3   OH226471   2.478   1.553   0.297 -0.0764  0.3368  0.0450
 8836TIP3    H126472   2.539   1.616   0.335  4.1893 -2.1005 -2.0271
 8836TIP3    H226473   2.482   1.570   0.203  0.1260 -2.0703 -0.4302
 8837TIP3   OH226474   0.807   6.627   1.358 -0.3226  0.1412 -0.6825
 8837TIP3    H126475   0.814   6.559   1.291 -0.0600 -0.4078 -0.1104
 8837TIP3    H226476   0.853   6.702   1.322 -0.4121 -0.0643 -1.2241
 8838TIP3   OH226477   4.771   2.707   3.455 -0.5006 -0.0255  0.6375
 8838TIP3    H126478   4.764   2.769   3.528  3.3027  0.4430  0.8523
 8838TIP3    H226479   4.862   2.677   3.459 -0.7218 -1.5597 -2.7380
 8839TIP3   OH226480   5.186   2.523   2.945 -0.2753 -0.1816 -0.0261
 8839TIP3    H126481   5.150   2.589   2.884 -1.3481 -0.5838  0.1431
 8839TIP3    H226482   5.274   2.554   2.964 -0.3984  0.6721 -0.7432
 8840TIP3   OH226483   4.908   2.645   1.283  0.2127 -0.2518  0.0157
 8840TIP3    H126484   5.000   2.666   1.302 -0.3793  2.3832  0.3502
 8840TIP3    H226485   4.864   2.652   1.368 -0.3541 -1.3746 -0.1668
 8841TIP3   OH226486   0.016   0.400   0.072 -0.3037 -0.1338 -0.7541
 8841TIP3    H126487   0.111   0.404   0.058  0.0534  2.6392  1.4717
 8841TIP3    H226488   0.003   0.325   0.130  0.5068 -0.5337 -1.0755
 8842TIP3   OH226489   2.150   1.883   3.257 -0.0174  0.1012 -0.3013
 8842TIP3    H126490   2.241   1.869   3.283  0.2460  0.3642 -1.0663
 8842TIP3    H226491   2.131   1.811   3.196  0.1048  0.7959 -1.1746
 8843TIP3   OH226492   3.838   5.738   5.441 -0.1715  0.4487  0.4354
 8843TIP3    H126493   3.920   5.732   5.489 -0.7829  0.5601  1.5468
 8843TIP3    H226494   3.841   5.824   5.398  0.3578  0.3771  0.3278
 8844TIP3   OH226495   6.109   4.344   5.839  0.8324 -0.3707 -0.6687
 8844TIP3    H126496   6.131   4.380   5.753 -0.2832 -0.6202 -1.0859
 8844TIP3    H226497   6.060   4.264   5.819  1.3263 -0.9043  0.2141
 8845TIP3   OH226498   4.175   5.988   0.412  0.0436 -0.5615  0.1241
 8845TIP3    H126499   4.224   5.985   0.329 -0.9743 -0.5260 -0.4958
 8845TIP3    H226500   4.161   5.896   0.434 -0.1253 -0.5681 -0.0099
 8846TIP3   OH226501   1.638   3.496   1.970  0.4839  0.6958  0.2647
 8846TIP3    H126502   1.607   3.414   1.933  1.8287  0.1672  0.2640
 8846TIP3    H226503   1.637   3.557   1.896 -1.0765  0.8674  0.3942
 8847TIP3   OH226504   4.480   2.363   2.390 -0.7119  0.2706 -0.1519
 8847TIP3    H126505   4.393   2.401   2.380 -0.6963  0.6717  1.1050
 8847TIP3    H226506   4.473   2.306   2.467  0.3831  1.0633  0.5563
 8848TIP3   OH226507   0.860   0.481   2.501  0.2051 -0.6640 -0.0102
 8848TIP3    H126508   0.815   0.399   2.520  2.2519 -1.4651  1.8313
 8848TIP3    H226509   0.854   0.531   2.582  0.5342  0.2402 -0.5289
 8849TIP3   OH226510   1.373   5.063   1.798 -0.3330  0.1917 -0.2501
 8849TIP3    H126511   1.281   5.085   1.811 -0.1319  1.3647 -0.6608
 8849TIP3    H226512   1.420   5.115   1.864  0.0081 -0.6921  0.2099
 8850TIP3   OH226513   2.606   4.258   2.342  0.7413 -0.7847 -0.6362
 8850TIP3    H126514   2.656   4.277   2.421  2.0335  0.3550 -1.6825
 8850TIP3    H226515   2.615   4.163   2.330  0.6054 -0.9604  0.5056
 8851TIP3   OH226516   4.658   1.815   5.299 -0.0804  0.0498  0.5657
 8851TIP3    H126517   4.739   1.768   5.279  0.2319  0.8783 -0.1715
 8851TIP3    H226518   4.666   1.838   5.391  0.3076 -0.2875  0.6213
 8852TIP3   OH226519   0.377   0.409   2.709  0.6046  0.8837  0.3424
 8852TIP3    H126520   0.363   0.504   2.715  1.2743  1.5537 -4.3157
 8852TIP3    H226521   0.296   0.376   2.670  0.6311 -0.3824  1.3211
 8853TIP3   OH226522   6.796   0.730   5.478  0.4514  0.0201 -0.1010
 8853TIP3    H126523   6.809   0.664   5.409  1.6472  0.9997 -0.8482
 8853TIP3    H226524   6.814   0.683   5.559  0.7852 -0.7141 -0.5795
 8854TIP3   OH226525   3.754   3.682   5.829 -0.4337 -0.2013  0.2884
 8854TIP3    H126526   3.662   3.662   5.813  0.2837 -2.5738 -1.3837
 8854TIP3    H226527   3.802   3.617   5.778  2.2452  2.8785 -1.4298
 8855TIP3   OH226528   1.681   0.767   4.128 -0.3837  0.1626  0.7245
 8855TIP3    H126529   1.742   0.774   4.055 -1.9496  0.6856 -0.5693
 8855TIP3    H226530   1.617   0.701   4.100 -1.0539  0.4342  1.5709
 8856TIP3   OH226531   6.243   0.579   4.980  0.1536 -0.0839  0.2726
 8856TIP3    H126532   6.283   0.580   4.893  0.3472  2.7007  0.3190
 8856TIP3    H226533   6.193   0.497   4.982  1.0560 -0.7744 -2.0038
 8857TIP3   OH226534   2.836   5.542   4.071 -0.5708  1.0069  0.2803
 8857TIP3    H126535   2.898   5.531   3.999  0.3480  1.2114  1.0186
 8857TIP3    H226536   2.839   5.636   4.091  0.7632  0.6763  1.9110
 8858TIP3   OH226537   6.577   5.455   1.994  0.2488  0.6100  0.0826
 8858TIP3    H126538   6.641   5.385   1.980  2.0306  2.1052  0.2572
 8858TIP3    H226539   6.608   5.526   1.937  1.3185  2.9264  3.2630
 8859TIP3   OH226540   4.149   1.725   4.928 -0.2566 -0.5474  0.4510
 8859TIP3    H126541   4.116   1.757   5.012  1.1566  0.0743  0.8090
 8859TIP3    H226542   4.235   1.767   4.919  0.6228 -2.3926 -0.2181
 8860TIP3   OH226543   6.319   5.211   5.026  0.2102 -0.1745 -0.4523
 8860TIP3    H126544   6.364   5.137   5.067 -1.3270 -1.8864 -1.6918
 8860TIP3    H226545   6.370   5.229   4.947  0.0785 -0.5442 -0.6264
 8861TIP3   OH226546   5.024   1.873   1.139  0.2063 -0.2270 -0.5585
 8861TIP3    H126547   5.096   1.926   1.173  0.0299 -0.5150  0.2911
 8861TIP3    H226548   4.991   1.922   1.064  0.5964  0.4369 -0.3012
 8862TIP3   OH226549   3.351   3.245   5.271  0.0174  0.0414  0.1900
 8862TIP3    H126550   3.324   3.200   5.191 -1.8105  0.1346  0.7061
 8862TIP3    H226551   3.326   3.185   5.342 -0.8409  1.0671  0.7947
 8863TIP3   OH226552   6.036   0.893   2.162 -0.3501 -0.1259  0.5689
 8863TIP3    H126553   6.057   0.801   2.146 -0.8044  0.0523 -1.2826
 8863TIP3    H226554   5.971   0.914   2.094  1.7786  2.3002 -0.8647
 8864TIP3   OH226555   4.007   3.981   2.515 -0.0295  0.5167 -0.6686
 8864TIP3    H126556   4.069   3.988   2.443 -1.1482  1.2523 -1.6085
 8864TIP3    H226557   3.923   4.007   2.477 -1.1639 -1.5028  0.2474
 8865TIP3   OH226558   5.970   1.794   2.183  0.3836 -0.3599  0.2084
 8865TIP3    H126559   6.059   1.762   2.195  1.1183  1.1114 -0.8869
 8865TIP3    H226560   5.953   1.784   2.090 -0.6836 -0.7848  0.4331
 8866TIP3   OH226561   4.806   0.695   2.713  0.2265  0.3627 -0.1568
 8866TIP3    H126562   4.882   0.677   2.658 -0.0711 -0.3589 -0.3307
 8866TIP3    H226563   4.750   0.752   2.660  0.0712 -0.1042 -0.4942
 8867TIP3   OH226564   2.349   1.742   4.923 -0.0353  0.1339  0.1361
 8867TIP3    H126565   2.310   1.777   5.003 -1.2881 -0.1801 -0.3241
 8867TIP3    H226566   2.299   1.663   4.904  1.0313 -0.4608 -0.3101
 8868TIP3   OH226567   6.782   0.502   5.272  0.1617  0.6497 -0.3146
 8868TIP3    H126568   6.728   0.568   5.229  0.9955  0.9068 -1.0031
 8868TIP3    H226569   6.854   0.487   5.211  1.5830  1.2806  1.1231
 8869TIP3   OH226570   2.445   1.712   2.438 -0.0050 -0.0653 -0.3307
 8869TIP3    H126571   2.476   1.622   2.437 -0.8076 -0.3434 -0.6841
 8869TIP3    H226572   2.423   1.729   2.530  0.5274 -0.0889 -0.1946
 8870TIP3   OH226573   2.753   2.489   3.513  0.2746 -0.0830 -0.1008
 8870TIP3    H126574   2.661   2.462   3.507  0.4561 -0.5937 -0.7546
 8870TIP3    H226575   2.784   2.488   3.422  1.2843 -1.2108  0.2235
 8871TIP3   OH226576   7.227   0.080   4.543  0.2786  0.0527 -0.1292
 8871TIP3    H126577   7.145   0.034   4.561 -0.3160  1.3645  0.6189
 8871TIP3    H226578   7.202   0.153   4.487  1.2589 -0.6186 -1.5188
 8872TIP3   OH226579   0.017   6.066   1.115  0.1139  0.1554  0.2676
 8872TIP3    H126580   0.024   6.061   1.020  0.3668 -0.5341  0.3179
 8872TIP3    H226581   0.084   6.006   1.147 -1.0474 -0.8556  0.8604
 8873TIP3   OH226582   2.865   5.242   3.464 -0.7716  0.1774  0.1994
 8873TIP3    H126583   2.800   5.277   3.525 -0.1121  1.9791 -0.0899
 8873TIP3    H226584   2.948   5.248   3.512 -0.4373  0.3927 -0.4043
 8874TIP3   OH226585   0.454   3.249   3.808 -0.3330  0.0705  0.2655
 8874TIP3    H126586   0.524   3.314   3.816 -0.9462  0.6673  1.0355
 8874TIP3    H226587   0.422   3.238   3.898 -0.5491 -0.9586  0.0712
 8875TIP3   OH226588   6.241   1.954   4.736 -0.7384  0.2087 -0.2434
 8875TIP3    H126589   6.176   1.924   4.672 -1.0112  1.0291 -0.3618
 8875TIP3    H226590   6.189   1.978   4.813 -0.2524 -3.0708  1.2822
 8876TIP3   OH226591   4.708   6.313   0.636  0.3595  0.0658  0.0587
 8876TIP3    H126592   4.775   6.373   0.601 -0.5322  1.0771  0.0196
 8876TIP3    H226593   4.682   6.351   0.720  0.8980 -1.1489  0.8035
 8877TIP3   OH226594   5.923   4.861   1.539 -0.0628 -0.1272  0.3149
 8877TIP3    H126595   5.955   4.950   1.547 -0.0780 -0.0826 -0.0745
 8877TIP3    H226596   5.994   4.814   1.494 -0.8130  0.1383 -1.1985
 8878TIP3   OH226597   5.498   6.604   3.732  0.4150 -0.3730 -0.1534
 8878TIP3    H126598   5.512   6.691   3.695 -2.3322 -0.1461 -0.8427
 8878TIP3    H226599   5.543   6.544   3.672  1.2645  0.4417 -0.3519
 8879TIP3   OH226600   7.178   5.952   4.388 -0.2423  0.4622  0.7901
 8879TIP3    H126601   7.267   5.973   4.414 -0.4456 -0.1233  2.0084
 8879TIP3    H226602   7.134   6.037   4.384  0.2399  0.7096  0.6486
 8880TIP3   OH226603   0.370   3.170   0.570 -0.1323  0.1331  0.5508
 8880TIP3    H126604   0.444   3.128   0.614  0.9052  0.1230 -1.1201
 8880TIP3    H226605   0.351   3.114   0.495 -2.6859 -0.5416  1.5919
 8881TIP3   OH226606   0.555   5.171   5.501 -0.4169  0.1669  0.2562
 8881TIP3    H126607   0.545   5.101   5.565 -2.5375 -0.0985 -0.2822
 8881TIP3    H226608   0.544   5.128   5.417 -1.8547  1.1031 -0.0765
 8882TIP3   OH226609   3.383   4.850  -0.024 -0.5711 -0.6085  0.2228
 8882TIP3    H126610   3.298   4.870   0.015  0.0576 -0.0609  1.3377
 8882TIP3    H226611   3.436   4.817   0.049  0.4552 -0.0991 -0.2730
 8883TIP3   OH226612   5.251   1.845   3.445  0.5892 -0.1083 -0.3476
 8883TIP3    H126613   5.212   1.880   3.365  1.2692  0.2930 -0.5097
 8883TIP3    H226614   5.245   1.917   3.508 -1.4677 -0.9516  0.5049
 8884TIP3   OH226615   5.768   5.749   3.615 -0.1023 -0.5367  0.4916
 8884TIP3    H126616   5.794   5.707   3.533 -0.9808 -2.2456  1.0409
 8884TIP3    H226617   5.818   5.704   3.682 -1.2844 -0.9442  1.1296
 8885TIP3   OH226618   7.000   6.373   3.341 -0.3873 -0.4377  0.5684
 8885TIP3    H126619   7.036   6.386   3.253 -1.5655 -0.3194  0.0850
 8885TIP3    H226620   6.978   6.280   3.344 -0.1009 -0.4946  0.8282
 8886TIP3   OH226621   0.735   3.694   5.240  0.4105  0.5710  0.0916
 8886TIP3    H126622   0.789   3.737   5.306  0.2612  1.8389 -0.5859
 8886TIP3    H226623   0.701   3.765   5.186 -1.4055 -0.2324  0.0854
 8887TIP3   OH226624   1.757   4.483   4.403 -0.3340  0.0227  0.5323
 8887TIP3    H126625   1.709   4.421   4.457  0.6742 -0.7643  0.5549
 8887TIP3    H226626   1.845   4.445   4.395  0.3090  1.4357  0.5498
 8888TIP3   OH226627   6.423   5.654   4.029 -0.2705 -0.2099 -0.4194
 8888TIP3    H126628   6.505   5.690   4.062 -0.1632  1.2324 -2.0892
 8888TIP3    H226629   6.372   5.634   4.107  1.0874  0.2449  0.6256
 8889TIP3   OH226630   1.578   5.403   4.397  0.2082  0.1946  0.8055
 8889TIP3    H126631   1.553   5.489   4.432 -1.8043 -0.0484  0.0851
 8889TIP3    H226632   1.567   5.344   4.471 -1.1975  0.1429  0.5862
 8890TIP3   OH226633   6.866   3.066   1.834  0.4186 -0.0968  0.0510
 8890TIP3    H126634   6.834   3.077   1.744 -0.3016  0.3846  0.3590
 8890TIP3    H226635   6.960   3.078   1.827  0.1296  2.4144 -0.2777
 8891TIP3   OH226636   4.698   3.753   3.446 -0.3406  0.2688  0.3002
 8891TIP3    H126637   4.713   3.674   3.498  0.7401  0.3550  0.1522
 8891TIP3    H226638   4.773   3.757   3.386 -0.8229  0.9486 -0.2698
 8892TIP3   OH226639   4.847   4.893   4.830 -0.1477 -0.2660  0.2017
 8892TIP3    H126640   4.805   4.914   4.913  1.9088  0.8734  1.0223
 8892TIP3    H226641   4.846   4.976   4.781  0.5101 -0.3753 -0.0140
 8893TIP3   OH226642   1.953   2.931   1.692 -0.1642  0.2956 -0.0789
 8893TIP3    H126643   2.042   2.896   1.698 -0.4966 -0.8319 -1.3116
 8893TIP3    H226644   1.964   3.026   1.696  1.0181  0.1535  0.4463
 8894TIP3   OH226645   2.831   2.868   5.656  0.2789  0.1038 -0.2481
 8894TIP3    H126646   2.765   2.837   5.595 -0.3630  0.2373  0.3727
 8894TIP3    H226647   2.867   2.789   5.695 -1.4757  0.0717  1.4614
 8895TIP3   OH226648   0.123   4.895   0.971 -0.2064  0.2883  0.2777
 8895TIP3    H126649   0.090   4.954   0.903  0.8081  0.4609 -0.0836
 8895TIP3    H226650   0.044   4.857   1.010 -0.8236  0.5349 -0.6826
 8896TIP3   OH226651   4.516   6.128   4.720 -0.2154  0.0479  0.0937
 8896TIP3    H126652   4.508   6.077   4.639  0.1245  0.9302 -0.5123
 8896TIP3    H226653   4.526   6.219   4.690 -1.2544  0.5345  1.1492
 8897TIP3   OH226654   4.303   3.225   2.657  0.0779 -0.1507 -0.3427
 8897TIP3    H126655   4.217   3.190   2.633  0.5726 -0.9606 -0.9707
 8897TIP3    H226656   4.303   3.314   2.621 -0.5967 -0.0426 -0.0936
 8898TIP3   OH226657   3.836   4.626   5.456  0.3975  0.1085 -0.2891
 8898TIP3    H126658   3.803   4.553   5.403  0.9103  0.0540 -0.5398
 8898TIP3    H226659   3.825   4.597   5.546 -0.7929  0.3353 -0.3415
 8899TIP3   OH226660   3.073   6.421   2.129 -0.3823 -0.4357  0.7148
 8899TIP3    H126661   3.139   6.480   2.165  0.7212 -1.5257  0.5711
 8899TIP3    H226662   3.120   6.370   2.062 -1.3655 -1.2437  0.6060
 8900TIP3   OH226663   2.176   4.868   1.936  0.1818  0.1814 -0.5375
 8900TIP3    H126664   2.256   4.858   1.988  0.6740 -1.1600 -1.5086
 8900TIP3    H226665   2.182   4.957   1.901  0.7005  0.4856  0.2734
 8901TIP3   OH226666   2.371   0.087   1.200  0.0836  0.1627 -0.3172
 8901TIP3    H126667   2.379   0.180   1.219 -0.5613  0.3470 -0.9178
 8901TIP3    H226668   2.450   0.066   1.149  0.5591  0.2221  0.3779
 8902TIP3   OH226669   6.370   6.786   5.065  0.1685  0.4891  0.2157
 8902TIP3    H126670   6.343   6.750   4.980 -0.4910 -0.2583  0.7234
 8902TIP3    H226671   6.407   6.711   5.112  1.5880  1.1421  0.1755
 8903TIP3   OH226672   3.654   5.024   3.518  0.3988  0.2872 -0.1788
 8903TIP3    H126673   3.632   4.932   3.535 -1.5543  0.6934 -0.3270
 8903TIP3    H226674   3.683   5.024   3.427 -4.0981  0.4077 -1.8438
 8904TIP3   OH226675   4.929   3.122   5.608  1.0818  0.2886 -0.3132
 8904TIP3    H126676   4.979   3.201   5.588 -0.3886  1.1671 -0.7116
 8904TIP3    H226677   4.840   3.153   5.623  0.5261 -1.2714 -0.1382
 8905TIP3   OH226678   4.817   6.317   2.420 -0.4571  0.6024  0.3224
 8905TIP3    H126679   4.745   6.371   2.388 -0.2937  0.4504 -0.3388
 8905TIP3    H226680   4.824   6.246   2.355 -0.4300 -0.0032  0.9718
 8906TIP3   OH226681   6.095   1.798   3.268  0.3943 -0.7679  0.6631
 8906TIP3    H126682   6.061   1.812   3.356  0.0485 -0.6241  0.5105
 8906TIP3    H226683   6.050   1.719   3.237  0.3035 -0.6601  0.5147
 8907TIP3   OH226684   5.377   0.782   2.286  0.3651  0.9608 -0.0698
 8907TIP3    H126685   5.424   0.866   2.276 -1.7130  2.6175  2.6248
 8907TIP3    H226686   5.421   0.739   2.360  0.1570  0.6302 -0.1380
 8908TIP3   OH226687   5.624   3.709   5.537 -0.0174  0.1059 -0.1127
 8908TIP3    H126688   5.558   3.758   5.488 -1.7435 -2.7153 -0.8650
 8908TIP3    H226689   5.608   3.617   5.513  2.2314 -0.9745  2.0733
 8909TIP3   OH226690   1.416   5.276   5.775  0.2057 -0.1928  0.2734
 8909TIP3    H126691   1.439   5.224   5.852  0.9195 -1.2598 -0.6346
 8909TIP3    H226692   1.427   5.366   5.804  0.6651 -0.5743  1.3692
 8910TIP3   OH226693   2.624   0.408   3.007 -0.3078 -0.6953  0.3685
 8910TIP3    H126694   2.570   0.330   2.995  2.6118 -2.5809 -2.4240
 8910TIP3    H226695   2.682   0.386   3.080 -1.1124 -0.0128  1.2400
 8911TIP3   OH226696   1.349   0.114   3.905 -0.0100  0.6539  0.3120
 8911TIP3    H126697   1.379   0.025   3.922  0.3210  1.0406  1.8827
 8911TIP3    H226698   1.421   0.155   3.858 -0.7986 -0.3298 -1.9103
 8912TIP3   OH226699   0.643   5.978   3.665  0.2679  0.1043  0.3351
 8912TIP3    H126700   0.600   6.028   3.735 -1.6135 -0.1793 -0.5712
 8912TIP3    H226701   0.608   5.890   3.675  1.3517 -0.3578  0.1172
 8913TIP3   OH226702   3.983   4.630   1.677 -0.4294 -1.1149 -0.2478
 8913TIP3    H126703   3.990   4.551   1.731 -0.0045 -1.0952 -0.2661
 8913TIP3    H226704   3.918   4.684   1.721  0.8527 -0.5166  1.0106
 8914TIP3   OH226705   6.980   2.349   1.068 -0.4581 -0.5207  0.1477
 8914TIP3    H126706   7.015   2.354   1.157  0.8291 -0.0212 -0.3674
 8914TIP3    H226707   7.056   2.363   1.011 -1.2446 -0.8991 -1.0394
 8915TIP3   OH226708   1.687   5.038   1.280 -0.3029 -0.1455  0.4842
 8915TIP3    H126709   1.726   4.951   1.292  0.1048 -0.0922 -0.3806
 8915TIP3    H226710   1.740   5.079   1.212 -0.0878  1.0333  1.3161
 8916TIP3   OH226711   3.281   2.961   0.312 -0.2463 -0.3716 -0.1981
 8916TIP3    H126712   3.211   2.967   0.247 -1.2325 -1.9742  0.6488
 8916TIP3    H226713   3.322   2.876   0.295  1.4964  0.5183 -0.6425
 8917TIP3   OH226714   3.802   1.280   0.197  0.3366  1.1405  0.3595
 8917TIP3    H126715   3.799   1.223   0.274 -1.2392  2.3841  1.2777
 8917TIP3    H226716   3.722   1.258   0.148  1.5643  0.0084 -1.2403
 8918TIP3   OH226717   0.965   3.706   1.922 -0.1024  0.3417  0.0025
 8918TIP3    H126718   0.896   3.639   1.920 -0.7000  0.9527 -0.3620
 8918TIP3    H226719   1.045   3.658   1.903 -0.5147 -0.2845 -0.1976
 8919TIP3   OH226720   1.064   5.574   4.130 -0.3130  0.0061  0.2286
 8919TIP3    H126721   0.976   5.580   4.093 -0.2900 -1.6433 -0.1554
 8919TIP3    H226722   1.080   5.480   4.140 -0.1189  0.2596  3.9983
 8920TIP3   OH226723   7.091   2.947   3.473  0.2620  0.4097  0.0275
 8920TIP3    H126724   7.168   2.973   3.524 -1.1189 -0.0555  2.5322
 8920TIP3    H226725   7.118   2.868   3.426  1.6117  0.8760 -0.0062
 8921TIP3   OH226726   6.674   3.776   0.494  0.3334 -1.3397  0.0274
 8921TIP3    H126727   6.623   3.810   0.420 -1.4519  0.4753  1.9489
 8921TIP3    H226728   6.655   3.682   0.495 -0.2622 -1.2565 -1.3064
 8922TIP3   OH226729   4.796   4.558   2.735  0.1645  0.1016 -0.0119
 8922TIP3    H126730   4.706   4.576   2.764  0.2624  0.5135  0.0420
 8922TIP3    H226731   4.851   4.601   2.801  0.4090 -0.3766  0.1065
 8923TIP3   OH226732   0.685   4.137   0.822  0.2107 -0.0851 -0.0259
 8923TIP3    H126733   0.591   4.140   0.838  0.0455 -1.9513 -0.4184
 8923TIP3    H226734   0.692   4.126   0.727  0.7951 -0.6200  0.0778
 8924TIP3   OH226735   4.231   2.882   2.031  0.1583  0.3886 -0.2600
 8924TIP3    H126736   4.223   2.958   2.088 -0.1760  0.6415 -0.6379
 8924TIP3    H226737   4.174   2.901   1.957  1.0876  0.3599 -1.0054
 8925TIP3   OH226738   2.382   1.921   1.871  0.4948  0.4152 -0.0803
 8925TIP3    H126739   2.478   1.917   1.879  0.5815 -0.3800 -1.2431
 8925TIP3    H226740   2.353   1.833   1.895  0.3225 -0.2434 -2.5136
 8926TIP3   OH226741   5.812   4.511   5.587  0.0002 -0.0743 -0.0643
 8926TIP3    H126742   5.800   4.428   5.633  0.8825  0.0060  0.3303
 8926TIP3    H226743   5.723   4.540   5.567 -0.3347 -0.8809  0.2104
 8927TIP3   OH226744   0.826   1.094   2.268 -0.0715 -0.7294  0.1903
 8927TIP3    H126745   0.823   1.176   2.219 -1.0032 -0.4787  0.6593
 8927TIP3    H226746   0.753   1.043   2.234  0.6190 -1.4621 -0.2388
 8928TIP3   OH226747   3.487   4.803   3.649 -0.0342 -0.4449 -0.5767
 8928TIP3    H126748   3.407   4.833   3.605  1.0505  1.3153 -1.4714
 8928TIP3    H226749   3.461   4.793   3.741 -0.7230  2.8616 -0.2805
 8929TIP3   OH226750   1.909   6.429   1.491  0.3601 -0.1075 -0.0859
 8929TIP3    H126751   1.872   6.415   1.578  1.1283 -0.3664  0.2126
 8929TIP3    H226752   1.847   6.487   1.447 -0.1556 -0.1697  0.5508
 8930TIP3   OH226753   6.653   3.101   3.850 -0.0877  0.0716  0.4558
 8930TIP3    H126754   6.675   3.194   3.845  0.7957 -0.1646 -0.2877
 8930TIP3    H226755   6.606   3.083   3.768 -0.2477 -0.1416  0.5939
 8931TIP3   OH226756   3.863   4.262   2.712 -0.5995  0.5002  0.6617
 8931TIP3    H126757   3.930   4.196   2.694 -2.4512 -1.1622 -0.5468
 8931TIP3    H226758   3.909   4.346   2.704  1.0327 -0.5029 -1.8330
 8932TIP3   OH226759   0.524   2.238   0.696  0.4174  0.2032  0.0228
 8932TIP3    H126760   0.469   2.160   0.689  0.1442  0.5137 -1.9237
 8932TIP3    H226761   0.465   2.306   0.728  0.6330 -0.3203  1.6317
 8933TIP3   OH226762   1.464   2.663   3.531 -0.2884  0.2454 -0.0094
 8933TIP3    H126763   1.523   2.731   3.564 -1.0078  0.4318  0.9695
 8933TIP3    H226764   1.503   2.634   3.449  0.9377  0.6415  0.4166
 8934TIP3   OH226765   2.421   5.346   5.268  0.4085  0.2736 -0.1479
 8934TIP3    H126766   2.412   5.391   5.351 -0.9840  1.5114 -0.9161
 8934TIP3    H226767   2.464   5.263   5.289  0.8582  0.9368  1.6485
 8935TIP3   OH226768   4.940   0.359   2.494 -0.3820 -0.0779  0.0102
 8935TIP3    H126769   5.016   0.337   2.547  1.7723  0.0233 -2.8012
 8935TIP3    H226770   4.949   0.453   2.477 -0.5741 -0.2468 -1.1139
 8936TIP3   OH226771   0.430   2.260   3.747  0.1863  0.1613  0.1165
 8936TIP3    H126772   0.449   2.238   3.838  0.7597 -3.5548 -0.7635
 8936TIP3    H226773   0.511   2.298   3.714  1.0912 -1.5058  0.3459
 8937TIP3   OH226774   4.796   5.728   4.932  0.2295  0.1028  0.0339
 8937TIP3    H126775   4.787   5.823   4.940 -0.8628 -0.0075  0.3218
 8937TIP3    H226776   4.799   5.697   5.023 -0.4851 -0.2119 -0.0430
 8938TIP3   OH226777   6.954   5.148   1.703 -0.1680  0.6239  0.0469
 8938TIP3    H126778   6.925   5.140   1.793  0.0884  0.7896  0.1468
 8938TIP3    H226779   6.876   5.173   1.654 -0.5278 -0.4484  0.0586
 8939TIP3   OH226780   3.111   5.526   1.121  0.5055 -0.0478 -0.0213
 8939TIP3    H126781   3.094   5.465   1.049 -2.5583  1.1262 -0.4456
 8939TIP3    H226782   3.177   5.482   1.175  1.2882 -1.9446 -2.3341
 8940TIP3   OH226783   3.301   5.431   2.668 -0.2012 -0.0275  0.1907
 8940TIP3    H126784   3.229   5.395   2.719  0.2172 -0.6630  0.3481
 8940TIP3    H226785   3.280   5.523   2.657 -0.5636 -0.0043  1.0487
 8941TIP3   OH226786   5.713   5.566   3.310 -0.0336  0.0605 -0.7170
 8941TIP3    H126787   5.686   5.562   3.218  0.1782  0.7329 -0.8060
 8941TIP3    H226788   5.803   5.598   3.308  0.2095 -0.5824 -0.3127
 8942TIP3   OH226789   1.741   4.768   1.366  0.1880  0.4634 -0.3328
 8942TIP3    H126790   1.759   4.696   1.306  2.3569 -0.4820  1.3073
 8942TIP3    H226791   1.753   4.730   1.453 -2.8426  1.7680  0.8063
 8943TIP3   OH226792   5.193   6.471   3.510  0.5343  0.0564  0.0583
 8943TIP3    H126793   5.208   6.381   3.540  0.5806  0.4648  1.3198
 8943TIP3    H226794   5.164   6.461   3.419 -0.7729 -1.3269  0.5754
 8944TIP3   OH226795   6.714   0.897   1.757  0.5762  0.4300  0.2298
 8944TIP3    H126796   6.783   0.844   1.720 -1.7759 -2.9065  0.2091
 8944TIP3    H226797   6.668   0.934   1.682  1.2254  1.1887  0.1940
 8945TIP3   OH226798   4.253   1.101   5.250  0.1461  0.3499  0.2396
 8945TIP3    H126799   4.250   1.027   5.309  0.2552  0.8663  0.9026
 8945TIP3    H226800   4.320   1.159   5.287  0.5876  0.4454 -0.6687
 8946TIP3   OH226801   1.131   5.897   3.057 -0.1047 -0.2365  0.1315
 8946TIP3    H126802   1.087   5.864   3.135 -0.7312 -0.9199 -0.4984
 8946TIP3    H226803   1.150   5.819   3.005 -1.0171  0.3128 -1.0776
 8947TIP3   OH226804   4.854   1.621   5.643  0.3357  0.1279 -0.2400
 8947TIP3    H126805   4.823   1.546   5.592  0.5211  0.5659 -1.0135
 8947TIP3    H226806   4.785   1.687   5.633 -0.3400 -0.3065  1.3284
 8948TIP3   OH226807   3.324   1.423   3.905 -0.1767  0.1530 -0.1095
 8948TIP3    H126808   3.304   1.516   3.911 -1.1415 -0.0545  0.1389
 8948TIP3    H226809   3.296   1.398   3.817  1.0591  0.3019 -0.5662
 8949TIP3   OH226810   1.535   6.766   0.870  0.0888  0.0375  0.1187
 8949TIP3    H126811   1.524   6.856   0.899 -1.5980 -0.2550  0.4852
 8949TIP3    H226812   1.445   6.733   0.859  0.6694 -1.5264 -0.2098
 8950TIP3   OH226813   2.340   3.368   0.500 -0.0263  0.4048 -0.1004
 8950TIP3    H126814   2.323   3.437   0.564 -1.0492  0.5470 -0.5103
 8950TIP3    H226815   2.310   3.288   0.543  0.7135  0.2640  0.1830
 8951TIP3   OH226816   6.349   1.960   1.618  0.0929 -0.2692 -0.7582
 8951TIP3    H126817   6.293   2.034   1.597 -1.1358 -1.4277 -1.7420
 8951TIP3    H226818   6.291   1.896   1.660  1.5549  0.1067  2.0541
 8952TIP3   OH226819   4.342   3.629   0.075  0.1377  0.3392 -0.0931
 8952TIP3    H126820   4.248   3.637   0.060 -0.3163  0.5820  2.3375
 8952TIP3    H226821   4.378   3.713   0.046 -0.0842 -0.3510 -2.5785
 8953TIP3   OH226822   6.335   2.914   2.135 -0.3670 -0.3078  0.6824
 8953TIP3    H126823   6.354   2.880   2.048 -0.8602 -1.3718  0.9785
 8953TIP3    H226824   6.242   2.894   2.149 -0.2570 -0.2585  1.5088
 8954TIP3   OH226825   4.383   5.165   3.250  0.8599 -0.0832 -0.0768
 8954TIP3    H126826   4.328   5.243   3.236  2.2439  1.3092  1.6714
 8954TIP3    H226827   4.430   5.154   3.167  1.0505  1.3229 -0.1829
 8955TIP3   OH226828   2.573   2.041   0.999  0.0392 -0.0617 -0.3015
 8955TIP3    H126829   2.509   2.111   0.985 -0.2463  0.2430  2.1292
 8955TIP3    H226830   2.619   2.065   1.079  0.6196 -2.1585  0.0645
 8956TIP3   OH226831   3.429   4.019   4.613 -0.2153 -0.1163  0.6555
 8956TIP3    H126832   3.381   3.936   4.612 -0.2631 -0.1081  1.6535
 8956TIP3    H226833   3.451   4.035   4.521 -3.1031  0.4805 -0.0040
 8957TIP3   OH226834   2.642   0.616   3.460  0.1755  0.4688  0.2813
 8957TIP3    H126835   2.615   0.645   3.373  1.3354  2.5207  0.5510
 8957TIP3    H226836   2.737   0.625   3.460  0.3109 -0.6563  1.3935
 8958TIP3   OH226837   4.879   2.325   3.002 -0.4354 -0.2511  0.1982
 8958TIP3    H126838   4.797   2.292   3.039 -1.0121 -0.1414 -0.9475
 8958TIP3    H226839   4.860   2.416   2.979  0.1676 -0.0722  0.3790
 8959TIP3   OH226840   4.814   4.840   1.972 -0.2245 -0.2119  0.5791
 8959TIP3    H126841   4.864   4.814   2.049  0.2915 -1.2325 -0.0820
 8959TIP3    H226842   4.778   4.926   1.995 -0.0268 -0.4641  1.9206
 8960TIP3   OH226843   2.212   4.557   2.699 -0.0790  0.0434 -0.0089
 8960TIP3    H126844   2.162   4.583   2.621 -0.4868  2.1882  0.8884
 8960TIP3    H226845   2.149   4.511   2.754 -0.5291  0.9041  0.2099
 8961TIP3   OH226846   6.758   0.540   2.791  0.0357 -0.0279  0.2020
 8961TIP3    H126847   6.789   0.584   2.712  0.7962  1.5536  1.3455
 8961TIP3    H226848   6.760   0.607   2.859 -1.2784 -1.1628  1.4292
 8962TIP3   OH226849   2.572   2.833   0.443 -0.0943  0.2679  0.3920
 8962TIP3    H126850   2.534   2.895   0.504  0.5501  0.5467  0.5218
 8962TIP3    H226851   2.667   2.844   0.453  0.0267 -0.3475  0.0245
 8963TIP3   OH226852   2.849   1.852   0.193  0.6001 -0.4522 -0.1791
 8963TIP3    H126853   2.758   1.822   0.200  0.5972 -0.1338  1.7860
 8963TIP3    H226854   2.864   1.860   0.099 -0.7565 -2.4389 -0.6466
 8964TIP3   OH226855   0.210   4.737   0.439 -0.1432 -0.1507 -0.1717
 8964TIP3    H126856   0.176   4.740   0.529  0.1950 -2.3447  0.0861
 8964TIP3    H226857   0.155   4.673   0.395  1.5522 -1.3135 -0.6764
 8965TIP3   OH226858   4.303   6.748   5.625  0.4839  0.2443 -0.1153
 8965TIP3    H126859   4.372   6.814   5.624  2.2493 -1.3087 -4.2477
 8965TIP3    H226860   4.350   6.665   5.618 -1.7985 -1.1402  0.0588
 8966TIP3   OH226861   5.029   0.785   0.860 -0.0053 -0.2693  0.4573
 8966TIP3    H126862   4.980   0.867   0.868  2.0835  1.1122 -0.1889
 8966TIP3    H226863   5.116   0.806   0.893  0.8056 -2.0282 -0.4489
 8967TIP3   OH226864   3.007   0.766   4.285  0.4307  0.2729 -0.0288
 8967TIP3    H126865   3.092   0.724   4.295  0.4129 -0.0039 -0.8938
 8967TIP3    H226866   2.961   0.748   4.367 -0.5497 -3.7546 -1.2146
 8968TIP3   OH226867   5.001   6.109   5.555 -0.2780  0.1372  0.5142
 8968TIP3    H126868   5.023   6.185   5.609 -0.1992  0.7923 -0.3988
 8968TIP3    H226869   4.959   6.147   5.477  1.8568 -0.5107 -1.0531
 8969TIP3   OH226870   2.084   5.273   0.784 -0.0263  0.2591  0.2222
 8969TIP3    H126871   2.146   5.262   0.712 -0.4161  0.6186 -0.1773
 8969TIP3    H226872   2.071   5.368   0.789 -0.2686  0.2092  0.5403
 8970TIP3   OH226873   6.001   3.535   1.859  0.0459 -0.1643  0.3745
 8970TIP3    H126874   6.023   3.453   1.814  0.1077 -0.2089  0.4854
 8970TIP3    H226875   6.077   3.591   1.844 -0.6341  0.4415 -1.0375
 8971TIP3   OH226876   1.891   5.889   4.175 -0.4128  0.4770  0.0047
 8971TIP3    H126877   1.974   5.925   4.206  0.7125 -0.7045 -1.4576
 8971TIP3    H226878   1.867   5.825   4.241 -0.7798  1.6232  1.0127
 8972TIP3   OH226879   3.469   6.209   1.808 -0.6989  0.5117 -0.6108
 8972TIP3    H126880   3.417   6.139   1.768  0.8992 -1.3629  0.4305
 8972TIP3    H226881   3.550   6.211   1.756  0.5728 -0.6181  1.2189
 8973TIP3   OH226882   4.773   5.947   4.168  0.0660 -0.0679  0.3932
 8973TIP3    H126883   4.710   6.012   4.137  0.5675 -0.4758 -1.6732
 8973TIP3    H226884   4.723   5.893   4.229 -0.7422  1.3782  1.0576
 8974TIP3   OH226885   5.766   3.868   1.461 -0.3345 -0.3667 -0.0877
 8974TIP3    H126886   5.749   3.924   1.537 -2.5413 -2.0751  0.7596
 8974TIP3    H226887   5.728   3.916   1.387  1.4963  1.1269 -0.1683
 8975TIP3   OH226888   4.399   0.716   4.586 -0.1108  0.1810  0.4114
 8975TIP3    H126889   4.337   0.716   4.513 -1.4330  0.5177  1.4687
 8975TIP3    H226890   4.459   0.644   4.568  0.1448  0.8089 -1.4200
 8976TIP3   OH226891   1.987   2.569   1.873 -0.1460 -0.4917  0.1143
 8976TIP3    H126892   2.010   2.521   1.952 -0.0129  0.3163  0.5790
 8976TIP3    H226893   1.926   2.636   1.903  0.2261  0.0844 -0.3872
 8977TIP3   OH226894   0.479   4.197   2.132 -0.3385 -0.0002 -0.8247
 8977TIP3    H126895   0.421   4.182   2.057 -1.0756  0.8563 -0.4507
 8977TIP3    H226896   0.456   4.285   2.163  0.5193 -0.0189 -0.0936
 8978TIP3   OH226897   5.003   2.976   2.286  0.1153 -0.1321 -0.0709
 8978TIP3    H126898   4.936   3.043   2.301 -0.3664 -0.2684 -1.4137
 8978TIP3    H226899   5.058   2.978   2.364  0.8050  2.6088 -0.5330
 8979TIP3   OH226900   3.631   4.202  -0.007  0.1084 -0.5247  0.3060
 8979TIP3    H126901   3.669   4.202   0.080  1.7426 -2.0804 -0.3365
 8979TIP3    H226902   3.706   4.210  -0.066 -1.0478  2.0563 -1.0010
 8980TIP3   OH226903   0.327   0.798   0.473  0.2776 -0.4190  0.3370
 8980TIP3    H126904   0.409   0.760   0.444  0.3371  0.7211 -1.1003
 8980TIP3    H226905   0.331   0.890   0.445  0.2344  0.8139  3.8376
 8981TIP3   OH226906   1.788   2.063   5.353 -0.2471  0.5139  0.2156
 8981TIP3    H126907   1.734   1.994   5.391 -0.6980  0.6859 -0.1019
 8981TIP3    H226908   1.868   2.062   5.405  0.4108 -1.2816 -0.7372
 8982TIP3   OH226909   4.024   0.454   0.905  0.5050  0.2637  0.5974
 8982TIP3    H126910   3.991   0.536   0.942  2.9898  1.4703  0.3225
 8982TIP3    H226911   4.067   0.409   0.979 -5.4061 -3.7801  2.3649
 8983TIP3   OH226912   5.914   0.242   0.401 -0.9113  0.0915  0.1596
 8983TIP3    H126913   5.970   0.204   0.468 -0.2228  0.5078 -0.1703
 8983TIP3    H226914   5.855   0.171   0.376 -0.0502 -0.5764 -0.0099
 8984TIP3   OH226915   7.184   1.587   1.979  0.3678 -0.2255  0.4059
 8984TIP3    H126916   7.102   1.594   1.930  0.8121 -0.7748 -0.4561
 8984TIP3    H226917   7.157   1.580   2.070 -0.7233 -2.9104 -0.0258
 8985TIP3   OH226918   3.594   5.499   0.735 -0.1246  0.2937 -0.5779
 8985TIP3    H126919   3.644   5.513   0.654  0.4332  1.0625 -0.1135
 8985TIP3    H226920   3.597   5.404   0.749 -1.1826 -0.0054 -2.0456
 8986TIP3   OH226921   6.208   5.815   3.287 -0.7312 -0.2246  0.2099
 8986TIP3    H126922   6.214   5.894   3.341 -1.3683 -0.2445  0.3235
 8986TIP3    H226923   6.136   5.833   3.226 -1.1542 -0.8722  0.5068
 8987TIP3   OH226924   2.908   0.693   0.647  1.0109  0.3772 -0.3139
 8987TIP3    H126925   2.942   0.607   0.672 -0.1216 -0.5701 -1.8519
 8987TIP3    H226926   2.921   0.696   0.552 -1.1867  0.8569 -0.6403
 8988TIP3   OH226927   1.760   1.015   3.603 -0.2522 -0.3211  0.0721
 8988TIP3    H126928   1.829   0.988   3.664 -0.2346  0.8964  0.6283
 8988TIP3    H226929   1.747   1.108   3.622 -2.7125 -0.7076  0.6331
 8989TIP3   OH226930   3.263   1.608   5.659  0.4460  0.3365  0.6595
 8989TIP3    H126931   3.213   1.649   5.588  0.7043  1.2830  1.0144
 8989TIP3    H226932   3.353   1.606   5.627  0.6244  1.0940  1.0924
 8990TIP3   OH226933   3.056   0.276   2.045 -0.4446 -0.6314 -0.6148
 8990TIP3    H126934   3.112   0.318   1.980  1.0053 -1.5707 -0.0286
 8990TIP3    H226935   3.050   0.339   2.116 -0.8064 -0.2096 -1.0099
 8991TIP3   OH226936   4.070   6.700   3.070 -0.0744  0.2906  0.4690
 8991TIP3    H126937   4.056   6.751   2.990 -0.7187 -0.1301  0.3010
 8991TIP3    H226938   4.125   6.755   3.125 -0.5338  1.0427  0.1820
 8992TIP3   OH226939   1.211   1.985   2.408 -0.7036  0.4160  0.1296
 8992TIP3    H126940   1.276   1.915   2.397 -1.9004 -0.9637  1.4516
 8992TIP3    H226941   1.263   2.066   2.408  0.9797 -0.6125  0.8652
 8993TIP3   OH226942   7.003   0.266   1.929 -0.0430 -0.2331 -0.3929
 8993TIP3    H126943   7.026   0.308   2.012 -1.8615 -0.8898  0.4900
 8993TIP3    H226944   7.032   0.176   1.939 -0.4401 -0.3610 -0.3840
 8994TIP3   OH226945   3.933   5.994   2.693  0.3268 -0.6118  0.1390
 8994TIP3    H126946   3.933   6.058   2.763 -1.1378  0.6043 -0.9128
 8994TIP3    H226947   3.849   5.949   2.701 -0.5499  0.6104 -1.7291
 8995TIP3   OH226948   1.175   6.455   2.163  0.6451 -0.5110  0.7749
 8995TIP3    H126949   1.269   6.437   2.161  0.9611  0.4243 -3.7171
 8995TIP3    H226950   1.139   6.397   2.096 -2.0048 -0.6387  2.2056
 8996TIP3   OH226951   6.099   0.137   4.723  0.4368  0.9830 -1.1833
 8996TIP3    H126952   6.188   0.101   4.727  1.1328  2.6976  0.6179
 8996TIP3    H226953   6.045   0.070   4.766  1.2081  0.7732 -0.4949
 8997TIP3   OH226954   3.809   1.897   2.087  0.3477 -0.4448  0.3841
 8997TIP3    H126955   3.725   1.909   2.042  1.0182  4.6399 -0.1394
 8997TIP3    H226956   3.786   1.886   2.179 -1.0411  1.9139  0.4043
 8998TIP3   OH226957   2.598   2.170   4.752 -0.3009 -0.5640 -0.2642
 8998TIP3    H126958   2.626   2.100   4.811 -1.2431 -1.6542 -1.0688
 8998TIP3    H226959   2.616   2.136   4.665 -1.3733 -0.0636 -0.6910
 8999TIP3   OH226960   1.645   3.634   4.054 -0.2553  0.3672 -0.3807
 8999TIP3    H126961   1.738   3.609   4.057  0.0271  1.1570 -1.8155
 8999TIP3    H226962   1.636   3.699   4.124 -0.2663 -1.2555  1.2183
 9000TIP3   OH226963   4.176   5.305   1.809 -0.5513 -0.2607 -0.5529
 9000TIP3    H126964   4.140   5.277   1.725 -1.2108 -1.0001 -0.0328
 9000TIP3    H226965   4.169   5.401   1.807 -2.6060 -0.3830 -0.4434
 9001TIP3   OH226966   7.019   4.488   5.251  0.1449 -0.2044  0.0632
 9001TIP3    H126967   6.929   4.466   5.276 -0.0110 -1.5468 -1.5103
 9001TIP3    H226968   7.014   4.576   5.216 -0.4295 -0.0225  0.5824
 9002TIP3   OH226969   2.326   2.668   5.589 -0.1988  0.5354 -0.2805
 9002TIP3    H126970   2.404   2.645   5.539  0.5168 -0.8254  1.3761
 9002TIP3    H226971   2.262   2.600   5.567 -0.3801  0.7537 -0.4338
 9003TIP3   OH226972   0.929   0.594   1.196  0.3277 -0.1731 -0.0408
 9003TIP3    H126973   0.853   0.557   1.241 -0.0747  1.0554  0.3241
 9003TIP3    H226974   0.991   0.521   1.190 -0.8369 -1.1745 -0.2836
 9004TIP3   OH226975   3.971   4.402   2.448 -0.3467  0.4705  0.4050
 9004TIP3    H126976   4.057   4.434   2.418 -0.7573  0.6312 -0.6317
 9004TIP3    H226977   3.947   4.462   2.518  0.0170  0.9318  0.1455
 9005TIP3   OH226978   1.815   5.059   3.274 -0.6137  0.0287 -0.2577
 9005TIP3    H126979   1.796   5.132   3.215  2.6667  0.7687 -0.5891
 9005TIP3    H226980   1.815   4.982   3.218  0.7857  0.4967 -0.9474
 9006TIP3   OH226981   2.059   4.513   5.642 -0.0573  0.0783  0.1686
 9006TIP3    H126982   2.087   4.605   5.637 -0.4038  0.1241 -1.1314
 9006TIP3    H226983   1.992   4.513   5.711 -0.6895  0.9736 -0.4220
 9007TIP3   OH226984   6.068   3.637   4.573  0.3034 -0.3598 -0.4611
 9007TIP3    H126985   6.134   3.678   4.518 -0.1129  0.1291 -0.6050
 9007TIP3    H226986   6.031   3.567   4.517  0.2604 -0.2213 -0.6072
 9008TIP3   OH226987   1.979   2.875   0.628 -0.4513 -0.7296  0.0841
 9008TIP3    H126988   1.887   2.892   0.647 -0.5270  0.0223 -0.8923
 9008TIP3    H226989   1.979   2.792   0.581 -0.9403  0.5574 -2.3007
 9009TIP3   OH226990   3.626   5.556   5.419 -0.4590 -0.1822 -0.6782
 9009TIP3    H126991   3.690   5.619   5.451 -1.0937  0.4249 -0.5826
 9009TIP3    H226992   3.597   5.593   5.335  0.7762 -1.4684 -1.7176
 9010TIP3   OH226993   5.546   2.434   1.580 -0.4205  0.0063 -0.3756
 9010TIP3    H126994   5.618   2.438   1.643 -0.1580  0.4418 -0.6907
 9010TIP3    H226995   5.567   2.503   1.517  1.2628 -2.7208 -3.0333
 9011TIP3   OH226996   3.241   4.565   1.509 -0.4620 -0.3072 -0.8032
 9011TIP3    H126997   3.333   4.589   1.495 -0.3151  0.2814  0.9803
 9011TIP3    H226998   3.211   4.536   1.423  0.8401  1.3446 -1.8698
 9012TIP3   OH226999   5.636   5.611   0.189  0.2867  0.2833 -0.0819
 9012TIP3    H127000   5.706   5.633   0.251  1.8885 -0.5199 -1.5241
 9012TIP3    H227001   5.676   5.622   0.103 -0.9688 -1.4752 -0.9494
 9013TIP3   OH227002   3.120   5.753   0.776 -0.2736  0.5206 -0.0890
 9013TIP3    H127003   3.140   5.846   0.785 -0.5154  0.6212 -0.5412
 9013TIP3    H227004   3.202   5.709   0.797 -0.0541  0.8563 -0.2268
 9014TIP3   OH227005   3.620   3.400   4.392  0.2417 -0.4532  0.4116
 9014TIP3    H127006   3.715   3.412   4.398  0.2912  1.0808 -1.9071
 9014TIP3    H227007   3.584   3.483   4.424 -0.3078 -0.8488  0.8277
 9015TIP3   OH227008   3.162   5.843   5.505 -0.0682  0.5938 -0.6726
 9015TIP3    H127009   3.150   5.938   5.504  1.3662  0.8204  0.3277
 9015TIP3    H227010   3.219   5.825   5.431  1.0708  0.7602  0.1387
 9016TIP3   OH227011   4.671   0.619   2.959 -0.4193 -0.0830  0.2970
 9016TIP3    H127012   4.703   0.647   2.873  1.4364 -0.1975  0.8984
 9016TIP3    H227013   4.581   0.650   2.962  0.2029  2.0350 -0.7522
 9017TIP3   OH227014   0.478   2.748   0.409 -0.2100  0.1893 -0.6898
 9017TIP3    H127015   0.406   2.730   0.349 -0.2135 -1.5715 -0.1898
 9017TIP3    H227016   0.461   2.837   0.440 -1.5845  0.1916 -1.3636
 9018TIP3   OH227017   2.106   1.371   0.558 -0.0629  0.2425 -0.7290
 9018TIP3    H127018   2.068   1.304   0.615  0.0999 -0.2671 -1.2198
 9018TIP3    H227019   2.056   1.365   0.477  0.9181 -0.2989 -1.3123
 9019TIP3   OH227020   6.298   5.853   5.074  0.3367 -0.6776  0.4486
 9019TIP3    H127021   6.321   5.892   4.990  0.9322 -0.6135  0.6347
 9019TIP3    H227022   6.376   5.803   5.100 -0.7337 -2.7427 -0.1982
 9020TIP3   OH227023   4.173   5.707   4.901 -0.1186  0.4938  0.4558
 9020TIP3    H127024   4.228   5.777   4.937 -1.2686  1.3445  0.6071
 9020TIP3    H227025   4.212   5.689   4.815  0.9453  0.4196  0.9362
 9021TIP3   OH227026   0.415   2.707   2.028  1.0574 -0.1105  0.1202
 9021TIP3    H127027   0.421   2.802   2.018 -0.0502 -0.0048  0.3710
 9021TIP3    H227028   0.367   2.693   2.109  2.3655 -0.9155  0.7984
 9022TIP3   OH227029   2.942   1.906   0.847 -0.1346  0.1481  0.0005
 9022TIP3    H127030   3.029   1.943   0.830 -0.8763  2.4582  0.9362
 9022TIP3    H227031   2.960   1.816   0.874  2.0653  0.8721  1.1658
 9023TIP3   OH227032   2.689   5.261   2.042  0.0487  0.0848 -0.0073
 9023TIP3    H127033   2.685   5.328   2.111 -1.1507 -0.7045  0.7188
 9023TIP3    H227034   2.601   5.258   2.007  0.5382  0.1333 -1.2760
 9024TIP3   OH227035   4.922   1.867   3.159  0.2678  0.3519  0.1462
 9024TIP3    H127036   4.870   1.826   3.090 -0.1991  1.0965  0.0436
 9024TIP3    H227037   4.859   1.885   3.229  0.5507  0.4927  0.3689
 9025TIP3   OH227038   4.119   0.533   3.556  0.6010 -0.4816  0.3083
 9025TIP3    H127039   4.047   0.584   3.519  0.5002  0.0780  1.2372
 9025TIP3    H227040   4.156   0.486   3.481  1.0768  1.4102 -0.7256
 9026TIP3   OH227041   0.429   3.988   0.666  0.3346 -0.0112 -0.1255
 9026TIP3    H127042   0.388   4.052   0.608  1.2617  0.4769 -0.2474
 9026TIP3    H227043   0.360   3.923   0.682 -0.7846  1.2751  0.4357
 9027TIP3   OH227044   3.190   0.759   5.127  0.3940  0.0861  0.4218
 9027TIP3    H127045   3.192   0.668   5.099 -0.4764  0.3181 -0.4327
 9027TIP3    H227046   3.114   0.764   5.186 -0.3082  0.5011 -0.4847
 9028TIP3   OH227047   5.286   4.068   3.395  0.8532  0.2218  0.0468
 9028TIP3    H127048   5.212   4.125   3.415  1.5698  1.1528  0.1158
 9028TIP3    H227049   5.251   4.003   3.334 -0.3510 -0.1814  1.1079
 9029TIP3   OH227050   2.652   0.422   5.457  0.3887 -0.3636  0.1269
 9029TIP3    H127051   2.649   0.385   5.546  0.9315  0.3832  0.4645
 9029TIP3    H227052   2.739   0.460   5.450  0.2929 -0.2922 -0.6811
 9030TIP3   OH227053   5.692   1.738   4.543  0.1938  0.3648  0.3770
 9030TIP3    H127054   5.738   1.664   4.503 -1.3051  0.6744 -2.1328
 9030TIP3    H227055   5.599   1.720   4.526 -0.2191  2.8066 -0.3634
 9031TIP3   OH227056   2.588   1.193   4.613 -0.2489  0.2759 -0.0788
 9031TIP3    H127057   2.531   1.268   4.629  0.1164  0.9239 -1.6848
 9031TIP3    H227058   2.612   1.200   4.521  2.1496 -0.1646  0.4563
 9032TIP3   OH227059   3.537   5.562   3.112  0.2405  0.1109 -0.6340
 9032TIP3    H127060   3.467   5.513   3.070  0.7652 -0.8177 -0.4384
 9032TIP3    H227061   3.492   5.634   3.157 -0.7259 -1.2572  0.6407
 9033TIP3   OH227062   5.272   3.095   5.473  0.1985 -0.6939 -0.0839
 9033TIP3    H127063   5.232   3.042   5.542 -0.5596 -2.3610 -1.6720
 9033TIP3    H227064   5.210   3.088   5.400  1.6277 -0.1959 -1.3927
 9034TIP3   OH227065   5.282   6.571   0.025  0.7649 -0.0214  0.4860
 9034TIP3    H127066   5.293   6.666   0.031 -0.9547  0.3070 -0.5163
 9034TIP3    H227067   5.215   6.550   0.090 -0.4592 -0.1540 -0.7544
 9035TIP3   OH227068   6.769   2.669   3.616 -0.3263 -0.1732 -0.0453
 9035TIP3    H127069   6.696   2.664   3.554 -0.5954 -0.2528  0.2733
 9035TIP3    H227070   6.727   2.679   3.701  0.0603  0.7447  0.0456
 9036TIP3   OH227071   6.019   4.054   1.342  0.9984  0.0573  0.4284
 9036TIP3    H127072   5.986   3.991   1.406 -2.1278 -0.0231 -1.0737
 9036TIP3    H227073   6.029   4.002   1.262 -1.4708  1.3035 -0.7934
 9037TIP3   OH227074   1.911   0.312   2.176 -0.5080  0.2115 -0.1622
 9037TIP3    H127075   1.959   0.258   2.238 -2.0520 -0.8936  0.1357
 9037TIP3    H227076   1.835   0.342   2.225 -0.2951  1.6958 -0.6934
 9038TIP3   OH227077   5.469   4.772   5.823  0.7368 -0.5103  0.1091
 9038TIP3    H127078   5.432   4.813   5.901  0.1242 -1.9185  0.5890
 9038TIP3    H227079   5.561   4.799   5.823  0.4216  0.6308  0.5346
 9039TIP3   OH227080   4.700   3.551   2.049 -0.0508 -0.4786 -0.2627
 9039TIP3    H127081   4.668   3.615   2.111 -0.5403  0.0993 -1.0890
 9039TIP3    H227082   4.795   3.553   2.059 -0.1592 -1.0240  1.0589
 9040TIP3   OH227083   2.795   5.169   0.068  0.0626 -0.3988 -0.0708
 9040TIP3    H127084   2.824   5.153  -0.022 -1.5600  1.9450 -1.1330
 9040TIP3    H227085   2.710   5.125   0.075  0.0281 -0.2973  0.1795
 9041TIP3   OH227086   4.844   5.399   4.051 -0.4050 -0.4535  0.2314
 9041TIP3    H127087   4.871   5.375   3.963 -1.1208 -3.5814  0.7499
 9041TIP3    H227088   4.900   5.473   4.074 -0.1583  0.4079 -2.7619
 9042TIP3   OH227089   2.201   0.154   1.897 -0.3214  0.1671 -0.3490
 9042TIP3    H127090   2.216   0.091   1.826  1.1078 -0.1093  0.1541
 9042TIP3    H227091   2.247   0.233   1.868 -0.0209  0.1624  0.1049
 9043TIP3   OH227092   1.225   1.338   3.066 -0.2862  0.3029  0.5173
 9043TIP3    H127093   1.237   1.297   3.152  0.8499  1.4640  0.9369
 9043TIP3    H227094   1.255   1.272   3.004  2.1804  0.6621  1.2183
 9044TIP3   OH227095   1.648   0.136   3.077  0.5845  0.3837 -0.8710
 9044TIP3    H127096   1.628   0.059   3.025  0.1154  0.3997 -0.7219
 9044TIP3    H227097   1.737   0.122   3.109 -0.2717 -1.1607  1.0276
 9045TIP3   OH227098   2.480   6.607   4.249 -0.2973  0.6432  0.5815
 9045TIP3    H127099   2.400   6.562   4.276 -0.8691  1.8791  1.0299
 9045TIP3    H227100   2.515   6.644   4.330 -0.8499  2.5532 -0.0069
 9046TIP3   OH227101   0.956   2.666   4.140 -0.5267 -0.0591  0.2265
 9046TIP3    H127102   0.954   2.757   4.168  0.4294 -0.1444  0.6005
 9046TIP3    H227103   0.960   2.615   4.221 -0.2480 -0.3997  0.0068
 9047TIP3   OH227104   6.646   3.459   1.499  0.7045  0.5502  0.1399
 9047TIP3    H127105   6.728   3.426   1.460 -0.2988 -0.5923 -1.1289
 9047TIP3    H227106   6.600   3.500   1.426  0.6470  2.2927  1.1032
 9048TIP3   OH227107   4.850   2.147   4.988 -0.0888 -0.2074 -0.7192
 9048TIP3    H127108   4.859   2.192   4.904 -0.9192 -0.6799 -1.0701
 9048TIP3    H227109   4.758   2.160   5.012  0.4419  1.1381  0.8152
 9049TIP3   OH227110   1.629   4.625   5.444  0.3543  0.5883 -0.6629
 9049TIP3    H127111   1.624   4.715   5.411 -0.9722  0.6857 -0.2502
 9049TIP3    H227112   1.540   4.606   5.474  0.9159 -0.4233  0.4088
 9050TIP3   OH227113   2.160   3.560   4.340 -0.2142  0.2731 -0.3767
 9050TIP3    H127114   2.222   3.565   4.413 -0.3290 -1.3194 -0.1292
 9050TIP3    H227115   2.152   3.466   4.322 -1.7183  0.5156 -1.1267
 9051TIP3   OH227116   2.461   1.412   4.660  0.4448  0.0448  0.3723
 9051TIP3    H127117   2.409   1.478   4.613  1.1626  0.2059 -0.2066
 9051TIP3    H227118   2.399   1.372   4.721 -0.2069  0.6688  0.1316
 9052TIP3   OH227119   5.482   5.824   5.490 -0.1790  0.5856 -0.3012
 9052TIP3    H127120   5.501   5.772   5.412  1.1828  1.2597 -0.4429
 9052TIP3    H227121   5.404   5.875   5.467  0.3617  0.9677 -1.3187
 9053TIP3   OH227122   5.751   4.089   0.300 -0.2187  0.0523 -0.3614
 9053TIP3    H127123   5.747   4.003   0.342 -2.3831 -0.1002 -0.7410
 9053TIP3    H227124   5.829   4.085   0.245 -0.3034 -1.7128 -0.4221
 9054TIP3   OH227125   0.946   2.425   5.674  0.0866 -0.7519  0.6236
 9054TIP3    H127126   0.993   2.451   5.753  0.1088 -0.5745  0.5529
 9054TIP3    H227127   0.878   2.493   5.664 -0.1533 -0.9786  0.6994
 9055TIP3   OH227128   6.655   2.112   2.131  0.2027  0.3252  0.3304
 9055TIP3    H127129   6.702   2.085   2.052  2.5437  2.1212  1.0191
 9055TIP3    H227130   6.679   2.047   2.197 -0.8260 -0.4999 -0.0583
 9056TIP3   OH227131   1.536   0.952   1.928 -0.3234  0.7769  0.6450
 9056TIP3    H127132   1.490   0.886   1.980  0.8648  0.1568  0.9582
 9056TIP3    H227133   1.626   0.951   1.963  0.2384  1.0820 -0.7368
 9057TIP3   OH227134   0.606   6.123   3.894 -0.5624 -0.2866 -0.3155
 9057TIP3    H127135   0.557   6.158   3.969 -0.5323 -0.3628 -0.2592
 9057TIP3    H227136   0.686   6.086   3.933 -0.1665  0.3881 -0.4767
 9058TIP3   OH227137   4.533   4.911   2.251  0.3788  0.0941 -0.1351
 9058TIP3    H127138   4.466   4.925   2.318 -0.1944 -0.6215 -0.5353
 9058TIP3    H227139   4.520   4.983   2.189  0.9689  0.8048  0.5640
 9059TIP3   OH227140   5.193   3.876   5.633 -0.0860 -0.2557  0.0766
 9059TIP3    H127141   5.184   3.890   5.539  1.2540  0.1937 -0.0053
 9059TIP3    H227142   5.209   3.782   5.641  1.5503 -0.0402 -0.3251
 9060TIP3   OH227143   1.768   6.484   0.503  0.2807 -0.4355 -0.2699
 9060TIP3    H127144   1.862   6.500   0.513 -0.1094  0.6585  2.7616
 9060TIP3    H227145   1.730   6.509   0.587 -2.6512 -1.6980 -1.0704
 9061TIP3   OH227146   1.006   0.091   5.262  0.6534 -0.3724  0.5499
 9061TIP3    H127147   0.946   0.151   5.219  1.3504 -0.1720 -0.1686
 9061TIP3    H227148   0.951   0.018   5.290 -0.1062  0.3532  0.9585
 9062TIP3   OH227149   4.604   1.666   2.767 -0.7440  0.0609 -0.0180
 9062TIP3    H127150   4.508   1.665   2.763 -0.9148  0.3609  2.4487
 9062TIP3    H227151   4.632   1.663   2.675 -3.1216  1.2920 -0.8623
 9063TIP3   OH227152   5.714   2.893   1.015  0.7887  0.3607 -0.3187
 9063TIP3    H127153   5.693   2.816   0.962  0.4837  0.3979 -0.2521
 9063TIP3    H227154   5.646   2.895   1.082  0.4006  1.0788 -0.7288
 9064TIP3   OH227155   2.208   2.841   1.725  0.3336  0.3970 -0.1335
 9064TIP3    H127156   2.298   2.871   1.720  0.5764  0.4684  2.6983
 9064TIP3    H227157   2.214   2.746   1.734  0.0769  0.3212 -0.7404
 9065TIP3   OH227158   2.294   5.663   4.763 -0.1664  0.1945 -0.6347
 9065TIP3    H127159   2.214   5.612   4.771  0.2082 -0.5415 -1.3638
 9065TIP3    H227160   2.350   5.631   4.834 -1.1218  1.9397  0.9939
 9066TIP3   OH227161   2.223   6.210   4.789 -0.2907 -0.5770  0.0703
 9066TIP3    H127162   2.142   6.236   4.833 -0.1088 -2.6628  1.8057
 9066TIP3    H227163   2.230   6.116   4.805  2.5387 -0.4493  0.0802
 9067TIP3   OH227164   5.553   6.183   3.522 -0.2139  0.5043 -0.1192
 9067TIP3    H127165   5.618   6.141   3.579 -2.0671  0.4659  2.1430
 9067TIP3    H227166   5.577   6.156   3.434  1.4273 -1.4674  0.8400
 9068TIP3   OH227167   0.356   5.841   0.574  0.4233  0.0320 -0.0700
 9068TIP3    H127168   0.386   5.917   0.624  0.1570  0.1594 -0.1035
 9068TIP3    H227169   0.265   5.860   0.554  0.5170 -0.0440 -0.5615
 9069TIP3   OH227170   2.954   4.427   4.743  0.9426 -0.3369  0.1241
 9069TIP3    H127171   2.960   4.510   4.696  0.5761 -0.4246 -0.0802
 9069TIP3    H227172   2.895   4.373   4.691  1.0642 -0.6758  0.3316
 9070TIP3   OH227173   4.210   3.225   0.624  0.1181 -0.1909 -0.1004
 9070TIP3    H127174   4.123   3.262   0.604 -0.1523 -0.6797  0.1596
 9070TIP3    H227175   4.191   3.146   0.674  0.7132 -0.4019 -0.2064
 9071TIP3   OH227176   2.436   2.713   3.513 -0.5197  0.1407  0.1564
 9071TIP3    H127177   2.494   2.775   3.558 -1.0260  1.6627 -1.1550
 9071TIP3    H227178   2.476   2.702   3.427 -0.2591 -1.6935  0.4805
 9072TIP3   OH227179   0.696   0.195   0.037  0.1529  0.5510 -0.3525
 9072TIP3    H127180   0.621   0.138   0.019  0.3730  0.6016 -1.4953
 9072TIP3    H227181   0.656   0.281   0.054 -0.0120  0.9636 -2.5562
 9073TIP3   OH227182   2.612   3.103   0.594  0.3720 -0.1895  0.8349
 9073TIP3    H127183   2.687   3.071   0.643  0.5096  0.0636  0.7907
 9073TIP3    H227184   2.555   3.143   0.661 -0.1754 -1.2120  1.0063
 9074TIP3   OH227185   6.312   6.803   1.635 -0.1546 -0.0713  0.0585
 9074TIP3    H127186   6.323   6.709   1.627 -0.8891 -0.0813 -0.8669
 9074TIP3    H227187   6.265   6.830   1.557  0.1970  1.0968  0.2171
 9075TIP3   OH227188   2.496   0.755   4.907  0.2269  0.1337 -0.2826
 9075TIP3    H127189   2.481   0.845   4.879 -0.2769  0.1033 -0.1020
 9075TIP3    H227190   2.562   0.762   4.976 -0.8743  0.5009  0.7579
 9076TIP3   OH227191   7.078   0.875   1.558  0.1929 -0.1833  0.0698
 9076TIP3    H127192   7.144   0.812   1.527 -1.4560 -1.1623 -1.6674
 9076TIP3    H227193   7.088   0.950   1.499 -0.4802 -0.5100 -0.4800
 9077TIP3   OH227194   1.745   6.607   0.761 -0.1201  0.0698 -0.5187
 9077TIP3    H127195   1.811   6.666   0.797  1.0736 -1.2811 -0.3551
 9077TIP3    H227196   1.662   6.651   0.775  0.7998  2.2778 -1.5929
 9078TIP3   OH227197   3.465   6.277   2.332  0.1495  0.5487  0.0347
 9078TIP3    H127198   3.538   6.323   2.376  0.1426  1.1461 -0.5576
 9078TIP3    H227199   3.398   6.269   2.400  1.0658 -0.7576  0.8353
 9079TIP3   OH227200   5.905   0.704   2.829 -0.3896  0.2993 -0.4918
 9079TIP3    H127201   5.913   0.796   2.853 -0.2316  0.8657 -2.5324
 9079TIP3    H227202   5.995   0.671   2.826 -0.5039 -0.4251  1.8022
 9080TIP3   OH227203   1.474   6.644   1.869  0.9129  0.2840  0.0095
 9080TIP3    H127204   1.404   6.679   1.924  0.8468  0.6363 -0.2917
 9080TIP3    H227205   1.487   6.555   1.901  2.3602  1.1478  2.0514
 9081TIP3   OH227206   0.761   3.336   3.703  0.1909  0.0419 -0.0768
 9081TIP3    H127207   0.785   3.244   3.718 -2.8430 -1.0176 -0.9926
 9081TIP3    H227208   0.790   3.353   3.613 -0.6566 -0.5870 -0.4860
 9082TIP3   OH227209   2.504   1.922   2.257  0.2525 -0.3041 -0.3122
 9082TIP3    H127210   2.598   1.932   2.267  0.0558 -0.3236  1.9208
 9082TIP3    H227211   2.479   1.857   2.322 -1.4784  0.6066 -0.0003
 9083TIP3   OH227212   4.423   3.817   4.076  0.0940 -0.2362  0.4338
 9083TIP3    H127213   4.452   3.903   4.108  2.6513 -1.3150  1.2812
 9083TIP3    H227214   4.438   3.758   4.150 -0.9079 -1.5704 -0.3777
 9084TIP3   OH227215   3.565   4.830   0.191 -0.0274  0.3872 -0.6063
 9084TIP3    H127216   3.500   4.795   0.252  2.7540 -0.9576  1.8386
 9084TIP3    H227217   3.646   4.785   0.215  1.9724  2.4414 -3.0382
 9085TIP3   OH227218   1.283   2.116   1.123 -0.1099 -0.1169 -0.1869
 9085TIP3    H127219   1.239   2.194   1.157 -0.5447 -0.7652  0.7556
 9085TIP3    H227220   1.369   2.147   1.095 -0.5443  0.8402 -0.5098
 9086TIP3   OH227221   6.611   3.606   0.182 -0.4014  0.1156  0.5553
 9086TIP3    H127222   6.697   3.637   0.211 -0.3630  1.5085 -0.9124
 9086TIP3    H227223   6.571   3.568   0.261  1.1209  0.4220  1.5062
 9087TIP3   OH227224   1.301   2.028   5.863  0.0319 -0.3456  1.0409
 9087TIP3    H127225   1.305   2.023   5.768  1.4092  0.3389  1.0379
 9087TIP3    H227226   1.216   2.070   5.881  0.2141  0.4813  0.0670
 9088TIP3   OH227227   5.844   6.370   2.990 -0.2462  0.0419  0.4320
 9088TIP3    H127228   5.831   6.365   2.895  2.9877  0.8310 -0.1726
 9088TIP3    H227229   5.772   6.425   3.020 -1.0289  0.2788 -1.6633
 9089TIP3   OH227230   0.096   3.415   2.398  0.5952 -0.1875 -0.2631
 9089TIP3    H127231   0.123   3.461   2.477 -2.0226 -1.7509  1.6853
 9089TIP3    H227232   0.165   3.349   2.384  0.4468 -0.7682  1.5258
 9090TIP3   OH227233   3.490   0.218   1.332 -0.4309 -0.3335  0.1241
 9090TIP3    H127234   3.410   0.264   1.356  1.4644  1.9945  2.5035
 9090TIP3    H227235   3.530   0.194   1.415  1.3081 -1.5302 -0.9928
 9091TIP3   OH227236   0.148   3.987   5.657 -0.3664 -0.9528  0.3737
 9091TIP3    H127237   0.127   4.046   5.585  0.2852 -0.6814  0.3979
 9091TIP3    H227238   0.063   3.955   5.687 -0.7464  0.1481  0.5137
 9092TIP3   OH227239   4.799   5.875   1.421  0.5381 -0.5442 -0.8076
 9092TIP3    H127240   4.779   5.900   1.511 -0.0814 -0.1969 -1.0384
 9092TIP3    H227241   4.831   5.955   1.380 -2.4850  0.2464 -1.8523
 9093TIP3   OH227242   5.822   2.596   0.805 -0.6906  0.2896 -0.2876
 9093TIP3    H127243   5.777   2.548   0.735 -0.0218  1.2530 -1.4185
 9093TIP3    H227244   5.862   2.670   0.760  0.1789  0.6531  1.0562
 9094TIP3   OH227245   4.491   5.125   4.637 -0.4013  0.3319 -0.1826
 9094TIP3    H127246   4.444   5.042   4.628 -2.9037  1.7577 -1.3868
 9094TIP3    H227247   4.472   5.154   4.726 -0.9589  0.3770 -0.3104
 9095TIP3   OH227248   0.781   6.411   0.464 -0.2327  0.6088 -0.8019
 9095TIP3    H127249   0.812   6.381   0.378  1.3156 -2.4974  0.6801
 9095TIP3    H227250   0.709   6.471   0.444  0.1690  0.1445 -4.2466
 9096TIP3   OH227251   3.102   0.523   4.057 -0.3772  0.3870  0.0986
 9096TIP3    H127252   3.035   0.466   4.096  0.3058 -0.6021 -0.1476
 9096TIP3    H227253   3.154   0.554   4.132 -0.1539 -0.0932  0.1419
 9097TIP3   OH227254   4.323   5.636   5.404  0.4340 -0.7085  0.1086
 9097TIP3    H127255   4.318   5.679   5.489  2.0433  1.8140 -0.9502
 9097TIP3    H227256   4.401   5.581   5.409 -0.5027 -2.0189  0.8105
 9098TIP3   OH227257   5.595   6.713   2.699  0.5542 -0.0911  0.4097
 9098TIP3    H127258   5.499   6.715   2.699  0.4823 -0.8012  2.8152
 9098TIP3    H227259   5.621   6.784   2.758  1.5678  0.4636 -0.6497
 9099TIP3   OH227260   5.968   1.157   2.333 -0.2704 -0.2191 -0.1410
 9099TIP3    H127261   5.922   1.076   2.309 -2.1021  0.4470  0.9620
 9099TIP3    H227262   6.034   1.129   2.397  0.0337 -1.0174 -0.7894
 9100TIP3   OH227263   0.736   6.704   2.740 -0.2928  0.8304  0.3981
 9100TIP3    H127264   0.695   6.778   2.784  0.0658  1.1566  0.1994
 9100TIP3    H227265   0.828   6.732   2.728  0.1733 -0.1825  1.5134
 9101TIP3   OH227266   1.700   1.928   5.844  0.2672 -0.7503  0.3733
 9101TIP3    H127267   1.664   1.999   5.896 -0.6926 -0.2111 -0.9783
 9101TIP3    H227268   1.782   1.964   5.810  0.5498 -0.8571  0.9243
 9102TIP3   OH227269   1.994   6.091   2.920 -0.5067 -0.6534 -0.5964
 9102TIP3    H127270   1.905   6.091   2.886 -0.3605  0.6733 -1.0234
 9102TIP3    H227271   2.008   6.180   2.952  0.5832 -0.9171 -0.2914
 9103TIP3   OH227272   4.071   1.012   0.320 -0.3723 -0.3966 -0.1776
 9103TIP3    H127273   3.978   1.008   0.298 -0.3063  1.7032 -1.0845
 9103TIP3    H227274   4.077   1.078   0.389  0.6728  1.6043 -2.0487
 9104TIP3   OH227275   1.435   0.875   5.733 -0.1699  0.2954  0.0202
 9104TIP3    H127276   1.501   0.900   5.669 -1.4121  0.6208 -1.1799
 9104TIP3    H227277   1.484   0.859   5.814  1.3978  0.1316 -0.9383
 9105TIP3   OH227278  -0.017   0.976   3.623 -0.5529  0.1615 -0.3672
 9105TIP3    H127279   0.030   0.960   3.704  0.4808 -0.4484 -1.0626
 9105TIP3    H227280   0.032   1.047   3.580 -1.1134  0.5103 -0.4426
 9106TIP3   OH227281   0.867   3.085   3.729 -0.3679  0.2325  0.1892
 9106TIP3    H127282   0.777   3.063   3.705  0.2240 -1.1520 -0.9236
 9106TIP3    H227283   0.915   3.002   3.722  1.2064  1.1305 -0.2711
 9107TIP3   OH227284   1.267   2.231   2.925 -0.6457  0.2013 -0.2048
 9107TIP3    H127285   1.297   2.313   2.965  2.4256  1.0031 -3.6134
 9107TIP3    H227286   1.192   2.257   2.872  0.1437  0.8330 -1.0551
 9108TIP3   OH227287   1.789   4.536   2.242 -0.0275 -0.1294 -0.6541
 9108TIP3    H127288   1.773   4.627   2.265 -0.7878 -0.4758  0.3049
 9108TIP3    H227289   1.851   4.505   2.308  0.3320 -0.2610 -1.0565
 9109TIP3   OH227290   0.182   4.907   3.948  0.0925  0.1785 -0.1435
 9109TIP3    H127291   0.134   4.971   3.896  1.2602 -0.5710 -2.2819
 9109TIP3    H227292   0.270   4.908   3.911  0.2807 -2.2418  0.0769
 9110TIP3   OH227293   0.669   1.676   2.367 -0.1166  0.3319  0.2609
 9110TIP3    H127294   0.718   1.605   2.407 -1.9262 -0.5684  0.9971
 9110TIP3    H227295   0.644   1.732   2.441 -0.8188  0.3555  0.0149
 9111TIP3   OH227296   5.545   0.985   2.269  0.3796  0.1285 -0.2111
 9111TIP3    H127297   5.593   1.067   2.262  1.9780 -0.6843  0.6696
 9111TIP3    H227298   5.581   0.930   2.198 -0.0509 -0.1086 -0.2506
 9112TIP3   OH227299   2.363   3.786   1.163 -0.2276 -0.2381 -0.3392
 9112TIP3    H127300   2.273   3.755   1.168 -0.2887 -0.0558 -0.2907
 9112TIP3    H227301   2.416   3.711   1.190 -0.4084 -0.1191  0.3757
 9113TIP3   OH227302   1.845   6.168   1.376  0.3575  0.2379 -0.1714
 9113TIP3    H127303   1.885   6.090   1.415  1.5028  0.4206 -0.9116
 9113TIP3    H227304   1.897   6.241   1.411 -1.2961  0.7910  1.2703
 9114TIP3   OH227305   4.081   4.769   5.387 -0.1242 -0.8033  0.6273
 9114TIP3    H127306   4.005   4.712   5.372  0.3456 -0.7982 -2.2930
 9114TIP3    H227307   4.043   4.856   5.399 -0.6381 -0.8299 -0.6242
 9115TIP3   OH227308   3.788   6.433   4.806 -0.5533  0.8587  0.4225
 9115TIP3    H127309   3.833   6.445   4.889  0.9324  1.6496 -0.4489
 9115TIP3    H227310   3.856   6.445   4.740 -1.7375  0.4972 -0.9254
 9116TIP3   OH227311   5.279   2.045   3.859 -0.1349 -0.1310  0.1455
 9116TIP3    H127312   5.229   2.084   3.788 -0.6044 -0.9155  0.0349
 9116TIP3    H227313   5.234   2.074   3.939 -0.2098 -0.0703  0.0808
 9117TIP3   OH227314   0.738   2.559   1.552  0.0461 -0.0849 -0.2714
 9117TIP3    H127315   0.744   2.636   1.608  1.1793  0.0776 -0.5863
 9117TIP3    H227316   0.726   2.486   1.614 -0.3725  0.2737  0.0715
 9118TIP3   OH227317   4.544   2.580   4.542  0.4046  0.0512 -0.4186
 9118TIP3    H127318   4.527   2.532   4.624  0.6491 -0.6518 -0.7746
 9118TIP3    H227319   4.632   2.615   4.553  0.0644  0.8154  0.0220
 9119TIP3   OH227320   2.457   3.063   5.581 -0.7112  0.9841 -0.0986
 9119TIP3    H127321   2.383   3.036   5.635  0.3402  0.8890  1.3416
 9119TIP3    H227322   2.511   3.117   5.638 -0.3524  2.2219 -1.5400
 9120TIP3   OH227323   3.709   0.418   5.682 -0.1772 -0.1254 -0.1639
 9120TIP3    H127324   3.713   0.323   5.696  0.3539 -0.2153 -0.8810
 9120TIP3    H227325   3.629   0.431   5.632 -1.3431  0.0448  1.6810
 9121TIP3   OH227326   2.216   1.128   5.536 -0.3521  0.0162  0.1154
 9121TIP3    H127327   2.278   1.124   5.463  0.8872  0.8454  1.0923
 9121TIP3    H227328   2.190   1.220   5.541 -2.0922 -0.3824 -0.5790
 9122TIP3   OH227329   2.416   5.832   0.081 -0.0256  0.2293  0.1341
 9122TIP3    H127330   2.339   5.850   0.027 -0.3987 -0.1053  0.5395
 9122TIP3    H227331   2.412   5.737   0.096  0.2700  0.2662  0.4472
 9123TIP3   OH227332   6.546   5.848   5.629 -0.2708  0.2969 -0.2150
 9123TIP3    H127333   6.471   5.851   5.570 -1.4827  0.0162  1.2440
 9123TIP3    H227334   6.601   5.921   5.602 -1.3852  0.9152 -0.8950
 9124TIP3   OH227335   5.450   3.605   3.900 -0.1305  0.1196 -0.1958
 9124TIP3    H127336   5.545   3.601   3.898 -0.0982  0.1811  0.7926
 9124TIP3    H227337   5.426   3.569   3.985 -0.9831  0.2926 -0.3512
 9125TIP3   OH227338   3.500   1.639   4.883 -0.5969  0.0894 -0.1866
 9125TIP3    H127339   3.586   1.627   4.922 -1.3022  0.9478  1.7754
 9125TIP3    H227340   3.498   1.730   4.855 -0.5701 -0.1650 -1.0358
 9126TIP3   OH227341   2.188   4.866   3.807 -0.0527 -0.3355  0.0048
 9126TIP3    H127342   2.105   4.871   3.760  0.6654  0.7116 -1.1994
 9126TIP3    H227343   2.254   4.852   3.739  0.8040 -0.9093  0.9217
 9127TIP3   OH227344   6.315   3.198   4.444  0.2358 -0.3605 -0.2897
 9127TIP3    H127345   6.263   3.159   4.374 -0.3324  0.3114 -0.2599
 9127TIP3    H227346   6.276   3.163   4.525 -0.4139  0.4268 -0.2569
 9128TIP3   OH227347   3.513   1.730   5.286 -0.3701  0.8657 -0.2633
 9128TIP3    H127348   3.491   1.681   5.366  0.4094 -0.3701 -0.7740
 9128TIP3    H227349   3.506   1.666   5.216  1.8450  1.1492 -0.8161
 9129TIP3   OH227350   1.517   0.300   5.186 -0.9256 -0.3258 -0.4492
 9129TIP3    H127351   1.501   0.219   5.136 -1.4417 -0.2331 -0.4381
 9129TIP3    H227352   1.607   0.323   5.165 -1.0409 -0.4527 -1.1133
 9130TIP3   OH227353   1.051   5.137   2.766  0.9060 -0.1272 -0.3494
 9130TIP3    H127354   1.042   5.043   2.780 -0.2368  0.2576  2.0938
 9130TIP3    H227355   0.979   5.159   2.706 -0.1050 -0.5543  0.6661
 9131TIP3   OH227356   4.210   1.601   4.230  0.1302 -0.2474 -0.1884
 9131TIP3    H127357   4.285   1.547   4.254  0.0748 -0.5710 -0.7301
 9131TIP3    H227358   4.138   1.567   4.283 -0.2206 -1.5939 -1.4591
 9132TIP3   OH227359   4.396   3.539   2.335 -0.0706  0.1308  0.0311
 9132TIP3    H127360   4.356   3.467   2.287  1.7554 -0.4165 -0.7611
 9132TIP3    H227361   4.453   3.582   2.270  1.1718  0.4170  1.2617
 9133TIP3   OH227362   4.588   0.235   1.442 -0.3393  0.1332 -0.2146
 9133TIP3    H127363   4.586   0.152   1.491 -0.5058  1.3097  1.8916
 9133TIP3    H227364   4.664   0.281   1.477 -0.3112  0.9356 -1.2828
 9134TIP3   OH227365   4.188   6.103   5.679 -0.0019  0.3307  0.8304
 9134TIP3    H127366   4.140   6.186   5.670  0.7771  0.8651  1.4402
 9134TIP3    H227367   4.225   6.088   5.592 -0.3071  0.5220  0.6622
 9135TIP3   OH227368   5.734   2.092   2.225 -0.2210 -0.5512  0.3915
 9135TIP3    H127369   5.810   2.149   2.217 -0.3329 -0.2960  1.0671
 9135TIP3    H227370   5.750   2.043   2.306 -0.2807 -1.2417 -0.0088
 9136TIP3   OH227371   2.585   5.095   3.668  0.9080 -0.0754  0.0770
 9136TIP3    H127372   2.511   5.080   3.727  0.2482  0.5733 -0.5561
 9136TIP3    H227373   2.650   5.140   3.722  2.1625 -3.2922  1.4885
 9137TIP3   OH227374   1.972   1.547   2.179  0.2399  0.1128  0.2055
 9137TIP3    H127375   1.988   1.641   2.173 -0.1667  0.1619 -0.1576
 9137TIP3    H227376   2.058   1.509   2.197  0.3431  0.5875  0.7320
 9138TIP3   OH227377   6.901   1.473   1.639  0.2001 -0.2131  0.6001
 9138TIP3    H127378   6.953   1.487   1.719  1.2658 -0.4686 -0.0218
 9138TIP3    H227379   6.893   1.560   1.600 -1.3626  0.1227  1.5664
 9139TIP3   OH227380   5.777   0.301   2.132 -0.5978 -0.1577 -0.4560
 9139TIP3    H127381   5.816   0.220   2.099 -1.3136 -1.7857  2.3612
 9139TIP3    H227382   5.682   0.286   2.124 -0.7868  1.6819 -2.5739
 9140TIP3   OH227383   5.286   5.000   0.462  0.6682 -0.8075 -0.4367
 9140TIP3    H127384   5.327   4.914   0.462 -0.4650 -1.3776 -1.2874
 9140TIP3    H227385   5.215   4.993   0.526  0.2086 -0.7079 -0.9243
 9141TIP3   OH227386   5.357   2.801   1.119  0.4056  0.4742  0.5553
 9141TIP3    H127387   5.280   2.833   1.073  1.2907  0.2385 -1.1620
 9141TIP3    H227388   5.369   2.712   1.088  0.3732 -0.1402  2.1733
 9142TIP3   OH227389   5.487   6.287   0.292  0.3979 -0.2479  0.4414
 9142TIP3    H127390   5.564   6.271   0.346  0.9303  1.3242  0.1776
 9142TIP3    H227391   5.507   6.366   0.242 -1.0655 -0.2563 -0.2290
 9143TIP3   OH227392   5.269   2.332   2.498 -0.1274 -0.0533  0.0803
 9143TIP3    H127393   5.267   2.236   2.498 -0.3179 -0.0500 -0.1576
 9143TIP3    H227394   5.216   2.357   2.422 -1.3250  0.2745  1.0027
 9144TIP3   OH227395   5.876   6.435   1.176 -0.7050 -0.6960 -0.1159
 9144TIP3    H127396   5.783   6.417   1.165 -0.9356 -1.7643  2.6956
 9144TIP3    H227397   5.886   6.450   1.270  1.7244  1.0503 -0.5672
 9145TIP3   OH227398   0.458   2.192   3.302  1.0630  0.2942 -0.2504
 9145TIP3    H127399   0.543   2.218   3.339  1.2268 -1.3873  0.6757
 9145TIP3    H227400   0.433   2.115   3.352 -0.5389  0.1437 -1.2113
 9146TIP3   OH227401   2.257   3.279   3.992 -0.3095 -0.2036 -0.0050
 9146TIP3    H127402   2.245   3.287   3.898  0.2292  0.7505 -0.0111
 9146TIP3    H227403   2.302   3.360   4.017  0.9208 -1.1234  0.8378
 9147TIP3   OH227404   3.608   3.099   0.927 -0.8356  0.3119  0.4507
 9147TIP3    H127405   3.552   3.146   0.987  1.6039  2.5785  1.1513
 9147TIP3    H227406   3.626   3.015   0.970  0.0567  1.4822  2.4846
 9148TIP3   OH227407   2.680   2.987   3.929  0.2702  0.4244  0.0127
 9148TIP3    H127408   2.776   2.990   3.925  0.2810  1.2653  0.6649
 9148TIP3    H227409   2.660   2.921   3.994  0.3942  0.0369 -0.3354
 9149TIP3   OH227410   6.039   2.945   4.033 -0.4930 -0.4230  0.0983
 9149TIP3    H127411   5.949   2.979   4.038 -0.2650  0.0739  1.0053
 9149TIP3    H227412   6.032   2.853   4.057 -1.3041 -1.4879 -3.5457
 9150TIP3   OH227413   1.853   4.386   2.623  0.2381 -0.1267 -0.3817
 9150TIP3    H127414   1.870   4.314   2.562 -4.5962 -0.7728 -1.3603
 9150TIP3    H227415   1.833   4.343   2.706  0.7890  0.3552  0.0061
 9151TIP3   OH227416   5.559   1.072   1.204  0.5929  0.0533 -0.0234
 9151TIP3    H127417   5.471   1.048   1.233  0.1126 -1.8062 -2.6638
 9151TIP3    H227418   5.609   1.082   1.285 -1.6124 -0.5771  1.5040
 9152TIP3   OH227419   3.015   3.866   4.498  0.0220 -0.1388  0.4515
 9152TIP3    H127420   3.034   3.960   4.493  1.0960 -0.3896 -0.7559
 9152TIP3    H227421   2.935   3.855   4.446  0.3202  0.0240 -0.0590
 9153TIP3   OH227422   0.961   5.830   0.558  0.3952 -0.3050  0.1507
 9153TIP3    H127423   0.999   5.750   0.523  0.0063 -1.4280  2.1855
 9153TIP3    H227424   1.036   5.878   0.594  0.4397 -0.4220  0.2128
 9154TIP3   OH227425   6.988   1.562   3.604  0.3222 -0.2245 -0.0994
 9154TIP3    H127426   6.931   1.488   3.585 -1.4210  0.8946  0.5538
 9154TIP3    H227427   6.974   1.623   3.532 -0.0480  0.4689  0.5451
 9155TIP3   OH227428   5.442   3.846   4.715  0.6971 -0.1167  0.0450
 9155TIP3    H127429   5.397   3.899   4.781  2.1615  0.9151  0.2452
 9155TIP3    H227430   5.510   3.904   4.680  0.0961 -0.6984 -2.2421
 9156TIP3   OH227431   3.857   0.378   4.149 -0.4839  0.0814  0.5758
 9156TIP3    H127432   3.796   0.444   4.116 -0.7447 -1.1861 -1.6931
 9156TIP3    H227433   3.804   0.320   4.204 -1.0404 -0.2143 -0.2602
 9157TIP3   OH227434   1.775   3.091   5.401  0.4928  0.5544 -0.1999
 9157TIP3    H127435   1.799   3.099   5.309  0.3841 -0.8302 -0.3699
 9157TIP3    H227436   1.681   3.073   5.400  0.2963  1.4864  0.2434
 9158TIP3   OH227437   0.994   5.713   0.257  0.0046  0.2742 -0.1929
 9158TIP3    H127438   1.075   5.711   0.207 -0.3343  0.1488 -0.7448
 9158TIP3    H227439   1.014   5.663   0.337  0.3970  0.0345 -0.4370
 9159TIP3   OH227440   0.481   6.055   4.749  0.0410 -0.4497 -0.4108
 9159TIP3    H127441   0.572   6.046   4.777  0.3579 -0.0958 -1.2599
 9159TIP3    H227442   0.446   6.125   4.804  0.1323 -0.9161  0.2490
 9160TIP3   OH227443   2.280   6.011   2.969 -0.2423  0.2832 -0.2105
 9160TIP3    H127444   2.193   5.990   2.935 -0.2041  0.1369 -0.2197
 9160TIP3    H227445   2.287   6.106   2.960 -0.5083  0.3289  0.0529
 9161TIP3   OH227446   4.185   2.176   5.736 -0.1714 -0.3891 -0.3162
 9161TIP3    H127447   4.215   2.254   5.783 -1.1183  0.3816 -0.9323
 9161TIP3    H227448   4.259   2.116   5.739  0.7782  0.7317 -0.2515
 9162TIP3   OH227449   2.523   1.954   2.696 -0.0503  0.1574  0.1334
 9162TIP3    H127450   2.494   1.960   2.787 -1.4420 -0.1719 -0.2525
 9162TIP3    H227451   2.614   1.928   2.700 -0.1662 -0.0735  1.4286
 9163TIP3   OH227452   1.871   0.771   3.943 -0.1849  0.0727 -0.1296
 9163TIP3    H127453   1.884   0.798   3.852  1.9045 -0.0878  0.0733
 9163TIP3    H227454   1.922   0.833   3.994  0.4454 -1.1262  0.7486
 9164TIP3   OH227455   3.425   5.469   4.490  0.3850  0.5496  0.6495
 9164TIP3    H127456   3.417   5.522   4.410 -0.3584  1.7029  1.4576
 9164TIP3    H227457   3.452   5.382   4.459 -1.6643  0.4443 -1.0424
 9165TIP3   OH227458   6.408   3.444   2.988  0.0767  0.0042 -0.3142
 9165TIP3    H127459   6.393   3.403   2.903  0.8401  0.4705 -0.6902
 9165TIP3    H227460   6.330   3.424   3.039  0.0547 -1.1463 -0.7836
 9166TIP3   OH227461   6.445   4.013   3.193  0.9597 -0.7720 -0.0422
 9166TIP3    H127462   6.410   3.924   3.180 -0.8571 -0.5013  2.3478
 9166TIP3    H227463   6.463   4.044   3.104 -2.5946 -1.9589 -1.3904
 9167TIP3   OH227464   4.732   0.671   4.069 -0.8248 -0.3850 -0.3766
 9167TIP3    H127465   4.753   0.764   4.059 -1.4926 -0.2649 -0.7191
 9167TIP3    H227466   4.717   0.641   3.980  1.1186 -1.2565 -0.4580
 9168TIP3   OH227467   3.457   3.383   0.459  0.1250  0.3568 -0.1837
 9168TIP3    H127468   3.395   3.310   0.454  0.0851  0.4582 -1.4895
 9168TIP3    H227469   3.543   3.342   0.456  0.1244  0.3893 -2.6169
 9169TIP3   OH227470   2.239   3.110   1.916  0.2197  0.0557  0.0226
 9169TIP3    H127471   2.162   3.159   1.943 -0.0342 -0.5826  0.5096
 9169TIP3    H227472   2.268   3.152   1.835 -1.1080 -0.1810 -0.6081
 9170TIP3   OH227473   5.309   3.279  -0.028  0.0926 -0.3531  0.0503
 9170TIP3    H127474   5.290   3.357   0.025 -1.2160 -0.3383 -0.4024
 9170TIP3    H227475   5.286   3.205   0.028 -2.2479 -0.3288 -0.7483
 9171TIP3   OH227476   2.203   5.587   2.962  0.1396  0.0691 -0.4966
 9171TIP3    H127477   2.253   5.517   2.922 -1.1289 -2.3631  1.8287
 9171TIP3    H227478   2.268   5.640   3.008  0.9414 -0.8965 -0.4857
 9172TIP3   OH227479   1.373   1.783   0.900  0.2414  0.5632 -0.3334
 9172TIP3    H127480   1.328   1.699   0.895  4.6665 -2.2150  0.9734
 9172TIP3    H227481   1.361   1.822   0.813 -2.3244 -1.1069 -0.8421
 9173TIP3   OH227482   5.659   4.243   5.588 -0.6639 -0.1532 -0.4631
 9173TIP3    H127483   5.575   4.286   5.601 -0.8329 -1.0426  1.9307
 9173TIP3    H227484   5.692   4.227   5.677  1.6610 -0.5609 -1.3162
 9174TIP3   OH227485   0.888   0.577   4.200 -0.2475 -0.5896  0.3540
 9174TIP3    H127486   0.932   0.578   4.115  0.2657 -0.2956  0.6218
 9174TIP3    H227487   0.802   0.616   4.183  0.5771  1.3102  0.3555
 9175TIP3   OH227488   7.102   1.235   0.552 -0.3126  0.2023  0.0099
 9175TIP3    H127489   7.073   1.320   0.587  0.3692 -0.5111  2.4871
 9175TIP3    H227490   7.170   1.206   0.612  0.5594 -1.4305 -1.6668
 9176TIP3   OH227491   2.631   1.732   5.563 -0.5293 -0.3988 -0.1965
 9176TIP3    H127492   2.677   1.694   5.638 -0.6757  0.7701  0.5040
 9176TIP3    H227493   2.692   1.721   5.490  1.1261  1.5165  0.8003
 9177TIP3   OH227494   1.360   2.327   5.572  0.4731 -0.1985  0.3088
 9177TIP3    H127495   1.435   2.362   5.524  1.0445 -1.8422 -0.0766
 9177TIP3    H227496   1.290   2.391   5.558  1.5373  0.9133 -0.0746
 9178TIP3   OH227497   6.830   4.538   3.089  0.2828 -0.1993 -0.2774
 9178TIP3    H127498   6.810   4.480   3.162  0.1553  1.5954  1.1984
 9178TIP3    H227499   6.827   4.626   3.127 -0.0807  0.8333 -2.5177
 9179TIP3   OH227500   4.878   6.367   4.319 -0.1922 -0.2657 -0.0786
 9179TIP3    H127501   4.882   6.352   4.225  3.8087 -1.2063  0.0570
 9179TIP3    H227502   4.902   6.282   4.357 -0.4851  0.4288  1.7483
 9180TIP3   OH227503   4.230   4.691   2.091  0.1446 -0.1207  0.0442
 9180TIP3    H127504   4.198   4.781   2.095  0.4135 -0.0493  0.7112
 9180TIP3    H227505   4.226   4.668   1.998 -1.4622  0.0149  0.0476
 9181TIP3   OH227506   1.207   1.485   4.984 -0.1848 -0.0766  0.2932
 9181TIP3    H127507   1.244   1.545   5.049 -0.5219  1.9989 -1.3265
 9181TIP3    H227508   1.121   1.463   5.018 -0.1456  0.5491  0.8202
 9182TIP3   OH227509   7.096   4.901   0.328  0.4017 -0.7826 -0.1767
 9182TIP3    H127510   7.159   4.855   0.385 -0.4362 -1.6904  0.0488
 9182TIP3    H227511   7.019   4.914   0.383 -0.2215 -1.1773 -0.9382
 9183TIP3   OH227512   6.649   3.544   2.142 -0.7118 -0.4686  0.3066
 9183TIP3    H127513   6.565   3.562   2.100 -0.4737 -1.0179 -0.4358
 9183TIP3    H227514   6.628   3.533   2.235 -1.8429 -2.8297 -0.1388
 9184TIP3   OH227515   3.242   5.516   4.694 -0.0583 -0.0927 -0.4816
 9184TIP3    H127516   3.333   5.510   4.664 -0.5484  1.2891 -2.4031
 9184TIP3    H227517   3.189   5.507   4.615 -1.5422  0.6829  0.3815
 9185TIP3   OH227518   7.097   0.666   5.459 -0.4963  0.2938 -0.4883
 9185TIP3    H127519   7.075   0.579   5.491 -1.7122  1.1260  1.0919
 9185TIP3    H227520   7.179   0.688   5.503 -1.7320  1.0937  1.5609
 9186TIP3   OH227521   4.967   3.758   2.612 -0.8124 -0.2435  0.2441
 9186TIP3    H127522   4.892   3.817   2.620  0.1759  1.4404 -1.8961
 9186TIP3    H227523   4.943   3.699   2.540 -0.8417 -0.9590  0.8334
 9187TIP3   OH227524   5.012   3.502   3.824  0.0922 -0.6799  0.7579
 9187TIP3    H127525   5.030   3.507   3.917  0.4611 -0.7566  0.6935
 9187TIP3    H227526   4.916   3.499   3.817  0.0482 -0.1541  1.1059
 9188TIP3   OH227527   4.853   2.314   5.704 -0.2311 -0.7383  0.4031
 9188TIP3    H127528   4.905   2.261   5.765  0.2223 -0.8220 -0.0518
 9188TIP3    H227529   4.915   2.341   5.637 -0.7829 -0.8755 -0.1741
 9189TIP3   OH227530   6.055   1.527   0.233 -0.0440  0.5736 -0.6314
 9189TIP3    H127531   6.101   1.574   0.304 -2.8070  2.4458  0.0889
 9189TIP3    H227532   6.058   1.587   0.159 -3.6931  2.2740  0.3246
 9190TIP3   OH227533   3.907   5.663   3.743  0.4611  0.1446  0.2205
 9190TIP3    H127534   3.841   5.714   3.790 -1.0595 -0.3857 -1.2069
 9190TIP3    H227535   3.951   5.727   3.687  0.0519  0.2446  0.0098
 9191TIP3   OH227536   6.672   6.805   4.854 -0.0008 -0.5144 -0.5789
 9191TIP3    H127537   6.581   6.798   4.823 -0.7393 -1.2112  1.6036
 9191TIP3    H227538   6.694   6.717   4.884  1.9402 -0.7018 -2.3579
 9192TIP3   OH227539   4.961   2.633   5.378 -0.2001 -0.3546  0.5875
 9192TIP3    H127540   4.945   2.711   5.431  1.8327  0.6870 -0.2277
 9192TIP3    H227541   5.051   2.608   5.398  0.1305 -0.8003 -1.2196
 9193TIP3   OH227542   1.244   1.729   4.845 -0.0899  0.4888  0.8572
 9193TIP3    H127543   1.331   1.744   4.809 -0.2578  1.0775  0.6886
 9193TIP3    H227544   1.241   1.635   4.861  0.3819  0.3854  0.3669
 9194TIP3   OH227545   1.340   3.646   3.122 -0.2353 -0.3788 -0.2453
 9194TIP3    H127546   1.412   3.644   3.185 -0.9277  0.7068  0.6386
 9194TIP3    H227547   1.364   3.717   3.062 -1.2033  1.0067  0.9240
 9195TIP3   OH227548   6.564   2.165   5.172 -0.1580  0.3208 -0.0499
 9195TIP3    H127549   6.622   2.091   5.153  0.0247 -0.1004  1.8990
 9195TIP3    H227550   6.623   2.232   5.208 -0.3861  1.2862 -1.3904
 9196TIP3   OH227551   2.679   5.698   3.780 -0.6131 -0.1852  0.0126
 9196TIP3    H127552   2.675   5.617   3.729 -1.8203  0.3228 -0.7455
 9196TIP3    H227553   2.682   5.768   3.714  0.2087  0.4045  0.6554
 9197TIP3   OH227554   3.887   1.343   5.393 -0.0334  0.5717 -0.1082
 9197TIP3    H127555   3.923   1.409   5.453  2.0101 -0.6171  0.0577
 9197TIP3    H227556   3.959   1.325   5.332 -0.6525 -1.2758 -0.3384
 9198TIP3   OH227557   1.675   2.074   2.823  0.1238  0.5491  0.2349
 9198TIP3    H127558   1.603   2.025   2.861  0.2604 -1.8626 -2.2369
 9198TIP3    H227559   1.747   2.010   2.817  1.4212  1.9826 -0.2030
 9199TIP3   OH227560   5.511   6.096   4.316  0.0533  0.1358 -0.1140
 9199TIP3    H127561   5.570   6.156   4.361  0.1050  0.3418 -0.4520
 9199TIP3    H227562   5.456   6.152   4.262 -1.5238  0.0918  1.3727
 9200TIP3   OH227563   0.979   1.497   0.003  0.0952  0.4200 -0.6115
 9200TIP3    H127564   0.993   1.590  -0.015  0.1227  0.9385  1.8059
 9200TIP3    H227565   1.025   1.482   0.085  1.7098 -2.2117 -1.8748
 9201TIP3   OH227566   6.207   5.433   3.481 -0.8471  0.3775  0.1918
 9201TIP3    H127567   6.277   5.371   3.463 -1.9933 -0.7597 -0.5133
 9201TIP3    H227568   6.198   5.483   3.400 -1.5785 -0.2431 -0.1232
 9202TIP3   OH227569   2.893   6.560   1.000 -0.0026  0.8281  0.0060
 9202TIP3    H127570   2.956   6.507   0.951 -1.6416 -1.6466  0.4000
 9202TIP3    H227571   2.825   6.582   0.935  0.6986  2.5964 -0.1707
 9203TIP3   OH227572   6.288   1.202   5.620  0.1003 -0.2104 -0.2611
 9203TIP3    H127573   6.207   1.240   5.587 -0.1849 -1.3365 -0.8988
 9203TIP3    H227574   6.357   1.260   5.587 -0.4371  0.8959  0.4959
 9204TIP3   OH227575   5.135   0.868   5.711  0.5914 -0.3568 -0.4637
 9204TIP3    H127576   5.099   0.957   5.718  0.0123 -0.6320  0.2316
 9204TIP3    H227577   5.058   0.813   5.692  0.6627 -0.9168  0.7256
 9205TIP3   OH227578   1.861   6.285   3.074  0.0842 -0.2300 -0.9331
 9205TIP3    H127579   1.843   6.357   3.013  0.6195 -1.2879 -2.4050
 9205TIP3    H227580   1.787   6.225   3.063 -1.3285  0.8776  1.6424
 9206TIP3   OH227581   0.205   4.271   1.276 -0.1410  0.1620  0.1319
 9206TIP3    H127582   0.112   4.290   1.258 -0.2456  0.5152  1.0096
 9206TIP3    H227583   0.233   4.343   1.333  0.8872  0.4852 -0.7492
 9207TIP3   OH227584   5.209   3.590   5.094 -0.1280  0.7896  0.1163
 9207TIP3    H127585   5.142   3.650   5.126 -0.0747  0.6953  0.4075
 9207TIP3    H227586   5.285   3.607   5.150  0.0258  0.7587 -0.0840
 9208TIP3   OH227587   1.092   1.008   0.399  0.0870  0.2277 -0.4055
 9208TIP3    H127588   1.101   0.978   0.309  0.6633  1.0872 -0.6433
 9208TIP3    H227589   1.079   0.927   0.449  1.2732 -0.4137 -1.0713
 9209TIP3   OH227590   4.136   5.851   5.246  0.0233 -0.1998 -0.2452
 9209TIP3    H127591   4.201   5.836   5.315 -0.4059  1.7375  0.6377
 9209TIP3    H227592   4.188   5.874   5.169  0.4616 -1.1162 -0.2334
 9210TIP3   OH227593   4.140   0.950   3.145 -0.7352 -0.2250 -0.7428
 9210TIP3    H127594   4.101   1.020   3.092 -0.9307  1.4311  1.4491
 9210TIP3    H227595   4.214   0.920   3.093  0.5636  2.9895 -1.0201
 9211TIP3   OH227596   1.367   1.009   0.822  0.0467  0.4558  0.1101
 9211TIP3    H127597   1.360   0.973   0.734  0.6002 -0.2918  0.3647
 9211TIP3    H227598   1.459   1.033   0.831 -0.1136  1.0096  0.3023
 9212TIP3   OH227599   4.696   4.692   2.295  0.3970 -0.1331  0.3981
 9212TIP3    H127600   4.633   4.765   2.302  0.2550 -0.4201  3.1210
 9212TIP3    H227601   4.779   4.729   2.324  0.2744 -1.0682  2.0466
 9213TIP3   OH227602   6.560   3.495   5.053 -0.6404  0.2578 -0.9068
 9213TIP3    H127603   6.649   3.499   5.019 -0.3156  0.9014 -0.0225
 9213TIP3    H227604   6.517   3.573   5.018 -0.5553  0.4812 -0.5100
 9214TIP3   OH227605   0.569   0.722   2.151  0.0120 -0.1158 -0.0071
 9214TIP3    H127606   0.598   0.638   2.115 -0.6178 -0.3440  0.0138
 9214TIP3    H227607   0.536   0.771   2.075  0.5388  0.1922 -0.0487
 9215TIP3   OH227608   4.596   4.170   3.128  0.4671  0.0971  0.4662
 9215TIP3    H127609   4.617   4.077   3.130  0.2165  0.0358  0.3020
 9215TIP3    H227610   4.618   4.202   3.216 -3.8242 -1.0799  2.1919
 9216TIP3   OH227611   5.872   1.679   3.954 -0.1538  0.0877  0.3058
 9216TIP3    H127612   5.913   1.600   3.990  0.9372  0.7118  0.4854
 9216TIP3    H227613   5.939   1.747   3.963 -1.4403  1.3044  1.1523
 9217TIP3   OH227614   1.018   6.259   1.997  0.4429  0.0585  0.4910
 9217TIP3    H127615   1.011   6.211   2.079  0.1009  0.4954  0.7193
 9217TIP3    H227616   0.930   6.295   1.982  0.8063  0.9870  0.5507
 9218TIP3   OH227617   0.109   3.897   0.847  0.3337 -0.8663  0.1681
 9218TIP3    H127618   0.040   3.859   0.793 -0.6798 -0.4594  1.1425
 9218TIP3    H227619   0.064   3.929   0.926  1.8786 -2.3653  1.7630
 9219TIP3   OH227620   6.465   5.257   0.593 -0.2023  0.3723 -0.1397
 9219TIP3    H127621   6.471   5.192   0.662 -1.1802  0.3815 -0.0280
 9219TIP3    H227622   6.371   5.266   0.577 -0.1044  1.9139  0.0113
 9220TIP3   OH227623   4.428   4.213   1.602 -0.0743 -0.1055 -0.3503
 9220TIP3    H127624   4.392   4.127   1.625 -0.5890  0.0255 -0.6569
 9220TIP3    H227625   4.496   4.228   1.667 -1.2010  0.0635  0.8210
 9221TIP3   OH227626   6.999   5.923   3.869 -0.4112  0.1160 -0.0629
 9221TIP3    H127627   7.000   5.827   3.868  0.7969  0.1202 -0.6184
 9221TIP3    H227628   7.068   5.949   3.807 -1.2397  1.3530 -0.5024
 9222TIP3   OH227629   0.866   4.731   0.187  0.0787  0.2486 -0.5799
 9222TIP3    H127630   0.809   4.733   0.264 -1.3268  0.3513 -1.5912
 9222TIP3    H227631   0.906   4.818   0.185  0.4518  0.1109  0.2431
 9223TIP3   OH227632   0.539   0.183   4.512  0.0990  0.3334  0.3354
 9223TIP3    H127633   0.514   0.223   4.428  1.2203 -0.3424 -0.3595
 9223TIP3    H227634   0.458   0.183   4.563 -0.1560  2.6654  0.0647
 9224TIP3   OH227635   0.659   3.685   4.170 -0.1990  0.4507  0.1774
 9224TIP3    H127636   0.637   3.759   4.113 -0.9139 -0.5150 -0.8411
 9224TIP3    H227637   0.578   3.668   4.218 -0.3889 -0.3786 -0.4233
 9225TIP3   OH227638   3.938   0.323   1.628  0.2827 -0.2524  0.3846
 9225TIP3    H127639   3.942   0.396   1.690  0.9884  1.0385 -1.1074
 9225TIP3    H227640   3.923   0.246   1.682 -0.2810  0.9699  2.0344
 9226TIP3   OH227641   5.218   6.363   4.497  0.3361  0.4688 -0.4836
 9226TIP3    H127642   5.219   6.350   4.592  2.1175 -0.7297 -0.6235
 9226TIP3    H227643   5.310   6.371   4.472 -0.0199 -0.3747 -2.2535
 9227TIP3   OH227644   4.693   4.287   5.775 -0.1593 -0.1422  0.0221
 9227TIP3    H127645   4.655   4.366   5.814  0.2996  0.5023 -0.8113
 9227TIP3    H227646   4.740   4.318   5.698 -2.2406 -1.5687 -1.9305
 9228TIP3   OH227647   2.659   6.122   4.599  0.5756 -0.1719 -0.0539
 9228TIP3    H127648   2.635   6.041   4.554  1.4466  0.4121 -1.6472
 9228TIP3    H227649   2.592   6.185   4.572 -0.0505 -0.3082  1.1134
 9229TIP3   OH227650   4.398   3.175   5.446 -0.1849 -0.7864  0.1697
 9229TIP3    H127651   4.413   3.142   5.535 -0.8589 -0.7867  0.2875
 9229TIP3    H227652   4.382   3.096   5.393  2.4603 -1.0137 -0.4541
 9230TIP3   OH227653   0.447   3.917   5.033 -0.3713  0.5482  0.1354
 9230TIP3    H127654   0.400   3.856   4.976 -0.0180  0.1064  0.3026
 9230TIP3    H227655   0.425   3.889   5.122  0.0276  0.4730  0.2141
 9231TIP3   OH227656   6.691   6.649   2.187 -0.4860 -0.1202  0.3164
 9231TIP3    H127657   6.616   6.660   2.128 -0.8965 -1.5628  0.5237
 9231TIP3    H227658   6.763   6.694   2.143 -1.5393  1.6704  0.3072
 9232TIP3   OH227659   2.657   2.711   2.124 -0.2926  0.2455 -0.3748
 9232TIP3    H127660   2.604   2.776   2.170  1.3708  1.5017 -0.1378
 9232TIP3    H227661   2.688   2.653   2.193  0.8042  1.1201 -0.0968
 9233TIP3   OH227662   5.568   0.437   5.077  0.2203 -0.1628 -0.1213
 9233TIP3    H127663   5.475   0.415   5.083  0.3131 -0.7660 -0.8126
 9233TIP3    H227664   5.570   0.533   5.079 -0.4790 -0.1226 -0.9947
 9234TIP3   OH227665   2.068   4.070   0.902  0.1806  0.1355 -0.6490
 9234TIP3    H127666   2.058   4.115   0.986 -1.5741 -1.5771  0.1275
 9234TIP3    H227667   1.994   4.100   0.850  1.1099  0.9807 -1.5240
 9235TIP3   OH227668   5.077   4.572   4.782 -0.2711  0.2031  0.2816
 9235TIP3    H127669   5.130   4.628   4.726 -1.2068  1.3748  0.5191
 9235TIP3    H227670   4.988   4.608   4.776 -0.6216 -0.3471  1.5995
 9236TIP3   OH227671   5.170   5.615   5.111  0.3829  0.6540  0.2096
 9236TIP3    H127672   5.185   5.529   5.070  0.1084  0.9796 -0.5918
 9236TIP3    H227673   5.211   5.677   5.051  1.5092  1.0199  1.3093
 9237TIP3   OH227674   4.984   2.446   0.240 -0.1777 -0.2089  0.4834
 9237TIP3    H127675   5.016   2.535   0.223 -1.7366  0.0539 -1.4920
 9237TIP3    H227676   4.889   2.458   0.253 -0.1046 -1.3609  2.4490
 9238TIP3   OH227677   6.534   1.172   0.087  0.2005 -0.1759 -0.3242
 9238TIP3    H127678   6.548   1.266   0.095 -0.6428  0.0802 -1.5896
 9238TIP3    H227679   6.604   1.142   0.028  0.2473 -0.2845 -0.2146
 9239TIP3   OH227680   2.899   6.187   4.077 -0.0984  0.5147 -0.2004
 9239TIP3    H127681   2.947   6.112   4.113  0.7328  1.2162  0.1859
 9239TIP3    H227682   2.937   6.199   3.989 -0.6664  0.1074 -0.5091
 9240TIP3   OH227683   2.040   3.406   5.849 -0.2865  0.1059 -0.2721
 9240TIP3    H127684   2.005   3.396   5.761  0.6784 -1.9453 -0.4863
 9240TIP3    H227685   2.010   3.328   5.896  0.0681  0.6525  0.9109
 9241TIP3   OH227686   4.752   3.455   4.531 -0.3018 -0.2422  0.4355
 9241TIP3    H127687   4.827   3.480   4.478 -0.8422  0.7941  0.1366
 9241TIP3    H227688   4.679   3.506   4.496 -1.2525 -1.5192  0.4484
 9242TIP3   OH227689   4.357   0.271   0.796  0.2958  0.2257  0.1013
 9242TIP3    H127690   4.317   0.293   0.712  1.1887 -2.2370 -1.0518
 9242TIP3    H227691   4.403   0.351   0.822  0.8377  0.7558 -2.2796
 9243TIP3   OH227692   5.928   5.618   5.828 -0.1524  0.0899  0.2231
 9243TIP3    H127693   5.925   5.561   5.752 -1.0723  1.0935 -0.5158
 9243TIP3    H227694   5.838   5.622   5.859  0.1660 -0.0840  1.2082
 9244TIP3   OH227695   4.663   6.037   0.599 -0.6513  0.4891  0.3903
 9244TIP3    H127696   4.666   6.132   0.600  0.7147  0.4935 -0.9453
 9244TIP3    H227697   4.606   6.015   0.525 -2.0800  0.2311  1.5131
 9245TIP3   OH227698   3.662   1.047   1.462 -0.4264 -0.3615  0.3645
 9245TIP3    H127699   3.649   1.109   1.534 -0.2953 -0.2478  0.2905
 9245TIP3    H227700   3.683   1.102   1.387 -1.3001 -0.4266  0.0599
 9246TIP3   OH227701   2.417   3.141   1.434  0.2485 -0.0906 -0.1676
 9246TIP3    H127702   2.503   3.105   1.454 -0.2771 -1.1725  0.2405
 9246TIP3    H227703   2.367   3.067   1.400 -1.1468  0.0018  1.4952
 9247TIP3   OH227704   3.783   6.039   0.652 -0.0597 -0.3097 -0.4285
 9247TIP3    H127705   3.821   6.080   0.575  1.4465  1.5292  1.1820
 9247TIP3    H227706   3.776   6.110   0.716 -0.0021 -2.0015  1.5646
 9248TIP3   OH227707   4.810   5.711   3.747 -0.1222 -0.0947 -0.3551
 9248TIP3    H127708   4.716   5.715   3.766  0.1637 -0.0603  1.2112
 9248TIP3    H227709   4.852   5.731   3.831  1.2919  0.3238 -1.1358
 9249TIP3   OH227710   6.942   4.680   3.827 -0.3227 -0.0589  0.3250
 9249TIP3    H127711   6.857   4.679   3.783 -0.2258 -1.3999  0.1155
 9249TIP3    H227712   6.958   4.772   3.847 -2.2431  0.1273  1.1964
 9250TIP3   OH227713   2.984   0.303   3.231  0.3051 -0.0582  1.0682
 9250TIP3    H127714   2.973   0.350   3.148  0.2616 -2.1297 -0.1732
 9250TIP3    H227715   3.078   0.298   3.244  0.2988  1.5570  1.9687
 9251TIP3   OH227716   0.689   2.298   3.433  0.3739 -0.1375  0.1174
 9251TIP3    H127717   0.746   2.222   3.443 -0.2227 -0.5134  0.7719
 9251TIP3    H227718   0.691   2.341   3.519 -3.3306 -2.3307  1.5460
 9252TIP3   OH227719   5.979   1.563   3.232 -0.1199 -0.2139 -0.2581
 9252TIP3    H127720   5.997   1.486   3.286 -0.0736 -1.2653 -1.7027
 9252TIP3    H227721   5.999   1.534   3.143  2.5891  2.2834 -0.6072
 9253TIP3   OH227722   2.263   0.617   3.784 -0.3473  0.1208  0.2793
 9253TIP3    H127723   2.178   0.622   3.742 -0.0023 -1.7325 -0.7522
 9253TIP3    H227724   2.309   0.547   3.737  1.6639  0.9229  0.9389
 9254TIP3   OH227725   6.506   2.752   5.450  0.5053  0.0394  0.0992
 9254TIP3    H127726   6.467   2.722   5.531  0.2624  1.2400  0.4468
 9254TIP3    H227727   6.600   2.748   5.465  0.4592  1.5602  0.9645
 9255TIP3   OH227728   6.865   2.149   0.306 -0.0989 -0.8254  0.7033
 9255TIP3    H127729   6.930   2.108   0.248  1.1443 -0.0953  1.5299
 9255TIP3    H227730   6.916   2.209   0.360 -1.5988  0.4326  0.7975
 9256TIP3   OH227731   3.098   2.829   1.296  0.3191 -0.3879  0.0551
 9256TIP3    H127732   3.030   2.862   1.237 -0.2986  0.2115  1.0791
 9256TIP3    H227733   3.130   2.907   1.341  0.8019 -0.8336  0.5014
 9257TIP3   OH227734   4.491   3.513   3.526  0.1094 -0.1813  0.1694
 9257TIP3    H127735   4.408   3.468   3.541 -0.1922 -0.2806 -1.5858
 9257TIP3    H227736   4.542   3.496   3.605 -0.9735 -1.4006  0.6457
 9258TIP3   OH227737   5.984   5.910   4.966 -0.3777 -0.3699  0.7196
 9258TIP3    H127738   5.995   5.826   5.010  0.8364 -1.1413 -0.9376
 9258TIP3    H227739   6.011   5.893   4.875 -0.5946  1.6822  0.2245
 9259TIP3   OH227740   5.672   3.848   4.105  0.4691  0.0349  0.2078
 9259TIP3    H127741   5.727   3.840   4.027 -0.9284 -0.3531 -0.7960
 9259TIP3    H227742   5.585   3.866   4.070 -0.2615 -0.4900  1.6754
 9260TIP3   OH227743   5.867   1.256   3.629  0.1200 -0.5522  0.5979
 9260TIP3    H127744   5.882   1.341   3.587  0.3153 -0.1692  1.4305
 9260TIP3    H227745   5.858   1.276   3.722  1.3557 -1.5687  0.9655
 9261TIP3   OH227746   2.561   3.624   1.291 -0.0716  0.5610  0.3203
 9261TIP3    H127747   2.544   3.530   1.300 -0.8230  0.5370 -1.0764
 9261TIP3    H227748   2.633   3.630   1.229 -2.9904  0.8989 -3.4500
 9262TIP3   OH227749   0.945   4.281   1.538  0.4470  0.3487 -0.7531
 9262TIP3    H127750   0.914   4.214   1.598  1.5339  1.1708  0.8104
 9262TIP3    H227751   0.993   4.233   1.470 -2.3540 -0.7609 -2.1206
 9263TIP3   OH227752   2.089   5.771   2.184 -0.2448 -0.1419  0.3610
 9263TIP3    H127753   2.153   5.792   2.117 -1.5068  1.0761 -0.5120
 9263TIP3    H227754   2.033   5.705   2.144 -1.5772  1.2654 -0.2041
 9264TIP3   OH227755   3.479   6.458   4.346  0.2689  0.4984  0.1801
 9264TIP3    H127756   3.518   6.478   4.431  1.7357  0.3823 -0.4292
 9264TIP3    H227757   3.474   6.543   4.301  0.8829  0.3597 -0.1605
 9265TIP3   OH227758   3.061   6.320   0.947  0.5513 -0.0370  0.0494
 9265TIP3    H127759   3.116   6.328   0.869  0.3281  1.6983  0.0432
 9265TIP3    H227760   3.047   6.225   0.956  0.3282 -0.2639 -2.1635
 9266TIP3   OH227761   5.538   5.823   0.687  0.0121  0.1689  0.0806
 9266TIP3    H127762   5.561   5.907   0.726  2.3566  0.0020 -0.7482
 9266TIP3    H227763   5.513   5.845   0.597 -1.2974  0.1388  0.4183
 9267TIP3   OH227764   3.604   5.577   5.865 -0.2337 -0.1832  0.0393
 9267TIP3    H127765   3.664   5.545   5.797 -2.3773 -0.9732 -1.5831
 9267TIP3    H227766   3.528   5.609   5.817 -1.1609  0.7404  2.0178
 9268TIP3   OH227767   0.429   0.082   3.193 -0.3412 -0.2007  0.0056
 9268TIP3    H127768   0.401  -0.006   3.217 -1.4476 -0.4323 -1.9306
 9268TIP3    H227769   0.382   0.139   3.254  2.4148 -0.9486  3.0751
 9269TIP3   OH227770   6.159   5.612   5.422  0.3541 -0.1430  0.5376
 9269TIP3    H127771   6.195   5.587   5.336 -0.4314 -1.2668  0.5187
 9269TIP3    H227772   6.066   5.630   5.404  0.5191  1.1496  0.8838
 9270TIP3   OH227773   5.419   3.478   4.704  0.1051 -0.3797  0.3142
 9270TIP3    H127774   5.361   3.500   4.630 -1.7345 -2.0227  1.1714
 9270TIP3    H227775   5.359   3.451   4.773  1.8860 -0.8663  1.7286
 9271TIP3   OH227776   5.836   0.888   2.404 -0.0976  0.4878  0.4928
 9271TIP3    H127777   5.926   0.854   2.405 -0.2135  0.1314  1.8873
 9271TIP3    H227778   5.783   0.814   2.374  0.0865  0.8061 -0.6794
 9272TIP3   OH227779   3.101   3.004   2.721  0.0149 -0.3449  0.0170
 9272TIP3    H127780   3.102   2.952   2.640 -1.0303  0.2932 -0.4235
 9272TIP3    H227781   3.097   2.939   2.791  3.7564 -1.0664 -0.2307
 9273TIP3   OH227782   4.630   5.288   0.441  0.0233  0.1140  0.7910
 9273TIP3    H127783   4.564   5.219   0.447 -0.1276  0.2576  0.7892
 9273TIP3    H227784   4.684   5.263   0.366  0.1789 -0.1817  0.9992
 9274TIP3   OH227785   3.960   2.775   4.335 -0.6015  0.4072  0.0532
 9274TIP3    H127786   3.971   2.798   4.242 -0.7036  0.3534  0.0275
 9274TIP3    H227787   3.936   2.858   4.377 -0.1152  0.5218  0.1075
 9275TIP3   OH227788   3.811   3.626   5.132 -0.2348 -0.0870  0.4727
 9275TIP3    H127789   3.767   3.555   5.084  0.5090 -0.6141  0.5361
 9275TIP3    H227790   3.829   3.589   5.218 -1.0619  0.6681  0.9885
 9276TIP3   OH227791   0.425   4.266   2.578 -0.1507  0.2485  0.4095
 9276TIP3    H127792   0.349   4.226   2.619  1.3864 -2.5277  0.7857
 9276TIP3    H227793   0.433   4.223   2.493  1.6392 -0.4145  0.8727
 9277TIP3   OH227794   2.160   3.840   3.131 -0.5077  0.0174 -0.4614
 9277TIP3    H127795   2.202   3.838   3.045  0.0652  0.5969 -0.2072
 9277TIP3    H227796   2.156   3.749   3.159  1.4045  0.0003 -0.1211
 9278TIP3   OH227797   3.148   4.903   0.122 -0.3541  0.4986  0.6379
 9278TIP3    H127798   3.121   4.817   0.089  1.0128 -0.2274  1.3492
 9278TIP3    H227799   3.069   4.957   0.115 -1.3049 -0.8735  0.4120
 9279TIP3   OH227800   2.413   4.506   4.013  0.2755  0.1763 -0.2156
 9279TIP3    H127801   2.477   4.461   4.067  0.1588  0.1367 -0.1111
 9279TIP3    H227802   2.463   4.540   3.939 -0.0152 -2.3318 -1.6591
 9280TIP3   OH227803   4.916   1.924   3.653  0.1614  1.0610 -0.3334
 9280TIP3    H127804   4.838   1.970   3.683 -0.7631  0.5115 -1.7576
 9280TIP3    H227805   4.882   1.847   3.606  1.5865  0.2657 -0.1421
 9281TIP3   OH227806   2.562   2.170   4.179  0.3534  0.1841  0.5783
 9281TIP3    H127807   2.533   2.129   4.098 -0.6583  0.7818  0.6254
 9281TIP3    H227808   2.482   2.189   4.228  0.9521 -0.3548  1.8336
 9282TIP3   OH227809   6.075   1.510   0.824  0.0700 -0.2916  0.1426
 9282TIP3    H127810   6.034   1.563   0.756 -0.8793 -0.0664  0.8582
 9282TIP3    H227811   6.002   1.462   0.864  0.5441 -0.1684  1.2147
 9283TIP3   OH227812   4.814   2.580   2.683  0.2488  0.2651  0.4164
 9283TIP3    H127813   4.767   2.664   2.680 -2.6254 -1.2208  0.5918
 9283TIP3    H227814   4.817   2.558   2.776  1.4580  0.3842  0.4159
 9284TIP3   OH227815   2.061   4.559   4.308  0.1176 -0.1493 -0.3930
 9284TIP3    H127816   2.055   4.488   4.244 -0.6759 -0.6545  0.2133
 9284TIP3    H227817   1.973   4.596   4.311 -0.0761 -0.6409  0.9442
 9285TIP3   OH227818   0.832   0.075   5.793 -0.2531 -0.3869 -0.0719
 9285TIP3    H127819   0.868   0.031   5.869 -1.5083  0.2105  0.9100
 9285TIP3    H227820   0.880   0.039   5.719 -1.0641 -3.2830  0.6873
 9286TIP3   OH227821   5.841   1.394   0.908 -0.2455  0.2452 -0.1605
 9286TIP3    H127822   5.758   1.364   0.871 -0.7245  1.3847 -0.0343
 9286TIP3    H227823   5.873   1.319   0.958 -0.6016 -0.6096 -1.1769
 9287TIP3   OH227824   6.541   0.692   3.267  0.5047  0.2282 -0.2040
 9287TIP3    H127825   6.606   0.762   3.268  1.2521 -0.4343 -0.9907
 9287TIP3    H227826   6.491   0.707   3.186  1.5904 -0.9386 -1.1315
 9288TIP3   OH227827   0.734   5.733   4.585 -0.7641  0.0425 -0.0354
 9288TIP3    H127828   0.643   5.738   4.616 -1.2380  0.7345 -1.4657
 9288TIP3    H227829   0.727   5.740   4.490  0.7794 -0.1928 -0.1861
 9289TIP3   OH227830   2.567   6.038   1.551 -0.0226 -0.2619 -0.3325
 9289TIP3    H127831   2.560   5.958   1.498 -1.3901  0.2027 -0.9056
 9289TIP3    H227832   2.488   6.088   1.529 -0.2960  0.2571  1.6539
 9290TIP3   OH227833   1.035   3.101   0.324 -0.1353  0.4068 -0.0057
 9290TIP3    H127834   1.061   3.050   0.401  0.2382 -0.0544 -0.4330
 9290TIP3    H227835   1.109   3.093   0.263 -0.3494  0.9198 -0.3439
 9291TIP3   OH227836   0.373   0.616   5.385  0.3297  0.1695  0.2263
 9291TIP3    H127837   0.292   0.649   5.425 -0.7497 -1.0780 -0.8066
 9291TIP3    H227838   0.386   0.530   5.427  0.8308  0.1354  0.0038
 9292TIP3   OH227839   0.880   4.491   1.216  0.3001 -0.0373  0.0011
 9292TIP3    H127840   0.832   4.574   1.208 -0.0156 -0.2948 -0.8665
 9292TIP3    H227841   0.834   4.444   1.285  0.1339  0.2785  0.1096
 9293TIP3   OH227842   5.267   3.184   0.229  0.0280  0.3355 -0.3597
 9293TIP3    H127843   5.282   3.278   0.236 -0.9528  0.4819 -0.1073
 9293TIP3    H227844   5.293   3.148   0.314 -2.8702  0.8609  0.8564
 9294TIP3   OH227845   6.316   0.750   5.270 -0.4175 -0.3795 -0.2731
 9294TIP3    H127846   6.367   0.678   5.233 -3.1531 -1.7340 -1.6261
 9294TIP3    H227847   6.289   0.718   5.356  1.5811  0.6853  0.8243
 9295TIP3   OH227848   3.243   2.772   3.539  0.5118  0.7395  0.0713
 9295TIP3    H127849   3.331   2.810   3.537 -0.0415  2.0499 -0.8291
 9295TIP3    H227850   3.185   2.848   3.546 -0.5675 -0.1002  0.5743
 9296TIP3   OH227851   4.870   1.328   3.937 -0.0451  0.0129 -0.1541
 9296TIP3    H127852   4.886   1.410   3.891 -1.1458  0.3228  0.0025
 9296TIP3    H227853   4.913   1.262   3.883  0.8802  0.6768 -0.2645
 9297TIP3   OH227854   1.115   1.711   1.828  0.0616 -0.3917 -0.0850
 9297TIP3    H127855   1.189   1.652   1.840 -0.6507 -1.4590 -0.7705
 9297TIP3    H227856   1.038   1.656   1.841 -0.6300  0.6918  0.5901
 9298TIP3   OH227857   3.014   2.624   2.573 -0.5647  0.0259  0.4290
 9298TIP3    H127858   3.091   2.678   2.555 -1.1552  1.2110  1.3240
 9298TIP3    H227859   3.025   2.597   2.665 -0.6185 -0.8024  0.1943
 9299TIP3   OH227860   6.180   3.403   3.567 -0.3087  0.3889 -0.0005
 9299TIP3    H127861   6.266   3.446   3.564 -0.3815  0.4735 -1.1194
 9299TIP3    H227862   6.133   3.451   3.636 -0.2367  1.8524 -0.9180
 9300TIP3   OH227863   6.491   1.570   1.393 -0.1342 -0.3301  0.5725
 9300TIP3    H127864   6.516   1.481   1.417  1.9953 -0.2683 -1.0447
 9300TIP3    H227865   6.490   1.618   1.475  2.0109 -1.1421  1.1328
 9301TIP3   OH227866   0.989   1.364   2.760  0.1655  0.2345 -0.1215
 9301TIP3    H127867   1.015   1.414   2.683 -2.6690  1.0971 -0.6301
 9301TIP3    H227868   1.071   1.330   2.796  1.8037  1.9422 -2.0320
 9302TIP3   OH227869   6.468   2.334   0.092  0.0086  0.5615  0.0232
 9302TIP3    H127870   6.531   2.352   0.161 -0.2802  0.9836  0.1828
 9302TIP3    H227871   6.477   2.407   0.030 -2.3225  2.2574  1.5112
 9303TIP3   OH227872   2.515   6.647   2.397 -0.1677  0.0315 -0.1688
 9303TIP3    H127873   2.601   6.672   2.432 -0.4615 -0.5121  1.0106
 9303TIP3    H227874   2.484   6.579   2.457 -2.6339  2.0806  1.0696
 9304TIP3   OH227875   6.578   6.159   4.969 -0.4566 -0.5628 -0.1573
 9304TIP3    H127876   6.656   6.161   5.023 -0.5380  1.4311 -0.0418
 9304TIP3    H227877   6.511   6.202   5.022 -0.8828  0.2374 -1.2966
 9305TIP3   OH227878   2.865   6.319   2.269 -0.2267  0.8681  0.2749
 9305TIP3    H127879   2.948   6.318   2.222  0.1077 -1.0100  0.8113
 9305TIP3    H227880   2.884   6.362   2.352 -0.4776  2.8569 -0.6215
 9306TIP3   OH227881   3.931   2.839   1.182 -0.1430 -0.1866  0.0018
 9306TIP3    H127882   3.990   2.765   1.195  0.6781  0.5758  0.7426
 9306TIP3    H227883   3.922   2.879   1.268 -2.0860 -0.5159 -0.0050
 9307TIP3   OH227884   3.700   0.840   3.065  0.1302 -0.1643 -0.0171
 9307TIP3    H127885   3.741   0.816   3.148  0.9688 -1.3622 -0.7420
 9307TIP3    H227886   3.654   0.761   3.038  0.5062 -0.0435 -1.0492
 9308TIP3   OH227887   2.957   0.379   2.563 -0.6438 -0.0356  0.0365
 9308TIP3    H127888   2.900   0.386   2.640 -0.0236 -2.5929  0.8334
 9308TIP3    H227889   2.911   0.317   2.505  0.0206  0.0022 -0.5482
 9309TIP3   OH227890   1.562   4.468   1.868 -0.4525 -0.0329  0.0731
 9309TIP3    H127891   1.606   4.514   1.796  2.4513 -1.8028  0.5359
 9309TIP3    H227892   1.597   4.509   1.947  2.1807 -2.7324  0.4935
 9310TIP3   OH227893   6.730   4.231   2.586 -0.2867 -0.1805  0.7017
 9310TIP3    H127894   6.649   4.199   2.628 -0.2147 -0.2087  0.8192
 9310TIP3    H227895   6.742   4.319   2.621 -1.3788  0.6412 -0.8558
 9311TIP3   OH227896   1.006   6.322   0.295  0.1892  0.0487  0.1238
 9311TIP3    H127897   0.969   6.265   0.363 -0.8463 -0.7380 -1.0496
 9311TIP3    H227898   1.100   6.327   0.316 -0.0295 -0.5624  1.3207
 9312TIP3   OH227899   5.431   0.926   4.007  0.3875  0.1324 -0.0488
 9312TIP3    H127900   5.516   0.884   4.020  0.4683  0.6663  1.3091
 9312TIP3    H227901   5.451   1.008   3.963  0.5380  0.0906 -0.0599
 9313TIP3   OH227902   1.578   3.582   4.731 -0.1762 -0.5908 -0.4335
 9313TIP3    H127903   1.644   3.648   4.711 -0.4985 -0.2265 -0.3136
 9313TIP3    H227904   1.498   3.633   4.746  0.2696 -0.6844  3.0211
 9314TIP3   OH227905   5.263   6.577   1.084 -0.2460 -0.5813  0.3773
 9314TIP3    H127906   5.358   6.574   1.096  0.0396 -0.0630 -1.4924
 9314TIP3    H227907   5.228   6.573   1.173  1.6048  1.6829  1.3339
 9315TIP3   OH227908   0.090   0.909   0.634 -0.2009  0.1680 -0.2454
 9315TIP3    H127909   0.105   1.001   0.653  0.2396 -0.0528  0.5260
 9315TIP3    H227910   0.175   0.876   0.603  0.4303 -0.5806  2.0612
 9316TIP3   OH227911   1.246   1.286   1.231  0.1316 -0.2382 -0.2887
 9316TIP3    H127912   1.202   1.211   1.190  2.2415 -0.1341 -3.0480
 9316TIP3    H227913   1.198   1.362   1.198  1.2081 -0.2076 -1.9207
 9317TIP3   OH227914   7.178   6.641   4.183  0.3331 -0.4008  0.4535
 9317TIP3    H127915   7.268   6.652   4.211 -0.0209  1.7959  0.9224
 9317TIP3    H227916   7.133   6.603   4.258  0.3828  0.9397  1.2016
 9318TIP3   OH227917   2.301   4.858   3.560  0.3912 -0.3355  0.0083
 9318TIP3    H127918   2.315   4.939   3.511  0.4591  0.5300  1.4018
 9318TIP3    H227919   2.345   4.790   3.509  1.6782  0.7725 -0.3998
 9319TIP3   OH227920   0.574   4.615   2.413  0.4950  0.4671  0.4364
 9319TIP3    H127921   0.661   4.586   2.386 -0.6237 -0.8209 -2.1420
 9319TIP3    H227922   0.566   4.704   2.376  0.5161  0.3513  0.1487
 9320TIP3   OH227923   1.391   1.156   2.042  0.3473 -0.5895 -0.0057
 9320TIP3    H127924   1.371   1.091   2.109  0.1598 -1.2634 -0.7045
 9320TIP3    H227925   1.481   1.136   2.016  0.1070 -0.9117 -0.5990
 9321TIP3   OH227926   4.830   0.568   0.906 -0.4959 -0.0364 -0.2472
 9321TIP3    H127927   4.774   0.644   0.922  0.0018  0.3666 -0.4101
 9321TIP3    H227928   4.914   0.605   0.877 -0.4001 -0.6558 -0.7908
 9322TIP3   OH227929   3.298   1.222   0.136 -0.3087  0.1472 -0.5031
 9322TIP3    H127930   3.341   1.170   0.204  0.0918  1.4366  0.2645
 9322TIP3    H227931   3.250   1.158   0.083  1.3240 -1.1650 -0.4678
 9323TIP3   OH227932   1.519   5.667   4.483  0.2859  0.6778 -0.0574
 9323TIP3    H127933   1.426   5.674   4.505  0.9474  1.5930  2.8872
 9323TIP3    H227934   1.536   5.745   4.429 -0.9956 -0.5521 -2.3757
 9324TIP3   OH227935   6.090   0.384   0.220  0.4303 -0.1663 -0.3530
 9324TIP3    H127936   6.171   0.393   0.271  0.7212  0.2791 -0.8844
 9324TIP3    H227937   6.028   0.344   0.281  0.7159  0.5318  0.4140
 9325TIP3   OH227938   3.577   3.750   3.564 -0.2439  0.3832 -0.2569
 9325TIP3    H127939   3.633   3.811   3.613  0.8395  0.2135 -1.2563
 9325TIP3    H227940   3.587   3.777   3.473 -0.8082 -0.4594 -0.5722
 9326TIP3   OH227941   4.456   4.200   5.658 -0.3325  0.2282  0.0055
 9326TIP3    H127942   4.551   4.199   5.668 -0.2023 -4.9577  1.3349
 9326TIP3    H227943   4.422   4.206   5.747 -1.1649  0.2132 -0.2994
 9327TIP3   OH227944   0.449   2.357   1.946 -0.3798 -0.3970 -0.1279
 9327TIP3    H127945   0.366   2.362   1.897 -0.9996 -0.5346  0.8701
 9327TIP3    H227946   0.427   2.389   2.034  1.0112  1.1020 -0.2884
 9328TIP3   OH227947   3.685   1.693   1.570  0.1001  0.0165  0.2864
 9328TIP3    H127948   3.605   1.647   1.597  0.0970  0.4066  0.9531
 9328TIP3    H227949   3.655   1.777   1.537  0.1662 -0.1865 -0.3133
 9329TIP3   OH227950   2.653   2.250   5.244 -0.9338 -0.7358 -0.3295
 9329TIP3    H127951   2.698   2.246   5.328  0.8684 -0.2749 -1.2148
 9329TIP3    H227952   2.604   2.168   5.239 -0.5590 -1.0551  0.8830
 9330TIP3   OH227953   6.584   1.672   5.083  0.0483 -0.0310 -0.3766
 9330TIP3    H127954   6.502   1.712   5.055 -1.1225  1.2095  4.0207
 9330TIP3    H227955   6.646   1.745   5.086  0.5526 -0.4210 -1.0405
 9331TIP3   OH227956   1.502   5.161   3.005 -0.1651 -0.0087 -0.3954
 9331TIP3    H127957   1.547   5.233   2.960  1.2307 -0.3711  0.3364
 9331TIP3    H227958   1.542   5.082   2.968  0.1223 -0.3339  0.5686
 9332TIP3   OH227959   5.115   2.455   0.530  0.3857 -0.7446  0.4505
 9332TIP3    H127960   5.147   2.515   0.463 -0.0382 -0.4168  0.5374
 9332TIP3    H227961   5.109   2.370   0.486 -0.3711 -0.4306 -0.0766
 9333TIP3   OH227962   7.032   5.125   1.961  0.2528 -0.5535 -0.2774
 9333TIP3    H127963   7.058   5.143   2.051  1.0431  0.8772 -0.7502
 9333TIP3    H227964   7.096   5.173   1.908 -1.4614  0.4275 -1.5540
 9334TIP3   OH227965   6.511   3.271   5.755 -0.1395  0.4774 -0.1154
 9334TIP3    H127966   6.477   3.184   5.778  0.1394  0.6492  1.0285
 9334TIP3    H227967   6.517   3.270   5.660 -1.9157 -0.0879 -0.2504
 9335TIP3   OH227968   1.397   0.311   2.584 -0.4058 -0.0159 -0.0229
 9335TIP3    H127969   1.419   0.242   2.521  0.8556  0.1964  0.1582
 9335TIP3    H227970   1.306   0.334   2.563  0.4284  1.1918 -2.8840
 9336TIP3   OH227971   6.310   6.495   5.674 -0.0311  0.3053  0.2058
 9336TIP3    H127972   6.259   6.451   5.742  1.1473 -2.7061 -0.7080
 9336TIP3    H227973   6.276   6.460   5.592  1.8540  0.0376 -0.5131
 9337TIP3   OH227974   3.972   1.661   2.033  0.3816 -0.4770 -0.1114
 9337TIP3    H127975   3.910   1.727   2.064  1.2273  0.1983  0.1611
 9337TIP3    H227976   4.043   1.662   2.097  1.8411  0.4470 -1.6516
 9338TIP3   OH227977   1.304   2.440   4.185 -0.1325  0.0160  0.0249
 9338TIP3    H127978   1.348   2.438   4.270 -1.4931  1.5824  0.8082
 9338TIP3    H227979   1.271   2.351   4.172  1.1867 -0.5731  0.4926
 9339TIP3   OH227980   4.266   2.531   2.313 -0.2049  0.0639  0.1742
 9339TIP3    H127981   4.319   2.598   2.269  0.6797 -0.9474 -0.3449
 9339TIP3    H227982   4.207   2.581   2.370 -0.7972  1.3797 -1.4997
 9340TIP3   OH227983   2.034   3.172   0.902  0.9705 -0.0548 -0.2649
 9340TIP3    H127984   1.959   3.208   0.949  1.0637 -0.1307 -0.0605
 9340TIP3    H227985   2.010   3.181   0.810 -0.6011 -2.8088 -0.2155
 9341TIP3   OH227986   5.636   5.361   5.163 -0.2886  0.3181 -0.1654
 9341TIP3    H127987   5.643   5.456   5.165 -1.2734  0.3862  0.5605
 9341TIP3    H227988   5.646   5.338   5.070 -0.5364  1.1642 -0.4081
 9342TIP3   OH227989   2.654   2.854   0.941 -0.0210 -0.3951  0.0906
 9342TIP3    H127990   2.611   2.787   0.993 -1.0179 -0.4164 -0.7337
 9342TIP3    H227991   2.698   2.806   0.871 -0.8776 -0.2007 -0.6000
 9343TIP3   OH227992   0.028   2.305   1.784  0.0995  0.0297  0.4239
 9343TIP3    H127993   0.024   2.213   1.810  1.8465 -0.1995  0.0356
 9343TIP3    H227994   0.026   2.353   1.867  2.1597 -0.5290  0.8559
 9344TIP3   OH227995   3.906   3.382   4.352  0.5536  0.0316 -0.0455
 9344TIP3    H127996   3.915   3.287   4.340 -0.2464 -0.0924  0.3186
 9344TIP3    H227997   3.894   3.416   4.264 -0.8213 -0.3941 -0.0384
 9345TIP3   OH227998   4.191   3.901   3.973  0.0891  0.0641 -0.0314
 9345TIP3    H127999   4.139   3.822   3.981 -0.4859  0.3977 -0.4404
 9345TIP3    H228000   4.277   3.877   4.008 -0.5496 -0.2689  1.3559
 9346TIP3   OH228001   6.361   2.357   2.829 -0.2856 -0.2716  0.4931
 9346TIP3    H128002   6.310   2.420   2.778  0.0285 -0.4948 -0.1073
 9346TIP3    H228003   6.441   2.344   2.778 -0.1801 -0.8600  0.8015
 9347TIP3   OH228004   5.669   4.257   4.247 -0.2700 -0.5483  0.6926
 9347TIP3    H128005   5.678   4.178   4.300  0.7990 -1.1218 -0.3044
 9347TIP3    H228006   5.597   4.305   4.288  0.8733 -0.6718  3.0468
 9348TIP3   OH228007   2.151   6.158   0.187 -0.2571  0.4312 -0.2834
 9348TIP3    H128008   2.086   6.159   0.118  0.8237  0.0559 -1.3412
 9348TIP3    H228009   2.101   6.159   0.268 -1.6034 -1.3354 -1.0470
 9349TIP3   OH228010   6.714   1.696   0.130  0.7662 -0.0772 -0.3344
 9349TIP3    H128011   6.641   1.743   0.091  0.1342 -0.5705  0.2167
 9349TIP3    H228012   6.785   1.703   0.066  0.1278  0.1158 -1.0294
 9350TIP3   OH228013   5.843   6.248   1.447  0.1013  0.5751 -0.5298
 9350TIP3    H128014   5.809   6.307   1.514  0.4978  0.1647  0.0379
 9350TIP3    H228015   5.934   6.232   1.472  0.8488  1.9088 -2.1932
 9351TIP3   OH228016   4.223   2.964   2.848  0.8339 -0.2342 -0.0959
 9351TIP3    H128017   4.227   3.030   2.779 -2.4293 -1.4713 -1.6919
 9351TIP3    H228018   4.151   2.906   2.822  0.9009 -2.0914  3.2440
 9352TIP3   OH228019   2.948   1.106   4.496 -0.3638 -0.2769 -0.3601
 9352TIP3    H128020   2.990   1.191   4.481 -1.2165  0.0769 -0.7703
 9352TIP3    H228021   2.932   1.104   4.591  0.0344 -0.1673 -0.2879
 9353TIP3   OH228022   1.866   3.350   4.367  0.2090  0.0574  0.2935
 9353TIP3    H128023   1.887   3.436   4.403 -1.1866  2.0576 -3.2534
 9353TIP3    H228024   1.945   3.322   4.322 -0.2201  0.9652 -1.0841
 9354TIP3   OH228025   3.094  -0.017   2.031 -0.3036 -0.4481  0.2234
 9354TIP3    H128026   3.166  -0.042   2.088 -1.0990 -2.1734  0.5419
 9354TIP3    H228027   3.070   0.072   2.059  0.5789 -0.5150  1.2390
 9355TIP3   OH228028   3.343   0.237   4.182  0.2151  0.5186  0.1309
 9355TIP3    H128029   3.385   0.156   4.211  1.2272  0.8970 -0.2081
 9355TIP3    H228030   3.270   0.249   4.242 -0.5576 -1.1479 -0.4175
 9356TIP3   OH228031   1.087   0.380   2.026  0.1360 -0.4162 -0.2958
 9356TIP3    H128032   1.162   0.411   1.976  0.9749 -0.1580  1.0644
 9356TIP3    H228033   1.033   0.458   2.040  0.1300 -0.3986 -0.4209
 9357TIP3   OH228034   6.845   0.389   4.919 -0.2860 -0.0565  0.2591
 9357TIP3    H128035   6.800   0.468   4.888 -1.4033  0.1153  2.1192
 9357TIP3    H228036   6.938   0.409   4.909 -0.5772  0.5782 -1.4051
 9358TIP3   OH228037   3.586   3.223   4.599 -0.3934  0.0785  0.4166
 9358TIP3    H128038   3.614   3.282   4.528  0.3894  0.6073  1.1416
 9358TIP3    H228039   3.495   3.248   4.616 -0.5488  0.0387 -0.2994
 9359TIP3   OH228040   2.324   6.737   3.412 -0.0572  0.5748  0.0564
 9359TIP3    H128041   2.369   6.746   3.328  0.6780  0.2601  0.4107
 9359TIP3    H228042   2.288   6.649   3.410  0.7322  0.2426  0.4432
 9360TIP3   OH228043   2.221   2.968   0.380  0.2267  0.4796  0.4436
 9360TIP3    H128044   2.221   2.888   0.328  1.7737 -0.0278  1.1652
 9360TIP3    H228045   2.131   3.001   0.373  0.0508 -0.2604 -1.4404
 9361TIP3   OH228046   4.894   3.311   1.154 -0.4384 -0.1859 -0.8288
 9361TIP3    H128047   4.908   3.406   1.161 -0.0763 -0.1850 -1.4714
 9361TIP3    H228048   4.828   3.292   1.220  0.0760  0.3849 -0.1312
 9362TIP3   OH228049   6.514   2.641   1.842  0.3944  0.0431 -0.7906
 9362TIP3    H128050   6.558   2.620   1.760  1.0203  1.4468 -0.8410
 9362TIP3    H228051   6.561   2.718   1.875 -1.5982  1.1926 -0.4923
 9363TIP3   OH228052   0.616   0.558   3.749 -0.1213  0.3301  0.8981
 9363TIP3    H128053   0.626   0.649   3.720  0.4767 -0.2108 -0.7243
 9363TIP3    H228054   0.538   0.528   3.702 -0.5426  0.1102  1.7309
 9364TIP3   OH228055   4.678   2.733   3.949 -0.1617 -0.0921  0.2228
 9364TIP3    H128056   4.630   2.701   4.025 -3.0158 -0.2801 -1.5371
 9364TIP3    H228057   4.682   2.659   3.889  2.6063 -0.1402  0.3206
 9365TIP3   OH228058   2.958   4.890   0.680  0.2606  0.2306 -0.5505
 9365TIP3    H128059   3.039   4.940   0.670 -0.4030  2.2514  2.6678
 9365TIP3    H228060   2.959   4.861   0.772 -0.8209 -3.2601 -1.4654
 9366TIP3   OH228061   3.105   4.499   4.952  0.3591  0.6413 -0.5865
 9366TIP3    H128062   3.036   4.523   5.014  0.3067  1.3183 -0.8898
 9366TIP3    H228063   3.058   4.461   4.878  0.4809 -0.9828  0.1290
 9367TIP3   OH228064   6.358   3.607   2.384 -0.0173 -0.5555 -0.5940
 9367TIP3    H128065   6.294   3.672   2.355 -1.0066 -0.6930  1.1239
 9367TIP3    H228066   6.316   3.523   2.367  0.9386 -0.7631 -2.0964
 9368TIP3   OH228067   5.900   5.392   5.650 -0.3958  0.6590  0.0937
 9368TIP3    H128068   5.926   5.316   5.598 -0.8256  0.9129 -0.5068
 9368TIP3    H228069   5.811   5.412   5.621 -0.6286  0.8366  0.9008
 9369TIP3   OH228070   4.071   3.991   4.218  0.1219 -0.0390 -0.0180
 9369TIP3    H128071   4.103   3.969   4.130 -0.7842 -0.3424 -0.2789
 9369TIP3    H228072   4.134   3.949   4.277  1.5319  1.2924 -0.4876
 9370TIP3   OH228073   6.720   2.254   0.507  0.3821 -0.1796 -0.4272
 9370TIP3    H128074   6.767   2.243   0.589  0.2432  0.2168 -0.2949
 9370TIP3    H228075   6.750   2.180   0.453 -0.7583 -1.3975  0.5413
 9371TIP3   OH228076   6.421   3.844   1.645 -0.0170  0.4042  0.3433
 9371TIP3    H128077   6.395   3.891   1.565 -0.0850 -1.8314 -1.0323
 9371TIP3    H228078   6.516   3.851   1.647 -0.1268  2.0938  1.1721
 9372TIP3   OH228079   4.598   2.577   1.005  0.1339  0.3577  0.1547
 9372TIP3    H128080   4.549   2.643   0.956  0.7928  2.2603  1.9124
 9372TIP3    H228081   4.531   2.517   1.037 -0.5211  0.3253 -1.2040
 9373TIP3   OH228082   6.364   4.831   3.720  0.0355  0.0816  0.3731
 9373TIP3    H128083   6.372   4.908   3.664 -2.5541 -2.2776 -3.6985
 9373TIP3    H228084   6.300   4.857   3.787 -0.6849  1.5429 -0.8299
 9374TIP3   OH228085   1.475   3.857   2.067 -0.0162  0.1430 -0.1841
 9374TIP3    H128086   1.440   3.859   2.156 -0.1821  0.9949 -0.2628
 9374TIP3    H228087   1.563   3.821   2.077 -0.2232 -0.2587  0.2538
 9375TIP3   OH228088   3.284   2.805   4.142  0.5506 -0.7006 -0.0841
 9375TIP3    H128089   3.229   2.737   4.104  1.1428 -0.8260 -0.7403
 9375TIP3    H228090   3.236   2.887   4.126  0.3514 -0.8535 -0.2684
 9376TIP3   OH228091   1.939   3.022   3.436  0.8315  0.1269 -0.3266
 9376TIP3    H128092   1.949   2.927   3.436  2.9067  0.2747  0.7830
 9376TIP3    H228093   2.019   3.055   3.393  0.7681  1.3718  0.4447
 9377TIP3   OH228094   3.048   2.060   4.763 -0.8211 -0.0983  0.3386
 9377TIP3    H128095   3.133   2.058   4.720 -1.8617  1.3743 -1.9532
 9377TIP3    H228096   3.014   1.971   4.752  0.0166 -0.4456  0.4710
 9378TIP3   OH228097   4.924   0.914   0.415 -0.2265 -0.6083  0.5316
 9378TIP3    H128098   4.935   1.009   0.407 -2.7311 -0.2226  0.9581
 9378TIP3    H228099   4.994   0.878   0.360 -0.0489  1.4930 -0.7716
 9379TIP3   OH228100   5.494   0.379   0.632 -0.0119 -0.2929  0.1179
 9379TIP3    H128101   5.515   0.470   0.610  0.0128 -0.4327 -0.4471
 9379TIP3    H228102   5.536   0.327   0.563 -0.4922 -0.6971  0.1215
 9380TIP3   OH228103   0.737   5.497   3.173 -0.3565 -0.0590  0.5487
 9380TIP3    H128104   0.786   5.417   3.192 -0.8280 -0.4086  0.3375
 9380TIP3    H228105   0.766   5.559   3.240  1.9563  0.4603 -0.8459
 9381TIP3   OH228106   2.254   2.132   0.463 -0.0891  0.2294  0.2892
 9381TIP3    H128107   2.301   2.208   0.427  0.0478  0.4619  0.9467
 9381TIP3    H228108   2.266   2.064   0.397 -2.4733  1.5320 -1.6383
 9382TIP3   OH228109   2.957   0.955   2.114 -0.6471  0.1567  0.4522
 9382TIP3    H128110   3.042   0.923   2.084 -0.4183  0.0434  1.1899
 9382TIP3    H228111   2.931   0.893   2.182 -1.4714  0.0129  0.0053
 9383TIP3   OH228112   4.625   5.456   4.941 -0.8242 -0.1043 -0.0864
 9383TIP3    H128113   4.693   5.523   4.949 -0.3895 -0.4091 -1.0773
 9383TIP3    H228114   4.637   5.401   5.019  1.0615 -1.0260 -0.9482
 9384TIP3   OH228115   2.347   6.190   1.939  0.0785 -0.9406  0.1201
 9384TIP3    H128116   2.361   6.134   2.016 -0.4449 -2.7033 -0.9981
 9384TIP3    H228117   2.426   6.177   1.886 -2.1544 -5.1006 -2.7200
 9385TIP3   OH228118   6.234   5.043   2.207  0.3997 -0.2715 -0.6104
 9385TIP3    H128119   6.233   4.991   2.126  0.1978 -0.6457 -0.3706
 9385TIP3    H228120   6.173   4.997   2.265  1.6476 -0.8350  0.2828
 9386TIP3   OH228121   3.833   5.172   3.727 -0.5195 -0.3029  0.1435
 9386TIP3    H128122   3.822   5.266   3.720 -1.0150 -0.3367  0.4375
 9386TIP3    H228123   3.822   5.140   3.637 -0.3394 -0.0843  0.0424
 9387TIP3   OH228124   2.266   0.714   3.005 -0.2608 -0.4061 -0.3588
 9387TIP3    H128125   2.227   0.647   3.061 -1.7927  0.7680  0.0379
 9387TIP3    H228126   2.352   0.678   2.982 -1.1943 -2.7043 -0.5741
 9388TIP3   OH228127   2.706   1.493   3.660 -0.0521 -0.0677 -0.3282
 9388TIP3    H128128   2.750   1.409   3.646  0.7358  0.4050 -0.7828
 9388TIP3    H228129   2.660   1.483   3.743 -0.0434 -0.9776 -0.4235
 9389TIP3   OH228130   3.096   0.288   3.674 -0.6411 -0.8308  0.1294
 9389TIP3    H128131   3.035   0.224   3.711 -0.5092 -0.4143  1.1028
 9389TIP3    H228132   3.167   0.293   3.738  0.9901 -2.0962 -1.4816
 9390TIP3   OH228133   7.109   3.943   5.775  0.3251 -0.2681  0.1188
 9390TIP3    H128134   7.061   3.937   5.858  0.3846 -1.1112  0.0976
 9390TIP3    H228135   7.041   3.933   5.708  0.1471  1.2628  0.0299
 9391TIP3   OH228136   1.940   4.427   4.940 -0.0095  0.1606 -0.0182
 9391TIP3    H128137   1.915   4.517   4.965 -0.0075 -0.2624  1.6044
 9391TIP3    H228138   2.030   4.418   4.970 -0.3255 -0.6829  0.7219
 9392TIP3   OH228139   5.743   6.033   3.587 -0.4477 -0.2403  0.6117
 9392TIP3    H128140   5.815   6.030   3.525  1.6844  0.3299  2.8785
 9392TIP3    H228141   5.735   5.944   3.620  0.7104  0.1020  1.8853
 9393TIP3   OH228142   5.852   1.712   3.690 -0.0901  0.2211  0.3139
 9393TIP3    H128143   5.833   1.703   3.783 -1.2846 -0.2149  0.0457
 9393TIP3    H228144   5.895   1.630   3.666  0.3118  0.3748  0.4869
 9394TIP3   OH228145   3.078   4.645   3.828 -0.6892  0.2278  0.0233
 9394TIP3    H128146   3.029   4.627   3.908 -3.0314 -0.2041 -1.4068
 9394TIP3    H228147   3.122   4.728   3.844 -1.6477  0.4846  1.5090
 9395TIP3   OH228148   5.505   0.346   4.781 -0.1742  0.3812 -0.0402
 9395TIP3    H128149   5.486   0.354   4.874 -2.8229  0.6948 -0.5383
 9395TIP3    H228150   5.537   0.433   4.756  0.7693  0.2290  0.5834
 9396TIP3   OH228151   3.722   4.270   1.214 -0.1856  0.4746 -0.1694
 9396TIP3    H128152   3.797   4.291   1.269  0.2876  0.6224 -0.8632
 9396TIP3    H228153   3.722   4.174   1.209 -0.6113  0.4298  0.6057
 9397TIP3   OH228154   0.475   5.387   2.478 -0.3803 -0.1117 -0.0600
 9397TIP3    H128155   0.510   5.316   2.424  2.1316  0.3688  0.7887
 9397TIP3    H228156   0.430   5.343   2.549 -1.1196 -0.7874 -0.9252
 9398TIP3   OH228157   1.470   5.195   1.371 -0.4142  0.2629 -0.3647
 9398TIP3    H128158   1.537   5.132   1.345 -1.6138 -0.9860 -0.5568
 9398TIP3    H228159   1.398   5.179   1.310 -0.9409  1.4788 -0.0731
 9399TIP3   OH228160   4.480   3.753   0.912  0.5209 -0.0834 -0.1202
 9399TIP3    H128161   4.549   3.797   0.961  1.2845 -1.9659  0.6111
 9399TIP3    H228162   4.407   3.746   0.974 -0.9172  3.0179 -1.2733
 9400TIP3   OH228163   5.014   3.362   0.252  0.3261 -0.3631  0.0169
 9400TIP3    H128164   4.960   3.292   0.215 -1.2133  0.3413  0.8364
 9400TIP3    H228165   5.030   3.335   0.343  1.4737 -0.6038 -0.2342
 9401TIP3   OH228166   0.986   4.437   0.643  0.0426 -0.4012 -0.1779
 9401TIP3    H128167   0.931   4.440   0.565  1.6258 -1.8440 -1.4439
 9401TIP3    H228168   0.951   4.364   0.694 -0.9293  0.4775  0.4533
 9402TIP3   OH228169   0.556   1.671   5.694 -0.5084 -0.1453  0.7674
 9402TIP3    H128170   0.495   1.701   5.627  0.3904 -1.0659 -0.5139
 9402TIP3    H228171   0.630   1.731   5.688 -0.0682 -0.7209  0.3514
 9403TIP3   OH228172   5.567   2.886   1.285 -0.3282 -0.7346 -0.1995
 9403TIP3    H128173   5.496   2.849   1.233 -1.3068  0.2986  0.3577
 9403TIP3    H228174   5.524   2.922   1.363  0.6055  1.2185 -0.5337
 9404TIP3   OH228175   1.958   2.860   4.502 -0.1717  0.1364  0.2312
 9404TIP3    H128176   1.975   2.802   4.576 -0.0572  1.3508  1.1950
 9404TIP3    H228177   1.874   2.831   4.467 -0.2879 -0.3761  0.9249
 9405TIP3   OH228178   0.669   6.101   1.820 -0.3698 -0.4445 -0.2605
 9405TIP3    H128179   0.755   6.129   1.789 -0.3853  0.6934  0.6576
 9405TIP3    H228180   0.608   6.167   1.786 -0.6642 -0.3546  0.4228
 9406TIP3   OH228181   3.055   2.422   4.237  0.0785 -0.2149 -0.1514
 9406TIP3    H128182   3.003   2.499   4.260  0.2851 -0.3960  0.9377
 9406TIP3    H228183   3.020   2.352   4.291 -1.3526 -1.3861 -2.4144
 9407TIP3   OH228184   2.872   0.608   2.058  1.1512 -0.1276  0.7821
 9407TIP3    H128185   2.828   0.693   2.048  0.4276 -0.5598  0.2062
 9407TIP3    H228186   2.905   0.609   2.148 -0.9404 -0.1972  1.5968
 9408TIP3   OH228187   3.659   4.502   1.605 -0.3397  0.0707 -0.1310
 9408TIP3    H128188   3.680   4.420   1.560 -0.0083  0.9420 -1.6392
 9408TIP3    H228189   3.571   4.524   1.574 -0.4994  0.2140  0.4118
 9409TIP3   OH228190   5.427   4.795   3.710  0.4446 -0.0491 -0.0933
 9409TIP3    H128191   5.359   4.776   3.645  0.3762 -0.4198  0.0824
 9409TIP3    H228192   5.499   4.736   3.687  0.6533  0.2417 -0.1936
 9410TIP3   OH228193   0.262   5.621   4.791  0.0758 -0.4540  0.8385
 9410TIP3    H128194   0.249   5.537   4.748  2.8946 -0.2571 -0.6170
 9410TIP3    H228195   0.205   5.681   4.743  0.2429 -1.0047 -0.0726
 9411TIP3   OH228196   0.958   6.549   4.931  0.1990  0.6206  0.3095
 9411TIP3    H128197   1.016   6.474   4.916  1.8530  1.6445  1.2437
 9411TIP3    H228198   0.915   6.529   5.014  1.7480  1.3002  1.3288
 9412TIP3   OH228199   2.546   3.935   2.913  0.0541  0.5573 -0.3320
 9412TIP3    H128200   2.472   3.996   2.912 -0.3962  0.0999  1.6020
 9412TIP3    H228201   2.618   3.984   2.873 -0.6450  1.8843 -0.0276
 9413TIP3   OH228202   1.953   2.235   1.902  0.4507  0.1425 -0.3907
 9413TIP3    H128203   1.968   2.250   1.809  1.1066  1.7117 -0.0690
 9413TIP3    H228204   2.009   2.299   1.946 -0.3455 -0.1095  1.0632
 9414TIP3   OH228205   2.821   3.180   1.008 -0.0416  0.4024  0.4898
 9414TIP3    H128206   2.860   3.096   1.033  0.4437 -0.2732 -2.2320
 9414TIP3    H228207   2.731   3.175   1.042  0.0052 -1.1745  0.4841
 9415TIP3   OH228208   6.637   0.684   4.542 -0.0218 -0.1801  0.2244
 9415TIP3    H128209   6.569   0.617   4.541  0.8872 -1.1251  0.2294
 9415TIP3    H228210   6.595   0.759   4.584 -0.9884 -0.8146  0.4486
 9416TIP3   OH228211   1.563   6.768   0.131  0.1748 -0.0415 -0.4228
 9416TIP3    H128212   1.552   6.675   0.111  2.7504 -0.2417 -1.2878
 9416TIP3    H228213   1.645   6.772   0.180 -0.6553  1.6591  0.9649
 9417TIP3   OH228214   6.793   3.580   3.356  0.3396  0.4198 -0.1089
 9417TIP3    H128215   6.810   3.532   3.437 -0.3712  0.0168 -0.1921
 9417TIP3    H228216   6.869   3.561   3.300  0.8430  0.7198  0.4589
 9418TIP3   OH228217   0.539   2.214   4.019  0.1499 -0.1922 -0.0956
 9418TIP3    H128218   0.497   2.297   4.041 -0.0437 -0.0592 -0.9284
 9418TIP3    H228219   0.518   2.156   4.093 -1.0173  0.0451 -0.2223
 9419TIP3   OH228220   0.804   4.089   1.258  0.2526  0.8452  0.0954
 9419TIP3    H128221   0.794   4.178   1.290 -1.2965  0.5673  0.5018
 9419TIP3    H228222   0.835   4.039   1.334 -2.3125  0.4063  0.9552
 9420TIP3   OH228223   6.634   0.587   3.499 -0.1874 -0.7234 -0.2380
 9420TIP3    H128224   6.613   0.648   3.428 -0.1704 -1.5063 -0.9427
 9420TIP3    H228225   6.572   0.608   3.568 -2.3805 -1.9615 -1.6781
 9421TIP3   OH228226   1.566   5.830   4.270  0.3814 -0.2293 -0.5516
 9421TIP3    H128227   1.564   5.748   4.220  2.2074 -0.8144  0.2534
 9421TIP3    H228228   1.563   5.899   4.204 -0.4790 -0.9465 -1.2783
 9422TIP3   OH228229   2.557   2.992   2.123  0.6167 -0.3527  0.2570
 9422TIP3    H128230   2.544   2.943   2.205 -0.3164  1.1647  1.0618
 9422TIP3    H228231   2.636   3.044   2.138  0.3219  0.0900  0.2817
 9423TIP3   OH228232   2.758   1.851   2.362  0.1114  0.9674 -0.1703
 9423TIP3    H128233   2.767   1.797   2.440  0.5826  1.1945 -0.0693
 9423TIP3    H228234   2.837   1.834   2.311 -0.2612  0.6986 -0.6786
 9424TIP3   OH228235   0.948   4.229   4.927 -0.0961  0.2330  0.5921
 9424TIP3    H128236   1.017   4.202   4.867 -0.1217  1.3220  0.0491
 9424TIP3    H228237   0.971   4.187   5.010  0.4758 -0.4907  0.0821
 9425TIP3   OH228238   6.132   5.325   2.404 -0.3321 -0.4355 -0.0187
 9425TIP3    H128239   6.079   5.382   2.348  0.0738 -1.2688 -1.3205
 9425TIP3    H228240   6.197   5.287   2.344  0.0265 -1.4934  1.0004
 9426TIP3   OH228241   4.148   5.260   1.334  0.7414 -0.3686  0.1740
 9426TIP3    H128242   4.105   5.259   1.420 -0.2267 -1.0485 -0.3082
 9426TIP3    H228243   4.185   5.348   1.327  1.3663 -0.4865  1.5424
 9427TIP3   OH228244   6.501   6.131   3.448 -0.2013 -0.1432  0.5137
 9427TIP3    H128245   6.443   6.205   3.431 -0.7644 -0.7453 -0.2598
 9427TIP3    H228246   6.583   6.171   3.477 -1.2462  0.7091  2.4990
 9428TIP3   OH228247   3.975   5.386   0.987  0.0378  0.4152  0.1473
 9428TIP3    H128248   3.985   5.481   0.989 -0.6812  0.4905  1.2396
 9428TIP3    H228249   4.062   5.353   0.965  0.4276  1.3099  0.2912
 9429TIP3   OH228250   2.200   0.806   0.402 -0.2183 -0.1234  0.7653
 9429TIP3    H128251   2.129   0.781   0.461 -0.6899  0.9356  0.6648
 9429TIP3    H228252   2.172   0.889   0.363  0.8225  0.0318  0.2942
 9430TIP3   OH228253   2.041   5.401   4.033  0.2251  0.5865 -0.1925
 9430TIP3    H128254   2.019   5.360   4.117 -0.9666 -0.7612 -1.1276
 9430TIP3    H228255   2.048   5.495   4.054  0.4187  0.2292  1.4840
 9431TIP3   OH228256   1.116   3.123   2.892 -0.4690  0.0808  0.0234
 9431TIP3    H128257   1.173   3.180   2.840  0.4250 -1.8971 -1.2928
 9431TIP3    H228258   1.046   3.181   2.922  0.9610  2.0994 -0.2655
 9432TIP3   OH228259   6.542   4.505   0.638 -0.1179 -0.7714 -0.3083
 9432TIP3    H128260   6.591   4.457   0.705  0.9736  1.1628  0.3594
 9432TIP3    H228261   6.589   4.486   0.556  2.1890  1.4359  0.3880
 9433TIP3   OH228262   3.990   1.117   3.326  0.0861  0.3117  0.1917
 9433TIP3    H128263   3.907   1.163   3.312 -0.0993 -0.0690  0.0320
 9433TIP3    H228264   4.053   1.187   3.342 -0.3122  0.5933  0.5537
 9434TIP3   OH228265   0.456   4.289   1.478  0.4083  0.0466 -0.4638
 9434TIP3    H128266   0.541   4.271   1.439 -0.2784 -0.4669 -1.7909
 9434TIP3    H228267   0.427   4.370   1.436  0.1126  0.0691 -0.2195
 9435TIP3   OH228268   7.148   3.336   3.924  0.3453 -0.3727  0.4989
 9435TIP3    H128269   7.241   3.351   3.943  0.0393  2.3369  0.3140
 9435TIP3    H228270   7.145   3.249   3.885  2.9609 -0.1971 -0.3010
 9436TIP3   OH228271   1.218   2.145   1.962 -0.5258  0.3914  0.7946
 9436TIP3    H128272   1.307   2.116   1.945 -0.6106 -0.0907  1.1559
 9436TIP3    H228273   1.181   2.078   2.020 -0.1919  2.0154  3.0342
 9437TIP3   OH228274   5.130   2.000   4.181 -0.2887 -0.6672  0.3906
 9437TIP3    H128275   5.039   1.973   4.168 -0.4357 -0.4537  0.9174
 9437TIP3    H228276   5.182   1.927   4.149 -0.6678 -1.5548  1.6843
 9438TIP3   OH228277   6.187   6.075   0.990  0.4430  0.0037  0.2143
 9438TIP3    H128278   6.273   6.049   1.022  0.2889  0.7082  1.2533
 9438TIP3    H228279   6.137   6.096   1.069 -0.3462  0.6166 -0.4246
 9439TIP3   OH228280   1.826   5.269   3.549 -0.4469  0.0374 -0.0144
 9439TIP3    H128281   1.897   5.307   3.497 -1.2619  0.9897 -0.4520
 9439TIP3    H228282   1.846   5.176   3.553 -0.7893 -0.2094 -2.7217
 9440TIP3   OH228283   1.097   1.138   0.126  0.3932 -0.0227  1.1209
 9440TIP3    H128284   1.002   1.143   0.112  0.5465  0.9355  0.3051
 9440TIP3    H228285   1.132   1.113   0.041  0.8804 -0.3011  1.4021
 9441TIP3   OH228286   6.723   4.801   5.061  0.3296 -0.6753 -0.3431
 9441TIP3    H128287   6.741   4.888   5.024  0.3790 -0.1273  0.9071
 9441TIP3    H228288   6.654   4.765   5.005  1.3929 -0.4968 -1.8240
 9442TIP3   OH228289   4.039   1.925   3.241 -0.6137 -0.2893 -0.0784
 9442TIP3    H128290   4.108   1.982   3.273 -0.7959 -1.4299  2.6276
 9442TIP3    H228291   4.081   1.873   3.173  1.0474 -0.4662  1.0074
 9443TIP3   OH228292   6.100   0.339   0.747 -0.2531  0.1595 -0.4928
 9443TIP3    H128293   6.006   0.326   0.735  0.0394 -1.0606 -1.6022
 9443TIP3    H228294   6.133   0.254   0.775  0.8733 -0.1157 -2.5128
 9444TIP3   OH228295   5.879   5.102   5.584 -0.3290  0.0228  0.7297
 9444TIP3    H128296   5.902   5.036   5.649  0.2291 -0.1608  0.3494
 9444TIP3    H228297   5.918   5.071   5.502 -0.6468  0.4731  0.3968
 9445TIP3   OH228298   0.121   5.855   3.687  0.1977 -0.5352  0.2638
 9445TIP3    H128299   0.055   5.799   3.646  0.5026 -0.5901 -0.1469
 9445TIP3    H228300   0.080   5.941   3.692 -0.2160 -0.7499  0.7607
 9446TIP3   OH228301   3.357   3.812   5.447  0.0974  0.4563  0.0515
 9446TIP3    H128302   3.303   3.853   5.379 -0.4011  1.2635  0.9216
 9446TIP3    H228303   3.323   3.847   5.529  0.2966 -0.9632  0.7720
 9447TIP3   OH228304   7.186   3.048   5.875  0.2009 -0.6230 -0.2294
 9447TIP3    H128305   7.102   3.010   5.848  0.4650 -0.2515 -1.6512
 9447TIP3    H228306   7.203   3.116   5.810  1.1506 -0.0545  0.5997
 9448TIP3   OH228307   6.628   6.775   5.784 -0.3043  0.2304 -0.2505
 9448TIP3    H128308   6.582   6.730   5.713 -0.5871 -0.3559  0.2964
 9448TIP3    H228309   6.721   6.769   5.760 -0.3714 -0.3020 -0.3800
 9449TIP3   OH228310   6.387   3.686   4.958 -0.5316  0.4932  0.9374
 9449TIP3    H128311   6.298   3.661   4.933 -0.8485  0.5076  1.9873
 9449TIP3    H228312   6.433   3.699   4.875 -0.9760 -1.3598  0.3702
 9450TIP3   OH228313   5.770   1.161   4.650  0.2724  0.0449 -0.3343
 9450TIP3    H128314   5.699   1.210   4.692  0.2848 -0.3979  0.2184
 9450TIP3    H228315   5.832   1.228   4.621 -0.5507  0.4655 -1.1760
 9451TIP3   OH228316   0.471   1.877   0.424 -0.2693 -0.2346 -0.0415
 9451TIP3    H128317   0.496   1.788   0.450  1.9490 -0.1187 -1.5052
 9451TIP3    H228318   0.548   1.911   0.379 -0.8047  2.7015  1.0388
 9452TIP3   OH228319   1.705   3.064   1.516  0.5584 -0.1337 -0.0479
 9452TIP3    H128320   1.754   3.009   1.456  0.9081 -0.4191  0.4854
 9452TIP3    H228321   1.731   3.033   1.603 -1.9044 -1.5079  0.2817
 9453TIP3   OH228322   2.623   4.755   0.775 -0.4758  0.0151 -0.3682
 9453TIP3    H128323   2.545   4.701   0.769 -0.2385 -0.2412 -1.3522
 9453TIP3    H228324   2.650   4.768   0.684  1.6167 -1.3606 -0.0206
 9454TIP3   OH228325   6.079   2.065   0.739 -0.0060  0.5844 -0.0259
 9454TIP3    H128326   6.038   2.014   0.669  1.4093  0.3565 -0.7134
 9454TIP3    H228327   6.006   2.115   0.777 -0.9948 -0.1335 -0.9018
 9455TIP3   OH228328   0.365   1.205   5.130 -0.3843  0.0773 -0.0811
 9455TIP3    H128329   0.309   1.247   5.195  0.2633  1.0911 -0.1489
 9455TIP3    H228330   0.378   1.271   5.062 -0.0278 -0.5283 -0.6203
 9456TIP3   OH228331   2.273   0.078   5.433  0.2084 -0.7482  0.1872
 9456TIP3    H128332   2.322   0.157   5.410 -0.1640 -0.0319  1.7440
 9456TIP3    H228333   2.185   0.095   5.399  0.0353 -0.3202  0.8301
 9457TIP3   OH228334   3.310   3.311   3.603  0.0402  0.0091  0.3431
 9457TIP3    H128335   3.350   3.251   3.666  0.6035  1.4655  1.4328
 9457TIP3    H228336   3.382   3.366   3.574 -0.5255  0.3781 -0.3985
 9458TIP3   OH228337   0.370   1.306   4.626 -0.2081  0.0808 -0.3160
 9458TIP3    H128338   0.345   1.340   4.712 -0.3565 -1.0859  0.1143
 9458TIP3    H228339   0.333   1.218   4.623  0.9530 -0.4063 -1.0308
 9459TIP3   OH228340   6.216   5.143   0.554 -0.0383  0.0977  0.2723
 9459TIP3    H128341   6.288   5.114   0.498 -0.4928 -1.1499  0.3152
 9459TIP3    H228342   6.174   5.063   0.583 -0.5544  0.7630  1.4463
 9460TIP3   OH228343   4.903   0.530   4.243  0.4486  0.2161  0.1544
 9460TIP3    H128344   4.824   0.557   4.196 -0.6152 -0.5141  1.4375
 9460TIP3    H228345   4.969   0.594   4.218 -0.9653  1.7631  0.2055
 9461TIP3   OH228346   1.152   5.913   1.498  0.3400  0.3521  0.2486
 9461TIP3    H128347   1.184   5.910   1.408  0.5853 -1.7559  0.3487
 9461TIP3    H228348   1.075   5.970   1.494  1.2677  1.5854 -0.9459
 9462TIP3   OH228349   0.404   4.470   2.232  0.2510 -0.2192 -0.1566
 9462TIP3    H128350   0.449   4.508   2.307 -1.2696  0.8808  0.2532
 9462TIP3    H228351   0.416   4.534   2.162  0.5626 -0.6196 -0.4724
 9463TIP3   OH228352   5.429   3.931   3.738  0.4812 -0.0219  0.1694
 9463TIP3    H128353   5.338   3.930   3.768  0.6896  0.0166  0.8195
 9463TIP3    H228354   5.437   3.851   3.685 -0.2115  0.5183 -0.7755
 9464TIP3   OH228355   1.915   1.310   0.767 -0.0742 -0.0716  0.3540
 9464TIP3    H128356   1.934   1.232   0.819  2.1119  0.3424  0.2811
 9464TIP3    H228357   1.883   1.375   0.830 -0.1288 -0.4407  0.7061
 9465TIP3   OH228358   3.107   0.690   1.276  0.5787 -0.2785 -0.6413
 9465TIP3    H128359   3.019   0.655   1.286  0.4844  0.4243  1.6007
 9465TIP3    H228360   3.102   0.778   1.315  2.5865 -0.7887  0.9225
 9466TIP3   OH228361   1.533   1.408   4.078 -0.0347  0.7656  0.2286
 9466TIP3    H128362   1.437   1.414   4.084 -0.0936 -0.3675  0.8198
 9466TIP3    H228363   1.548   1.333   4.020  0.4767  0.3266  0.9133
 9467TIP3   OH228364   5.596   1.133   3.883  0.2344  0.1304 -0.3299
 9467TIP3    H128365   5.644   1.211   3.854  3.1363 -0.6802  1.7924
 9467TIP3    H228366   5.623   1.064   3.822 -1.4763  0.4497 -1.5349
 9468TIP3   OH228367   4.450   2.472   1.670 -0.3000 -0.9685 -0.1174
 9468TIP3    H128368   4.467   2.477   1.576  0.0676  0.0142 -0.0068
 9468TIP3    H228369   4.376   2.411   1.678 -2.5610  1.4025 -1.3467
 9469TIP3   OH228370   0.647   5.233   1.483  0.5019  0.2126  0.2454
 9469TIP3    H128371   0.604   5.199   1.562 -0.1627  1.6325  0.5286
 9469TIP3    H228372   0.719   5.286   1.516  0.7209  0.1531 -0.1318
 9470TIP3   OH228373   6.858   2.140   1.331  0.2703 -0.4750 -0.0899
 9470TIP3    H128374   6.836   2.187   1.411  0.6613  0.0405 -0.2812
 9470TIP3    H228375   6.775   2.132   1.284  0.3581  0.8646 -0.4964
 9471TIP3   OH228376   0.500   1.779   1.620  0.1536  0.2113 -0.4939
 9471TIP3    H128377   0.562   1.829   1.568  1.5111 -0.5576  0.3253
 9471TIP3    H228378   0.503   1.691   1.583  1.1598 -0.3554  0.8496
 9472TIP3   OH228379   5.549   5.275   1.103 -0.5622 -0.2253 -0.1719
 9472TIP3    H128380   5.502   5.217   1.043 -1.0617  0.0404 -0.0452
 9472TIP3    H228381   5.641   5.258   1.086 -0.6687  0.6947 -1.8608
 9473TIP3   OH228382   3.780   6.339   5.659  0.2155  0.8531 -0.0641
 9473TIP3    H128383   3.686   6.334   5.677  0.3383 -0.0867  0.3135
 9473TIP3    H228384   3.791   6.291   5.577  0.8151 -1.9405  1.5510
 9474TIP3   OH228385   0.667   5.568   0.647 -0.0551 -0.0808  0.1415
 9474TIP3    H128386   0.664   5.478   0.614  2.2333  0.6308 -2.3632
 9474TIP3    H228387   0.746   5.570   0.701 -0.8995  0.1211  1.4138
 9475TIP3   OH228388   4.848   3.280   2.057 -0.3693  0.1939 -0.1567
 9475TIP3    H128389   4.803   3.364   2.056  1.4122  1.1977  0.4127
 9475TIP3    H228390   4.800   3.226   1.994 -3.1196  0.7541  1.3068
 9476TIP3   OH228391   2.319   2.197   4.341  0.3127 -0.3626  0.0001
 9476TIP3    H128392   2.253   2.130   4.358  1.4296 -1.2345  1.0824
 9476TIP3    H228393   2.344   2.230   4.427  1.4645 -0.2386 -0.3565
 9477TIP3   OH228394   5.975   0.101   0.630  0.6571  0.1947 -0.2243
 9477TIP3    H128395   6.036   0.077   0.700  0.8663 -0.7460 -0.7125
 9477TIP3    H228396   5.888   0.090   0.670  0.7249 -1.8289 -0.5238
 9478TIP3   OH228397   7.021   6.155   1.756  0.0775 -0.7099 -0.3382
 9478TIP3    H128398   7.074   6.109   1.691 -1.8056 -0.7462 -1.9327
 9478TIP3    H228399   7.021   6.096   1.832  0.6389 -1.6346 -1.0262
 9479TIP3   OH228400   6.650   1.912   4.308 -0.0262  0.1966 -0.0633
 9479TIP3    H128401   6.636   1.854   4.233 -0.2406  1.3748 -0.9541
 9479TIP3    H228402   6.736   1.950   4.294 -0.1863  0.6383  0.1407
 9480TIP3   OH228403   4.543   2.976   1.613 -0.2518 -0.4635 -0.0604
 9480TIP3    H128404   4.479   2.933   1.669 -0.2459 -0.5808 -0.1415
 9480TIP3    H228405   4.583   3.043   1.669 -2.6911  1.8679 -0.8848
 9481TIP3   OH228406   3.188   1.247   4.126  0.8421  0.0074 -0.1262
 9481TIP3    H128407   3.195   1.282   4.037 -2.4703  0.0023 -0.5168
 9481TIP3    H228408   3.258   1.182   4.132  0.3838 -0.9362 -3.2342
 9482TIP3   OH228409   1.283  -0.014   4.761 -0.1731 -0.3947  0.4847
 9482TIP3    H128410   1.231   0.058   4.797  0.3113  0.8523 -1.1944
 9482TIP3    H228411   1.282   0.001   4.666  1.9393 -1.2274  0.2831
 9483TIP3   OH228412   3.276   0.249   3.902 -0.2715 -0.1274 -0.5839
 9483TIP3    H128413   3.259   0.252   3.996  3.1364 -0.8056  0.1901
 9483TIP3    H228414   3.243   0.164   3.874 -0.7982 -0.1603  0.1243
 9484TIP3   OH228415   1.598   6.226   3.832 -0.7158  0.4048 -0.0260
 9484TIP3    H128416   1.538   6.188   3.897 -0.5402  0.0838 -0.0472
 9484TIP3    H228417   1.553   6.212   3.748 -0.4105 -0.2444 -0.0867
 9485TIP3   OH228418   7.125   4.458   3.902 -0.0453 -0.2056  0.0637
 9485TIP3    H128419   7.142   4.406   3.823 -0.8801  1.9526 -1.6341
 9485TIP3    H228420   7.048   4.510   3.881 -0.4104  0.3213  2.4096
 9486TIP3   OH228421   2.347   1.213   1.322  0.8049 -0.0791 -0.6332
 9486TIP3    H128422   2.310   1.165   1.249  1.1262 -2.0142  0.4037
 9486TIP3    H228423   2.401   1.149   1.369 -1.2001  0.3852  2.6228
 9487TIP3   OH228424   2.831   4.472   1.816 -0.6402 -0.5090  0.1907
 9487TIP3    H128425   2.768   4.504   1.752 -0.9984 -3.8255 -1.3413
 9487TIP3    H228426   2.901   4.433   1.764  2.1401  1.8682  1.8724
 9488TIP3   OH228427   3.747   1.214   1.245  0.3774  0.1648 -0.3704
 9488TIP3    H128428   3.721   1.304   1.228  0.9727 -0.0589 -2.7868
 9488TIP3    H228429   3.842   1.217   1.257  0.4258 -0.1595 -0.6555
 9489TIP3   OH228430   2.941   5.696   0.305 -0.0116  0.4929 -0.1930
 9489TIP3    H128431   2.873   5.699   0.238 -1.3679  1.2568  1.1453
 9489TIP3    H228432   2.967   5.604   0.310 -2.5949 -0.2662  0.7965
 9490TIP3   OH228433   1.185   6.174   4.397  0.3609  0.4780  0.5315
 9490TIP3    H128434   1.233   6.100   4.434  0.1535  0.8374  1.5415
 9490TIP3    H228435   1.194   6.243   4.462 -0.2303  1.0436  0.0219
 9491TIP3   OH228436   0.107   3.670   5.075 -0.2226 -1.1350  0.3082
 9491TIP3    H128437   0.142   3.745   5.028  0.7677 -1.3555  0.6683
 9491TIP3    H228438   0.045   3.707   5.138  0.2886 -0.6161  0.5103
 9492TIP3   OH228439   6.426   0.192   0.100 -0.5435  0.1738 -0.0702
 9492TIP3    H128440   6.393   0.106   0.126 -1.1907  0.3697 -0.2113
 9492TIP3    H228441   6.368   0.254   0.145  0.3903  0.5463  0.6335
 9493TIP3   OH228442   6.765   3.243   2.013 -0.2815  0.2792 -0.3648
 9493TIP3    H128443   6.778   3.171   1.951  1.8512  0.5679 -0.3273
 9493TIP3    H228444   6.736   3.316   1.959  0.5391  0.2368 -0.8842
 9494TIP3   OH228445   0.660   0.508   5.430  0.7008 -0.8723  0.3772
 9494TIP3    H128446   0.692   0.528   5.518  0.5960 -0.8848  0.4179
 9494TIP3    H228447   0.641   0.414   5.432 -0.0210 -0.7291  0.5708
 9495TIP3   OH228448   0.239   0.221   0.307 -0.2142 -0.6520  0.1007
 9495TIP3    H128449   0.164   0.165   0.287  0.0449 -0.3965 -1.8516
 9495TIP3    H228450   0.252   0.271   0.226  1.5506 -0.1088  0.6928
 9496TIP3   OH228451   5.889   5.829   5.297 -0.0668 -0.1754 -0.2220
 9496TIP3    H128452   5.845   5.913   5.311 -0.3452 -0.7088  2.8201
 9496TIP3    H228453   5.981   5.851   5.283 -0.1933  0.6475  0.2140
 9497TIP3   OH228454   1.129   4.396   2.914  0.1146 -0.1248 -0.1215
 9497TIP3    H128455   1.102   4.316   2.870 -1.1828 -0.5498  1.3466
 9497TIP3    H228456   1.175   4.366   2.993 -3.5011  0.3403  2.4084
 9498TIP3   OH228457   6.851   6.236   5.421 -0.1328  0.3415 -0.3284
 9498TIP3    H128458   6.858   6.186   5.340  1.5569 -1.2162  0.7028
 9498TIP3    H228459   6.842   6.169   5.490  0.5117  1.5148  0.9552
 9499TIP3   OH228460   0.209   5.850   2.419  0.2275 -0.4116 -0.2140
 9499TIP3    H128461   0.241   5.810   2.499  0.5439 -1.1570 -0.7075
 9499TIP3    H228462   0.184   5.777   2.363 -1.1584  0.1255 -0.3292
 9500TIP3   OH228463   5.480   5.860   3.872 -0.0307 -0.0677 -0.9373
 9500TIP3    H128464   5.436   5.782   3.906 -0.8619  1.8089  2.7342
 9500TIP3    H228465   5.424   5.889   3.799 -1.4423 -1.1440 -0.3332
 9501TIP3   OH228466   1.384   1.312   3.540 -0.0460  0.4020  0.0123
 9501TIP3    H128467   1.406   1.405   3.534 -0.9585  0.7128  1.1028
 9501TIP3    H228468   1.295   1.305   3.505 -0.1174  0.0000  0.2594
 9502TIP3   OH228469   3.669   0.098   3.607  0.1141  0.1481 -0.0691
 9502TIP3    H128470   3.657   0.012   3.648 -0.5829 -0.0335 -0.6178
 9502TIP3    H228471   3.718   0.149   3.671  0.0211 -0.4729  0.5118
 9503TIP3   OH228472   3.713   4.998   2.373 -0.3963  0.7575 -0.2629
 9503TIP3    H128473   3.664   4.916   2.376  1.3620 -0.3995 -1.3300
 9503TIP3    H228474   3.646   5.066   2.379 -1.7667 -0.6485  3.2569
 9504TIP3   OH228475   2.853   1.590   5.633  0.0119 -0.0073  0.1363
 9504TIP3    H128476   2.809   1.557   5.554 -0.9186  1.2503  0.0972
 9504TIP3    H228477   2.913   1.656   5.601 -1.8430  2.0123  0.5764
 9505TIP3   OH228478   7.137   3.729   1.061  0.4285  0.0866 -0.6318
 9505TIP3    H128479   7.102   3.670   1.127  0.4471 -0.7648 -1.3734
 9505TIP3    H228480   7.066   3.741   0.998  1.1392 -0.9754 -1.6877
 9506TIP3   OH228481   1.695   6.367   1.677 -0.1738  0.5917  0.9359
 9506TIP3    H128482   1.612   6.345   1.634 -0.1874  1.2131  0.6324
 9506TIP3    H228483   1.738   6.283   1.689 -0.3791  0.3577  0.1254
 9507TIP3   OH228484   1.152   6.582   1.838 -0.4490 -0.1781 -0.4781
 9507TIP3    H128485   1.182   6.627   1.917 -0.4888 -1.4649  0.2853
 9507TIP3    H228486   1.074   6.632   1.811 -1.1711 -0.4576  1.0136
 9508TIP3   OH228487   0.569   4.313   1.805 -0.0517 -0.0491  0.4148
 9508TIP3    H128488   0.485   4.358   1.796  0.1952  0.4547  0.6021
 9508TIP3    H228489   0.634   4.379   1.781  0.5050  0.6212  3.4217
 9509TIP3   OH228490   4.804   1.315   4.196 -0.3164  0.1390  0.2637
 9509TIP3    H128491   4.810   1.327   4.101 -0.9833  1.8663  0.4103
 9509TIP3    H228492   4.774   1.224   4.206  0.1033 -0.1914 -1.1523
 9510TIP3   OH228493   3.696   4.662   2.738  0.0330  0.0414  0.4656
 9510TIP3    H128494   3.649   4.649   2.655  2.5981 -2.5010 -0.7892
 9510TIP3    H228495   3.640   4.620   2.804 -0.3414 -1.3518 -0.6815
 9511TIP3   OH228496   1.965   5.889   4.890  0.0067  0.0417 -0.5691
 9511TIP3    H128497   2.030   5.825   4.917 -0.0769  1.0737  2.3661
 9511TIP3    H228498   1.882   5.841   4.888  0.3370 -0.5167 -1.0738
 9512TIP3   OH228499   6.895   2.720   2.123  0.4915 -0.0166  0.3090
 9512TIP3    H128500   6.815   2.767   2.145  0.5899 -0.1180  0.9208
 9512TIP3    H228501   6.965   2.781   2.147  0.6683 -0.9894  2.5342
 9513TIP3   OH228502   6.877   2.715   1.079  0.2769  0.4689 -0.1219
 9513TIP3    H128503   6.873   2.619   1.072  1.4879  0.5073 -2.4203
 9513TIP3    H228504   6.795   2.740   1.122  0.2820 -1.6224  1.2725
 9514TIP3   OH228505   6.504   2.708   4.722  0.5108 -0.3497 -0.2167
 9514TIP3    H128506   6.436   2.767   4.690 -1.5874 -1.4638  1.9093
 9514TIP3    H228507   6.559   2.763   4.778 -0.3102  0.0256  0.2479
 9515TIP3   OH228508   3.961   0.873   0.817  0.1618  0.0669  0.1522
 9515TIP3    H128509   3.986   0.945   0.876  1.0638 -1.1059  1.2619
 9515TIP3    H228510   3.968   0.794   0.871 -0.6530 -0.8907 -1.0757
 9516TIP3   OH228511   3.173   4.264   1.064  0.6245 -0.7354  0.0693
 9516TIP3    H128512   3.205   4.301   0.982 -0.3917  0.2054  0.0716
 9516TIP3    H228513   3.172   4.169   1.049  0.6629 -0.5884 -0.9281
 9517TIP3   OH228514   5.281   2.225   1.828 -0.1626  0.1971 -0.3374
 9517TIP3    H128515   5.354   2.285   1.842  0.7406 -0.9873  0.2035
 9517TIP3    H228516   5.219   2.246   1.898 -0.6827  1.6359 -1.1743
 9518TIP3   OH228517   5.079   2.839   3.178  0.0007 -0.0588 -0.0383
 9518TIP3    H128518   5.003   2.868   3.129 -2.2335 -4.1167  0.5738
 9518TIP3    H228519   5.139   2.804   3.112  0.2806  0.9545 -0.3343
 9519TIP3   OH228520   3.518   1.541   2.927 -0.2450  0.3839 -0.2501
 9519TIP3    H128521   3.536   1.471   2.864 -0.5461 -0.2994  0.4090
 9519TIP3    H228522   3.582   1.609   2.907 -0.2226  0.0970 -1.1743
 9520TIP3   OH228523   0.834   6.062   4.021  0.2557  0.3023  0.2835
 9520TIP3    H128524   0.844   6.157   4.012  0.5879  0.1169 -1.7033
 9520TIP3    H228525   0.906   6.026   3.969 -2.4156 -1.0263 -2.8691
 9521TIP3   OH228526   1.357   4.927   3.499  0.7825  0.0627 -0.1542
 9521TIP3    H128527   1.389   4.956   3.414 -0.1948  0.3644 -0.4339
 9521TIP3    H228528   1.341   5.008   3.548  0.5663 -0.0795  0.0165
 9522TIP3   OH228529   1.022   3.187   4.541  0.0845 -0.0724 -0.2203
 9522TIP3    H128530   0.978   3.123   4.597  0.0471  0.7768  0.7768
 9522TIP3    H228531   1.105   3.145   4.516 -0.9266 -1.3823 -1.4893
 9523TIP3   OH228532   2.776   6.512   4.906  0.3693 -0.3269  0.3767
 9523TIP3    H128533   2.733   6.462   4.976  0.1403  0.3472  0.7300
 9523TIP3    H228534   2.740   6.476   4.825 -0.3980 -0.2046  0.6476
 9524TIP3   OH228535   2.266   4.090   3.277 -0.0427  0.3181 -0.8235
 9524TIP3    H128536   2.251   4.085   3.182  0.2200 -0.0238 -0.8504
 9524TIP3    H228537   2.190   4.046   3.315 -1.3036  2.4240 -0.7688
 9525TIP3   OH228538   5.715   1.701   1.016  0.3673  0.4733 -0.5879
 9525TIP3    H128539   5.640   1.655   0.980  1.2639 -1.8389  0.3345
 9525TIP3    H228540   5.763   1.732   0.938  1.8622 -3.7398 -1.6538
 9526TIP3   OH228541   0.086   6.236   4.394  0.2921  0.1959 -0.2452
 9526TIP3    H128542   0.170   6.198   4.421  0.2136  1.1125  1.4652
 9526TIP3    H228543   0.072   6.309   4.455 -1.4301  0.4841 -0.9210
 9527TIP3   OH228544   5.387   1.839   1.247 -0.2039  0.0761 -0.2863
 9527TIP3    H128545   5.352   1.883   1.325  1.1752  1.1509 -0.2262
 9527TIP3    H228546   5.312   1.792   1.210 -0.8343 -0.6504  1.7978
 9528TIP3   OH228547   2.883   1.336   0.798  0.3636 -0.4306  0.6527
 9528TIP3    H128548   2.809   1.304   0.849  1.3450  0.1280  2.5092
 9528TIP3    H228549   2.933   1.257   0.775 -0.9731 -0.8609 -1.0092
 9529TIP3   OH228550   3.025   3.327   1.913 -0.2331  0.1670 -0.2738
 9529TIP3    H128551   3.019   3.231   1.911 -0.0596  0.1634 -1.0672
 9529TIP3    H228552   2.938   3.356   1.939 -0.3707 -0.2000 -0.3182
 9530TIP3   OH228553   3.618   1.337   5.389  0.2300 -0.1764 -0.0774
 9530TIP3    H128554   3.711   1.336   5.410  0.4793 -1.8887 -1.0119
 9530TIP3    H228555   3.611   1.279   5.313 -1.4347  0.9005 -0.7904
 9531TIP3   OH228556   6.446   3.735   4.680 -0.5135 -0.1262  0.6056
 9531TIP3    H128557   6.524   3.737   4.625 -0.1171  0.5092  1.1828
 9531TIP3    H228558   6.402   3.819   4.663 -2.5730 -1.5372 -1.8139
 9532TIP3   OH228559   4.287   5.432   0.284  0.2813 -0.1195  0.5517
 9532TIP3    H128560   4.373   5.441   0.325  0.1001  0.3477  0.8437
 9532TIP3    H228561   4.306   5.399   0.196  0.5360 -3.3928  1.7162
 9533TIP3   OH228562   1.740   5.849   3.876 -0.4301 -0.1996  0.2314
 9533TIP3    H128563   1.714   5.757   3.880 -0.4551 -0.1589  1.0675
 9533TIP3    H228564   1.672   5.892   3.824  0.4447 -0.9428 -1.6268
 9534TIP3   OH228565   6.222   3.465   5.497  0.3201  0.5987  0.6585
 9534TIP3    H128566   6.183   3.423   5.574  3.7858  0.3427  2.4423
 9534TIP3    H228567   6.252   3.393   5.443 -0.8557  0.8006 -0.3007
 9535TIP3   OH228568   1.925   0.595   5.000 -0.1657  0.7583  0.3579
 9535TIP3    H128569   1.913   0.662   4.933  0.8609  0.9413  0.3503
 9535TIP3    H228570   1.995   0.539   4.967  2.1149  2.2627  2.3256
 9536TIP3   OH228571   5.687   0.973   4.466 -0.8603 -0.4581  0.8871
 9536TIP3    H128572   5.718   1.035   4.531  0.9033 -0.0167 -0.3005
 9536TIP3    H228573   5.664   1.026   4.390 -0.6761 -1.1292  0.3481
 9537TIP3   OH228574   0.932   1.654   4.743  0.2112 -0.8441 -0.1619
 9537TIP3    H128575   1.011   1.706   4.756  0.1946 -0.2847 -2.0205
 9537TIP3    H228576   0.964   1.569   4.712  0.1021 -0.3659 -1.6713
 9538TIP3   OH228577   4.534   6.169   4.396 -0.0772 -0.2823  0.0240
 9538TIP3    H128578   4.621   6.145   4.429  0.0485 -0.3883 -0.3669
 9538TIP3    H228579   4.541   6.262   4.377  0.0881 -0.3789 -0.4067
 9539TIP3   OH228580   0.241   3.492   1.255  0.1681  0.4475  0.3441
 9539TIP3    H128581   0.173   3.487   1.322  1.1482 -0.3166  1.3204
 9539TIP3    H228582   0.258   3.585   1.245 -0.0840  0.5779  1.0727
 9540TIP3   OH228583   2.732   0.560   4.947 -0.3190  0.0554  0.3290
 9540TIP3    H128584   2.759   0.499   4.878  0.5778 -3.7372  3.6213
 9540TIP3    H228585   2.638   0.569   4.935 -0.0922  0.1835 -1.7912
 9541TIP3   OH228586   1.294   1.252   0.301 -0.3074  0.0774 -0.3629
 9541TIP3    H128587   1.215   1.225   0.254  0.2834  1.6760 -2.4103
 9541TIP3    H228588   1.361   1.190   0.273  0.0321  0.9993 -1.6336
 9542TIP3   OH228589   4.277   2.693   3.363 -0.5610 -0.0351 -0.1141
 9542TIP3    H128590   4.257   2.710   3.455  1.0857 -3.0021  0.9390
 9542TIP3    H228591   4.192   2.688   3.321 -1.4258  0.0908  1.5257
 9543TIP3   OH228592   6.331   4.526   0.478  0.1988  0.8769  0.2235
 9543TIP3    H128593   6.403   4.518   0.540  1.3141  0.0416 -1.1225
 9543TIP3    H228594   6.303   4.435   0.462 -0.4832  1.1228 -0.0343
 9544TIP3   OH228595   3.400   3.915   2.699  0.3724  1.0534 -0.5855
 9544TIP3    H128596   3.441   3.883   2.619  0.8811 -0.5906  0.2680
 9544TIP3    H228597   3.353   3.839   2.733  1.1185  1.3574  1.2413
 9545TIP3   OH228598   2.313   1.262   4.847  0.2640  0.5772  0.2031
 9545TIP3    H128599   2.365   1.265   4.928 -1.3525  1.0337  1.2672
 9545TIP3    H228600   2.260   1.183   4.857  0.5058  0.2913 -0.7271
 9546TIP3   OH228601   6.861   5.813   0.690 -0.7074  0.2924 -0.0569
 9546TIP3    H128602   6.817   5.739   0.648  0.7637 -0.9527  0.4982
 9546TIP3    H228603   6.843   5.803   0.783 -1.2357  1.1779 -0.0448
 9547TIP3   OH228604   6.346   2.639   0.433 -0.6249  0.5499  0.4060
 9547TIP3    H128605   6.325   2.604   0.347 -0.3374  1.6545 -0.1342
 9547TIP3    H228606   6.403   2.574   0.473 -0.8537 -0.0229 -0.1929
 9548TIP3   OH228607   5.318   3.259   3.986  0.6392  0.3995 -0.1828
 9548TIP3    H128608   5.344   3.340   4.030  1.7156 -0.7654  1.4497
 9548TIP3    H228609   5.228   3.243   4.016  1.2894 -0.2725  1.5553
 9549TIP3   OH228610   1.051   1.405   4.699 -0.3511 -1.1734  0.0562
 9549TIP3    H128611   0.994   1.335   4.666 -0.2760 -1.8265  1.2200
 9549TIP3    H228612   1.100   1.363   4.770  0.3407 -0.1613  0.1863
 9550TIP3   OH228613   6.463   3.164   2.026  0.1361  0.5834 -0.0277
 9550TIP3    H128614   6.419   3.085   2.059 -1.4550  1.1926 -0.5779
 9550TIP3    H228615   6.501   3.205   2.104 -1.2684  0.6140  0.6777
 9551TIP3   OH228616   3.704   6.138   2.529  0.0794  0.1207 -0.3832
 9551TIP3    H128617   3.715   6.233   2.532  1.1102  0.0079 -0.2245
 9551TIP3    H228618   3.759   6.105   2.600 -0.2487 -0.5965 -0.4566
 9552TIP3   OH228619   1.771   2.582   4.909  0.1571  0.1634  0.1596
 9552TIP3    H128620   1.721   2.520   4.856  0.9663 -0.0022 -0.4264
 9552TIP3    H228621   1.796   2.533   4.987 -0.0385  0.0553  0.1551
 9553TIP3   OH228622   1.109   5.389   0.670  0.0883  0.5493  0.4219
 9553TIP3    H128623   1.099   5.379   0.764 -2.0380  1.7528  0.4021
 9553TIP3    H228624   1.138   5.303   0.639  1.3303  0.2900  2.1923
 9554TIP3   OH228625   1.335   4.390   2.013  0.3111 -0.5287 -0.1025
 9554TIP3    H128626   1.412   4.439   1.985  0.3141  0.4745  1.5613
 9554TIP3    H228627   1.268   4.457   2.028 -0.5261 -1.2806 -0.3479
 9555TIP3   OH228628   1.025   6.127   5.870  0.5084 -0.0674 -0.2804
 9555TIP3    H128629   0.939   6.149   5.907  1.3260  0.2304  1.5243
 9555TIP3    H228630   1.067   6.211   5.855  0.6172 -0.2215 -0.8489
 9556TIP3   OH228631   6.525   3.877   0.266  0.7558 -0.2024  0.2523
 9556TIP3    H128632   6.480   3.921   0.194  1.8376  0.6747  0.0855
 9556TIP3    H228633   6.514   3.784   0.248 -1.6011 -0.0465  0.6141
 9557TIP3   OH228634   3.471   2.158   5.488  0.5406  0.4586  0.6636
 9557TIP3    H128635   3.451   2.130   5.577 -0.1226 -0.8101  0.1343
 9557TIP3    H228636   3.400   2.218   5.466 -0.9366 -1.4600 -0.0125
 9558TIP3   OH228637   4.058   5.722   0.468  0.2898  0.1689  0.3155
 9558TIP3    H128638   4.109   5.749   0.545  0.5345  1.2491 -0.2117
 9558TIP3    H228639   4.024   5.636   0.492  1.0371  0.1248  1.3158
 9559TIP3   OH228640   0.401   0.044   0.059  0.0170 -0.6351  0.0077
 9559TIP3    H128641   0.322  -0.011   0.065  0.4299 -1.0994  4.3276
 9559TIP3    H228642   0.367   0.133   0.066 -0.2938 -0.5583 -1.9307
 9560TIP3   OH228643   6.295   0.610   1.677  0.3230 -0.3607 -0.5288
 9560TIP3    H128644   6.205   0.575   1.680  0.2800 -0.4199 -1.9002
 9560TIP3    H228645   6.301   0.668   1.753 -0.5836 -1.0425  0.0847
 9561TIP3   OH228646   1.316   0.704   3.932  0.3341  0.5745 -0.4189
 9561TIP3    H128647   1.371   0.769   3.889 -0.4192  0.5499 -1.4592
 9561TIP3    H228648   1.246   0.686   3.869  0.2308 -0.8443  0.0615
 9562TIP3   OH228649   6.501   0.995   5.118 -0.1121  0.0753  0.0523
 9562TIP3    H128650   6.480   0.957   5.033 -0.4660 -0.7018  0.4843
 9562TIP3    H228651   6.560   0.932   5.159 -0.6764 -0.0038  0.7548
 9563TIP3   OH228652   5.730   4.488   1.418  0.6818 -0.5956 -0.4051
 9563TIP3    H128653   5.711   4.469   1.510  1.3225 -0.6591 -0.2797
 9563TIP3    H228654   5.818   4.526   1.419  0.8436 -0.9363 -1.0337
 9564TIP3   OH228655   3.800   5.556   0.225  0.2430  0.3039  0.0959
 9564TIP3    H128656   3.838   5.644   0.217  0.7150  0.0544 -0.4172
 9564TIP3    H228657   3.803   5.520   0.137 -2.9720  0.9655 -0.4307
 9565TIP3   OH228658   6.991   1.606   2.542  0.4064 -0.4728  0.1785
 9565TIP3    H128659   7.010   1.577   2.453 -1.2001 -0.4154 -0.2141
 9565TIP3    H228660   6.898   1.584   2.556  1.2849 -3.1552  2.8986
 9566TIP3   OH228661   6.401   1.995   3.671  0.4240  0.0481 -0.1914
 9566TIP3    H128662   6.369   1.953   3.751  1.1210  1.5355  0.9257
 9566TIP3    H228663   6.424   1.923   3.613 -2.3818 -1.0927 -0.0398
 9567TIP3   OH228664   0.052   5.776   0.266  0.2265  0.1753  0.1752
 9567TIP3    H128665  -0.025   5.829   0.286  2.2390  2.9742  0.9903
 9567TIP3    H228666   0.049   5.765   0.171 -0.2189  1.8591 -0.0282
 9568TIP3   OH228667   2.200   0.649   2.471  0.2966 -0.3335  0.1399
 9568TIP3    H128668   2.223   0.647   2.378 -1.4087  1.1897 -0.3631
 9568TIP3    H228669   2.130   0.585   2.480 -0.7797  0.7996 -0.0186
 9569TIP3   OH228670   5.448   0.998   5.141  0.7525  0.4491  0.0000
 9569TIP3    H128671   5.384   1.009   5.070  0.9490 -1.1305 -0.4438
 9569TIP3    H228672   5.503   1.076   5.135  0.6999  0.4037 -1.5336
 9570TIP3   OH228673   4.586   2.406   0.445 -0.3253  0.1480  0.1710
 9570TIP3    H128674   4.505   2.436   0.403 -0.9513 -3.0469 -1.2061
 9570TIP3    H228675   4.564   2.320   0.479  2.7437 -1.3330 -1.2275
 9571TIP3   OH228676   4.312   3.695   2.768 -0.2518 -0.1143  0.3735
 9571TIP3    H128677   4.347   3.782   2.787 -3.0230  0.9170  1.2192
 9571TIP3    H228678   4.341   3.641   2.842 -0.0501  0.5849  0.8162
 9572TIP3   OH228679   4.025   0.807   4.544 -0.4456 -0.1003 -0.6547
 9572TIP3    H128680   4.008   0.901   4.545  0.1619  0.0796  2.4223
 9572TIP3    H228681   4.099   0.797   4.484 -0.6723  1.3337 -1.2295
 9573TIP3   OH228682   0.295   0.074   4.591  0.0263  0.2697  0.4263
 9573TIP3    H128683   0.299   0.009   4.661 -0.9110  0.4833  0.6938
 9573TIP3    H228684   0.207   0.065   4.555  0.5485  0.0420 -0.8551
 9574TIP3   OH228685   6.140   4.891   0.620  0.3118 -0.2693 -0.4371
 9574TIP3    H128686   6.069   4.863   0.677 -0.7202  1.4220 -0.8461
 9574TIP3    H228687   6.130   4.837   0.541 -0.9149  0.3725 -0.7381
 9575TIP3   OH228688   3.168   3.187   5.787 -0.2957  0.2703  0.3808
 9575TIP3    H128689   3.088   3.146   5.820  0.2301 -2.0417 -0.9291
 9575TIP3    H228690   3.230   3.114   5.778  1.4798  1.7466 -0.0421
 9576TIP3   OH228691   2.677   0.839   5.110 -0.4227  0.3008  0.0898
 9576TIP3    H128692   2.747   0.788   5.069 -0.8440  0.6306 -1.1015
 9576TIP3    H228693   2.720   0.917   5.143 -0.2346  0.5678 -0.7617
 9577TIP3   OH228694   4.346   0.017   1.731 -0.3721  0.5967  0.5412
 9577TIP3    H128695   4.309  -0.023   1.810  1.0053  1.8409  1.8867
 9577TIP3    H228696   4.270   0.054   1.685 -1.3651 -1.3798  0.4871
 9578TIP3   OH228697   6.451   5.975   2.618  0.6635 -0.2773 -0.1780
 9578TIP3    H128698   6.444   5.906   2.552  1.6508 -0.2632 -0.3120
 9578TIP3    H228699   6.398   5.943   2.692 -1.2051  0.1167 -1.2762
 9579TIP3   OH228700   0.992   4.051   1.755 -0.4689 -0.6908 -0.2046
 9579TIP3    H128701   0.935   4.101   1.814 -2.2194 -2.0112 -0.6697
 9579TIP3    H228702   1.063   4.111   1.734 -1.3153  0.8116  0.9784
 9580TIP3   OH228703   5.057   2.815   4.573  0.0100 -0.1481 -0.2766
 9580TIP3    H128704   5.131   2.754   4.574 -0.0594 -0.2710 -1.6865
 9580TIP3    H228705   5.010   2.796   4.655  1.4729 -0.1109  0.6105
 9581TIP3   OH228706   5.383   3.132   4.300  0.3980 -0.1716  0.0498
 9581TIP3    H128707   5.428   3.094   4.375 -0.4667 -0.3257  0.5094
 9581TIP3    H228708   5.438   3.110   4.225  0.5318 -1.2877  0.4554
 9582TIP3   OH228709   5.327   1.083   0.098 -0.3164 -0.1991 -0.2030
 9582TIP3    H128710   5.350   1.018   0.031 -2.5790 -0.7548 -0.5154
 9582TIP3    H228711   5.411   1.107   0.137  0.8786 -1.2501 -1.9626
 9583TIP3   OH228712   6.421   4.586   4.586 -0.4126 -0.0972  0.0810
 9583TIP3    H128713   6.433   4.565   4.679  1.8132  0.5962  0.0058
 9583TIP3    H228714   6.418   4.501   4.543 -1.1010 -0.4190  0.7345
 9584TIP3   OH228715   0.214   3.580   0.802  0.0755  0.0672 -0.0700
 9584TIP3    H128716   0.215   3.675   0.789 -0.5473 -0.0935 -1.6316
 9584TIP3    H228717   0.196   3.545   0.714  0.8909 -1.5207  0.3634
 9585TIP3   OH228718   1.621   3.066   2.688  0.0925 -0.3175  0.0709
 9585TIP3    H128719   1.540   3.015   2.678  0.4254 -1.1696  1.4943
 9585TIP3    H228720   1.691   3.005   2.665  0.3981  0.0378  0.0532
 9586TIP3   OH228721   4.671   4.473   4.269 -0.0962  0.8444  0.6016
 9586TIP3    H128722   4.671   4.541   4.337  0.1146  0.8402  0.6063
 9586TIP3    H228723   4.612   4.507   4.202  0.2671  1.1841  0.4527
 9587TIP3   OH228724   5.886   1.769   0.803  0.0527 -0.3644  0.3343
 9587TIP3    H128725   5.971   1.797   0.834 -0.6412  2.2751  0.0516
 9587TIP3    H228726   5.903   1.734   0.715  1.3075 -3.5395  1.6756
 9588TIP3   OH228727   6.744   6.571   4.964  0.4379  0.1864  0.1054
 9588TIP3    H128728   6.815   6.508   4.972  0.2041 -0.1425 -0.3921
 9588TIP3    H228729   6.664   6.519   4.963  0.1555  0.5879  1.1475
 9589TIP3   OH228730   1.153   4.361   3.365 -0.0042 -0.3776  0.1938
 9589TIP3    H128731   1.088   4.431   3.376  0.1099 -0.5279  2.1755
 9589TIP3    H228732   1.105   4.281   3.387 -0.0356 -0.9292 -1.7252
 9590TIP3   OH228733   1.323   5.146   0.025  0.0056  0.1201 -0.2346
 9590TIP3    H128734   1.273   5.222   0.055 -0.2501 -0.5139  0.9799
 9590TIP3    H228735   1.415   5.171   0.038 -0.0397  0.5612 -0.7102
 9591TIP3   OH228736   3.838   4.639   1.166  0.8210 -0.2323 -0.8194
 9591TIP3    H128737   3.881   4.598   1.091  0.2309 -2.8489  0.1789
 9591TIP3    H228738   3.749   4.604   1.165  0.5547  0.3090  0.6660
 9592TIP3   OH228739   4.751   6.551   3.031 -0.0909  0.1461 -0.2003
 9592TIP3    H128740   4.803   6.471   3.039  0.3305  0.4736  0.4241
 9592TIP3    H228741   4.662   6.524   3.050 -0.0058 -0.2427 -0.3385
 9593TIP3   OH228742   5.633   5.198   5.654  0.4264  0.6179 -0.6627
 9593TIP3    H128743   5.623   5.280   5.606  0.6081  2.5991  2.4250
 9593TIP3    H228744   5.719   5.165   5.627  0.0801  1.0270 -2.4364
 9594TIP3   OH228745   3.422   1.798   1.760 -0.5729  0.2633  0.9102
 9594TIP3    H128746   3.362   1.737   1.803 -0.8220 -0.9264 -1.0104
 9594TIP3    H228747   3.369   1.876   1.744 -0.8280  0.2448  1.6289
 9595TIP3   OH228748   1.691   4.798   2.294 -0.5003 -0.7906  0.2455
 9595TIP3    H128749   1.684   4.803   2.390 -2.4439 -0.5224  0.1302
 9595TIP3    H228750   1.665   4.885   2.264 -0.6261 -1.1057 -0.5686
 9596TIP3   OH228751   4.039   2.905   5.618 -0.0234 -0.4257 -0.1881
 9596TIP3    H128752   3.970   2.861   5.568  0.5822 -0.3692 -1.0979
 9596TIP3    H228753   4.119   2.889   5.568  1.1827 -2.8508  2.2133
 9597TIP3   OH228754   2.789   2.002   5.757 -0.0296 -0.0505  0.5408
 9597TIP3    H128755   2.871   2.047   5.777  0.4513 -0.1643 -1.0024
 9597TIP3    H228756   2.771   1.948   5.834  1.4181 -0.1207  0.8564
 9598TIP3   OH228757   1.968   4.876   1.699 -0.7618 -0.4823 -0.2269
 9598TIP3    H128758   1.920   4.950   1.735  0.4979  0.6060 -0.6852
 9598TIP3    H228759   2.059   4.893   1.721 -0.3028 -1.2842 -1.3724
 9599TIP3   OH228760   2.277   0.551   0.856 -0.5425  0.6542  0.3748
 9599TIP3    H128761   2.355   0.594   0.822 -0.4772  0.1931 -0.0701
 9599TIP3    H228762   2.252   0.604   0.932 -0.6506  1.6707 -0.3379
 9600TIP3   OH228763   1.257   5.675   5.289 -0.1292 -0.2954 -0.0238
 9600TIP3    H128764   1.327   5.613   5.269 -0.5974 -1.2349  1.0810
 9600TIP3    H228765   1.242   5.663   5.383 -1.3462  0.3290 -0.1231
 9601TIP3   OH228766   4.403   1.059   5.835  0.8836  0.1549  0.1031
 9601TIP3    H128767   4.475   1.057   5.773  1.4290  1.4394  0.6588
 9601TIP3    H228768   4.328   1.091   5.785  1.7223  2.8579  0.4169
 9602TIP3   OH228769   0.716   4.328   1.384 -0.0504 -0.3010  0.0877
 9602TIP3    H128770   0.687   4.414   1.413 -0.7258 -0.2379 -0.7628
 9602TIP3    H228771   0.781   4.302   1.449 -1.6348 -0.2319  1.7962
 9603TIP3   OH228772   4.081   0.541   4.707  0.4003  0.1174 -0.2489
 9603TIP3    H128773   4.159   0.488   4.690 -0.0637 -0.7901  0.3382
 9603TIP3    H228774   4.110   0.610   4.766  1.1854  1.0132 -1.6301
 9604TIP3   OH228775   0.122   4.811   4.190 -0.1509 -0.3786  0.7874
 9604TIP3    H128776   0.141   4.828   4.098  1.2002 -2.8030  0.5228
 9604TIP3    H228777   0.039   4.854   4.206  0.4709  1.6718 -1.0488
 9605TIP3   OH228778   0.781   0.029   4.909 -0.2670  0.0721  0.4793
 9605TIP3    H128779   0.692   0.059   4.927 -0.0161  1.2935 -0.1506
 9605TIP3    H228780   0.825   0.106   4.873  1.0194 -0.5382  0.6796
 9606TIP3   OH228781   7.003   2.862   5.749 -0.3798  0.1944  0.2510
 9606TIP3    H128782   6.922   2.846   5.798 -1.9869 -0.4728 -2.3793
 9606TIP3    H228783   6.973   2.890   5.663  2.1467 -1.3619 -1.2622
 9607TIP3   OH228784   6.122   6.401   4.036 -0.3332 -0.1054  0.5224
 9607TIP3    H128785   6.202   6.440   4.070  0.6460 -1.3779 -0.2205
 9607TIP3    H228786   6.139   6.389   3.942 -0.5909 -2.1539  0.6796
 9608TIP3   OH228787   1.560   3.978   4.650  0.3280 -0.4196 -0.2238
 9608TIP3    H128788   1.485   3.919   4.637 -0.2836  0.5105 -1.0612
 9608TIP3    H228789   1.565   4.029   4.569 -0.5403  2.1794  1.2270
 9609TIP3   OH228790   5.520   3.224   1.793 -0.3802  0.2262  0.3577
 9609TIP3    H128791   5.515   3.161   1.865  0.4539 -0.0197  0.2084
 9609TIP3    H228792   5.433   3.264   1.791 -0.7786 -0.5791  0.7609
 9610TIP3   OH228793   6.129   0.445   4.043  0.6002  0.2927  0.1485
 9610TIP3    H128794   6.129   0.461   3.949  0.8625 -0.7100 -0.0264
 9610TIP3    H228795   6.123   0.533   4.082  1.5422  0.7830 -0.7806
 9611TIP3   OH228796   1.417   0.532   5.276  0.5393  0.1413  0.1808
 9611TIP3    H128797   1.464   0.454   5.247  1.2302  0.9809 -1.0409
 9611TIP3    H228798   1.451   0.550   5.363  4.1792  1.9447 -1.4287
 9612TIP3   OH228799   2.051   5.452   4.775 -0.3610 -0.2984 -0.1512
 9612TIP3    H128800   2.026   5.476   4.865  1.5605  0.8888  0.1233
 9612TIP3    H228801   2.134   5.405   4.786  0.2045  0.3940 -1.3358
 9613TIP3   OH228802   3.994   1.114   0.932  0.1958  0.5664  0.2468
 9613TIP3    H128803   4.040   1.143   1.011 -1.7325  2.0240  0.9007
 9613TIP3    H228804   4.013   1.181   0.867 -0.9111  1.1447  0.5032
 9614TIP3   OH228805   6.423   6.186   4.517  0.4362 -0.3535 -0.4198
 9614TIP3    H128806   6.367   6.140   4.579  0.4295 -2.8444 -2.1163
 9614TIP3    H228807   6.365   6.247   4.472 -0.0876 -0.2742  0.3474
 9615TIP3   OH228808   3.927   5.984   1.231 -0.0783 -0.6725  0.4890
 9615TIP3    H128809   3.965   5.904   1.195 -0.6256 -0.4447 -0.6308
 9615TIP3    H228810   3.855   6.005   1.172  0.5792  1.1235  0.2577
 9616TIP3   OH228811   3.466   5.107   4.929  0.0520 -0.3443 -0.3834
 9616TIP3    H128812   3.521   5.047   4.980  1.1191  0.5857 -0.4027
 9616TIP3    H228813   3.482   5.193   4.968 -0.3460  0.1432 -1.2674
 9617TIP3   OH228814   0.451   0.430   3.574  0.8742  0.4294 -0.4776
 9617TIP3    H128815   0.411   0.515   3.555  0.9769  0.4585 -0.5618
 9617TIP3    H228816   0.435   0.378   3.495 -0.2867 -0.0395  0.0382
 9618TIP3   OH228817   3.397   1.393   1.840 -0.7258  0.2470 -0.7180
 9618TIP3    H128818   3.342   1.458   1.795 -0.7265 -0.1860 -1.3656
 9618TIP3    H228819   3.474   1.442   1.868 -1.1612  0.7308 -0.3372
 9619TIP3   OH228820   3.523   1.818   1.129  0.1794  0.0679 -0.2676
 9619TIP3    H128821   3.476   1.844   1.050  0.3827  0.1636 -0.3565
 9619TIP3    H228822   3.607   1.861   1.122 -0.6826  2.1368  1.2139
 9620TIP3   OH228823   4.263   1.464   0.991  0.1776 -0.2332 -0.0070
 9620TIP3    H128824   4.193   1.499   0.937 -0.2795 -1.5203 -0.3000
 9620TIP3    H228825   4.279   1.531   1.057 -1.1194  0.2090 -0.1206
 9621TIP3   OH228826   1.795   3.304   1.197 -0.0496  0.3321 -0.1870
 9621TIP3    H128827   1.716   3.359   1.198  0.0034  0.4548  1.9294
 9621TIP3    H228828   1.761   3.215   1.198 -0.1255  0.2567 -2.6528
 9622TIP3   OH228829   0.732   5.102   2.991  0.2142  0.3503 -0.6988
 9622TIP3    H128830   0.734   5.009   3.013 -0.7249  0.2124 -1.1804
 9622TIP3    H228831   0.780   5.144   3.062 -1.1751 -0.2752  0.6427
 9623TIP3   OH228832   3.760   0.147   5.707 -0.3008 -0.2365  0.2645
 9623TIP3    H128833   3.695   0.078   5.690 -1.2465 -0.0613  2.6490
 9623TIP3    H228834   3.843   0.109   5.679 -1.1377 -1.3021 -0.9006
 9624TIP3   OH228835   2.498   6.009   0.282 -0.4084 -0.0007 -0.2519
 9624TIP3    H128836   2.473   5.965   0.200  0.9566 -0.6552 -0.3377
 9624TIP3    H228837   2.415   6.019   0.329 -0.9465 -1.5706 -0.7833
 9625TIP3   OH228838   3.980   2.847   3.234 -0.7920  0.0114 -0.1362
 9625TIP3    H128839   4.026   2.776   3.189 -0.7193 -1.2045  1.7494
 9625TIP3    H228840   4.025   2.926   3.206  0.9519 -0.9485 -0.1801
 9626TIP3   OH228841   3.199   5.982   5.252  0.1770  0.4149 -0.5154
 9626TIP3    H128842   3.204   5.890   5.225 -1.0652 -0.0241  0.6516
 9626TIP3    H228843   3.287   6.002   5.285  0.0729 -0.8324  0.6116
 9627TIP3   OH228844   4.271   2.535   0.771 -0.5710  0.1630 -0.0786
 9627TIP3    H128845   4.317   2.451   0.763 -0.0352  0.6005 -2.3874
 9627TIP3    H228846   4.301   2.586   0.696 -2.0591  1.8711  0.4060
 9628TIP3   OH228847   5.206   3.437   1.902  0.5827 -0.3904  0.6010
 9628TIP3    H128848   5.199   3.364   1.963 -2.0147  1.5430  2.8896
 9628TIP3    H228849   5.136   3.422   1.838  1.3797 -0.9016 -0.1706
 9629TIP3   OH228850   2.765   6.663   3.529  0.6723 -0.3582  0.3888
 9629TIP3    H128851   2.740   6.671   3.621  1.8438  2.0300  0.5821
 9629TIP3    H228852   2.730   6.743   3.488  1.5965 -0.5803 -0.8773
 9630TIP3   OH228853   6.961   3.803   5.565 -0.1643 -0.3193 -0.0991
 9630TIP3    H128854   6.935   3.748   5.490 -2.6576 -0.3656  0.6958
 9630TIP3    H228855   6.958   3.744   5.640  0.9991  0.0371  0.2443
 9631TIP3   OH228856   0.992   6.584   0.607  0.1879  0.0908  0.2264
 9631TIP3    H128857   1.006   6.654   0.543  0.4708  0.2035  0.4117
 9631TIP3    H228858   0.915   6.537   0.574 -0.0100  0.4923  0.1069
 9632TIP3   OH228859   6.283   6.727   2.567 -0.3234 -0.1962 -0.6665
 9632TIP3    H128860   6.304   6.636   2.587 -0.2730 -0.2067 -0.7669
 9632TIP3    H228861   6.188   6.731   2.575 -0.1859  0.1844  1.1406
 9633TIP3   OH228862   1.815   2.020   1.693  0.2836 -0.4942  0.0369
 9633TIP3    H128863   1.740   2.056   1.646  1.8861  0.7730 -1.7196
 9633TIP3    H228864   1.883   2.087   1.684  1.7523 -1.7418  1.2429
 9634TIP3   OH228865   4.213   2.334   2.675  0.1697 -0.0900 -0.2246
 9634TIP3    H128866   4.296   2.290   2.654  0.4288  0.2130  0.1457
 9634TIP3    H228867   4.162   2.328   2.595  1.0464  0.8424 -0.8856
 9635TIP3   OH228868   0.598   4.005   2.661  0.5517 -1.0285  0.8497
 9635TIP3    H128869   0.575   4.015   2.568 -1.4822 -0.7441  1.3353
 9635TIP3    H228870   0.639   4.088   2.684 -0.8853 -0.2453  0.6996
 9636TIP3   OH228871   6.283   5.256   5.297  0.4294 -0.2264  0.0531
 9636TIP3    H128872   6.201   5.306   5.301  0.8514  0.4349  0.5172
 9636TIP3    H228873   6.295   5.237   5.204  0.1328  0.3184 -0.1016
 9637TIP3   OH228874   1.853   2.917   0.915 -0.0297 -0.8519  0.2056
 9637TIP3    H128875   1.909   2.925   0.838  0.6475  0.6331  0.8115
 9637TIP3    H228876   1.764   2.920   0.880  0.2657 -0.6625 -0.5505
 9638TIP3   OH228877   2.116   5.124   3.288 -0.3275  0.4901 -0.3940
 9638TIP3    H128878   2.184   5.061   3.264  1.0309  1.2679  1.2548
 9638TIP3    H228879   2.034   5.077   3.269  0.6061 -2.0470  1.2703
 9639TIP3   OH228880   5.107   0.740   2.267 -0.1392  0.0534 -0.7219
 9639TIP3    H128881   5.195   0.769   2.290  0.2150 -1.5816  0.1248
 9639TIP3    H228882   5.111   0.723   2.173  0.5729 -0.3852 -0.6196
 9640TIP3   OH228883   5.314   3.210   0.504 -0.1561 -0.1674 -0.0420
 9640TIP3    H128884   5.311   3.115   0.515 -0.9631 -0.0864  0.5988
 9640TIP3    H228885   5.224   3.234   0.481 -0.3155  0.5840  1.2643
 9641TIP3   OH228886   0.814   0.362   3.238 -0.7007  0.3347 -0.0859
 9641TIP3    H128887   0.785   0.275   3.267 -0.7532 -0.3694 -2.1162
 9641TIP3    H228888   0.819   0.413   3.319 -3.3879 -0.7331  0.8849
 9642TIP3   OH228889   2.237   3.264   3.725  0.5049  0.9394  0.0543
 9642TIP3    H128890   2.207   3.212   3.651  1.7362 -0.8949  0.7767
 9642TIP3    H228891   2.309   3.317   3.691 -0.8751  2.3963 -0.7312
 9643TIP3   OH228892   3.245   1.816   4.717 -0.4145 -0.6734 -0.1473
 9643TIP3    H128893   3.229   1.742   4.775 -0.6082 -0.1831  0.4317
 9643TIP3    H228894   3.340   1.816   4.705 -0.5386 -2.0755 -1.5908
 9644TIP3   OH228895   1.184   1.827   4.263 -0.5222 -0.2325  0.3830
 9644TIP3    H128896   1.121   1.893   4.292 -0.5420 -0.4614  0.8647
 9644TIP3    H228897   1.202   1.775   4.341  1.9093  1.1345  0.8116
 9645TIP3   OH228898   3.208   4.870   3.887 -0.0010  0.4133  0.3308
 9645TIP3    H128899   3.236   4.953   3.849 -0.9807  0.1424 -1.0725
 9645TIP3    H228900   3.288   4.818   3.893  0.5109  1.2071  0.5846
 9646TIP3   OH228901   0.618   5.943   5.692 -0.2306  0.2661 -0.3475
 9646TIP3    H128902   0.569   5.891   5.756  0.3264  0.3993  0.2074
 9646TIP3    H228903   0.622   5.888   5.614 -1.8098  0.5245 -0.6364
 9647TIP3   OH228904   1.172   0.393   2.459  0.0241  0.3065 -0.5305
 9647TIP3    H128905   1.109   0.322   2.474 -0.5521  0.7050 -1.0331
 9647TIP3    H228906   1.140   0.438   2.381  1.3140  0.1095 -1.1868
 9648TIP3   OH228907   6.302   6.297   0.535 -0.3544  0.4182  0.1328
 9648TIP3    H128908   6.300   6.373   0.592  0.2444  0.4070  0.1715
 9648TIP3    H228909   6.364   6.237   0.575 -1.7896 -0.6836  0.8216
 9649TIP3   OH228910   2.131   2.864   0.144 -0.0181  0.1423 -0.0875
 9649TIP3    H128911   2.082   2.943   0.123 -2.4223 -1.4659 -0.8938
 9649TIP3    H228912   2.211   2.872   0.092 -0.3086  1.9130 -0.3205
 9650TIP3   OH228913   5.829   1.470   2.714  0.3868  0.5162 -0.2494
 9650TIP3    H128914   5.889   1.536   2.749 -0.5232  1.1334  0.1928
 9650TIP3    H228915   5.758   1.466   2.778  0.4454 -0.9457 -0.2462
 9651TIP3   OH228916   3.282   2.231   1.126 -0.0295  0.1657 -0.1046
 9651TIP3    H128917   3.219   2.245   1.055  0.3646 -1.3756 -0.7933
 9651TIP3    H228918   3.247   2.282   1.199 -0.6840  1.4305 -1.2495
 9652TIP3   OH228919   2.850   3.159   2.692  0.3608 -0.0127 -0.3790
 9652TIP3    H128920   2.795   3.118   2.758  0.1408  2.2811  0.9862
 9652TIP3    H228921   2.939   3.156   2.728  0.1166  2.0345  0.5587
 9653TIP3   OH228922   2.832   3.979   0.374  0.3955  0.3955 -0.4229
 9653TIP3    H128923   2.769   4.009   0.439 -0.3095  1.7065 -1.6517
 9653TIP3    H228924   2.794   4.006   0.290  2.2828  0.6352 -1.2489
 9654TIP3   OH228925   5.333   4.655   4.327  0.2146  0.2632  0.0127
 9654TIP3    H128926   5.292   4.657   4.240 -0.1683  1.1347  0.2114
 9654TIP3    H228927   5.368   4.743   4.339  0.3782  0.1055  0.7010
 9655TIP3   OH228928   6.192   0.757   0.356  0.5195  0.0162 -0.3235
 9655TIP3    H128929   6.145   0.819   0.412  0.0081 -1.7277  1.2671
 9655TIP3    H228930   6.205   0.680   0.411  0.7519 -1.4809 -2.3652
 9656TIP3   OH228931   2.138   5.674   5.463 -0.2464  0.3455  0.4069
 9656TIP3    H128932   2.220   5.675   5.414 -0.3030  2.3554  0.2428
 9656TIP3    H228933   2.152   5.736   5.535 -0.9910 -0.7133  1.4999
 9657TIP3   OH228934   0.342   6.181   2.149  0.6421  0.5492 -0.1185
 9657TIP3    H128935   0.396   6.255   2.125 -0.5804  0.9117 -1.9387
 9657TIP3    H228936   0.376   6.153   2.234  4.0769  0.3117 -1.4320
 9658TIP3   OH228937   6.050   5.348   5.365 -0.0836  0.2506 -0.0186
 9658TIP3    H128938   6.083   5.384   5.447  0.3247  0.1422 -0.1350
 9658TIP3    H228939   5.981   5.409   5.338  0.6024  0.9495 -0.2203
 9659TIP3   OH228940   0.991   2.509   4.402  0.2817 -0.0278  0.0833
 9659TIP3    H128941   0.992   2.423   4.360 -0.3170  0.9563 -2.0971
 9659TIP3    H228942   0.914   2.507   4.458 -0.8092 -0.3174 -1.3615
 9660TIP3   OH228943   5.535   2.084   0.121 -0.0814  0.0176 -0.3592
 9660TIP3    H128944   5.578   2.091   0.036 -0.2014 -1.1200 -0.5244
 9660TIP3    H228945   5.603   2.109   0.184  0.5176 -0.7454 -0.6848
 9661TIP3   OH228946   5.839   2.127   3.727 -0.0623  0.0327 -0.3556
 9661TIP3    H128947   5.870   2.205   3.680  0.0201  0.8983  1.0814
 9661TIP3    H228948   5.773   2.160   3.787  1.7000 -0.5579  2.0513
 9662TIP3   OH228949   1.939   1.496   3.794  0.3409  0.2138  1.0609
 9662TIP3    H128950   2.031   1.515   3.777 -0.1160  1.1366 -0.6008
 9662TIP3    H228951   1.891   1.559   3.740 -1.2567 -1.3630  0.5342
 9663TIP3   OH228952   1.731   0.886   5.156  0.2681 -0.3253  0.3128
 9663TIP3    H128953   1.765   0.808   5.201  1.2669 -0.1731 -0.1436
 9663TIP3    H228954   1.637   0.871   5.150 -0.0100 -0.0776  2.9715
 9664TIP3   OH228955   1.413   1.518   2.692  0.2429  0.5643 -0.2143
 9664TIP3    H128956   1.506   1.527   2.712  0.3874 -0.1864 -0.4670
 9664TIP3    H228957   1.412   1.458   2.617 -0.4814 -0.0577  0.2811
 9665TIP3   OH228958   4.048   3.342   0.931 -0.5387 -0.0294  0.1325
 9665TIP3    H128959   4.018   3.260   0.971 -1.1466  0.4822  0.7613
 9665TIP3    H228960   4.140   3.326   0.908 -1.4183 -1.9020 -2.5301
 9666TIP3   OH228961   0.119   5.087   2.420  0.4008  0.3402  0.1944
 9666TIP3    H128962   0.208   5.053   2.428 -0.3577 -1.8266  0.0338
 9666TIP3    H228963   0.070   5.047   2.492 -0.9863 -0.5149 -1.1409
 9667TIP3   OH228964   3.234   2.331   0.186  0.4869 -0.0610  0.0373
 9667TIP3    H128965   3.248   2.348   0.279 -3.2031 -2.8150  1.3377
 9667TIP3    H228966   3.264   2.241   0.174 -2.6467 -1.1541 -0.3273
 9668TIP3   OH228967   5.286   4.483   0.643 -0.3573  0.3394 -0.5889
 9668TIP3    H128968   5.276   4.392   0.670  0.2478  0.7209  1.0107
 9668TIP3    H228969   5.378   4.492   0.620 -0.1909  0.7839  0.2256
 9669TIP3   OH228970   5.242   3.209   2.296 -0.0977  0.4859 -0.2322
 9669TIP3    H128971   5.221   3.119   2.322 -2.1311  0.9239 -0.1772
 9669TIP3    H228972   5.204   3.219   2.209  1.0402  1.0005 -0.6965
 9670TIP3   OH228973   3.995   3.575   0.778 -0.5186  0.1948  0.1023
 9670TIP3    H128974   4.008   3.492   0.823  1.6583  0.8505  0.7694
 9670TIP3    H228975   4.033   3.562   0.691  0.2785  0.6366  0.3801
 9671TIP3   OH228976   7.180   2.295   4.578  0.1353  0.2883  0.1849
 9671TIP3    H128977   7.118   2.367   4.567  0.6600  0.6269 -0.6693
 9671TIP3    H228978   7.249   2.314   4.515 -0.5176 -1.8411 -1.2653
 9672TIP3   OH228979   1.623   0.061   3.884  0.1410 -0.0262 -0.4274
 9672TIP3    H128980   1.643  -0.030   3.861 -1.3331 -0.4005 -0.3284
 9672TIP3    H228981   1.683   0.081   3.956 -0.7382 -1.5535  0.8005
 9673TIP3   OH228982   7.007   3.621   1.364 -0.4171 -0.3573 -0.3035
 9673TIP3    H128983   7.037   3.532   1.383  1.0268 -0.1183 -1.2472
 9673TIP3    H228984   7.061   3.678   1.419 -0.3694 -0.0082 -0.6970
 9674TIP3   OH228985   5.534   5.113   5.140 -0.1924  0.0152  0.6116
 9674TIP3    H128986   5.445   5.094   5.171  0.0274 -1.2017  0.5109
 9674TIP3    H228987   5.558   5.193   5.187 -1.6796  0.8982 -0.0472
 9675TIP3   OH228988   0.452   3.896   4.049  0.2892  0.2806  0.1509
 9675TIP3    H128989   0.387   3.853   3.992  0.5738 -0.4324  0.3510
 9675TIP3    H228990   0.401   3.926   4.124  0.3891 -1.6050  1.0305
 9676TIP3   OH228991   4.142   6.600   0.392  0.5946  0.4014  0.5621
 9676TIP3    H128992   4.233   6.624   0.378  0.7197 -0.0679  0.5700
 9676TIP3    H228993   4.118   6.645   0.473  1.5703 -1.4640  1.9573
 9677TIP3   OH228994   0.055   3.832   5.387 -0.2202 -0.2739 -0.6896
 9677TIP3    H128995   0.075   3.763   5.451 -0.1675  1.0691  0.8201
 9677TIP3    H228996  -0.029   3.805   5.349 -0.2251 -1.1420 -0.1130
 9678TIP3   OH228997   2.206   3.246   4.892  0.1752  0.0174 -0.0276
 9678TIP3    H128998   2.236   3.337   4.884 -1.3562  0.4361 -1.3579
 9678TIP3    H228999   2.112   3.252   4.907  0.0691 -1.3551  0.0211
 9679TIP3   OH229000   6.138   3.471   0.179  0.6512 -0.2431  0.1283
 9679TIP3    H129001   6.139   3.403   0.112 -0.1187 -0.6541  0.5228
 9679TIP3    H229002   6.163   3.426   0.260  1.0056  0.1277  0.2293
 9680TIP3   OH229003   2.992   6.672   4.123  0.0523  0.2401 -0.0151
 9680TIP3    H129004   2.904   6.638   4.110 -0.5668  1.4643  0.8427
 9680TIP3    H229005   2.981   6.749   4.179  1.6688  0.3853  0.1625
 9681TIP3   OH229006   4.804   6.208   1.553 -0.0422 -0.2536  0.3575
 9681TIP3    H129007   4.841   6.170   1.473  1.0047  1.3112  0.0650
 9681TIP3    H229008   4.873   6.264   1.588 -0.7974 -0.2315  1.9076
 9682TIP3   OH229009   4.359   2.745   0.979  0.8702 -0.1856 -0.1006
 9682TIP3    H129010   4.289   2.684   0.958 -0.5098  1.2580  0.1011
 9682TIP3    H229011   4.330   2.788   1.060  2.5272 -0.3409  0.6232
 9683TIP3   OH229012   0.827   4.213   3.205  0.1951 -0.8995 -0.5957
 9683TIP3    H129013   0.903   4.166   3.171  0.9856  0.8464 -1.3353
 9683TIP3    H229014   0.758   4.196   3.141  0.1449 -1.9036 -0.2941
 9684TIP3   OH229015   1.336   1.197   5.455  0.4633  0.3390 -0.1021
 9684TIP3    H129016   1.388   1.273   5.483 -1.6790  1.0426  2.3399
 9684TIP3    H229017   1.247   1.231   5.446 -0.2231 -1.5293 -0.7840
 9685TIP3   OH229018   5.809   3.167   0.668 -0.0069  0.3060 -0.7608
 9685TIP3    H129019   5.777   3.084   0.633 -3.5635  1.2397 -0.0732
 9685TIP3    H229020   5.736   3.228   0.656  0.4788  2.0154  3.4343
 9686TIP3   OH229021   1.222   4.417   1.043 -0.2447 -0.0729 -0.0168
 9686TIP3    H129022   1.218   4.442   1.135 -0.9100 -2.1969  0.6004
 9686TIP3    H229023   1.163   4.342   1.036  2.6806 -2.5103 -1.2605
 9687TIP3   OH229024   6.075   0.571   2.304  0.3517  0.4534  0.1629
 9687TIP3    H129025   6.075   0.598   2.212  1.0628 -1.6313 -0.5067
 9687TIP3    H229026   5.982   0.560   2.325  0.2394 -0.8620 -0.9046
 9688TIP3   OH229027   1.340   2.221   2.362 -0.0717 -0.5673 -0.7624
 9688TIP3    H129028   1.328   2.255   2.274 -1.5870  1.2629  0.1111
 9688TIP3    H229029   1.344   2.298   2.418 -1.0778 -1.7313  1.0015
 9689TIP3   OH229030   5.813   4.536   5.249  0.1280 -0.0315 -0.4154
 9689TIP3    H129031   5.853   4.463   5.297 -0.8301 -0.0366  0.4246
 9689TIP3    H229032   5.733   4.556   5.298 -1.2167 -0.3959 -2.3277
 9690TIP3   OH229033   3.713   6.782   1.923 -0.1781  0.4613 -0.3133
 9690TIP3    H129034   3.756   6.709   1.878 -0.0982  0.2400  0.1199
 9690TIP3    H229035   3.784   6.827   1.968 -0.0613  1.4237 -1.3982
 9691TIP3   OH229036   0.286   0.269   1.645  0.0192 -0.3991  0.1462
 9691TIP3    H129037   0.380   0.270   1.663 -0.1357  0.8707  1.0344
 9691TIP3    H229038   0.245   0.283   1.731 -0.9726 -0.8761 -0.2418
 9692TIP3   OH229039   6.847   3.632   1.608  0.5623 -0.0900  0.1087
 9692TIP3    H129040   6.762   3.599   1.579 -0.0523  1.0574  0.5368
 9692TIP3    H229041   6.910   3.598   1.544 -0.1731 -1.1753 -0.0579
 9693TIP3   OH229042   3.452   5.726   3.720  0.4419  0.8102  0.3851
 9693TIP3    H129043   3.394   5.765   3.786 -0.9275 -1.9228  0.9380
 9693TIP3    H229044   3.535   5.773   3.730 -0.7362  2.7296  1.7315
 9694TIP3   OH229045   1.576   5.535   2.919  0.0653 -0.2878  0.2098
 9694TIP3    H129046   1.660   5.576   2.942 -0.0962  0.8279 -1.0552
 9694TIP3    H229047   1.600   5.453   2.876  0.4343 -0.9405  1.6186
 9695TIP3   OH229048   0.176   0.558   4.364  0.4254  0.2161 -0.5916
 9695TIP3    H129049   0.232   0.614   4.418  1.7192 -0.3573 -1.2745
 9695TIP3    H229050   0.094   0.552   4.412  0.7038  1.6546  0.1135
 9696TIP3   OH229051   2.660   0.400   2.437 -0.0423 -0.3190  0.4066
 9696TIP3    H129052   2.585   0.358   2.477 -1.1464 -0.9347 -2.0935
 9696TIP3    H229053   2.698   0.333   2.380  0.2295  0.9938 -1.0496
 9697TIP3   OH229054   0.190   2.275   3.465 -0.1754  0.2276  0.2402
 9697TIP3    H129055   0.233   2.252   3.548 -0.9585 -0.2840  0.5161
 9697TIP3    H229056   0.100   2.243   3.475  0.1814 -1.4822 -1.4963
 9698TIP3   OH229057   2.780   0.252   2.023 -0.3582  0.0079  0.1690
 9698TIP3    H129058   2.861   0.304   2.023  0.1601 -0.7878 -0.5299
 9698TIP3    H229059   2.806   0.167   1.988 -0.7979 -1.3485  2.8130
 9699TIP3   OH229060   2.474   3.641   1.538  0.3336 -0.3094 -0.2303
 9699TIP3    H129061   2.504   3.647   1.447  1.0444 -0.6774 -0.0228
 9699TIP3    H229062   2.552   3.656   1.591 -0.4315  1.9945  0.3695
 9700TIP3   OH229063   6.982   6.421   1.358 -0.2710  0.2204  0.5057
 9700TIP3    H129064   6.972   6.516   1.353  1.3000  0.5204  2.0836
 9700TIP3    H229065   7.055   6.408   1.417 -0.9618 -2.0155  0.9557
 9701TIP3   OH229066   0.455   4.624   3.132  0.4294  0.0030  0.8915
 9701TIP3    H129067   0.440   4.600   3.041  1.6941  3.0513 -0.2655
 9701TIP3    H229068   0.495   4.547   3.172  0.2719 -1.2369 -1.2262
 9702TIP3   OH229069   0.626   1.997   1.472  0.5182 -0.6247  0.7782
 9702TIP3    H129070   0.705   2.048   1.452  2.7408 -3.1350  2.5304
 9702TIP3    H229071   0.573   2.057   1.524  0.1226  1.8563 -2.1775
 9703TIP3   OH229072   6.074   3.504   1.179 -0.4127 -0.3183 -0.3715
 9703TIP3    H129073   6.078   3.493   1.274 -0.2162 -2.3428 -0.5695
 9703TIP3    H229074   6.056   3.597   1.167 -3.4151 -0.4617  1.7481
 9704TIP3   OH229075   0.044   2.896   3.181 -0.3750  0.0762  0.4612
 9704TIP3    H129076   0.041   2.820   3.123  0.8533 -0.5401  1.1490
 9704TIP3    H229077  -0.011   2.961   3.139 -1.0637 -1.0287 -0.3959
 9705TIP3   OH229078   0.147   0.691   5.109  0.3072 -0.4956 -0.2361
 9705TIP3    H129079   0.194   0.610   5.130 -0.1948 -1.2426 -1.8826
 9705TIP3    H229080   0.173   0.711   5.019  0.0487  0.9369 -0.0163
 9706TIP3   OH229081   4.941   4.383   2.465  0.5520 -0.1290  0.4433
 9706TIP3    H129082   4.958   4.358   2.556  1.3343 -1.3943 -0.0201
 9706TIP3    H229083   5.019   4.356   2.418  0.2330  0.6861 -0.5920
 9707TIP3   OH229084   1.591   2.880   3.584  0.1840  0.1937  0.2968
 9707TIP3    H129085   1.543   2.899   3.664 -0.4467  1.2200 -0.2941
 9707TIP3    H229086   1.665   2.942   3.585  0.7398 -0.4613  0.5513
 9708TIP3   OH229087   0.304   5.495   0.947 -0.0656  0.4853  0.2431
 9708TIP3    H129088   0.352   5.532   0.873  0.4034  0.7897  0.7011
 9708TIP3    H229089   0.273   5.410   0.914 -0.2052  0.7885 -0.4339
 9709TIP3   OH229090   0.317   0.769   1.073  0.1944  0.1852 -0.3984
 9709TIP3    H129091   0.250   0.759   1.005  0.7377 -1.9942 -0.6887
 9709TIP3    H229092   0.290   0.708   1.141  0.2849  1.5151  0.8821
 9710TIP3   OH229093   1.876   6.697   5.515 -0.2199 -0.8174  0.3312
 9710TIP3    H129094   1.967   6.682   5.490 -0.5430 -1.9205 -0.2623
 9710TIP3    H229095   1.881   6.764   5.584  0.7080  2.6898 -2.7833
 9711TIP3   OH229096   3.505   3.070   2.167 -0.3833  0.0024 -0.3363
 9711TIP3    H129097   3.566   2.997   2.155 -0.6984 -0.6057  1.4219
 9711TIP3    H229098   3.460   3.077   2.083  0.4073 -1.1262 -0.8900
 9712TIP3   OH229099   4.980   1.096   1.873 -0.0378  0.3589 -0.1193
 9712TIP3    H129100   5.068   1.060   1.870 -0.2294 -0.0910 -0.3941
 9712TIP3    H229101   4.975   1.141   1.958  0.2884 -0.0307  0.1082
 9713TIP3   OH229102   3.204   6.542   2.326 -0.0923  0.1441  0.1596
 9713TIP3    H129103   3.273   6.555   2.391 -0.1089  1.3329 -0.0360
 9713TIP3    H229104   3.161   6.627   2.320  0.9400  0.5616 -2.5995
 9714TIP3   OH229105   7.138   2.670   5.602 -0.5496 -0.0051 -0.2321
 9714TIP3    H129106   7.111   2.750   5.646  2.6516  1.3355 -0.4411
 9714TIP3    H229107   7.213   2.639   5.653 -1.8633 -3.1078  0.0189
 9715TIP3   OH229108   5.267   3.402   3.021  0.1579  0.6139 -0.2216
 9715TIP3    H129109   5.312   3.382   2.938 -0.5188  0.2133 -0.4999
 9715TIP3    H229110   5.237   3.317   3.053 -0.3413  0.8652 -0.0099
 9716TIP3   OH229111   3.251   6.385   2.942  0.0222  0.1552  0.1211
 9716TIP3    H129112   3.234   6.305   2.991 -0.2217 -0.6929 -1.2786
 9716TIP3    H229113   3.287   6.446   3.006  0.0603 -1.0185  1.2508
 9717TIP3   OH229114   0.883   4.592   4.337 -0.1535 -0.3693 -0.0470
 9717TIP3    H129115   0.868   4.641   4.256 -2.4211 -1.5257 -0.3893
 9717TIP3    H229116   0.870   4.501   4.313  0.3399 -0.8411  1.3764
 9718TIP3   OH229117   4.723   2.836   1.476 -0.0659 -0.0117  0.4296
 9718TIP3    H129118   4.654   2.893   1.510  0.2453 -0.3246  1.6319
 9718TIP3    H229119   4.793   2.895   1.451 -0.3160  0.2289  0.2935
 9719TIP3   OH229120   3.309   2.735   2.871  0.2000 -0.1993 -0.0829
 9719TIP3    H129121   3.389   2.684   2.857 -0.2459 -1.7205  2.4024
 9719TIP3    H229122   3.322   2.778   2.956 -1.3111  0.1364  0.0107
 9720TIP3   OH229123   4.822   0.275   1.986 -0.2120 -0.5660  0.2371
 9720TIP3    H129124   4.779   0.346   1.937 -0.1013 -0.5952  0.0980
 9720TIP3    H229125   4.882   0.319   2.046 -0.5191 -0.5187  0.5143
 9721TIP3   OH229126   5.866   3.053   2.591  0.5668  0.1705  0.4737
 9721TIP3    H129127   5.771   3.058   2.599  0.5473 -0.0394  0.3873
 9721TIP3    H229128   5.881   3.028   2.499  0.6694 -0.9587  0.7932
 9722TIP3   OH229129   4.501   6.395   4.673 -0.4025 -0.0717 -0.3552
 9722TIP3    H129130   4.432   6.456   4.649 -0.4122 -0.5998 -1.8088
 9722TIP3    H229131   4.549   6.439   4.743 -3.6230 -0.7056  2.5012
 9723TIP3   OH229132   7.044   0.220   1.179  0.3273  0.0103 -0.5788
 9723TIP3    H129133   7.021   0.170   1.100  1.0590  0.3631 -1.0268
 9723TIP3    H229134   6.967   0.275   1.195  0.1626 -0.0832 -1.0317
 9724TIP3   OH229135   1.972   2.770   3.186  0.6258 -0.5193  0.2724
 9724TIP3    H129136   1.916   2.813   3.121  2.6194  0.5654 -0.8294
 9724TIP3    H229137   2.004   2.691   3.143  0.6492 -0.6768  0.5706
 9725TIP3   OH229138   0.284   0.625   3.077 -0.2194  0.5400 -0.4133
 9725TIP3    H129139   0.198   0.651   3.045 -0.3724 -0.3579 -0.7597
 9725TIP3    H229140   0.269   0.543   3.124  0.4053  0.5135 -0.2516
 9726TIP3   OH229141   0.855   3.510   0.215 -0.3651 -0.2169 -0.3284
 9726TIP3    H129142   0.766   3.481   0.235 -0.3289 -0.5527 -0.6465
 9726TIP3    H229143   0.843   3.583   0.154 -0.4624  0.5720  0.6023
 9727TIP3   OH229144   5.297   5.616   3.997 -0.0560  0.3898  0.0892
 9727TIP3    H129145   5.342   5.533   4.013 -0.1638 -0.5461 -3.4893
 9727TIP3    H229146   5.254   5.637   4.080  1.8478 -1.9032  1.7928
 9728TIP3   OH229147   4.714   6.169   3.599 -0.4980 -0.5773 -0.1222
 9728TIP3    H129148   4.674   6.122   3.526 -0.3550 -0.3427 -0.3549
 9728TIP3    H229149   4.805   6.182   3.571  0.0044 -1.8930  0.7717
 9729TIP3   OH229150   6.671   0.337   2.537  0.2792  0.2395 -0.1861
 9729TIP3    H129151   6.618   0.409   2.573  0.9494  1.4602 -1.5081
 9729TIP3    H229152   6.664   0.349   2.442  0.7026 -1.2582 -0.4166
 9730TIP3   OH229153   4.370   2.176   4.962 -0.0133  0.5957  0.3255
 9730TIP3    H129154   4.281   2.201   4.988 -0.9044 -2.2699  0.3833
 9730TIP3    H229155   4.366   2.169   4.867  0.0400  0.0914  0.3600
 9731TIP3   OH229156   5.869   5.334   3.820 -0.2257 -0.0151 -0.2240
 9731TIP3    H129157   5.843   5.285   3.741 -3.2337  1.2221 -0.1139
 9731TIP3    H229158   5.889   5.266   3.884 -2.1120 -1.1496 -0.7552
 9732TIP3   OH229159   0.188   4.811   3.020 -0.1982 -0.4201  0.4235
 9732TIP3    H129160   0.155   4.763   2.944 -2.6942  0.8381  0.6029
 9732TIP3    H229161   0.176   4.750   3.093 -0.4231 -0.6442  0.2025
 9733TIP3   OH229162   5.925   4.245   0.959  0.1673  0.1045 -1.1599
 9733TIP3    H129163   5.833   4.245   0.933  0.1535  0.3096 -1.1047
 9733TIP3    H229164   5.958   4.161   0.927 -0.5723 -0.9613  0.7123
 9734TIP3   OH229165   0.145   5.755   1.878 -0.0887 -0.0314  0.4072
 9734TIP3    H129166   0.097   5.689   1.929 -1.0094 -0.5323 -1.0585
 9734TIP3    H229167   0.118   5.839   1.915  1.1397 -0.4180  2.3346
 9735TIP3   OH229168   3.424   6.647   5.664 -0.2772 -0.0322 -0.0363
 9735TIP3    H129169   3.432   6.564   5.617 -1.5093 -1.2634  1.8048
 9735TIP3    H229170   3.349   6.691   5.624  1.0245  0.7463 -1.7300
 9736TIP3   OH229171   5.118   0.034   2.100  0.2025  0.0381  0.7165
 9736TIP3    H129172   5.178  -0.038   2.119 -0.6411 -0.7338  0.5946
 9736TIP3    H229173   5.107   0.080   2.183  1.8079  0.8807  0.4885
 9737TIP3   OH229174   1.858   1.586   0.483  0.1137 -0.2150  0.1186
 9737TIP3    H129175   1.855   1.681   0.471 -1.7244 -0.1509  0.8437
 9737TIP3    H229176   1.772   1.563   0.516  0.1355 -2.2952 -1.0932
 9738TIP3   OH229177   5.502   5.224   3.535 -0.0616  0.3106  0.0688
 9738TIP3    H129178   5.456   5.279   3.471 -0.2802  0.8532  0.6748
 9738TIP3    H229179   5.432   5.177   3.580  0.1651 -1.1149 -0.9916
 9739TIP3   OH229180   3.794   5.632   1.933 -0.2292  0.2255  0.0456
 9739TIP3    H129181   3.863   5.584   1.978 -0.9635 -0.1201  0.8173
 9739TIP3    H229182   3.717   5.622   1.989 -1.2217 -0.3832 -1.3691
 9740TIP3   OH229183   6.552   2.409   3.116  0.0528  0.4170  0.1199
 9740TIP3    H129184   6.491   2.339   3.093  0.4589  0.3166 -0.6802
 9740TIP3    H229185   6.617   2.409   3.046  0.7694  0.7689  0.7688
 9741TIP3   OH229186   2.439   5.399   3.024  0.0508 -0.1094  0.1314
 9741TIP3    H129187   2.441   5.472   3.086  0.2272 -1.0209  1.2429
 9741TIP3    H229188   2.523   5.404   2.979 -0.4101  1.0534 -0.6655
 9742TIP3   OH229189   5.485   6.098   2.165  0.1393 -0.2122  0.1835
 9742TIP3    H129190   5.392   6.109   2.183  0.1240  1.2067 -0.6195
 9742TIP3    H229191   5.490   6.079   2.071  0.6850  0.4959  0.0549
 9743TIP3   OH229192   0.833   3.820   5.473  0.3574 -0.0670  0.1898
 9743TIP3    H129193   0.752   3.864   5.498  0.7841  1.3341 -0.8172
 9743TIP3    H229194   0.869   3.788   5.555 -0.6751  0.2144  0.7706
 9744TIP3   OH229195   3.538   2.016   5.230  0.1896 -0.8993 -0.3493
 9744TIP3    H129196   3.513   1.930   5.262 -3.7182  0.1313 -0.1289
 9744TIP3    H229197   3.546   2.070   5.309 -2.9015  0.1127 -0.6175
 9745TIP3   OH229198   2.723   1.479   3.045  0.3775 -0.3894  0.1757
 9745TIP3    H129199   2.722   1.575   3.036  0.3447 -0.5901 -3.3842
 9745TIP3    H229200   2.797   1.461   3.103  0.3801  1.7677  0.9270
 9746TIP3   OH229201   6.364   5.969   2.339  0.5111 -0.1214 -0.2136
 9746TIP3    H129202   6.301   6.014   2.395 -0.5706 -0.0112 -1.4760
 9746TIP3    H229203   6.400   6.037   2.282  0.1907 -0.5255 -0.9176
 9747TIP3   OH229204   1.947   4.375   3.514  0.5134 -0.4553  0.3967
 9747TIP3    H129205   1.956   4.359   3.420  0.5879 -0.9475  0.4883
 9747TIP3    H229206   2.025   4.425   3.538  1.4152 -1.9086  0.5534
 9748TIP3   OH229207   4.296   2.822   3.977  0.6145 -0.4390  0.0616
 9748TIP3    H129208   4.295   2.883   4.052  1.3319 -0.7360  0.3229
 9748TIP3    H229209   4.346   2.869   3.910  0.5340 -0.4397  0.0020
 9749TIP3   OH229210   0.534   4.315   3.938  0.2239  0.3638 -0.2060
 9749TIP3    H129211   0.584   4.235   3.947  1.4212  1.2763  2.0256
 9749TIP3    H229212   0.558   4.349   3.851  1.4036 -0.5585 -0.2650
   7.19991   6.78815   5.87870   0.00000   0.00000  -2.39998   0.00000  -2.39998  -3.39407
