;;
;; Generated by CHARMM-GUI FF-Converter
;;
;; Correspondance:
;; jul316@lehigh.edu or wonpil@lehigh.edu
;;
;; GROMACS topology file for LIT
;;


[ moleculetype ]
; name	nrexcl
LIT	     1

[ atoms ]
; nr	type	resnr	residu	atom	cgnr	charge	mass
     1        LIT      1      LIT    LIT      1     1.000000     6.9410   ; qtot  1.000
