;;
;; Generated by CHARMM-GUI FF-Converter
;;
;; Correspondance:
;; jul316@lehigh.edu or wonpil@lehigh.edu
;;
;; GROMACS topology file for PROA
;;


[ moleculetype ]
; name	nrexcl
PROA	     3

[ atoms ]
; nr	type	resnr	residu	atom	cgnr	charge	mass
     1        NH3      1      GLY      N      1    -0.300000    14.0070   ; qtot -0.300
     2         HC      1      GLY    HT1      2     0.330000     1.0080   ; qtot  0.030
     3         HC      1      GLY    HT2      3     0.330000     1.0080   ; qtot  0.360
     4         HC      1      GLY    HT3      4     0.330000     1.0080   ; qtot  0.690
     5        CT2      1      GLY     CA      5     0.130000    12.0110   ; qtot  0.820
     6        HB2      1      GLY    HA1      6     0.090000     1.0080   ; qtot  0.910
     7        HB2      1      GLY    HA2      7     0.090000     1.0080   ; qtot  1.000
     8          C      1      GLY      C      8     0.510000    12.0110   ; qtot  1.510
     9          O      1      GLY      O      9    -0.510000    15.9994   ; qtot  1.000
    10          N      2      PRO      N     10    -0.290000    14.0070   ; qtot  0.710
    11        CP3      2      PRO     CD     11     0.000000    12.0110   ; qtot  0.710
    12        HA2      2      PRO    HD1     12     0.090000     1.0080   ; qtot  0.800
    13        HA2      2      PRO    HD2     13     0.090000     1.0080   ; qtot  0.890
    14        CP1      2      PRO     CA     14     0.020000    12.0110   ; qtot  0.910
    15        HB1      2      PRO     HA     15     0.090000     1.0080   ; qtot  1.000
    16        CP2      2      PRO     CB     16    -0.180000    12.0110   ; qtot  0.820
    17        HA2      2      PRO    HB1     17     0.090000     1.0080   ; qtot  0.910
    18        HA2      2      PRO    HB2     18     0.090000     1.0080   ; qtot  1.000
    19        CP2      2      PRO     CG     19    -0.180000    12.0110   ; qtot  0.820
    20        HA2      2      PRO    HG1     20     0.090000     1.0080   ; qtot  0.910
    21        HA2      2      PRO    HG2     21     0.090000     1.0080   ; qtot  1.000
    22          C      2      PRO      C     22     0.510000    12.0110   ; qtot  1.510
    23          O      2      PRO      O     23    -0.510000    15.9994   ; qtot  1.000
    24        NH1      3      GLY      N     24    -0.470000    14.0070   ; qtot  0.530
    25          H      3      GLY     HN     25     0.310000     1.0080   ; qtot  0.840
    26        CT2      3      GLY     CA     26    -0.020000    12.0110   ; qtot  0.820
    27        HB2      3      GLY    HA1     27     0.090000     1.0080   ; qtot  0.910
    28        HB2      3      GLY    HA2     28     0.090000     1.0080   ; qtot  1.000
    29          C      3      GLY      C     29     0.510000    12.0110   ; qtot  1.510
    30          O      3      GLY      O     30    -0.510000    15.9994   ; qtot  1.000
    31        NH1      4      ASN      N     31    -0.470000    14.0070   ; qtot  0.530
    32          H      4      ASN     HN     32     0.310000     1.0080   ; qtot  0.840
    33        CT1      4      ASN     CA     33     0.070000    12.0110   ; qtot  0.910
    34        HB1      4      ASN     HA     34     0.090000     1.0080   ; qtot  1.000
    35        CT2      4      ASN     CB     35    -0.180000    12.0110   ; qtot  0.820
    36        HA2      4      ASN    HB1     36     0.090000     1.0080   ; qtot  0.910
    37        HA2      4      ASN    HB2     37     0.090000     1.0080   ; qtot  1.000
    38         CC      4      ASN     CG     38     0.550000    12.0110   ; qtot  1.550
    39          O      4      ASN    OD1     39    -0.550000    15.9994   ; qtot  1.000
    40        NH2      4      ASN    ND2     40    -0.620000    14.0070   ; qtot  0.380
    41          H      4      ASN   HD21     41     0.320000     1.0080   ; qtot  0.700
    42          H      4      ASN   HD22     42     0.300000     1.0080   ; qtot  1.000
    43          C      4      ASN      C     43     0.510000    12.0110   ; qtot  1.510
    44          O      4      ASN      O     44    -0.510000    15.9994   ; qtot  1.000
    45          N      5      PRO      N     45    -0.290000    14.0070   ; qtot  0.710
    46        CP3      5      PRO     CD     46     0.000000    12.0110   ; qtot  0.710
    47        HA2      5      PRO    HD1     47     0.090000     1.0080   ; qtot  0.800
    48        HA2      5      PRO    HD2     48     0.090000     1.0080   ; qtot  0.890
    49        CP1      5      PRO     CA     49     0.020000    12.0110   ; qtot  0.910
    50        HB1      5      PRO     HA     50     0.090000     1.0080   ; qtot  1.000
    51        CP2      5      PRO     CB     51    -0.180000    12.0110   ; qtot  0.820
    52        HA2      5      PRO    HB1     52     0.090000     1.0080   ; qtot  0.910
    53        HA2      5      PRO    HB2     53     0.090000     1.0080   ; qtot  1.000
    54        CP2      5      PRO     CG     54    -0.180000    12.0110   ; qtot  0.820
    55        HA2      5      PRO    HG1     55     0.090000     1.0080   ; qtot  0.910
    56        HA2      5      PRO    HG2     56     0.090000     1.0080   ; qtot  1.000
    57          C      5      PRO      C     57     0.510000    12.0110   ; qtot  1.510
    58          O      5      PRO      O     58    -0.510000    15.9994   ; qtot  1.000
    59        NH1      6      GLY      N     59    -0.470000    14.0070   ; qtot  0.530
    60          H      6      GLY     HN     60     0.310000     1.0080   ; qtot  0.840
    61        CT2      6      GLY     CA     61    -0.020000    12.0110   ; qtot  0.820
    62        HB2      6      GLY    HA1     62     0.090000     1.0080   ; qtot  0.910
    63        HB2      6      GLY    HA2     63     0.090000     1.0080   ; qtot  1.000
    64          C      6      GLY      C     64     0.510000    12.0110   ; qtot  1.510
    65          O      6      GLY      O     65    -0.510000    15.9994   ; qtot  1.000
    66        NH1      7      SER      N     66    -0.470000    14.0070   ; qtot  0.530
    67          H      7      SER     HN     67     0.310000     1.0080   ; qtot  0.840
    68        CT1      7      SER     CA     68     0.070000    12.0110   ; qtot  0.910
    69        HB1      7      SER     HA     69     0.090000     1.0080   ; qtot  1.000
    70        CT2      7      SER     CB     70     0.050000    12.0110   ; qtot  1.050
    71        HA2      7      SER    HB1     71     0.090000     1.0080   ; qtot  1.140
    72        HA2      7      SER    HB2     72     0.090000     1.0080   ; qtot  1.230
    73        OH1      7      SER     OG     73    -0.660000    15.9994   ; qtot  0.570
    74          H      7      SER    HG1     74     0.430000     1.0080   ; qtot  1.000
    75          C      7      SER      C     75     0.510000    12.0110   ; qtot  1.510
    76          O      7      SER      O     76    -0.510000    15.9994   ; qtot  1.000
    77        NH1      8      GLY      N     77    -0.470000    14.0070   ; qtot  0.530
    78          H      8      GLY     HN     78     0.310000     1.0080   ; qtot  0.840
    79        CT2      8      GLY     CA     79    -0.020000    12.0110   ; qtot  0.820
    80        HB2      8      GLY    HA1     80     0.090000     1.0080   ; qtot  0.910
    81        HB2      8      GLY    HA2     81     0.090000     1.0080   ; qtot  1.000
    82          C      8      GLY      C     82     0.510000    12.0110   ; qtot  1.510
    83          O      8      GLY      O     83    -0.510000    15.9994   ; qtot  1.000
    84          N      9      PRO      N     84    -0.290000    14.0070   ; qtot  0.710
    85        CP3      9      PRO     CD     85     0.000000    12.0110   ; qtot  0.710
    86        HA2      9      PRO    HD1     86     0.090000     1.0080   ; qtot  0.800
    87        HA2      9      PRO    HD2     87     0.090000     1.0080   ; qtot  0.890
    88        CP1      9      PRO     CA     88     0.020000    12.0110   ; qtot  0.910
    89        HB1      9      PRO     HA     89     0.090000     1.0080   ; qtot  1.000
    90        CP2      9      PRO     CB     90    -0.180000    12.0110   ; qtot  0.820
    91        HA2      9      PRO    HB1     91     0.090000     1.0080   ; qtot  0.910
    92        HA2      9      PRO    HB2     92     0.090000     1.0080   ; qtot  1.000
    93        CP2      9      PRO     CG     93    -0.180000    12.0110   ; qtot  0.820
    94        HA2      9      PRO    HG1     94     0.090000     1.0080   ; qtot  0.910
    95        HA2      9      PRO    HG2     95     0.090000     1.0080   ; qtot  1.000
    96          C      9      PRO      C     96     0.510000    12.0110   ; qtot  1.510
    97          O      9      PRO      O     97    -0.510000    15.9994   ; qtot  1.000
    98        NH1     10      GLY      N     98    -0.470000    14.0070   ; qtot  0.530
    99          H     10      GLY     HN     99     0.310000     1.0080   ; qtot  0.840
   100        CT2     10      GLY     CA    100    -0.020000    12.0110   ; qtot  0.820
   101        HB2     10      GLY    HA1    101     0.090000     1.0080   ; qtot  0.910
   102        HB2     10      GLY    HA2    102     0.090000     1.0080   ; qtot  1.000
   103          C     10      GLY      C    103     0.510000    12.0110   ; qtot  1.510
   104          O     10      GLY      O    104    -0.510000    15.9994   ; qtot  1.000
   105        NH1     11      ASP      N    105    -0.470000    14.0070   ; qtot  0.530
   106          H     11      ASP     HN    106     0.310000     1.0080   ; qtot  0.840
   107        CT1     11      ASP     CA    107     0.070000    12.0110   ; qtot  0.910
   108        HB1     11      ASP     HA    108     0.090000     1.0080   ; qtot  1.000
   109       CT2A     11      ASP     CB    109    -0.280000    12.0110   ; qtot  0.720
   110        HA2     11      ASP    HB1    110     0.090000     1.0080   ; qtot  0.810
   111        HA2     11      ASP    HB2    111     0.090000     1.0080   ; qtot  0.900
   112         CC     11      ASP     CG    112     0.620000    12.0110   ; qtot  1.520
   113         OC     11      ASP    OD1    113    -0.760000    15.9994   ; qtot  0.760
   114         OC     11      ASP    OD2    114    -0.760000    15.9994   ; qtot -0.000
   115          C     11      ASP      C    115     0.510000    12.0110   ; qtot  0.510
   116          O     11      ASP      O    116    -0.510000    15.9994   ; qtot -0.000
   117          N     12      PRO      N    117    -0.290000    14.0070   ; qtot -0.290
   118        CP3     12      PRO     CD    118     0.000000    12.0110   ; qtot -0.290
   119        HA2     12      PRO    HD1    119     0.090000     1.0080   ; qtot -0.200
   120        HA2     12      PRO    HD2    120     0.090000     1.0080   ; qtot -0.110
   121        CP1     12      PRO     CA    121     0.020000    12.0110   ; qtot -0.090
   122        HB1     12      PRO     HA    122     0.090000     1.0080   ; qtot -0.000
   123        CP2     12      PRO     CB    123    -0.180000    12.0110   ; qtot -0.180
   124        HA2     12      PRO    HB1    124     0.090000     1.0080   ; qtot -0.090
   125        HA2     12      PRO    HB2    125     0.090000     1.0080   ; qtot -0.000
   126        CP2     12      PRO     CG    126    -0.180000    12.0110   ; qtot -0.180
   127        HA2     12      PRO    HG1    127     0.090000     1.0080   ; qtot -0.090
   128        HA2     12      PRO    HG2    128     0.090000     1.0080   ; qtot -0.000
   129          C     12      PRO      C    129     0.510000    12.0110   ; qtot  0.510
   130          O     12      PRO      O    130    -0.510000    15.9994   ; qtot -0.000
   131        NH1     13      GLY      N    131    -0.470000    14.0070   ; qtot -0.470
   132          H     13      GLY     HN    132     0.310000     1.0080   ; qtot -0.160
   133        CT2     13      GLY     CA    133    -0.020000    12.0110   ; qtot -0.180
   134        HB2     13      GLY    HA1    134     0.090000     1.0080   ; qtot -0.090
   135        HB2     13      GLY    HA2    135     0.090000     1.0080   ; qtot -0.000
   136          C     13      GLY      C    136     0.510000    12.0110   ; qtot  0.510
   137          O     13      GLY      O    137    -0.510000    15.9994   ; qtot -0.000
   138        NH1     14      SER      N    138    -0.470000    14.0070   ; qtot -0.470
   139          H     14      SER     HN    139     0.310000     1.0080   ; qtot -0.160
   140        CT1     14      SER     CA    140     0.070000    12.0110   ; qtot -0.090
   141        HB1     14      SER     HA    141     0.090000     1.0080   ; qtot -0.000
   142        CT2     14      SER     CB    142     0.050000    12.0110   ; qtot  0.050
   143        HA2     14      SER    HB1    143     0.090000     1.0080   ; qtot  0.140
   144        HA2     14      SER    HB2    144     0.090000     1.0080   ; qtot  0.230
   145        OH1     14      SER     OG    145    -0.660000    15.9994   ; qtot -0.430
   146          H     14      SER    HG1    146     0.430000     1.0080   ; qtot -0.000
   147          C     14      SER      C    147     0.510000    12.0110   ; qtot  0.510
   148          O     14      SER      O    148    -0.510000    15.9994   ; qtot -0.000
   149        NH1     15      GLY      N    149    -0.470000    14.0070   ; qtot -0.470
   150          H     15      GLY     HN    150     0.310000     1.0080   ; qtot -0.160
   151        CT2     15      GLY     CA    151    -0.020000    12.0110   ; qtot -0.180
   152        HB2     15      GLY    HA1    152     0.090000     1.0080   ; qtot -0.090
   153        HB2     15      GLY    HA2    153     0.090000     1.0080   ; qtot -0.000
   154          C     15      GLY      C    154     0.510000    12.0110   ; qtot  0.510
   155          O     15      GLY      O    155    -0.510000    15.9994   ; qtot -0.000
   156          N     16      PRO      N    156    -0.290000    14.0070   ; qtot -0.290
   157        CP3     16      PRO     CD    157     0.000000    12.0110   ; qtot -0.290
   158        HA2     16      PRO    HD1    158     0.090000     1.0080   ; qtot -0.200
   159        HA2     16      PRO    HD2    159     0.090000     1.0080   ; qtot -0.110
   160        CP1     16      PRO     CA    160     0.020000    12.0110   ; qtot -0.090
   161        HB1     16      PRO     HA    161     0.090000     1.0080   ; qtot -0.000
   162        CP2     16      PRO     CB    162    -0.180000    12.0110   ; qtot -0.180
   163        HA2     16      PRO    HB1    163     0.090000     1.0080   ; qtot -0.090
   164        HA2     16      PRO    HB2    164     0.090000     1.0080   ; qtot -0.000
   165        CP2     16      PRO     CG    165    -0.180000    12.0110   ; qtot -0.180
   166        HA2     16      PRO    HG1    166     0.090000     1.0080   ; qtot -0.090
   167        HA2     16      PRO    HG2    167     0.090000     1.0080   ; qtot -0.000
   168          C     16      PRO      C    168     0.510000    12.0110   ; qtot  0.510
   169          O     16      PRO      O    169    -0.510000    15.9994   ; qtot -0.000
   170        NH1     17      GLY      N    170    -0.470000    14.0070   ; qtot -0.470
   171          H     17      GLY     HN    171     0.310000     1.0080   ; qtot -0.160
   172        CT2     17      GLY     CA    172    -0.020000    12.0110   ; qtot -0.180
   173        HB2     17      GLY    HA1    173     0.090000     1.0080   ; qtot -0.090
   174        HB2     17      GLY    HA2    174     0.090000     1.0080   ; qtot -0.000
   175          C     17      GLY      C    175     0.510000    12.0110   ; qtot  0.510
   176          O     17      GLY      O    176    -0.510000    15.9994   ; qtot -0.000
   177        NH1     18      ASN      N    177    -0.470000    14.0070   ; qtot -0.470
   178          H     18      ASN     HN    178     0.310000     1.0080   ; qtot -0.160
   179        CT1     18      ASN     CA    179     0.070000    12.0110   ; qtot -0.090
   180        HB1     18      ASN     HA    180     0.090000     1.0080   ; qtot -0.000
   181        CT2     18      ASN     CB    181    -0.180000    12.0110   ; qtot -0.180
   182        HA2     18      ASN    HB1    182     0.090000     1.0080   ; qtot -0.090
   183        HA2     18      ASN    HB2    183     0.090000     1.0080   ; qtot -0.000
   184         CC     18      ASN     CG    184     0.550000    12.0110   ; qtot  0.550
   185          O     18      ASN    OD1    185    -0.550000    15.9994   ; qtot -0.000
   186        NH2     18      ASN    ND2    186    -0.620000    14.0070   ; qtot -0.620
   187          H     18      ASN   HD21    187     0.320000     1.0080   ; qtot -0.300
   188          H     18      ASN   HD22    188     0.300000     1.0080   ; qtot -0.000
   189          C     18      ASN      C    189     0.510000    12.0110   ; qtot  0.510
   190          O     18      ASN      O    190    -0.510000    15.9994   ; qtot -0.000
   191          N     19      PRO      N    191    -0.290000    14.0070   ; qtot -0.290
   192        CP3     19      PRO     CD    192     0.000000    12.0110   ; qtot -0.290
   193        HA2     19      PRO    HD1    193     0.090000     1.0080   ; qtot -0.200
   194        HA2     19      PRO    HD2    194     0.090000     1.0080   ; qtot -0.110
   195        CP1     19      PRO     CA    195     0.020000    12.0110   ; qtot -0.090
   196        HB1     19      PRO     HA    196     0.090000     1.0080   ; qtot -0.000
   197        CP2     19      PRO     CB    197    -0.180000    12.0110   ; qtot -0.180
   198        HA2     19      PRO    HB1    198     0.090000     1.0080   ; qtot -0.090
   199        HA2     19      PRO    HB2    199     0.090000     1.0080   ; qtot -0.000
   200        CP2     19      PRO     CG    200    -0.180000    12.0110   ; qtot -0.180
   201        HA2     19      PRO    HG1    201     0.090000     1.0080   ; qtot -0.090
   202        HA2     19      PRO    HG2    202     0.090000     1.0080   ; qtot -0.000
   203         CC     19      PRO      C    203     0.340000    12.0110   ; qtot  0.340
   204         OC     19      PRO    OT1    204    -0.670000    15.9994   ; qtot -0.330
   205         OC     19      PRO    OT2    205    -0.670000    15.9994   ; qtot -1.000

[ bonds ]
; ai	aj	funct	b0	Kb
    2     1     1
    3     1     1
    4     1     1
    1     5     1
    5     6     1
    5     7     1
    8     5     1
    9     8     1
    8    10     1
   10    11     1
   10    14     1
   12    11     1
   13    11     1
   19    11     1
   15    14     1
   14    16     1
   22    14     1
   17    16     1
   18    16     1
   16    19     1
   20    19     1
   21    19     1
   23    22     1
   22    24     1
   24    25     1
   24    26     1
   26    27     1
   26    28     1
   29    26     1
   30    29     1
   29    31     1
   31    32     1
   31    33     1
   33    34     1
   35    33     1
   43    33     1
   35    36     1
   35    37     1
   38    35     1
   38    39     1
   40    38     1
   40    41     1
   40    42     1
   43    44     1
   43    45     1
   45    46     1
   45    49     1
   47    46     1
   48    46     1
   54    46     1
   50    49     1
   49    51     1
   57    49     1
   52    51     1
   53    51     1
   51    54     1
   55    54     1
   56    54     1
   58    57     1
   57    59     1
   59    60     1
   59    61     1
   61    62     1
   61    63     1
   64    61     1
   65    64     1
   64    66     1
   66    67     1
   66    68     1
   68    69     1
   70    68     1
   75    68     1
   70    71     1
   70    72     1
   73    70     1
   73    74     1
   76    75     1
   75    77     1
   77    78     1
   77    79     1
   79    80     1
   79    81     1
   82    79     1
   83    82     1
   82    84     1
   84    85     1
   84    88     1
   86    85     1
   87    85     1
   93    85     1
   89    88     1
   88    90     1
   96    88     1
   91    90     1
   92    90     1
   90    93     1
   94    93     1
   95    93     1
   97    96     1
   96    98     1
   98    99     1
   98   100     1
  100   101     1
  100   102     1
  103   100     1
  104   103     1
  103   105     1
  105   106     1
  105   107     1
  107   108     1
  109   107     1
  115   107     1
  109   110     1
  109   111     1
  112   109     1
  112   113     1
  114   112     1
  116   115     1
  115   117     1
  117   118     1
  117   121     1
  119   118     1
  120   118     1
  126   118     1
  122   121     1
  121   123     1
  129   121     1
  124   123     1
  125   123     1
  123   126     1
  127   126     1
  128   126     1
  130   129     1
  129   131     1
  131   132     1
  131   133     1
  133   134     1
  133   135     1
  136   133     1
  137   136     1
  136   138     1
  138   139     1
  138   140     1
  140   141     1
  142   140     1
  147   140     1
  142   143     1
  142   144     1
  145   142     1
  145   146     1
  148   147     1
  147   149     1
  149   150     1
  149   151     1
  151   152     1
  151   153     1
  154   151     1
  155   154     1
  154   156     1
  156   157     1
  156   160     1
  158   157     1
  159   157     1
  165   157     1
  161   160     1
  160   162     1
  168   160     1
  163   162     1
  164   162     1
  162   165     1
  166   165     1
  167   165     1
  169   168     1
  168   170     1
  170   171     1
  170   172     1
  172   173     1
  172   174     1
  175   172     1
  176   175     1
  175   177     1
  177   178     1
  177   179     1
  179   180     1
  181   179     1
  189   179     1
  181   182     1
  181   183     1
  184   181     1
  184   185     1
  186   184     1
  186   187     1
  186   188     1
  189   190     1
  189   191     1
  191   192     1
  191   195     1
  193   192     1
  194   192     1
  200   192     1
  196   195     1
  195   197     1
  203   195     1
  198   197     1
  199   197     1
  197   200     1
  201   200     1
  202   200     1
  203   204     1
  203   205     1

[ pairs ]
; ai	aj	funct	c6	c12 or
; ai	aj	funct	fudgeQQ	q1	q2	c6	c12
    1     9     1
    1    10     1
    2     6     1
    2     7     1
    2     8     1
    3     6     1
    3     7     1
    3     8     1
    4     6     1
    4     7     1
    4     8     1
    5    11     1
    5    14     1
    6     9     1
    6    10     1
    7     9     1
    7    10     1
    8    12     1
    8    13     1
    8    15     1
    8    16     1
    8    19     1
    8    22     1
    9    11     1
    9    14     1
   10    17     1
   10    18     1
   10    20     1
   10    21     1
   10    23     1
   10    24     1
   11    15     1
   11    17     1
   11    18     1
   11    22     1
   12    14     1
   12    16     1
   12    20     1
   12    21     1
   13    14     1
   13    16     1
   13    20     1
   13    21     1
   14    20     1
   14    21     1
   14    25     1
   14    26     1
   15    17     1
   15    18     1
   15    19     1
   15    23     1
   15    24     1
   16    23     1
   16    24     1
   17    20     1
   17    21     1
   17    22     1
   18    20     1
   18    21     1
   18    22     1
   19    22     1
   22    27     1
   22    28     1
   22    29     1
   23    25     1
   23    26     1
   24    30     1
   24    31     1
   25    27     1
   25    28     1
   25    29     1
   26    32     1
   26    33     1
   27    30     1
   27    31     1
   28    30     1
   28    31     1
   29    34     1
   29    35     1
   29    43     1
   30    32     1
   30    33     1
   31    36     1
   31    37     1
   31    38     1
   31    44     1
   31    45     1
   32    34     1
   32    35     1
   32    43     1
   33    39     1
   33    40     1
   33    46     1
   33    49     1
   34    36     1
   34    37     1
   34    38     1
   34    44     1
   34    45     1
   35    41     1
   35    42     1
   35    44     1
   35    45     1
   36    39     1
   36    40     1
   36    43     1
   37    39     1
   37    40     1
   37    43     1
   38    43     1
   39    41     1
   39    42     1
   43    47     1
   43    48     1
   43    50     1
   43    51     1
   43    54     1
   43    57     1
   44    46     1
   44    49     1
   45    52     1
   45    53     1
   45    55     1
   45    56     1
   45    58     1
   45    59     1
   46    50     1
   46    52     1
   46    53     1
   46    57     1
   47    49     1
   47    51     1
   47    55     1
   47    56     1
   48    49     1
   48    51     1
   48    55     1
   48    56     1
   49    55     1
   49    56     1
   49    60     1
   49    61     1
   50    52     1
   50    53     1
   50    54     1
   50    58     1
   50    59     1
   51    58     1
   51    59     1
   52    55     1
   52    56     1
   52    57     1
   53    55     1
   53    56     1
   53    57     1
   54    57     1
   57    62     1
   57    63     1
   57    64     1
   58    60     1
   58    61     1
   59    65     1
   59    66     1
   60    62     1
   60    63     1
   60    64     1
   61    67     1
   61    68     1
   62    65     1
   62    66     1
   63    65     1
   63    66     1
   64    69     1
   64    70     1
   64    75     1
   65    67     1
   65    68     1
   66    71     1
   66    72     1
   66    73     1
   66    76     1
   66    77     1
   67    69     1
   67    70     1
   67    75     1
   68    74     1
   68    78     1
   68    79     1
   69    71     1
   69    72     1
   69    73     1
   69    76     1
   69    77     1
   70    76     1
   70    77     1
   71    74     1
   71    75     1
   72    74     1
   72    75     1
   73    75     1
   75    80     1
   75    81     1
   75    82     1
   76    78     1
   76    79     1
   77    83     1
   77    84     1
   78    80     1
   78    81     1
   78    82     1
   79    85     1
   79    88     1
   80    83     1
   80    84     1
   81    83     1
   81    84     1
   82    86     1
   82    87     1
   82    89     1
   82    90     1
   82    93     1
   82    96     1
   83    85     1
   83    88     1
   84    91     1
   84    92     1
   84    94     1
   84    95     1
   84    97     1
   84    98     1
   85    89     1
   85    91     1
   85    92     1
   85    96     1
   86    88     1
   86    90     1
   86    94     1
   86    95     1
   87    88     1
   87    90     1
   87    94     1
   87    95     1
   88    94     1
   88    95     1
   88    99     1
   88   100     1
   89    91     1
   89    92     1
   89    93     1
   89    97     1
   89    98     1
   90    97     1
   90    98     1
   91    94     1
   91    95     1
   91    96     1
   92    94     1
   92    95     1
   92    96     1
   93    96     1
   96   101     1
   96   102     1
   96   103     1
   97    99     1
   97   100     1
   98   104     1
   98   105     1
   99   101     1
   99   102     1
   99   103     1
  100   106     1
  100   107     1
  101   104     1
  101   105     1
  102   104     1
  102   105     1
  103   108     1
  103   109     1
  103   115     1
  104   106     1
  104   107     1
  105   110     1
  105   111     1
  105   112     1
  105   116     1
  105   117     1
  106   108     1
  106   109     1
  106   115     1
  107   113     1
  107   114     1
  107   118     1
  107   121     1
  108   110     1
  108   111     1
  108   112     1
  108   116     1
  108   117     1
  109   116     1
  109   117     1
  110   113     1
  110   114     1
  110   115     1
  111   113     1
  111   114     1
  111   115     1
  112   115     1
  115   119     1
  115   120     1
  115   122     1
  115   123     1
  115   126     1
  115   129     1
  116   118     1
  116   121     1
  117   124     1
  117   125     1
  117   127     1
  117   128     1
  117   130     1
  117   131     1
  118   122     1
  118   124     1
  118   125     1
  118   129     1
  119   121     1
  119   123     1
  119   127     1
  119   128     1
  120   121     1
  120   123     1
  120   127     1
  120   128     1
  121   127     1
  121   128     1
  121   132     1
  121   133     1
  122   124     1
  122   125     1
  122   126     1
  122   130     1
  122   131     1
  123   130     1
  123   131     1
  124   127     1
  124   128     1
  124   129     1
  125   127     1
  125   128     1
  125   129     1
  126   129     1
  129   134     1
  129   135     1
  129   136     1
  130   132     1
  130   133     1
  131   137     1
  131   138     1
  132   134     1
  132   135     1
  132   136     1
  133   139     1
  133   140     1
  134   137     1
  134   138     1
  135   137     1
  135   138     1
  136   141     1
  136   142     1
  136   147     1
  137   139     1
  137   140     1
  138   143     1
  138   144     1
  138   145     1
  138   148     1
  138   149     1
  139   141     1
  139   142     1
  139   147     1
  140   146     1
  140   150     1
  140   151     1
  141   143     1
  141   144     1
  141   145     1
  141   148     1
  141   149     1
  142   148     1
  142   149     1
  143   146     1
  143   147     1
  144   146     1
  144   147     1
  145   147     1
  147   152     1
  147   153     1
  147   154     1
  148   150     1
  148   151     1
  149   155     1
  149   156     1
  150   152     1
  150   153     1
  150   154     1
  151   157     1
  151   160     1
  152   155     1
  152   156     1
  153   155     1
  153   156     1
  154   158     1
  154   159     1
  154   161     1
  154   162     1
  154   165     1
  154   168     1
  155   157     1
  155   160     1
  156   163     1
  156   164     1
  156   166     1
  156   167     1
  156   169     1
  156   170     1
  157   161     1
  157   163     1
  157   164     1
  157   168     1
  158   160     1
  158   162     1
  158   166     1
  158   167     1
  159   160     1
  159   162     1
  159   166     1
  159   167     1
  160   166     1
  160   167     1
  160   171     1
  160   172     1
  161   163     1
  161   164     1
  161   165     1
  161   169     1
  161   170     1
  162   169     1
  162   170     1
  163   166     1
  163   167     1
  163   168     1
  164   166     1
  164   167     1
  164   168     1
  165   168     1
  168   173     1
  168   174     1
  168   175     1
  169   171     1
  169   172     1
  170   176     1
  170   177     1
  171   173     1
  171   174     1
  171   175     1
  172   178     1
  172   179     1
  173   176     1
  173   177     1
  174   176     1
  174   177     1
  175   180     1
  175   181     1
  175   189     1
  176   178     1
  176   179     1
  177   182     1
  177   183     1
  177   184     1
  177   190     1
  177   191     1
  178   180     1
  178   181     1
  178   189     1
  179   185     1
  179   186     1
  179   192     1
  179   195     1
  180   182     1
  180   183     1
  180   184     1
  180   190     1
  180   191     1
  181   187     1
  181   188     1
  181   190     1
  181   191     1
  182   185     1
  182   186     1
  182   189     1
  183   185     1
  183   186     1
  183   189     1
  184   189     1
  185   187     1
  185   188     1
  189   193     1
  189   194     1
  189   196     1
  189   197     1
  189   200     1
  189   203     1
  190   192     1
  190   195     1
  191   198     1
  191   199     1
  191   201     1
  191   202     1
  191   204     1
  191   205     1
  192   196     1
  192   198     1
  192   199     1
  192   203     1
  193   195     1
  193   197     1
  193   201     1
  193   202     1
  194   195     1
  194   197     1
  194   201     1
  194   202     1
  195   201     1
  195   202     1
  196   198     1
  196   199     1
  196   200     1
  196   204     1
  196   205     1
  197   204     1
  197   205     1
  198   201     1
  198   202     1
  198   203     1
  199   201     1
  199   202     1
  199   203     1
  200   203     1

[ angles ] 
; ai	aj	ak	funct	th0	cth	S0	Kub
    2     1     3     5
    2     1     4     5
    2     1     5     5
    3     1     4     5
    3     1     5     5
    4     1     5     5
    1     5     6     5
    1     5     7     5
    1     5     8     5
    6     5     7     5
    6     5     8     5
    7     5     8     5
    5     8     9     5
    5     8    10     5
    9     8    10     5
    8    10    11     5
    8    10    14     5
   11    10    14     5
   10    11    12     5
   10    11    13     5
   10    11    19     5
   12    11    13     5
   12    11    19     5
   13    11    19     5
   10    14    15     5
   10    14    16     5
   10    14    22     5
   15    14    16     5
   15    14    22     5
   16    14    22     5
   14    16    17     5
   14    16    18     5
   14    16    19     5
   17    16    18     5
   17    16    19     5
   18    16    19     5
   11    19    16     5
   11    19    20     5
   11    19    21     5
   16    19    20     5
   16    19    21     5
   20    19    21     5
   14    22    23     5
   14    22    24     5
   23    22    24     5
   22    24    25     5
   22    24    26     5
   25    24    26     5
   24    26    27     5
   24    26    28     5
   24    26    29     5
   27    26    28     5
   27    26    29     5
   28    26    29     5
   26    29    30     5
   26    29    31     5
   30    29    31     5
   29    31    32     5
   29    31    33     5
   32    31    33     5
   31    33    34     5
   31    33    35     5
   31    33    43     5
   34    33    35     5
   34    33    43     5
   35    33    43     5
   33    35    36     5
   33    35    37     5
   33    35    38     5
   36    35    37     5
   36    35    38     5
   37    35    38     5
   35    38    39     5
   35    38    40     5
   39    38    40     5
   38    40    41     5
   38    40    42     5
   41    40    42     5
   33    43    44     5
   33    43    45     5
   44    43    45     5
   43    45    46     5
   43    45    49     5
   46    45    49     5
   45    46    47     5
   45    46    48     5
   45    46    54     5
   47    46    48     5
   47    46    54     5
   48    46    54     5
   45    49    50     5
   45    49    51     5
   45    49    57     5
   50    49    51     5
   50    49    57     5
   51    49    57     5
   49    51    52     5
   49    51    53     5
   49    51    54     5
   52    51    53     5
   52    51    54     5
   53    51    54     5
   46    54    51     5
   46    54    55     5
   46    54    56     5
   51    54    55     5
   51    54    56     5
   55    54    56     5
   49    57    58     5
   49    57    59     5
   58    57    59     5
   57    59    60     5
   57    59    61     5
   60    59    61     5
   59    61    62     5
   59    61    63     5
   59    61    64     5
   62    61    63     5
   62    61    64     5
   63    61    64     5
   61    64    65     5
   61    64    66     5
   65    64    66     5
   64    66    67     5
   64    66    68     5
   67    66    68     5
   66    68    69     5
   66    68    70     5
   66    68    75     5
   69    68    70     5
   69    68    75     5
   70    68    75     5
   68    70    71     5
   68    70    72     5
   68    70    73     5
   71    70    72     5
   71    70    73     5
   72    70    73     5
   70    73    74     5
   68    75    76     5
   68    75    77     5
   76    75    77     5
   75    77    78     5
   75    77    79     5
   78    77    79     5
   77    79    80     5
   77    79    81     5
   77    79    82     5
   80    79    81     5
   80    79    82     5
   81    79    82     5
   79    82    83     5
   79    82    84     5
   83    82    84     5
   82    84    85     5
   82    84    88     5
   85    84    88     5
   84    85    86     5
   84    85    87     5
   84    85    93     5
   86    85    87     5
   86    85    93     5
   87    85    93     5
   84    88    89     5
   84    88    90     5
   84    88    96     5
   89    88    90     5
   89    88    96     5
   90    88    96     5
   88    90    91     5
   88    90    92     5
   88    90    93     5
   91    90    92     5
   91    90    93     5
   92    90    93     5
   85    93    90     5
   85    93    94     5
   85    93    95     5
   90    93    94     5
   90    93    95     5
   94    93    95     5
   88    96    97     5
   88    96    98     5
   97    96    98     5
   96    98    99     5
   96    98   100     5
   99    98   100     5
   98   100   101     5
   98   100   102     5
   98   100   103     5
  101   100   102     5
  101   100   103     5
  102   100   103     5
  100   103   104     5
  100   103   105     5
  104   103   105     5
  103   105   106     5
  103   105   107     5
  106   105   107     5
  105   107   108     5
  105   107   109     5
  105   107   115     5
  108   107   109     5
  108   107   115     5
  109   107   115     5
  107   109   110     5
  107   109   111     5
  107   109   112     5
  110   109   111     5
  110   109   112     5
  111   109   112     5
  109   112   113     5
  109   112   114     5
  113   112   114     5
  107   115   116     5
  107   115   117     5
  116   115   117     5
  115   117   118     5
  115   117   121     5
  118   117   121     5
  117   118   119     5
  117   118   120     5
  117   118   126     5
  119   118   120     5
  119   118   126     5
  120   118   126     5
  117   121   122     5
  117   121   123     5
  117   121   129     5
  122   121   123     5
  122   121   129     5
  123   121   129     5
  121   123   124     5
  121   123   125     5
  121   123   126     5
  124   123   125     5
  124   123   126     5
  125   123   126     5
  118   126   123     5
  118   126   127     5
  118   126   128     5
  123   126   127     5
  123   126   128     5
  127   126   128     5
  121   129   130     5
  121   129   131     5
  130   129   131     5
  129   131   132     5
  129   131   133     5
  132   131   133     5
  131   133   134     5
  131   133   135     5
  131   133   136     5
  134   133   135     5
  134   133   136     5
  135   133   136     5
  133   136   137     5
  133   136   138     5
  137   136   138     5
  136   138   139     5
  136   138   140     5
  139   138   140     5
  138   140   141     5
  138   140   142     5
  138   140   147     5
  141   140   142     5
  141   140   147     5
  142   140   147     5
  140   142   143     5
  140   142   144     5
  140   142   145     5
  143   142   144     5
  143   142   145     5
  144   142   145     5
  142   145   146     5
  140   147   148     5
  140   147   149     5
  148   147   149     5
  147   149   150     5
  147   149   151     5
  150   149   151     5
  149   151   152     5
  149   151   153     5
  149   151   154     5
  152   151   153     5
  152   151   154     5
  153   151   154     5
  151   154   155     5
  151   154   156     5
  155   154   156     5
  154   156   157     5
  154   156   160     5
  157   156   160     5
  156   157   158     5
  156   157   159     5
  156   157   165     5
  158   157   159     5
  158   157   165     5
  159   157   165     5
  156   160   161     5
  156   160   162     5
  156   160   168     5
  161   160   162     5
  161   160   168     5
  162   160   168     5
  160   162   163     5
  160   162   164     5
  160   162   165     5
  163   162   164     5
  163   162   165     5
  164   162   165     5
  157   165   162     5
  157   165   166     5
  157   165   167     5
  162   165   166     5
  162   165   167     5
  166   165   167     5
  160   168   169     5
  160   168   170     5
  169   168   170     5
  168   170   171     5
  168   170   172     5
  171   170   172     5
  170   172   173     5
  170   172   174     5
  170   172   175     5
  173   172   174     5
  173   172   175     5
  174   172   175     5
  172   175   176     5
  172   175   177     5
  176   175   177     5
  175   177   178     5
  175   177   179     5
  178   177   179     5
  177   179   180     5
  177   179   181     5
  177   179   189     5
  180   179   181     5
  180   179   189     5
  181   179   189     5
  179   181   182     5
  179   181   183     5
  179   181   184     5
  182   181   183     5
  182   181   184     5
  183   181   184     5
  181   184   185     5
  181   184   186     5
  185   184   186     5
  184   186   187     5
  184   186   188     5
  187   186   188     5
  179   189   190     5
  179   189   191     5
  190   189   191     5
  189   191   192     5
  189   191   195     5
  192   191   195     5
  191   192   193     5
  191   192   194     5
  191   192   200     5
  193   192   194     5
  193   192   200     5
  194   192   200     5
  191   195   196     5
  191   195   197     5
  191   195   203     5
  196   195   197     5
  196   195   203     5
  197   195   203     5
  195   197   198     5
  195   197   199     5
  195   197   200     5
  198   197   199     5
  198   197   200     5
  199   197   200     5
  192   200   197     5
  192   200   201     5
  192   200   202     5
  197   200   201     5
  197   200   202     5
  201   200   202     5
  195   203   204     5
  195   203   205     5
  204   203   205     5

[ dihedrals ]
; ai	aj	ak	al	funct	phi0	cp	mult
    2     1     5     6     9
    2     1     5     7     9
    2     1     5     8     9
    3     1     5     6     9
    3     1     5     7     9
    3     1     5     8     9
    4     1     5     6     9
    4     1     5     7     9
    4     1     5     8     9
    1     5     8     9     9
    1     5     8    10     9
    6     5     8     9     9
    6     5     8    10     9
    7     5     8     9     9
    7     5     8    10     9
    5     8    10    11     9
    5     8    10    14     9
    9     8    10    11     9
    9     8    10    14     9
    8    10    11    12     9
    8    10    11    13     9
    8    10    11    19     9
   14    10    11    19     9
    8    10    14    15     9
    8    10    14    16     9
    8    10    14    22     9
   11    10    14    15     9
   11    10    14    16     9
   11    10    14    22     9
   12    11    10    14     9
   13    11    10    14     9
   10    11    19    16     9
   10    11    19    20     9
   10    11    19    21     9
   12    11    19    16     9
   12    11    19    20     9
   12    11    19    21     9
   13    11    19    16     9
   13    11    19    20     9
   13    11    19    21     9
   10    14    16    17     9
   10    14    16    18     9
   10    14    16    19     9
   15    14    16    17     9
   15    14    16    18     9
   15    14    16    19     9
   10    14    22    23     9
   10    14    22    24     9
   15    14    22    23     9
   15    14    22    24     9
   16    14    22    23     9
   16    14    22    24     9
   17    16    14    22     9
   18    16    14    22     9
   19    16    14    22     9
   14    16    19    20     9
   14    16    19    21     9
   17    16    19    20     9
   17    16    19    21     9
   18    16    19    20     9
   18    16    19    21     9
   11    19    16    14     9
   11    19    16    17     9
   11    19    16    18     9
   14    22    24    25     9
   14    22    24    26     9
   23    22    24    25     9
   23    22    24    26     9
   22    24    26    27     9
   22    24    26    28     9
   22    24    26    29     9
   25    24    26    27     9
   25    24    26    28     9
   25    24    26    29     9
   24    26    29    30     9
   24    26    29    31     9
   27    26    29    30     9
   27    26    29    31     9
   28    26    29    30     9
   28    26    29    31     9
   26    29    31    32     9
   26    29    31    33     9
   30    29    31    32     9
   30    29    31    33     9
   29    31    33    34     9
   29    31    33    35     9
   29    31    33    43     9
   32    31    33    34     9
   32    31    33    35     9
   32    31    33    43     9
   31    33    35    36     9
   31    33    35    37     9
   31    33    35    38     9
   34    33    35    36     9
   34    33    35    37     9
   34    33    35    38     9
   31    33    43    44     9
   31    33    43    45     9
   34    33    43    44     9
   34    33    43    45     9
   35    33    43    44     9
   35    33    43    45     9
   36    35    33    43     9
   37    35    33    43     9
   38    35    33    43     9
   33    35    38    39     9
   33    35    38    40     9
   36    35    38    39     9
   36    35    38    40     9
   37    35    38    39     9
   37    35    38    40     9
   35    38    40    41     9
   35    38    40    42     9
   39    38    40    41     9
   39    38    40    42     9
   33    43    45    46     9
   33    43    45    49     9
   44    43    45    46     9
   44    43    45    49     9
   43    45    46    47     9
   43    45    46    48     9
   43    45    46    54     9
   49    45    46    54     9
   43    45    49    50     9
   43    45    49    51     9
   43    45    49    57     9
   46    45    49    50     9
   46    45    49    51     9
   46    45    49    57     9
   47    46    45    49     9
   48    46    45    49     9
   45    46    54    51     9
   45    46    54    55     9
   45    46    54    56     9
   47    46    54    51     9
   47    46    54    55     9
   47    46    54    56     9
   48    46    54    51     9
   48    46    54    55     9
   48    46    54    56     9
   45    49    51    52     9
   45    49    51    53     9
   45    49    51    54     9
   50    49    51    52     9
   50    49    51    53     9
   50    49    51    54     9
   45    49    57    58     9
   45    49    57    59     9
   50    49    57    58     9
   50    49    57    59     9
   51    49    57    58     9
   51    49    57    59     9
   52    51    49    57     9
   53    51    49    57     9
   54    51    49    57     9
   49    51    54    55     9
   49    51    54    56     9
   52    51    54    55     9
   52    51    54    56     9
   53    51    54    55     9
   53    51    54    56     9
   46    54    51    49     9
   46    54    51    52     9
   46    54    51    53     9
   49    57    59    60     9
   49    57    59    61     9
   58    57    59    60     9
   58    57    59    61     9
   57    59    61    62     9
   57    59    61    63     9
   57    59    61    64     9
   60    59    61    62     9
   60    59    61    63     9
   60    59    61    64     9
   59    61    64    65     9
   59    61    64    66     9
   62    61    64    65     9
   62    61    64    66     9
   63    61    64    65     9
   63    61    64    66     9
   61    64    66    67     9
   61    64    66    68     9
   65    64    66    67     9
   65    64    66    68     9
   64    66    68    69     9
   64    66    68    70     9
   64    66    68    75     9
   67    66    68    69     9
   67    66    68    70     9
   67    66    68    75     9
   66    68    70    71     9
   66    68    70    72     9
   66    68    70    73     9
   69    68    70    71     9
   69    68    70    72     9
   69    68    70    73     9
   66    68    75    76     9
   66    68    75    77     9
   69    68    75    76     9
   69    68    75    77     9
   70    68    75    76     9
   70    68    75    77     9
   71    70    68    75     9
   72    70    68    75     9
   73    70    68    75     9
   68    70    73    74     9
   71    70    73    74     9
   72    70    73    74     9
   68    75    77    78     9
   68    75    77    79     9
   76    75    77    78     9
   76    75    77    79     9
   75    77    79    80     9
   75    77    79    81     9
   75    77    79    82     9
   78    77    79    80     9
   78    77    79    81     9
   78    77    79    82     9
   77    79    82    83     9
   77    79    82    84     9
   80    79    82    83     9
   80    79    82    84     9
   81    79    82    83     9
   81    79    82    84     9
   79    82    84    85     9
   79    82    84    88     9
   83    82    84    85     9
   83    82    84    88     9
   82    84    85    86     9
   82    84    85    87     9
   82    84    85    93     9
   88    84    85    93     9
   82    84    88    89     9
   82    84    88    90     9
   82    84    88    96     9
   85    84    88    89     9
   85    84    88    90     9
   85    84    88    96     9
   86    85    84    88     9
   87    85    84    88     9
   84    85    93    90     9
   84    85    93    94     9
   84    85    93    95     9
   86    85    93    90     9
   86    85    93    94     9
   86    85    93    95     9
   87    85    93    90     9
   87    85    93    94     9
   87    85    93    95     9
   84    88    90    91     9
   84    88    90    92     9
   84    88    90    93     9
   89    88    90    91     9
   89    88    90    92     9
   89    88    90    93     9
   84    88    96    97     9
   84    88    96    98     9
   89    88    96    97     9
   89    88    96    98     9
   90    88    96    97     9
   90    88    96    98     9
   91    90    88    96     9
   92    90    88    96     9
   93    90    88    96     9
   88    90    93    94     9
   88    90    93    95     9
   91    90    93    94     9
   91    90    93    95     9
   92    90    93    94     9
   92    90    93    95     9
   85    93    90    88     9
   85    93    90    91     9
   85    93    90    92     9
   88    96    98    99     9
   88    96    98   100     9
   97    96    98    99     9
   97    96    98   100     9
   96    98   100   101     9
   96    98   100   102     9
   96    98   100   103     9
   99    98   100   101     9
   99    98   100   102     9
   99    98   100   103     9
   98   100   103   104     9
   98   100   103   105     9
  101   100   103   104     9
  101   100   103   105     9
  102   100   103   104     9
  102   100   103   105     9
  100   103   105   106     9
  100   103   105   107     9
  104   103   105   106     9
  104   103   105   107     9
  103   105   107   108     9
  103   105   107   109     9
  103   105   107   115     9
  106   105   107   108     9
  106   105   107   109     9
  106   105   107   115     9
  105   107   109   110     9
  105   107   109   111     9
  105   107   109   112     9
  108   107   109   110     9
  108   107   109   111     9
  108   107   109   112     9
  105   107   115   116     9
  105   107   115   117     9
  108   107   115   116     9
  108   107   115   117     9
  109   107   115   116     9
  109   107   115   117     9
  110   109   107   115     9
  111   109   107   115     9
  112   109   107   115     9
  107   109   112   113     9
  107   109   112   114     9
  110   109   112   113     9
  110   109   112   114     9
  111   109   112   113     9
  111   109   112   114     9
  107   115   117   118     9
  107   115   117   121     9
  116   115   117   118     9
  116   115   117   121     9
  115   117   118   119     9
  115   117   118   120     9
  115   117   118   126     9
  121   117   118   126     9
  115   117   121   122     9
  115   117   121   123     9
  115   117   121   129     9
  118   117   121   122     9
  118   117   121   123     9
  118   117   121   129     9
  119   118   117   121     9
  120   118   117   121     9
  117   118   126   123     9
  117   118   126   127     9
  117   118   126   128     9
  119   118   126   123     9
  119   118   126   127     9
  119   118   126   128     9
  120   118   126   123     9
  120   118   126   127     9
  120   118   126   128     9
  117   121   123   124     9
  117   121   123   125     9
  117   121   123   126     9
  122   121   123   124     9
  122   121   123   125     9
  122   121   123   126     9
  117   121   129   130     9
  117   121   129   131     9
  122   121   129   130     9
  122   121   129   131     9
  123   121   129   130     9
  123   121   129   131     9
  124   123   121   129     9
  125   123   121   129     9
  126   123   121   129     9
  121   123   126   127     9
  121   123   126   128     9
  124   123   126   127     9
  124   123   126   128     9
  125   123   126   127     9
  125   123   126   128     9
  118   126   123   121     9
  118   126   123   124     9
  118   126   123   125     9
  121   129   131   132     9
  121   129   131   133     9
  130   129   131   132     9
  130   129   131   133     9
  129   131   133   134     9
  129   131   133   135     9
  129   131   133   136     9
  132   131   133   134     9
  132   131   133   135     9
  132   131   133   136     9
  131   133   136   137     9
  131   133   136   138     9
  134   133   136   137     9
  134   133   136   138     9
  135   133   136   137     9
  135   133   136   138     9
  133   136   138   139     9
  133   136   138   140     9
  137   136   138   139     9
  137   136   138   140     9
  136   138   140   141     9
  136   138   140   142     9
  136   138   140   147     9
  139   138   140   141     9
  139   138   140   142     9
  139   138   140   147     9
  138   140   142   143     9
  138   140   142   144     9
  138   140   142   145     9
  141   140   142   143     9
  141   140   142   144     9
  141   140   142   145     9
  138   140   147   148     9
  138   140   147   149     9
  141   140   147   148     9
  141   140   147   149     9
  142   140   147   148     9
  142   140   147   149     9
  143   142   140   147     9
  144   142   140   147     9
  145   142   140   147     9
  140   142   145   146     9
  143   142   145   146     9
  144   142   145   146     9
  140   147   149   150     9
  140   147   149   151     9
  148   147   149   150     9
  148   147   149   151     9
  147   149   151   152     9
  147   149   151   153     9
  147   149   151   154     9
  150   149   151   152     9
  150   149   151   153     9
  150   149   151   154     9
  149   151   154   155     9
  149   151   154   156     9
  152   151   154   155     9
  152   151   154   156     9
  153   151   154   155     9
  153   151   154   156     9
  151   154   156   157     9
  151   154   156   160     9
  155   154   156   157     9
  155   154   156   160     9
  154   156   157   158     9
  154   156   157   159     9
  154   156   157   165     9
  160   156   157   165     9
  154   156   160   161     9
  154   156   160   162     9
  154   156   160   168     9
  157   156   160   161     9
  157   156   160   162     9
  157   156   160   168     9
  158   157   156   160     9
  159   157   156   160     9
  156   157   165   162     9
  156   157   165   166     9
  156   157   165   167     9
  158   157   165   162     9
  158   157   165   166     9
  158   157   165   167     9
  159   157   165   162     9
  159   157   165   166     9
  159   157   165   167     9
  156   160   162   163     9
  156   160   162   164     9
  156   160   162   165     9
  161   160   162   163     9
  161   160   162   164     9
  161   160   162   165     9
  156   160   168   169     9
  156   160   168   170     9
  161   160   168   169     9
  161   160   168   170     9
  162   160   168   169     9
  162   160   168   170     9
  163   162   160   168     9
  164   162   160   168     9
  165   162   160   168     9
  160   162   165   166     9
  160   162   165   167     9
  163   162   165   166     9
  163   162   165   167     9
  164   162   165   166     9
  164   162   165   167     9
  157   165   162   160     9
  157   165   162   163     9
  157   165   162   164     9
  160   168   170   171     9
  160   168   170   172     9
  169   168   170   171     9
  169   168   170   172     9
  168   170   172   173     9
  168   170   172   174     9
  168   170   172   175     9
  171   170   172   173     9
  171   170   172   174     9
  171   170   172   175     9
  170   172   175   176     9
  170   172   175   177     9
  173   172   175   176     9
  173   172   175   177     9
  174   172   175   176     9
  174   172   175   177     9
  172   175   177   178     9
  172   175   177   179     9
  176   175   177   178     9
  176   175   177   179     9
  175   177   179   180     9
  175   177   179   181     9
  175   177   179   189     9
  178   177   179   180     9
  178   177   179   181     9
  178   177   179   189     9
  177   179   181   182     9
  177   179   181   183     9
  177   179   181   184     9
  180   179   181   182     9
  180   179   181   183     9
  180   179   181   184     9
  177   179   189   190     9
  177   179   189   191     9
  180   179   189   190     9
  180   179   189   191     9
  181   179   189   190     9
  181   179   189   191     9
  182   181   179   189     9
  183   181   179   189     9
  184   181   179   189     9
  179   181   184   185     9
  179   181   184   186     9
  182   181   184   185     9
  182   181   184   186     9
  183   181   184   185     9
  183   181   184   186     9
  181   184   186   187     9
  181   184   186   188     9
  185   184   186   187     9
  185   184   186   188     9
  179   189   191   192     9
  179   189   191   195     9
  190   189   191   192     9
  190   189   191   195     9
  189   191   192   193     9
  189   191   192   194     9
  189   191   192   200     9
  195   191   192   200     9
  189   191   195   196     9
  189   191   195   197     9
  189   191   195   203     9
  192   191   195   196     9
  192   191   195   197     9
  192   191   195   203     9
  193   192   191   195     9
  194   192   191   195     9
  191   192   200   197     9
  191   192   200   201     9
  191   192   200   202     9
  193   192   200   197     9
  193   192   200   201     9
  193   192   200   202     9
  194   192   200   197     9
  194   192   200   201     9
  194   192   200   202     9
  191   195   197   198     9
  191   195   197   199     9
  191   195   197   200     9
  196   195   197   198     9
  196   195   197   199     9
  196   195   197   200     9
  191   195   203   204     9
  191   195   203   205     9
  196   195   203   204     9
  196   195   203   205     9
  197   195   203   204     9
  197   195   203   205     9
  198   197   195   203     9
  199   197   195   203     9
  200   197   195   203     9
  195   197   200   201     9
  195   197   200   202     9
  198   197   200   201     9
  198   197   200   202     9
  199   197   200   201     9
  199   197   200   202     9
  192   200   197   195     9
  192   200   197   198     9
  192   200   197   199     9

[ dihedrals ]
; ai	aj	ak	al	funct	q0	cq
    8     5    10     9     2
   10     8    14    11     2
   22    14    24    23     2
   24    22    26    25     2
   29    26    31    30     2
   31    29    33    32     2
   38    35    40    39     2
   38    40    35    39     2
   40    38    42    41     2
   40    38    41    42     2
   43    33    45    44     2
   45    43    49    46     2
   57    49    59    58     2
   59    57    61    60     2
   64    61    66    65     2
   66    64    68    67     2
   75    68    77    76     2
   77    75    79    78     2
   82    79    84    83     2
   84    82    88    85     2
   96    88    98    97     2
   98    96   100    99     2
  103   100   105   104     2
  105   103   107   106     2
  112   109   114   113     2
  115   107   117   116     2
  117   115   121   118     2
  129   121   131   130     2
  131   129   133   132     2
  136   133   138   137     2
  138   136   140   139     2
  147   140   149   148     2
  149   147   151   150     2
  154   151   156   155     2
  156   154   160   157     2
  168   160   170   169     2
  170   168   172   171     2
  175   172   177   176     2
  177   175   179   178     2
  184   181   186   185     2
  184   186   181   185     2
  186   184   188   187     2
  186   184   187   188     2
  189   179   191   190     2
  191   189   195   192     2
  203   195   205   204     2

[ cmap ] 
; ai	aj	ak	al	am	funct
    8    10    14    22    24     1
   22    24    26    29    31     1
   29    31    33    43    45     1
   43    45    49    57    59     1
   57    59    61    64    66     1
   64    66    68    75    77     1
   75    77    79    82    84     1
   82    84    88    96    98     1
   96    98   100   103   105     1
  103   105   107   115   117     1
  115   117   121   129   131     1
  129   131   133   136   138     1
  136   138   140   147   149     1
  147   149   151   154   156     1
  154   156   160   168   170     1
  168   170   172   175   177     1
  175   177   179   189   191     1

#ifdef POSRES
[ position_restraints ]
    1     1    POSRES_FC_BB    POSRES_FC_BB    POSRES_FC_BB   
    5     1    POSRES_FC_BB    POSRES_FC_BB    POSRES_FC_BB   
    8     1    POSRES_FC_BB    POSRES_FC_BB    POSRES_FC_BB   
    9     1    POSRES_FC_BB    POSRES_FC_BB    POSRES_FC_BB   
   10     1    POSRES_FC_BB    POSRES_FC_BB    POSRES_FC_BB   
   11     1    POSRES_FC_SC    POSRES_FC_SC    POSRES_FC_SC   
   14     1    POSRES_FC_BB    POSRES_FC_BB    POSRES_FC_BB   
   16     1    POSRES_FC_SC    POSRES_FC_SC    POSRES_FC_SC   
   19     1    POSRES_FC_SC    POSRES_FC_SC    POSRES_FC_SC   
   22     1    POSRES_FC_BB    POSRES_FC_BB    POSRES_FC_BB   
   23     1    POSRES_FC_BB    POSRES_FC_BB    POSRES_FC_BB   
   24     1    POSRES_FC_BB    POSRES_FC_BB    POSRES_FC_BB   
   26     1    POSRES_FC_BB    POSRES_FC_BB    POSRES_FC_BB   
   29     1    POSRES_FC_BB    POSRES_FC_BB    POSRES_FC_BB   
   30     1    POSRES_FC_BB    POSRES_FC_BB    POSRES_FC_BB   
   31     1    POSRES_FC_BB    POSRES_FC_BB    POSRES_FC_BB   
   33     1    POSRES_FC_BB    POSRES_FC_BB    POSRES_FC_BB   
   35     1    POSRES_FC_SC    POSRES_FC_SC    POSRES_FC_SC   
   38     1    POSRES_FC_SC    POSRES_FC_SC    POSRES_FC_SC   
   39     1    POSRES_FC_SC    POSRES_FC_SC    POSRES_FC_SC   
   40     1    POSRES_FC_SC    POSRES_FC_SC    POSRES_FC_SC   
   43     1    POSRES_FC_BB    POSRES_FC_BB    POSRES_FC_BB   
   44     1    POSRES_FC_BB    POSRES_FC_BB    POSRES_FC_BB   
   45     1    POSRES_FC_BB    POSRES_FC_BB    POSRES_FC_BB   
   46     1    POSRES_FC_SC    POSRES_FC_SC    POSRES_FC_SC   
   49     1    POSRES_FC_BB    POSRES_FC_BB    POSRES_FC_BB   
   51     1    POSRES_FC_SC    POSRES_FC_SC    POSRES_FC_SC   
   54     1    POSRES_FC_SC    POSRES_FC_SC    POSRES_FC_SC   
   57     1    POSRES_FC_BB    POSRES_FC_BB    POSRES_FC_BB   
   58     1    POSRES_FC_BB    POSRES_FC_BB    POSRES_FC_BB   
   59     1    POSRES_FC_BB    POSRES_FC_BB    POSRES_FC_BB   
   61     1    POSRES_FC_BB    POSRES_FC_BB    POSRES_FC_BB   
   64     1    POSRES_FC_BB    POSRES_FC_BB    POSRES_FC_BB   
   65     1    POSRES_FC_BB    POSRES_FC_BB    POSRES_FC_BB   
   66     1    POSRES_FC_BB    POSRES_FC_BB    POSRES_FC_BB   
   68     1    POSRES_FC_BB    POSRES_FC_BB    POSRES_FC_BB   
   70     1    POSRES_FC_SC    POSRES_FC_SC    POSRES_FC_SC   
   73     1    POSRES_FC_SC    POSRES_FC_SC    POSRES_FC_SC   
   75     1    POSRES_FC_BB    POSRES_FC_BB    POSRES_FC_BB   
   76     1    POSRES_FC_BB    POSRES_FC_BB    POSRES_FC_BB   
   77     1    POSRES_FC_BB    POSRES_FC_BB    POSRES_FC_BB   
   79     1    POSRES_FC_BB    POSRES_FC_BB    POSRES_FC_BB   
   82     1    POSRES_FC_BB    POSRES_FC_BB    POSRES_FC_BB   
   83     1    POSRES_FC_BB    POSRES_FC_BB    POSRES_FC_BB   
   84     1    POSRES_FC_BB    POSRES_FC_BB    POSRES_FC_BB   
   85     1    POSRES_FC_SC    POSRES_FC_SC    POSRES_FC_SC   
   88     1    POSRES_FC_BB    POSRES_FC_BB    POSRES_FC_BB   
   90     1    POSRES_FC_SC    POSRES_FC_SC    POSRES_FC_SC   
   93     1    POSRES_FC_SC    POSRES_FC_SC    POSRES_FC_SC   
   96     1    POSRES_FC_BB    POSRES_FC_BB    POSRES_FC_BB   
   97     1    POSRES_FC_BB    POSRES_FC_BB    POSRES_FC_BB   
   98     1    POSRES_FC_BB    POSRES_FC_BB    POSRES_FC_BB   
  100     1    POSRES_FC_BB    POSRES_FC_BB    POSRES_FC_BB   
  103     1    POSRES_FC_BB    POSRES_FC_BB    POSRES_FC_BB   
  104     1    POSRES_FC_BB    POSRES_FC_BB    POSRES_FC_BB   
  105     1    POSRES_FC_BB    POSRES_FC_BB    POSRES_FC_BB   
  107     1    POSRES_FC_BB    POSRES_FC_BB    POSRES_FC_BB   
  109     1    POSRES_FC_SC    POSRES_FC_SC    POSRES_FC_SC   
  112     1    POSRES_FC_SC    POSRES_FC_SC    POSRES_FC_SC   
  113     1    POSRES_FC_SC    POSRES_FC_SC    POSRES_FC_SC   
  114     1    POSRES_FC_SC    POSRES_FC_SC    POSRES_FC_SC   
  115     1    POSRES_FC_BB    POSRES_FC_BB    POSRES_FC_BB   
  116     1    POSRES_FC_BB    POSRES_FC_BB    POSRES_FC_BB   
  117     1    POSRES_FC_BB    POSRES_FC_BB    POSRES_FC_BB   
  118     1    POSRES_FC_SC    POSRES_FC_SC    POSRES_FC_SC   
  121     1    POSRES_FC_BB    POSRES_FC_BB    POSRES_FC_BB   
  123     1    POSRES_FC_SC    POSRES_FC_SC    POSRES_FC_SC   
  126     1    POSRES_FC_SC    POSRES_FC_SC    POSRES_FC_SC   
  129     1    POSRES_FC_BB    POSRES_FC_BB    POSRES_FC_BB   
  130     1    POSRES_FC_BB    POSRES_FC_BB    POSRES_FC_BB   
  131     1    POSRES_FC_BB    POSRES_FC_BB    POSRES_FC_BB   
  133     1    POSRES_FC_BB    POSRES_FC_BB    POSRES_FC_BB   
  136     1    POSRES_FC_BB    POSRES_FC_BB    POSRES_FC_BB   
  137     1    POSRES_FC_BB    POSRES_FC_BB    POSRES_FC_BB   
  138     1    POSRES_FC_BB    POSRES_FC_BB    POSRES_FC_BB   
  140     1    POSRES_FC_BB    POSRES_FC_BB    POSRES_FC_BB   
  142     1    POSRES_FC_SC    POSRES_FC_SC    POSRES_FC_SC   
  145     1    POSRES_FC_SC    POSRES_FC_SC    POSRES_FC_SC   
  147     1    POSRES_FC_BB    POSRES_FC_BB    POSRES_FC_BB   
  148     1    POSRES_FC_BB    POSRES_FC_BB    POSRES_FC_BB   
  149     1    POSRES_FC_BB    POSRES_FC_BB    POSRES_FC_BB   
  151     1    POSRES_FC_BB    POSRES_FC_BB    POSRES_FC_BB   
  154     1    POSRES_FC_BB    POSRES_FC_BB    POSRES_FC_BB   
  155     1    POSRES_FC_BB    POSRES_FC_BB    POSRES_FC_BB   
  156     1    POSRES_FC_BB    POSRES_FC_BB    POSRES_FC_BB   
  157     1    POSRES_FC_SC    POSRES_FC_SC    POSRES_FC_SC   
  160     1    POSRES_FC_BB    POSRES_FC_BB    POSRES_FC_BB   
  162     1    POSRES_FC_SC    POSRES_FC_SC    POSRES_FC_SC   
  165     1    POSRES_FC_SC    POSRES_FC_SC    POSRES_FC_SC   
  168     1    POSRES_FC_BB    POSRES_FC_BB    POSRES_FC_BB   
  169     1    POSRES_FC_BB    POSRES_FC_BB    POSRES_FC_BB   
  170     1    POSRES_FC_BB    POSRES_FC_BB    POSRES_FC_BB   
  172     1    POSRES_FC_BB    POSRES_FC_BB    POSRES_FC_BB   
  175     1    POSRES_FC_BB    POSRES_FC_BB    POSRES_FC_BB   
  176     1    POSRES_FC_BB    POSRES_FC_BB    POSRES_FC_BB   
  177     1    POSRES_FC_BB    POSRES_FC_BB    POSRES_FC_BB   
  179     1    POSRES_FC_BB    POSRES_FC_BB    POSRES_FC_BB   
  181     1    POSRES_FC_SC    POSRES_FC_SC    POSRES_FC_SC   
  184     1    POSRES_FC_SC    POSRES_FC_SC    POSRES_FC_SC   
  185     1    POSRES_FC_SC    POSRES_FC_SC    POSRES_FC_SC   
  186     1    POSRES_FC_SC    POSRES_FC_SC    POSRES_FC_SC   
  189     1    POSRES_FC_BB    POSRES_FC_BB    POSRES_FC_BB   
  190     1    POSRES_FC_BB    POSRES_FC_BB    POSRES_FC_BB   
  191     1    POSRES_FC_BB    POSRES_FC_BB    POSRES_FC_BB   
  192     1    POSRES_FC_SC    POSRES_FC_SC    POSRES_FC_SC   
  195     1    POSRES_FC_BB    POSRES_FC_BB    POSRES_FC_BB   
  197     1    POSRES_FC_SC    POSRES_FC_SC    POSRES_FC_SC   
  200     1    POSRES_FC_SC    POSRES_FC_SC    POSRES_FC_SC   
  203     1    POSRES_FC_BB    POSRES_FC_BB    POSRES_FC_BB   
  204     1    POSRES_FC_SC    POSRES_FC_SC    POSRES_FC_SC   
  205     1    POSRES_FC_SC    POSRES_FC_SC    POSRES_FC_SC   
#endif
