Title t= 189.00000 step= 94500
19942
    1ASP      N    1   1.230   2.253   3.588
    1ASP    HT1    2   1.206   2.270   3.688
    1ASP    HT2    3   1.157   2.193   3.545
    1ASP    HT3    4   1.248   2.345   3.543
    1ASP     CA    5   1.367   2.190   3.596
    1ASP     HA    6   1.435   2.260   3.640
    1ASP     CB    7   1.366   2.082   3.704
    1ASP    HB1    8   1.290   2.002   3.693
    1ASP    HB2    9   1.353   2.128   3.805
    1ASP     CG   10   1.503   2.034   3.718
    1ASP    OD1   11   1.530   1.913   3.744
    1ASP    OD2   12   1.603   2.110   3.702
    1ASP      C   13   1.418   2.148   3.461
    1ASP      O   14   1.425   2.234   3.377
    2ALA      N   15   1.472   2.022   3.436
    2ALA     HN   16   1.496   1.968   3.516
    2ALA     CA   17   1.510   1.978   3.305
    2ALA     HA   18   1.581   2.050   3.266
    2ALA     CB   19   1.599   1.856   3.308
    2ALA    HB1   20   1.707   1.879   3.317
    2ALA    HB2   21   1.573   1.786   3.226
    2ALA    HB3   22   1.573   1.793   3.396
    2ALA      C   23   1.391   1.959   3.215
    2ALA      O   24   1.276   1.937   3.257
    3ASP      N   25   1.411   1.980   3.080
    3ASP     HN   26   1.500   1.983   3.036
    3ASP     CA   27   1.300   2.006   2.996
    3ASP     HA   28   1.229   2.062   3.055
    3ASP     CB   29   1.345   2.095   2.873
    3ASP    HB1   30   1.271   2.110   2.792
    3ASP    HB2   31   1.437   2.048   2.832
    3ASP     CG   32   1.383   2.235   2.917
    3ASP    OD1   33   1.491   2.280   2.870
    3ASP    OD2   34   1.319   2.291   3.009
    3ASP      C   35   1.224   1.888   2.949
    3ASP      O   36   1.280   1.781   2.940
    4GLY      N   37   1.090   1.900   2.929
    4GLY     HN   38   1.049   1.991   2.935
    4GLY     CA   39   1.006   1.789   2.901
    4GLY    HA1   40   0.909   1.836   2.893
    4GLY    HA2   41   1.030   1.719   2.980
    4GLY      C   42   1.042   1.717   2.772
    4GLY      O   43   1.099   1.766   2.673
    5PRO      N   44   1.001   1.584   2.763
    5PRO     CD   45   0.894   1.526   2.851
    5PRO    HD1   46   0.813   1.600   2.864
    5PRO    HD2   47   0.951   1.483   2.936
    5PRO     CA   48   1.013   1.504   2.636
    5PRO     HA   49   1.119   1.497   2.618
    5PRO     CB   50   0.959   1.368   2.686
    5PRO    HB1   51   1.036   1.330   2.756
    5PRO    HB2   52   0.939   1.292   2.607
    5PRO     CG   53   0.842   1.405   2.771
    5PRO    HG1   54   0.748   1.431   2.718
    5PRO    HG2   55   0.819   1.314   2.831
    5PRO      C   56   0.947   1.557   2.508
    5PRO      O   57   0.843   1.621   2.502
    6GLY      N   58   1.012   1.523   2.393
    6GLY     HN   59   1.099   1.474   2.398
    6GLY     CA   60   0.969   1.554   2.262
    6GLY    HA1   61   1.049   1.526   2.195
    6GLY    HA2   62   0.962   1.662   2.251
    6GLY      C   63   0.850   1.487   2.207
    6GLY      O   64   0.765   1.435   2.274
    7ASP      N   65   0.850   1.479   2.069
    7ASP     HN   66   0.919   1.532   2.021
    7ASP     CA   67   0.782   1.387   1.985
    7ASP     HA   68   0.680   1.422   1.984
    7ASP     CB   69   0.843   1.402   1.846
    7ASP    HB1   70   0.938   1.344   1.844
    7ASP    HB2   71   0.864   1.507   1.818
    7ASP     CG   72   0.766   1.336   1.736
    7ASP    OD1   73   0.813   1.346   1.623
    7ASP    OD2   74   0.658   1.281   1.764
    7ASP      C   75   0.785   1.240   2.042
    7ASP      O   76   0.897   1.188   2.067
    8PRO      N   77   0.683   1.168   2.067
    8PRO     CD   78   0.551   1.221   2.074
    8PRO    HD1   79   0.524   1.275   1.980
    8PRO    HD2   80   0.537   1.294   2.156
    8PRO     CA   81   0.685   1.026   2.103
    8PRO     HA   82   0.770   1.012   2.168
    8PRO     CB   83   0.547   0.999   2.168
    8PRO    HB1   84   0.555   1.036   2.272
    8PRO    HB2   85   0.503   0.897   2.156
    8PRO     CG   86   0.464   1.097   2.092
    8PRO    HG1   87   0.432   1.054   1.994
    8PRO    HG2   88   0.368   1.128   2.139
    8PRO      C   89   0.713   0.937   1.985
    8PRO      O   90   0.709   0.815   2.005
    9ASP      N   91   0.758   0.978   1.859
    9ASP     HN   92   0.759   1.073   1.832
    9ASP     CA   93   0.820   0.896   1.762
    9ASP     HA   94   0.772   0.800   1.778
    9ASP     CB   95   0.803   0.955   1.621
    9ASP    HB1   96   0.879   0.912   1.553
    9ASP    HB2   97   0.811   1.066   1.620
    9ASP     CG   98   0.661   0.921   1.559
    9ASP    OD1   99   0.647   0.948   1.440
    9ASP    OD2  100   0.578   0.873   1.637
    9ASP      C  101   0.968   0.879   1.791
    9ASP      O  102   1.037   0.799   1.739
   10ALA      N  103   1.021   0.964   1.891
   10ALA     HN  104   0.970   1.037   1.936
   10ALA     CA  105   1.154   0.940   1.950
   10ALA     HA  106   1.217   0.897   1.874
   10ALA     CB  107   1.211   1.081   1.982
   10ALA    HB1  108   1.236   1.138   1.890
   10ALA    HB2  109   1.299   1.071   2.049
   10ALA    HB3  110   1.128   1.128   2.039
   10ALA      C  111   1.166   0.852   2.079
   10ALA      O  112   1.072   0.837   2.152
   11GLY      N  113   1.280   0.783   2.107
   11GLY     HN  114   1.361   0.772   2.049
   11GLY     CA  115   1.298   0.707   2.228
   11GLY    HA1  116   1.398   0.669   2.211
   11GLY    HA2  117   1.216   0.639   2.248
   11GLY      C  118   1.304   0.795   2.350
   11GLY    OT1  119   1.244   0.767   2.459
   11GLY    OT2  120   1.360   0.907   2.340
   12LIT    LIT  121   4.446   3.987   2.401
   13LIT    LIT  122   1.232   2.966   1.994
   14LIT    LIT  123   0.862   4.819   3.959
   15LIT    LIT  124   1.762   2.927   0.057
   16LIT    LIT  125   0.710   1.279   3.412
   17LIT    LIT  126   3.388   5.003   4.122
   18LIT    LIT  127   2.644   3.483   2.773
   19LIT    LIT  128   0.544   1.078   1.357
   20LIT    LIT  129   2.287   0.974   4.213
   21LIT    LIT  130   0.818   5.864   4.224
   22LIT    LIT  131   5.796   2.983   2.143
   23LIT    LIT  132   5.985   0.994   2.151
   24LIT    LIT  133   3.444   2.149   0.355
   25LIT    LIT  134   0.814   4.914   1.908
   26LIT    LIT  135   2.998   1.419   4.897
   27LIT    LIT  136  -0.006   5.646   3.488
   28LIT    LIT  137   1.720   1.971   3.749
   29LIT    LIT  138   2.050   4.691   0.949
   30LIT    LIT  139   1.884   0.592   3.486
   31LIT    LIT  140   3.978   3.214   2.282
   32LIT    LIT  141   0.521   0.274   1.843
   33LIT    LIT  142   3.703   1.663   0.702
   34CLA    CLA  143   1.891   2.585   1.603
   35CLA    CLA  144   0.218   0.774   3.132
   36CLA    CLA  145   4.073   3.277   4.380
   37CLA    CLA  146   0.203   1.523   4.448
   38CLA    CLA  147   1.996   2.675   3.975
   39CLA    CLA  148   6.045   5.431   3.291
   40CLA    CLA  149   0.739   1.020   4.703
   41CLA    CLA  150   1.253   2.264   1.205
   42CLA    CLA  151   4.264   5.205   1.519
   43CLA    CLA  152   2.683   4.801   0.072
   44CLA    CLA  153   2.908   5.523   1.159
   45CLA    CLA  154   2.162   0.827   3.615
   46CLA    CLA  155   2.866   1.754   4.100
   47CLA    CLA  156   3.081   1.460   4.695
   48CLA    CLA  157   3.634   0.443   4.389
   49CLA    CLA  158   6.246   0.983   1.626
   50CLA    CLA  159   1.301   2.554   0.008
   51CLA    CLA  160   2.265   5.234   1.133
   52TIP3   OH2  161   1.954   1.760   4.184
   52TIP3    H1  162   1.995   1.686   4.229
   52TIP3    H2  163   1.944   1.731   4.094
   53TIP3   OH2  164   2.084   3.665   3.474
   53TIP3    H1  165   2.013   3.602   3.486
   53TIP3    H2  166   2.113   3.685   3.563
   54TIP3   OH2  167   1.671   1.037   2.974
   54TIP3    H1  168   1.656   0.949   2.941
   54TIP3    H2  169   1.751   1.030   3.026
   55TIP3   OH2  170   4.408   5.009   1.309
   55TIP3    H1  171   4.372   5.060   1.382
   55TIP3    H2  172   4.471   4.950   1.349
   56TIP3   OH2  173   2.835   0.384   0.250
   56TIP3    H1  174   2.899   0.446   0.215
   56TIP3    H2  175   2.855   0.302   0.206
   57TIP3   OH2  176   0.547   3.454   4.876
   57TIP3    H1  177   0.614   3.401   4.920
   57TIP3    H2  178   0.537   3.413   4.790
   58TIP3   OH2  179   4.592   4.769   4.940
   58TIP3    H1  180   4.588   4.674   4.932
   58TIP3    H2  181   4.685   4.790   4.927
   59TIP3   OH2  182   0.126   5.369   0.050
   59TIP3    H1  183   0.176   5.407  -0.022
   59TIP3    H2  184   0.086   5.444   0.094
   60TIP3   OH2  185   1.213   1.256   5.077
   60TIP3    H1  186   1.176   1.311   5.008
   60TIP3    H2  187   1.162   1.176   5.074
   61TIP3   OH2  188   0.426   5.934   0.208
   61TIP3    H1  189   0.362   5.864   0.223
   61TIP3    H2  190   0.398   6.005   0.265
   62TIP3   OH2  191   6.075   4.130   2.084
   62TIP3    H1  192   6.011   4.177   2.031
   62TIP3    H2  193   6.141   4.196   2.105
   63TIP3   OH2  194   4.844   5.168   1.361
   63TIP3    H1  195   4.773   5.201   1.306
   63TIP3    H2  196   4.905   5.242   1.368
   64TIP3   OH2  197   1.694   4.756   2.124
   64TIP3    H1  198   1.751   4.823   2.086
   64TIP3    H2  199   1.668   4.703   2.049
   65TIP3   OH2  200   4.404   0.415   1.286
   65TIP3    H1  201   4.340   0.486   1.286
   65TIP3    H2  202   4.386   0.366   1.366
   66TIP3   OH2  203   2.350   5.700   4.283
   66TIP3    H1  204   2.409   5.729   4.213
   66TIP3    H2  205   2.330   5.609   4.262
   67TIP3   OH2  206   1.611   0.653   3.630
   67TIP3    H1  207   1.648   0.580   3.579
   67TIP3    H2  208   1.516   0.638   3.628
   68TIP3   OH2  209   3.446   2.997   3.203
   68TIP3    H1  210   3.500   3.008   3.281
   68TIP3    H2  211   3.358   3.018   3.232
   69TIP3   OH2  212   1.676   2.493   0.106
   69TIP3    H1  213   1.664   2.420   0.044
   69TIP3    H2  214   1.605   2.483   0.169
   70TIP3   OH2  215   6.270   0.974   4.196
   70TIP3    H1  216   6.307   1.020   4.272
   70TIP3    H2  217   6.297   0.883   4.207
   71TIP3   OH2  218   5.082   1.678   1.769
   71TIP3    H1  219   5.154   1.637   1.721
   71TIP3    H2  220   5.041   1.607   1.817
   72TIP3   OH2  221   4.964   4.802   2.658
   72TIP3    H1  222   4.892   4.775   2.715
   72TIP3    H2  223   4.923   4.817   2.573
   73TIP3   OH2  224   6.026   3.637   4.909
   73TIP3    H1  225   6.026   3.555   4.960
   73TIP3    H2  226   5.946   3.633   4.857
   74TIP3   OH2  227   4.916   0.795   1.601
   74TIP3    H1  228   4.853   0.747   1.656
   74TIP3    H2  229   4.962   0.726   1.553
   75TIP3   OH2  230   6.001   0.693   1.738
   75TIP3    H1  231   5.959   0.711   1.654
   75TIP3    H2  232   6.094   0.715   1.722
   76TIP3   OH2  233   1.434   4.723   3.623
   76TIP3    H1  234   1.401   4.806   3.589
   76TIP3    H2  235   1.475   4.746   3.707
   77TIP3   OH2  236   1.903   4.024   1.889
   77TIP3    H1  237   1.982   4.077   1.901
   77TIP3    H2  238   1.908   3.993   1.798
   78TIP3   OH2  239   4.260   1.990   3.377
   78TIP3    H1  240   4.355   1.980   3.382
   78TIP3    H2  241   4.245   2.028   3.290
   79TIP3   OH2  242   4.068   0.298   0.855
   79TIP3    H1  243   4.024   0.350   0.789
   79TIP3    H2  244   4.036   0.332   0.939
   80TIP3   OH2  245   5.002   4.055   1.189
   80TIP3    H1  246   5.000   4.135   1.242
   80TIP3    H2  247   4.910   4.030   1.180
   81TIP3   OH2  248   1.639   3.343   3.515
   81TIP3    H1  249   1.545   3.325   3.506
   81TIP3    H2  250   1.678   3.257   3.529
   82TIP3   OH2  251   0.349   2.830   4.038
   82TIP3    H1  252   0.281   2.785   3.988
   82TIP3    H2  253   0.398   2.759   4.080
   83TIP3   OH2  254   5.541   2.884   3.074
   83TIP3    H1  255   5.501   2.970   3.084
   83TIP3    H2  256   5.466   2.824   3.063
   84TIP3   OH2  257   0.634   2.984   2.859
   84TIP3    H1  258   0.675   2.919   2.803
   84TIP3    H2  259   0.613   2.937   2.940
   85TIP3   OH2  260   6.041   2.577   5.185
   85TIP3    H1  261   5.946   2.568   5.175
   85TIP3    H2  262   6.059   2.667   5.159
   86TIP3   OH2  263   4.383   4.391   1.734
   86TIP3    H1  264   4.294   4.376   1.701
   86TIP3    H2  265   4.371   4.450   1.809
   87TIP3   OH2  266   0.240   4.370   3.683
   87TIP3    H1  267   0.266   4.428   3.611
   87TIP3    H2  268   0.184   4.305   3.642
   88TIP3   OH2  269   2.164   2.009   3.380
   88TIP3    H1  270   2.182   1.979   3.291
   88TIP3    H2  271   2.246   1.996   3.427
   89TIP3   OH2  272   3.148   0.147   1.473
   89TIP3    H1  273   3.058   0.176   1.486
   89TIP3    H2  274   3.199   0.197   1.536
   90TIP3   OH2  275   5.671   5.875   1.401
   90TIP3    H1  276   5.722   5.794   1.399
   90TIP3    H2  277   5.628   5.879   1.315
   91TIP3   OH2  278   1.032   1.362   4.200
   91TIP3    H1  279   0.949   1.332   4.236
   91TIP3    H2  280   1.037   1.321   4.114
   92TIP3   OH2  281   3.476   0.299   4.149
   92TIP3    H1  282   3.534   0.233   4.112
   92TIP3    H2  283   3.523   0.333   4.225
   93TIP3   OH2  284   4.963   4.338   4.401
   93TIP3    H1  285   5.023   4.268   4.377
   93TIP3    H2  286   4.957   4.392   4.322
   94TIP3   OH2  287   4.483   4.754   2.363
   94TIP3    H1  288   4.521   4.732   2.278
   94TIP3    H2  289   4.416   4.687   2.377
   95TIP3   OH2  290   3.605   3.805   3.651
   95TIP3    H1  291   3.677   3.767   3.601
   95TIP3    H2  292   3.622   3.779   3.741
   96TIP3   OH2  293   0.538   5.311   0.241
   96TIP3    H1  294   0.550   5.357   0.158
   96TIP3    H2  295   0.617   5.330   0.291
   97TIP3   OH2  296   0.126   1.243   4.565
   97TIP3    H1  297   0.199   1.217   4.622
   97TIP3    H2  298   0.153   1.327   4.529
   98TIP3   OH2  299   1.671   1.644   4.076
   98TIP3    H1  300   1.738   1.621   4.140
   98TIP3    H2  301   1.604   1.689   4.127
   99TIP3   OH2  302   1.061   1.671   1.959
   99TIP3    H1  303   1.137   1.695   1.905
   99TIP3    H2  304   1.051   1.745   2.019
  100TIP3   OH2  305   5.701   3.562   3.636
  100TIP3    H1  306   5.626   3.619   3.620
  100TIP3    H2  307   5.740   3.595   3.716
  101TIP3   OH2  308   1.695   1.392   3.279
  101TIP3    H1  309   1.725   1.470   3.231
  101TIP3    H2  310   1.659   1.334   3.212
  102TIP3   OH2  311   0.208   3.542   0.112
  102TIP3    H1  312   0.215   3.450   0.138
  102TIP3    H2  313   0.229   3.591   0.192
  103TIP3   OH2  314   1.689   4.696   4.318
  103TIP3    H1  315   1.784   4.687   4.319
  103TIP3    H2  316   1.665   4.710   4.409
  104TIP3   OH2  317   5.468   0.338   0.261
  104TIP3    H1  318   5.372   0.331   0.260
  104TIP3    H2  319   5.491   0.343   0.354
  105TIP3   OH2  320   3.700   0.148   4.020
  105TIP3    H1  321   3.774   0.185   4.069
  105TIP3    H2  322   3.724   0.057   4.006
  106TIP3   OH2  323   6.289   3.842   2.849
  106TIP3    H1  324   6.253   3.764   2.809
  106TIP3    H2  325   6.317   3.897   2.776
  107TIP3   OH2  326   1.324   0.517   2.506
  107TIP3    H1  327   1.276   0.599   2.492
  107TIP3    H2  328   1.416   0.542   2.503
  108TIP3   OH2  329   0.678   3.476   4.388
  108TIP3    H1  330   0.760   3.517   4.414
  108TIP3    H2  331   0.704   3.406   4.328
  109TIP3   OH2  332   4.518   0.723   2.450
  109TIP3    H1  333   4.545   0.803   2.496
  109TIP3    H2  334   4.573   0.655   2.487
  110TIP3   OH2  335   4.535   1.191   3.333
  110TIP3    H1  336   4.512   1.231   3.417
  110TIP3    H2  337   4.610   1.242   3.302
  111TIP3   OH2  338   5.887   4.750   2.767
  111TIP3    H1  339   5.879   4.791   2.853
  111TIP3    H2  340   5.972   4.707   2.768
  112TIP3   OH2  341   5.786   4.695   2.361
  112TIP3    H1  342   5.713   4.744   2.325
  112TIP3    H2  343   5.748   4.612   2.389
  113TIP3   OH2  344   5.432   5.778   1.842
  113TIP3    H1  345   5.379   5.706   1.876
  113TIP3    H2  346   5.370   5.852   1.835
  114TIP3   OH2  347   0.173   2.224   3.612
  114TIP3    H1  348   0.191   2.316   3.595
  114TIP3    H2  349   0.256   2.188   3.642
  115TIP3   OH2  350   4.198   2.285   3.763
  115TIP3    H1  351   4.154   2.367   3.739
  115TIP3    H2  352   4.286   2.295   3.727
  116TIP3   OH2  353   3.820   2.642   1.778
  116TIP3    H1  354   3.808   2.699   1.701
  116TIP3    H2  355   3.915   2.639   1.791
  117TIP3   OH2  356   3.864   5.627   0.860
  117TIP3    H1  357   3.906   5.648   0.777
  117TIP3    H2  358   3.860   5.531   0.862
  118TIP3   OH2  359   2.498   4.787   3.352
  118TIP3    H1  360   2.545   4.868   3.333
  118TIP3    H2  361   2.518   4.769   3.444
  119TIP3   OH2  362   1.669   4.235   0.513
  119TIP3    H1  363   1.578   4.239   0.544
  119TIP3    H2  364   1.681   4.318   0.465
  120TIP3   OH2  365   6.199   4.727  -0.011
  120TIP3    H1  366   6.242   4.806  -0.044
  120TIP3    H2  367   6.262   4.689   0.050
  121TIP3   OH2  368   5.383   1.269   3.504
  121TIP3    H1  369   5.365   1.230   3.589
  121TIP3    H2  370   5.303   1.257   3.454
  122TIP3   OH2  371   0.942   3.564   4.471
  122TIP3    H1  372   1.023   3.575   4.421
  122TIP3    H2  373   0.964   3.595   4.559
  123TIP3   OH2  374   3.896   2.334   4.603
  123TIP3    H1  375   3.807   2.323   4.635
  123TIP3    H2  376   3.951   2.287   4.666
  124TIP3   OH2  377   2.359   4.912   2.270
  124TIP3    H1  378   2.431   4.880   2.216
  124TIP3    H2  379   2.325   4.988   2.223
  125TIP3   OH2  380   4.065   3.795   1.108
  125TIP3    H1  381   4.030   3.811   1.196
  125TIP3    H2  382   4.026   3.864   1.055
  126TIP3   OH2  383   0.302   4.247   2.097
  126TIP3    H1  384   0.325   4.338   2.080
  126TIP3    H2  385   0.353   4.222   2.174
  127TIP3   OH2  386   1.741   1.554   1.171
  127TIP3    H1  387   1.709   1.615   1.238
  127TIP3    H2  388   1.737   1.468   1.214
  128TIP3   OH2  389   2.819   5.519   2.739
  128TIP3    H1  390   2.727   5.493   2.747
  128TIP3    H2  391   2.867   5.450   2.784
  129TIP3   OH2  392   3.647   2.705   1.003
  129TIP3    H1  393   3.655   2.798   1.025
  129TIP3    H2  394   3.678   2.698   0.913
  130TIP3   OH2  395   5.422   2.665   4.429
  130TIP3    H1  396   5.410   2.599   4.362
  130TIP3    H2  397   5.399   2.748   4.386
  131TIP3   OH2  398   4.327   3.921   0.327
  131TIP3    H1  399   4.360   3.913   0.238
  131TIP3    H2  400   4.232   3.918   0.318
  132TIP3   OH2  401   4.418   2.666   0.473
  132TIP3    H1  402   4.413   2.651   0.567
  132TIP3    H2  403   4.465   2.589   0.439
  133TIP3   OH2  404   3.931   1.559   1.973
  133TIP3    H1  405   3.989   1.599   2.039
  133TIP3    H2  406   3.991   1.521   1.909
  134TIP3   OH2  407   3.475   1.836   4.467
  134TIP3    H1  408   3.409   1.767   4.464
  134TIP3    H2  409   3.508   1.835   4.557
  135TIP3   OH2  410   4.402   2.041   0.406
  135TIP3    H1  411   4.332   2.021   0.344
  135TIP3    H2  412   4.372   2.120   0.451
  136TIP3   OH2  413   5.618   3.401   4.705
  136TIP3    H1  414   5.525   3.422   4.715
  136TIP3    H2  415   5.619   3.314   4.665
  137TIP3   OH2  416   0.420   1.980   0.459
  137TIP3    H1  417   0.408   1.891   0.490
  137TIP3    H2  418   0.509   1.981   0.423
  138TIP3   OH2  419   3.879   5.460   4.554
  138TIP3    H1  420   3.910   5.527   4.615
  138TIP3    H2  421   3.788   5.484   4.536
  139TIP3   OH2  422   4.674   0.187   1.677
  139TIP3    H1  423   4.655   0.223   1.764
  139TIP3    H2  424   4.668   0.092   1.690
  140TIP3   OH2  425   5.946   2.598   2.691
  140TIP3    H1  426   5.954   2.624   2.783
  140TIP3    H2  427   6.003   2.659   2.644
  141TIP3   OH2  428   4.789   1.317   3.351
  141TIP3    H1  429   4.791   1.413   3.347
  141TIP3    H2  430   4.849   1.290   3.281
  142TIP3   OH2  431   4.165   5.105   3.228
  142TIP3    H1  432   4.202   5.193   3.233
  142TIP3    H2  433   4.220   5.060   3.163
  143TIP3   OH2  434   6.229   1.633   1.026
  143TIP3    H1  435   6.285   1.619   0.950
  143TIP3    H2  436   6.171   1.704   1.001
  144TIP3   OH2  437   1.325   5.948   2.599
  144TIP3    H1  438   1.298   5.860   2.624
  144TIP3    H2  439   1.401   5.967   2.654
  145TIP3   OH2  440   5.743   3.795   1.006
  145TIP3    H1  441   5.705   3.837   1.083
  145TIP3    H2  442   5.806   3.858   0.973
  146TIP3   OH2  443   5.985   1.218   0.522
  146TIP3    H1  444   6.021   1.306   0.523
  146TIP3    H2  445   5.928   1.214   0.599
  147TIP3   OH2  446   4.973   3.339   2.682
  147TIP3    H1  447   5.023   3.299   2.753
  147TIP3    H2  448   5.039   3.361   2.616
  148TIP3   OH2  449   0.955   2.892   0.965
  148TIP3    H1  450   1.032   2.899   1.023
  148TIP3    H2  451   0.935   2.983   0.942
  149TIP3   OH2  452   2.055   2.825   2.953
  149TIP3    H1  453   2.015   2.896   2.902
  149TIP3    H2  454   1.981   2.773   2.983
  150TIP3   OH2  455   5.686   0.409   3.091
  150TIP3    H1  456   5.679   0.389   3.184
  150TIP3    H2  457   5.603   0.377   3.054
  151TIP3   OH2  458   4.312   2.237   2.343
  151TIP3    H1  459   4.247   2.170   2.362
  151TIP3    H2  460   4.264   2.306   2.298
  152TIP3   OH2  461   1.002   0.945   0.562
  152TIP3    H1  462   0.986   0.863   0.516
  152TIP3    H2  463   1.030   1.005   0.494
  153TIP3   OH2  464   0.582   0.922   3.581
  153TIP3    H1  465   0.658   0.867   3.599
  153TIP3    H2  466   0.529   0.916   3.661
  154TIP3   OH2  467   0.363   4.288   3.347
  154TIP3    H1  468   0.288   4.327   3.305
  154TIP3    H2  469   0.365   4.197   3.315
  155TIP3   OH2  470   2.227   3.033   0.477
  155TIP3    H1  471   2.200   3.005   0.390
  155TIP3    H2  472   2.323   3.036   0.472
  156TIP3   OH2  473   0.360   2.813   3.521
  156TIP3    H1  474   0.421   2.774   3.583
  156TIP3    H2  475   0.275   2.812   3.566
  157TIP3   OH2  476   2.402   2.994   1.515
  157TIP3    H1  477   2.349   2.947   1.450
  157TIP3    H2  478   2.424   3.077   1.472
  158TIP3   OH2  479   0.336   3.600   0.647
  158TIP3    H1  480   0.384   3.591   0.565
  158TIP3    H2  481   0.365   3.525   0.700
  159TIP3   OH2  482   5.926   3.726   3.464
  159TIP3    H1  483   5.956   3.805   3.420
  159TIP3    H2  484   5.842   3.750   3.502
  160TIP3   OH2  485   3.120   1.863   5.213
  160TIP3    H1  486   3.202   1.833   5.253
  160TIP3    H2  487   3.145   1.888   5.124
  161TIP3   OH2  488   3.847   0.759   2.224
  161TIP3    H1  489   3.877   0.795   2.307
  161TIP3    H2  490   3.857   0.831   2.161
  162TIP3   OH2  491   1.694   4.067   2.586
  162TIP3    H1  492   1.770   4.106   2.628
  162TIP3    H2  493   1.730   4.006   2.522
  163TIP3   OH2  494   2.802   0.653   2.302
  163TIP3    H1  495   2.758   0.641   2.386
  163TIP3    H2  496   2.741   0.705   2.250
  164TIP3   OH2  497   4.670   1.133   1.205
  164TIP3    H1  498   4.762   1.143   1.229
  164TIP3    H2  499   4.657   1.196   1.134
  165TIP3   OH2  500   3.388   1.846   0.537
  165TIP3    H1  501   3.319   1.786   0.509
  165TIP3    H2  502   3.352   1.889   0.615
  166TIP3   OH2  503   3.543   0.368   3.652
  166TIP3    H1  504   3.574   0.290   3.605
  166TIP3    H2  505   3.578   0.358   3.740
  167TIP3   OH2  506   4.166   4.407   0.402
  167TIP3    H1  507   4.126   4.492   0.419
  167TIP3    H2  508   4.149   4.357   0.481
  168TIP3   OH2  509   1.049   1.972   3.762
  168TIP3    H1  510   0.960   1.937   3.752
  168TIP3    H2  511   1.103   1.894   3.775
  169TIP3   OH2  512   4.265   0.515   2.494
  169TIP3    H1  513   4.303   0.603   2.499
  169TIP3    H2  514   4.172   0.530   2.476
  170TIP3   OH2  515   5.282   0.756   2.168
  170TIP3    H1  516   5.214   0.783   2.230
  170TIP3    H2  517   5.313   0.837   2.129
  171TIP3   OH2  518   1.689   0.814   4.748
  171TIP3    H1  519   1.695   0.796   4.842
  171TIP3    H2  520   1.707   0.729   4.706
  172TIP3   OH2  521   1.738   5.324   2.923
  172TIP3    H1  522   1.815   5.320   2.980
  172TIP3    H2  523   1.749   5.250   2.863
  173TIP3   OH2  524   2.544   2.334   2.082
  173TIP3    H1  525   2.453   2.363   2.089
  173TIP3    H2  526   2.539   2.250   2.038
  174TIP3   OH2  527   4.969   0.800   0.917
  174TIP3    H1  528   4.953   0.815   1.011
  174TIP3    H2  529   5.027   0.872   0.892
  175TIP3   OH2  530   0.903   2.339   0.691
  175TIP3    H1  531   0.887   2.309   0.601
  175TIP3    H2  532   0.993   2.311   0.709
  176TIP3   OH2  533   0.247   3.258   2.883
  176TIP3    H1  534   0.155   3.271   2.858
  176TIP3    H2  535   0.296   3.318   2.826
  177TIP3   OH2  536   5.728   5.353   0.684
  177TIP3    H1  537   5.700   5.425   0.740
  177TIP3    H2  538   5.697   5.274   0.729
  178TIP3   OH2  539   1.651   3.400   2.516
  178TIP3    H1  540   1.736   3.403   2.471
  178TIP3    H2  541   1.671   3.366   2.603
  179TIP3   OH2  542   5.669   0.519   2.049
  179TIP3    H1  543   5.614   0.458   2.098
  179TIP3    H2  544   5.620   0.537   1.969
  180TIP3   OH2  545   0.863   4.378   3.335
  180TIP3    H1  546   0.918   4.323   3.392
  180TIP3    H2  547   0.785   4.325   3.319
  181TIP3   OH2  548   4.700   2.297   4.445
  181TIP3    H1  549   4.681   2.346   4.365
  181TIP3    H2  550   4.768   2.348   4.489
  182TIP3   OH2  551   2.198   1.345   4.864
  182TIP3    H1  552   2.227   1.402   4.793
  182TIP3    H2  553   2.143   1.280   4.821
  183TIP3   OH2  554   0.448   0.321   0.268
  183TIP3    H1  555   0.425   0.230   0.283
  183TIP3    H2  556   0.393   0.370   0.330
  184TIP3   OH2  557   4.687   5.312   1.196
  184TIP3    H1  558   4.721   5.396   1.164
  184TIP3    H2  559   4.615   5.337   1.255
  185TIP3   OH2  560   1.208   0.668   4.354
  185TIP3    H1  561   1.115   0.643   4.352
  185TIP3    H2  562   1.206   0.764   4.351
  186TIP3   OH2  563   5.035   2.959   3.029
  186TIP3    H1  564   4.959   2.933   3.080
  186TIP3    H2  565   5.057   2.882   2.977
  187TIP3   OH2  566   6.038   0.863   0.837
  187TIP3    H1  567   6.087   0.800   0.890
  187TIP3    H2  568   5.984   0.911   0.900
  188TIP3   OH2  569   0.932   5.825   0.682
  188TIP3    H1  570   0.992   5.899   0.686
  188TIP3    H2  571   0.980   5.758   0.635
  189TIP3   OH2  572   0.072   4.829   3.379
  189TIP3    H1  573   0.161   4.853   3.354
  189TIP3    H2  574   0.075   4.819   3.474
  190TIP3   OH2  575   5.343   1.775   2.037
  190TIP3    H1  576   5.301   1.806   1.957
  190TIP3    H2  577   5.422   1.730   2.007
  191TIP3   OH2  578   2.390   3.600   0.472
  191TIP3    H1  579   2.391   3.680   0.420
  191TIP3    H2  580   2.361   3.628   0.558
  192TIP3   OH2  581   2.014   0.315   2.567
  192TIP3    H1  582   2.049   0.241   2.616
  192TIP3    H2  583   2.091   0.369   2.546
  193TIP3   OH2  584   4.390   5.303   4.933
  193TIP3    H1  585   4.407   5.228   4.989
  193TIP3    H2  586   4.353   5.369   4.992
  194TIP3   OH2  587   0.352   1.502   3.918
  194TIP3    H1  588   0.300   1.483   3.840
  194TIP3    H2  589   0.292   1.491   3.991
  195TIP3   OH2  590   3.360   1.127   0.878
  195TIP3    H1  591   3.425   1.159   0.816
  195TIP3    H2  592   3.388   1.163   0.963
  196TIP3   OH2  593   1.706   5.676   1.860
  196TIP3    H1  594   1.711   5.610   1.791
  196TIP3    H2  595   1.626   5.655   1.908
  197TIP3   OH2  596   4.166   5.183   2.117
  197TIP3    H1  597   4.162   5.184   2.021
  197TIP3    H2  598   4.255   5.211   2.137
  198TIP3   OH2  599   6.224   0.874   1.918
  198TIP3    H1  600   6.247   0.892   1.827
  198TIP3    H2  601   6.201   0.781   1.919
  199TIP3   OH2  602   4.973   5.266   0.219
  199TIP3    H1  603   5.046   5.307   0.174
  199TIP3    H2  604   4.897   5.319   0.195
  200TIP3   OH2  605   6.001   4.068   0.421
  200TIP3    H1  606   6.057   4.006   0.469
  200TIP3    H2  607   6.022   4.052   0.329
  201TIP3   OH2  608   5.146   3.903   4.502
  201TIP3    H1  609   5.060   3.897   4.460
  201TIP3    H2  610   5.189   3.820   4.482
  202TIP3   OH2  611   0.787   4.221   0.913
  202TIP3    H1  612   0.720   4.250   0.974
  202TIP3    H2  613   0.868   4.221   0.963
  203TIP3   OH2  614   3.318   1.783   1.242
  203TIP3    H1  615   3.358   1.704   1.207
  203TIP3    H2  616   3.300   1.763   1.334
  204TIP3   OH2  617   0.440   4.865   2.313
  204TIP3    H1  618   0.416   4.947   2.355
  204TIP3    H2  619   0.397   4.868   2.227
  205TIP3   OH2  620   5.908   0.506   1.425
  205TIP3    H1  621   5.948   0.570   1.367
  205TIP3    H2  622   5.950   0.423   1.404
  206TIP3   OH2  623   0.284   5.464   0.824
  206TIP3    H1  624   0.285   5.405   0.749
  206TIP3    H2  625   0.200   5.510   0.818
  207TIP3   OH2  626   3.405   0.630   4.324
  207TIP3    H1  627   3.393   0.685   4.401
  207TIP3    H2  628   3.473   0.568   4.348
  208TIP3   OH2  629   4.786   5.697   0.176
  208TIP3    H1  630   4.737   5.707   0.094
  208TIP3    H2  631   4.765   5.775   0.226
  209TIP3   OH2  632   0.845   4.878   1.111
  209TIP3    H1  633   0.775   4.915   1.164
  209TIP3    H2  634   0.802   4.855   1.028
  210TIP3   OH2  635   2.815   1.296   3.042
  210TIP3    H1  636   2.842   1.272   3.131
  210TIP3    H2  637   2.720   1.286   3.042
  211TIP3   OH2  638   0.430   5.814   5.184
  211TIP3    H1  639   0.418   5.724   5.155
  211TIP3    H2  640   0.416   5.867   5.106
  212TIP3   OH2  641   2.173   4.422   2.999
  212TIP3    H1  642   2.247   4.363   2.990
  212TIP3    H2  643   2.096   4.365   2.997
  213TIP3   OH2  644   5.948   4.239   4.355
  213TIP3    H1  645   5.890   4.171   4.323
  213TIP3    H2  646   5.984   4.279   4.275
  214TIP3   OH2  647   6.126   0.978   1.183
  214TIP3    H1  648   6.211   0.991   1.142
  214TIP3    H2  649   6.108   1.061   1.227
  215TIP3   OH2  650   0.886   4.740   0.264
  215TIP3    H1  651   0.953   4.704   0.321
  215TIP3    H2  652   0.919   4.826   0.239
  216TIP3   OH2  653   6.041   3.949   2.595
  216TIP3    H1  654   6.099   3.993   2.533
  216TIP3    H2  655   6.006   3.874   2.547
  217TIP3   OH2  656   3.308   2.040   0.259
  217TIP3    H1  657   3.320   1.972   0.192
  217TIP3    H2  658   3.214   2.043   0.274
  218TIP3   OH2  659   2.365   2.206   3.633
  218TIP3    H1  660   2.355   2.271   3.703
  218TIP3    H2  661   2.455   2.173   3.644
  219TIP3   OH2  662   1.527   0.479   4.752
  219TIP3    H1  663   1.598   0.542   4.748
  219TIP3    H2  664   1.456   0.519   4.701
  220TIP3   OH2  665   5.015   2.769   4.399
  220TIP3    H1  666   4.929   2.728   4.388
  220TIP3    H2  667   5.013   2.846   4.342
  221TIP3   OH2  668   1.714   1.136   3.667
  221TIP3    H1  669   1.677   1.058   3.708
  221TIP3    H2  670   1.773   1.172   3.733
  222TIP3   OH2  671   3.932   0.961   3.315
  222TIP3    H1  672   4.004   1.022   3.326
  222TIP3    H2  673   3.971   0.885   3.271
  223TIP3   OH2  674   6.286   4.647   2.548
  223TIP3    H1  675   6.304   4.678   2.460
  223TIP3    H2  676   6.354   4.688   2.602
  224TIP3   OH2  677   1.723   3.196   1.175
  224TIP3    H1  678   1.675   3.146   1.242
  224TIP3    H2  679   1.749   3.130   1.111
  225TIP3   OH2  680   0.487   0.872   4.831
  225TIP3    H1  681   0.559   0.934   4.821
  225TIP3    H2  682   0.467   0.873   4.924
  226TIP3   OH2  683   5.093   4.554   3.442
  226TIP3    H1  684   5.100   4.641   3.481
  226TIP3    H2  685   5.012   4.518   3.478
  227TIP3   OH2  686   1.685   1.972   2.146
  227TIP3    H1  687   1.704   1.962   2.240
  227TIP3    H2  688   1.758   2.025   2.113
  228TIP3   OH2  689   3.009   4.818   1.554
  228TIP3    H1  690   2.974   4.833   1.642
  228TIP3    H2  691   2.943   4.854   1.496
  229TIP3   OH2  692   3.064   3.357   4.152
  229TIP3    H1  693   3.057   3.432   4.211
  229TIP3    H2  694   3.139   3.376   4.097
  230TIP3   OH2  695   0.764   0.510   1.086
  230TIP3    H1  696   0.822   0.582   1.065
  230TIP3    H2  697   0.813   0.456   1.149
  231TIP3   OH2  698   4.693   4.523   0.531
  231TIP3    H1  699   4.617   4.579   0.520
  231TIP3    H2  700   4.674   4.446   0.478
  232TIP3   OH2  701   3.185   4.905   3.599
  232TIP3    H1  702   3.161   4.991   3.563
  232TIP3    H2  703   3.280   4.909   3.607
  233TIP3   OH2  704   0.405   2.547   5.038
  233TIP3    H1  705   0.385   2.521   4.948
  233TIP3    H2  706   0.362   2.481   5.092
  234TIP3   OH2  707   6.171   0.522   4.029
  234TIP3    H1  708   6.196   0.438   4.067
  234TIP3    H2  709   6.253   0.565   4.010
  235TIP3   OH2  710   5.010   4.171   2.905
  235TIP3    H1  711   4.972   4.087   2.880
  235TIP3    H2  712   4.950   4.205   2.972
  236TIP3   OH2  713   3.125   5.677   2.757
  236TIP3    H1  714   3.176   5.612   2.708
  236TIP3    H2  715   3.191   5.734   2.797
  237TIP3   OH2  716   2.159   5.610   1.130
  237TIP3    H1  717   2.110   5.551   1.187
  237TIP3    H2  718   2.222   5.552   1.086
  238TIP3   OH2  719   4.418   4.090   3.633
  238TIP3    H1  720   4.326   4.109   3.651
  238TIP3    H2  721   4.467   4.156   3.683
  239TIP3   OH2  722   1.468   5.928   1.813
  239TIP3    H1  723   1.509   6.014   1.804
  239TIP3    H2  724   1.527   5.880   1.872
  240TIP3   OH2  725   6.354   0.181   4.687
  240TIP3    H1  726   6.392   0.096   4.709
  240TIP3    H2  727   6.317   0.167   4.599
  241TIP3   OH2  728   1.787   4.833   2.570
  241TIP3    H1  729   1.735   4.910   2.549
  241TIP3    H2  730   1.876   4.867   2.583
  242TIP3   OH2  731   3.061   3.890   1.990
  242TIP3    H1  732   3.142   3.928   2.023
  242TIP3    H2  733   3.006   3.966   1.969
  243TIP3   OH2  734   3.309   5.906   2.074
  243TIP3    H1  735   3.261   5.823   2.075
  243TIP3    H2  736   3.401   5.879   2.067
  244TIP3   OH2  737   3.561   1.479   3.907
  244TIP3    H1  738   3.578   1.568   3.936
  244TIP3    H2  739   3.629   1.461   3.842
  245TIP3   OH2  740   3.874   3.987   2.836
  245TIP3    H1  741   3.809   3.951   2.896
  245TIP3    H2  742   3.867   3.933   2.757
  246TIP3   OH2  743   4.962   0.125   0.822
  246TIP3    H1  744   4.997   0.126   0.911
  246TIP3    H2  745   4.887   0.065   0.825
  247TIP3   OH2  746   4.051   3.870   2.301
  247TIP3    H1  747   4.100   3.788   2.296
  247TIP3    H2  748   3.985   3.854   2.369
  248TIP3   OH2  749   3.447   2.781   0.753
  248TIP3    H1  750   3.460   2.849   0.687
  248TIP3    H2  751   3.353   2.784   0.772
  249TIP3   OH2  752   1.492   1.954   4.047
  249TIP3    H1  753   1.487   1.928   3.955
  249TIP3    H2  754   1.527   2.043   4.045
  250TIP3   OH2  755   5.625   0.502   1.044
  250TIP3    H1  756   5.563   0.431   1.058
  250TIP3    H2  757   5.623   0.519   0.950
  251TIP3   OH2  758   3.214   1.937   0.733
  251TIP3    H1  759   3.143   2.001   0.740
  251TIP3    H2  760   3.227   1.905   0.822
  252TIP3   OH2  761   5.761   5.957   4.970
  252TIP3    H1  762   5.666   5.957   4.983
  252TIP3    H2  763   5.791   5.878   5.016
  253TIP3   OH2  764   5.715   3.822   0.505
  253TIP3    H1  765   5.711   3.751   0.441
  253TIP3    H2  766   5.692   3.901   0.455
  254TIP3   OH2  767   2.764   5.250   0.684
  254TIP3    H1  768   2.775   5.343   0.669
  254TIP3    H2  769   2.703   5.221   0.616
  255TIP3   OH2  770   3.522   2.026   4.048
  255TIP3    H1  771   3.534   2.113   4.010
  255TIP3    H2  772   3.551   2.036   4.139
  256TIP3   OH2  773   5.902   0.719   3.308
  256TIP3    H1  774   5.811   0.694   3.294
  256TIP3    H2  775   5.908   0.808   3.275
  257TIP3   OH2  776   0.540   2.575   2.757
  257TIP3    H1  777   0.610   2.511   2.746
  257TIP3    H2  778   0.582   2.659   2.738
  258TIP3   OH2  779   5.896   0.587   3.824
  258TIP3    H1  780   5.946   0.624   3.897
  258TIP3    H2  781   5.920   0.642   3.749
  259TIP3   OH2  782   1.243   2.068   2.000
  259TIP3    H1  783   1.156   2.045   1.967
  259TIP3    H2  784   1.243   2.039   2.091
  260TIP3   OH2  785   5.243   0.585   2.383
  260TIP3    H1  786   5.281   0.644   2.318
  260TIP3    H2  787   5.200   0.517   2.332
  261TIP3   OH2  788   2.117   4.332   2.533
  261TIP3    H1  789   2.150   4.243   2.544
  261TIP3    H2  790   2.052   4.325   2.462
  262TIP3   OH2  791   4.580   2.374   4.710
  262TIP3    H1  792   4.510   2.380   4.775
  262TIP3    H2  793   4.542   2.409   4.630
  263TIP3   OH2  794   4.845   4.930   3.402
  263TIP3    H1  795   4.865   5.013   3.359
  263TIP3    H2  796   4.851   4.949   3.495
  264TIP3   OH2  797   1.354   1.444   4.640
  264TIP3    H1  798   1.397   1.360   4.651
  264TIP3    H2  799   1.315   1.439   4.552
  265TIP3   OH2  800   5.869   5.717   4.477
  265TIP3    H1  801   5.882   5.641   4.420
  265TIP3    H2  802   5.844   5.679   4.561
  266TIP3   OH2  803   1.742   0.882   0.281
  266TIP3    H1  804   1.673   0.895   0.345
  266TIP3    H2  805   1.696   0.854   0.201
  267TIP3   OH2  806   3.997   0.187   0.468
  267TIP3    H1  807   4.034   0.110   0.512
  267TIP3    H2  808   4.063   0.213   0.404
  268TIP3   OH2  809   1.040   1.196   1.514
  268TIP3    H1  810   1.089   1.269   1.552
  268TIP3    H2  811   0.948   1.220   1.528
  269TIP3   OH2  812   5.745   1.893   3.826
  269TIP3    H1  813   5.806   1.821   3.844
  269TIP3    H2  814   5.786   1.970   3.866
  270TIP3   OH2  815   4.401   5.601   1.413
  270TIP3    H1  816   4.451   5.660   1.356
  270TIP3    H2  817   4.316   5.643   1.423
  271TIP3   OH2  818   3.917   5.082   0.288
  271TIP3    H1  819   3.898   5.099   0.380
  271TIP3    H2  820   3.912   4.986   0.280
  272TIP3   OH2  821   1.235   2.971   3.602
  272TIP3    H1  822   1.319   2.982   3.647
  272TIP3    H2  823   1.169   2.978   3.671
  273TIP3   OH2  824   6.256   5.418   0.874
  273TIP3    H1  825   6.264   5.474   0.952
  273TIP3    H2  826   6.234   5.479   0.804
  274TIP3   OH2  827   4.492   5.760   3.343
  274TIP3    H1  828   4.584   5.748   3.320
  274TIP3    H2  829   4.494   5.801   3.429
  275TIP3   OH2  830   4.971   0.060   4.236
  275TIP3    H1  831   4.973   0.007   4.157
  275TIP3    H2  832   5.056   0.103   4.238
  276TIP3   OH2  833   2.716   2.012   0.375
  276TIP3    H1  834   2.784   1.962   0.419
  276TIP3    H2  835   2.663   2.049   0.446
  277TIP3   OH2  836   5.527   3.393   3.518
  277TIP3    H1  837   5.464   3.357   3.580
  277TIP3    H2  838   5.589   3.443   3.572
  278TIP3   OH2  839   0.709   1.548   0.795
  278TIP3    H1  840   0.615   1.549   0.777
  278TIP3    H2  841   0.745   1.486   0.732
  279TIP3   OH2  842   0.571   1.754   2.079
  279TIP3    H1  843   0.655   1.781   2.116
  279TIP3    H2  844   0.578   1.775   1.986
  280TIP3   OH2  845   0.478   0.755   1.347
  280TIP3    H1  846   0.518   0.836   1.377
  280TIP3    H2  847   0.508   0.746   1.257
  281TIP3   OH2  848   0.181   4.805   4.781
  281TIP3    H1  849   0.220   4.843   4.701
  281TIP3    H2  850   0.179   4.878   4.843
  282TIP3   OH2  851   1.367   1.870   4.476
  282TIP3    H1  852   1.390   1.958   4.448
  282TIP3    H2  853   1.276   1.877   4.505
  283TIP3   OH2  854   3.609   4.787   0.429
  283TIP3    H1  855   3.543   4.777   0.361
  283TIP3    H2  856   3.693   4.773   0.384
  284TIP3   OH2  857   1.456   2.305   2.130
  284TIP3    H1  858   1.517   2.338   2.197
  284TIP3    H2  859   1.425   2.222   2.165
  285TIP3   OH2  860   5.111   3.865   2.369
  285TIP3    H1  861   5.192   3.875   2.418
  285TIP3    H2  862   5.054   3.814   2.427
  286TIP3   OH2  863   2.460   0.893   3.743
  286TIP3    H1  864   2.502   0.945   3.674
  286TIP3    H2  865   2.389   0.848   3.698
  287TIP3   OH2  866   5.844   4.339   2.690
  287TIP3    H1  867   5.935   4.316   2.671
  287TIP3    H2  868   5.846   4.371   2.780
  288TIP3   OH2  869   0.048   2.884   2.505
  288TIP3    H1  870   0.106   2.930   2.565
  288TIP3    H2  871   0.080   2.794   2.504
  289TIP3   OH2  872   0.118   0.426   3.896
  289TIP3    H1  873   0.095   0.519   3.895
  289TIP3    H2  874   0.187   0.417   3.830
  290TIP3   OH2  875   5.152   2.892   3.506
  290TIP3    H1  876   5.162   2.978   3.465
  290TIP3    H2  877   5.076   2.902   3.564
  291TIP3   OH2  878   3.107   0.213   2.305
  291TIP3    H1  879   3.169   0.153   2.348
  291TIP3    H2  880   3.074   0.163   2.231
  292TIP3   OH2  881   1.207   2.499   0.413
  292TIP3    H1  882   1.246   2.508   0.500
  292TIP3    H2  883   1.200   2.404   0.400
  293TIP3   OH2  884   3.645   1.805   0.588
  293TIP3    H1  885   3.706   1.877   0.569
  293TIP3    H2  886   3.558   1.843   0.575
  294TIP3   OH2  887   4.627   1.880   2.734
  294TIP3    H1  888   4.698   1.932   2.772
  294TIP3    H2  889   4.665   1.840   2.655
  295TIP3   OH2  890   5.073   4.726   0.596
  295TIP3    H1  891   5.010   4.763   0.657
  295TIP3    H2  892   5.059   4.774   0.514
  296TIP3   OH2  893   3.635   0.451   2.276
  296TIP3    H1  894   3.568   0.493   2.328
  296TIP3    H2  895   3.634   0.498   2.192
  297TIP3   OH2  896   4.520   5.140   4.150
  297TIP3    H1  897   4.567   5.223   4.138
  297TIP3    H2  898   4.442   5.149   4.095
  298TIP3   OH2  899   2.601   5.027   4.107
  298TIP3    H1  900   2.637   5.070   4.184
  298TIP3    H2  901   2.580   4.938   4.135
  299TIP3   OH2  902   2.875   3.962   0.607
  299TIP3    H1  903   2.891   4.041   0.658
  299TIP3    H2  904   2.948   3.956   0.547
  300TIP3   OH2  905   2.403   5.169   0.673
  300TIP3    H1  906   2.433   5.140   0.587
  300TIP3    H2  907   2.321   5.122   0.687
  301TIP3   OH2  908   1.779   1.673   3.527
  301TIP3    H1  909   1.803   1.675   3.435
  301TIP3    H2  910   1.851   1.627   3.569
  302TIP3   OH2  911   5.202   1.424   2.267
  302TIP3    H1  912   5.168   1.367   2.197
  302TIP3    H2  913   5.183   1.513   2.237
  303TIP3   OH2  914   0.112   1.305   0.262
  303TIP3    H1  915   0.095   1.226   0.315
  303TIP3    H2  916   0.199   1.290   0.225
  304TIP3   OH2  917   6.202   5.532   3.044
  304TIP3    H1  918   6.162   5.502   3.126
  304TIP3    H2  919   6.133   5.583   3.002
  305TIP3   OH2  920   5.245   5.646   2.944
  305TIP3    H1  921   5.207   5.590   2.876
  305TIP3    H2  922   5.335   5.661   2.915
  306TIP3   OH2  923   2.370   1.107   2.234
  306TIP3    H1  924   2.335   1.038   2.179
  306TIP3    H2  925   2.376   1.183   2.176
  307TIP3   OH2  926   3.674   2.332   5.063
  307TIP3    H1  927   3.579   2.335   5.068
  307TIP3    H2  928   3.701   2.276   5.135
  308TIP3   OH2  929   5.749   0.942   3.677
  308TIP3    H1  930   5.711   0.855   3.662
  308TIP3    H2  931   5.717   0.967   3.763
  309TIP3   OH2  932   3.778   5.945   2.492
  309TIP3    H1  933   3.755   5.978   2.578
  309TIP3    H2  934   3.704   5.891   2.466
  310TIP3   OH2  935   5.622   4.539   4.163
  310TIP3    H1  936   5.664   4.604   4.106
  310TIP3    H2  937   5.592   4.589   4.239
  311TIP3   OH2  938   2.865   5.995   2.715
  311TIP3    H1  939   2.888   5.972   2.805
  311TIP3    H2  940   2.783   5.948   2.699
  312TIP3   OH2  941   1.863   3.093   2.373
  312TIP3    H1  942   1.870   3.188   2.372
  312TIP3    H2  943   1.847   3.071   2.465
  313TIP3   OH2  944   4.647   3.044   2.882
  313TIP3    H1  945   4.629   3.052   2.976
  313TIP3    H2  946   4.604   3.119   2.842
  314TIP3   OH2  947   5.584   0.109   3.924
  314TIP3    H1  948   5.559   0.178   3.985
  314TIP3    H2  949   5.527   0.123   3.848
  315TIP3   OH2  950   1.856   5.935   4.047
  315TIP3    H1  951   1.769   5.896   4.058
  315TIP3    H2  952   1.850   6.020   4.091
  316TIP3   OH2  953   4.122   5.138   0.880
  316TIP3    H1  954   4.211   5.168   0.860
  316TIP3    H2  955   4.119   5.136   0.976
  317TIP3   OH2  956   1.281   3.599   3.455
  317TIP3    H1  957   1.220   3.643   3.515
  317TIP3    H2  958   1.230   3.583   3.376
  318TIP3   OH2  959   2.233   5.493   2.851
  318TIP3    H1  960   2.176   5.510   2.775
  318TIP3    H2  961   2.229   5.575   2.901
  319TIP3   OH2  962   2.903   4.408   4.170
  319TIP3    H1  963   2.833   4.450   4.120
  319TIP3    H2  964   2.865   4.326   4.200
  320TIP3   OH2  965   2.660   3.098   1.368
  320TIP3    H1  966   2.734   3.140   1.325
  320TIP3    H2  967   2.647   3.017   1.320
  321TIP3   OH2  968   1.155   1.619   0.404
  321TIP3    H1  969   1.233   1.595   0.354
  321TIP3    H2  970   1.189   1.665   0.480
  322TIP3   OH2  971   3.765   2.027   2.967
  322TIP3    H1  972   3.736   1.948   3.012
  322TIP3    H2  973   3.849   2.004   2.929
  323TIP3   OH2  974   3.491   1.900   2.357
  323TIP3    H1  975   3.523   1.925   2.270
  323TIP3    H2  976   3.425   1.966   2.378
  324TIP3   OH2  977   3.855   2.421   2.002
  324TIP3    H1  978   3.883   2.378   1.921
  324TIP3    H2  979   3.845   2.513   1.978
  325TIP3   OH2  980   4.874   3.548   2.030
  325TIP3    H1  981   4.791   3.520   2.068
  325TIP3    H2  982   4.923   3.467   2.018
  326TIP3   OH2  983   4.298   0.819   1.647
  326TIP3    H1  984   4.324   0.798   1.737
  326TIP3    H2  985   4.229   0.884   1.657
  327TIP3   OH2  986   4.879   4.599   1.178
  327TIP3    H1  987   4.927   4.676   1.148
  327TIP3    H2  988   4.936   4.560   1.244
  328TIP3   OH2  989   5.249   2.731   1.043
  328TIP3    H1  990   5.185   2.777   1.098
  328TIP3    H2  991   5.219   2.747   0.953
  329TIP3   OH2  992   4.832   4.013   4.895
  329TIP3    H1  993   4.913   4.054   4.927
  329TIP3    H2  994   4.843   4.007   4.800
  330TIP3   OH2  995   4.400   2.532   4.572
  330TIP3    H1  996   4.386   2.598   4.641
  330TIP3    H2  997   4.312   2.499   4.553
  331TIP3   OH2  998   2.806   2.251   3.681
  331TIP3    H1  999   2.734   2.281   3.626
  331TIP3    H2 1000   2.823   2.162   3.650
  332TIP3   OH2 1001   2.159   2.912   0.730
  332TIP3    H1 1002   2.184   2.963   0.653
  332TIP3    H2 1003   2.110   2.974   0.784
  333TIP3   OH2 1004   3.269   3.151   1.604
  333TIP3    H1 1005   3.199   3.101   1.562
  333TIP3    H2 1006   3.255   3.136   1.698
  334TIP3   OH2 1007   4.827   4.094   0.939
  334TIP3    H1 1008   4.748   4.067   0.892
  334TIP3    H2 1009   4.806   4.181   0.973
  335TIP3   OH2 1010   1.220   2.205   4.124
  335TIP3    H1 1011   1.264   2.170   4.202
  335TIP3    H2 1012   1.153   2.141   4.104
  336TIP3   OH2 1013   1.708   5.601   1.297
  336TIP3    H1 1014   1.706   5.685   1.344
  336TIP3    H2 1015   1.763   5.618   1.221
  337TIP3   OH2 1016   1.307   3.346   1.466
  337TIP3    H1 1017   1.233   3.403   1.447
  337TIP3    H2 1018   1.335   3.370   1.554
  338TIP3   OH2 1019   4.967   3.126   4.009
  338TIP3    H1 1020   5.009   3.104   4.092
  338TIP3    H2 1021   4.893   3.181   4.032
  339TIP3   OH2 1022   2.558   2.442   2.932
  339TIP3    H1 1023   2.604   2.359   2.920
  339TIP3    H2 1024   2.594   2.500   2.865
  340TIP3   OH2 1025   2.216   4.334   5.124
  340TIP3    H1 1026   2.125   4.361   5.108
  340TIP3    H2 1027   2.209   4.244   5.153
  341TIP3   OH2 1028   3.760   1.560   2.198
  341TIP3    H1 1029   3.744   1.471   2.228
  341TIP3    H2 1030   3.817   1.550   2.122
  342TIP3   OH2 1031   3.754   0.961   0.438
  342TIP3    H1 1032   3.722   0.892   0.497
  342TIP3    H2 1033   3.675   1.001   0.403
  343TIP3   OH2 1034   5.654   4.844   2.575
  343TIP3    H1 1035   5.633   4.901   2.650
  343TIP3    H2 1036   5.698   4.769   2.614
  344TIP3   OH2 1037   1.455   5.669   0.902
  344TIP3    H1 1038   1.479   5.576   0.895
  344TIP3    H2 1039   1.361   5.671   0.889
  345TIP3   OH2 1040   0.759   5.338   4.030
  345TIP3    H1 1041   0.732   5.290   4.108
  345TIP3    H2 1042   0.853   5.320   4.021
  346TIP3   OH2 1043   5.220   1.123   4.695
  346TIP3    H1 1044   5.196   1.189   4.760
  346TIP3    H2 1045   5.181   1.155   4.613
  347TIP3   OH2 1046   0.324   1.660   5.112
  347TIP3    H1 1047   0.411   1.699   5.116
  347TIP3    H2 1048   0.283   1.700   5.035
  348TIP3   OH2 1049   5.427   1.388   1.228
  348TIP3    H1 1050   5.484   1.325   1.273
  348TIP3    H2 1051   5.475   1.411   1.148
  349TIP3   OH2 1052   4.836   5.127   2.135
  349TIP3    H1 1053   4.932   5.123   2.138
  349TIP3    H2 1054   4.810   5.144   2.225
  350TIP3   OH2 1055   3.167   4.024   0.674
  350TIP3    H1 1056   3.134   3.974   0.600
  350TIP3    H2 1057   3.234   4.082   0.637
  351TIP3   OH2 1058   6.268   0.280   3.164
  351TIP3    H1 1059   6.308   0.246   3.243
  351TIP3    H2 1060   6.216   0.355   3.194
  352TIP3   OH2 1061   2.495   0.645   3.421
  352TIP3    H1 1062   2.524   0.630   3.511
  352TIP3    H2 1063   2.404   0.673   3.429
  353TIP3   OH2 1064   3.978   3.310   2.118
  353TIP3    H1 1065   4.037   3.376   2.082
  353TIP3    H2 1066   3.936   3.270   2.042
  354TIP3   OH2 1067   5.827   5.475   4.298
  354TIP3    H1 1068   5.880   5.400   4.268
  354TIP3    H2 1069   5.755   5.435   4.347
  355TIP3   OH2 1070   1.227   5.640   0.680
  355TIP3    H1 1071   1.234   5.634   0.585
  355TIP3    H2 1072   1.210   5.550   0.708
  356TIP3   OH2 1073   4.118   1.858   4.713
  356TIP3    H1 1074   4.202   1.812   4.720
  356TIP3    H2 1075   4.138   1.937   4.664
  357TIP3   OH2 1076   3.822   2.487   4.897
  357TIP3    H1 1077   3.755   2.527   4.841
  357TIP3    H2 1078   3.773   2.431   4.957
  358TIP3   OH2 1079   2.608   1.733   4.254
  358TIP3    H1 1080   2.552   1.692   4.187
  358TIP3    H2 1081   2.696   1.731   4.216
  359TIP3   OH2 1082   4.089   4.945   1.575
  359TIP3    H1 1083   4.009   4.997   1.577
  359TIP3    H2 1084   4.158   5.009   1.556
  360TIP3   OH2 1085   5.827   0.991   2.267
  360TIP3    H1 1086   5.825   0.922   2.333
  360TIP3    H2 1087   5.736   1.005   2.243
  361TIP3   OH2 1088   3.359   1.862   0.041
  361TIP3    H1 1089   3.263   1.862   0.036
  361TIP3    H2 1090   3.386   1.806  -0.032
  362TIP3   OH2 1091   4.431   2.523   1.682
  362TIP3    H1 1092   4.408   2.616   1.671
  362TIP3    H2 1093   4.350   2.476   1.659
  363TIP3   OH2 1094   0.756   0.656   0.555
  363TIP3    H1 1095   0.791   0.639   0.642
  363TIP3    H2 1096   0.832   0.650   0.497
  364TIP3   OH2 1097   1.245   1.361   2.412
  364TIP3    H1 1098   1.198   1.278   2.413
  364TIP3    H2 1099   1.318   1.348   2.473
  365TIP3   OH2 1100   1.593   3.682   0.306
  365TIP3    H1 1101   1.626   3.762   0.346
  365TIP3    H2 1102   1.637   3.611   0.354
  366TIP3   OH2 1103   4.524   4.012   5.143
  366TIP3    H1 1104   4.609   3.969   5.139
  366TIP3    H2 1105   4.517   4.042   5.234
  367TIP3   OH2 1106   0.139   0.261   4.273
  367TIP3    H1 1107   0.138   0.292   4.364
  367TIP3    H2 1108   0.068   0.310   4.231
  368TIP3   OH2 1109   1.412   3.978   2.442
  368TIP3    H1 1110   1.461   4.057   2.421
  368TIP3    H2 1111   1.411   3.927   2.361
  369TIP3   OH2 1112   6.182   1.522   3.965
  369TIP3    H1 1113   6.109   1.563   3.919
  369TIP3    H2 1114   6.144   1.495   4.049
  370TIP3   OH2 1115   0.733   3.709   4.247
  370TIP3    H1 1116   0.664   3.775   4.242
  370TIP3    H2 1117   0.687   3.626   4.260
  371TIP3   OH2 1118   0.886   0.302   3.866
  371TIP3    H1 1119   0.828   0.226   3.873
  371TIP3    H2 1120   0.895   0.315   3.772
  372TIP3   OH2 1121   3.718   3.058   2.724
  372TIP3    H1 1122   3.731   2.964   2.719
  372TIP3    H2 1123   3.637   3.074   2.675
  373TIP3   OH2 1124   4.016   1.740   1.024
  373TIP3    H1 1125   4.064   1.751   0.942
  373TIP3    H2 1126   3.966   1.821   1.033
  374TIP3   OH2 1127   3.146   2.674   1.260
  374TIP3    H1 1128   3.219   2.670   1.322
  374TIP3    H2 1129   3.073   2.706   1.312
  375TIP3   OH2 1130   3.697   4.526   0.534
  375TIP3    H1 1131   3.785   4.536   0.568
  375TIP3    H2 1132   3.666   4.616   0.521
  376TIP3   OH2 1133   6.392   2.028   5.004
  376TIP3    H1 1134   6.297   2.030   4.988
  376TIP3    H2 1135   6.420   1.943   4.969
  377TIP3   OH2 1136   5.051   2.584   5.160
  377TIP3    H1 1137   5.061   2.670   5.201
  377TIP3    H2 1138   5.095   2.592   5.075
  378TIP3   OH2 1139   5.345   5.579   3.941
  378TIP3    H1 1140   5.298   5.651   3.984
  378TIP3    H2 1141   5.299   5.566   3.859
  379TIP3   OH2 1142   3.606   5.425   1.651
  379TIP3    H1 1143   3.697   5.408   1.676
  379TIP3    H2 1144   3.591   5.516   1.678
  380TIP3   OH2 1145   0.830   1.754   0.119
  380TIP3    H1 1146   0.734   1.762   0.114
  380TIP3    H2 1147   0.845   1.661   0.136
  381TIP3   OH2 1148   2.618   2.171   5.131
  381TIP3    H1 1149   2.697   2.126   5.161
  381TIP3    H2 1150   2.549   2.105   5.140
  382TIP3   OH2 1151   1.703   1.220   2.039
  382TIP3    H1 1152   1.732   1.172   2.117
  382TIP3    H2 1153   1.679   1.151   1.976
  383TIP3   OH2 1154   5.355   4.849   1.214
  383TIP3    H1 1155   5.421   4.888   1.270
  383TIP3    H2 1156   5.404   4.800   1.148
  384TIP3   OH2 1157   6.308   0.963   3.174
  384TIP3    H1 1158   6.257   0.902   3.121
  384TIP3    H2 1159   6.390   0.916   3.192
  385TIP3   OH2 1160   0.359   2.597   0.796
  385TIP3    H1 1161   0.452   2.577   0.785
  385TIP3    H2 1162   0.313   2.515   0.777
  386TIP3   OH2 1163   4.417   3.237   1.663
  386TIP3    H1 1164   4.478   3.222   1.735
  386TIP3    H2 1165   4.455   3.311   1.615
  387TIP3   OH2 1166   2.928   2.859   5.015
  387TIP3    H1 1167   2.983   2.781   5.010
  387TIP3    H2 1168   2.897   2.861   5.105
  388TIP3   OH2 1169   3.750   3.376   4.713
  388TIP3    H1 1170   3.792   3.443   4.767
  388TIP3    H2 1171   3.817   3.310   4.700
  389TIP3   OH2 1172   5.280   5.025   1.745
  389TIP3    H1 1173   5.368   4.988   1.754
  389TIP3    H2 1174   5.274   5.051   1.653
  390TIP3   OH2 1175   6.180   0.881   3.411
  390TIP3    H1 1176   6.182   0.788   3.389
  390TIP3    H2 1177   6.211   0.925   3.332
  391TIP3   OH2 1178   3.489   0.157   0.990
  391TIP3    H1 1179   3.418   0.167   0.925
  391TIP3    H2 1180   3.544   0.088   0.954
  392TIP3   OH2 1181   2.498   1.493   1.498
  392TIP3    H1 1182   2.409   1.469   1.524
  392TIP3    H2 1183   2.535   1.536   1.574
  393TIP3   OH2 1184   6.284   1.942   0.382
  393TIP3    H1 1185   6.320   1.955   0.294
  393TIP3    H2 1186   6.344   1.989   0.440
  394TIP3   OH2 1187   0.437   2.771   2.053
  394TIP3    H1 1188   0.444   2.852   2.104
  394TIP3    H2 1189   0.420   2.703   2.118
  395TIP3   OH2 1190   5.277   1.702   3.932
  395TIP3    H1 1191   5.201   1.679   3.879
  395TIP3    H2 1192   5.346   1.719   3.868
  396TIP3   OH2 1193   1.073   3.507   1.354
  396TIP3    H1 1194   1.027   3.423   1.361
  396TIP3    H2 1195   1.065   3.531   1.262
  397TIP3   OH2 1196   3.073   5.021   3.192
  397TIP3    H1 1197   3.150   5.066   3.226
  397TIP3    H2 1198   3.042   5.077   3.121
  398TIP3   OH2 1199   6.120   5.066   2.582
  398TIP3    H1 1200   6.082   4.983   2.555
  398TIP3    H2 1201   6.082   5.084   2.667
  399TIP3   OH2 1202   2.763   1.563   1.981
  399TIP3    H1 1203   2.817   1.569   2.060
  399TIP3    H2 1204   2.796   1.633   1.924
  400TIP3   OH2 1205   4.112   3.387   3.903
  400TIP3    H1 1206   4.114   3.302   3.947
  400TIP3    H2 1207   4.197   3.427   3.922
  401TIP3   OH2 1208   3.998   2.523   0.647
  401TIP3    H1 1209   3.953   2.494   0.727
  401TIP3    H2 1210   4.025   2.441   0.604
  402TIP3   OH2 1211   5.599   0.243   0.509
  402TIP3    H1 1212   5.643   0.158   0.508
  402TIP3    H2 1213   5.576   0.257   0.600
  403TIP3   OH2 1214   2.840   1.477   3.926
  403TIP3    H1 1215   2.792   1.417   3.983
  403TIP3    H2 1216   2.871   1.546   3.984
  404TIP3   OH2 1217   5.898   1.568   3.166
  404TIP3    H1 1218   5.985   1.530   3.152
  404TIP3    H2 1219   5.839   1.513   3.114
  405TIP3   OH2 1220   3.818   0.376   0.575
  405TIP3    H1 1221   3.874   0.451   0.552
  405TIP3    H2 1222   3.875   0.300   0.564
  406TIP3   OH2 1223   4.336   5.819   1.210
  406TIP3    H1 1224   4.302   5.906   1.230
  406TIP3    H2 1225   4.260   5.768   1.184
  407TIP3   OH2 1226   3.009   1.617   0.536
  407TIP3    H1 1227   2.924   1.602   0.577
  407TIP3    H2 1228   2.995   1.695   0.481
  408TIP3   OH2 1229   1.873   2.022   3.162
  408TIP3    H1 1230   1.806   2.082   3.195
  408TIP3    H2 1231   1.949   2.078   3.146
  409TIP3   OH2 1232   0.434   0.662   4.655
  409TIP3    H1 1233   0.370   0.615   4.708
  409TIP3    H2 1234   0.460   0.736   4.709
  410TIP3   OH2 1235   3.085   3.794   4.518
  410TIP3    H1 1236   3.127   3.804   4.432
  410TIP3    H2 1237   3.073   3.700   4.528
  411TIP3   OH2 1238   5.690   0.984   4.660
  411TIP3    H1 1239   5.756   0.957   4.596
  411TIP3    H2 1240   5.637   1.049   4.614
  412TIP3   OH2 1241   0.584   1.380   2.446
  412TIP3    H1 1242   0.507   1.364   2.392
  412TIP3    H2 1243   0.651   1.409   2.384
  413TIP3   OH2 1244   3.448   4.943   3.576
  413TIP3    H1 1245   3.453   5.037   3.594
  413TIP3    H2 1246   3.421   4.936   3.485
  414TIP3   OH2 1247   1.121   1.021   2.693
  414TIP3    H1 1248   1.112   0.928   2.670
  414TIP3    H2 1249   1.156   1.062   2.613
  415TIP3   OH2 1250   1.149   3.673   3.678
  415TIP3    H1 1251   1.074   3.712   3.632
  415TIP3    H2 1252   1.169   3.734   3.748
  416TIP3   OH2 1253   6.089   2.483   3.849
  416TIP3    H1 1254   6.010   2.537   3.849
  416TIP3    H2 1255   6.088   2.440   3.763
  417TIP3   OH2 1256   1.134   4.821   4.914
  417TIP3    H1 1257   1.150   4.850   4.824
  417TIP3    H2 1258   1.063   4.758   4.908
  418TIP3   OH2 1259   3.073   1.176   0.726
  418TIP3    H1 1260   3.026   1.253   0.757
  418TIP3    H2 1261   3.163   1.188   0.755
  419TIP3   OH2 1262   0.297   4.305   0.011
  419TIP3    H1 1263   0.305   4.235  -0.054
  419TIP3    H2 1264   0.220   4.281   0.063
  420TIP3   OH2 1265   1.748   4.022   1.041
  420TIP3    H1 1266   1.668   4.034   1.094
  420TIP3    H2 1267   1.753   4.102   0.989
  421TIP3   OH2 1268   4.727   0.747   4.843
  421TIP3    H1 1269   4.634   0.726   4.851
  421TIP3    H2 1270   4.772   0.663   4.858
  422TIP3   OH2 1271   1.546   3.190   2.393
  422TIP3    H1 1272   1.570   3.275   2.430
  422TIP3    H2 1273   1.472   3.161   2.446
  423TIP3   OH2 1274   4.414   0.998   1.256
  423TIP3    H1 1275   4.432   0.951   1.337
  423TIP3    H2 1276   4.499   1.035   1.230
  424TIP3   OH2 1277   3.771   4.211   1.804
  424TIP3    H1 1278   3.834   4.139   1.810
  424TIP3    H2 1279   3.773   4.237   1.712
  425TIP3   OH2 1280   2.850   3.891   0.063
  425TIP3    H1 1281   2.918   3.854   0.007
  425TIP3    H2 1282   2.855   3.986   0.047
  426TIP3   OH2 1283   0.245   1.028   4.991
  426TIP3    H1 1284   0.172   1.008   5.048
  426TIP3    H2 1285   0.309   1.070   5.048
  427TIP3   OH2 1286   0.827   3.712   1.157
  427TIP3    H1 1287   0.853   3.774   1.088
  427TIP3    H2 1288   0.778   3.644   1.111
  428TIP3   OH2 1289   3.093   4.485   4.349
  428TIP3    H1 1290   3.035   4.444   4.285
  428TIP3    H2 1291   3.075   4.437   4.431
  429TIP3   OH2 1292   5.751   3.338   3.341
  429TIP3    H1 1293   5.679   3.353   3.403
  429TIP3    H2 1294   5.707   3.318   3.258
  430TIP3   OH2 1295   3.434   4.343   1.889
  430TIP3    H1 1296   3.492   4.387   1.826
  430TIP3    H2 1297   3.489   4.327   1.965
  431TIP3   OH2 1298   5.425   1.721   4.674
  431TIP3    H1 1299   5.366   1.784   4.634
  431TIP3    H2 1300   5.442   1.757   4.761
  432TIP3   OH2 1301   0.763   0.058   3.917
  432TIP3    H1 1302   0.753  -0.021   3.865
  432TIP3    H2 1303   0.693   0.055   3.981
  433TIP3   OH2 1304   1.128   2.535   2.128
  433TIP3    H1 1305   1.131   2.525   2.223
  433TIP3    H2 1306   1.218   2.552   2.102
  434TIP3   OH2 1307   2.549   0.468   0.171
  434TIP3    H1 1308   2.588   0.543   0.126
  434TIP3    H2 1309   2.614   0.442   0.236
  435TIP3   OH2 1310   0.072   5.802   1.308
  435TIP3    H1 1311   0.121   5.883   1.325
  435TIP3    H2 1312   0.045   5.772   1.395
  436TIP3   OH2 1313   2.825   1.133   1.099
  436TIP3    H1 1314   2.787   1.198   1.039
  436TIP3    H2 1315   2.896   1.093   1.049
  437TIP3   OH2 1316   2.236   2.177   2.021
  437TIP3    H1 1317   2.215   2.254   2.074
  437TIP3    H2 1318   2.162   2.168   1.961
  438TIP3   OH2 1319   4.301   4.487   3.632
  438TIP3    H1 1320   4.276   4.529   3.714
  438TIP3    H2 1321   4.392   4.460   3.645
  439TIP3   OH2 1322   2.203   4.371   3.753
  439TIP3    H1 1323   2.136   4.433   3.722
  439TIP3    H2 1324   2.282   4.396   3.706
  440TIP3   OH2 1325   0.852   3.000   4.859
  440TIP3    H1 1326   0.899   2.921   4.833
  440TIP3    H2 1327   0.847   3.052   4.778
  441TIP3   OH2 1328   0.084   0.714   1.612
  441TIP3    H1 1329   0.025   0.787   1.592
  441TIP3    H2 1330   0.171   0.753   1.607
  442TIP3   OH2 1331   4.071   3.278   4.903
  442TIP3    H1 1332   4.134   3.344   4.878
  442TIP3    H2 1333   4.032   3.248   4.821
  443TIP3   OH2 1334   5.241   3.272   3.944
  443TIP3    H1 1335   5.265   3.305   4.030
  443TIP3    H2 1336   5.148   3.291   3.936
  444TIP3   OH2 1337   3.572   1.981   1.744
  444TIP3    H1 1338   3.656   1.964   1.787
  444TIP3    H2 1339   3.542   1.895   1.716
  445TIP3   OH2 1340   0.687   2.732   1.603
  445TIP3    H1 1341   0.747   2.709   1.673
  445TIP3    H2 1342   0.617   2.666   1.609
  446TIP3   OH2 1343   4.896   1.418   0.522
  446TIP3    H1 1344   4.829   1.357   0.554
  446TIP3    H2 1345   4.853   1.464   0.450
  447TIP3   OH2 1346   0.118   5.816   2.804
  447TIP3    H1 1347   0.073   5.772   2.731
  447TIP3    H2 1348   0.104   5.759   2.879
  448TIP3   OH2 1349   1.348   3.051   5.021
  448TIP3    H1 1350   1.348   3.144   4.998
  448TIP3    H2 1351   1.409   3.011   4.959
  449TIP3   OH2 1352   0.503   5.532   0.629
  449TIP3    H1 1353   0.588   5.569   0.608
  449TIP3    H2 1354   0.483   5.564   0.717
  450TIP3   OH2 1355   1.153   3.598   4.275
  450TIP3    H1 1356   1.089   3.616   4.207
  450TIP3    H2 1357   1.222   3.549   4.231
  451TIP3   OH2 1358   3.388   2.536   2.698
  451TIP3    H1 1359   3.293   2.537   2.687
  451TIP3    H2 1360   3.409   2.621   2.736
  452TIP3   OH2 1361   1.414   3.512   0.630
  452TIP3    H1 1362   1.364   3.592   0.644
  452TIP3    H2 1363   1.355   3.442   0.658
  453TIP3   OH2 1364   0.080   2.770   0.821
  453TIP3    H1 1365   0.156   2.714   0.835
  453TIP3    H2 1366   0.005   2.711   0.828
  454TIP3   OH2 1367   1.481   4.672   4.124
  454TIP3    H1 1368   1.518   4.696   4.039
  454TIP3    H2 1369   1.535   4.718   4.188
  455TIP3   OH2 1370   3.397   5.224   5.040
  455TIP3    H1 1371   3.388   5.308   5.086
  455TIP3    H2 1372   3.353   5.238   4.956
  456TIP3   OH2 1373   3.409   3.588   2.731
  456TIP3    H1 1374   3.434   3.627   2.815
  456TIP3    H2 1375   3.350   3.517   2.754
  457TIP3   OH2 1376   3.412   1.405   4.790
  457TIP3    H1 1377   3.326   1.435   4.818
  457TIP3    H2 1378   3.472   1.442   4.855
  458TIP3   OH2 1379   5.823   5.070   1.726
  458TIP3    H1 1380   5.888   5.110   1.785
  458TIP3    H2 1381   5.825   4.977   1.747
  459TIP3   OH2 1382   1.828   4.070   5.118
  459TIP3    H1 1383   1.887   4.060   5.193
  459TIP3    H2 1384   1.793   4.158   5.128
  460TIP3   OH2 1385   1.904   2.328   2.876
  460TIP3    H1 1386   1.946   2.321   2.791
  460TIP3    H2 1387   1.976   2.329   2.939
  461TIP3   OH2 1388   6.040   5.834   4.133
  461TIP3    H1 1389   6.122   5.845   4.086
  461TIP3    H2 1390   6.066   5.823   4.225
  462TIP3   OH2 1391   3.997   2.543  -0.014
  462TIP3    H1 1392   4.046   2.623   0.008
  462TIP3    H2 1393   3.921   2.546   0.044
  463TIP3   OH2 1394   4.549   0.588   4.120
  463TIP3    H1 1395   4.638   0.622   4.128
  463TIP3    H2 1396   4.544   0.518   4.185
  464TIP3   OH2 1397   4.046   3.412   2.730
  464TIP3    H1 1398   3.950   3.417   2.731
  464TIP3    H2 1399   4.064   3.319   2.718
  465TIP3   OH2 1400   5.413   2.527   0.416
  465TIP3    H1 1401   5.355   2.576   0.358
  465TIP3    H2 1402   5.390   2.557   0.504
  466TIP3   OH2 1403   0.636   2.003   0.961
  466TIP3    H1 1404   0.642   1.949   0.882
  466TIP3    H2 1405   0.571   1.959   1.016
  467TIP3   OH2 1406   3.084   3.675   0.518
  467TIP3    H1 1407   2.994   3.648   0.535
  467TIP3    H2 1408   3.086   3.695   0.424
  468TIP3   OH2 1409   1.651   2.943   4.841
  468TIP3    H1 1410   1.668   2.916   4.751
  468TIP3    H2 1411   1.665   2.864   4.893
  469TIP3   OH2 1412   1.476   5.676   2.014
  469TIP3    H1 1413   1.485   5.601   2.073
  469TIP3    H2 1414   1.415   5.735   2.058
  470TIP3   OH2 1415   2.046   5.341   1.852
  470TIP3    H1 1416   2.071   5.353   1.943
  470TIP3    H2 1417   1.975   5.277   1.854
  471TIP3   OH2 1418   4.475   3.803   2.425
  471TIP3    H1 1419   4.413   3.737   2.457
  471TIP3    H2 1420   4.560   3.772   2.453
  472TIP3   OH2 1421   4.033   5.165   2.770
  472TIP3    H1 1422   4.003   5.245   2.725
  472TIP3    H2 1423   4.068   5.110   2.700
  473TIP3   OH2 1424   2.928   5.536   0.143
  473TIP3    H1 1425   2.933   5.502   0.232
  473TIP3    H2 1426   3.002   5.494   0.097
  474TIP3   OH2 1427   5.772   3.556   4.472
  474TIP3    H1 1428   5.852   3.503   4.476
  474TIP3    H2 1429   5.766   3.597   4.558
  475TIP3   OH2 1430   0.547   0.577   2.963
  475TIP3    H1 1431   0.484   0.571   2.891
  475TIP3    H2 1432   0.564   0.486   2.987
  476TIP3   OH2 1433   0.661   5.372   2.824
  476TIP3    H1 1434   0.694   5.462   2.826
  476TIP3    H2 1435   0.737   5.319   2.846
  477TIP3   OH2 1436   3.412   0.285   4.557
  477TIP3    H1 1437   3.467   0.279   4.479
  477TIP3    H2 1438   3.427   0.202   4.603
  478TIP3   OH2 1439   1.856   1.271   0.223
  478TIP3    H1 1440   1.852   1.344   0.162
  478TIP3    H2 1441   1.918   1.210   0.184
  479TIP3   OH2 1442   3.560   3.728   3.184
  479TIP3    H1 1443   3.493   3.721   3.252
  479TIP3    H2 1444   3.616   3.799   3.213
  480TIP3   OH2 1445   3.259   3.367   0.727
  480TIP3    H1 1446   3.169   3.368   0.696
  480TIP3    H2 1447   3.252   3.393   0.819
  481TIP3   OH2 1448   3.341   3.529   4.859
  481TIP3    H1 1449   3.278   3.463   4.830
  481TIP3    H2 1450   3.290   3.609   4.870
  482TIP3   OH2 1451   0.886   5.819   3.114
  482TIP3    H1 1452   0.902   5.881   3.185
  482TIP3    H2 1453   0.832   5.867   3.052
  483TIP3   OH2 1454   1.998   5.350   3.893
  483TIP3    H1 1455   2.015   5.309   3.808
  483TIP3    H2 1456   1.983   5.277   3.953
  484TIP3   OH2 1457   5.212   2.343   3.569
  484TIP3    H1 1458   5.263   2.424   3.579
  484TIP3    H2 1459   5.122   2.368   3.589
  485TIP3   OH2 1460   1.881   2.778   1.866
  485TIP3    H1 1461   1.904   2.732   1.786
  485TIP3    H2 1462   1.948   2.845   1.876
  486TIP3   OH2 1463   6.231   2.295   2.623
  486TIP3    H1 1464   6.273   2.291   2.537
  486TIP3    H2 1465   6.293   2.343   2.678
  487TIP3   OH2 1466   1.452   1.523   1.672
  487TIP3    H1 1467   1.391   1.586   1.711
  487TIP3    H2 1468   1.463   1.456   1.739
  488TIP3   OH2 1469   4.173   5.731   3.798
  488TIP3    H1 1470   4.215   5.660   3.749
  488TIP3    H2 1471   4.080   5.711   3.795
  489TIP3   OH2 1472   1.653   3.060   0.166
  489TIP3    H1 1473   1.582   3.055   0.231
  489TIP3    H2 1474   1.643   3.147   0.128
  490TIP3   OH2 1475   1.197   4.960   0.766
  490TIP3    H1 1476   1.247   5.035   0.734
  490TIP3    H2 1477   1.134   4.997   0.828
  491TIP3   OH2 1478   0.210   4.509   2.257
  491TIP3    H1 1479   0.140   4.567   2.287
  491TIP3    H2 1480   0.290   4.552   2.288
  492TIP3   OH2 1481   1.597   1.183   0.625
  492TIP3    H1 1482   1.620   1.136   0.545
  492TIP3    H2 1483   1.588   1.114   0.691
  493TIP3   OH2 1484   2.636   1.555   2.757
  493TIP3    H1 1485   2.588   1.637   2.747
  493TIP3    H2 1486   2.581   1.490   2.714
  494TIP3   OH2 1487   5.103   5.064   2.151
  494TIP3    H1 1488   5.133   5.097   2.066
  494TIP3    H2 1489   5.170   5.091   2.213
  495TIP3   OH2 1490   0.895   0.789   0.029
  495TIP3    H1 1491   0.851   0.828   0.105
  495TIP3    H2 1492   0.851   0.826  -0.047
  496TIP3   OH2 1493   3.252   3.794   0.320
  496TIP3    H1 1494   3.339   3.824   0.293
  496TIP3    H2 1495   3.268   3.710   0.362
  497TIP3   OH2 1496   1.766   0.934   2.722
  497TIP3    H1 1497   1.752   0.851   2.767
  497TIP3    H2 1498   1.680   0.958   2.688
  498TIP3   OH2 1499   0.043   3.116   4.229
  498TIP3    H1 1500   0.023   3.151   4.142
  498TIP3    H2 1501   0.049   3.022   4.216
  499TIP3   OH2 1502   6.232   0.568   0.855
  499TIP3    H1 1503   6.268   0.626   0.788
  499TIP3    H2 1504   6.205   0.626   0.925
  500TIP3   OH2 1505   3.208   4.112   0.209
  500TIP3    H1 1506   3.245   4.074   0.129
  500TIP3    H2 1507   3.284   4.132   0.263
  501TIP3   OH2 1508   5.423   5.840   0.865
  501TIP3    H1 1509   5.406   5.886   0.783
  501TIP3    H2 1510   5.493   5.890   0.906
  502TIP3   OH2 1511   0.714   4.889   4.466
  502TIP3    H1 1512   0.759   4.973   4.473
  502TIP3    H2 1513   0.633   4.900   4.516
  503TIP3   OH2 1514   3.900   4.879   1.907
  503TIP3    H1 1515   3.921   4.969   1.881
  503TIP3    H2 1516   3.870   4.837   1.826
  504TIP3   OH2 1517   3.621   0.726   0.525
  504TIP3    H1 1518   3.538   0.683   0.502
  504TIP3    H2 1519   3.682   0.699   0.457
  505TIP3   OH2 1520   1.588   4.014   1.380
  505TIP3    H1 1521   1.615   3.922   1.373
  505TIP3    H2 1522   1.577   4.028   1.474
  506TIP3   OH2 1523   1.172   2.382   1.495
  506TIP3    H1 1524   1.191   2.352   1.406
  506TIP3    H2 1525   1.258   2.393   1.536
  507TIP3   OH2 1526   1.433   3.849   2.203
  507TIP3    H1 1527   1.504   3.788   2.224
  507TIP3    H2 1528   1.416   3.834   2.110
  508TIP3   OH2 1529   2.759   2.545   1.088
  508TIP3    H1 1530   2.745   2.487   1.163
  508TIP3    H2 1531   2.673   2.581   1.069
  509TIP3   OH2 1532   0.125   1.579   2.831
  509TIP3    H1 1533   0.127   1.500   2.885
  509TIP3    H2 1534   0.123   1.546   2.741
  510TIP3   OH2 1535   3.812   4.667   4.264
  510TIP3    H1 1536   3.726   4.686   4.302
  510TIP3    H2 1537   3.799   4.673   4.170
  511TIP3   OH2 1538   1.567   3.592   2.933
  511TIP3    H1 1539   1.634   3.605   2.867
  511TIP3    H2 1540   1.537   3.681   2.956
  512TIP3   OH2 1541   2.501   0.388   1.288
  512TIP3    H1 1542   2.545   0.345   1.361
  512TIP3    H2 1543   2.449   0.457   1.330
  513TIP3   OH2 1544   2.254   1.227   0.179
  513TIP3    H1 1545   2.264   1.283   0.256
  513TIP3    H2 1546   2.246   1.139   0.215
  514TIP3   OH2 1547   5.246   2.310   4.083
  514TIP3    H1 1548   5.202   2.227   4.099
  514TIP3    H2 1549   5.245   2.320   3.987
  515TIP3   OH2 1550   3.808   5.490   0.191
  515TIP3    H1 1551   3.831   5.398   0.177
  515TIP3    H2 1552   3.851   5.514   0.273
  516TIP3   OH2 1553   3.343   0.572   5.019
  516TIP3    H1 1554   3.373   0.483   5.036
  516TIP3    H2 1555   3.353   0.584   4.925
  517TIP3   OH2 1556   5.076   2.402   0.784
  517TIP3    H1 1557   5.170   2.388   0.771
  517TIP3    H2 1558   5.043   2.316   0.811
  518TIP3   OH2 1559   2.472   2.794   3.711
  518TIP3    H1 1560   2.519   2.822   3.790
  518TIP3    H2 1561   2.380   2.812   3.731
  519TIP3   OH2 1562   6.110   5.035   0.183
  519TIP3    H1 1563   6.115   5.113   0.239
  519TIP3    H2 1564   6.072   4.968   0.240
  520TIP3   OH2 1565   5.311   2.735   2.017
  520TIP3    H1 1566   5.250   2.768   1.951
  520TIP3    H2 1567   5.397   2.739   1.975
  521TIP3   OH2 1568   3.789   2.023   0.085
  521TIP3    H1 1569   3.697   2.016   0.059
  521TIP3    H2 1570   3.837   1.986   0.011
  522TIP3   OH2 1571   5.232   5.196   1.938
  522TIP3    H1 1572   5.266   5.278   1.902
  522TIP3    H2 1573   5.244   5.132   1.868
  523TIP3   OH2 1574   3.134   5.836   1.500
  523TIP3    H1 1575   3.150   5.927   1.474
  523TIP3    H2 1576   3.047   5.816   1.464
  524TIP3   OH2 1577   5.499   3.640   0.304
  524TIP3    H1 1578   5.483   3.659   0.212
  524TIP3    H2 1579   5.595   3.637   0.311
  525TIP3   OH2 1580   2.841   2.915   1.576
  525TIP3    H1 1581   2.773   2.964   1.622
  525TIP3    H2 1582   2.797   2.839   1.540
  526TIP3   OH2 1583   2.124   5.658   4.454
  526TIP3    H1 1584   2.174   5.690   4.380
  526TIP3    H2 1585   2.183   5.667   4.529
  527TIP3   OH2 1586   3.862   4.835   4.019
  527TIP3    H1 1587   3.952   4.820   4.048
  527TIP3    H2 1588   3.845   4.927   4.042
  528TIP3   OH2 1589   1.705   4.123   2.195
  528TIP3    H1 1590   1.758   4.196   2.164
  528TIP3    H2 1591   1.615   4.151   2.178
  529TIP3   OH2 1592   1.560   0.131   3.141
  529TIP3    H1 1593   1.651   0.157   3.128
  529TIP3    H2 1594   1.532   0.179   3.220
  530TIP3   OH2 1595   5.302   5.217   3.644
  530TIP3    H1 1596   5.341   5.290   3.596
  530TIP3    H2 1597   5.263   5.162   3.577
  531TIP3   OH2 1598   4.497   5.570   1.030
  531TIP3    H1 1599   4.589   5.545   1.022
  531TIP3    H2 1600   4.497   5.639   1.097
  532TIP3   OH2 1601   1.506   3.116   4.634
  532TIP3    H1 1602   1.482   3.036   4.587
  532TIP3    H2 1603   1.555   3.084   4.710
  533TIP3   OH2 1604   0.961   4.354   2.514
  533TIP3    H1 1605   0.981   4.261   2.516
  533TIP3    H2 1606   0.912   4.370   2.595
  534TIP3   OH2 1607   4.965   0.852   2.161
  534TIP3    H1 1608   4.873   0.866   2.184
  534TIP3    H2 1609   5.014   0.888   2.234
  535TIP3   OH2 1610   0.182   1.465   4.146
  535TIP3    H1 1611   0.183   1.468   4.242
  535TIP3    H2 1612   0.118   1.532   4.121
  536TIP3   OH2 1613   2.533   5.372   3.824
  536TIP3    H1 1614   2.501   5.447   3.772
  536TIP3    H2 1615   2.524   5.400   3.915
  537TIP3   OH2 1616   5.975   4.820   4.055
  537TIP3    H1 1617   6.022   4.764   4.117
  537TIP3    H2 1618   6.043   4.858   3.999
  538TIP3   OH2 1619   0.628   0.209   3.353
  538TIP3    H1 1620   0.634   0.303   3.336
  538TIP3    H2 1621   0.719   0.181   3.367
  539TIP3   OH2 1622   3.830   0.157   3.448
  539TIP3    H1 1623   3.913   0.121   3.416
  539TIP3    H2 1624   3.854   0.242   3.486
  540TIP3   OH2 1625   0.357   4.919   4.069
  540TIP3    H1 1626   0.325   5.009   4.074
  540TIP3    H2 1627   0.425   4.914   4.136
  541TIP3   OH2 1628   0.440   0.482   3.592
  541TIP3    H1 1629   0.446   0.523   3.505
  541TIP3    H2 1630   0.452   0.554   3.653
  542TIP3   OH2 1631   6.135   2.143   1.112
  542TIP3    H1 1632   6.201   2.131   1.180
  542TIP3    H2 1633   6.069   2.200   1.152
  543TIP3   OH2 1634   1.776   3.183   1.483
  543TIP3    H1 1635   1.713   3.111   1.483
  543TIP3    H2 1636   1.727   3.257   1.447
  544TIP3   OH2 1637   6.029   4.409   1.875
  544TIP3    H1 1638   5.947   4.405   1.826
  544TIP3    H2 1639   6.004   4.441   1.961
  545TIP3   OH2 1640   3.947   3.623   0.540
  545TIP3    H1 1641   3.963   3.655   0.629
  545TIP3    H2 1642   3.852   3.632   0.529
  546TIP3   OH2 1643   0.493   4.217   1.605
  546TIP3    H1 1644   0.488   4.259   1.691
  546TIP3    H2 1645   0.431   4.265   1.551
  547TIP3   OH2 1646   5.364   1.031   3.949
  547TIP3    H1 1647   5.358   1.103   4.011
  547TIP3    H2 1648   5.277   0.991   3.951
  548TIP3   OH2 1649   4.482   4.605   0.382
  548TIP3    H1 1650   4.418   4.676   0.377
  548TIP3    H2 1651   4.437   4.530   0.345
  549TIP3   OH2 1652   4.781   4.089   3.491
  549TIP3    H1 1653   4.745   4.156   3.550
  549TIP3    H2 1654   4.740   4.106   3.407
  550TIP3   OH2 1655   0.157   1.338   2.951
  550TIP3    H1 1656   0.063   1.317   2.953
  550TIP3    H2 1657   0.200   1.252   2.952
  551TIP3   OH2 1658   4.431   3.836   0.734
  551TIP3    H1 1659   4.518   3.814   0.768
  551TIP3    H2 1660   4.414   3.768   0.668
  552TIP3   OH2 1661   4.192   2.972   0.760
  552TIP3    H1 1662   4.104   3.002   0.780
  552TIP3    H2 1663   4.239   2.978   0.843
  553TIP3   OH2 1664   0.670   0.230   1.675
  553TIP3    H1 1665   0.620   0.230   1.593
  553TIP3    H2 1666   0.702   0.140   1.683
  554TIP3   OH2 1667   6.107   0.233   4.545
  554TIP3    H1 1668   6.043   0.212   4.613
  554TIP3    H2 1669   6.096   0.327   4.530
  555TIP3   OH2 1670   3.998   1.918   2.858
  555TIP3    H1 1671   4.050   1.839   2.874
  555TIP3    H2 1672   3.999   1.929   2.763
  556TIP3   OH2 1673   0.693   2.040   0.338
  556TIP3    H1 1674   0.772   1.985   0.335
  556TIP3    H2 1675   0.725   2.129   0.323
  557TIP3   OH2 1676   5.474   2.841   2.647
  557TIP3    H1 1677   5.486   2.746   2.653
  557TIP3    H2 1678   5.379   2.853   2.646
  558TIP3   OH2 1679   3.097   1.237   0.113
  558TIP3    H1 1680   3.111   1.147   0.143
  558TIP3    H2 1681   3.005   1.255   0.134
  559TIP3   OH2 1682   3.948   0.604   1.782
  559TIP3    H1 1683   3.992   0.600   1.697
  559TIP3    H2 1684   3.998   0.547   1.839
  560TIP3   OH2 1685   6.022   1.813   3.915
  560TIP3    H1 1686   6.014   1.733   3.862
  560TIP3    H2 1687   6.089   1.865   3.870
  561TIP3   OH2 1688   5.307   5.191   2.385
  561TIP3    H1 1689   5.225   5.181   2.432
  561TIP3    H2 1690   5.302   5.278   2.346
  562TIP3   OH2 1691   0.917   4.378   4.525
  562TIP3    H1 1692   0.968   4.371   4.606
  562TIP3    H2 1693   0.827   4.358   4.551
  563TIP3   OH2 1694   0.564   0.330   4.015
  563TIP3    H1 1695   0.536   0.329   3.923
  563TIP3    H2 1696   0.578   0.238   4.037
  564TIP3   OH2 1697   0.884   0.459   1.664
  564TIP3    H1 1698   0.867   0.505   1.746
  564TIP3    H2 1699   0.816   0.392   1.660
  565TIP3   OH2 1700   2.643   1.894   0.960
  565TIP3    H1 1701   2.573   1.934   1.012
  565TIP3    H2 1702   2.723   1.916   1.006
  566TIP3   OH2 1703   0.645   4.304   4.565
  566TIP3    H1 1704   0.621   4.238   4.630
  566TIP3    H2 1705   0.573   4.368   4.568
  567TIP3   OH2 1706   3.361   5.511   3.241
  567TIP3    H1 1707   3.350   5.606   3.253
  567TIP3    H2 1708   3.447   5.502   3.201
  568TIP3   OH2 1709   5.821   3.905   1.982
  568TIP3    H1 1710   5.871   3.953   1.917
  568TIP3    H2 1711   5.834   3.813   1.959
  569TIP3   OH2 1712   0.673   5.462   2.339
  569TIP3    H1 1713   0.738   5.529   2.322
  569TIP3    H2 1714   0.709   5.411   2.412
  570TIP3   OH2 1715   2.614   0.646   2.802
  570TIP3    H1 1716   2.632   0.554   2.821
  570TIP3    H2 1717   2.566   0.677   2.879
  571TIP3   OH2 1718   3.775   4.511   4.565
  571TIP3    H1 1719   3.806   4.596   4.597
  571TIP3    H2 1720   3.839   4.486   4.498
  572TIP3   OH2 1721   4.943   5.893   1.312
  572TIP3    H1 1722   4.898   5.923   1.391
  572TIP3    H2 1723   4.874   5.878   1.248
  573TIP3   OH2 1724   2.409   3.207   2.834
  573TIP3    H1 1725   2.403   3.142   2.905
  573TIP3    H2 1726   2.319   3.235   2.819
  574TIP3   OH2 1727   3.161   0.993   1.807
  574TIP3    H1 1728   3.121   1.078   1.787
  574TIP3    H2 1729   3.088   0.932   1.809
  575TIP3   OH2 1730   0.100   3.653   1.485
  575TIP3    H1 1731   0.138   3.701   1.558
  575TIP3    H2 1732   0.173   3.636   1.426
  576TIP3   OH2 1733   4.303   5.289   0.693
  576TIP3    H1 1734   4.365   5.220   0.714
  576TIP3    H2 1735   4.317   5.356   0.761
  577TIP3   OH2 1736   0.063   4.181   1.011
  577TIP3    H1 1737   0.083   4.089   1.026
  577TIP3    H2 1738   0.100   4.200   0.925
  578TIP3   OH2 1739   0.629   2.857   0.389
  578TIP3    H1 1740   0.697   2.914   0.354
  578TIP3    H2 1741   0.671   2.810   0.461
  579TIP3   OH2 1742   0.888   1.873   2.454
  579TIP3    H1 1743   0.972   1.864   2.408
  579TIP3    H2 1744   0.866   1.784   2.482
  580TIP3   OH2 1745   5.237   5.530   3.186
  580TIP3    H1 1746   5.192   5.450   3.158
  580TIP3    H2 1747   5.257   5.576   3.105
  581TIP3   OH2 1748   5.112   0.875   0.474
  581TIP3    H1 1749   5.182   0.906   0.531
  581TIP3    H2 1750   5.086   0.790   0.510
  582TIP3   OH2 1751   5.109   4.573   2.938
  582TIP3    H1 1752   5.047   4.557   3.009
  582TIP3    H2 1753   5.054   4.587   2.861
  583TIP3   OH2 1754   1.632   5.301   1.618
  583TIP3    H1 1755   1.559   5.241   1.607
  583TIP3    H2 1756   1.591   5.387   1.625
  584TIP3   OH2 1757   6.307   0.106   0.282
  584TIP3    H1 1758   6.300   0.140   0.193
  584TIP3    H2 1759   6.373   0.037   0.276
  585TIP3   OH2 1760   2.612   5.683   5.061
  585TIP3    H1 1761   2.688   5.677   5.118
  585TIP3    H2 1762   2.649   5.690   4.973
  586TIP3   OH2 1763   6.278   2.088   2.028
  586TIP3    H1 1764   6.281   2.005   2.077
  586TIP3    H2 1765   6.312   2.153   2.090
  587TIP3   OH2 1766   4.584   4.322   3.516
  587TIP3    H1 1767   4.636   4.350   3.441
  587TIP3    H2 1768   4.513   4.270   3.478
  588TIP3   OH2 1769   5.257   2.943   3.198
  588TIP3    H1 1770   5.237   2.862   3.244
  588TIP3    H2 1771   5.181   2.959   3.143
  589TIP3   OH2 1772   6.106   1.927   1.874
  589TIP3    H1 1773   6.071   1.923   1.963
  589TIP3    H2 1774   6.198   1.953   1.885
  590TIP3   OH2 1775   3.436   0.320   1.735
  590TIP3    H1 1776   3.405   0.229   1.735
  590TIP3    H2 1777   3.357   0.372   1.747
  591TIP3   OH2 1778   0.745   0.350   0.865
  591TIP3    H1 1779   0.805   0.373   0.794
  591TIP3    H2 1780   0.768   0.410   0.936
  592TIP3   OH2 1781   2.420   3.270   1.334
  592TIP3    H1 1782   2.408   3.363   1.316
  592TIP3    H2 1783   2.514   3.255   1.323
  593TIP3   OH2 1784   1.060   5.591   0.422
  593TIP3    H1 1785   1.141   5.584   0.372
  593TIP3    H2 1786   0.995   5.622   0.359
  594TIP3   OH2 1787   3.601   2.041   0.308
  594TIP3    H1 1788   3.588   1.956   0.267
  594TIP3    H2 1789   3.692   2.064   0.288
  595TIP3   OH2 1790   2.944   1.635   0.904
  595TIP3    H1 1791   2.903   1.686   0.835
  595TIP3    H2 1792   2.889   1.649   0.980
  596TIP3   OH2 1793   1.166   2.636   0.882
  596TIP3    H1 1794   1.190   2.664   0.971
  596TIP3    H2 1795   1.181   2.542   0.882
  597TIP3   OH2 1796   0.941   1.478   0.134
  597TIP3    H1 1797   0.870   1.424   0.170
  597TIP3    H2 1798   1.013   1.467   0.196
  598TIP3   OH2 1799   1.262   5.272   2.636
  598TIP3    H1 1800   1.254   5.178   2.625
  598TIP3    H2 1801   1.336   5.284   2.696
  599TIP3   OH2 1802   0.329   5.832   4.643
  599TIP3    H1 1803   0.379   5.753   4.663
  599TIP3    H2 1804   0.291   5.859   4.726
  600TIP3   OH2 1805   1.079   5.771   3.661
  600TIP3    H1 1806   1.001   5.716   3.670
  600TIP3    H2 1807   1.075   5.805   3.572
  601TIP3   OH2 1808   0.783   4.293   0.102
  601TIP3    H1 1809   0.712   4.343   0.063
  601TIP3    H2 1810   0.814   4.237   0.031
  602TIP3   OH2 1811   0.634   3.803   2.277
  602TIP3    H1 1812   0.730   3.805   2.277
  602TIP3    H2 1813   0.609   3.818   2.186
  603TIP3   OH2 1814   4.163   0.099   1.897
  603TIP3    H1 1815   4.258   0.090   1.905
  603TIP3    H2 1816   4.136   0.142   1.978
  604TIP3   OH2 1817   2.149   1.762   2.987
  604TIP3    H1 1818   2.184   1.687   2.940
  604TIP3    H2 1819   2.192   1.759   3.072
  605TIP3   OH2 1820   6.013   2.220   2.083
  605TIP3    H1 1821   6.004   2.262   2.169
  605TIP3    H2 1822   6.097   2.176   2.087
  606TIP3   OH2 1823   6.075   1.704   4.736
  606TIP3    H1 1824   6.085   1.611   4.754
  606TIP3    H2 1825   6.039   1.708   4.647
  607TIP3   OH2 1826   1.291   3.941   0.192
  607TIP3    H1 1827   1.365   3.922   0.133
  607TIP3    H2 1828   1.260   4.027   0.164
  608TIP3   OH2 1829   3.181   4.861   0.950
  608TIP3    H1 1830   3.182   4.856   1.046
  608TIP3    H2 1831   3.268   4.894   0.927
  609TIP3   OH2 1832   5.537   4.687   3.587
  609TIP3    H1 1833   5.597   4.761   3.572
  609TIP3    H2 1834   5.522   4.687   3.681
  610TIP3   OH2 1835   5.063   4.378   0.870
  610TIP3    H1 1836   5.059   4.288   0.840
  610TIP3    H2 1837   4.979   4.416   0.845
  611TIP3   OH2 1838   1.466   3.738   4.489
  611TIP3    H1 1839   1.479   3.734   4.395
  611TIP3    H2 1840   1.441   3.649   4.514
  612TIP3   OH2 1841   4.770   4.251   2.429
  612TIP3    H1 1842   4.801   4.249   2.519
  612TIP3    H2 1843   4.848   4.234   2.375
  613TIP3   OH2 1844   4.340   5.138   3.463
  613TIP3    H1 1845   4.420   5.107   3.420
  613TIP3    H2 1846   4.305   5.204   3.403
  614TIP3   OH2 1847   5.263   1.415   3.983
  614TIP3    H1 1848   5.302   1.502   3.993
  614TIP3    H2 1849   5.336   1.355   3.994
  615TIP3   OH2 1850   5.081   3.270   4.307
  615TIP3    H1 1851   4.994   3.305   4.323
  615TIP3    H2 1852   5.139   3.326   4.358
  616TIP3   OH2 1853   0.484   5.747   3.912
  616TIP3    H1 1854   0.477   5.661   3.869
  616TIP3    H2 1855   0.462   5.729   4.004
  617TIP3   OH2 1856   5.719   4.442   2.440
  617TIP3    H1 1857   5.733   4.352   2.413
  617TIP3    H2 1858   5.767   4.451   2.522
  618TIP3   OH2 1859   1.560   4.151   3.906
  618TIP3    H1 1860   1.607   4.070   3.887
  618TIP3    H2 1861   1.469   4.124   3.918
  619TIP3   OH2 1862   3.764   3.559   2.243
  619TIP3    H1 1863   3.711   3.630   2.207
  619TIP3    H2 1864   3.743   3.483   2.188
  620TIP3   OH2 1865   1.231   5.918   0.328
  620TIP3    H1 1866   1.277   5.840   0.299
  620TIP3    H2 1867   1.270   5.939   0.413
  621TIP3   OH2 1868   0.364   4.628   1.116
  621TIP3    H1 1869   0.300   4.671   1.172
  621TIP3    H2 1870   0.314   4.602   1.038
  622TIP3   OH2 1871   2.092   1.416   3.043
  622TIP3    H1 1872   2.074   1.380   3.130
  622TIP3    H2 1873   2.015   1.468   3.022
  623TIP3   OH2 1874   3.135   1.949   4.934
  623TIP3    H1 1875   3.060   2.001   4.905
  623TIP3    H2 1876   3.162   1.901   4.855
  624TIP3   OH2 1877   1.891   4.941   1.729
  624TIP3    H1 1878   1.947   4.921   1.654
  624TIP3    H2 1879   1.823   4.873   1.727
  625TIP3   OH2 1880   0.301   5.951   0.834
  625TIP3    H1 1881   0.296   5.892   0.909
  625TIP3    H2 1882   0.328   6.035   0.871
  626TIP3   OH2 1883   3.617   3.608   2.551
  626TIP3    H1 1884   3.644   3.698   2.568
  626TIP3    H2 1885   3.556   3.588   2.621
  627TIP3   OH2 1886   2.245   4.694   1.792
  627TIP3    H1 1887   2.276   4.758   1.856
  627TIP3    H2 1888   2.318   4.683   1.731
  628TIP3   OH2 1889   4.656   5.253   2.549
  628TIP3    H1 1890   4.620   5.306   2.621
  628TIP3    H2 1891   4.603   5.173   2.550
  629TIP3   OH2 1892   3.059   2.680   3.772
  629TIP3    H1 1893   3.138   2.631   3.796
  629TIP3    H2 1894   2.998   2.614   3.741
  630TIP3   OH2 1895   4.485   5.022   1.644
  630TIP3    H1 1896   4.557   5.077   1.676
  630TIP3    H2 1897   4.415   5.084   1.623
  631TIP3   OH2 1898   1.227   0.219   4.231
  631TIP3    H1 1899   1.199   0.134   4.198
  631TIP3    H2 1900   1.244   0.271   4.153
  632TIP3   OH2 1901   3.444   1.330   3.635
  632TIP3    H1 1902   3.536   1.355   3.637
  632TIP3    H2 1903   3.396   1.411   3.653
  633TIP3   OH2 1904   2.909   4.709   4.522
  633TIP3    H1 1905   2.822   4.745   4.542
  633TIP3    H2 1906   2.919   4.721   4.428
  634TIP3   OH2 1907   4.647   4.135   0.719
  634TIP3    H1 1908   4.581   4.151   0.652
  634TIP3    H2 1909   4.729   4.166   0.680
  635TIP3   OH2 1910   5.113   1.036   0.872
  635TIP3    H1 1911   5.136   1.046   0.779
  635TIP3    H2 1912   5.180   1.086   0.919
  636TIP3   OH2 1913   4.999   3.399   3.305
  636TIP3    H1 1914   4.967   3.432   3.389
  636TIP3    H2 1915   4.950   3.318   3.291
  637TIP3   OH2 1916   0.133   3.425   5.203
  637TIP3    H1 1917   0.060   3.370   5.174
  637TIP3    H2 1918   0.204   3.405   5.143
  638TIP3   OH2 1919   1.984   0.913   0.396
  638TIP3    H1 1920   1.895   0.904   0.362
  638TIP3    H2 1921   1.999   0.831   0.444
  639TIP3   OH2 1922   2.606   3.991   0.563
  639TIP3    H1 1923   2.690   3.983   0.607
  639TIP3    H2 1924   2.586   4.085   0.565
  640TIP3   OH2 1925   5.668   3.612   2.585
  640TIP3    H1 1926   5.757   3.639   2.559
  640TIP3    H2 1927   5.655   3.651   2.671
  641TIP3   OH2 1928   6.063   2.017   3.237
  641TIP3    H1 1929   6.125   2.089   3.254
  641TIP3    H2 1930   6.015   2.045   3.159
  642TIP3   OH2 1931   3.584   1.860   4.712
  642TIP3    H1 1932   3.669   1.901   4.696
  642TIP3    H2 1933   3.605   1.769   4.734
  643TIP3   OH2 1934   4.840   4.800   4.817
  643TIP3    H1 1935   4.847   4.888   4.780
  643TIP3    H2 1936   4.920   4.788   4.868
  644TIP3   OH2 1937   4.045   1.318   3.983
  644TIP3    H1 1938   4.005   1.385   4.038
  644TIP3    H2 1939   4.126   1.295   4.029
  645TIP3   OH2 1940   3.729   1.812   2.007
  645TIP3    H1 1941   3.778   1.820   1.925
  645TIP3    H2 1942   3.707   1.719   2.013
  646TIP3   OH2 1943   5.687   3.616   2.294
  646TIP3    H1 1944   5.699   3.710   2.282
  646TIP3    H2 1945   5.661   3.607   2.386
  647TIP3   OH2 1946   3.471   4.900   2.895
  647TIP3    H1 1947   3.490   4.832   2.830
  647TIP3    H2 1948   3.405   4.956   2.854
  648TIP3   OH2 1949   4.396   2.291   3.246
  648TIP3    H1 1950   4.453   2.315   3.173
  648TIP3    H2 1951   4.309   2.320   3.219
  649TIP3   OH2 1952   1.971   3.955   1.614
  649TIP3    H1 1953   1.931   3.960   1.527
  649TIP3    H2 1954   2.060   3.988   1.601
  650TIP3   OH2 1955   5.949   4.480   2.121
  650TIP3    H1 1956   5.999   4.521   2.192
  650TIP3    H2 1957   5.859   4.476   2.154
  651TIP3   OH2 1958   5.887   1.079   4.094
  651TIP3    H1 1959   5.974   1.119   4.095
  651TIP3    H2 1960   5.866   1.065   4.186
  652TIP3   OH2 1961   2.907   5.057   5.035
  652TIP3    H1 1962   2.919   5.114   5.112
  652TIP3    H2 1963   2.985   5.073   4.982
  653TIP3   OH2 1964   3.699   2.522   3.236
  653TIP3    H1 1965   3.689   2.475   3.153
  653TIP3    H2 1966   3.623   2.581   3.239
  654TIP3   OH2 1967   3.052   2.075   4.623
  654TIP3    H1 1968   3.134   2.060   4.669
  654TIP3    H2 1969   3.068   2.045   4.534
  655TIP3   OH2 1970   6.157   5.487   3.931
  655TIP3    H1 1971   6.170   5.421   3.864
  655TIP3    H2 1972   6.062   5.502   3.933
  656TIP3   OH2 1973   4.369   1.248   2.350
  656TIP3    H1 1974   4.451   1.271   2.305
  656TIP3    H2 1975   4.361   1.153   2.338
  657TIP3   OH2 1976   2.629   0.976   1.256
  657TIP3    H1 1977   2.643   0.978   1.351
  657TIP3    H2 1978   2.700   1.028   1.220
  658TIP3   OH2 1979  -0.026   1.892   1.541
  658TIP3    H1 1980  -0.016   1.933   1.627
  658TIP3    H2 1981   0.058   1.851   1.525
  659TIP3   OH2 1982   4.528   1.616   2.832
  659TIP3    H1 1983   4.540   1.710   2.816
  659TIP3    H2 1984   4.561   1.602   2.920
  660TIP3   OH2 1985   4.212   0.641   1.296
  660TIP3    H1 1986   4.193   0.734   1.284
  660TIP3    H2 1987   4.135   0.597   1.260
  661TIP3   OH2 1988   3.273   1.569   1.898
  661TIP3    H1 1989   3.194   1.617   1.923
  661TIP3    H2 1990   3.270   1.489   1.951
  662TIP3   OH2 1991   2.892   3.207   1.247
  662TIP3    H1 1992   2.918   3.256   1.325
  662TIP3    H2 1993   2.905   3.268   1.175
  663TIP3   OH2 1994   3.004   5.270   2.534
  663TIP3    H1 1995   3.082   5.297   2.583
  663TIP3    H2 1996   2.940   5.246   2.601
  664TIP3   OH2 1997   5.570   4.956   0.573
  664TIP3    H1 1998   5.491   4.902   0.581
  664TIP3    H2 1999   5.624   4.910   0.508
  665TIP3   OH2 2000   5.351   0.460   0.571
  665TIP3    H1 2001   5.319   0.530   0.627
  665TIP3    H2 2002   5.323   0.379   0.614
  666TIP3   OH2 2003   4.260   4.050   3.152
  666TIP3    H1 2004   4.172   4.049   3.115
  666TIP3    H2 2005   4.318   4.042   3.075
  667TIP3   OH2 2006   0.263   3.366   1.251
  667TIP3    H1 2007   0.348   3.408   1.263
  667TIP3    H2 2008   0.262   3.293   1.313
  668TIP3   OH2 2009   3.869   0.376   2.058
  668TIP3    H1 2010   3.904   0.358   1.971
  668TIP3    H2 2011   3.822   0.296   2.082
  669TIP3   OH2 2012   3.647   0.081   3.730
  669TIP3    H1 2013   3.737   0.059   3.708
  669TIP3    H2 2014   3.648   0.095   3.825
  670TIP3   OH2 2015   5.472   1.116   4.534
  670TIP3    H1 2016   5.519   1.199   4.535
  670TIP3    H2 2017   5.388   1.135   4.576
  671TIP3   OH2 2018   5.620   5.834   0.413
  671TIP3    H1 2019   5.682   5.826   0.340
  671TIP3    H2 2020   5.617   5.747   0.452
  672TIP3   OH2 2021   1.999   4.056   4.596
  672TIP3    H1 2022   2.021   4.042   4.504
  672TIP3    H2 2023   1.921   4.111   4.593
  673TIP3   OH2 2024   1.271   1.056   1.065
  673TIP3    H1 2025   1.336   0.989   1.085
  673TIP3    H2 2026   1.228   1.074   1.148
  674TIP3   OH2 2027   0.687   0.250   0.514
  674TIP3    H1 2028   0.682   0.161   0.549
  674TIP3    H2 2029   0.684   0.237   0.419
  675TIP3   OH2 2030   4.033   5.667   2.294
  675TIP3    H1 2031   4.016   5.590   2.348
  675TIP3    H2 2032   4.105   5.641   2.237
  676TIP3   OH2 2033   3.514   3.410   1.399
  676TIP3    H1 2034   3.514   3.499   1.433
  676TIP3    H2 2035   3.422   3.388   1.387
  677TIP3   OH2 2036   3.855   5.127   2.980
  677TIP3    H1 2037   3.916   5.153   2.911
  677TIP3    H2 2038   3.865   5.194   3.047
  678TIP3   OH2 2039   3.190   2.965   0.020
  678TIP3    H1 2040   3.188   3.059   0.006
  678TIP3    H2 2041   3.108   2.933  -0.019
  679TIP3   OH2 2042   0.760   5.644   0.882
  679TIP3    H1 2043   0.805   5.695   0.814
  679TIP3    H2 2044   0.671   5.680   0.884
  680TIP3   OH2 2045   6.261   4.571   1.112
  680TIP3    H1 2046   6.327   4.615   1.058
  680TIP3    H2 2047   6.205   4.642   1.144
  681TIP3   OH2 2048   2.564   4.182   2.028
  681TIP3    H1 2049   2.524   4.201   2.113
  681TIP3    H2 2050   2.491   4.182   1.967
  682TIP3   OH2 2051   1.859   2.089   3.844
  682TIP3    H1 2052   1.945   2.116   3.812
  682TIP3    H2 2053   1.846   2.140   3.924
  683TIP3   OH2 2054   1.630   3.383   3.091
  683TIP3    H1 2055   1.638   3.293   3.061
  683TIP3    H2 2056   1.618   3.434   3.011
  684TIP3   OH2 2057   3.073   0.858   1.288
  684TIP3    H1 2058   3.079   0.942   1.242
  684TIP3    H2 2059   3.129   0.799   1.238
  685TIP3   OH2 2060   6.040   5.989   4.562
  685TIP3    H1 2061   5.999   5.917   4.514
  685TIP3    H2 2062   5.968   6.041   4.596
  686TIP3   OH2 2063   4.670   5.351   0.533
  686TIP3    H1 2064   4.730   5.292   0.488
  686TIP3    H2 2065   4.724   5.428   0.555
  687TIP3   OH2 2066   1.052   2.970   0.564
  687TIP3    H1 2067   1.002   2.897   0.599
  687TIP3    H2 2068   1.127   2.978   0.623
  688TIP3   OH2 2069   0.840   1.803   4.701
  688TIP3    H1 2070   0.886   1.734   4.654
  688TIP3    H2 2071   0.881   1.804   4.788
  689TIP3   OH2 2072   1.848   3.885   3.079
  689TIP3    H1 2073   1.875   3.819   3.142
  689TIP3    H2 2074   1.825   3.962   3.132
  690TIP3   OH2 2075   0.922   2.684   0.472
  690TIP3    H1 2076   0.853   2.619   0.465
  690TIP3    H2 2077   0.928   2.703   0.565
  691TIP3   OH2 2078   5.003   4.511   0.007
  691TIP3    H1 2079   5.084   4.471  -0.025
  691TIP3    H2 2080   4.990   4.472   0.093
  692TIP3   OH2 2081   3.967   2.380   2.466
  692TIP3    H1 2082   3.935   2.361   2.554
  692TIP3    H2 2083   4.040   2.439   2.479
  693TIP3   OH2 2084   0.401   5.298   2.937
  693TIP3    H1 2085   0.479   5.317   2.886
  693TIP3    H2 2086   0.333   5.352   2.898
  694TIP3   OH2 2087   4.734   3.189   0.992
  694TIP3    H1 2088   4.791   3.220   1.063
  694TIP3    H2 2089   4.778   3.218   0.912
  695TIP3   OH2 2090   1.075   1.307   1.244
  695TIP3    H1 2091   1.090   1.263   1.327
  695TIP3    H2 2092   1.050   1.396   1.268
  696TIP3   OH2 2093   2.537   5.633   0.272
  696TIP3    H1 2094   2.590   5.709   0.296
  696TIP3    H2 2095   2.447   5.663   0.284
  697TIP3   OH2 2096   2.823   4.612   4.816
  697TIP3    H1 2097   2.837   4.695   4.861
  697TIP3    H2 2098   2.887   4.611   4.746
  698TIP3   OH2 2099   3.286   1.076   2.318
  698TIP3    H1 2100   3.232   1.041   2.246
  698TIP3    H2 2101   3.224   1.097   2.387
  699TIP3   OH2 2102   4.806   4.269   3.113
  699TIP3    H1 2103   4.874   4.230   3.168
  699TIP3    H2 2104   4.774   4.344   3.162
  700TIP3   OH2 2105   6.297   0.043   1.846
  700TIP3    H1 2106   6.271   0.093   1.769
  700TIP3    H2 2107   6.219   0.043   1.902
  701TIP3   OH2 2108   5.282   1.939   4.564
  701TIP3    H1 2109   5.187   1.951   4.569
  701TIP3    H2 2110   5.317   1.999   4.630
  702TIP3   OH2 2111   3.218   1.909   3.223
  702TIP3    H1 2112   3.248   1.826   3.185
  702TIP3    H2 2113   3.163   1.882   3.296
  703TIP3   OH2 2114   1.849   2.764   0.626
  703TIP3    H1 2115   1.771   2.795   0.580
  703TIP3    H2 2116   1.815   2.708   0.696
  704TIP3   OH2 2117   5.293   0.119   2.165
  704TIP3    H1 2118   5.205   0.088   2.143
  704TIP3    H2 2119   5.351   0.054   2.126
  705TIP3   OH2 2120   5.781   4.071   4.226
  705TIP3    H1 2121   5.708   4.131   4.244
  705TIP3    H2 2122   5.741   3.985   4.222
  706TIP3   OH2 2123   5.188   2.123   3.113
  706TIP3    H1 2124   5.217   2.052   3.170
  706TIP3    H2 2125   5.253   2.192   3.125
  707TIP3   OH2 2126   5.653   4.325   0.725
  707TIP3    H1 2127   5.663   4.416   0.698
  707TIP3    H2 2128   5.634   4.278   0.644
  708TIP3   OH2 2129   4.381   1.013   3.173
  708TIP3    H1 2130   4.430   1.087   3.209
  708TIP3    H2 2131   4.291   1.045   3.166
  709TIP3   OH2 2132   5.541   1.936   4.456
  709TIP3    H1 2133   5.553   2.008   4.394
  709TIP3    H2 2134   5.447   1.916   4.451
  710TIP3   OH2 2135   4.329   5.362   0.989
  710TIP3    H1 2136   4.344   5.313   1.069
  710TIP3    H2 2137   4.377   5.444   1.001
  711TIP3   OH2 2138   1.047   5.256   4.395
  711TIP3    H1 2139   1.030   5.349   4.384
  711TIP3    H2 2140   1.044   5.221   4.306
  712TIP3   OH2 2141   2.302   5.475   1.804
  712TIP3    H1 2142   2.221   5.430   1.779
  712TIP3    H2 2143   2.367   5.444   1.740
  713TIP3   OH2 2144   2.010   2.154   0.740
  713TIP3    H1 2145   2.005   2.152   0.645
  713TIP3    H2 2146   2.029   2.064   0.765
  714TIP3   OH2 2147   2.429   2.568   3.545
  714TIP3    H1 2148   2.465   2.641   3.596
  714TIP3    H2 2149   2.386   2.513   3.610
  715TIP3   OH2 2150   1.913   0.870   0.868
  715TIP3    H1 2151   1.980   0.817   0.824
  715TIP3    H2 2152   1.961   0.938   0.914
  716TIP3   OH2 2153   1.042   4.897   4.642
  716TIP3    H1 2154   1.002   4.818   4.605
  716TIP3    H2 2155   0.982   4.968   4.619
  717TIP3   OH2 2156   0.923   1.618   4.528
  717TIP3    H1 2157   0.922   1.639   4.435
  717TIP3    H2 2158   0.834   1.587   4.546
  718TIP3   OH2 2159   5.026   4.962   0.961
  718TIP3    H1 2160   4.969   5.037   0.983
  718TIP3    H2 2161   4.990   4.928   0.879
  719TIP3   OH2 2162   0.058   4.625   0.774
  719TIP3    H1 2163  -0.032   4.630   0.741
  719TIP3    H2 2164   0.084   4.716   0.789
  720TIP3   OH2 2165   4.349   3.077   1.471
  720TIP3    H1 2166   4.415   3.087   1.403
  720TIP3    H2 2167   4.361   3.152   1.529
  721TIP3   OH2 2168   5.491   4.045   1.866
  721TIP3    H1 2169   5.565   4.045   1.926
  721TIP3    H2 2170   5.439   3.969   1.892
  722TIP3   OH2 2171   0.673   3.197   2.652
  722TIP3    H1 2172   0.662   3.146   2.733
  722TIP3    H2 2173   0.711   3.280   2.681
  723TIP3   OH2 2174   0.105   5.836   4.861
  723TIP3    H1 2175   0.035   5.901   4.852
  723TIP3    H2 2176   0.149   5.860   4.942
  724TIP3   OH2 2177   3.884   5.562   3.043
  724TIP3    H1 2178   3.853   5.623   3.110
  724TIP3    H2 2179   3.940   5.501   3.091
  725TIP3   OH2 2180   1.580   5.015   0.566
  725TIP3    H1 2181   1.639   5.078   0.607
  725TIP3    H2 2182   1.629   4.933   0.565
  726TIP3   OH2 2183   2.830   5.150   1.888
  726TIP3    H1 2184   2.882   5.228   1.908
  726TIP3    H2 2185   2.770   5.178   1.818
  727TIP3   OH2 2186   2.005   0.286   1.574
  727TIP3    H1 2187   1.955   0.358   1.535
  727TIP3    H2 2188   2.048   0.325   1.650
  728TIP3   OH2 2189   6.042   2.127   2.971
  728TIP3    H1 2190   6.124   2.134   2.923
  728TIP3    H2 2191   5.986   2.195   2.933
  729TIP3   OH2 2192   2.099   1.327   3.513
  729TIP3    H1 2193   2.042   1.395   3.548
  729TIP3    H2 2194   2.185   1.369   3.506
  730TIP3   OH2 2195   0.723   4.879   2.384
  730TIP3    H1 2196   0.627   4.871   2.382
  730TIP3    H2 2197   0.754   4.789   2.376
  731TIP3   OH2 2198   2.881   4.668   2.072
  731TIP3    H1 2199   2.962   4.706   2.036
  731TIP3    H2 2200   2.846   4.614   2.000
  732TIP3   OH2 2201   1.347   0.289   4.473
  732TIP3    H1 2202   1.311   0.227   4.409
  732TIP3    H2 2203   1.271   0.321   4.521
  733TIP3   OH2 2204   6.160   4.509   0.418
  733TIP3    H1 2205   6.101   4.523   0.492
  733TIP3    H2 2206   6.223   4.581   0.425
  734TIP3   OH2 2207   4.449   0.009   3.590
  734TIP3    H1 2208   4.503   0.022   3.512
  734TIP3    H2 2209   4.460   0.089   3.640
  735TIP3   OH2 2210   4.934   2.170   2.293
  735TIP3    H1 2211   5.017   2.189   2.336
  735TIP3    H2 2212   4.956   2.108   2.224
  736TIP3   OH2 2213   4.063   4.737   4.643
  736TIP3    H1 2214   3.974   4.756   4.672
  736TIP3    H2 2215   4.095   4.671   4.705
  737TIP3   OH2 2216   4.007   4.271   4.130
  737TIP3    H1 2217   4.075   4.330   4.163
  737TIP3    H2 2218   3.952   4.254   4.206
  738TIP3   OH2 2219   2.281   0.296   4.349
  738TIP3    H1 2220   2.228   0.268   4.424
  738TIP3    H2 2221   2.355   0.236   4.349
  739TIP3   OH2 2222   4.448   5.322   0.410
  739TIP3    H1 2223   4.532   5.324   0.455
  739TIP3    H2 2224   4.383   5.334   0.480
  740TIP3   OH2 2225   1.195   2.616   1.169
  740TIP3    H1 2226   1.106   2.637   1.198
  740TIP3    H2 2227   1.201   2.521   1.176
  741TIP3   OH2 2228   3.972   1.277   2.701
  741TIP3    H1 2229   4.014   1.205   2.653
  741TIP3    H2 2230   4.030   1.294   2.775
  742TIP3   OH2 2231   4.810   0.483   4.748
  742TIP3    H1 2232   4.864   0.473   4.827
  742TIP3    H2 2233   4.870   0.466   4.676
  743TIP3   OH2 2234   6.373   5.191   2.520
  743TIP3    H1 2235   6.293   5.149   2.551
  743TIP3    H2 2236   6.395   5.145   2.439
  744TIP3   OH2 2237   4.933   0.215   1.606
  744TIP3    H1 2238   4.844   0.214   1.642
  744TIP3    H2 2239   4.974   0.136   1.641
  745TIP3   OH2 2240   5.888   1.836   2.053
  745TIP3    H1 2241   5.794   1.821   2.043
  745TIP3    H2 2242   5.898   1.860   2.145
  746TIP3   OH2 2243   4.019   1.236   4.892
  746TIP3    H1 2244   4.063   1.285   4.961
  746TIP3    H2 2245   3.925   1.251   4.907
  747TIP3   OH2 2246   1.233   5.251   2.166
  747TIP3    H1 2247   1.168   5.181   2.155
  747TIP3    H2 2248   1.297   5.235   2.097
  748TIP3   OH2 2249   3.721   4.035   0.150
  748TIP3    H1 2250   3.747   3.968   0.088
  748TIP3    H2 2251   3.662   4.092   0.100
  749TIP3   OH2 2252   3.747   3.689   1.010
  749TIP3    H1 2253   3.758   3.659   1.100
  749TIP3    H2 2254   3.700   3.772   1.018
  750TIP3   OH2 2255   4.082   3.289   2.435
  750TIP3    H1 2256   4.174   3.270   2.452
  750TIP3    H2 2257   4.053   3.337   2.512
  751TIP3   OH2 2258   5.023   3.214   3.749
  751TIP3    H1 2259   5.023   3.165   3.832
  751TIP3    H2 2260   4.991   3.301   3.772
  752TIP3   OH2 2261   5.941   5.221   0.349
  752TIP3    H1 2262   5.928   5.288   0.282
  752TIP3    H2 2263   5.853   5.202   0.380
  753TIP3   OH2 2264   1.524   0.924   1.120
  753TIP3    H1 2265   1.485   0.844   1.087
  753TIP3    H2 2266   1.616   0.920   1.093
  754TIP3   OH2 2267   0.772   5.862   2.024
  754TIP3    H1 2268   0.827   5.797   2.067
  754TIP3    H2 2269   0.724   5.811   1.957
  755TIP3   OH2 2270   3.483   2.960   1.700
  755TIP3    H1 2271   3.472   2.940   1.607
  755TIP3    H2 2272   3.398   2.941   1.739
  756TIP3   OH2 2273   2.706   1.351   0.978
  756TIP3    H1 2274   2.649   1.422   0.951
  756TIP3    H2 2275   2.684   1.336   1.070
  757TIP3   OH2 2276   3.381   4.997   4.672
  757TIP3    H1 2277   3.306   4.971   4.618
  757TIP3    H2 2278   3.352   4.982   4.762
  758TIP3   OH2 2279   6.111   0.423   2.121
  758TIP3    H1 2280   6.080   0.443   2.033
  758TIP3    H2 2281   6.151   0.336   2.114
  759TIP3   OH2 2282  -0.012   1.211   2.205
  759TIP3    H1 2283   0.015   1.123   2.182
  759TIP3    H2 2284   0.056   1.268   2.169
  760TIP3   OH2 2285   0.271   4.817   4.508
  760TIP3    H1 2286   0.178   4.825   4.528
  760TIP3    H2 2287   0.274   4.792   4.415
  761TIP3   OH2 2288   0.716   2.761   2.355
  761TIP3    H1 2289   0.801   2.764   2.399
  761TIP3    H2 2290   0.676   2.845   2.376
  762TIP3   OH2 2291   5.764   0.450   3.338
  762TIP3    H1 2292   5.754   0.388   3.410
  762TIP3    H2 2293   5.843   0.499   3.359
  763TIP3   OH2 2294   2.723   2.623   4.380
  763TIP3    H1 2295   2.755   2.713   4.382
  763TIP3    H2 2296   2.800   2.569   4.400
  764TIP3   OH2 2297   1.683   1.810   4.490
  764TIP3    H1 2298   1.641   1.896   4.484
  764TIP3    H2 2299   1.682   1.776   4.400
  765TIP3   OH2 2300   5.544   0.014   0.126
  765TIP3    H1 2301   5.571   0.001   0.035
  765TIP3    H2 2302   5.457   0.052   0.120
  766TIP3   OH2 2303   5.524   0.704   1.596
  766TIP3    H1 2304   5.594   0.641   1.575
  766TIP3    H2 2305   5.443   0.659   1.571
  767TIP3   OH2 2306   5.958   3.628   2.606
  767TIP3    H1 2307   5.942   3.533   2.603
  767TIP3    H2 2308   6.036   3.637   2.661
  768TIP3   OH2 2309   4.968   4.313   1.281
  768TIP3    H1 2310   4.993   4.351   1.365
  768TIP3    H2 2311   5.021   4.361   1.217
  769TIP3   OH2 2312   1.018   3.026   3.785
  769TIP3    H1 2313   0.926   3.043   3.803
  769TIP3    H2 2314   1.055   3.112   3.764
  770TIP3   OH2 2315   1.482   1.592   3.852
  770TIP3    H1 2316   1.551   1.657   3.869
  770TIP3    H2 2317   1.520   1.535   3.785
  771TIP3   OH2 2318   1.683   4.743   4.590
  771TIP3    H1 2319   1.630   4.666   4.611
  771TIP3    H2 2320   1.773   4.711   4.588
  772TIP3   OH2 2321   3.088   3.096   4.262
  772TIP3    H1 2322   3.184   3.095   4.261
  772TIP3    H2 2323   3.065   3.189   4.255
  773TIP3   OH2 2324   6.182   0.379   2.880
  773TIP3    H1 2325   6.269   0.421   2.877
  773TIP3    H2 2326   6.162   0.375   2.974
  774TIP3   OH2 2327   1.966   2.613   1.296
  774TIP3    H1 2328   2.048   2.660   1.287
  774TIP3    H2 2329   1.954   2.602   1.390
  775TIP3   OH2 2330   5.982   3.916   3.098
  775TIP3    H1 2331   5.962   3.966   3.019
  775TIP3    H2 2332   5.898   3.909   3.144
  776TIP3   OH2 2333   3.366   5.744   0.213
  776TIP3    H1 2334   3.392   5.835   0.230
  776TIP3    H2 2335   3.272   5.750   0.193
  777TIP3   OH2 2336   1.808   0.449   3.877
  777TIP3    H1 2337   1.811   0.403   3.794
  777TIP3    H2 2338   1.896   0.439   3.913
  778TIP3   OH2 2339   5.306   0.488   0.009
  778TIP3    H1 2340   5.262   0.459  -0.071
  778TIP3    H2 2341   5.373   0.421   0.025
  779TIP3   OH2 2342   6.176   5.593   3.525
  779TIP3    H1 2343   6.130   5.539   3.460
  779TIP3    H2 2344   6.111   5.608   3.594
  780TIP3   OH2 2345   3.839   4.191   3.231
  780TIP3    H1 2346   3.797   4.261   3.180
  780TIP3    H2 2347   3.875   4.236   3.307
  781TIP3   OH2 2348   0.270   4.410   3.085
  781TIP3    H1 2349   0.228   4.469   3.148
  781TIP3    H2 2350   0.208   4.338   3.074
  782TIP3   OH2 2351   1.251   5.094   3.151
  782TIP3    H1 2352   1.224   5.091   3.242
  782TIP3    H2 2353   1.216   5.013   3.113
  783TIP3   OH2 2354   2.036   2.320   2.627
  783TIP3    H1 2355   1.982   2.349   2.553
  783TIP3    H2 2356   2.052   2.227   2.612
  784TIP3   OH2 2357   2.057   3.376   1.813
  784TIP3    H1 2358   1.990   3.316   1.780
  784TIP3    H2 2359   2.010   3.437   1.870
  785TIP3   OH2 2360   4.934   5.943   0.116
  785TIP3    H1 2361   4.881   6.002   0.062
  785TIP3    H2 2362   4.898   5.953   0.204
  786TIP3   OH2 2363   3.229   3.134   5.165
  786TIP3    H1 2364   3.310   3.181   5.185
  786TIP3    H2 2365   3.256   3.042   5.161
  787TIP3   OH2 2366   4.970   5.373   4.019
  787TIP3    H1 2367   4.990   5.466   4.023
  787TIP3    H2 2368   4.922   5.355   4.099
  788TIP3   OH2 2369   2.184   3.025   2.551
  788TIP3    H1 2370   2.208   2.970   2.625
  788TIP3    H2 2371   2.130   2.968   2.495
  789TIP3   OH2 2372   1.346   3.504   4.123
  789TIP3    H1 2373   1.363   3.413   4.145
  789TIP3    H2 2374   1.347   3.506   4.027
  790TIP3   OH2 2375   2.220   4.721   4.476
  790TIP3    H1 2376   2.220   4.728   4.380
  790TIP3    H2 2377   2.302   4.676   4.496
  791TIP3   OH2 2378   1.112   0.389   4.957
  791TIP3    H1 2379   1.132   0.482   4.972
  791TIP3    H2 2380   1.197   0.349   4.940
  792TIP3   OH2 2381   6.205   2.823   2.341
  792TIP3    H1 2382   6.137   2.881   2.376
  792TIP3    H2 2383   6.287   2.859   2.375
  793TIP3   OH2 2384   0.408   0.002   0.723
  793TIP3    H1 2385   0.323  -0.022   0.687
  793TIP3    H2 2386   0.398  -0.006   0.818
  794TIP3   OH2 2387   1.221   4.748   4.191
  794TIP3    H1 2388   1.200   4.685   4.260
  794TIP3    H2 2389   1.286   4.703   4.137
  795TIP3   OH2 2390   2.202   1.592   3.476
  795TIP3    H1 2391   2.133   1.651   3.506
  795TIP3    H2 2392   2.261   1.583   3.551
  796TIP3   OH2 2393   5.046   3.210   1.435
  796TIP3    H1 2394   4.997   3.161   1.501
  796TIP3    H2 2395   5.125   3.158   1.419
  797TIP3   OH2 2396   0.597   3.921   2.660
  797TIP3    H1 2397   0.503   3.903   2.669
  797TIP3    H2 2398   0.604   3.975   2.581
  798TIP3   OH2 2399   3.555   3.509   3.824
  798TIP3    H1 2400   3.544   3.447   3.896
  798TIP3    H2 2401   3.620   3.571   3.856
  799TIP3   OH2 2402   3.402   5.193   1.192
  799TIP3    H1 2403   3.325   5.230   1.150
  799TIP3    H2 2404   3.368   5.142   1.265
  800TIP3   OH2 2405   4.548   1.154   4.302
  800TIP3    H1 2406   4.454   1.139   4.287
  800TIP3    H2 2407   4.551   1.217   4.374
  801TIP3   OH2 2408   5.265   2.802   1.552
  801TIP3    H1 2409   5.200   2.771   1.615
  801TIP3    H2 2410   5.293   2.722   1.507
  802TIP3   OH2 2411   3.406   5.807   4.518
  802TIP3    H1 2412   3.337   5.803   4.451
  802TIP3    H2 2413   3.417   5.900   4.537
  803TIP3   OH2 2414   2.097   1.688   4.587
  803TIP3    H1 2415   2.098   1.692   4.492
  803TIP3    H2 2416   2.151   1.612   4.609
  804TIP3   OH2 2417   1.253   3.654   2.619
  804TIP3    H1 2418   1.261   3.626   2.710
  804TIP3    H2 2419   1.342   3.682   2.595
  805TIP3   OH2 2420   3.047   0.315   3.326
  805TIP3    H1 2421   3.005   0.373   3.390
  805TIP3    H2 2422   3.070   0.373   3.253
  806TIP3   OH2 2423   6.110   1.332   1.069
  806TIP3    H1 2424   6.093   1.277   0.993
  806TIP3    H2 2425   6.145   1.413   1.033
  807TIP3   OH2 2426   4.368   1.441   3.811
  807TIP3    H1 2427   4.294   1.478   3.762
  807TIP3    H2 2428   4.335   1.357   3.843
  808TIP3   OH2 2429   5.289   5.273   0.262
  808TIP3    H1 2430   5.257   5.234   0.180
  808TIP3    H2 2431   5.310   5.199   0.318
  809TIP3   OH2 2432   3.986   0.711   3.664
  809TIP3    H1 2433   3.909   0.664   3.697
  809TIP3    H2 2434   4.044   0.717   3.740
  810TIP3   OH2 2435   3.323   0.856   1.558
  810TIP3    H1 2436   3.399   0.891   1.606
  810TIP3    H2 2437   3.247   0.891   1.605
  811TIP3   OH2 2438   2.022   0.247   4.769
  811TIP3    H1 2439   2.053   0.268   4.857
  811TIP3    H2 2440   1.979   0.326   4.739
  812TIP3   OH2 2441   1.734   2.380   4.488
  812TIP3    H1 2442   1.671   2.413   4.424
  812TIP3    H2 2443   1.736   2.447   4.556
  813TIP3   OH2 2444   6.335   5.236   3.952
  813TIP3    H1 2445   6.288   5.274   3.878
  813TIP3    H2 2446   6.381   5.161   3.916
  814TIP3   OH2 2447   3.709   4.012   1.376
  814TIP3    H1 2448   3.677   4.097   1.408
  814TIP3    H2 2449   3.710   3.957   1.454
  815TIP3   OH2 2450   1.559   0.739   0.105
  815TIP3    H1 2451   1.556   0.644   0.093
  815TIP3    H2 2452   1.477   0.760   0.150
  816TIP3   OH2 2453   5.113   2.063   4.031
  816TIP3    H1 2454   5.032   2.087   3.986
  816TIP3    H2 2455   5.174   2.043   3.961
  817TIP3   OH2 2456   4.457   0.362   2.805
  817TIP3    H1 2457   4.470   0.323   2.719
  817TIP3    H2 2458   4.382   0.316   2.842
  818TIP3   OH2 2459   6.087   3.743   1.184
  818TIP3    H1 2460   6.131   3.795   1.117
  818TIP3    H2 2461   6.066   3.660   1.140
  819TIP3   OH2 2462   3.647   5.526   4.956
  819TIP3    H1 2463   3.580   5.525   5.025
  819TIP3    H2 2464   3.667   5.433   4.942
  820TIP3   OH2 2465   6.019   2.760   1.852
  820TIP3    H1 2466   6.113   2.777   1.857
  820TIP3    H2 2467   6.010   2.666   1.871
  821TIP3   OH2 2468   4.942   3.777   0.541
  821TIP3    H1 2469   4.855   3.774   0.502
  821TIP3    H2 2470   4.952   3.693   0.585
  822TIP3   OH2 2471   2.781   1.741   1.235
  822TIP3    H1 2472   2.839   1.809   1.203
  822TIP3    H2 2473   2.837   1.683   1.287
  823TIP3   OH2 2474   3.227   0.814   3.014
  823TIP3    H1 2475   3.274   0.754   2.955
  823TIP3    H2 2476   3.295   0.874   3.045
  824TIP3   OH2 2477   2.115   3.308   1.303
  824TIP3    H1 2478   2.065   3.255   1.365
  824TIP3    H2 2479   2.203   3.273   1.307
  825TIP3   OH2 2480   0.189   4.806   0.979
  825TIP3    H1 2481   0.257   4.775   0.919
  825TIP3    H2 2482   0.140   4.871   0.929
  826TIP3   OH2 2483   2.831   0.726   3.766
  826TIP3    H1 2484   2.862   0.802   3.815
  826TIP3    H2 2485   2.896   0.714   3.697
  827TIP3   OH2 2486   5.442   4.599   4.810
  827TIP3    H1 2487   5.392   4.569   4.734
  827TIP3    H2 2488   5.484   4.519   4.844
  828TIP3   OH2 2489   3.748   2.583   3.763
  828TIP3    H1 2490   3.741   2.646   3.836
  828TIP3    H2 2491   3.695   2.622   3.693
  829TIP3   OH2 2492   1.830   4.500   0.594
  829TIP3    H1 2493   1.776   4.529   0.520
  829TIP3    H2 2494   1.772   4.506   0.670
  830TIP3   OH2 2495   0.367   3.195   1.912
  830TIP3    H1 2496   0.345   3.263   1.976
  830TIP3    H2 2497   0.282   3.166   1.878
  831TIP3   OH2 2498   4.663   5.659   2.177
  831TIP3    H1 2499   4.756   5.675   2.194
  831TIP3    H2 2500   4.637   5.595   2.243
  832TIP3   OH2 2501   0.254   4.639   5.032
  832TIP3    H1 2502   0.329   4.587   5.061
  832TIP3    H2 2503   0.245   4.708   5.098
  833TIP3   OH2 2504   2.558   2.178   0.946
  833TIP3    H1 2505   2.636   2.135   0.910
  833TIP3    H2 2506   2.586   2.208   1.033
  834TIP3   OH2 2507   2.709   2.512   1.896
  834TIP3    H1 2508   2.631   2.482   1.943
  834TIP3    H2 2509   2.685   2.598   1.861
  835TIP3   OH2 2510   5.949   0.437   3.554
  835TIP3    H1 2511   5.987   0.357   3.519
  835TIP3    H2 2512   5.891   0.408   3.625
  836TIP3   OH2 2513   1.994   5.860   0.196
  836TIP3    H1 2514   2.068   5.910   0.233
  836TIP3    H2 2515   2.021   5.840   0.107
  837TIP3   OH2 2516   5.715   1.663   2.433
  837TIP3    H1 2517   5.654   1.717   2.382
  837TIP3    H2 2518   5.662   1.629   2.505
  838TIP3   OH2 2519   5.546   5.969   2.176
  838TIP3    H1 2520   5.533   5.965   2.081
  838TIP3    H2 2521   5.639   5.947   2.188
  839TIP3   OH2 2522   3.968   1.675   3.214
  839TIP3    H1 2523   4.011   1.696   3.297
  839TIP3    H2 2524   4.037   1.688   3.148
  840TIP3   OH2 2525   3.473   1.508   3.214
  840TIP3    H1 2526   3.435   1.442   3.156
  840TIP3    H2 2527   3.555   1.533   3.172
  841TIP3   OH2 2528   1.261   1.363   0.920
  841TIP3    H1 2529   1.349   1.333   0.896
  841TIP3    H2 2530   1.274   1.407   1.005
  842TIP3   OH2 2531   5.645   2.019   4.726
  842TIP3    H1 2532   5.594   2.045   4.650
  842TIP3    H2 2533   5.736   2.034   4.701
  843TIP3   OH2 2534   4.569   2.972   4.708
  843TIP3    H1 2535   4.495   3.032   4.704
  843TIP3    H2 2536   4.630   3.005   4.642
  844TIP3   OH2 2537   2.280   1.542   1.211
  844TIP3    H1 2538   2.228   1.608   1.256
  844TIP3    H2 2539   2.370   1.565   1.231
  845TIP3   OH2 2540   3.351   0.215   3.890
  845TIP3    H1 2541   3.279   0.276   3.874
  845TIP3    H2 2542   3.398   0.252   3.964
  846TIP3   OH2 2543   1.009   5.877   1.424
  846TIP3    H1 2544   1.041   5.960   1.459
  846TIP3    H2 2545   1.047   5.810   1.481
  847TIP3   OH2 2546   3.109   3.571   0.245
  847TIP3    H1 2547   3.030   3.593   0.195
  847TIP3    H2 2548   3.182   3.594   0.187
  848TIP3   OH2 2549   1.962   3.895   0.359
  848TIP3    H1 2550   1.908   3.903   0.438
  848TIP3    H2 2551   2.024   3.968   0.365
  849TIP3   OH2 2552   1.099   4.802   0.564
  849TIP3    H1 2553   1.135   4.852   0.637
  849TIP3    H2 2554   1.175   4.783   0.508
  850TIP3   OH2 2555   5.965   4.139   0.124
  850TIP3    H1 2556   5.993   4.074   0.060
  850TIP3    H2 2557   5.963   4.222   0.077
  851TIP3   OH2 2558   0.312   2.430   1.697
  851TIP3    H1 2559   0.375   2.490   1.737
  851TIP3    H2 2560   0.226   2.470   1.713
  852TIP3   OH2 2561   1.644   2.626   4.921
  852TIP3    H1 2562   1.690   2.555   4.965
  852TIP3    H2 2563   1.553   2.619   4.952
  853TIP3   OH2 2564   1.966   1.826   1.489
  853TIP3    H1 2565   1.873   1.808   1.503
  853TIP3    H2 2566   1.969   1.916   1.459
  854TIP3   OH2 2567   3.694   4.039   4.336
  854TIP3    H1 2568   3.601   4.045   4.312
  854TIP3    H2 2569   3.692   4.020   4.430
  855TIP3   OH2 2570   2.424   5.414   0.764
  855TIP3    H1 2571   2.405   5.332   0.718
  855TIP3    H2 2572   2.517   5.431   0.747
  856TIP3   OH2 2573   5.085   4.673   0.195
  856TIP3    H1 2574   5.131   4.750   0.160
  856TIP3    H2 2575   5.040   4.635   0.120
  857TIP3   OH2 2576   5.699   3.160   3.762
  857TIP3    H1 2577   5.723   3.243   3.802
  857TIP3    H2 2578   5.740   3.162   3.675
  858TIP3   OH2 2579   5.262   1.905   3.269
  858TIP3    H1 2580   5.238   1.963   3.341
  858TIP3    H2 2581   5.249   1.817   3.304
  859TIP3   OH2 2582   1.298   1.469   1.168
  859TIP3    H1 2583   1.203   1.461   1.180
  859TIP3    H2 2584   1.319   1.555   1.206
  860TIP3   OH2 2585   0.951   3.717   5.130
  860TIP3    H1 2586   0.947   3.634   5.178
  860TIP3    H2 2587   0.924   3.695   5.041
  861TIP3   OH2 2588   1.241   4.589   2.064
  861TIP3    H1 2589   1.265   4.500   2.090
  861TIP3    H2 2590   1.225   4.583   1.970
  862TIP3   OH2 2591   5.668   4.345   1.251
  862TIP3    H1 2592   5.626   4.357   1.165
  862TIP3    H2 2593   5.614   4.280   1.295
  863TIP3   OH2 2594   1.707   3.331   2.801
  863TIP3    H1 2595   1.787   3.329   2.854
  863TIP3    H2 2596   1.662   3.249   2.821
  864TIP3   OH2 2597   0.126   5.681   0.256
  864TIP3    H1 2598   0.054   5.710   0.311
  864TIP3    H2 2599   0.090   5.681   0.167
  865TIP3   OH2 2600   3.692   3.639   0.178
  865TIP3    H1 2601   3.610   3.680   0.205
  865TIP3    H2 2602   3.665   3.558   0.134
  866TIP3   OH2 2603   2.676   3.288   2.756
  866TIP3    H1 2604   2.597   3.250   2.795
  866TIP3    H2 2605   2.709   3.220   2.697
  867TIP3   OH2 2606   4.080   1.431   3.363
  867TIP3    H1 2607   4.123   1.374   3.427
  867TIP3    H2 2608   4.140   1.434   3.289
  868TIP3   OH2 2609   0.169   2.317   0.921
  868TIP3    H1 2610   0.137   2.393   0.968
  868TIP3    H2 2611   0.095   2.257   0.918
  869TIP3   OH2 2612   3.802   4.780   0.224
  869TIP3    H1 2613   3.776   4.825   0.144
  869TIP3    H2 2614   3.869   4.717   0.195
  870TIP3   OH2 2615   1.466   0.566   5.021
  870TIP3    H1 2616   1.492   0.513   5.096
  870TIP3    H2 2617   1.477   0.508   4.945
  871TIP3   OH2 2618   1.656   2.774   0.027
  871TIP3    H1 2619   1.565   2.789   0.005
  871TIP3    H2 2620   1.656   2.693   0.078
  872TIP3   OH2 2621   6.061   1.568   5.067
  872TIP3    H1 2622   6.090   1.528   4.985
  872TIP3    H2 2623   6.020   1.651   5.041
  873TIP3   OH2 2624   5.844   4.091   3.943
  873TIP3    H1 2625   5.824   4.093   4.037
  873TIP3    H2 2626   5.763   4.117   3.900
  874TIP3   OH2 2627   6.253   5.469   4.167
  874TIP3    H1 2628   6.232   5.457   4.075
  874TIP3    H2 2629   6.203   5.546   4.193
  875TIP3   OH2 2630   5.483   5.200   3.227
  875TIP3    H1 2631   5.403   5.241   3.261
  875TIP3    H2 2632   5.533   5.178   3.305
  876TIP3   OH2 2633   1.814   2.902   1.213
  876TIP3    H1 2634   1.817   2.894   1.118
  876TIP3    H2 2635   1.905   2.898   1.240
  877TIP3   OH2 2636   4.790   4.062   0.381
  877TIP3    H1 2637   4.870   4.097   0.343
  877TIP3    H2 2638   4.755   4.133   0.435
  878TIP3   OH2 2639   2.456   4.306   2.678
  878TIP3    H1 2640   2.383   4.247   2.696
  878TIP3    H2 2641   2.495   4.271   2.598
  879TIP3   OH2 2642   5.150   4.730   1.086
  879TIP3    H1 2643   5.116   4.792   1.022
  879TIP3    H2 2644   5.208   4.782   1.142
  880TIP3   OH2 2645   2.863   0.123   3.802
  880TIP3    H1 2646   2.905   0.154   3.721
  880TIP3    H2 2647   2.782   0.083   3.772
  881TIP3   OH2 2648   1.110   5.715   0.907
  881TIP3    H1 2649   1.149   5.715   0.820
  881TIP3    H2 2650   1.077   5.625   0.919
  882TIP3   OH2 2651   5.816   2.645   1.445
  882TIP3    H1 2652   5.760   2.721   1.429
  882TIP3    H2 2653   5.816   2.597   1.363
  883TIP3   OH2 2654   3.761   0.706   4.268
  883TIP3    H1 2655   3.706   0.783   4.287
  883TIP3    H2 2656   3.718   0.634   4.315
  884TIP3   OH2 2657   4.602   3.149   0.011
  884TIP3    H1 2658   4.518   3.167   0.052
  884TIP3    H2 2659   4.644   3.084   0.068
  885TIP3   OH2 2660   0.818   0.717   3.269
  885TIP3    H1 2661   0.816   0.765   3.186
  885TIP3    H2 2662   0.781   0.778   3.333
  886TIP3   OH2 2663   3.112   2.442   2.307
  886TIP3    H1 2664   3.187   2.496   2.279
  886TIP3    H2 2665   3.144   2.352   2.300
  887TIP3   OH2 2666   2.873   1.859   2.752
  887TIP3    H1 2667   2.934   1.912   2.700
  887TIP3    H2 2668   2.925   1.785   2.782
  888TIP3   OH2 2669   5.067   4.874   3.089
  888TIP3    H1 2670   5.004   4.880   3.160
  888TIP3    H2 2671   5.128   4.806   3.117
  889TIP3   OH2 2672   2.539   4.941   2.743
  889TIP3    H1 2673   2.500   4.861   2.707
  889TIP3    H2 2674   2.495   5.012   2.696
  890TIP3   OH2 2675   4.208   0.600   5.155
  890TIP3    H1 2676   4.152   0.673   5.182
  890TIP3    H2 2677   4.273   0.592   5.225
  891TIP3   OH2 2678   3.660   3.540   3.027
  891TIP3    H1 2679   3.648   3.455   3.069
  891TIP3    H2 2680   3.623   3.603   3.089
  892TIP3   OH2 2681   3.587   1.547   1.486
  892TIP3    H1 2682   3.528   1.545   1.561
  892TIP3    H2 2683   3.619   1.457   1.478
  893TIP3   OH2 2684   3.281   0.160   0.826
  893TIP3    H1 2685   3.230   0.113   0.892
  893TIP3    H2 2686   3.272   0.107   0.746
  894TIP3   OH2 2687   5.666   0.910   0.334
  894TIP3    H1 2688   5.708   0.894   0.419
  894TIP3    H2 2689   5.690   0.999   0.312
  895TIP3   OH2 2690   0.107   2.071   0.535
  895TIP3    H1 2691   0.192   2.073   0.492
  895TIP3    H2 2692   0.127   2.066   0.629
  896TIP3   OH2 2693   4.750   0.629   4.461
  896TIP3    H1 2694   4.659   0.613   4.484
  896TIP3    H2 2695   4.770   0.715   4.499
  897TIP3   OH2 2696   2.563   1.846   1.854
  897TIP3    H1 2697   2.603   1.891   1.779
  897TIP3    H2 2698   2.491   1.796   1.816
  898TIP3   OH2 2699   2.500   4.746   3.683
  898TIP3    H1 2700   2.551   4.817   3.722
  898TIP3    H2 2701   2.414   4.784   3.668
  899TIP3   OH2 2702   3.731   0.174   1.804
  899TIP3    H1 2703   3.691   0.220   1.877
  899TIP3    H2 2704   3.791   0.111   1.845
  900TIP3   OH2 2705   2.789   4.949   0.333
  900TIP3    H1 2706   2.793   4.875   0.394
  900TIP3    H2 2707   2.765   4.910   0.249
  901TIP3   OH2 2708   3.040   2.233   1.054
  901TIP3    H1 2709   3.046   2.329   1.050
  901TIP3    H2 2710   3.096   2.207   1.126
  902TIP3   OH2 2711   0.939   5.936   3.890
  902TIP3    H1 2712   0.910   6.014   3.843
  902TIP3    H2 2713   0.880   5.867   3.860
  903TIP3   OH2 2714   3.896   2.119   4.206
  903TIP3    H1 2715   3.867   2.205   4.236
  903TIP3    H2 2716   3.950   2.138   4.129
  904TIP3   OH2 2717   0.119   3.589   4.845
  904TIP3    H1 2718   0.190   3.550   4.896
  904TIP3    H2 2719   0.092   3.665   4.896
  905TIP3   OH2 2720   6.282   2.310   2.192
  905TIP3    H1 2721   6.223   2.385   2.183
  905TIP3    H2 2722   6.319   2.319   2.280
  906TIP3   OH2 2723   2.706   5.119   1.162
  906TIP3    H1 2724   2.743   5.031   1.150
  906TIP3    H2 2725   2.735   5.168   1.085
  907TIP3   OH2 2726   4.633   2.191   4.189
  907TIP3    H1 2727   4.540   2.206   4.203
  907TIP3    H2 2728   4.648   2.215   4.098
  908TIP3   OH2 2729   3.797   5.749   2.846
  908TIP3    H1 2730   3.811   5.830   2.894
  908TIP3    H2 2731   3.806   5.679   2.911
  909TIP3   OH2 2732   3.871   2.823   2.262
  909TIP3    H1 2733   3.925   2.862   2.330
  909TIP3    H2 2734   3.857   2.733   2.290
  910TIP3   OH2 2735   0.381   5.034   1.125
  910TIP3    H1 2736   0.347   4.946   1.109
  910TIP3    H2 2737   0.315   5.093   1.091
  911TIP3   OH2 2738   1.324   4.240   2.349
  911TIP3    H1 2739   1.256   4.231   2.416
  911TIP3    H2 2740   1.350   4.332   2.355
  912TIP3   OH2 2741   6.000   4.352   1.267
  912TIP3    H1 2742   6.021   4.414   1.198
  912TIP3    H2 2743   5.912   4.321   1.246
  913TIP3   OH2 2744   6.193   5.253   1.350
  913TIP3    H1 2745   6.134   5.180   1.372
  913TIP3    H2 2746   6.141   5.307   1.290
  914TIP3   OH2 2747   2.460   5.337   2.688
  914TIP3    H1 2748   2.390   5.271   2.687
  914TIP3    H2 2749   2.446   5.385   2.770
  915TIP3   OH2 2750   4.106   0.762   0.632
  915TIP3    H1 2751   4.181   0.821   0.623
  915TIP3    H2 2752   4.112   0.729   0.721
  916TIP3   OH2 2753   5.285   0.989   0.656
  916TIP3    H1 2754   5.371   0.949   0.640
  916TIP3    H2 2755   5.295   1.079   0.626
  917TIP3   OH2 2756   4.129   2.051   1.951
  917TIP3    H1 2757   4.170   2.036   1.867
  917TIP3    H2 2758   4.149   2.142   1.972
  918TIP3   OH2 2759   1.336   0.009   3.048
  918TIP3    H1 2760   1.303  -0.016   3.134
  918TIP3    H2 2761   1.413   0.063   3.067
  919TIP3   OH2 2762   1.919   1.322   4.099
  919TIP3    H1 2763   1.906   1.370   4.181
  919TIP3    H2 2764   1.832   1.319   4.059
  920TIP3   OH2 2765   0.589   2.087   3.941
  920TIP3    H1 2766   0.560   2.055   4.026
  920TIP3    H2 2767   0.531   2.160   3.921
  921TIP3   OH2 2768   5.492   0.060   1.683
  921TIP3    H1 2769   5.505   0.129   1.618
  921TIP3    H2 2770   5.421   0.092   1.739
  922TIP3   OH2 2771   4.562   1.388   4.935
  922TIP3    H1 2772   4.565   1.390   5.030
  922TIP3    H2 2773   4.634   1.444   4.907
  923TIP3   OH2 2774   3.974   5.949   2.313
  923TIP3    H1 2775   3.909   5.958   2.382
  923TIP3    H2 2776   3.967   5.857   2.285
  924TIP3   OH2 2777   4.819   4.567   2.448
  924TIP3    H1 2778   4.761   4.491   2.453
  924TIP3    H2 2779   4.831   4.581   2.354
  925TIP3   OH2 2780   0.541   2.839   4.975
  925TIP3    H1 2781   0.539   2.780   5.050
  925TIP3    H2 2782   0.605   2.799   4.916
  926TIP3   OH2 2783   5.271   4.401   3.656
  926TIP3    H1 2784   5.253   4.456   3.580
  926TIP3    H2 2785   5.216   4.323   3.642
  927TIP3   OH2 2786   5.361   3.132   2.358
  927TIP3    H1 2787   5.360   3.084   2.275
  927TIP3    H2 2788   5.280   3.104   2.402
  928TIP3   OH2 2789   5.567   5.126   2.410
  928TIP3    H1 2790   5.581   5.045   2.459
  928TIP3    H2 2791   5.474   5.145   2.421
  929TIP3   OH2 2792   1.403   4.934   2.432
  929TIP3    H1 2793   1.396   4.852   2.481
  929TIP3    H2 2794   1.384   4.910   2.341
  930TIP3   OH2 2795   5.130   2.347   1.649
  930TIP3    H1 2796   5.057   2.346   1.586
  930TIP3    H2 2797   5.198   2.399   1.605
  931TIP3   OH2 2798   3.258   5.575   4.943
  931TIP3    H1 2799   3.286   5.581   5.034
  931TIP3    H2 2800   3.291   5.490   4.913
  932TIP3   OH2 2801   4.288   1.747   3.204
  932TIP3    H1 2802   4.247   1.833   3.218
  932TIP3    H2 2803   4.381   1.763   3.222
  933TIP3   OH2 2804   4.904   1.191   0.957
  933TIP3    H1 2805   4.938   1.120   0.902
  933TIP3    H2 2806   4.919   1.161   1.047
  934TIP3   OH2 2807   2.372   3.733   2.175
  934TIP3    H1 2808   2.284   3.698   2.193
  934TIP3    H2 2809   2.360   3.828   2.173
  935TIP3   OH2 2810   2.235   3.455   5.117
  935TIP3    H1 2811   2.235   3.463   5.022
  935TIP3    H2 2812   2.163   3.395   5.137
  936TIP3   OH2 2813   4.541   1.753   1.576
  936TIP3    H1 2814   4.571   1.794   1.657
  936TIP3    H2 2815   4.613   1.765   1.514
  937TIP3   OH2 2816   0.556   2.338   4.792
  937TIP3    H1 2817   0.515   2.254   4.813
  937TIP3    H2 2818   0.621   2.351   4.861
  938TIP3   OH2 2819   4.411   2.708   0.748
  938TIP3    H1 2820   4.328   2.670   0.778
  938TIP3    H2 2821   4.465   2.714   0.826
  939TIP3   OH2 2822   2.589   5.642   4.506
  939TIP3    H1 2823   2.499   5.610   4.508
  939TIP3    H2 2824   2.586   5.727   4.549
  940TIP3   OH2 2825   4.846   2.845   3.232
  940TIP3    H1 2826   4.754   2.831   3.211
  940TIP3    H2 2827   4.877   2.761   3.266
  941TIP3   OH2 2828   2.608   4.110   4.524
  941TIP3    H1 2829   2.591   4.183   4.583
  941TIP3    H2 2830   2.525   4.096   4.479
  942TIP3   OH2 2831   5.329   2.865   4.243
  942TIP3    H1 2832   5.255   2.806   4.229
  942TIP3    H2 2833   5.380   2.860   4.163
  943TIP3   OH2 2834   3.172   1.788   2.876
  943TIP3    H1 2835   3.198   1.875   2.907
  943TIP3    H2 2836   3.237   1.767   2.809
  944TIP3   OH2 2837   2.986   4.539   3.563
  944TIP3    H1 2838   3.060   4.479   3.568
  944TIP3    H2 2839   2.960   4.537   3.471
  945TIP3   OH2 2840   1.153   1.111   4.743
  945TIP3    H1 2841   1.154   1.105   4.648
  945TIP3    H2 2842   1.069   1.152   4.764
  946TIP3   OH2 2843   3.909   4.297   3.486
  946TIP3    H1 2844   3.917   4.390   3.461
  946TIP3    H2 2845   3.827   4.293   3.534
  947TIP3   OH2 2846   0.399   4.064   3.186
  947TIP3    H1 2847   0.425   3.973   3.199
  947TIP3    H2 2848   0.412   4.079   3.092
  948TIP3   OH2 2849   4.851   2.200   3.408
  948TIP3    H1 2850   4.900   2.233   3.333
  948TIP3    H2 2851   4.871   2.107   3.412
  949TIP3   OH2 2852   5.995   0.770   4.404
  949TIP3    H1 2853   6.065   0.821   4.445
  949TIP3    H2 2854   5.975   0.818   4.323
  950TIP3   OH2 2855   1.709   0.748   2.907
  950TIP3    H1 2856   1.759   0.756   2.989
  950TIP3    H2 2857   1.665   0.663   2.915
  951TIP3   OH2 2858   2.058   0.664   0.521
  951TIP3    H1 2859   2.035   0.588   0.468
  951TIP3    H2 2860   2.154   0.669   0.514
  952TIP3   OH2 2861   2.936   1.376   0.842
  952TIP3    H1 2862   2.946   1.464   0.876
  952TIP3    H2 2863   2.848   1.349   0.871
  953TIP3   OH2 2864   0.931   2.328   3.446
  953TIP3    H1 2865   0.956   2.237   3.464
  953TIP3    H2 2866   0.968   2.347   3.361
  954TIP3   OH2 2867   6.253   4.662   3.861
  954TIP3    H1 2868   6.243   4.571   3.834
  954TIP3    H2 2869   6.195   4.711   3.802
  955TIP3   OH2 2870   5.711   2.906   2.837
  955TIP3    H1 2871   5.640   2.896   2.900
  955TIP3    H2 2872   5.683   2.856   2.760
  956TIP3   OH2 2873   0.727   1.058   0.620
  956TIP3    H1 2874   0.661   1.001   0.580
  956TIP3    H2 2875   0.809   1.009   0.612
  957TIP3   OH2 2876   1.958   0.317   0.944
  957TIP3    H1 2877   1.914   0.308   0.860
  957TIP3    H2 2878   2.050   0.330   0.921
  958TIP3   OH2 2879   3.428   1.088   3.812
  958TIP3    H1 2880   3.439   1.148   3.739
  958TIP3    H2 2881   3.452   1.138   3.890
  959TIP3   OH2 2882   4.793   4.331   3.691
  959TIP3    H1 2883   4.817   4.422   3.706
  959TIP3    H2 2884   4.712   4.335   3.640
  960TIP3   OH2 2885   5.914   1.591   1.950
  960TIP3    H1 2886   5.941   1.613   1.861
  960TIP3    H2 2887   5.928   1.672   2.000
  961TIP3   OH2 2888   4.462   0.632   4.539
  961TIP3    H1 2889   4.434   0.603   4.626
  961TIP3    H2 2890   4.395   0.598   4.480
  962TIP3   OH2 2891   1.517   2.222   1.368
  962TIP3    H1 2892   1.451   2.243   1.302
  962TIP3    H2 2893   1.600   2.255   1.332
  963TIP3   OH2 2894   3.559   4.682   4.378
  963TIP3    H1 2895   3.466   4.683   4.353
  963TIP3    H2 2896   3.563   4.738   4.456
  964TIP3   OH2 2897   6.358   0.093   1.281
  964TIP3    H1 2898   6.415   0.157   1.238
  964TIP3    H2 2899   6.277   0.142   1.299
  965TIP3   OH2 2900   1.498   0.930   4.544
  965TIP3    H1 2901   1.527   0.861   4.484
  965TIP3    H2 2902   1.529   0.901   4.630
  966TIP3   OH2 2903   0.101   5.730   1.776
  966TIP3    H1 2904   0.173   5.755   1.834
  966TIP3    H2 2905   0.030   5.706   1.835
  967TIP3   OH2 2906   5.078   1.026   1.980
  967TIP3    H1 2907   5.020   0.968   2.029
  967TIP3    H2 2908   5.096   0.980   1.898
  968TIP3   OH2 2909   2.712   3.080   3.660
  968TIP3    H1 2910   2.617   3.092   3.664
  968TIP3    H2 2911   2.727   2.995   3.703
  969TIP3   OH2 2912   5.605   3.168   4.541
  969TIP3    H1 2913   5.521   3.157   4.496
  969TIP3    H2 2914   5.670   3.145   4.475
  970TIP3   OH2 2915   5.868   2.885   4.634
  970TIP3    H1 2916   5.938   2.943   4.607
  970TIP3    H2 2917   5.909   2.823   4.695
  971TIP3   OH2 2918   4.921   1.039   0.074
  971TIP3    H1 2919   4.835   1.076   0.054
  971TIP3    H2 2920   4.905   0.945   0.081
  972TIP3   OH2 2921   5.671   0.883   1.306
  972TIP3    H1 2922   5.716   0.841   1.379
  972TIP3    H2 2923   5.614   0.816   1.270
  973TIP3   OH2 2924   1.413   3.230   0.525
  973TIP3    H1 2925   1.441   3.320   0.512
  973TIP3    H2 2926   1.330   3.237   0.572
  974TIP3   OH2 2927   3.748   4.720   2.064
  974TIP3    H1 2928   3.811   4.784   2.033
  974TIP3    H2 2929   3.743   4.655   1.994
  975TIP3   OH2 2930   4.190   0.576   0.154
  975TIP3    H1 2931   4.114   0.529   0.119
  975TIP3    H2 2932   4.266   0.528   0.121
  976TIP3   OH2 2933   3.594   2.287   4.349
  976TIP3    H1 2934   3.509   2.278   4.392
  976TIP3    H2 2935   3.619   2.198   4.326
  977TIP3   OH2 2936   3.404   0.361   1.397
  977TIP3    H1 2937   3.365   0.284   1.356
  977TIP3    H2 2938   3.487   0.330   1.434
  978TIP3   OH2 2939   4.559   4.221   1.825
  978TIP3    H1 2940   4.520   4.292   1.773
  978TIP3    H2 2941   4.637   4.195   1.775
  979TIP3   OH2 2942   5.912   4.575   3.790
  979TIP3    H1 2943   5.914   4.484   3.820
  979TIP3    H2 2944   5.849   4.618   3.847
  980TIP3   OH2 2945   5.933   1.486   2.383
  980TIP3    H1 2946   5.857   1.532   2.418
  980TIP3    H2 2947   5.971   1.442   2.459
  981TIP3   OH2 2948   2.554   4.174   1.250
  981TIP3    H1 2949   2.582   4.265   1.242
  981TIP3    H2 2950   2.520   4.151   1.163
  982TIP3   OH2 2951   2.531   4.736   0.547
  982TIP3    H1 2952   2.573   4.791   0.612
  982TIP3    H2 2953   2.600   4.717   0.483
  983TIP3   OH2 2954   5.551   2.726   1.898
  983TIP3    H1 2955   5.598   2.642   1.897
  983TIP3    H2 2956   5.596   2.777   1.966
  984TIP3   OH2 2957   4.284   0.761   2.708
  984TIP3    H1 2958   4.365   0.724   2.743
  984TIP3    H2 2959   4.280   0.849   2.746
  985TIP3   OH2 2960   2.147   5.824   3.726
  985TIP3    H1 2961   2.126   5.821   3.820
  985TIP3    H2 2962   2.197   5.905   3.716
  986TIP3   OH2 2963   4.784   1.131   5.047
  986TIP3    H1 2964   4.772   1.153   4.954
  986TIP3    H2 2965   4.807   1.214   5.089
  987TIP3   OH2 2966   5.086   3.386   4.971
  987TIP3    H1 2967   4.999   3.371   5.008
  987TIP3    H2 2968   5.102   3.310   4.915
  988TIP3   OH2 2969   3.505   4.160   0.875
  988TIP3    H1 2970   3.589   4.206   0.870
  988TIP3    H2 2971   3.453   4.213   0.935
  989TIP3   OH2 2972   4.822   2.421   4.867
  989TIP3    H1 2973   4.870   2.496   4.832
  989TIP3    H2 2974   4.730   2.443   4.854
  990TIP3   OH2 2975   4.326   4.828   1.110
  990TIP3    H1 2976   4.319   4.749   1.163
  990TIP3    H2 2977   4.353   4.896   1.172
  991TIP3   OH2 2978   4.345   5.314   3.032
  991TIP3    H1 2979   4.319   5.361   2.953
  991TIP3    H2 2980   4.382   5.381   3.089
  992TIP3   OH2 2981   2.226   2.437   1.014
  992TIP3    H1 2982   2.174   2.489   0.953
  992TIP3    H2 2983   2.165   2.415   1.085
  993TIP3   OH2 2984   2.563   1.531   3.063
  993TIP3    H1 2985   2.560   1.559   2.971
  993TIP3    H2 2986   2.567   1.435   3.059
  994TIP3   OH2 2987   0.729   2.775   2.688
  994TIP3    H1 2988   0.778   2.783   2.607
  994TIP3    H2 2989   0.795   2.751   2.754
  995TIP3   OH2 2990   3.805   2.509   2.790
  995TIP3    H1 2991   3.871   2.440   2.798
  995TIP3    H2 2992   3.735   2.469   2.739
  996TIP3   OH2 2993   6.302   5.198   4.292
  996TIP3    H1 2994   6.289   5.115   4.246
  996TIP3    H2 2995   6.291   5.264   4.224
  997TIP3   OH2 2996   1.103   0.692   0.904
  997TIP3    H1 2997   1.052   0.669   0.826
  997TIP3    H2 2998   1.037   0.722   0.967
  998TIP3   OH2 2999   5.402   2.411   0.053
  998TIP3    H1 3000   5.321   2.365   0.075
  998TIP3    H2 3001   5.431   2.449   0.137
  999TIP3   OH2 3002   4.091   1.351   5.136
  999TIP3    H1 3003   4.141   1.313   5.209
  999TIP3    H2 3004   4.020   1.399   5.179
 1000TIP3   OH2 3005   2.661   3.523   3.251
 1000TIP3    H1 3006   2.626   3.552   3.335
 1000TIP3    H2 3007   2.755   3.513   3.266
 1001TIP3   OH2 3008   3.117   3.737   1.057
 1001TIP3    H1 3009   3.121   3.724   1.152
 1001TIP3    H2 3010   3.028   3.711   1.033
 1002TIP3   OH2 3011   1.288   4.345   1.184
 1002TIP3    H1 3012   1.330   4.410   1.128
 1002TIP3    H2 3013   1.242   4.396   1.251
 1003TIP3   OH2 3014   0.430   5.136   4.376
 1003TIP3    H1 3015   0.390   5.124   4.462
 1003TIP3    H2 3016   0.361   5.171   4.321
 1004TIP3   OH2 3017   3.272   5.026   2.249
 1004TIP3    H1 3018   3.292   5.096   2.310
 1004TIP3    H2 3019   3.198   4.980   2.288
 1005TIP3   OH2 3020   2.046   4.153   2.307
 1005TIP3    H1 3021   1.978   4.085   2.317
 1005TIP3    H2 3022   2.116   4.125   2.366
 1006TIP3   OH2 3023   5.114   5.308   1.151
 1006TIP3    H1 3024   5.055   5.278   1.082
 1006TIP3    H2 3025   5.144   5.227   1.193
 1007TIP3   OH2 3026   3.368   3.883   3.544
 1007TIP3    H1 3027   3.456   3.850   3.561
 1007TIP3    H2 3028   3.314   3.841   3.611
 1008TIP3   OH2 3029   6.284   1.718   5.133
 1008TIP3    H1 3030   6.317   1.725   5.043
 1008TIP3    H2 3031   6.197   1.679   5.123
 1009TIP3   OH2 3032   1.733   1.361   2.885
 1009TIP3    H1 3033   1.702   1.448   2.913
 1009TIP3    H2 3034   1.664   1.301   2.915
 1010TIP3   OH2 3035   2.029   2.268   1.557
 1010TIP3    H1 3036   1.994   2.357   1.558
 1010TIP3    H2 3037   2.124   2.279   1.561
 1011TIP3   OH2 3038   4.972   0.399   1.285
 1011TIP3    H1 3039   4.879   0.412   1.303
 1011TIP3    H2 3040   4.987   0.306   1.301
 1012TIP3   OH2 3041   3.144   3.623   1.982
 1012TIP3    H1 3042   3.236   3.621   2.009
 1012TIP3    H2 3043   3.120   3.715   1.988
 1013TIP3   OH2 3044   3.572   2.638   2.508
 1013TIP3    H1 3045   3.490   2.631   2.556
 1013TIP3    H2 3046   3.548   2.622   2.417
 1014TIP3   OH2 3047   3.228   3.733   2.284
 1014TIP3    H1 3048   3.257   3.794   2.216
 1014TIP3    H2 3049   3.135   3.753   2.296
 1015TIP3   OH2 3050   4.880   1.372   4.549
 1015TIP3    H1 3051   4.837   1.326   4.622
 1015TIP3    H2 3052   4.892   1.461   4.581
 1016TIP3   OH2 3053   2.217   4.000   0.636
 1016TIP3    H1 3054   2.286   3.939   0.610
 1016TIP3    H2 3055   2.160   4.006   0.560
 1017TIP3   OH2 3056   4.466   1.113   3.886
 1017TIP3    H1 3057   4.412   1.136   3.962
 1017TIP3    H2 3058   4.555   1.139   3.911
 1018TIP3   OH2 3059   0.073   0.546   2.973
 1018TIP3    H1 3060   0.075   0.638   3.000
 1018TIP3    H2 3061   0.137   0.539   2.903
 1019TIP3   OH2 3062   2.585   2.968   4.723
 1019TIP3    H1 3063   2.564   3.056   4.755
 1019TIP3    H2 3064   2.676   2.953   4.750
 1020TIP3   OH2 3065   1.891   4.170   4.194
 1020TIP3    H1 3066   1.796   4.183   4.186
 1020TIP3    H2 3067   1.917   4.226   4.267
 1021TIP3   OH2 3068   5.503   0.302  -0.013
 1021TIP3    H1 3069   5.591   0.276  -0.039
 1021TIP3    H2 3070   5.504   0.301   0.083
 1022TIP3   OH2 3071   5.196   5.037   4.584
 1022TIP3    H1 3072   5.146   4.971   4.536
 1022TIP3    H2 3073   5.204   5.002   4.672
 1023TIP3   OH2 3074   1.456   1.200   5.182
 1023TIP3    H1 3075   1.441   1.227   5.272
 1023TIP3    H2 3076   1.381   1.235   5.133
 1024TIP3   OH2 3077   3.415   3.732   4.279
 1024TIP3    H1 3078   3.489   3.744   4.338
 1024TIP3    H2 3079   3.435   3.786   4.203
 1025TIP3   OH2 3080   5.249   2.021   3.779
 1025TIP3    H1 3081   5.318   1.955   3.769
 1025TIP3    H2 3082   5.182   1.996   3.716
 1026TIP3   OH2 3083   1.507   1.976   2.477
 1026TIP3    H1 3084   1.531   2.049   2.535
 1026TIP3    H2 3085   1.590   1.929   2.463
 1027TIP3   OH2 3086   4.390   3.240   4.433
 1027TIP3    H1 3087   4.354   3.192   4.359
 1027TIP3    H2 3088   4.317   3.248   4.494
 1028TIP3   OH2 3089   5.699   5.234   4.796
 1028TIP3    H1 3090   5.690   5.316   4.748
 1028TIP3    H2 3091   5.793   5.224   4.809
 1029TIP3   OH2 3092   5.529   0.601   3.441
 1029TIP3    H1 3093   5.592   0.567   3.378
 1029TIP3    H2 3094   5.478   0.666   3.391
 1030TIP3   OH2 3095   0.379   3.750   1.488
 1030TIP3    H1 3096   0.408   3.839   1.471
 1030TIP3    H2 3097   0.456   3.696   1.472
 1031TIP3   OH2 3098   4.048   5.230   3.861
 1031TIP3    H1 3099   3.998   5.310   3.848
 1031TIP3    H2 3100   3.987   5.159   3.841
 1032TIP3   OH2 3101   6.206   2.039   0.067
 1032TIP3    H1 3102   6.218   1.945   0.084
 1032TIP3    H2 3103   6.145   2.042  -0.007
 1033TIP3   OH2 3104   1.862   5.944   1.059
 1033TIP3    H1 3105   1.891   5.854   1.042
 1033TIP3    H2 3106   1.767   5.937   1.067
 1034TIP3   OH2 3107   0.034   4.688   0.414
 1034TIP3    H1 3108   0.108   4.745   0.394
 1034TIP3    H2 3109  -0.024   4.741   0.468
 1035TIP3   OH2 3110   0.346   2.527   4.624
 1035TIP3    H1 3111   0.317   2.504   4.712
 1035TIP3    H2 3112   0.438   2.501   4.621
 1036TIP3   OH2 3113   2.280   5.446   3.390
 1036TIP3    H1 3114   2.232   5.473   3.311
 1036TIP3    H2 3115   2.224   5.475   3.463
 1037TIP3   OH2 3116   1.469   4.507   3.428
 1037TIP3    H1 3117   1.522   4.427   3.432
 1037TIP3    H2 3118   1.495   4.557   3.505
 1038TIP3   OH2 3119   0.699   3.260   0.270
 1038TIP3    H1 3120   0.780   3.310   0.266
 1038TIP3    H2 3121   0.681   3.250   0.363
 1039TIP3   OH2 3122   5.951   3.237   1.976
 1039TIP3    H1 3123   6.046   3.226   1.982
 1039TIP3    H2 3124   5.930   3.299   2.045
 1040TIP3   OH2 3125   0.458   5.572   1.278
 1040TIP3    H1 3126   0.442   5.528   1.195
 1040TIP3    H2 3127   0.550   5.599   1.274
 1041TIP3   OH2 3128   5.826   5.407   5.078
 1041TIP3    H1 3129   5.747   5.413   5.024
 1041TIP3    H2 3130   5.896   5.385   5.016
 1042TIP3   OH2 3131   3.914   3.642   2.450
 1042TIP3    H1 3132   3.998   3.618   2.410
 1042TIP3    H2 3133   3.848   3.601   2.395
 1043TIP3   OH2 3134   1.137   2.624   2.585
 1043TIP3    H1 3135   1.104   2.538   2.557
 1043TIP3    H2 3136   1.229   2.624   2.558
 1044TIP3   OH2 3137   2.057   2.478   2.349
 1044TIP3    H1 3138   1.999   2.526   2.289
 1044TIP3    H2 3139   2.007   2.400   2.373
 1045TIP3   OH2 3140   0.251   1.802   3.245
 1045TIP3    H1 3141   0.312   1.875   3.255
 1045TIP3    H2 3142   0.246   1.788   3.150
 1046TIP3   OH2 3143   0.141   2.334   3.918
 1046TIP3    H1 3144   0.118   2.279   3.843
 1046TIP3    H2 3145   0.116   2.283   3.994
 1047TIP3   OH2 3146   2.023   4.397   1.487
 1047TIP3    H1 3147   2.027   4.484   1.526
 1047TIP3    H2 3148   2.099   4.351   1.522
 1048TIP3   OH2 3149   5.531   5.938   3.322
 1048TIP3    H1 3150   5.558   5.931   3.414
 1048TIP3    H2 3151   5.479   5.860   3.306
 1049TIP3   OH2 3152   4.833   3.269   2.438
 1049TIP3    H1 3153   4.865   3.276   2.528
 1049TIP3    H2 3154   4.758   3.328   2.435
 1050TIP3   OH2 3155   0.893   3.852   0.921
 1050TIP3    H1 3156   0.894   3.792   0.846
 1050TIP3    H2 3157   0.968   3.910   0.907
 1051TIP3   OH2 3158   3.133   1.202   2.946
 1051TIP3    H1 3159   3.137   1.262   3.020
 1051TIP3    H2 3160   3.203   1.230   2.887
 1052TIP3   OH2 3161   4.949   5.713   2.322
 1052TIP3    H1 3162   4.877   5.770   2.348
 1052TIP3    H2 3163   5.028   5.764   2.340
 1053TIP3   OH2 3164   1.680   5.609   2.980
 1053TIP3    H1 3165   1.586   5.590   2.979
 1053TIP3    H2 3166   1.721   5.523   2.985
 1054TIP3   OH2 3167   2.389   5.171   4.007
 1054TIP3    H1 3168   2.450   5.108   4.046
 1054TIP3    H2 3169   2.421   5.183   3.918
 1055TIP3   OH2 3170   5.197   2.005   1.368
 1055TIP3    H1 3171   5.159   1.921   1.394
 1055TIP3    H2 3172   5.223   2.047   1.450
 1056TIP3   OH2 3173   3.800   5.751   2.061
 1056TIP3    H1 3174   3.854   5.703   2.124
 1056TIP3    H2 3175   3.711   5.721   2.078
 1057TIP3   OH2 3176   5.965   5.609   3.696
 1057TIP3    H1 3177   5.964   5.703   3.710
 1057TIP3    H2 3178   5.921   5.572   3.773
 1058TIP3   OH2 3179   2.654   3.887   2.556
 1058TIP3    H1 3180   2.581   3.826   2.561
 1058TIP3    H2 3181   2.704   3.871   2.637
 1059TIP3   OH2 3182   4.270   1.473   2.063
 1059TIP3    H1 3183   4.241   1.510   2.146
 1059TIP3    H2 3184   4.362   1.498   2.055
 1060TIP3   OH2 3185   6.219   3.422   2.373
 1060TIP3    H1 3186   6.300   3.461   2.339
 1060TIP3    H2 3187   6.193   3.359   2.306
 1061TIP3   OH2 3188   3.765   4.936   3.582
 1061TIP3    H1 3189   3.760   4.974   3.669
 1061TIP3    H2 3190   3.714   4.855   3.588
 1062TIP3   OH2 3191   4.550   3.206   3.075
 1062TIP3    H1 3192   4.566   3.285   3.023
 1062TIP3    H2 3193   4.469   3.226   3.123
 1063TIP3   OH2 3194   1.012   5.505   1.499
 1063TIP3    H1 3195   1.031   5.474   1.410
 1063TIP3    H2 3196   0.976   5.429   1.544
 1064TIP3   OH2 3197   1.852   5.974   2.833
 1064TIP3    H1 3198   1.862   6.039   2.763
 1064TIP3    H2 3199   1.802   6.020   2.901
 1065TIP3   OH2 3200   4.052   4.452   1.753
 1065TIP3    H1 3201   4.076   4.534   1.710
 1065TIP3    H2 3202   4.002   4.404   1.686
 1066TIP3   OH2 3203   4.365   3.294   3.617
 1066TIP3    H1 3204   4.427   3.329   3.681
 1066TIP3    H2 3205   4.292   3.356   3.618
 1067TIP3   OH2 3206   5.875   5.872   0.272
 1067TIP3    H1 3207   5.901   5.964   0.272
 1067TIP3    H2 3208   5.913   5.836   0.352
 1068TIP3   OH2 3209   2.605   1.611   0.953
 1068TIP3    H1 3210   2.514   1.587   0.940
 1068TIP3    H2 3211   2.602   1.703   0.979
 1069TIP3   OH2 3212   5.943   2.680   2.952
 1069TIP3    H1 3213   5.881   2.609   2.961
 1069TIP3    H2 3214   5.894   2.758   2.976
 1070TIP3   OH2 3215   4.999   2.925   3.725
 1070TIP3    H1 3216   4.965   3.010   3.696
 1070TIP3    H2 3217   4.946   2.903   3.801
 1071TIP3   OH2 3218   0.039   5.842   3.477
 1071TIP3    H1 3219  -0.016   5.882   3.409
 1071TIP3    H2 3220   0.102   5.910   3.499
 1072TIP3   OH2 3221   2.464   5.898   2.501
 1072TIP3    H1 3222   2.388   5.845   2.477
 1072TIP3    H2 3223   2.537   5.856   2.455
 1073TIP3   OH2 3224   1.328   1.107   3.423
 1073TIP3    H1 3225   1.361   1.125   3.334
 1073TIP3    H2 3226   1.272   1.182   3.443
 1074TIP3   OH2 3227   0.916   4.533   3.660
 1074TIP3    H1 3228   0.989   4.512   3.602
 1074TIP3    H2 3229   0.843   4.551   3.601
 1075TIP3   OH2 3230   3.351   4.522   1.666
 1075TIP3    H1 3231   3.304   4.597   1.629
 1075TIP3    H2 3232   3.282   4.457   1.681
 1076TIP3   OH2 3233   3.090   5.144   4.134
 1076TIP3    H1 3234   3.012   5.133   4.079
 1076TIP3    H2 3235   3.148   5.201   4.082
 1077TIP3   OH2 3236   1.670   0.392   0.447
 1077TIP3    H1 3237   1.581   0.359   0.449
 1077TIP3    H2 3238   1.692   0.398   0.353
 1078TIP3   OH2 3239   4.934   1.165   1.270
 1078TIP3    H1 3240   4.926   1.118   1.353
 1078TIP3    H2 3241   5.022   1.201   1.271
 1079TIP3   OH2 3242   2.464   0.453   2.609
 1079TIP3    H1 3243   2.424   0.382   2.558
 1079TIP3    H2 3244   2.390   0.496   2.652
 1080TIP3   OH2 3245   1.369   0.323   0.506
 1080TIP3    H1 3246   1.322   0.359   0.431
 1080TIP3    H2 3247   1.377   0.229   0.487
 1081TIP3   OH2 3248   4.037   3.026   3.828
 1081TIP3    H1 3249   3.970   3.056   3.766
 1081TIP3    H2 3250   4.061   3.105   3.877
 1082TIP3   OH2 3251   3.494   1.651   2.205
 1082TIP3    H1 3252   3.492   1.723   2.268
 1082TIP3    H2 3253   3.580   1.611   2.217
 1083TIP3   OH2 3254   1.933   5.182   2.179
 1083TIP3    H1 3255   1.905   5.175   2.271
 1083TIP3    H2 3256   1.914   5.273   2.156
 1084TIP3   OH2 3257   0.571   0.480   4.919
 1084TIP3    H1 3258   0.527   0.564   4.927
 1084TIP3    H2 3259   0.664   0.500   4.931
 1085TIP3   OH2 3260   4.222   3.823   2.908
 1085TIP3    H1 3261   4.213   3.901   2.853
 1085TIP3    H2 3262   4.135   3.807   2.943
 1086TIP3   OH2 3263   0.208   3.984   2.074
 1086TIP3    H1 3264   0.300   3.974   2.049
 1086TIP3    H2 3265   0.193   4.078   2.071
 1087TIP3   OH2 3266   4.389   5.545   0.768
 1087TIP3    H1 3267   4.448   5.473   0.794
 1087TIP3    H2 3268   4.375   5.595   0.848
 1088TIP3   OH2 3269   1.267   1.331   2.949
 1088TIP3    H1 3270   1.322   1.387   3.005
 1088TIP3    H2 3271   1.280   1.366   2.861
 1089TIP3   OH2 3272   4.655   0.115   4.874
 1089TIP3    H1 3273   4.585   0.180   4.867
 1089TIP3    H2 3274   4.709   0.130   4.797
 1090TIP3   OH2 3275   2.033   1.935   4.699
 1090TIP3    H1 3276   2.055   1.847   4.668
 1090TIP3    H2 3277   2.047   1.991   4.622
 1091TIP3   OH2 3278   1.976   2.741   3.327
 1091TIP3    H1 3279   1.976   2.652   3.362
 1091TIP3    H2 3280   2.067   2.757   3.301
 1092TIP3   OH2 3281   6.173   3.058   3.959
 1092TIP3    H1 3282   6.266   3.081   3.965
 1092TIP3    H2 3283   6.171   2.976   3.910
 1093TIP3   OH2 3284   3.422   0.534   4.665
 1093TIP3    H1 3285   3.414   0.451   4.618
 1093TIP3    H2 3286   3.514   0.539   4.690
 1094TIP3   OH2 3287   3.245   1.530   0.646
 1094TIP3    H1 3288   3.181   1.560   0.582
 1094TIP3    H2 3289   3.193   1.506   0.723
 1095TIP3   OH2 3290   1.123   4.054   4.177
 1095TIP3    H1 3291   1.121   3.980   4.116
 1095TIP3    H2 3292   1.147   4.015   4.261
 1096TIP3   OH2 3293   2.140   6.008   4.501
 1096TIP3    H1 3294   2.148   6.042   4.590
 1096TIP3    H2 3295   2.047   5.991   4.490
 1097TIP3   OH2 3296   0.920   1.995   0.664
 1097TIP3    H1 3297   0.982   2.048   0.714
 1097TIP3    H2 3298   0.938   1.905   0.692
 1098TIP3   OH2 3299   3.351   0.452   0.827
 1098TIP3    H1 3300   3.353   0.360   0.801
 1098TIP3    H2 3301   3.431   0.465   0.878
 1099TIP3   OH2 3302   6.190   0.324   4.882
 1099TIP3    H1 3303   6.098   0.299   4.872
 1099TIP3    H2 3304   6.232   0.294   4.802
 1100TIP3   OH2 3305   4.427   1.083   4.555
 1100TIP3    H1 3306   4.516   1.048   4.565
 1100TIP3    H2 3307   4.414   1.138   4.632
 1101TIP3   OH2 3308   0.940   2.800   2.539
 1101TIP3    H1 3309   0.992   2.721   2.554
 1101TIP3    H2 3310   0.981   2.866   2.595
 1102TIP3   OH2 3311   2.660   5.942   0.320
 1102TIP3    H1 3312   2.667   5.889   0.399
 1102TIP3    H2 3313   2.626   6.026   0.350
 1103TIP3   OH2 3314   1.263   2.502   4.859
 1103TIP3    H1 3315   1.314   2.435   4.904
 1103TIP3    H2 3316   1.274   2.581   4.912
 1104TIP3   OH2 3317   5.993   2.234   2.361
 1104TIP3    H1 3318   5.910   2.222   2.408
 1104TIP3    H2 3319   6.053   2.174   2.404
 1105TIP3   OH2 3320   0.990   1.026   1.146
 1105TIP3    H1 3321   0.971   0.964   1.216
 1105TIP3    H2 3322   1.049   1.090   1.186
 1106TIP3   OH2 3323   1.901   3.854   2.100
 1106TIP3    H1 3324   1.895   3.791   2.028
 1106TIP3    H2 3325   1.898   3.940   2.057
 1107TIP3   OH2 3326   5.770   2.955   4.935
 1107TIP3    H1 3327   5.759   2.970   5.029
 1107TIP3    H2 3328   5.758   3.042   4.896
 1108TIP3   OH2 3329   0.887   0.296   4.299
 1108TIP3    H1 3330   0.793   0.315   4.289
 1108TIP3    H2 3331   0.929   0.381   4.289
 1109TIP3   OH2 3332   5.322   4.564   2.602
 1109TIP3    H1 3333   5.309   4.659   2.591
 1109TIP3    H2 3334   5.234   4.529   2.611
 1110TIP3   OH2 3335   3.627   0.503   0.157
 1110TIP3    H1 3336   3.674   0.453   0.091
 1110TIP3    H2 3337   3.535   0.486   0.140
 1111TIP3   OH2 3338   1.442   3.068   3.773
 1111TIP3    H1 3339   1.490   3.096   3.695
 1111TIP3    H2 3340   1.447   3.143   3.833
 1112TIP3   OH2 3341   3.594   2.257   3.700
 1112TIP3    H1 3342   3.644   2.228   3.776
 1112TIP3    H2 3343   3.624   2.347   3.684
 1113TIP3   OH2 3344   5.598   2.562   2.214
 1113TIP3    H1 3345   5.597   2.474   2.251
 1113TIP3    H2 3346   5.657   2.557   2.139
 1114TIP3   OH2 3347   2.449   0.613   2.205
 1114TIP3    H1 3348   2.447   0.527   2.163
 1114TIP3    H2 3349   2.413   0.599   2.292
 1115TIP3   OH2 3350   4.814   5.812   2.640
 1115TIP3    H1 3351   4.808   5.839   2.549
 1115TIP3    H2 3352   4.904   5.830   2.665
 1116TIP3   OH2 3353   4.165   1.087   3.327
 1116TIP3    H1 3354   4.166   1.173   3.370
 1116TIP3    H2 3355   4.176   1.024   3.398
 1117TIP3   OH2 3356   1.720   5.553   3.652
 1117TIP3    H1 3357   1.734   5.647   3.637
 1117TIP3    H2 3358   1.646   5.549   3.713
 1118TIP3   OH2 3359   5.941   0.165   0.358
 1118TIP3    H1 3360   5.958   0.259   0.354
 1118TIP3    H2 3361   6.028   0.125   0.361
 1119TIP3   OH2 3362   5.471   1.504   2.271
 1119TIP3    H1 3363   5.497   1.433   2.330
 1119TIP3    H2 3364   5.387   1.476   2.236
 1120TIP3   OH2 3365   4.771   5.395   1.526
 1120TIP3    H1 3366   4.865   5.377   1.521
 1120TIP3    H2 3367   4.765   5.485   1.559
 1121TIP3   OH2 3368   2.124   1.058   4.206
 1121TIP3    H1 3369   2.094   1.102   4.126
 1121TIP3    H2 3370   2.058   1.081   4.272
 1122TIP3   OH2 3371   1.544   0.278   4.134
 1122TIP3    H1 3372   1.489   0.328   4.194
 1122TIP3    H2 3373   1.529   0.320   4.048
 1123TIP3   OH2 3374   0.810   3.373   3.780
 1123TIP3    H1 3375   0.794   3.285   3.745
 1123TIP3    H2 3376   0.823   3.428   3.702
 1124TIP3   OH2 3377   5.752   3.047   0.916
 1124TIP3    H1 3378   5.843   3.017   0.929
 1124TIP3    H2 3379   5.724   3.003   0.836
 1125TIP3   OH2 3380   2.261   4.909   3.286
 1125TIP3    H1 3381   2.281   4.934   3.376
 1125TIP3    H2 3382   2.303   4.824   3.275
 1126TIP3   OH2 3383   5.066   1.746   1.473
 1126TIP3    H1 3384   5.050   1.722   1.381
 1126TIP3    H2 3385   5.116   1.672   1.508
 1127TIP3   OH2 3386   0.461   2.302   3.810
 1127TIP3    H1 3387   0.521   2.372   3.783
 1127TIP3    H2 3388   0.417   2.337   3.887
 1128TIP3   OH2 3389   3.519   3.846   0.265
 1128TIP3    H1 3390   3.509   3.933   0.305
 1128TIP3    H2 3391   3.582   3.860   0.194
 1129TIP3   OH2 3392   5.287   0.609   1.950
 1129TIP3    H1 3393   5.277   0.643   2.039
 1129TIP3    H2 3394   5.246   0.523   1.952
 1130TIP3   OH2 3395   1.758   5.022   3.037
 1130TIP3    H1 3396   1.780   4.995   2.948
 1130TIP3    H2 3397   1.813   4.967   3.093
 1131TIP3   OH2 3398   0.133   3.550   2.982
 1131TIP3    H1 3399   0.072   3.486   2.945
 1131TIP3    H2 3400   0.211   3.542   2.927
 1132TIP3   OH2 3401   4.808   2.506   2.603
 1132TIP3    H1 3402   4.725   2.554   2.605
 1132TIP3    H2 3403   4.815   2.467   2.690
 1133TIP3   OH2 3404   4.194   1.603   1.548
 1133TIP3    H1 3405   4.260   1.547   1.507
 1133TIP3    H2 3406   4.220   1.606   1.640
 1134TIP3   OH2 3407   0.293   5.436   4.134
 1134TIP3    H1 3408   0.325   5.520   4.166
 1134TIP3    H2 3409   0.211   5.456   4.089
 1135TIP3   OH2 3410   1.250   3.808   4.867
 1135TIP3    H1 3411   1.267   3.903   4.874
 1135TIP3    H2 3412   1.324   3.775   4.816
 1136TIP3   OH2 3413   5.723   0.226   4.291
 1136TIP3    H1 3414   5.810   0.200   4.262
 1136TIP3    H2 3415   5.704   0.306   4.243
 1137TIP3   OH2 3416   4.049   4.940   0.731
 1137TIP3    H1 3417   4.056   5.031   0.760
 1137TIP3    H2 3418   4.123   4.895   0.772
 1138TIP3   OH2 3419   4.342   3.230   2.509
 1138TIP3    H1 3420   4.315   3.140   2.526
 1138TIP3    H2 3421   4.402   3.251   2.581
 1139TIP3   OH2 3422   3.228   2.634   3.105
 1139TIP3    H1 3423   3.174   2.649   3.027
 1139TIP3    H2 3424   3.166   2.601   3.171
 1140TIP3   OH2 3425   3.302   2.007   3.886
 1140TIP3    H1 3426   3.261   1.921   3.884
 1140TIP3    H2 3427   3.385   1.994   3.931
 1141TIP3   OH2 3428   5.423   5.693   1.478
 1141TIP3    H1 3429   5.333   5.713   1.452
 1141TIP3    H2 3430   5.465   5.778   1.490
 1142TIP3   OH2 3431   3.641   5.884   1.467
 1142TIP3    H1 3432   3.574   5.818   1.485
 1142TIP3    H2 3433   3.703   5.841   1.409
 1143TIP3   OH2 3434   4.308   5.281   3.718
 1143TIP3    H1 3435   4.220   5.267   3.752
 1143TIP3    H2 3436   4.315   5.221   3.644
 1144TIP3   OH2 3437   3.218   2.513   3.406
 1144TIP3    H1 3438   3.222   2.513   3.501
 1144TIP3    H2 3439   3.197   2.423   3.382
 1145TIP3   OH2 3440   5.908   5.303   3.040
 1145TIP3    H1 3441   5.922   5.385   3.087
 1145TIP3    H2 3442   5.813   5.295   3.033
 1146TIP3   OH2 3443   5.645   0.946   3.928
 1146TIP3    H1 3444   5.555   0.963   3.954
 1146TIP3    H2 3445   5.698   0.986   3.997
 1147TIP3   OH2 3446   5.286   0.491   4.656
 1147TIP3    H1 3447   5.269   0.566   4.712
 1147TIP3    H2 3448   5.211   0.433   4.670
 1148TIP3   OH2 3449   1.616   2.915   2.336
 1148TIP3    H1 3450   1.616   2.998   2.382
 1148TIP3    H2 3451   1.683   2.924   2.268
 1149TIP3   OH2 3452   3.559   0.890   3.309
 1149TIP3    H1 3453   3.504   0.823   3.351
 1149TIP3    H2 3454   3.642   0.887   3.357
 1150TIP3   OH2 3455   6.083   4.374   4.559
 1150TIP3    H1 3456   6.043   4.341   4.479
 1150TIP3    H2 3457   6.017   4.360   4.627
 1151TIP3   OH2 3458   2.962   3.807   3.156
 1151TIP3    H1 3459   3.039   3.831   3.104
 1151TIP3    H2 3460   2.973   3.714   3.174
 1152TIP3   OH2 3461   4.523   0.345   4.835
 1152TIP3    H1 3462   4.442   0.362   4.883
 1152TIP3    H2 3463   4.563   0.432   4.826
 1153TIP3   OH2 3464   5.161   5.039   1.202
 1153TIP3    H1 3465   5.240   4.985   1.199
 1153TIP3    H2 3466   5.105   5.005   1.133
 1154TIP3   OH2 3467   4.504   1.618   0.261
 1154TIP3    H1 3468   4.561   1.694   0.252
 1154TIP3    H2 3469   4.445   1.623   0.186
 1155TIP3   OH2 3470   0.391   3.249   3.298
 1155TIP3    H1 3471   0.426   3.212   3.217
 1155TIP3    H2 3472   0.317   3.303   3.270
 1156TIP3   OH2 3473   3.531   3.461   5.065
 1156TIP3    H1 3474   3.523   3.366   5.075
 1156TIP3    H2 3475   3.484   3.480   4.984
 1157TIP3   OH2 3476   6.248   3.580   4.392
 1157TIP3    H1 3477   6.310   3.589   4.465
 1157TIP3    H2 3478   6.225   3.670   4.369
 1158TIP3   OH2 3479   3.971   4.570   0.607
 1158TIP3    H1 3480   4.035   4.531   0.666
 1158TIP3    H2 3481   4.010   4.655   0.583
 1159TIP3   OH2 3482   5.767   1.165   0.316
 1159TIP3    H1 3483   5.789   1.236   0.376
 1159TIP3    H2 3484   5.846   1.152   0.263
 1160TIP3   OH2 3485   3.115   5.991   0.838
 1160TIP3    H1 3486   3.023   6.017   0.840
 1160TIP3    H2 3487   3.150   6.019   0.923
 1161TIP3   OH2 3488   1.993   1.070   3.497
 1161TIP3    H1 3489   2.041   1.153   3.492
 1161TIP3    H2 3490   2.047   1.015   3.554
 1162TIP3   OH2 3491   1.739   3.481   2.172
 1162TIP3    H1 3492   1.773   3.402   2.130
 1162TIP3    H2 3493   1.644   3.473   2.165
 1163TIP3   OH2 3494   3.408   0.363   3.100
 1163TIP3    H1 3495   3.444   0.446   3.069
 1163TIP3    H2 3496   3.474   0.331   3.163
 1164TIP3   OH2 3497   0.892   2.093   3.041
 1164TIP3    H1 3498   0.825   2.161   3.034
 1164TIP3    H2 3499   0.854   2.027   3.098
 1165TIP3   OH2 3500   0.092   3.023   0.935
 1165TIP3    H1 3501   0.184   3.038   0.958
 1165TIP3    H2 3502   0.090   2.931   0.907
 1166TIP3   OH2 3503   1.275   2.605   1.852
 1166TIP3    H1 3504   1.364   2.637   1.859
 1166TIP3    H2 3505   1.284   2.510   1.843
 1167TIP3   OH2 3506   2.045   0.464   4.015
 1167TIP3    H1 3507   2.047   0.510   4.098
 1167TIP3    H2 3508   2.121   0.497   3.967
 1168TIP3   OH2 3509   1.593   2.121   0.118
 1168TIP3    H1 3510   1.549   2.206   0.126
 1168TIP3    H2 3511   1.606   2.093   0.209
 1169TIP3   OH2 3512   5.061   4.896   0.371
 1169TIP3    H1 3513   4.979   4.945   0.374
 1169TIP3    H2 3514   5.043   4.821   0.315
 1170TIP3   OH2 3515   0.223   1.509   0.840
 1170TIP3    H1 3516   0.131   1.499   0.817
 1170TIP3    H2 3517   0.234   1.602   0.857
 1171TIP3   OH2 3518   4.447   3.736   4.827
 1171TIP3    H1 3519   4.434   3.733   4.921
 1171TIP3    H2 3520   4.462   3.828   4.807
 1172TIP3   OH2 3521   5.997   3.504   3.346
 1172TIP3    H1 3522   5.956   3.582   3.383
 1172TIP3    H2 3523   5.948   3.431   3.383
 1173TIP3   OH2 3524   4.415   3.781   5.095
 1173TIP3    H1 3525   4.439   3.874   5.102
 1173TIP3    H2 3526   4.431   3.746   5.182
 1174TIP3   OH2 3527   0.367   5.153   1.966
 1174TIP3    H1 3528   0.399   5.227   2.017
 1174TIP3    H2 3529   0.289   5.123   2.013
 1175TIP3   OH2 3530   4.582   1.438   1.579
 1175TIP3    H1 3531   4.650   1.466   1.517
 1175TIP3    H2 3532   4.565   1.516   1.632
 1176TIP3   OH2 3533   2.866   2.241   2.329
 1176TIP3    H1 3534   2.801   2.181   2.293
 1176TIP3    H2 3535   2.851   2.323   2.283
 1177TIP3   OH2 3536   3.644   3.479   4.097
 1177TIP3    H1 3537   3.617   3.505   4.186
 1177TIP3    H2 3538   3.740   3.481   4.101
 1178TIP3   OH2 3539   0.716   2.369   3.088
 1178TIP3    H1 3540   0.716   2.440   3.153
 1178TIP3    H2 3541   0.624   2.359   3.064
 1179TIP3   OH2 3542   0.814   3.877   4.512
 1179TIP3    H1 3543   0.734   3.929   4.504
 1179TIP3    H2 3544   0.809   3.814   4.440
 1180TIP3   OH2 3545   0.715   2.414   5.052
 1180TIP3    H1 3546   0.686   2.502   5.077
 1180TIP3    H2 3547   0.680   2.357   5.121
 1181TIP3   OH2 3548   3.789   5.761   4.336
 1181TIP3    H1 3549   3.843   5.831   4.374
 1181TIP3    H2 3550   3.728   5.737   4.406
 1182TIP3   OH2 3551   5.969   0.720   3.591
 1182TIP3    H1 3552   5.946   0.654   3.525
 1182TIP3    H2 3553   5.988   0.799   3.540
 1183TIP3   OH2 3554   2.874   0.278   3.086
 1183TIP3    H1 3555   2.809   0.272   3.155
 1183TIP3    H2 3556   2.949   0.320   3.127
 1184TIP3   OH2 3557   6.006   1.807   4.971
 1184TIP3    H1 3558   6.019   1.801   4.877
 1184TIP3    H2 3559   6.065   1.877   4.999
 1185TIP3   OH2 3560   1.620   3.641   1.808
 1185TIP3    H1 3561   1.610   3.582   1.883
 1185TIP3    H2 3562   1.687   3.600   1.753
 1186TIP3   OH2 3563   1.012   3.154   3.110
 1186TIP3    H1 3564   1.077   3.154   3.040
 1186TIP3    H2 3565   1.043   3.086   3.171
 1187TIP3   OH2 3566   5.815   1.120   2.589
 1187TIP3    H1 3567   5.896   1.132   2.638
 1187TIP3    H2 3568   5.843   1.103   2.499
 1188TIP3   OH2 3569   3.130   4.846   2.029
 1188TIP3    H1 3570   3.211   4.833   1.979
 1188TIP3    H2 3571   3.159   4.885   2.112
 1189TIP3   OH2 3572   4.249   1.836   2.102
 1189TIP3    H1 3573   4.197   1.916   2.107
 1189TIP3    H2 3574   4.275   1.829   2.010
 1190TIP3   OH2 3575   4.691   5.179   3.002
 1190TIP3    H1 3576   4.620   5.121   2.974
 1190TIP3    H2 3577   4.651   5.234   3.070
 1191TIP3   OH2 3578   4.623   2.490   1.517
 1191TIP3    H1 3579   4.547   2.482   1.575
 1191TIP3    H2 3580   4.595   2.449   1.435
 1192TIP3   OH2 3581   1.237   4.889   3.398
 1192TIP3    H1 3582   1.192   4.919   3.477
 1192TIP3    H2 3583   1.172   4.835   3.352
 1193TIP3   OH2 3584   0.568   3.991   1.783
 1193TIP3    H1 3585   0.486   4.040   1.775
 1193TIP3    H2 3586   0.618   4.015   1.705
 1194TIP3   OH2 3587   5.715   4.913   3.617
 1194TIP3    H1 3588   5.805   4.943   3.630
 1194TIP3    H2 3589   5.672   4.929   3.700
 1195TIP3   OH2 3590   5.535   3.660   3.029
 1195TIP3    H1 3591   5.501   3.740   3.070
 1195TIP3    H2 3592   5.507   3.589   3.087
 1196TIP3   OH2 3593   0.357   1.340   3.246
 1196TIP3    H1 3594   0.333   1.388   3.166
 1196TIP3    H2 3595   0.419   1.273   3.215
 1197TIP3   OH2 3596   5.237   1.686   3.439
 1197TIP3    H1 3597   5.276   1.630   3.506
 1197TIP3    H2 3598   5.250   1.639   3.357
 1198TIP3   OH2 3599   2.519   0.163   2.241
 1198TIP3    H1 3600   2.535   0.080   2.196
 1198TIP3    H2 3601   2.606   0.202   2.252
 1199TIP3   OH2 3602   1.116   0.185   3.349
 1199TIP3    H1 3603   1.022   0.170   3.338
 1199TIP3    H2 3604   1.157   0.104   3.320
 1200TIP3   OH2 3605   2.664   2.914   1.165
 1200TIP3    H1 3606   2.720   2.896   1.089
 1200TIP3    H2 3607   2.598   2.846   1.163
 1201TIP3   OH2 3608   1.375   5.278   1.467
 1201TIP3    H1 3609   1.414   5.355   1.425
 1201TIP3    H2 3610   1.317   5.314   1.534
 1202TIP3   OH2 3611   5.134   0.934   2.353
 1202TIP3    H1 3612   5.121   1.029   2.351
 1202TIP3    H2 3613   5.120   0.910   2.445
 1203TIP3   OH2 3614   6.190   2.581   3.466
 1203TIP3    H1 3615   6.142   2.584   3.383
 1203TIP3    H2 3616   6.153   2.652   3.518
 1204TIP3   OH2 3617   3.699   3.426   0.917
 1204TIP3    H1 3618   3.607   3.413   0.943
 1204TIP3    H2 3619   3.714   3.519   0.930
 1205TIP3   OH2 3620   4.008   0.547   0.476
 1205TIP3    H1 3621   4.026   0.628   0.524
 1205TIP3    H2 3622   3.943   0.572   0.411
 1206TIP3   OH2 3623   2.293   1.688   1.808
 1206TIP3    H1 3624   2.219   1.664   1.864
 1206TIP3    H2 3625   2.258   1.756   1.750
 1207TIP3   OH2 3626   4.908   2.578   3.335
 1207TIP3    H1 3627   4.889   2.502   3.279
 1207TIP3    H2 3628   4.866   2.557   3.418
 1208TIP3   OH2 3629   5.143   5.749   1.476
 1208TIP3    H1 3630   5.082   5.718   1.543
 1208TIP3    H2 3631   5.087   5.785   1.407
 1209TIP3   OH2 3632   1.979   0.472   2.837
 1209TIP3    H1 3633   1.967   0.422   2.756
 1209TIP3    H2 3634   1.981   0.564   2.808
 1210TIP3   OH2 3635   3.829   3.755   2.679
 1210TIP3    H1 3636   3.854   3.749   2.587
 1210TIP3    H2 3637   3.843   3.667   2.714
 1211TIP3   OH2 3638   5.917  -0.002   2.986
 1211TIP3    H1 3639   6.013   0.003   2.979
 1211TIP3    H2 3640   5.889   0.089   2.990
 1212TIP3   OH2 3641   2.514   1.681   1.292
 1212TIP3    H1 3642   2.507   1.625   1.370
 1212TIP3    H2 3643   2.590   1.648   1.245
 1213TIP3   OH2 3644   5.770   2.128   5.104
 1213TIP3    H1 3645   5.802   2.174   5.027
 1213TIP3    H2 3646   5.810   2.173   5.178
 1214TIP3   OH2 3647   0.920   1.582   3.200
 1214TIP3    H1 3648   1.013   1.556   3.198
 1214TIP3    H2 3649   0.919   1.663   3.252
 1215TIP3   OH2 3650   3.739   2.731   0.752
 1215TIP3    H1 3651   3.678   2.802   0.733
 1215TIP3    H2 3652   3.800   2.732   0.679
 1216TIP3   OH2 3653   4.233   0.478   1.829
 1216TIP3    H1 3654   4.278   0.545   1.881
 1216TIP3    H2 3655   4.283   0.473   1.747
 1217TIP3   OH2 3656   0.493   4.029   3.572
 1217TIP3    H1 3657   0.464   4.113   3.609
 1217TIP3    H2 3658   0.496   3.970   3.647
 1218TIP3   OH2 3659   5.628   1.368   4.388
 1218TIP3    H1 3660   5.604   1.427   4.459
 1218TIP3    H2 3661   5.693   1.417   4.337
 1219TIP3   OH2 3662   1.627   1.660   2.595
 1219TIP3    H1 3663   1.676   1.740   2.573
 1219TIP3    H2 3664   1.537   1.690   2.605
 1220TIP3   OH2 3665   5.836   1.173   1.405
 1220TIP3    H1 3666   5.817   1.215   1.321
 1220TIP3    H2 3667   5.930   1.156   1.402
 1221TIP3   OH2 3668   5.881   5.165   3.342
 1221TIP3    H1 3669   5.956   5.107   3.354
 1221TIP3    H2 3670   5.918   5.245   3.303
 1222TIP3   OH2 3671   1.561   3.940   3.019
 1222TIP3    H1 3672   1.648   3.920   3.051
 1222TIP3    H2 3673   1.504   3.931   3.095
 1223TIP3   OH2 3674   2.271   0.173   4.622
 1223TIP3    H1 3675   2.187   0.188   4.665
 1223TIP3    H2 3676   2.337   0.202   4.685
 1224TIP3   OH2 3677   2.630   0.938   3.961
 1224TIP3    H1 3678   2.724   0.927   3.944
 1224TIP3    H2 3679   2.588   0.919   3.878
 1225TIP3   OH2 3680   0.236   0.444   2.771
 1225TIP3    H1 3681   0.164   0.383   2.753
 1225TIP3    H2 3682   0.202   0.529   2.744
 1226TIP3   OH2 3683   5.603   4.125   3.227
 1226TIP3    H1 3684   5.666   4.184   3.186
 1226TIP3    H2 3685   5.528   4.181   3.248
 1227TIP3   OH2 3686   4.009   4.576   0.149
 1227TIP3    H1 3687   3.997   4.622   0.066
 1227TIP3    H2 3688   4.022   4.485   0.124
 1228TIP3   OH2 3689   4.004   4.264   1.253
 1228TIP3    H1 3690   4.068   4.268   1.182
 1228TIP3    H2 3691   3.947   4.340   1.239
 1229TIP3   OH2 3692   0.318   1.074   2.696
 1229TIP3    H1 3693   0.407   1.106   2.684
 1229TIP3    H2 3694   0.323   1.015   2.771
 1230TIP3   OH2 3695   1.070   2.213   4.535
 1230TIP3    H1 3696   1.086   2.146   4.468
 1230TIP3    H2 3697   1.014   2.169   4.599
 1231TIP3   OH2 3698   6.326   2.523   4.218
 1231TIP3    H1 3699   6.253   2.462   4.224
 1231TIP3    H2 3700   6.289   2.602   4.178
 1232TIP3   OH2 3701   3.908   5.224   1.247
 1232TIP3    H1 3702   3.819   5.243   1.216
 1232TIP3    H2 3703   3.936   5.148   1.196
 1233TIP3   OH2 3704   4.796   0.779   0.067
 1233TIP3    H1 3705   4.815   0.739  -0.018
 1233TIP3    H2 3706   4.714   0.739   0.095
 1234TIP3   OH2 3707   3.611   5.960   4.755
 1234TIP3    H1 3708   3.570   5.876   4.734
 1234TIP3    H2 3709   3.587   6.017   4.681
 1235TIP3   OH2 3710   6.351   3.221   0.720
 1235TIP3    H1 3711   6.391   3.160   0.782
 1235TIP3    H2 3712   6.265   3.184   0.702
 1236TIP3   OH2 3713   4.881   4.425   0.236
 1236TIP3    H1 3714   4.947   4.422   0.306
 1236TIP3    H2 3715   4.812   4.366   0.266
 1237TIP3   OH2 3716   2.789   4.834   2.570
 1237TIP3    H1 3717   2.768   4.880   2.488
 1237TIP3    H2 3718   2.707   4.832   2.618
 1238TIP3   OH2 3719   3.463   4.606   2.926
 1238TIP3    H1 3720   3.544   4.643   2.960
 1238TIP3    H2 3721   3.395   4.668   2.951
 1239TIP3   OH2 3722   2.362   1.702   4.425
 1239TIP3    H1 3723   2.380   1.733   4.514
 1239TIP3    H2 3724   2.444   1.716   4.378
 1240TIP3   OH2 3725   1.857   0.108   3.021
 1240TIP3    H1 3726   1.888   0.025   2.986
 1240TIP3    H2 3727   1.865   0.170   2.948
 1241TIP3   OH2 3728   1.460   1.842   2.063
 1241TIP3    H1 3729   1.425   1.927   2.091
 1241TIP3    H2 3730   1.554   1.848   2.082
 1242TIP3   OH2 3731   3.212   0.608   1.460
 1242TIP3    H1 3732   3.277   0.678   1.459
 1242TIP3    H2 3733   3.128   0.653   1.466
 1243TIP3   OH2 3734   5.271   3.224   0.020
 1243TIP3    H1 3735   5.302   3.264   0.102
 1243TIP3    H2 3736   5.178   3.245   0.017
 1244TIP3   OH2 3737   1.965   3.662   3.201
 1244TIP3    H1 3738   1.894   3.602   3.226
 1244TIP3    H2 3739   2.001   3.692   3.285
 1245TIP3   OH2 3740   3.524   5.500   0.277
 1245TIP3    H1 3741   3.590   5.524   0.212
 1245TIP3    H2 3742   3.455   5.565   0.266
 1246TIP3   OH2 3743   5.108   1.836   3.649
 1246TIP3    H1 3744   5.088   1.766   3.712
 1246TIP3    H2 3745   5.165   1.795   3.585
 1247TIP3   OH2 3746   2.559   1.810   2.678
 1247TIP3    H1 3747   2.654   1.818   2.684
 1247TIP3    H2 3748   2.535   1.866   2.604
 1248TIP3   OH2 3749   3.138   3.229   3.789
 1248TIP3    H1 3750   3.175   3.236   3.702
 1248TIP3    H2 3751   3.064   3.168   3.779
 1249TIP3   OH2 3752   4.831   0.740   3.614
 1249TIP3    H1 3753   4.762   0.806   3.600
 1249TIP3    H2 3754   4.905   0.790   3.649
 1250TIP3   OH2 3755   3.941   0.028   3.728
 1250TIP3    H1 3756   3.992   0.105   3.704
 1250TIP3    H2 3757   3.971   0.006   3.816
 1251TIP3   OH2 3758   6.197   0.405   1.501
 1251TIP3    H1 3759   6.208   0.486   1.451
 1251TIP3    H2 3760   6.163   0.342   1.437
 1252TIP3   OH2 3761   4.471   2.129   2.597
 1252TIP3    H1 3762   4.485   2.136   2.503
 1252TIP3    H2 3763   4.495   2.039   2.619
 1253TIP3   OH2 3764   0.772   5.700   1.783
 1253TIP3    H1 3765   0.775   5.716   1.688
 1253TIP3    H2 3766   0.835   5.629   1.797
 1254TIP3   OH2 3767   0.514   1.588   1.111
 1254TIP3    H1 3768   0.606   1.606   1.092
 1254TIP3    H2 3769   0.465   1.651   1.060
 1255TIP3   OH2 3770   2.327   5.790   0.350
 1255TIP3    H1 3771   2.281   5.853   0.295
 1255TIP3    H2 3772   2.322   5.826   0.438
 1256TIP3   OH2 3773   1.655   0.039   1.501
 1256TIP3    H1 3774   1.586  -0.013   1.459
 1256TIP3    H2 3775   1.704   0.077   1.428
 1257TIP3   OH2 3776   0.702   0.905   2.763
 1257TIP3    H1 3777   0.782   0.946   2.729
 1257TIP3    H2 3778   0.710   0.912   2.858
 1258TIP3   OH2 3779   2.308   3.564   4.412
 1258TIP3    H1 3780   2.381   3.581   4.472
 1258TIP3    H2 3781   2.261   3.491   4.452
 1259TIP3   OH2 3782   4.137   1.764   4.298
 1259TIP3    H1 3783   4.221   1.737   4.335
 1259TIP3    H2 3784   4.115   1.694   4.236
 1260TIP3   OH2 3785   0.653   2.057   0.612
 1260TIP3    H1 3786   0.740   2.037   0.647
 1260TIP3    H2 3787   0.665   2.059   0.517
 1261TIP3   OH2 3788   5.477   4.806   0.117
 1261TIP3    H1 3789   5.501   4.724   0.161
 1261TIP3    H2 3790   5.546   4.819   0.052
 1262TIP3   OH2 3791   3.864   1.255   0.547
 1262TIP3    H1 3792   3.811   1.175   0.553
 1262TIP3    H2 3793   3.897   1.268   0.636
 1263TIP3   OH2 3794   0.348   1.217   4.258
 1263TIP3    H1 3795   0.260   1.194   4.227
 1263TIP3    H2 3796   0.367   1.300   4.215
 1264TIP3   OH2 3797   4.071   2.192   0.898
 1264TIP3    H1 3798   4.018   2.124   0.942
 1264TIP3    H2 3799   4.099   2.250   0.969
 1265TIP3   OH2 3800   2.309   2.827   2.169
 1265TIP3    H1 3801   2.224   2.788   2.148
 1265TIP3    H2 3802   2.314   2.824   2.265
 1266TIP3   OH2 3803   1.001   5.968   0.162
 1266TIP3    H1 3804   1.054   5.984   0.241
 1266TIP3    H2 3805   0.998   6.052   0.118
 1267TIP3   OH2 3806   3.764   0.042   0.070
 1267TIP3    H1 3807   3.808  -0.014   0.134
 1267TIP3    H2 3808   3.674   0.009   0.066
 1268TIP3   OH2 3809   0.057   1.130   3.745
 1268TIP3    H1 3810  -0.029   1.139   3.784
 1268TIP3    H2 3811   0.077   1.216   3.708
 1269TIP3   OH2 3812   4.683   1.680   1.005
 1269TIP3    H1 3813   4.626   1.655   1.078
 1269TIP3    H2 3814   4.680   1.605   0.945
 1270TIP3   OH2 3815   1.250   5.204   3.990
 1270TIP3    H1 3816   1.256   5.257   4.070
 1270TIP3    H2 3817   1.196   5.129   4.016
 1271TIP3   OH2 3818   3.414   1.666   3.423
 1271TIP3    H1 3819   3.432   1.625   3.339
 1271TIP3    H2 3820   3.436   1.758   3.411
 1272TIP3   OH2 3821   0.819   3.761   2.756
 1272TIP3    H1 3822   0.870   3.817   2.698
 1272TIP3    H2 3823   0.769   3.822   2.810
 1273TIP3   OH2 3824   0.103   5.237   1.723
 1273TIP3    H1 3825   0.108   5.306   1.658
 1273TIP3    H2 3826   0.104   5.156   1.672
 1274TIP3   OH2 3827   0.035   0.666   3.985
 1274TIP3    H1 3828   0.063   0.732   3.922
 1274TIP3    H2 3829   0.071   0.695   4.069
 1275TIP3   OH2 3830   2.802   0.958   0.180
 1275TIP3    H1 3831   2.824   0.916   0.264
 1275TIP3    H2 3832   2.820   1.051   0.195
 1276TIP3   OH2 3833   6.338   5.374   4.956
 1276TIP3    H1 3834   6.376   5.461   4.972
 1276TIP3    H2 3835   6.244   5.386   4.971
 1277TIP3   OH2 3836   0.097   3.299   1.883
 1277TIP3    H1 3837   0.165   3.358   1.851
 1277TIP3    H2 3838   0.021   3.317   1.828
 1278TIP3   OH2 3839   4.251   1.424   0.361
 1278TIP3    H1 3840   4.265   1.461   0.273
 1278TIP3    H2 3841   4.325   1.365   0.374
 1279TIP3   OH2 3842   0.826   5.882   3.524
 1279TIP3    H1 3843   0.890   5.938   3.568
 1279TIP3    H2 3844   0.796   5.822   3.593
 1280TIP3   OH2 3845   1.359   1.753   1.231
 1280TIP3    H1 3846   1.414   1.822   1.269
 1280TIP3    H2 3847   1.270   1.775   1.258
 1281TIP3   OH2 3848   4.943   0.439   4.416
 1281TIP3    H1 3849   4.913   0.410   4.330
 1281TIP3    H2 3850   4.878   0.504   4.444
 1282TIP3   OH2 3851   4.844   3.337   0.795
 1282TIP3    H1 3852   4.871   3.308   0.709
 1282TIP3    H2 3853   4.914   3.396   0.824
 1283TIP3   OH2 3854   5.488   1.240   2.498
 1283TIP3    H1 3855   5.440   1.197   2.569
 1283TIP3    H2 3856   5.509   1.326   2.532
 1284TIP3   OH2 3857   1.745   2.301   1.180
 1284TIP3    H1 3858   1.680   2.263   1.121
 1284TIP3    H2 3859   1.828   2.261   1.152
 1285TIP3   OH2 3860   3.674   1.150   2.034
 1285TIP3    H1 3861   3.646   1.176   2.122
 1285TIP3    H2 3862   3.594   1.153   1.981
 1286TIP3   OH2 3863   6.255   2.201   3.814
 1286TIP3    H1 3864   6.218   2.192   3.902
 1286TIP3    H2 3865   6.261   2.296   3.800
 1287TIP3   OH2 3866   3.663   0.803   4.659
 1287TIP3    H1 3867   3.733   0.859   4.692
 1287TIP3    H2 3868   3.704   0.718   4.644
 1288TIP3   OH2 3869   0.061   1.980   3.925
 1288TIP3    H1 3870   0.007   1.988   3.847
 1288TIP3    H2 3871   0.022   2.039   3.988
 1289TIP3   OH2 3872   5.518   0.142   1.270
 1289TIP3    H1 3873   5.542   0.051   1.256
 1289TIP3    H2 3874   5.456   0.140   1.343
 1290TIP3   OH2 3875   2.355   2.488   0.521
 1290TIP3    H1 3876   2.326   2.399   0.537
 1290TIP3    H2 3877   2.294   2.543   0.570
 1291TIP3   OH2 3878   1.670   0.056   2.192
 1291TIP3    H1 3879   1.687   0.138   2.238
 1291TIP3    H2 3880   1.643   0.082   2.104
 1292TIP3   OH2 3881   0.490   3.478   2.563
 1292TIP3    H1 3882   0.579   3.488   2.597
 1292TIP3    H2 3883   0.475   3.557   2.512
 1293TIP3   OH2 3884   4.702   2.626   2.816
 1293TIP3    H1 3885   4.716   2.703   2.760
 1293TIP3    H2 3886   4.610   2.632   2.842
 1294TIP3   OH2 3887   4.709   0.588   2.607
 1294TIP3    H1 3888   4.778   0.529   2.578
 1294TIP3    H2 3889   4.749   0.675   2.605
 1295TIP3   OH2 3890   4.327   0.316   4.043
 1295TIP3    H1 3891   4.315   0.357   4.129
 1295TIP3    H2 3892   4.364   0.384   3.989
 1296TIP3   OH2 3893   0.565   2.147   2.988
 1296TIP3    H1 3894   0.608   2.189   2.914
 1296TIP3    H2 3895   0.479   2.187   2.993
 1297TIP3   OH2 3896   5.852   1.961   2.498
 1297TIP3    H1 3897   5.853   1.944   2.593
 1297TIP3    H2 3898   5.935   1.927   2.467
 1298TIP3   OH2 3899   4.728   0.714   1.769
 1298TIP3    H1 3900   4.692   0.778   1.830
 1298TIP3    H2 3901   4.759   0.642   1.824
 1299TIP3   OH2 3902   3.280  -0.012   5.090
 1299TIP3    H1 3903   3.304   0.080   5.103
 1299TIP3    H2 3904   3.232  -0.036   5.168
 1300TIP3   OH2 3905   1.041   0.135   1.328
 1300TIP3    H1 3906   1.136   0.129   1.319
 1300TIP3    H2 3907   1.014   0.194   1.257
 1301TIP3   OH2 3908   0.554   3.033   0.857
 1301TIP3    H1 3909   0.486   3.048   0.923
 1301TIP3    H2 3910   0.636   3.034   0.907
 1302TIP3   OH2 3911   4.484   2.369   0.489
 1302TIP3    H1 3912   4.461   2.331   0.574
 1302TIP3    H2 3913   4.579   2.378   0.492
 1303TIP3   OH2 3914   3.878   5.599   0.429
 1303TIP3    H1 3915   3.970   5.572   0.422
 1303TIP3    H2 3916   3.881   5.694   0.430
 1304TIP3   OH2 3917   2.235   5.933   2.673
 1304TIP3    H1 3918   2.325   5.958   2.652
 1304TIP3    H2 3919   2.195   6.014   2.707
 1305TIP3   OH2 3920   0.786   1.160   1.042
 1305TIP3    H1 3921   0.840   1.105   1.099
 1305TIP3    H2 3922   0.849   1.212   0.992
 1306TIP3   OH2 3923   5.492   0.339   2.209
 1306TIP3    H1 3924   5.497   0.346   2.304
 1306TIP3    H2 3925   5.425   0.273   2.193
 1307TIP3   OH2 3926   0.379   3.748   2.933
 1307TIP3    H1 3927   0.459   3.730   2.982
 1307TIP3    H2 3928   0.317   3.779   2.999
 1308TIP3   OH2 3929   3.165   3.322   4.761
 1308TIP3    H1 3930   3.113   3.275   4.696
 1308TIP3    H2 3931   3.144   3.280   4.844
 1309TIP3   OH2 3932   1.714   2.395   5.051
 1309TIP3    H1 3933   1.716   2.345   5.133
 1309TIP3    H2 3934   1.806   2.416   5.034
 1310TIP3   OH2 3935   4.797   0.430   0.815
 1310TIP3    H1 3936   4.716   0.479   0.803
 1310TIP3    H2 3937   4.776   0.342   0.782
 1311TIP3   OH2 3938   2.569   4.667   1.064
 1311TIP3    H1 3939   2.504   4.611   1.107
 1311TIP3    H2 3940   2.596   4.618   0.986
 1312TIP3   OH2 3941   3.832   2.417   3.993
 1312TIP3    H1 3942   3.818   2.466   3.912
 1312TIP3    H2 3943   3.869   2.333   3.964
 1313TIP3   OH2 3944   4.362   0.185   0.573
 1313TIP3    H1 3945   4.321   0.246   0.513
 1313TIP3    H2 3946   4.354   0.226   0.659
 1314TIP3   OH2 3947   4.907   1.666   2.887
 1314TIP3    H1 3948   5.001   1.686   2.884
 1314TIP3    H2 3949   4.871   1.710   2.810
 1315TIP3   OH2 3950   6.030   3.332   2.966
 1315TIP3    H1 3951   6.060   3.387   3.039
 1315TIP3    H2 3952   6.080   3.251   2.975
 1316TIP3   OH2 3953   1.646   3.120   0.832
 1316TIP3    H1 3954   1.580   3.069   0.879
 1316TIP3    H2 3955   1.725   3.067   0.836
 1317TIP3   OH2 3956   0.691   2.860   1.327
 1317TIP3    H1 3957   0.700   2.796   1.398
 1317TIP3    H2 3958   0.636   2.929   1.363
 1318TIP3   OH2 3959   6.329   1.324   2.657
 1318TIP3    H1 3960   6.378   1.243   2.643
 1318TIP3    H2 3961   6.306   1.354   2.569
 1319TIP3   OH2 3962   6.307   3.764   2.489
 1319TIP3    H1 3963   6.343   3.676   2.489
 1319TIP3    H2 3964   6.343   3.805   2.410
 1320TIP3   OH2 3965   0.408   0.308   4.706
 1320TIP3    H1 3966   0.400   0.221   4.746
 1320TIP3    H2 3967   0.392   0.369   4.778
 1321TIP3   OH2 3968   0.514   1.943   1.223
 1321TIP3    H1 3969   0.589   1.919   1.277
 1321TIP3    H2 3970   0.489   2.031   1.253
 1322TIP3   OH2 3971   5.830   4.156   2.962
 1322TIP3    H1 3972   5.846   4.097   2.887
 1322TIP3    H2 3973   5.850   4.243   2.927
 1323TIP3   OH2 3974   4.935   1.745   1.186
 1323TIP3    H1 3975   4.989   1.678   1.143
 1323TIP3    H2 3976   4.936   1.819   1.125
 1324TIP3   OH2 3977   1.270   5.844   4.191
 1324TIP3    H1 3978   1.342   5.783   4.208
 1324TIP3    H2 3979   1.298   5.895   4.115
 1325TIP3   OH2 3980   0.797   2.738   4.465
 1325TIP3    H1 3981   0.816   2.670   4.399
 1325TIP3    H2 3982   0.863   2.726   4.532
 1326TIP3   OH2 3983   0.465   5.492   3.180
 1326TIP3    H1 3984   0.545   5.442   3.166
 1326TIP3    H2 3985   0.494   5.583   3.181
 1327TIP3   OH2 3986   6.148   2.907   4.269
 1327TIP3    H1 3987   6.240   2.883   4.277
 1327TIP3    H2 3988   6.111   2.843   4.207
 1328TIP3   OH2 3989   4.069   1.118   3.775
 1328TIP3    H1 3990   3.978   1.138   3.798
 1328TIP3    H2 3991   4.121   1.160   3.843
 1329TIP3   OH2 3992   4.228   5.357   3.345
 1329TIP3    H1 3993   4.157   5.419   3.358
 1329TIP3    H2 3994   4.307   5.411   3.341
 1330TIP3   OH2 3995   3.621   4.412   4.340
 1330TIP3    H1 3996   3.613   4.502   4.373
 1330TIP3    H2 3997   3.714   4.391   4.348
 1331TIP3   OH2 3998   1.218   4.601   1.095
 1331TIP3    H1 3999   1.279   4.661   1.052
 1331TIP3    H2 4000   1.172   4.558   1.023
 1332TIP3   OH2 4001   1.414   0.170   2.842
 1332TIP3    H1 4002   1.341   0.212   2.797
 1332TIP3    H2 4003   1.374   0.121   2.913
 1333TIP3   OH2 4004   5.162   0.616   3.516
 1333TIP3    H1 4005   5.171   0.700   3.470
 1333TIP3    H2 4006   5.125   0.639   3.601
 1334TIP3   OH2 4007   5.405   4.833   2.960
 1334TIP3    H1 4008   5.370   4.864   2.876
 1334TIP3    H2 4009   5.435   4.912   3.004
 1335TIP3   OH2 4010   0.258   4.072   1.229
 1335TIP3    H1 4011   0.335   4.053   1.284
 1335TIP3    H2 4012   0.294   4.118   1.153
 1336TIP3   OH2 4013   1.445   5.419   0.094
 1336TIP3    H1 4014   1.537   5.401   0.074
 1336TIP3    H2 4015   1.418   5.347   0.151
 1337TIP3   OH2 4016   0.348   5.822   1.082
 1337TIP3    H1 4017   0.325   5.764   1.155
 1337TIP3    H2 4018   0.361   5.907   1.123
 1338TIP3   OH2 4019   5.481   1.638   1.413
 1338TIP3    H1 4020   5.522   1.662   1.330
 1338TIP3    H2 4021   5.550   1.595   1.463
 1339TIP3   OH2 4022   0.842   0.511   4.921
 1339TIP3    H1 4023   0.937   0.512   4.913
 1339TIP3    H2 4024   0.812   0.568   4.850
 1340TIP3   OH2 4025   4.441   1.742   3.506
 1340TIP3    H1 4026   4.464   1.827   3.542
 1340TIP3    H2 4027   4.365   1.714   3.557
 1341TIP3   OH2 4028   3.525   1.938   1.136
 1341TIP3    H1 4029   3.595   1.971   1.192
 1341TIP3    H2 4030   3.468   1.889   1.196
 1342TIP3   OH2 4031   1.403   2.904   2.507
 1342TIP3    H1 4032   1.475   2.910   2.444
 1342TIP3    H2 4033   1.398   2.811   2.529
 1343TIP3   OH2 4034   1.341   0.651   3.316
 1343TIP3    H1 4035   1.266   0.697   3.278
 1343TIP3    H2 4036   1.410   0.717   3.322
 1344TIP3   OH2 4037   5.694   1.316   0.584
 1344TIP3    H1 4038   5.756   1.379   0.621
 1344TIP3    H2 4039   5.635   1.369   0.530
 1345TIP3   OH2 4040   0.259   0.378   0.871
 1345TIP3    H1 4041   0.183   0.363   0.815
 1345TIP3    H2 4042   0.333   0.381   0.810
 1346TIP3   OH2 4043   1.763   1.198   2.433
 1346TIP3    H1 4044   1.743   1.271   2.491
 1346TIP3    H2 4045   1.687   1.141   2.438
 1347TIP3   OH2 4046   0.498   4.463   1.297
 1347TIP3    H1 4047   0.436   4.433   1.363
 1347TIP3    H2 4048   0.449   4.527   1.245
 1348TIP3   OH2 4049   0.465   3.590   0.368
 1348TIP3    H1 4050   0.427   3.672   0.401
 1348TIP3    H2 4051   0.496   3.611   0.281
 1349TIP3   OH2 4052   4.879   0.877   4.483
 1349TIP3    H1 4053   4.969   0.847   4.473
 1349TIP3    H2 4054   4.879   0.967   4.452
 1350TIP3   OH2 4055   5.201   3.710   3.841
 1350TIP3    H1 4056   5.225   3.619   3.829
 1350TIP3    H2 4057   5.118   3.720   3.794
 1351TIP3   OH2 4058   0.464   0.438   2.218
 1351TIP3    H1 4059   0.555   0.450   2.243
 1351TIP3    H2 4060   0.419   0.418   2.300
 1352TIP3   OH2 4061   1.703   1.289   1.291
 1352TIP3    H1 4062   1.610   1.271   1.279
 1352TIP3    H2 4063   1.747   1.214   1.252
 1353TIP3   OH2 4064   1.129   4.577   0.184
 1353TIP3    H1 4065   1.216   4.574   0.222
 1353TIP3    H2 4066   1.130   4.654   0.127
 1354TIP3   OH2 4067   1.740   0.429   5.064
 1354TIP3    H1 4068   1.684   0.401   5.136
 1354TIP3    H2 4069   1.748   0.352   5.008
 1355TIP3   OH2 4070   2.254   0.236   2.886
 1355TIP3    H1 4071   2.232   0.166   2.824
 1355TIP3    H2 4072   2.169   0.274   2.909
 1356TIP3   OH2 4073   0.703   4.321   3.725
 1356TIP3    H1 4074   0.755   4.243   3.703
 1356TIP3    H2 4075   0.725   4.341   3.816
 1357TIP3   OH2 4076   5.230   1.630   2.671
 1357TIP3    H1 4077   5.199   1.705   2.620
 1357TIP3    H2 4078   5.238   1.664   2.760
 1358TIP3   OH2 4079   4.895   5.988   0.601
 1358TIP3    H1 4080   4.953   5.938   0.659
 1358TIP3    H2 4081   4.813   5.996   0.650
 1359TIP3   OH2 4082   4.632   0.365   4.569
 1359TIP3    H1 4083   4.562   0.341   4.630
 1359TIP3    H2 4084   4.690   0.421   4.619
 1360TIP3   OH2 4085   5.409   0.192   3.359
 1360TIP3    H1 4086   5.432   0.213   3.268
 1360TIP3    H2 4087   5.361   0.268   3.390
 1361TIP3   OH2 4088   1.622   5.658   2.385
 1361TIP3    H1 4089   1.576   5.697   2.460
 1361TIP3    H2 4090   1.712   5.647   2.415
 1362TIP3   OH2 4091   4.951   1.643   0.215
 1362TIP3    H1 4092   5.026   1.627   0.272
 1362TIP3    H2 4093   4.931   1.736   0.227
 1363TIP3   OH2 4094   5.050   3.988   5.080
 1363TIP3    H1 4095   4.977   3.955   5.132
 1363TIP3    H2 4096   5.049   4.082   5.093
 1364TIP3   OH2 4097   3.607   2.484   1.157
 1364TIP3    H1 4098   3.644   2.561   1.114
 1364TIP3    H2 4099   3.572   2.518   1.240
 1365TIP3   OH2 4100   4.360   3.011   4.276
 1365TIP3    H1 4101   4.455   3.006   4.271
 1365TIP3    H2 4102   4.330   2.995   4.186
 1366TIP3   OH2 4103   1.766   0.390   2.457
 1366TIP3    H1 4104   1.742   0.310   2.502
 1366TIP3    H2 4105   1.859   0.402   2.475
 1367TIP3   OH2 4106   4.431   3.675   2.794
 1367TIP3    H1 4107   4.488   3.753   2.790
 1367TIP3    H2 4108   4.353   3.705   2.839
 1368TIP3   OH2 4109   4.097   3.436   1.405
 1368TIP3    H1 4110   4.054   3.517   1.378
 1368TIP3    H2 4111   4.155   3.462   1.476
 1369TIP3   OH2 4112   5.860   4.628   3.124
 1369TIP3    H1 4113   5.790   4.673   3.170
 1369TIP3    H2 4114   5.938   4.682   3.140
 1370TIP3   OH2 4115   4.087   3.091   0.388
 1370TIP3    H1 4116   4.166   3.055   0.428
 1370TIP3    H2 4117   4.074   3.175   0.432
 1371TIP3   OH2 4118   5.414   1.142   0.009
 1371TIP3    H1 4119   5.433   1.051  -0.014
 1371TIP3    H2 4120   5.359   1.136   0.087
 1372TIP3   OH2 4121   5.491   1.378   3.285
 1372TIP3    H1 4122   5.478   1.344   3.374
 1372TIP3    H2 4123   5.564   1.439   3.292
 1373TIP3   OH2 4124   4.815   5.580   0.600
 1373TIP3    H1 4125   4.871   5.594   0.524
 1373TIP3    H2 4126   4.744   5.643   0.589
 1374TIP3   OH2 4127   2.821   1.933   0.741
 1374TIP3    H1 4128   2.841   2.017   0.781
 1374TIP3    H2 4129   2.743   1.902   0.788
 1375TIP3   OH2 4130   1.185   3.888   3.853
 1375TIP3    H1 4131   1.215   3.965   3.804
 1375TIP3    H2 4132   1.094   3.907   3.874
 1376TIP3   OH2 4133   5.828   4.759   3.409
 1376TIP3    H1 4134   5.760   4.792   3.350
 1376TIP3    H2 4135   5.807   4.797   3.494
 1377TIP3   OH2 4136   4.483   1.238   0.310
 1377TIP3    H1 4137   4.470   1.192   0.227
 1377TIP3    H2 4138   4.491   1.168   0.375
 1378TIP3   OH2 4139   2.190   0.952   0.224
 1378TIP3    H1 4140   2.120   0.952   0.290
 1378TIP3    H2 4141   2.197   0.861   0.197
 1379TIP3   OH2 4142   5.302   4.471   4.612
 1379TIP3    H1 4143   5.225   4.528   4.609
 1379TIP3    H2 4144   5.337   4.475   4.523
 1380TIP3   OH2 4145   0.811   4.731   2.720
 1380TIP3    H1 4146   0.726   4.692   2.739
 1380TIP3    H2 4147   0.859   4.725   2.802
 1381TIP3   OH2 4148   4.888   2.154   4.948
 1381TIP3    H1 4149   4.888   2.220   4.878
 1381TIP3    H2 4150   4.890   2.070   4.902
 1382TIP3   OH2 4151   3.061   2.645   2.888
 1382TIP3    H1 4152   2.980   2.596   2.870
 1382TIP3    H2 4153   3.031   2.727   2.927
 1383TIP3   OH2 4154   5.104   2.604   4.638
 1383TIP3    H1 4155   5.109   2.653   4.556
 1383TIP3    H2 4156   5.193   2.608   4.673
 1384TIP3   OH2 4157   4.601   1.365   2.230
 1384TIP3    H1 4158   4.689   1.387   2.262
 1384TIP3    H2 4159   4.611   1.359   2.135
 1385TIP3   OH2 4160   1.096   5.857   2.033
 1385TIP3    H1 4161   1.170   5.897   2.079
 1385TIP3    H2 4162   1.125   5.768   2.013
 1386TIP3   OH2 4163   5.461   3.913   3.135
 1386TIP3    H1 4164   5.541   3.956   3.165
 1386TIP3    H2 4165   5.449   3.945   3.045
 1387TIP3   OH2 4166   1.273   3.136   2.388
 1387TIP3    H1 4167   1.270   3.048   2.427
 1387TIP3    H2 4168   1.244   3.194   2.458
 1388TIP3   OH2 4169   5.237   5.781   3.522
 1388TIP3    H1 4170   5.156   5.832   3.528
 1388TIP3    H2 4171   5.212   5.701   3.477
 1389TIP3   OH2 4172   3.016   5.171   2.123
 1389TIP3    H1 4173   2.952   5.130   2.064
 1389TIP3    H2 4174   3.101   5.151   2.083
 1390TIP3   OH2 4175   0.680   3.257   5.223
 1390TIP3    H1 4176   0.629   3.177   5.239
 1390TIP3    H2 4177   0.710   3.248   5.133
 1391TIP3   OH2 4178   0.347   2.345   1.439
 1391TIP3    H1 4179   0.270   2.301   1.405
 1391TIP3    H2 4180   0.335   2.345   1.534
 1392TIP3   OH2 4181   5.291   4.501   4.305
 1392TIP3    H1 4182   5.309   4.407   4.302
 1392TIP3    H2 4183   5.196   4.507   4.311
 1393TIP3   OH2 4184   4.247   0.253   4.337
 1393TIP3    H1 4185   4.240   0.162   4.364
 1393TIP3    H2 4186   4.308   0.292   4.399
 1394TIP3   OH2 4187   2.695   4.537   3.732
 1394TIP3    H1 4188   2.770   4.567   3.681
 1394TIP3    H2 4189   2.638   4.614   3.738
 1395TIP3   OH2 4190   3.210   2.640   4.360
 1395TIP3    H1 4191   3.185   2.576   4.427
 1395TIP3    H2 4192   3.135   2.646   4.302
 1396TIP3   OH2 4193   1.355   4.833   2.860
 1396TIP3    H1 4194   1.376   4.756   2.912
 1396TIP3    H2 4195   1.426   4.895   2.878
 1397TIP3   OH2 4196   0.478   4.470   5.086
 1397TIP3    H1 4197   0.515   4.426   5.010
 1397TIP3    H2 4198   0.518   4.426   5.162
 1398TIP3   OH2 4199   4.908   3.936   3.668
 1398TIP3    H1 4200   4.845   3.965   3.603
 1398TIP3    H2 4201   4.993   3.955   3.630
 1399TIP3   OH2 4202   5.123   3.412   2.457
 1399TIP3    H1 4203   5.212   3.402   2.424
 1399TIP3    H2 4204   5.068   3.412   2.378
 1400TIP3   OH2 4205   5.024   2.054   4.532
 1400TIP3    H1 4206   5.039   2.147   4.550
 1400TIP3    H2 4207   4.992   2.052   4.442
 1401TIP3   OH2 4208   4.838   2.496   1.215
 1401TIP3    H1 4209   4.757   2.525   1.172
 1401TIP3    H2 4210   4.881   2.440   1.151
 1402TIP3   OH2 4211   4.242   2.390   1.037
 1402TIP3    H1 4212   4.194   2.454   0.985
 1402TIP3    H2 4213   4.313   2.440   1.077
 1403TIP3   OH2 4214   4.446   0.190   2.558
 1403TIP3    H1 4215   4.423   0.125   2.492
 1403TIP3    H2 4216   4.362   0.227   2.585
 1404TIP3   OH2 4217   6.311   3.510   4.044
 1404TIP3    H1 4218   6.236   3.511   4.103
 1404TIP3    H2 4219   6.382   3.470   4.095
 1405TIP3   OH2 4220   0.098   0.863   4.743
 1405TIP3    H1 4221   0.082   0.924   4.816
 1405TIP3    H2 4222   0.069   0.778   4.777
 1406TIP3   OH2 4223   5.335   5.508   0.496
 1406TIP3    H1 4224   5.269   5.568   0.461
 1406TIP3    H2 4225   5.342   5.439   0.431
 1407TIP3   OH2 4226   1.061   5.976   4.658
 1407TIP3    H1 4227   1.137   5.998   4.711
 1407TIP3    H2 4228   1.092   5.906   4.600
 1408TIP3   OH2 4229   3.526   0.901   1.744
 1408TIP3    H1 4230   3.578   0.823   1.727
 1408TIP3    H2 4231   3.509   0.899   1.839
 1409TIP3   OH2 4232   1.899   5.659   1.057
 1409TIP3    H1 4233   1.859   5.606   0.988
 1409TIP3    H2 4234   1.991   5.633   1.056
 1410TIP3   OH2 4235   4.973   1.494   3.569
 1410TIP3    H1 4236   4.983   1.500   3.474
 1410TIP3    H2 4237   5.062   1.479   3.601
 1411TIP3   OH2 4238   2.078   0.176   1.320
 1411TIP3    H1 4239   2.100   0.253   1.268
 1411TIP3    H2 4240   2.034   0.211   1.397
 1412TIP3   OH2 4241   0.575   0.767   4.143
 1412TIP3    H1 4242   0.552   0.682   4.181
 1412TIP3    H2 4243   0.508   0.827   4.177
 1413TIP3   OH2 4244   0.662   0.879   3.898
 1413TIP3    H1 4245   0.649   0.817   3.969
 1413TIP3    H2 4246   0.609   0.955   3.922
 1414TIP3   OH2 4247   0.350   0.275   3.293
 1414TIP3    H1 4248   0.441   0.248   3.304
 1414TIP3    H2 4249   0.341   0.291   3.199
 1415TIP3   OH2 4250   2.281   4.037   1.289
 1415TIP3    H1 4251   2.348   4.088   1.243
 1415TIP3    H2 4252   2.200   4.083   1.270
 1416TIP3   OH2 4253   0.220   2.039   4.301
 1416TIP3    H1 4254   0.198   1.950   4.330
 1416TIP3    H2 4255   0.241   2.086   4.382
 1417TIP3   OH2 4256   0.727   0.155   2.600
 1417TIP3    H1 4257   0.635   0.130   2.593
 1417TIP3    H2 4258   0.725   0.242   2.641
 1418TIP3   OH2 4259   5.639   3.960   4.839
 1418TIP3    H1 4260   5.664   3.875   4.875
 1418TIP3    H2 4261   5.690   3.968   4.758
 1419TIP3   OH2 4262   2.698   5.744   1.112
 1419TIP3    H1 4263   2.655   5.705   1.035
 1419TIP3    H2 4264   2.786   5.709   1.110
 1420TIP3   OH2 4265   3.239   3.955   3.923
 1420TIP3    H1 4266   3.270   4.030   3.974
 1420TIP3    H2 4267   3.239   3.986   3.832
 1421TIP3   OH2 4268   2.098   3.192   2.198
 1421TIP3    H1 4269   2.040   3.268   2.192
 1421TIP3    H2 4270   2.078   3.154   2.283
 1422TIP3   OH2 4271   1.326   2.526   2.915
 1422TIP3    H1 4272   1.283   2.461   2.971
 1422TIP3    H2 4273   1.398   2.478   2.873
 1423TIP3   OH2 4274   1.653   5.826   4.236
 1423TIP3    H1 4275   1.644   5.792   4.325
 1423TIP3    H2 4276   1.684   5.752   4.185
 1424TIP3   OH2 4277   6.179   1.942   3.733
 1424TIP3    H1 4278   6.180   2.031   3.769
 1424TIP3    H2 4279   6.181   1.955   3.638
 1425TIP3   OH2 4280   4.014   0.297   1.781
 1425TIP3    H1 4281   4.073   0.221   1.777
 1425TIP3    H2 4282   4.070   0.370   1.808
 1426TIP3   OH2 4283   4.160   2.313   1.891
 1426TIP3    H1 4284   4.077   2.306   1.843
 1426TIP3    H2 4285   4.183   2.406   1.885
 1427TIP3   OH2 4286   4.596   2.460   1.908
 1427TIP3    H1 4287   4.554   2.482   1.826
 1427TIP3    H2 4288   4.526   2.427   1.964
 1428TIP3   OH2 4289   0.634   0.471   3.258
 1428TIP3    H1 4290   0.541   0.496   3.261
 1428TIP3    H2 4291   0.681   0.552   3.278
 1429TIP3   OH2 4292   2.474   0.813   4.593
 1429TIP3    H1 4293   2.526   0.868   4.652
 1429TIP3    H2 4294   2.538   0.767   4.540
 1430TIP3   OH2 4295   4.761   1.681   3.517
 1430TIP3    H1 4296   4.849   1.644   3.527
 1430TIP3    H2 4297   4.709   1.608   3.484
 1431TIP3   OH2 4298   0.372   0.107   4.330
 1431TIP3    H1 4299   0.288   0.152   4.332
 1431TIP3    H2 4300   0.349   0.016   4.307
 1432TIP3   OH2 4301   0.700   0.368   4.675
 1432TIP3    H1 4302   0.630   0.409   4.727
 1432TIP3    H2 4303   0.657   0.346   4.592
 1433TIP3   OH2 4304   5.070   4.414   2.014
 1433TIP3    H1 4305   5.138   4.468   2.054
 1433TIP3    H2 4306   5.108   4.387   1.930
 1434TIP3   OH2 4307   4.280   4.461   2.116
 1434TIP3    H1 4308   4.272   4.408   2.037
 1434TIP3    H2 4309   4.372   4.451   2.142
 1435TIP3   OH2 4310   1.773   5.381   2.064
 1435TIP3    H1 4311   1.796   5.338   1.981
 1435TIP3    H2 4312   1.742   5.468   2.038
 1436TIP3   OH2 4313   6.024   1.467   0.448
 1436TIP3    H1 4314   5.991   1.423   0.369
 1436TIP3    H2 4315   6.075   1.540   0.414
 1437TIP3   OH2 4316   2.597   0.804   0.597
 1437TIP3    H1 4317   2.584   0.842   0.510
 1437TIP3    H2 4318   2.691   0.809   0.611
 1438TIP3   OH2 4319   5.681   4.746   1.601
 1438TIP3    H1 4320   5.728   4.747   1.685
 1438TIP3    H2 4321   5.645   4.657   1.595
 1439TIP3   OH2 4322   4.382   4.402   3.110
 1439TIP3    H1 4323   4.340   4.414   3.196
 1439TIP3    H2 4324   4.326   4.338   3.066
 1440TIP3   OH2 4325   0.428   0.194   2.862
 1440TIP3    H1 4326   0.500   0.238   2.909
 1440TIP3    H2 4327   0.351   0.210   2.917
 1441TIP3   OH2 4328   1.397   1.534   0.287
 1441TIP3    H1 4329   1.433   1.517   0.200
 1441TIP3    H2 4330   1.433   1.465   0.342
 1442TIP3   OH2 4331   2.731   4.417   4.511
 1442TIP3    H1 4332   2.810   4.446   4.556
 1442TIP3    H2 4333   2.762   4.379   4.429
 1443TIP3   OH2 4334   1.756   0.134   2.561
 1443TIP3    H1 4335   1.695   0.065   2.588
 1443TIP3    H2 4336   1.830   0.087   2.523
 1444TIP3   OH2 4337   2.760   3.813   4.409
 1444TIP3    H1 4338   2.700   3.823   4.483
 1444TIP3    H2 4339   2.796   3.725   4.419
 1445TIP3   OH2 4340   4.876   4.796   0.819
 1445TIP3    H1 4341   4.830   4.847   0.752
 1445TIP3    H2 4342   4.827   4.813   0.900
 1446TIP3   OH2 4343   3.103   4.638   2.342
 1446TIP3    H1 4344   3.092   4.730   2.320
 1446TIP3    H2 4345   3.135   4.597   2.262
 1447TIP3   OH2 4346   6.274   5.014   1.180
 1447TIP3    H1 4347   6.332   5.040   1.109
 1447TIP3    H2 4348   6.263   5.094   1.233
 1448TIP3   OH2 4349   5.499   5.931   3.864
 1448TIP3    H1 4350   5.434   5.889   3.920
 1448TIP3    H2 4351   5.476   6.024   3.866
 1449TIP3   OH2 4352   3.309   0.268   2.828
 1449TIP3    H1 4353   3.359   0.296   2.905
 1449TIP3    H2 4354   3.357   0.304   2.754
 1450TIP3   OH2 4355   2.955   3.871   3.653
 1450TIP3    H1 4356   2.866   3.849   3.681
 1450TIP3    H2 4357   2.976   3.805   3.587
 1451TIP3   OH2 4358   0.145   2.621   2.563
 1451TIP3    H1 4359   0.208   2.676   2.517
 1451TIP3    H2 4360   0.175   2.620   2.654
 1452TIP3   OH2 4361   2.952   1.230   4.951
 1452TIP3    H1 4362   3.005   1.155   4.925
 1452TIP3    H2 4363   2.865   1.194   4.967
 1453TIP3   OH2 4364   4.121   2.432   3.121
 1453TIP3    H1 4365   4.037   2.396   3.090
 1453TIP3    H2 4366   4.096   2.496   3.188
 1454TIP3   OH2 4367   0.569   2.077   2.483
 1454TIP3    H1 4368   0.485   2.031   2.491
 1454TIP3    H2 4369   0.567   2.117   2.397
 1455TIP3   OH2 4370   0.882   2.628   3.935
 1455TIP3    H1 4371   0.847   2.545   3.965
 1455TIP3    H2 4372   0.861   2.690   4.005
 1456TIP3   OH2 4373   5.958   5.547   2.230
 1456TIP3    H1 4374   5.867   5.518   2.218
 1456TIP3    H2 4375   5.961   5.635   2.193
 1457TIP3   OH2 4376   5.612   5.150   3.459
 1457TIP3    H1 4377   5.612   5.081   3.524
 1457TIP3    H2 4378   5.704   5.163   3.437
 1458TIP3   OH2 4379   4.822   4.183   0.006
 1458TIP3    H1 4380   4.886   4.168   0.075
 1458TIP3    H2 4381   4.743   4.136   0.035
 1459TIP3   OH2 4382   6.327   4.654   4.432
 1459TIP3    H1 4383   6.395   4.643   4.365
 1459TIP3    H2 4384   6.262   4.712   4.391
 1460TIP3   OH2 4385   5.752   5.739   3.532
 1460TIP3    H1 4386   5.665   5.767   3.560
 1460TIP3    H2 4387   5.810   5.764   3.603
 1461TIP3   OH2 4388   5.391   3.277   4.892
 1461TIP3    H1 4389   5.435   3.200   4.855
 1461TIP3    H2 4390   5.298   3.254   4.890
 1462TIP3   OH2 4391   3.200   3.423   2.649
 1462TIP3    H1 4392   3.264   3.460   2.588
 1462TIP3    H2 4393   3.162   3.350   2.601
 1463TIP3   OH2 4394   6.333   3.841   2.190
 1463TIP3    H1 4395   6.400   3.873   2.130
 1463TIP3    H2 4396   6.275   3.788   2.135
 1464TIP3   OH2 4397   3.521   4.120   3.717
 1464TIP3    H1 4398   3.600   4.147   3.763
 1464TIP3    H2 4399   3.525   4.024   3.718
 1465TIP3   OH2 4400   0.088   0.304   1.755
 1465TIP3    H1 4401   0.028   0.230   1.751
 1465TIP3    H2 4402   0.053   0.360   1.824
 1466TIP3   OH2 4403   4.530   3.558   3.571
 1466TIP3    H1 4404   4.572   3.638   3.540
 1466TIP3    H2 4405   4.543   3.494   3.501
 1467TIP3   OH2 4406   3.780   3.384   2.809
 1467TIP3    H1 4407   3.758   3.428   2.892
 1467TIP3    H2 4408   3.737   3.299   2.815
 1468TIP3   OH2 4409   0.794   4.870   4.134
 1468TIP3    H1 4410   0.705   4.880   4.166
 1468TIP3    H2 4411   0.843   4.834   4.208
 1469TIP3   OH2 4412   0.566   4.492   2.479
 1469TIP3    H1 4413   0.566   4.531   2.566
 1469TIP3    H2 4414   0.658   4.496   2.451
 1470TIP3   OH2 4415   2.071   3.633   4.621
 1470TIP3    H1 4416   1.982   3.633   4.655
 1470TIP3    H2 4417   2.068   3.574   4.546
 1471TIP3   OH2 4418   2.478   5.698   1.269
 1471TIP3    H1 4419   2.461   5.618   1.218
 1471TIP3    H2 4420   2.547   5.743   1.219
 1472TIP3   OH2 4421   2.355   2.194   3.968
 1472TIP3    H1 4422   2.317   2.220   4.052
 1472TIP3    H2 4423   2.335   2.101   3.960
 1473TIP3   OH2 4424   3.637  -0.023   1.339
 1473TIP3    H1 4425   3.546   0.004   1.353
 1473TIP3    H2 4426   3.687   0.032   1.399
 1474TIP3   OH2 4427   0.308   1.331   2.336
 1474TIP3    H1 4428   0.298   1.276   2.258
 1474TIP3    H2 4429   0.229   1.385   2.338
 1475TIP3   OH2 4430   3.334   0.170   3.408
 1475TIP3    H1 4431   3.412   0.123   3.439
 1475TIP3    H2 4432   3.331   0.153   3.314
 1476TIP3   OH2 4433   1.014   2.476   0.196
 1476TIP3    H1 4434   1.107   2.465   0.173
 1476TIP3    H2 4435   1.016   2.510   0.286
 1477TIP3   OH2 4436   1.937   1.114   1.488
 1477TIP3    H1 4437   1.951   1.198   1.444
 1477TIP3    H2 4438   1.846   1.117   1.517
 1478TIP3   OH2 4439   3.200   2.811   3.385
 1478TIP3    H1 4440   3.260   2.826   3.458
 1478TIP3    H2 4441   3.208   2.717   3.367
 1479TIP3   OH2 4442   0.195   1.254   3.464
 1479TIP3    H1 4443   0.182   1.162   3.442
 1479TIP3    H2 4444   0.261   1.284   3.401
 1480TIP3   OH2 4445   2.477   1.912   3.751
 1480TIP3    H1 4446   2.447   1.968   3.822
 1480TIP3    H2 4447   2.564   1.883   3.778
 1481TIP3   OH2 4448   1.353   5.357   3.076
 1481TIP3    H1 4449   1.408   5.372   3.153
 1481TIP3    H2 4450   1.288   5.293   3.106
 1482TIP3   OH2 4451   0.668   1.284   5.007
 1482TIP3    H1 4452   0.712   1.369   5.010
 1482TIP3    H2 4453   0.614   1.287   4.928
 1483TIP3   OH2 4454   0.138   4.960   0.232
 1483TIP3    H1 4455   0.198   4.909   0.285
 1483TIP3    H2 4456   0.190   5.032   0.198
 1484TIP3   OH2 4457   3.279   4.480   3.384
 1484TIP3    H1 4458   3.290   4.482   3.289
 1484TIP3    H2 4459   3.287   4.388   3.407
 1485TIP3   OH2 4460   0.512   0.595   0.445
 1485TIP3    H1 4461   0.589   0.626   0.492
 1485TIP3    H2 4462   0.450   0.571   0.514
 1486TIP3   OH2 4463   3.687   3.031   4.421
 1486TIP3    H1 4464   3.640   2.968   4.366
 1486TIP3    H2 4465   3.779   3.006   4.413
 1487TIP3   OH2 4466   5.676   3.302   0.865
 1487TIP3    H1 4467   5.604   3.263   0.817
 1487TIP3    H2 4468   5.731   3.229   0.891
 1488TIP3   OH2 4469   2.693   4.244   3.167
 1488TIP3    H1 4470   2.654   4.241   3.080
 1488TIP3    H2 4471   2.775   4.197   3.159
 1489TIP3   OH2 4472   1.381   1.055   0.807
 1489TIP3    H1 4473   1.332   1.047   0.889
 1489TIP3    H2 4474   1.470   1.025   0.829
 1490TIP3   OH2 4475   6.136   5.475   4.646
 1490TIP3    H1 4476   6.179   5.560   4.637
 1490TIP3    H2 4477   6.204   5.411   4.626
 1491TIP3   OH2 4478   3.944   4.553   3.394
 1491TIP3    H1 4479   3.937   4.609   3.317
 1491TIP3    H2 4480   3.983   4.609   3.461
 1492TIP3   OH2 4481   2.682   1.329   0.426
 1492TIP3    H1 4482   2.617   1.399   0.430
 1492TIP3    H2 4483   2.767   1.373   0.431
 1493TIP3   OH2 4484   0.955   3.802   3.429
 1493TIP3    H1 4485   0.948   3.873   3.365
 1493TIP3    H2 4486   0.886   3.820   3.493
 1494TIP3   OH2 4487   0.993   1.618   4.012
 1494TIP3    H1 4488   0.992   1.538   4.064
 1494TIP3    H2 4489   1.084   1.630   3.987
 1495TIP3   OH2 4490   6.068   5.762   0.431
 1495TIP3    H1 4491   6.015   5.727   0.502
 1495TIP3    H2 4492   6.159   5.747   0.458
 1496TIP3   OH2 4493   0.783   0.681   4.723
 1496TIP3    H1 4494   0.769   0.775   4.735
 1496TIP3    H2 4495   0.761   0.666   4.631
 1497TIP3   OH2 4496   3.623   0.781   0.046
 1497TIP3    H1 4497   3.628   0.708   0.107
 1497TIP3    H2 4498   3.691   0.841   0.074
 1498TIP3   OH2 4499   0.226   0.784   2.461
 1498TIP3    H1 4500   0.132   0.797   2.455
 1498TIP3    H2 4501   0.255   0.772   2.371
 1499TIP3   OH2 4502   4.746   3.251   3.601
 1499TIP3    H1 4503   4.716   3.281   3.515
 1499TIP3    H2 4504   4.730   3.157   3.601
 1500TIP3   OH2 4505   1.436   1.700   4.740
 1500TIP3    H1 4506   1.387   1.631   4.695
 1500TIP3    H2 4507   1.493   1.737   4.672
 1501TIP3   OH2 4508   6.113   0.775   1.445
 1501TIP3    H1 4509   6.147   0.842   1.504
 1501TIP3    H2 4510   6.185   0.759   1.384
 1502TIP3   OH2 4511   4.418   5.062   2.934
 1502TIP3    H1 4512   4.391   5.139   2.984
 1502TIP3    H2 4513   4.348   4.998   2.950
 1503TIP3   OH2 4514   3.812   3.604   3.276
 1503TIP3    H1 4515   3.851   3.588   3.189
 1503TIP3    H2 4516   3.785   3.696   3.273
 1504TIP3   OH2 4517   1.935   1.779   3.275
 1504TIP3    H1 4518   1.912   1.865   3.239
 1504TIP3    H2 4519   2.030   1.777   3.275
 1505TIP3   OH2 4520   6.274   1.258   3.392
 1505TIP3    H1 4521   6.261   1.353   3.399
 1505TIP3    H2 4522   6.369   1.246   3.394
 1506TIP3   OH2 4523   5.453   2.234   3.488
 1506TIP3    H1 4524   5.517   2.218   3.558
 1506TIP3    H2 4525   5.370   2.249   3.534
 1507TIP3   OH2 4526   5.206   0.389   4.063
 1507TIP3    H1 4527   5.146   0.462   4.077
 1507TIP3    H2 4528   5.182   0.354   3.977
 1508TIP3   OH2 4529   3.592   2.283   4.003
 1508TIP3    H1 4530   3.675   2.331   4.005
 1508TIP3    H2 4531   3.528   2.344   4.039
 1509TIP3   OH2 4532   4.901   5.121   2.743
 1509TIP3    H1 4533   4.912   5.109   2.649
 1509TIP3    H2 4534   4.811   5.096   2.761
 1510TIP3   OH2 4535   6.048   2.554   0.217
 1510TIP3    H1 4536   6.069   2.474   0.266
 1510TIP3    H2 4537   6.132   2.584   0.184
 1511TIP3   OH2 4538   5.244   3.807   3.296
 1511TIP3    H1 4539   5.317   3.816   3.235
 1511TIP3    H2 4540   5.271   3.737   3.355
 1512TIP3   OH2 4541   0.675   4.997   0.201
 1512TIP3    H1 4542   0.693   5.077   0.152
 1512TIP3    H2 4543   0.680   5.024   0.293
 1513TIP3   OH2 4544   1.502   4.415   2.780
 1513TIP3    H1 4545   1.572   4.448   2.724
 1513TIP3    H2 4546   1.452   4.357   2.722
 1514TIP3   OH2 4547   0.541   4.880   4.263
 1514TIP3    H1 4548   0.577   4.802   4.304
 1514TIP3    H2 4549   0.528   4.942   4.335
 1515TIP3   OH2 4550   6.118   3.706   3.668
 1515TIP3    H1 4551   6.066   3.722   3.589
 1515TIP3    H2 4552   6.076   3.759   3.736
 1516TIP3   OH2 4553   4.997   5.786   3.793
 1516TIP3    H1 4554   5.020   5.694   3.782
 1516TIP3    H2 4555   4.923   5.800   3.735
 1517TIP3   OH2 4556   1.283   4.450   4.062
 1517TIP3    H1 4557   1.376   4.473   4.068
 1517TIP3    H2 4558   1.248   4.511   3.997
 1518TIP3   OH2 4559   3.467   5.642   2.141
 1518TIP3    H1 4560   3.479   5.732   2.170
 1518TIP3    H2 4561   3.379   5.640   2.103
 1519TIP3   OH2 4562   2.103   4.657   3.187
 1519TIP3    H1 4563   2.109   4.685   3.278
 1519TIP3    H2 4564   2.187   4.616   3.168
 1520TIP3   OH2 4565   2.908   4.787   4.998
 1520TIP3    H1 4566   2.902   4.880   5.023
 1520TIP3    H2 4567   2.868   4.740   5.071
 1521TIP3   OH2 4568   1.262   0.024   4.963
 1521TIP3    H1 4569   1.241   0.042   4.871
 1521TIP3    H2 4570   1.178   0.001   5.002
 1522TIP3   OH2 4571   6.228   5.960   0.806
 1522TIP3    H1 4572   6.134   5.978   0.799
 1522TIP3    H2 4573   6.245   5.960   0.900
 1523TIP3   OH2 4574   0.523   1.998   4.810
 1523TIP3    H1 4575   0.576   2.003   4.731
 1523TIP3    H2 4576   0.579   1.952   4.873
 1524TIP3   OH2 4577   4.520   2.115   2.158
 1524TIP3    H1 4578   4.499   2.186   2.098
 1524TIP3    H2 4579   4.481   2.142   2.241
 1525TIP3   OH2 4580   0.979   5.464   0.863
 1525TIP3    H1 4581   0.954   5.419   0.944
 1525TIP3    H2 4582   0.900   5.511   0.837
 1526TIP3   OH2 4583   5.614   1.734   1.953
 1526TIP3    H1 4584   5.647   1.795   1.888
 1526TIP3    H2 4585   5.633   1.647   1.916
 1527TIP3   OH2 4586   2.840   0.724   1.717
 1527TIP3    H1 4587   2.887   0.772   1.648
 1527TIP3    H2 4588   2.749   0.750   1.707
 1528TIP3   OH2 4589   6.013   0.107   0.747
 1528TIP3    H1 4590   6.091   0.072   0.792
 1528TIP3    H2 4591   5.996   0.190   0.791
 1529TIP3   OH2 4592   0.364   3.915   4.979
 1529TIP3    H1 4593   0.432   3.851   4.963
 1529TIP3    H2 4594   0.405   3.982   5.033
 1530TIP3   OH2 4595   3.672   4.363   3.075
 1530TIP3    H1 4596   3.698   4.438   3.022
 1530TIP3    H2 4597   3.631   4.303   3.012
 1531TIP3   OH2 4598   0.037   2.181   4.128
 1531TIP3    H1 4599   0.107   2.151   4.186
 1531TIP3    H2 4600  -0.024   2.228   4.185
 1532TIP3   OH2 4601   1.492   3.709   0.998
 1532TIP3    H1 4602   1.525   3.647   1.063
 1532TIP3    H2 4603   1.405   3.733   1.030
 1533TIP3   OH2 4604   3.230   5.423   0.763
 1533TIP3    H1 4605   3.184   5.490   0.713
 1533TIP3    H2 4606   3.317   5.420   0.723
 1534TIP3   OH2 4607   6.305   5.904   3.048
 1534TIP3    H1 4608   6.276   5.936   3.133
 1534TIP3    H2 4609   6.351   5.822   3.068
 1535TIP3   OH2 4610   1.599   3.833   4.699
 1535TIP3    H1 4611   1.551   3.782   4.634
 1535TIP3    H2 4612   1.541   3.905   4.721
 1536TIP3   OH2 4613   0.113   5.594   3.943
 1536TIP3    H1 4614   0.030   5.546   3.934
 1536TIP3    H2 4615   0.146   5.601   3.853
 1537TIP3   OH2 4616   1.235   4.576   3.830
 1537TIP3    H1 4617   1.193   4.644   3.777
 1537TIP3    H2 4618   1.262   4.510   3.766
 1538TIP3   OH2 4619   4.226   5.737   5.067
 1538TIP3    H1 4620   4.203   5.763   4.978
 1538TIP3    H2 4621   4.146   5.702   5.104
 1539TIP3   OH2 4622   3.664   0.958   3.991
 1539TIP3    H1 4623   3.621   0.884   4.033
 1539TIP3    H2 4624   3.607   0.981   3.917
 1540TIP3   OH2 4625   0.596   5.562   3.460
 1540TIP3    H1 4626   0.653   5.485   3.460
 1540TIP3    H2 4627   0.636   5.621   3.396
 1541TIP3   OH2 4628   2.051   4.684   0.755
 1541TIP3    H1 4629   2.067   4.608   0.699
 1541TIP3    H2 4630   1.957   4.700   0.747
 1542TIP3   OH2 4631   0.752   5.750   1.515
 1542TIP3    H1 4632   0.709   5.745   1.429
 1542TIP3    H2 4633   0.837   5.790   1.497
 1543TIP3   OH2 4634   6.299   5.958   1.109
 1543TIP3    H1 4635   6.291   6.047   1.145
 1543TIP3    H2 4636   6.356   5.912   1.170
 1544TIP3   OH2 4637   0.383   2.852   0.711
 1544TIP3    H1 4638   0.453   2.897   0.759
 1544TIP3    H2 4639   0.383   2.763   0.745
 1545TIP3   OH2 4640   4.111   3.650   5.071
 1545TIP3    H1 4641   4.135   3.673   4.981
 1545TIP3    H2 4642   4.180   3.590   5.099
 1546TIP3   OH2 4643   3.879   1.721   4.480
 1546TIP3    H1 4644   3.858   1.812   4.501
 1546TIP3    H2 4645   3.967   1.725   4.443
 1547TIP3   OH2 4646   6.079   2.471   1.477
 1547TIP3    H1 4647   6.130   2.504   1.551
 1547TIP3    H2 4648   6.013   2.538   1.462
 1548TIP3   OH2 4649   1.711   2.597   3.439
 1548TIP3    H1 4650   1.696   2.584   3.346
 1548TIP3    H2 4651   1.716   2.508   3.475
 1549TIP3   OH2 4652   4.857   1.971   2.872
 1549TIP3    H1 4653   4.944   1.934   2.890
 1549TIP3    H2 4654   4.844   2.037   2.939
 1550TIP3   OH2 4655   4.150   0.789   3.856
 1550TIP3    H1 4656   4.099   0.850   3.909
 1550TIP3    H2 4657   4.241   0.803   3.883
 1551TIP3   OH2 4658   1.803   4.647   1.837
 1551TIP3    H1 4659   1.741   4.582   1.804
 1551TIP3    H2 4660   1.863   4.597   1.894
 1552TIP3   OH2 4661   2.810   3.192   3.317
 1552TIP3    H1 4662   2.885   3.201   3.258
 1552TIP3    H2 4663   2.830   3.115   3.370
 1553TIP3   OH2 4664   1.843   5.571   3.889
 1553TIP3    H1 4665   1.913   5.506   3.895
 1553TIP3    H2 4666   1.804   5.557   3.802
 1554TIP3   OH2 4667   3.848   0.266   2.372
 1554TIP3    H1 4668   3.769   0.312   2.344
 1554TIP3    H2 4669   3.834   0.175   2.343
 1555TIP3   OH2 4670   3.736   2.791   2.693
 1555TIP3    H1 4671   3.768   2.726   2.756
 1555TIP3    H2 4672   3.683   2.741   2.632
 1556TIP3   OH2 4673   3.841   4.923   3.327
 1556TIP3    H1 4674   3.930   4.958   3.328
 1556TIP3    H2 4675   3.817   4.918   3.419
 1557TIP3   OH2 4676   1.357   4.284   3.598
 1557TIP3    H1 4677   1.316   4.199   3.617
 1557TIP3    H2 4678   1.291   4.332   3.548
 1558TIP3   OH2 4679   2.121   0.757   3.933
 1558TIP3    H1 4680   2.132   0.796   3.847
 1558TIP3    H2 4681   2.028   0.770   3.953
 1559TIP3   OH2 4682   2.543   0.155   2.740
 1559TIP3    H1 4683   2.521   0.062   2.749
 1559TIP3    H2 4684   2.459   0.200   2.747
 1560TIP3   OH2 4685   4.377   0.058   3.989
 1560TIP3    H1 4686   4.359   0.152   3.996
 1560TIP3    H2 4687   4.443   0.051   3.920
 1561TIP3   OH2 4688   1.460   2.471   1.097
 1561TIP3    H1 4689   1.405   2.548   1.080
 1561TIP3    H2 4690   1.400   2.407   1.136
 1562TIP3   OH2 4691   4.848   2.509   3.027
 1562TIP3    H1 4692   4.941   2.524   3.009
 1562TIP3    H2 4693   4.804   2.537   2.947
 1563TIP3   OH2 4694   0.439   3.136   3.030
 1563TIP3    H1 4695   0.360   3.175   2.992
 1563TIP3    H2 4696   0.483   3.093   2.956
 1564TIP3   OH2 4697   4.191   4.259   2.593
 1564TIP3    H1 4698   4.172   4.318   2.666
 1564TIP3    H2 4699   4.168   4.310   2.515
 1565TIP3   OH2 4700   0.218   1.776   1.461
 1565TIP3    H1 4701   0.251   1.691   1.432
 1565TIP3    H2 4702   0.206   1.826   1.380
 1566TIP3   OH2 4703   5.249   1.501   3.647
 1566TIP3    H1 4704   5.275   1.410   3.635
 1566TIP3    H2 4705   5.259   1.517   3.740
 1567TIP3   OH2 4706   0.740   3.857   0.064
 1567TIP3    H1 4707   0.714   3.854  -0.028
 1567TIP3    H2 4708   0.741   3.950   0.086
 1568TIP3   OH2 4709   0.532   0.281   4.452
 1568TIP3    H1 4710   0.493   0.285   4.540
 1568TIP3    H2 4711   0.472   0.225   4.402
 1569TIP3   OH2 4712   1.872   3.689   1.599
 1569TIP3    H1 4713   1.898   3.628   1.530
 1569TIP3    H2 4714   1.934   3.762   1.591
 1570TIP3   OH2 4715   5.119   3.533   0.290
 1570TIP3    H1 4716   5.144   3.623   0.270
 1570TIP3    H2 4717   5.121   3.488   0.206
 1571TIP3   OH2 4718  -0.010   0.674   3.304
 1571TIP3    H1 4719   0.066   0.692   3.247
 1571TIP3    H2 4720   0.014   0.594   3.351
 1572TIP3   OH2 4721   3.184   4.086   3.682
 1572TIP3    H1 4722   3.236   4.031   3.623
 1572TIP3    H2 4723   3.094   4.057   3.667
 1573TIP3   OH2 4724   0.731   3.417   0.009
 1573TIP3    H1 4725   0.732   3.396   0.102
 1573TIP3    H2 4726   0.722   3.333  -0.035
 1574TIP3   OH2 4727   0.990   2.723   4.737
 1574TIP3    H1 4728   0.991   2.629   4.754
 1574TIP3    H2 4729   1.059   2.758   4.794
 1575TIP3   OH2 4730   1.879   1.787   0.047
 1575TIP3    H1 4731   1.784   1.797   0.055
 1575TIP3    H2 4732   1.890   1.728  -0.028
 1576TIP3   OH2 4733   2.582   5.904   1.683
 1576TIP3    H1 4734   2.521   5.873   1.616
 1576TIP3    H2 4735   2.643   5.832   1.696
 1577TIP3   OH2 4736   1.531   4.578   1.929
 1577TIP3    H1 4737   1.536   4.547   1.839
 1577TIP3    H2 4738   1.497   4.503   1.978
 1578TIP3   OH2 4739   2.918   2.398   2.884
 1578TIP3    H1 4740   2.924   2.364   2.974
 1578TIP3    H2 4741   2.877   2.327   2.835
 1579TIP3   OH2 4742   2.286   0.341   2.409
 1579TIP3    H1 4743   2.331   0.339   2.324
 1579TIP3    H2 4744   2.231   0.420   2.406
 1580TIP3   OH2 4745   0.683   5.809   0.073
 1580TIP3    H1 4746   0.690   5.898   0.107
 1580TIP3    H2 4747   0.595   5.805   0.035
 1581TIP3   OH2 4748   0.156   0.488   3.436
 1581TIP3    H1 4749   0.192   0.402   3.415
 1581TIP3    H2 4750   0.081   0.470   3.492
 1582TIP3   OH2 4751   1.528   1.646   5.195
 1582TIP3    H1 4752   1.623   1.642   5.178
 1582TIP3    H2 4753   1.489   1.593   5.125
 1583TIP3   OH2 4754   1.892   2.480   0.548
 1583TIP3    H1 4755   1.812   2.427   0.546
 1583TIP3    H2 4756   1.954   2.431   0.493
 1584TIP3   OH2 4757   1.358   4.526   2.384
 1584TIP3    H1 4758   1.360   4.573   2.467
 1584TIP3    H2 4759   1.275   4.552   2.344
 1585TIP3   OH2 4760   5.228   1.291   1.686
 1585TIP3    H1 4761   5.300   1.262   1.629
 1585TIP3    H2 4762   5.258   1.268   1.774
 1586TIP3   OH2 4763   5.317   3.552   2.051
 1586TIP3    H1 4764   5.374   3.605   1.995
 1586TIP3    H2 4765   5.246   3.611   2.075
 1587TIP3   OH2 4766   4.240   2.236   2.693
 1587TIP3    H1 4767   4.319   2.205   2.648
 1587TIP3    H2 4768   4.239   2.187   2.775
 1588TIP3   OH2 4769   0.865   2.119   1.323
 1588TIP3    H1 4770   0.827   2.032   1.311
 1588TIP3    H2 4771   0.948   2.103   1.368
 1589TIP3   OH2 4772   5.765   2.672   4.950
 1589TIP3    H1 4773   5.783   2.653   4.858
 1589TIP3    H2 4774   5.785   2.765   4.960
 1590TIP3   OH2 4775   5.829   2.160   3.451
 1590TIP3    H1 4776   5.770   2.130   3.382
 1590TIP3    H2 4777   5.870   2.239   3.415
 1591TIP3   OH2 4778   2.385   3.776   2.614
 1591TIP3    H1 4779   2.306   3.753   2.565
 1591TIP3    H2 4780   2.353   3.835   2.683
 1592TIP3   OH2 4781   5.514   5.353   3.948
 1592TIP3    H1 4782   5.475   5.438   3.971
 1592TIP3    H2 4783   5.549   5.366   3.860
 1593TIP3   OH2 4784   3.014   0.740   3.187
 1593TIP3    H1 4785   3.082   0.708   3.128
 1593TIP3    H2 4786   3.034   0.833   3.199
 1594TIP3   OH2 4787   3.729   2.284   0.444
 1594TIP3    H1 4788   3.685   2.355   0.491
 1594TIP3    H2 4789   3.727   2.311   0.352
 1595TIP3   OH2 4790   4.666   5.929   5.175
 1595TIP3    H1 4791   4.668   5.865   5.103
 1595TIP3    H2 4792   4.584   5.976   5.164
 1596TIP3   OH2 4793   0.148   5.558   3.564
 1596TIP3    H1 4794   0.223   5.605   3.528
 1596TIP3    H2 4795   0.182   5.470   3.583
 1597TIP3   OH2 4796   3.380   5.711   1.435
 1597TIP3    H1 4797   3.314   5.649   1.404
 1597TIP3    H2 4798   3.329   5.783   1.472
 1598TIP3   OH2 4799   1.001   2.481   1.887
 1598TIP3    H1 4800   1.058   2.428   1.832
 1598TIP3    H2 4801   1.054   2.502   1.964
 1599TIP3   OH2 4802   2.985   0.627   4.893
 1599TIP3    H1 4803   3.057   0.655   4.837
 1599TIP3    H2 4804   3.009   0.538   4.920
 1600TIP3   OH2 4805   3.716   1.827   3.756
 1600TIP3    H1 4806   3.651   1.845   3.688
 1600TIP3    H2 4807   3.663   1.813   3.835
 1601TIP3   OH2 4808   5.022   0.550   1.522
 1601TIP3    H1 4809   4.981   0.487   1.582
 1601TIP3    H2 4810   5.010   0.512   1.435
 1602TIP3   OH2 4811   5.681   2.921   0.350
 1602TIP3    H1 4812   5.738   2.859   0.305
 1602TIP3    H2 4813   5.631   2.867   0.411
 1603TIP3   OH2 4814   6.154   2.415   0.771
 1603TIP3    H1 4815   6.145   2.320   0.781
 1603TIP3    H2 4816   6.082   2.440   0.715
 1604TIP3   OH2 4817   4.300   5.407   2.438
 1604TIP3    H1 4818   4.217   5.374   2.403
 1604TIP3    H2 4819   4.304   5.371   2.527
 1605TIP3   OH2 4820   2.461   0.809   2.650
 1605TIP3    H1 4821   2.514   0.827   2.572
 1605TIP3    H2 4822   2.515   0.750   2.702
 1606TIP3   OH2 4823   4.183   0.662   4.338
 1606TIP3    H1 4824   4.239   0.715   4.395
 1606TIP3    H2 4825   4.119   0.724   4.303
 1607TIP3   OH2 4826   0.125   2.503   1.940
 1607TIP3    H1 4827   0.145   2.547   2.022
 1607TIP3    H2 4828   0.158   2.414   1.951
 1608TIP3   OH2 4829   5.039   1.280   2.086
 1608TIP3    H1 4830   5.012   1.325   2.006
 1608TIP3    H2 4831   5.052   1.189   2.059
 1609TIP3   OH2 4832   1.629   0.312   2.778
 1609TIP3    H1 4833   1.570   0.245   2.812
 1609TIP3    H2 4834   1.662   0.276   2.696
 1610TIP3   OH2 4835   4.647   2.723   4.627
 1610TIP3    H1 4836   4.616   2.799   4.676
 1610TIP3    H2 4837   4.568   2.689   4.585
 1611TIP3   OH2 4838   4.232   6.024   4.468
 1611TIP3    H1 4839   4.288   6.033   4.391
 1611TIP3    H2 4840   4.199   5.934   4.463
 1612TIP3   OH2 4841   3.327   3.927   2.101
 1612TIP3    H1 4842   3.420   3.908   2.089
 1612TIP3    H2 4843   3.316   4.013   2.061
 1613TIP3   OH2 4844   0.070   0.521   1.295
 1613TIP3    H1 4845   0.140   0.505   1.232
 1613TIP3    H2 4846   0.099   0.477   1.374
 1614TIP3   OH2 4847   1.823   2.410   3.190
 1614TIP3    H1 4848   1.814   2.320   3.157
 1614TIP3    H2 4849   1.898   2.407   3.249
 1615TIP3   OH2 4850   4.322   0.854   4.478
 1615TIP3    H1 4851   4.326   0.943   4.513
 1615TIP3    H2 4852   4.402   0.812   4.509
 1616TIP3   OH2 4853   5.882   3.671   2.992
 1616TIP3    H1 4854   5.906   3.735   3.060
 1616TIP3    H2 4855   5.852   3.724   2.919
 1617TIP3   OH2 4856   3.890   2.659   4.262
 1617TIP3    H1 4857   3.798   2.671   4.288
 1617TIP3    H2 4858   3.891   2.574   4.219
 1618TIP3   OH2 4859   3.617   5.690   3.306
 1618TIP3    H1 4860   3.638   5.610   3.355
 1618TIP3    H2 4861   3.702   5.727   3.284
 1619TIP3   OH2 4862   3.658   3.421   3.432
 1619TIP3    H1 4863   3.689   3.488   3.370
 1619TIP3    H2 4864   3.622   3.471   3.505
 1620TIP3   OH2 4865   0.345   1.793   0.933
 1620TIP3    H1 4866   0.418   1.797   0.872
 1620TIP3    H2 4867   0.276   1.845   0.892
 1621TIP3   OH2 4868   2.296   4.878   0.692
 1621TIP3    H1 4869   2.365   4.841   0.638
 1621TIP3    H2 4870   2.262   4.804   0.742
 1622TIP3   OH2 4871   1.627   4.356   1.321
 1622TIP3    H1 4872   1.628   4.275   1.270
 1622TIP3    H2 4873   1.597   4.329   1.408
 1623TIP3   OH2 4874   1.579   5.353   4.663
 1623TIP3    H1 4875   1.658   5.406   4.670
 1623TIP3    H2 4876   1.578   5.323   4.572
 1624TIP3   OH2 4877   1.666   5.419   0.329
 1624TIP3    H1 4878   1.643   5.470   0.406
 1624TIP3    H2 4879   1.757   5.444   0.311
 1625TIP3   OH2 4880   0.925   4.816   1.796
 1625TIP3    H1 4881   0.930   4.722   1.779
 1625TIP3    H2 4882   1.004   4.852   1.755
 1626TIP3   OH2 4883   6.207   1.479   4.478
 1626TIP3    H1 4884   6.203   1.391   4.516
 1626TIP3    H2 4885   6.301   1.497   4.470
 1627TIP3   OH2 4886   6.174   1.121   0.817
 1627TIP3    H1 4887   6.084   1.115   0.784
 1627TIP3    H2 4888   6.193   1.033   0.850
 1628TIP3   OH2 4889   0.200   0.709   2.721
 1628TIP3    H1 4890   0.227   0.718   2.630
 1628TIP3    H2 4891   0.196   0.799   2.754
 1629TIP3   OH2 4892   3.784   5.023   4.464
 1629TIP3    H1 4893   3.833   4.957   4.414
 1629TIP3    H2 4894   3.850   5.087   4.490
 1630TIP3   OH2 4895   4.342   2.956   2.161
 1630TIP3    H1 4896   4.385   2.945   2.245
 1630TIP3    H2 4897   4.360   2.874   2.114
 1631TIP3   OH2 4898   1.281   0.533   1.034
 1631TIP3    H1 4899   1.366   0.575   1.018
 1631TIP3    H2 4900   1.218   0.589   0.990
 1632TIP3   OH2 4901   3.665   0.612   1.975
 1632TIP3    H1 4902   3.755   0.585   1.992
 1632TIP3    H2 4903   3.663   0.630   1.881
 1633TIP3   OH2 4904   3.062   4.298   3.956
 1633TIP3    H1 4905   3.021   4.214   3.935
 1633TIP3    H2 4906   3.005   4.336   4.023
 1634TIP3   OH2 4907   3.438   2.347   4.640
 1634TIP3    H1 4908   3.370   2.366   4.705
 1634TIP3    H2 4909   3.402   2.378   4.557
 1635TIP3   OH2 4910   1.295   0.144   1.528
 1635TIP3    H1 4911   1.324   0.070   1.581
 1635TIP3    H2 4912   1.317   0.221   1.580
 1636TIP3   OH2 4913   1.601   3.445   1.102
 1636TIP3    H1 4914   1.620   3.354   1.122
 1636TIP3    H2 4915   1.562   3.443   1.015
 1637TIP3   OH2 4916   4.147   3.989   2.696
 1637TIP3    H1 4917   4.136   4.081   2.674
 1637TIP3    H2 4918   4.100   3.942   2.628
 1638TIP3   OH2 4919   1.987   1.306   3.277
 1638TIP3    H1 4920   2.034   1.295   3.360
 1638TIP3    H2 4921   1.895   1.293   3.300
 1639TIP3   OH2 4922   5.043   5.827   1.897
 1639TIP3    H1 4923   5.001   5.804   1.814
 1639TIP3    H2 4924   5.050   5.743   1.944
 1640TIP3   OH2 4925   3.963   0.517   4.887
 1640TIP3    H1 4926   4.026   0.578   4.849
 1640TIP3    H2 4927   3.929   0.563   4.964
 1641TIP3   OH2 4928   5.673   1.237   3.113
 1641TIP3    H1 4929   5.706   1.246   3.202
 1641TIP3    H2 4930   5.615   1.161   3.116
 1642TIP3   OH2 4931   4.451   3.106   0.676
 1642TIP3    H1 4932   4.438   3.201   0.677
 1642TIP3    H2 4933   4.364   3.069   0.692
 1643TIP3   OH2 4934   6.036   3.851   3.899
 1643TIP3    H1 4935   6.108   3.843   3.962
 1643TIP3    H2 4936   5.991   3.932   3.924
 1644TIP3   OH2 4937   2.526   1.059   2.759
 1644TIP3    H1 4938   2.605   1.028   2.805
 1644TIP3    H2 4939   2.480   0.979   2.736
 1645TIP3   OH2 4940   6.125   5.391   2.685
 1645TIP3    H1 4941   6.074   5.378   2.606
 1645TIP3    H2 4942   6.111   5.311   2.736
 1646TIP3   OH2 4943   2.044   0.256   3.259
 1646TIP3    H1 4944   2.011   0.316   3.192
 1646TIP3    H2 4945   2.137   0.245   3.237
 1647TIP3   OH2 4946   1.064   3.240   4.321
 1647TIP3    H1 4947   1.128   3.169   4.314
 1647TIP3    H2 4948   1.086   3.283   4.404
 1648TIP3   OH2 4949   2.586   5.811   2.150
 1648TIP3    H1 4950   2.644   5.750   2.195
 1648TIP3    H2 4951   2.619   5.898   2.174
 1649TIP3   OH2 4952   6.197   5.001   1.799
 1649TIP3    H1 4953   6.158   5.087   1.784
 1649TIP3    H2 4954   6.135   4.940   1.759
 1650TIP3   OH2 4955   4.211   4.366   4.458
 1650TIP3    H1 4956   4.235   4.274   4.452
 1650TIP3    H2 4957   4.237   4.392   4.546
 1651TIP3   OH2 4958   3.771   3.293   4.403
 1651TIP3    H1 4959   3.746   3.201   4.409
 1651TIP3    H2 4960   3.866   3.292   4.388
 1652TIP3   OH2 4961   5.042   4.251   3.629
 1652TIP3    H1 4962   5.046   4.166   3.674
 1652TIP3    H2 4963   4.954   4.284   3.648
 1653TIP3   OH2 4964   3.860   4.333   2.817
 1653TIP3    H1 4965   3.799   4.397   2.783
 1653TIP3    H2 4966   3.809   4.253   2.827
 1654TIP3   OH2 4967   1.761   5.095   3.810
 1654TIP3    H1 4968   1.830   5.073   3.748
 1654TIP3    H2 4969   1.798   5.076   3.896
 1655TIP3   OH2 4970   4.174   2.580   1.963
 1655TIP3    H1 4971   4.128   2.592   1.880
 1655TIP3    H2 4972   4.244   2.645   1.961
 1656TIP3   OH2 4973   6.357   2.258   4.744
 1656TIP3    H1 4974   6.344   2.264   4.839
 1656TIP3    H2 4975   6.352   2.165   4.725
 1657TIP3   OH2 4976   1.271   1.554   4.003
 1657TIP3    H1 4977   1.299   1.540   4.093
 1657TIP3    H2 4978   1.350   1.541   3.951
 1658TIP3   OH2 4979   2.972   3.816   1.549
 1658TIP3    H1 4980   3.042   3.822   1.613
 1658TIP3    H2 4981   2.908   3.882   1.576
 1659TIP3   OH2 4982   2.108   2.169   3.765
 1659TIP3    H1 4983   2.081   2.172   3.673
 1659TIP3    H2 4984   2.204   2.174   3.761
 1660TIP3   OH2 4985   2.820   1.980   2.996
 1660TIP3    H1 4986   2.792   1.902   3.045
 1660TIP3    H2 4987   2.841   1.947   2.909
 1661TIP3   OH2 4988   2.772   0.646   3.069
 1661TIP3    H1 4989   2.833   0.700   3.119
 1661TIP3    H2 4990   2.823   0.613   2.995
 1662TIP3   OH2 4991   2.956   3.366   2.834
 1662TIP3    H1 4992   2.878   3.327   2.796
 1662TIP3    H2 4993   2.953   3.458   2.807
 1663TIP3   OH2 4994   1.824   5.982   4.471
 1663TIP3    H1 4995   1.738   6.008   4.503
 1663TIP3    H2 4996   1.819   5.886   4.465
 1664TIP3   OH2 4997   1.715   3.961   0.139
 1664TIP3    H1 4998   1.631   3.923   0.116
 1664TIP3    H2 4999   1.707   3.984   0.231
 1665TIP3   OH2 5000   0.225   4.446   0.948
 1665TIP3    H1 5001   0.168   4.503   0.896
 1665TIP3    H2 5002   0.164   4.391   0.997
 1666TIP3   OH2 5003   1.819   4.367   2.133
 1666TIP3    H1 5004   1.882   4.438   2.127
 1666TIP3    H2 5005   1.782   4.360   2.045
 1667TIP3   OH2 5006   4.579   2.913   0.475
 1667TIP3    H1 5007   4.549   2.991   0.521
 1667TIP3    H2 5008   4.532   2.841   0.517
 1668TIP3   OH2 5009   2.265   1.697   2.537
 1668TIP3    H1 5010   2.347   1.733   2.570
 1668TIP3    H2 5011   2.280   1.602   2.533
 1669TIP3   OH2 5012   1.437   1.524   3.051
 1669TIP3    H1 5013   1.495   1.461   3.096
 1669TIP3    H2 5014   1.497   1.578   2.999
 1670TIP3   OH2 5015   0.464   1.120   4.004
 1670TIP3    H1 5016   0.371   1.130   4.024
 1670TIP3    H2 5017   0.504   1.093   4.087
 1671TIP3   OH2 5018   5.902   5.678   3.125
 1671TIP3    H1 5019   5.929   5.610   3.187
 1671TIP3    H2 5020   5.934   5.760   3.163
 1672TIP3   OH2 5021   5.573   2.580   3.648
 1672TIP3    H1 5022   5.605   2.633   3.721
 1672TIP3    H2 5023   5.643   2.516   3.632
 1673TIP3   OH2 5024   3.640   2.842   1.317
 1673TIP3    H1 5025   3.689   2.916   1.283
 1673TIP3    H2 5026   3.552   2.851   1.280
 1674TIP3   OH2 5027   3.442   2.311   0.244
 1674TIP3    H1 5028   3.521   2.357   0.215
 1674TIP3    H2 5029   3.370   2.369   0.223
 1675TIP3   OH2 5030   5.491   3.101   0.784
 1675TIP3    H1 5031   5.470   3.058   0.867
 1675TIP3    H2 5032   5.552   3.042   0.741
 1676TIP3   OH2 5033   1.397   4.795   2.183
 1676TIP3    H1 5034   1.371   4.731   2.117
 1676TIP3    H2 5035   1.491   4.781   2.195
 1677TIP3   OH2 5036   1.392   3.443   1.762
 1677TIP3    H1 5037   1.353   3.377   1.819
 1677TIP3    H2 5038   1.459   3.485   1.817
 1678TIP3   OH2 5039   2.417   3.624   1.613
 1678TIP3    H1 5040   2.387   3.542   1.575
 1678TIP3    H2 5041   2.495   3.647   1.564
 1679TIP3   OH2 5042   4.447   2.070   0.765
 1679TIP3    H1 5043   4.356   2.078   0.735
 1679TIP3    H2 5044   4.479   2.160   0.765
 1680TIP3   OH2 5045   1.594   3.557   0.058
 1680TIP3    H1 5046   1.603   3.588   0.148
 1680TIP3    H2 5047   1.572   3.465   0.066
 1681TIP3   OH2 5048   1.005   3.246   0.683
 1681TIP3    H1 5049   1.023   3.324   0.630
 1681TIP3    H2 5050   1.047   3.174   0.636
 1682TIP3   OH2 5051   4.035   2.209   3.965
 1682TIP3    H1 5052   4.090   2.152   4.018
 1682TIP3    H2 5053   4.094   2.248   3.901
 1683TIP3   OH2 5054   5.437   3.850   4.350
 1683TIP3    H1 5055   5.404   3.902   4.276
 1683TIP3    H2 5056   5.367   3.787   4.368
 1684TIP3   OH2 5057   2.003  -0.026   4.772
 1684TIP3    H1 5058   1.984   0.068   4.781
 1684TIP3    H2 5059   1.953  -0.053   4.695
 1685TIP3   OH2 5060   1.496   2.720   0.952
 1685TIP3    H1 5061   1.544   2.739   0.871
 1685TIP3    H2 5062   1.533   2.637   0.983
 1686TIP3   OH2 5063   3.680   4.436   1.946
 1686TIP3    H1 5064   3.708   4.417   2.036
 1686TIP3    H2 5065   3.731   4.376   1.892
 1687TIP3   OH2 5066   4.720   3.184   4.852
 1687TIP3    H1 5067   4.697   3.144   4.768
 1687TIP3    H2 5068   4.732   3.277   4.831
 1688TIP3   OH2 5069   6.095   2.369   3.598
 1688TIP3    H1 5070   6.139   2.444   3.558
 1688TIP3    H2 5071   6.020   2.353   3.542
 1689TIP3   OH2 5072   0.059   2.393   2.424
 1689TIP3    H1 5073   0.130   2.330   2.434
 1689TIP3    H2 5074   0.090   2.471   2.469
 1690TIP3   OH2 5075   3.284   4.721   4.385
 1690TIP3    H1 5076   3.226   4.651   4.354
 1690TIP3    H2 5077   3.225   4.783   4.428
 1691TIP3   OH2 5078   2.191   4.785   4.731
 1691TIP3    H1 5079   2.126   4.854   4.744
 1691TIP3    H2 5080   2.200   4.778   4.636
 1692TIP3   OH2 5081   1.690   5.845   3.110
 1692TIP3    H1 5082   1.634   5.823   3.185
 1692TIP3    H2 5083   1.676   5.775   3.047
 1693TIP3   OH2 5084   5.711   3.650   1.448
 1693TIP3    H1 5085   5.797   3.658   1.491
 1693TIP3    H2 5086   5.674   3.569   1.483
 1694TIP3   OH2 5087   5.328   3.468   4.192
 1694TIP3    H1 5088   5.279   3.438   4.269
 1694TIP3    H2 5089   5.418   3.477   4.223
 1695TIP3   OH2 5090   3.887   2.902   1.499
 1695TIP3    H1 5091   3.904   2.873   1.409
 1695TIP3    H2 5092   3.893   2.998   1.494
 1696TIP3   OH2 5093   1.280   1.698   2.212
 1696TIP3    H1 5094   1.352   1.735   2.161
 1696TIP3    H2 5095   1.283   1.745   2.295
 1697TIP3   OH2 5096   0.689   2.477   1.394
 1697TIP3    H1 5097   0.783   2.492   1.390
 1697TIP3    H2 5098   0.669   2.430   1.314
 1698TIP3   OH2 5099   0.861   5.149   1.399
 1698TIP3    H1 5100   0.925   5.080   1.412
 1698TIP3    H2 5101   0.841   5.147   1.305
 1699TIP3   OH2 5102   2.843   1.567   3.647
 1699TIP3    H1 5103   2.837   1.534   3.736
 1699TIP3    H2 5104   2.918   1.628   3.648
 1700TIP3   OH2 5105   6.174   3.804   0.105
 1700TIP3    H1 5106   6.095   3.763   0.141
 1700TIP3    H2 5107   6.227   3.826   0.182
 1701TIP3   OH2 5108   1.450   4.456   4.323
 1701TIP3    H1 5109   1.382   4.493   4.380
 1701TIP3    H2 5110   1.489   4.533   4.280
 1702TIP3   OH2 5111   1.861   1.323   4.581
 1702TIP3    H1 5112   1.834   1.412   4.606
 1702TIP3    H2 5113   1.922   1.296   4.650
 1703TIP3   OH2 5114   2.102   1.077   3.945
 1703TIP3    H1 5115   2.017   1.039   3.920
 1703TIP3    H2 5116   2.150   1.083   3.863
 1704TIP3   OH2 5117   4.930   4.053   4.638
 1704TIP3    H1 5118   4.892   3.973   4.600
 1704TIP3    H2 5119   5.023   4.048   4.615
 1705TIP3   OH2 5120   5.273   2.580   4.942
 1705TIP3    H1 5121   5.346   2.554   4.999
 1705TIP3    H2 5122   5.314   2.595   4.857
 1706TIP3   OH2 5123   2.158   5.032   0.094
 1706TIP3    H1 5124   2.149   5.034  -0.001
 1706TIP3    H2 5125   2.251   5.015   0.109
 1707TIP3   OH2 5126   6.275   1.806   2.134
 1707TIP3    H1 5127   6.221   1.806   2.212
 1707TIP3    H2 5128   6.286   1.714   2.111
 1708TIP3   OH2 5129   2.975   1.024   2.212
 1708TIP3    H1 5130   2.954   0.955   2.149
 1708TIP3    H2 5131   2.999   0.976   2.291
 1709TIP3   OH2 5132   3.136   0.428   3.074
 1709TIP3    H1 5133   3.143   0.504   3.016
 1709TIP3    H2 5134   3.221   0.385   3.069
 1710TIP3   OH2 5135   5.151   5.793   0.104
 1710TIP3    H1 5136   5.065   5.834   0.099
 1710TIP3    H2 5137   5.133   5.700   0.117
 1711TIP3   OH2 5138   0.156   0.227   1.104
 1711TIP3    H1 5139   0.205   0.299   1.064
 1711TIP3    H2 5140   0.197   0.148   1.068
 1712TIP3   OH2 5141   0.015   5.575   3.301
 1712TIP3    H1 5142  -0.030   5.546   3.222
 1712TIP3    H2 5143   0.093   5.520   3.307
 1713TIP3   OH2 5144   3.889   1.717   0.287
 1713TIP3    H1 5145   3.815   1.778   0.283
 1713TIP3    H2 5146   3.956   1.764   0.336
 1714TIP3   OH2 5147   4.338   1.304   1.705
 1714TIP3    H1 5148   4.395   1.346   1.640
 1714TIP3    H2 5149   4.397   1.257   1.763
 1715TIP3   OH2 5150   1.388   3.462   2.438
 1715TIP3    H1 5151   1.309   3.445   2.488
 1715TIP3    H2 5152   1.456   3.478   2.504
 1716TIP3   OH2 5153   6.103   0.389   0.610
 1716TIP3    H1 5154   6.012   0.362   0.602
 1716TIP3    H2 5155   6.100   0.485   0.605
 1717TIP3   OH2 5156   0.214   3.995   2.370
 1717TIP3    H1 5157   0.215   3.963   2.280
 1717TIP3    H2 5158   0.304   3.987   2.400
 1718TIP3   OH2 5159   3.936   5.263   3.181
 1718TIP3    H1 5160   3.892   5.256   3.266
 1718TIP3    H2 5161   4.012   5.205   3.188
 1719TIP3   OH2 5162   3.728   0.774   3.122
 1719TIP3    H1 5163   3.801   0.791   3.181
 1719TIP3    H2 5164   3.677   0.855   3.121
 1720TIP3   OH2 5165   5.581   4.175   2.621
 1720TIP3    H1 5166   5.658   4.222   2.655
 1720TIP3    H2 5167   5.507   4.228   2.649
 1721TIP3   OH2 5168   2.375   3.120   5.221
 1721TIP3    H1 5169   2.382   3.215   5.223
 1721TIP3    H2 5170   2.303   3.102   5.160
 1722TIP3   OH2 5171   1.690   2.168   4.238
 1722TIP3    H1 5172   1.762   2.105   4.236
 1722TIP3    H2 5173   1.676   2.191   4.146
 1723TIP3   OH2 5174   3.649   2.012   4.297
 1723TIP3    H1 5175   3.738   2.011   4.333
 1723TIP3    H2 5176   3.607   1.935   4.337
 1724TIP3   OH2 5177   0.472   2.251   0.446
 1724TIP3    H1 5178   0.521   2.240   0.527
 1724TIP3    H2 5179   0.431   2.165   0.431
 1725TIP3   OH2 5180   4.744   1.411   2.554
 1725TIP3    H1 5181   4.652   1.411   2.579
 1725TIP3    H2 5182   4.752   1.339   2.491
 1726TIP3   OH2 5183   2.057   2.410   4.640
 1726TIP3    H1 5184   2.140   2.457   4.638
 1726TIP3    H2 5185   1.991   2.479   4.632
 1727TIP3   OH2 5186   0.256   0.284   3.651
 1727TIP3    H1 5187   0.320   0.354   3.640
 1727TIP3    H2 5188   0.257   0.238   3.567
 1728TIP3   OH2 5189   4.283   1.608   1.820
 1728TIP3    H1 5190   4.286   1.539   1.886
 1728TIP3    H2 5191   4.360   1.662   1.839
 1729TIP3   OH2 5192   3.139   2.208   2.183
 1729TIP3    H1 5193   3.190   2.146   2.235
 1729TIP3    H2 5194   3.185   2.213   2.099
 1730TIP3   OH2 5195   3.586   5.619   4.484
 1730TIP3    H1 5196   3.552   5.578   4.564
 1730TIP3    H2 5197   3.528   5.694   4.469
 1731TIP3   OH2 5198   2.880   2.187   2.710
 1731TIP3    H1 5199   2.929   2.160   2.632
 1731TIP3    H2 5200   2.797   2.221   2.675
 1732TIP3   OH2 5201   4.146   3.273   5.181
 1732TIP3    H1 5202   4.136   3.252   5.089
 1732TIP3    H2 5203   4.161   3.189   5.224
 1733TIP3   OH2 5204   0.268   3.441   4.567
 1733TIP3    H1 5205   0.253   3.358   4.522
 1733TIP3    H2 5206   0.359   3.438   4.596
 1734TIP3   OH2 5207   5.624   4.451   4.959
 1734TIP3    H1 5208   5.565   4.376   4.958
 1734TIP3    H2 5209   5.668   4.447   5.044
 1735TIP3   OH2 5210   1.784   3.083   4.037
 1735TIP3    H1 5211   1.864   3.054   4.081
 1735TIP3    H2 5212   1.714   3.069   4.100
 1736TIP3   OH2 5213   5.853   2.602   4.687
 1736TIP3    H1 5214   5.876   2.592   4.594
 1736TIP3    H2 5215   5.773   2.550   4.697
 1737TIP3   OH2 5216   6.082   3.097   3.417
 1737TIP3    H1 5217   6.148   3.057   3.360
 1737TIP3    H2 5218   6.130   3.164   3.466
 1738TIP3   OH2 5219   5.864   2.114   1.865
 1738TIP3    H1 5220   5.926   2.043   1.857
 1738TIP3    H2 5221   5.889   2.159   1.946
 1739TIP3   OH2 5222   0.940   5.927   1.762
 1739TIP3    H1 5223   0.875   5.877   1.811
 1739TIP3    H2 5224   0.984   5.861   1.708
 1740TIP3   OH2 5225   2.241   4.704   5.001
 1740TIP3    H1 5226   2.197   4.754   5.069
 1740TIP3    H2 5227   2.231   4.757   4.922
 1741TIP3   OH2 5228   2.555   3.275   3.322
 1741TIP3    H1 5229   2.548   3.362   3.285
 1741TIP3    H2 5230   2.648   3.253   3.316
 1742TIP3   OH2 5231   0.101   3.955   3.585
 1742TIP3    H1 5232   0.068   3.944   3.496
 1742TIP3    H2 5233   0.101   4.050   3.599
 1743TIP3   OH2 5234   0.866   4.117   1.325
 1743TIP3    H1 5235   0.785   4.151   1.287
 1743TIP3    H2 5236   0.840   4.034   1.366
 1744TIP3   OH2 5237   5.246   0.730   4.171
 1744TIP3    H1 5238   5.215   0.648   4.209
 1744TIP3    H2 5239   5.341   0.726   4.178
 1745TIP3   OH2 5240   3.503   2.048   1.466
 1745TIP3    H1 5241   3.532   2.056   1.557
 1745TIP3    H2 5242   3.584   2.036   1.416
 1746TIP3   OH2 5243   2.261   4.988   4.984
 1746TIP3    H1 5244   2.175   4.970   4.946
 1746TIP3    H2 5245   2.250   4.974   5.078
 1747TIP3   OH2 5246   0.577   3.915   3.323
 1747TIP3    H1 5247   0.531   3.942   3.403
 1747TIP3    H2 5248   0.670   3.920   3.346
 1748TIP3   OH2 5249   5.898   1.209   0.811
 1748TIP3    H1 5250   5.873   1.296   0.839
 1748TIP3    H2 5251   5.826   1.152   0.840
 1749TIP3   OH2 5252   2.357   3.963   3.784
 1749TIP3    H1 5253   2.424   4.020   3.746
 1749TIP3    H2 5254   2.300   4.022   3.833
 1750TIP3   OH2 5255   1.181   4.873   0.104
 1750TIP3    H1 5256   1.107   4.933   0.115
 1750TIP3    H2 5257   1.228   4.878   0.187
 1751TIP3   OH2 5258   2.639   4.199   2.912
 1751TIP3    H1 5259   2.550   4.164   2.921
 1751TIP3    H2 5260   2.629   4.277   2.858
 1752TIP3   OH2 5261   2.648   2.790   2.880
 1752TIP3    H1 5262   2.570   2.846   2.881
 1752TIP3    H2 5263   2.636   2.735   2.802
 1753TIP3   OH2 5264   3.593   0.544   3.219
 1753TIP3    H1 5265   3.641   0.607   3.164
 1753TIP3    H2 5266   3.560   0.596   3.292
 1754TIP3   OH2 5267   3.044   1.821   1.562
 1754TIP3    H1 5268   2.999   1.867   1.633
 1754TIP3    H2 5269   3.123   1.873   1.547
 1755TIP3   OH2 5270   4.784   4.914   1.940
 1755TIP3    H1 5271   4.792   4.984   2.004
 1755TIP3    H2 5272   4.837   4.942   1.866
 1756TIP3   OH2 5273   2.502   3.053   0.454
 1756TIP3    H1 5274   2.512   3.111   0.379
 1756TIP3    H2 5275   2.590   3.022   0.473
 1757TIP3   OH2 5276   3.128   1.325   4.057
 1757TIP3    H1 5277   3.069   1.356   4.126
 1757TIP3    H2 5278   3.179   1.403   4.033
 1758TIP3   OH2 5279   2.223   0.948   2.062
 1758TIP3    H1 5280   2.192   0.997   1.986
 1758TIP3    H2 5281   2.201   0.857   2.043
 1759TIP3   OH2 5282   4.301   5.231   2.653
 1759TIP3    H1 5283   4.273   5.203   2.740
 1759TIP3    H2 5284   4.372   5.171   2.630
 1760TIP3   OH2 5285   1.484   3.115   2.683
 1760TIP3    H1 5286   1.445   3.049   2.626
 1760TIP3    H2 5287   1.448   3.097   2.770
 1761TIP3   OH2 5288   1.558   0.202   4.629
 1761TIP3    H1 5289   1.481   0.219   4.574
 1761TIP3    H2 5290   1.580   0.287   4.667
 1762TIP3   OH2 5291   4.384   0.178   3.357
 1762TIP3    H1 5292   4.354   0.218   3.438
 1762TIP3    H2 5293   4.468   0.219   3.339
 1763TIP3   OH2 5294   1.459   5.778   4.764
 1763TIP3    H1 5295   1.530   5.819   4.813
 1763TIP3    H2 5296   1.380   5.797   4.815
 1764TIP3   OH2 5297   1.566   4.124   4.759
 1764TIP3    H1 5298   1.478   4.147   4.790
 1764TIP3    H2 5299   1.602   4.067   4.826
 1765TIP3   OH2 5300   0.584   1.086   4.253
 1765TIP3    H1 5301   0.496   1.111   4.280
 1765TIP3    H2 5302   0.611   1.019   4.316
 1766TIP3   OH2 5303   1.671   0.106   0.004
 1766TIP3    H1 5304   1.717   0.103   0.088
 1766TIP3    H2 5305   1.693   0.192  -0.032
 1767TIP3   OH2 5306   1.568   0.754   4.328
 1767TIP3    H1 5307   1.540   0.679   4.276
 1767TIP3    H2 5308   1.663   0.749   4.329
 1768TIP3   OH2 5309   4.259   5.265   4.694
 1768TIP3    H1 5310   4.304   5.299   4.770
 1768TIP3    H2 5311   4.246   5.172   4.713
 1769TIP3   OH2 5312   4.618   5.697   2.777
 1769TIP3    H1 5313   4.699   5.725   2.735
 1769TIP3    H2 5314   4.565   5.776   2.784
 1770TIP3   OH2 5315   6.030   2.658   0.598
 1770TIP3    H1 5316   6.104   2.684   0.544
 1770TIP3    H2 5317   5.954   2.663   0.539
 1771TIP3   OH2 5318   3.942   0.203   2.649
 1771TIP3    H1 5319   3.864   0.233   2.696
 1771TIP3    H2 5320   3.924   0.223   2.557
 1772TIP3   OH2 5321   5.526   0.316   1.596
 1772TIP3    H1 5322   5.480   0.333   1.679
 1772TIP3    H2 5323   5.596   0.381   1.594
 1773TIP3   OH2 5324   3.717   1.634   4.776
 1773TIP3    H1 5325   3.806   1.661   4.799
 1773TIP3    H2 5326   3.728   1.550   4.732
 1774TIP3   OH2 5327   0.536   5.930   3.462
 1774TIP3    H1 5328   0.631   5.924   3.470
 1774TIP3    H2 5329   0.505   5.942   3.551
 1775TIP3   OH2 5330   2.829   0.022   2.947
 1775TIP3    H1 5331   2.752  -0.019   2.988
 1775TIP3    H2 5332   2.848   0.098   3.002
 1776TIP3   OH2 5333   0.341   1.064   4.688
 1776TIP3    H1 5334   0.326   0.990   4.747
 1776TIP3    H2 5335   0.357   1.024   4.603
 1777TIP3   OH2 5336   2.249   2.781   1.364
 1777TIP3    H1 5337   2.291   2.774   1.278
 1777TIP3    H2 5338   2.300   2.722   1.419
 1778TIP3   OH2 5339   1.916   3.051   4.412
 1778TIP3    H1 5340   1.949   3.003   4.335
 1778TIP3    H2 5341   1.921   3.143   4.387
 1779TIP3   OH2 5342   4.418   3.508   0.254
 1779TIP3    H1 5343   4.416   3.424   0.300
 1779TIP3    H2 5344   4.490   3.500   0.191
 1780TIP3   OH2 5345   5.583   2.932   2.089
 1780TIP3    H1 5346   5.528   3.009   2.076
 1780TIP3    H2 5347   5.542   2.885   2.162
 1781TIP3   OH2 5348   4.304   0.498   3.375
 1781TIP3    H1 5349   4.212   0.524   3.385
 1781TIP3    H2 5350   4.318   0.497   3.280
 1782TIP3   OH2 5351   2.859   2.237   1.367
 1782TIP3    H1 5352   2.927   2.295   1.333
 1782TIP3    H2 5353   2.853   2.259   1.460
 1783TIP3   OH2 5354   4.204   2.967   3.172
 1783TIP3    H1 5355   4.116   2.983   3.207
 1783TIP3    H2 5356   4.262   3.016   3.232
 1784TIP3   OH2 5357   3.170   3.855   1.722
 1784TIP3    H1 5358   3.194   3.860   1.815
 1784TIP3    H2 5359   3.226   3.919   1.679
 1785TIP3   OH2 5360   5.412   3.876   3.818
 1785TIP3    H1 5361   5.474   3.835   3.879
 1785TIP3    H2 5362   5.333   3.822   3.825
 1786TIP3   OH2 5363   2.377   3.887   0.437
 1786TIP3    H1 5364   2.459   3.912   0.479
 1786TIP3    H2 5365   2.384   3.922   0.348
 1787TIP3   OH2 5366   5.669   4.599   0.645
 1787TIP3    H1 5367   5.577   4.586   0.619
 1787TIP3    H2 5368   5.712   4.631   0.565
 1788TIP3   OH2 5369   5.252   0.600   1.282
 1788TIP3    H1 5370   5.212   0.518   1.250
 1788TIP3    H2 5371   5.252   0.592   1.377
 1789TIP3   OH2 5372   3.860   3.173   1.590
 1789TIP3    H1 5373   3.858   3.268   1.578
 1789TIP3    H2 5374   3.768   3.146   1.585
 1790TIP3   OH2 5375   5.274   3.191   3.319
 1790TIP3    H1 5376   5.291   3.114   3.264
 1790TIP3    H2 5377   5.205   3.163   3.379
 1791TIP3   OH2 5378   0.492   5.980   4.940
 1791TIP3    H1 5379   0.552   6.054   4.930
 1791TIP3    H2 5380   0.528   5.912   4.883
 1792TIP3   OH2 5381   1.363   3.989   3.642
 1792TIP3    H1 5382   1.345   3.918   3.580
 1792TIP3    H2 5383   1.458   3.987   3.654
 1793TIP3   OH2 5384   5.121   0.260   3.110
 1793TIP3    H1 5385   5.039   0.257   3.061
 1793TIP3    H2 5386   5.098   0.230   3.198
 1794TIP3   OH2 5387   0.559   1.757   0.080
 1794TIP3    H1 5388   0.545   1.734  -0.012
 1794TIP3    H2 5389   0.527   1.682   0.129
 1795TIP3   OH2 5390   0.236   0.792   1.950
 1795TIP3    H1 5391   0.189   0.868   1.916
 1795TIP3    H2 5392   0.320   0.792   1.905
 1796TIP3   OH2 5393   2.779   3.241   4.122
 1796TIP3    H1 5394   2.871   3.252   4.145
 1796TIP3    H2 5395   2.777   3.248   4.027
 1797TIP3   OH2 5396   5.727   4.649   1.281
 1797TIP3    H1 5397   5.701   4.608   1.364
 1797TIP3    H2 5398   5.743   4.575   1.222
 1798TIP3   OH2 5399   1.843   3.051   0.473
 1798TIP3    H1 5400   1.862   2.965   0.512
 1798TIP3    H2 5401   1.750   3.046   0.448
 1799TIP3   OH2 5402   3.523   2.543   2.987
 1799TIP3    H1 5403   3.563   2.544   2.901
 1799TIP3    H2 5404   3.494   2.634   3.001
 1800TIP3   OH2 5405   1.152   3.928   0.845
 1800TIP3    H1 5406   1.230   3.878   0.822
 1800TIP3    H2 5407   1.145   3.920   0.940
 1801TIP3   OH2 5408   2.901   0.822   0.397
 1801TIP3    H1 5409   2.900   0.880   0.473
 1801TIP3    H2 5410   2.887   0.734   0.434
 1802TIP3   OH2 5411   1.318   5.661   1.739
 1802TIP3    H1 5412   1.378   5.707   1.798
 1802TIP3    H2 5413   1.248   5.630   1.796
 1803TIP3   OH2 5414   5.760   4.017   0.274
 1803TIP3    H1 5415   5.826   3.998   0.340
 1803TIP3    H2 5416   5.801   4.082   0.217
 1804TIP3   OH2 5417   3.294   3.194   2.325
 1804TIP3    H1 5418   3.339   3.279   2.321
 1804TIP3    H2 5419   3.247   3.188   2.242
 1805TIP3   OH2 5420   3.557   1.778   0.219
 1805TIP3    H1 5421   3.505   1.704   0.253
 1805TIP3    H2 5422   3.495   1.828   0.165
 1806TIP3   OH2 5423   3.405   1.443   2.510
 1806TIP3    H1 5424   3.399   1.382   2.436
 1806TIP3    H2 5425   3.470   1.508   2.483
 1807TIP3   OH2 5426   4.459   1.777   0.476
 1807TIP3    H1 5427   4.430   1.867   0.459
 1807TIP3    H2 5428   4.472   1.739   0.390
 1808TIP3   OH2 5429   3.432   4.403   2.211
 1808TIP3    H1 5430   3.492   4.335   2.241
 1808TIP3    H2 5431   3.487   4.479   2.195
 1809TIP3   OH2 5432   4.070   1.251   2.051
 1809TIP3    H1 5433   4.069   1.258   2.147
 1809TIP3    H2 5434   4.159   1.277   2.026
 1810TIP3   OH2 5435   0.941   0.251   4.757
 1810TIP3    H1 5436   0.978   0.290   4.836
 1810TIP3    H2 5437   0.853   0.289   4.751
 1811TIP3   OH2 5438   4.994   0.625   1.953
 1811TIP3    H1 5439   4.974   0.687   2.023
 1811TIP3    H2 5440   5.089   0.631   1.943
 1812TIP3   OH2 5441   4.318   1.038   4.252
 1812TIP3    H1 5442   4.342   0.953   4.289
 1812TIP3    H2 5443   4.235   1.060   4.295
 1813TIP3   OH2 5444   0.177   4.220   5.178
 1813TIP3    H1 5445   0.144   4.301   5.141
 1813TIP3    H2 5446   0.103   4.186   5.230
 1814TIP3   OH2 5447   3.222   0.551   1.828
 1814TIP3    H1 5448   3.201   0.517   1.741
 1814TIP3    H2 5449   3.141   0.542   1.878
 1815TIP3   OH2 5450   5.369   1.137   0.932
 1815TIP3    H1 5451   5.384   1.042   0.940
 1815TIP3    H2 5452   5.406   1.160   0.847
 1816TIP3   OH2 5453   1.285   1.721   1.777
 1816TIP3    H1 5454   1.353   1.774   1.818
 1816TIP3    H2 5455   1.283   1.750   1.686
 1817TIP3   OH2 5456   2.039   3.141   0.853
 1817TIP3    H1 5457   2.017   3.177   0.939
 1817TIP3    H2 5458   2.043   3.218   0.795
 1818TIP3   OH2 5459   0.502   2.476   2.499
 1818TIP3    H1 5460   0.498   2.550   2.560
 1818TIP3    H2 5461   0.588   2.437   2.515
 1819TIP3   OH2 5462   2.599   0.360   3.727
 1819TIP3    H1 5463   2.634   0.314   3.804
 1819TIP3    H2 5464   2.661   0.340   3.657
 1820TIP3   OH2 5465   0.339   3.512   2.779
 1820TIP3    H1 5466   0.413   3.491   2.722
 1820TIP3    H2 5467   0.369   3.588   2.829
 1821TIP3   OH2 5468   0.314   4.487   2.833
 1821TIP3    H1 5469   0.272   4.572   2.823
 1821TIP3    H2 5470   0.296   4.462   2.924
 1822TIP3   OH2 5471   4.145   4.810   2.393
 1822TIP3    H1 5472   4.133   4.794   2.300
 1822TIP3    H2 5473   4.210   4.744   2.421
 1823TIP3   OH2 5474   1.116   5.523   2.780
 1823TIP3    H1 5475   1.115   5.600   2.836
 1823TIP3    H2 5476   1.203   5.485   2.793
 1824TIP3   OH2 5477   2.442   5.579   3.653
 1824TIP3    H1 5478   2.465   5.582   3.560
 1824TIP3    H2 5479   2.348   5.561   3.654
 1825TIP3   OH2 5480   1.901   5.316   2.437
 1825TIP3    H1 5481   1.986   5.274   2.449
 1825TIP3    H2 5482   1.866   5.326   2.525
 1826TIP3   OH2 5483   1.599   2.189   3.962
 1826TIP3    H1 5484   1.544   2.263   3.987
 1826TIP3    H2 5485   1.610   2.199   3.867
 1827TIP3   OH2 5486   2.672   2.599   2.691
 1827TIP3    H1 5487   2.646   2.610   2.600
 1827TIP3    H2 5488   2.766   2.580   2.688
 1828TIP3   OH2 5489   3.527   4.794   3.819
 1828TIP3    H1 5490   3.441   4.754   3.833
 1828TIP3    H2 5491   3.523   4.827   3.729
 1829TIP3   OH2 5492   0.898   3.290   1.355
 1829TIP3    H1 5493   0.861   3.218   1.304
 1829TIP3    H2 5494   0.822   3.341   1.384
 1830TIP3   OH2 5495   3.702   5.348   3.970
 1830TIP3    H1 5496   3.695   5.318   4.061
 1830TIP3    H2 5497   3.720   5.442   3.977
 1831TIP3   OH2 5498   2.621   3.599   3.504
 1831TIP3    H1 5499   2.583   3.674   3.551
 1831TIP3    H2 5500   2.569   3.524   3.533
 1832TIP3   OH2 5501   1.448   6.022   4.361
 1832TIP3    H1 5502   1.382   5.968   4.318
 1832TIP3    H2 5503   1.521   6.025   4.300
 1833TIP3   OH2 5504   0.927   1.756   4.301
 1833TIP3    H1 5505   0.948   1.765   4.208
 1833TIP3    H2 5506   0.883   1.838   4.323
 1834TIP3   OH2 5507   0.515   0.460   1.775
 1834TIP3    H1 5508   0.504   0.545   1.818
 1834TIP3    H2 5509   0.464   0.468   1.694
 1835TIP3   OH2 5510   2.208   5.709   1.904
 1835TIP3    H1 5511   2.253   5.626   1.886
 1835TIP3    H2 5512   2.150   5.721   1.829
 1836TIP3   OH2 5513   4.250   3.978   1.669
 1836TIP3    H1 5514   4.275   3.904   1.613
 1836TIP3    H2 5515   4.272   4.055   1.618
 1837TIP3   OH2 5516   2.494   3.005   2.606
 1837TIP3    H1 5517   2.483   3.064   2.532
 1837TIP3    H2 5518   2.427   3.032   2.669
 1838TIP3   OH2 5519   3.211   5.417   2.657
 1838TIP3    H1 5520   3.216   5.357   2.732
 1838TIP3    H2 5521   3.287   5.474   2.667
 1839TIP3   OH2 5522   4.901   2.321   1.446
 1839TIP3    H1 5523   4.840   2.250   1.466
 1839TIP3    H2 5524   4.848   2.385   1.398
 1840TIP3   OH2 5525   0.630   2.361   0.254
 1840TIP3    H1 5526   0.590   2.355   0.167
 1840TIP3    H2 5527   0.562   2.333   0.314
 1841TIP3   OH2 5528   3.116   2.494   2.657
 1841TIP3    H1 5529   3.084   2.555   2.723
 1841TIP3    H2 5530   3.041   2.478   2.599
 1842TIP3   OH2 5531   2.448   2.512   0.245
 1842TIP3    H1 5532   2.485   2.447   0.305
 1842TIP3    H2 5533   2.434   2.589   0.300
 1843TIP3   OH2 5534   0.517   3.550   3.585
 1843TIP3    H1 5535   0.509   3.577   3.676
 1843TIP3    H2 5536   0.444   3.489   3.572
 1844TIP3   OH2 5537   1.950   3.193   0.266
 1844TIP3    H1 5538   1.930   3.142   0.345
 1844TIP3    H2 5539   1.892   3.269   0.271
 1845TIP3   OH2 5540   1.441   0.358   3.636
 1845TIP3    H1 5541   1.454   0.404   3.719
 1845TIP3    H2 5542   1.410   0.425   3.576
 1846TIP3   OH2 5543   0.661   2.010   3.496
 1846TIP3    H1 5544   0.660   2.096   3.455
 1846TIP3    H2 5545   0.573   1.999   3.532
 1847TIP3   OH2 5546   0.885   5.723   0.254
 1847TIP3    H1 5547   0.924   5.810   0.251
 1847TIP3    H2 5548   0.811   5.727   0.193
 1848TIP3   OH2 5549   2.352   3.784   1.232
 1848TIP3    H1 5550   2.289   3.743   1.173
 1848TIP3    H2 5551   2.312   3.868   1.256
 1849TIP3   OH2 5552   1.459   4.993   3.837
 1849TIP3    H1 5553   1.454   5.077   3.883
 1849TIP3    H2 5554   1.538   5.000   3.783
 1850TIP3   OH2 5555   5.718   4.727   3.978
 1850TIP3    H1 5556   5.796   4.740   4.031
 1850TIP3    H2 5557   5.712   4.805   3.924
 1851TIP3   OH2 5558   1.877   4.409   1.201
 1851TIP3    H1 5559   1.938   4.397   1.274
 1851TIP3    H2 5560   1.791   4.410   1.243
 1852TIP3   OH2 5561   3.763   2.399   3.503
 1852TIP3    H1 5562   3.744   2.425   3.413
 1852TIP3    H2 5563   3.770   2.304   3.499
 1853TIP3   OH2 5564   5.557   1.774   2.234
 1853TIP3    H1 5565   5.513   1.690   2.249
 1853TIP3    H2 5566   5.553   1.786   2.140
 1854TIP3   OH2 5567   3.976   2.870   4.117
 1854TIP3    H1 5568   3.947   2.784   4.147
 1854TIP3    H2 5569   3.897   2.914   4.088
 1855TIP3   OH2 5570   1.100   5.452   0.092
 1855TIP3    H1 5571   1.104   5.546   0.073
 1855TIP3    H2 5572   1.186   5.432   0.128
 1856TIP3   OH2 5573   5.095   1.122   5.069
 1856TIP3    H1 5574   5.035   1.070   5.015
 1856TIP3    H2 5575   5.138   1.181   5.006
 1857TIP3   OH2 5576   0.015   4.438   5.006
 1857TIP3    H1 5577   0.090   4.495   4.989
 1857TIP3    H2 5578  -0.061   4.490   4.984
 1858TIP3   OH2 5579   4.015   4.101   3.037
 1858TIP3    H1 5580   3.964   4.074   2.961
 1858TIP3    H2 5581   3.950   4.133   3.100
 1859TIP3   OH2 5582   1.745   1.845   2.397
 1859TIP3    H1 5583   1.737   1.764   2.346
 1859TIP3    H2 5584   1.827   1.835   2.445
 1860TIP3   OH2 5585   2.408   1.770   4.937
 1860TIP3    H1 5586   2.433   1.696   4.993
 1860TIP3    H2 5587   2.490   1.801   4.899
 1861TIP3   OH2 5588   6.065   4.617   3.373
 1861TIP3    H1 5589   6.050   4.524   3.357
 1861TIP3    H2 5590   5.986   4.647   3.417
 1862TIP3   OH2 5591   0.037   3.418   1.086
 1862TIP3    H1 5592  -0.017   3.340   1.069
 1862TIP3    H2 5593   0.093   3.393   1.159
 1863TIP3   OH2 5594   6.002   0.047   3.648
 1863TIP3    H1 5595   6.006   0.048   3.743
 1863TIP3    H2 5596   6.080   0.095   3.620
 1864TIP3   OH2 5597   3.234   0.798   2.537
 1864TIP3    H1 5598   3.156   0.816   2.484
 1864TIP3    H2 5599   3.307   0.808   2.476
 1865TIP3   OH2 5600   4.305   3.322   3.185
 1865TIP3    H1 5601   4.350   3.379   3.247
 1865TIP3    H2 5602   4.216   3.315   3.220
 1866TIP3   OH2 5603   6.250   3.636   0.425
 1866TIP3    H1 5604   6.220   3.585   0.350
 1866TIP3    H2 5605   6.179   3.627   0.489
 1867TIP3   OH2 5606   3.364   3.259   4.553
 1867TIP3    H1 5607   3.433   3.267   4.619
 1867TIP3    H2 5608   3.290   3.306   4.590
 1868TIP3   OH2 5609   0.451   2.657   1.109
 1868TIP3    H1 5610   0.499   2.578   1.085
 1868TIP3    H2 5611   0.492   2.726   1.058
 1869TIP3   OH2 5612   5.500   0.702   1.185
 1869TIP3    H1 5613   5.545   0.623   1.154
 1869TIP3    H2 5614   5.412   0.672   1.206
 1870TIP3   OH2 5615   0.739   1.854   1.350
 1870TIP3    H1 5616   0.666   1.817   1.399
 1870TIP3    H2 5617   0.785   1.779   1.313
 1871TIP3   OH2 5618   1.378   5.840   3.660
 1871TIP3    H1 5619   1.405   5.888   3.738
 1871TIP3    H2 5620   1.287   5.816   3.676
 1872TIP3   OH2 5621   5.265   3.060   5.040
 1872TIP3    H1 5622   5.253   3.109   5.121
 1872TIP3    H2 5623   5.341   3.004   5.058
 1873TIP3   OH2 5624   2.062   4.175   1.157
 1873TIP3    H1 5625   1.985   4.232   1.148
 1873TIP3    H2 5626   2.086   4.155   1.066
 1874TIP3   OH2 5627   1.902   0.834   4.339
 1874TIP3    H1 5628   1.883   0.876   4.255
 1874TIP3    H2 5629   1.914   0.742   4.317
 1875TIP3   OH2 5630   2.344   1.933   4.021
 1875TIP3    H1 5631   2.280   1.919   4.091
 1875TIP3    H2 5632   2.411   1.988   4.061
 1876TIP3   OH2 5633   2.930   0.484   1.622
 1876TIP3    H1 5634   2.918   0.536   1.542
 1876TIP3    H2 5635   2.897   0.541   1.692
 1877TIP3   OH2 5636   4.863   4.535   4.743
 1877TIP3    H1 5637   4.836   4.614   4.789
 1877TIP3    H2 5638   4.949   4.556   4.707
 1878TIP3   OH2 5639   1.278   2.983   0.203
 1878TIP3    H1 5640   1.266   2.969   0.109
 1878TIP3    H2 5641   1.227   2.913   0.245
 1879TIP3   OH2 5642   3.738   4.224   4.903
 1879TIP3    H1 5643   3.663   4.255   4.853
 1879TIP3    H2 5644   3.701   4.189   4.984
 1880TIP3   OH2 5645   3.100   0.221   4.486
 1880TIP3    H1 5646   3.124   0.221   4.393
 1880TIP3    H2 5647   3.141   0.142   4.521
 1881TIP3   OH2 5648   6.174   5.940   2.804
 1881TIP3    H1 5649   6.219   5.890   2.872
 1881TIP3    H2 5650   6.123   5.874   2.757
 1882TIP3   OH2 5651   0.108   1.548   2.277
 1882TIP3    H1 5652   0.058   1.524   2.199
 1882TIP3    H2 5653   0.186   1.592   2.243
 1883TIP3   OH2 5654   2.426   1.310   0.774
 1883TIP3    H1 5655   2.403   1.292   0.865
 1883TIP3    H2 5656   2.365   1.257   0.722
 1884TIP3   OH2 5657   4.024   2.039   5.090
 1884TIP3    H1 5658   3.987   2.029   5.178
 1884TIP3    H2 5659   4.060   2.127   5.089
 1885TIP3   OH2 5660   6.067   5.410   1.164
 1885TIP3    H1 5661   6.136   5.465   1.127
 1885TIP3    H2 5662   5.991   5.467   1.170
 1886TIP3   OH2 5663   1.303   0.461   1.986
 1886TIP3    H1 5664   1.262   0.413   2.058
 1886TIP3    H2 5665   1.237   0.526   1.961
 1887TIP3   OH2 5666   3.615   3.156   4.856
 1887TIP3    H1 5667   3.678   3.224   4.833
 1887TIP3    H2 5668   3.638   3.082   4.801
 1888TIP3   OH2 5669   2.830   4.501   1.830
 1888TIP3    H1 5670   2.803   4.410   1.834
 1888TIP3    H2 5671   2.767   4.542   1.771
 1889TIP3   OH2 5672   4.852   3.398   4.387
 1889TIP3    H1 5673   4.850   3.418   4.293
 1889TIP3    H2 5674   4.768   3.431   4.420
 1890TIP3   OH2 5675   5.702   2.159   0.585
 1890TIP3    H1 5676   5.748   2.181   0.504
 1890TIP3    H2 5677   5.619   2.207   0.579
 1891TIP3   OH2 5678   4.156   5.825   0.550
 1891TIP3    H1 5679   4.072   5.870   0.548
 1891TIP3    H2 5680   4.145   5.756   0.616
 1892TIP3   OH2 5681   4.200   4.484   0.939
 1892TIP3    H1 5682   4.221   4.528   0.856
 1892TIP3    H2 5683   4.279   4.496   0.993
 1893TIP3   OH2 5684   0.584   1.821   3.837
 1893TIP3    H1 5685   0.490   1.808   3.844
 1893TIP3    H2 5686   0.597   1.913   3.862
 1894TIP3   OH2 5687   4.331   0.772   3.558
 1894TIP3    H1 5688   4.257   0.828   3.586
 1894TIP3    H2 5689   4.306   0.742   3.471
 1895TIP3   OH2 5690   4.860   5.608   1.342
 1895TIP3    H1 5691   4.917   5.623   1.266
 1895TIP3    H2 5692   4.915   5.559   1.404
 1896TIP3   OH2 5693   5.137   3.158   4.814
 1896TIP3    H1 5694   5.138   3.091   4.882
 1896TIP3    H2 5695   5.091   3.118   4.741
 1897TIP3   OH2 5696   4.151   5.384   4.486
 1897TIP3    H1 5697   4.063   5.408   4.516
 1897TIP3    H2 5698   4.196   5.355   4.565
 1898TIP3   OH2 5699   5.958   4.800   1.299
 1898TIP3    H1 5700   6.007   4.781   1.379
 1898TIP3    H2 5701   5.879   4.747   1.306
 1899TIP3   OH2 5702   4.894   3.912   2.744
 1899TIP3    H1 5703   4.980   3.872   2.732
 1899TIP3    H2 5704   4.867   3.885   2.832
 1900TIP3   OH2 5705   2.854   1.621   4.541
 1900TIP3    H1 5706   2.929   1.580   4.584
 1900TIP3    H2 5707   2.890   1.659   4.461
 1901TIP3   OH2 5708   0.611   4.236   4.235
 1901TIP3    H1 5709   0.637   4.303   4.298
 1901TIP3    H2 5710   0.525   4.206   4.266
 1902TIP3   OH2 5711   4.938   5.491   2.581
 1902TIP3    H1 5712   4.888   5.447   2.651
 1902TIP3    H2 5713   4.899   5.578   2.576
 1903TIP3   OH2 5714   1.519   0.564   2.860
 1903TIP3    H1 5715   1.435   0.522   2.879
 1903TIP3    H2 5716   1.561   0.504   2.798
 1904TIP3   OH2 5717   1.466   0.688   0.897
 1904TIP3    H1 5718   1.549   0.721   0.864
 1904TIP3    H2 5719   1.417   0.663   0.819
 1905TIP3   OH2 5720   2.202   2.209   4.231
 1905TIP3    H1 5721   2.113   2.244   4.234
 1905TIP3    H2 5722   2.201   2.136   4.292
 1906TIP3   OH2 5723   0.786   5.491   3.805
 1906TIP3    H1 5724   0.694   5.465   3.810
 1906TIP3    H2 5725   0.822   5.466   3.890
 1907TIP3   OH2 5726   3.211   5.313   4.849
 1907TIP3    H1 5727   3.123   5.316   4.888
 1907TIP3    H2 5728   3.194   5.312   4.754
 1908TIP3   OH2 5729   3.665   5.371   0.493
 1908TIP3    H1 5730   3.599   5.415   0.440
 1908TIP3    H2 5731   3.742   5.426   0.487
 1909TIP3   OH2 5732   3.765   2.930   1.762
 1909TIP3    H1 5733   3.671   2.944   1.749
 1909TIP3    H2 5734   3.803   2.936   1.674
 1910TIP3   OH2 5735   4.005   5.628   4.168
 1910TIP3    H1 5736   3.921   5.650   4.209
 1910TIP3    H2 5737   4.006   5.677   4.086
 1911TIP3   OH2 5738   5.487   4.528   0.129
 1911TIP3    H1 5739   5.445   4.477   0.060
 1911TIP3    H2 5740   5.580   4.509   0.119
 1912TIP3   OH2 5741   5.559   1.343   3.829
 1912TIP3    H1 5742   5.608   1.394   3.764
 1912TIP3    H2 5743   5.583   1.252   3.812
 1913TIP3   OH2 5744   4.793   1.292   1.725
 1913TIP3    H1 5745   4.739   1.368   1.705
 1913TIP3    H2 5746   4.748   1.219   1.681
 1914TIP3   OH2 5747   3.138   5.978   4.450
 1914TIP3    H1 5748   3.150   5.912   4.382
 1914TIP3    H2 5749   3.174   6.058   4.413
 1915TIP3   OH2 5750   4.933   5.748   1.682
 1915TIP3    H1 5751   4.924   5.826   1.626
 1915TIP3    H2 5752   4.844   5.714   1.690
 1916TIP3   OH2 5753   0.407   4.487   2.001
 1916TIP3    H1 5754   0.449   4.533   2.074
 1916TIP3    H2 5755   0.319   4.522   1.998
 1917TIP3   OH2 5756   0.631   3.949   0.928
 1917TIP3    H1 5757   0.712   3.998   0.917
 1917TIP3    H2 5758   0.655   3.858   0.910
 1918TIP3   OH2 5759   0.374   0.334   2.448
 1918TIP3    H1 5760   0.408   0.262   2.501
 1918TIP3    H2 5761   0.406   0.413   2.491
 1919TIP3   OH2 5762   4.424   5.575   0.374
 1919TIP3    H1 5763   4.470   5.493   0.357
 1919TIP3    H2 5764   4.477   5.618   0.442
 1920TIP3   OH2 5765   0.029   2.530   1.039
 1920TIP3    H1 5766   0.059   2.609   1.084
 1920TIP3    H2 5767  -0.033   2.490   1.101
 1921TIP3   OH2 5768   1.899   0.872   2.001
 1921TIP3    H1 5769   1.859   0.920   2.074
 1921TIP3    H2 5770   1.978   0.921   1.980
 1922TIP3   OH2 5771   2.933   5.876   5.046
 1922TIP3    H1 5772   2.922   5.825   5.126
 1922TIP3    H2 5773   2.968   5.960   5.075
 1923TIP3   OH2 5774   0.043   5.202   0.828
 1923TIP3    H1 5775   0.083   5.224   0.744
 1923TIP3    H2 5776  -0.016   5.275   0.847
 1924TIP3   OH2 5777   0.011   5.405   1.480
 1924TIP3    H1 5778   0.090   5.411   1.427
 1924TIP3    H2 5779  -0.051   5.354   1.426
 1925TIP3   OH2 5780   2.711   5.155   4.324
 1925TIP3    H1 5781   2.632   5.118   4.364
 1925TIP3    H2 5782   2.745   5.215   4.390
 1926TIP3   OH2 5783   4.577   2.163   1.727
 1926TIP3    H1 5784   4.639   2.173   1.655
 1926TIP3    H2 5785   4.629   2.180   1.806
 1927TIP3   OH2 5786   2.666   1.770   4.859
 1927TIP3    H1 5787   2.693   1.809   4.776
 1927TIP3    H2 5788   2.736   1.795   4.920
 1928TIP3   OH2 5789   1.368   1.510   4.271
 1928TIP3    H1 5790   1.298   1.511   4.337
 1928TIP3    H2 5791   1.420   1.588   4.290
 1929TIP3   OH2 5792   0.518   5.148   4.811
 1929TIP3    H1 5793   0.464   5.225   4.829
 1929TIP3    H2 5794   0.534   5.110   4.898
 1930TIP3   OH2 5795   1.273   5.419   2.377
 1930TIP3    H1 5796   1.260   5.353   2.309
 1930TIP3    H2 5797   1.260   5.372   2.459
 1931TIP3   OH2 5798   3.403   0.102   1.271
 1931TIP3    H1 5799   3.314   0.065   1.276
 1931TIP3    H2 5800   3.420   0.111   1.177
 1932TIP3   OH2 5801   4.922   3.239   1.196
 1932TIP3    H1 5802   4.963   3.252   1.281
 1932TIP3    H2 5803   4.991   3.199   1.142
 1933TIP3   OH2 5804   4.866   4.578   2.173
 1933TIP3    H1 5805   4.861   4.517   2.099
 1933TIP3    H2 5806   4.954   4.564   2.209
 1934TIP3   OH2 5807   4.855   2.038   4.241
 1934TIP3    H1 5808   4.786   2.104   4.233
 1934TIP3    H2 5809   4.808   1.956   4.257
 1935TIP3   OH2 5810   4.680   2.110   0.363
 1935TIP3    H1 5811   4.588   2.089   0.379
 1935TIP3    H2 5812   4.730   2.046   0.413
 1936TIP3   OH2 5813   2.918   4.064   4.592
 1936TIP3    H1 5814   2.828   4.058   4.560
 1936TIP3    H2 5815   2.957   3.978   4.574
 1937TIP3   OH2 5816   0.009   0.528   4.475
 1937TIP3    H1 5817  -0.011   0.579   4.554
 1937TIP3    H2 5818   0.087   0.479   4.498
 1938TIP3   OH2 5819   3.267   3.882   0.903
 1938TIP3    H1 5820   3.208   3.817   0.941
 1938TIP3    H2 5821   3.210   3.955   0.878
 1939TIP3   OH2 5822   3.781   3.890   1.604
 1939TIP3    H1 5823   3.872   3.887   1.577
 1939TIP3    H2 5824   3.784   3.918   1.696
 1940TIP3   OH2 5825   0.456   4.194   3.797
 1940TIP3    H1 5826   0.545   4.224   3.777
 1940TIP3    H2 5827   0.407   4.274   3.814
 1941TIP3   OH2 5828   3.246   2.854   5.162
 1941TIP3    H1 5829   3.291   2.820   5.239
 1941TIP3    H2 5830   3.153   2.837   5.178
 1942TIP3   OH2 5831   5.786   4.090   2.441
 1942TIP3    H1 5832   5.724   4.088   2.514
 1942TIP3    H2 5833   5.872   4.100   2.482
 1943TIP3   OH2 5834   5.636   1.761   1.225
 1943TIP3    H1 5835   5.639   1.833   1.162
 1943TIP3    H2 5836   5.726   1.728   1.228
 1944TIP3   OH2 5837   5.186   1.392   2.538
 1944TIP3    H1 5838   5.222   1.399   2.450
 1944TIP3    H2 5839   5.187   1.481   2.572
 1945TIP3   OH2 5840   3.046   5.442   2.061
 1945TIP3    H1 5841   3.060   5.349   2.078
 1945TIP3    H2 5842   3.018   5.478   2.146
 1946TIP3   OH2 5843   6.286   5.430   2.401
 1946TIP3    H1 5844   6.202   5.389   2.381
 1946TIP3    H2 5845   6.331   5.368   2.458
 1947TIP3   OH2 5846   5.647   0.308   3.540
 1947TIP3    H1 5847   5.705   0.316   3.616
 1947TIP3    H2 5848   5.566   0.351   3.568
 1948TIP3   OH2 5849   3.318   1.017   3.189
 1948TIP3    H1 5850   3.345   1.071   3.116
 1948TIP3    H2 5851   3.399   0.989   3.231
 1949TIP3   OH2 5852   6.098   3.433   0.267
 1949TIP3    H1 5853   6.126   3.342   0.281
 1949TIP3    H2 5854   6.045   3.430   0.187
 1950TIP3   OH2 5855   2.679   3.090   0.246
 1950TIP3    H1 5856   2.682   3.184   0.229
 1950TIP3    H2 5857   2.660   3.051   0.161
 1951TIP3   OH2 5858   5.627   5.103   0.815
 1951TIP3    H1 5859   5.598   5.033   0.756
 1951TIP3    H2 5860   5.715   5.077   0.842
 1952TIP3   OH2 5861   3.493   0.583   1.259
 1952TIP3    H1 5862   3.455   0.506   1.303
 1952TIP3    H2 5863   3.527   0.548   1.176
 1953TIP3   OH2 5864   1.780   1.505   0.404
 1953TIP3    H1 5865   1.765   1.469   0.492
 1953TIP3    H2 5866   1.797   1.428   0.349
 1954TIP3   OH2 5867   0.612   2.996   3.196
 1954TIP3    H1 5868   0.561   3.030   3.123
 1954TIP3    H2 5869   0.700   3.033   3.184
 1955TIP3   OH2 5870   4.487   1.442   2.628
 1955TIP3    H1 5871   4.509   1.502   2.699
 1955TIP3    H2 5872   4.480   1.498   2.551
 1956TIP3   OH2 5873   3.888   5.995   1.974
 1956TIP3    H1 5874   3.814   5.994   1.912
 1956TIP3    H2 5875   3.878   5.914   2.024
 1957TIP3   OH2 5876   2.613   4.552   0.773
 1957TIP3    H1 5877   2.703   4.523   0.754
 1957TIP3    H2 5878   2.617   4.647   0.766
 1958TIP3   OH2 5879   2.243   1.154   3.697
 1958TIP3    H1 5880   2.270   1.067   3.668
 1958TIP3    H2 5881   2.182   1.184   3.630
 1959TIP3   OH2 5882   2.444   0.241   4.915
 1959TIP3    H1 5883   2.449   0.165   4.973
 1959TIP3    H2 5884   2.529   0.242   4.870
 1960TIP3   OH2 5885   3.594   4.763   0.902
 1960TIP3    H1 5886   3.689   4.769   0.914
 1960TIP3    H2 5887   3.558   4.789   0.986
 1961TIP3   OH2 5888   2.701   4.967   4.849
 1961TIP3    H1 5889   2.628   5.000   4.902
 1961TIP3    H2 5890   2.779   4.990   4.899
 1962TIP3   OH2 5891   2.445   3.135   4.197
 1962TIP3    H1 5892   2.463   3.229   4.187
 1962TIP3    H2 5893   2.387   3.131   4.274
 1963TIP3   OH2 5894   1.421   0.217   3.403
 1963TIP3    H1 5895   1.376   0.134   3.419
 1963TIP3    H2 5896   1.442   0.250   3.490
 1964TIP3   OH2 5897   1.637   4.528   0.415
 1964TIP3    H1 5898   1.665   4.504   0.326
 1964TIP3    H2 5899   1.543   4.544   0.407
 1965TIP3   OH2 5900   2.669   0.312   4.673
 1965TIP3    H1 5901   2.763   0.308   4.652
 1965TIP3    H2 5902   2.647   0.405   4.666
 1966TIP3   OH2 5903   5.318   3.189   2.673
 1966TIP3    H1 5904   5.235   3.192   2.721
 1966TIP3    H2 5905   5.293   3.207   2.582
 1967TIP3   OH2 5906   2.866   4.962   1.384
 1967TIP3    H1 5907   2.809   5.030   1.422
 1967TIP3    H2 5908   2.813   4.925   1.313
 1968TIP3   OH2 5909   3.522   2.157   3.444
 1968TIP3    H1 5910   3.617   2.163   3.457
 1968TIP3    H2 5911   3.485   2.191   3.525
 1969TIP3   OH2 5912   1.058   3.856   2.111
 1969TIP3    H1 5913   1.101   3.773   2.130
 1969TIP3    H2 5914   0.996   3.836   2.040
 1970TIP3   OH2 5915   0.315   4.336   4.790
 1970TIP3    H1 5916   0.235   4.285   4.785
 1970TIP3    H2 5917   0.322   4.380   4.705
 1971TIP3   OH2 5918   3.845   2.652   1.302
 1971TIP3    H1 5919   3.792   2.726   1.328
 1971TIP3    H2 5920   3.934   2.675   1.330
 1972TIP3   OH2 5921   3.019   0.202   1.836
 1972TIP3    H1 5922   3.028   0.107   1.827
 1972TIP3    H2 5923   3.036   0.237   1.748
 1973TIP3   OH2 5924   3.047   4.341   2.659
 1973TIP3    H1 5925   3.102   4.419   2.650
 1973TIP3    H2 5926   3.042   4.326   2.754
 1974TIP3   OH2 5927   1.844   1.025   1.240
 1974TIP3    H1 5928   1.867   1.023   1.333
 1974TIP3    H2 5929   1.817   0.935   1.220
 1975TIP3   OH2 5930   0.040   3.630   4.605
 1975TIP3    H1 5931   0.099   3.561   4.637
 1975TIP3    H2 5932  -0.013   3.653   4.681
 1976TIP3   OH2 5933   0.457   3.300   3.916
 1976TIP3    H1 5934   0.548   3.308   3.947
 1976TIP3    H2 5935   0.420   3.229   3.969
 1977TIP3   OH2 5936   2.470   4.232   0.222
 1977TIP3    H1 5937   2.524   4.303   0.257
 1977TIP3    H2 5938   2.380   4.259   0.241
 1978TIP3   OH2 5939   5.566   4.922   1.376
 1978TIP3    H1 5940   5.625   4.876   1.436
 1978TIP3    H2 5941   5.623   4.981   1.327
 1979TIP3   OH2 5942   2.794   3.595   3.740
 1979TIP3    H1 5943   2.762   3.596   3.650
 1979TIP3    H2 5944   2.746   3.523   3.782
 1980TIP3   OH2 5945   6.170   1.165   4.007
 1980TIP3    H1 5946   6.166   1.257   4.033
 1980TIP3    H2 5947   6.204   1.119   4.083
 1981TIP3   OH2 5948   5.832   1.851   3.291
 1981TIP3    H1 5949   5.923   1.879   3.294
 1981TIP3    H2 5950   5.834   1.765   3.250
 1982TIP3   OH2 5951   3.238   3.986   1.288
 1982TIP3    H1 5952   3.153   4.029   1.289
 1982TIP3    H2 5953   3.217   3.892   1.281
 1983TIP3   OH2 5954   0.608   2.532   4.602
 1983TIP3    H1 5955   0.658   2.505   4.525
 1983TIP3    H2 5956   0.618   2.459   4.664
 1984TIP3   OH2 5957   4.564   5.064   2.271
 1984TIP3    H1 5958   4.502   4.995   2.249
 1984TIP3    H2 5959   4.522   5.145   2.243
 1985TIP3   OH2 5960   2.715   3.840   3.079
 1985TIP3    H1 5961   2.755   3.871   2.998
 1985TIP3    H2 5962   2.788   3.805   3.130
 1986TIP3   OH2 5963   6.076   0.624   0.450
 1986TIP3    H1 5964   6.032   0.696   0.495
 1986TIP3    H2 5965   6.154   0.664   0.411
 1987TIP3   OH2 5966   0.731   0.402   2.691
 1987TIP3    H1 5967   0.645   0.439   2.672
 1987TIP3    H2 5968   0.782   0.476   2.723
 1988TIP3   OH2 5969   0.094   4.504   1.608
 1988TIP3    H1 5970   0.064   4.497   1.518
 1988TIP3    H2 5971   0.040   4.441   1.656
 1989TIP3   OH2 5972   2.253   3.729   3.698
 1989TIP3    H1 5973   2.220   3.747   3.786
 1989TIP3    H2 5974   2.305   3.806   3.676
 1990TIP3   OH2 5975   3.964   5.349   4.288
 1990TIP3    H1 5976   4.040   5.310   4.331
 1990TIP3    H2 5977   4.001   5.410   4.224
 1991TIP3   OH2 5978   2.297   0.977   3.071
 1991TIP3    H1 5979   2.255   1.038   3.011
 1991TIP3    H2 5980   2.244   0.981   3.151
 1992TIP3   OH2 5981   4.231   2.925   4.040
 1992TIP3    H1 5982   4.252   2.897   3.951
 1992TIP3    H2 5983   4.146   2.885   4.058
 1993TIP3   OH2 5984   5.201   0.351   1.940
 1993TIP3    H1 5985   5.277   0.294   1.952
 1993TIP3    H2 5986   5.141   0.324   2.009
 1994TIP3   OH2 5987   3.923   4.008   2.080
 1994TIP3    H1 5988   3.849   4.052   2.123
 1994TIP3    H2 5989   3.959   3.950   2.148
 1995TIP3   OH2 5990   3.110   5.031   4.834
 1995TIP3    H1 5991   3.109   5.001   4.744
 1995TIP3    H2 5992   3.203   5.032   4.858
 1996TIP3   OH2 5993   0.703   4.161   2.031
 1996TIP3    H1 5994   0.788   4.131   2.000
 1996TIP3    H2 5995   0.672   4.220   1.962
 1997TIP3   OH2 5996   4.327   0.055   5.017
 1997TIP3    H1 5997   4.366   0.108   5.086
 1997TIP3    H2 5998   4.343  -0.035   5.045
 1998TIP3   OH2 5999   5.577   2.485   4.595
 1998TIP3    H1 6000   5.496   2.476   4.645
 1998TIP3    H2 6001   5.555   2.547   4.525
 1999TIP3   OH2 6002   3.733   1.994   1.337
 1999TIP3    H1 6003   3.815   2.032   1.304
 1999TIP3    H2 6004   3.759   1.911   1.377
 2000TIP3   OH2 6005   0.344   2.474   4.022
 2000TIP3    H1 6006   0.272   2.433   3.972
 2000TIP3    H2 6007   0.319   2.462   4.113
 2001TIP3   OH2 6008   3.919   4.064   3.806
 2001TIP3    H1 6009   3.952   3.984   3.766
 2001TIP3    H2 6010   3.997   4.107   3.842
 2002TIP3   OH2 6011   2.422   5.396   1.573
 2002TIP3    H1 6012   2.356   5.388   1.504
 2002TIP3    H2 6013   2.497   5.438   1.531
 2003TIP3   OH2 6014   3.427   4.210   3.470
 2003TIP3    H1 6015   3.420   4.185   3.563
 2003TIP3    H2 6016   3.503   4.269   3.467
 2004TIP3   OH2 6017   4.316   0.150   0.019
 2004TIP3    H1 6018   4.268   0.112  -0.055
 2004TIP3    H2 6019   4.407   0.124   0.005
 2005TIP3   OH2 6020   0.686   3.660   2.527
 2005TIP3    H1 6021   0.687   3.710   2.445
 2005TIP3    H2 6022   0.715   3.724   2.593
 2006TIP3   OH2 6023   3.136   5.850   1.794
 2006TIP3    H1 6024   3.179   5.813   1.717
 2006TIP3    H2 6025   3.179   5.808   1.868
 2007TIP3   OH2 6026   0.130   0.876   3.828
 2007TIP3    H1 6027   0.089   0.956   3.794
 2007TIP3    H2 6028   0.133   0.817   3.754
 2008TIP3   OH2 6029   5.326   2.606   0.652
 2008TIP3    H1 6030   5.330   2.583   0.745
 2008TIP3    H2 6031   5.296   2.697   0.650
 2009TIP3   OH2 6032   3.906   4.006   5.077
 2009TIP3    H1 6033   3.964   4.061   5.024
 2009TIP3    H2 6034   3.934   4.022   5.167
 2010TIP3   OH2 6035   4.685   2.897   5.003
 2010TIP3    H1 6036   4.752   2.853   4.951
 2010TIP3    H2 6037   4.639   2.953   4.940
 2011TIP3   OH2 6038   0.801   0.814   3.678
 2011TIP3    H1 6039   0.896   0.824   3.678
 2011TIP3    H2 6040   0.776   0.827   3.769
 2012TIP3   OH2 6041   5.646   0.480   4.197
 2012TIP3    H1 6042   5.710   0.548   4.174
 2012TIP3    H2 6043   5.609   0.454   4.112
 2013TIP3   OH2 6044   3.200   5.120   1.897
 2013TIP3    H1 6045   3.171   5.095   1.809
 2013TIP3    H2 6046   3.274   5.179   1.880
 2014TIP3   OH2 6047   5.007   2.117   1.740
 2014TIP3    H1 6048   5.047   2.201   1.720
 2014TIP3    H2 6049   4.936   2.138   1.801
 2015TIP3   OH2 6050   4.025   5.444   1.964
 2015TIP3    H1 6051   3.944   5.393   1.966
 2015TIP3    H2 6052   4.015   5.504   1.890
 2016TIP3   OH2 6053   4.731   1.580   4.712
 2016TIP3    H1 6054   4.710   1.595   4.620
 2016TIP3    H2 6055   4.759   1.666   4.744
 2017TIP3   OH2 6056   0.142   4.561   2.009
 2017TIP3    H1 6057   0.161   4.509   2.087
 2017TIP3    H2 6058   0.046   4.566   2.006
 2018TIP3   OH2 6059   4.191   2.939   4.805
 2018TIP3    H1 6060   4.240   3.020   4.820
 2018TIP3    H2 6061   4.207   2.917   4.714
 2019TIP3   OH2 6062   1.625   1.507   1.422
 2019TIP3    H1 6063   1.564   1.487   1.493
 2019TIP3    H2 6064   1.640   1.423   1.378
 2020TIP3   OH2 6065   2.932   0.928   1.550
 2020TIP3    H1 6066   3.008   0.954   1.498
 2020TIP3    H2 6067   2.864   0.990   1.524
 2021TIP3   OH2 6068   1.502   5.585   3.821
 2021TIP3    H1 6069   1.407   5.601   3.817
 2021TIP3    H2 6070   1.509   5.496   3.858
 2022TIP3   OH2 6071   1.724   2.955   4.571
 2022TIP3    H1 6072   1.787   2.989   4.507
 2022TIP3    H2 6073   1.747   2.863   4.580
 2023TIP3   OH2 6074   0.558   2.706   4.197
 2023TIP3    H1 6075   0.544   2.760   4.274
 2023TIP3    H2 6076   0.650   2.721   4.174
 2024TIP3   OH2 6077   2.580   5.367   0.209
 2024TIP3    H1 6078   2.569   5.461   0.222
 2024TIP3    H2 6079   2.610   5.335   0.294
 2025TIP3   OH2 6080   2.988   4.598   0.559
 2025TIP3    H1 6081   3.055   4.628   0.620
 2025TIP3    H2 6082   3.034   4.539   0.500
 2026TIP3   OH2 6083   0.203   2.954   4.591
 2026TIP3    H1 6084   0.142   2.986   4.658
 2026TIP3    H2 6085   0.267   2.902   4.639
 2027TIP3   OH2 6086   3.593   0.405   1.069
 2027TIP3    H1 6087   3.634   0.395   0.982
 2027TIP3    H2 6088   3.600   0.318   1.108
 2028TIP3   OH2 6089   5.994   5.330   4.867
 2028TIP3    H1 6090   5.996   5.257   4.805
 2028TIP3    H2 6091   6.017   5.407   4.815
 2029TIP3   OH2 6092   5.828   5.722   5.078
 2029TIP3    H1 6093   5.894   5.700   5.013
 2029TIP3    H2 6094   5.862   5.688   5.161
 2030TIP3   OH2 6095   3.275   3.145   0.964
 2030TIP3    H1 6096   3.280   3.064   1.014
 2030TIP3    H2 6097   3.357   3.148   0.914
 2031TIP3   OH2 6098   5.941   3.692   4.253
 2031TIP3    H1 6099   5.966   3.652   4.336
 2031TIP3    H2 6100   5.882   3.763   4.277
 2032TIP3   OH2 6101   1.604   5.123   1.111
 2032TIP3    H1 6102   1.635   5.113   1.021
 2032TIP3    H2 6103   1.681   5.152   1.160
 2033TIP3   OH2 6104   3.162   1.778   0.963
 2033TIP3    H1 6105   3.096   1.720   0.926
 2033TIP3    H2 6106   3.192   1.733   1.042
 2034TIP3   OH2 6107   0.266   5.120   4.597
 2034TIP3    H1 6108   0.191   5.068   4.568
 2034TIP3    H2 6109   0.233   5.170   4.671
 2035TIP3   OH2 6110   3.983   0.510   2.342
 2035TIP3    H1 6111   3.933   0.553   2.273
 2035TIP3    H2 6112   3.955   0.419   2.340
 2036TIP3   OH2 6113   2.192   2.718   0.256
 2036TIP3    H1 6114   2.145   2.797   0.231
 2036TIP3    H2 6115   2.125   2.658   0.288
 2037TIP3   OH2 6116   3.756   5.164   2.451
 2037TIP3    H1 6117   3.797   5.165   2.537
 2037TIP3    H2 6118   3.830   5.161   2.390
 2038TIP3   OH2 6119   0.084   2.699   3.996
 2038TIP3    H1 6120   0.089   2.630   3.930
 2038TIP3    H2 6121  -0.008   2.700   4.023
 2039TIP3   OH2 6122   0.475   0.526   2.633
 2039TIP3    H1 6123   0.476   0.621   2.622
 2039TIP3    H2 6124   0.392   0.507   2.676
 2040TIP3   OH2 6125   0.186   1.584   3.733
 2040TIP3    H1 6126   0.162   1.600   3.642
 2040TIP3    H2 6127   0.232   1.664   3.760
 2041TIP3   OH2 6128   4.203   3.805   3.291
 2041TIP3    H1 6129   4.108   3.797   3.283
 2041TIP3    H2 6130   4.220   3.899   3.277
 2042TIP3   OH2 6131   5.808   2.680   0.263
 2042TIP3    H1 6132   5.777   2.635   0.341
 2042TIP3    H2 6133   5.895   2.643   0.246
 2043TIP3   OH2 6134   4.633   2.732   0.953
 2043TIP3    H1 6135   4.660   2.812   0.907
 2043TIP3    H2 6136   4.716   2.689   0.976
 2044TIP3   OH2 6137   4.778   3.432   1.736
 2044TIP3    H1 6138   4.740   3.520   1.740
 2044TIP3    H2 6139   4.872   3.446   1.747
 2045TIP3   OH2 6140   2.830   4.487   3.043
 2045TIP3    H1 6141   2.868   4.508   3.128
 2045TIP3    H2 6142   2.904   4.461   2.989
 2046TIP3   OH2 6143   3.649   2.522   0.548
 2046TIP3    H1 6144   3.604   2.569   0.478
 2046TIP3    H2 6145   3.646   2.583   0.623
 2047TIP3   OH2 6146   4.149   5.698   1.475
 2047TIP3    H1 6147   4.139   5.612   1.516
 2047TIP3    H2 6148   4.059   5.729   1.464
 2048TIP3   OH2 6149   4.269   3.758   1.928
 2048TIP3    H1 6150   4.281   3.853   1.936
 2048TIP3    H2 6151   4.355   3.725   1.903
 2049TIP3   OH2 6152   2.084   0.609   1.371
 2049TIP3    H1 6153   2.112   0.673   1.306
 2049TIP3    H2 6154   2.139   0.532   1.353
 2050TIP3   OH2 6155   4.565   1.399   1.104
 2050TIP3    H1 6156   4.494   1.398   1.168
 2050TIP3    H2 6157   4.525   1.434   1.025
 2051TIP3   OH2 6158   6.155   4.341   4.173
 2051TIP3    H1 6159   6.152   4.353   4.078
 2051TIP3    H2 6160   6.218   4.270   4.187
 2052TIP3   OH2 6161   1.794   2.178   3.389
 2052TIP3    H1 6162   1.722   2.237   3.413
 2052TIP3    H2 6163   1.871   2.214   3.432
 2053TIP3   OH2 6164   1.200   4.310   0.608
 2053TIP3    H1 6165   1.137   4.238   0.619
 2053TIP3    H2 6166   1.286   4.268   0.616
 2054TIP3   OH2 6167  -0.020   0.953   0.999
 2054TIP3    H1 6168   0.063   0.915   1.029
 2054TIP3    H2 6169  -0.010   1.047   1.016
 2055TIP3   OH2 6170   3.624   2.280   1.923
 2055TIP3    H1 6171   3.689   2.311   1.987
 2055TIP3    H2 6172   3.602   2.357   1.872
 2056TIP3   OH2 6173   6.005   5.141   3.796
 2056TIP3    H1 6174   6.018   5.212   3.734
 2056TIP3    H2 6175   5.981   5.066   3.741
 2057TIP3   OH2 6176   1.443   5.600   4.196
 2057TIP3    H1 6177   1.535   5.612   4.174
 2057TIP3    H2 6178   1.420   5.516   4.157
 2058TIP3   OH2 6179   2.976   1.816   4.391
 2058TIP3    H1 6180   3.024   1.899   4.390
 2058TIP3    H2 6181   2.946   1.804   4.301
 2059TIP3   OH2 6182   1.350   3.225   1.914
 2059TIP3    H1 6183   1.416   3.233   1.984
 2059TIP3    H2 6184   1.270   3.202   1.961
 2060TIP3   OH2 6185   3.887   3.553   4.197
 2060TIP3    H1 6186   3.846   3.624   4.245
 2060TIP3    H2 6187   3.899   3.483   4.261
 2061TIP3   OH2 6188   3.003   2.991   3.370
 2061TIP3    H1 6189   2.924   2.940   3.386
 2061TIP3    H2 6190   3.072   2.926   3.359
 2062TIP3   OH2 6191   4.297   0.369   2.238
 2062TIP3    H1 6192   4.275   0.387   2.329
 2062TIP3    H2 6193   4.220   0.323   2.204
 2063TIP3   OH2 6194   2.175   2.439   3.999
 2063TIP3    H1 6195   2.112   2.507   3.978
 2063TIP3    H2 6196   2.122   2.359   4.007
 2064TIP3   OH2 6197   0.942   2.019   0.103
 2064TIP3    H1 6198   0.919   1.938   0.147
 2064TIP3    H2 6199   1.037   2.024   0.109
 2065TIP3   OH2 6200   3.957   2.263   2.716
 2065TIP3    H1 6201   4.040   2.229   2.750
 2065TIP3    H2 6202   3.904   2.185   2.699
 2066TIP3   OH2 6203   5.544   4.963   4.804
 2066TIP3    H1 6204   5.569   5.028   4.739
 2066TIP3    H2 6205   5.492   5.012   4.868
 2067TIP3   OH2 6206   3.126   1.057   4.040
 2067TIP3    H1 6207   3.148   1.149   4.029
 2067TIP3    H2 6208   3.031   1.056   4.049
 2068TIP3   OH2 6209   4.868   5.106   2.416
 2068TIP3    H1 6210   4.830   5.022   2.390
 2068TIP3    H2 6211   4.794   5.156   2.452
 2069TIP3   OH2 6212   0.845   3.691   0.302
 2069TIP3    H1 6213   0.856   3.766   0.361
 2069TIP3    H2 6214   0.864   3.726   0.215
 2070TIP3   OH2 6215   6.386   4.115   1.702
 2070TIP3    H1 6216   6.349   4.202   1.689
 2070TIP3    H2 6217   6.309   4.057   1.704
 2071TIP3   OH2 6218   5.314   2.450   4.327
 2071TIP3    H1 6219   5.284   2.394   4.255
 2071TIP3    H2 6220   5.242   2.449   4.390
 2072TIP3   OH2 6221   4.470   0.812   3.890
 2072TIP3    H1 6222   4.496   0.903   3.873
 2072TIP3    H2 6223   4.495   0.796   3.981
 2073TIP3   OH2 6224   1.967   3.397   0.796
 2073TIP3    H1 6225   1.995   3.489   0.790
 2073TIP3    H2 6226   1.940   3.386   0.887
 2074TIP3   OH2 6227   3.284   0.806   0.442
 2074TIP3    H1 6228   3.241   0.739   0.495
 2074TIP3    H2 6229   3.241   0.888   0.468
 2075TIP3   OH2 6230   2.078   3.987   4.322
 2075TIP3    H1 6231   2.030   4.037   4.255
 2075TIP3    H2 6232   2.072   3.896   4.292
 2076TIP3   OH2 6233   3.045   1.019   0.955
 2076TIP3    H1 6234   3.052   1.071   0.875
 2076TIP3    H2 6235   3.042   0.928   0.925
 2077TIP3   OH2 6236   0.700   3.137   1.241
 2077TIP3    H1 6237   0.652   3.130   1.324
 2077TIP3    H2 6238   0.713   3.047   1.213
 2078TIP3   OH2 6239   2.218   4.790   3.624
 2078TIP3    H1 6240   2.204   4.740   3.704
 2078TIP3    H2 6241   2.185   4.733   3.554
 2079TIP3   OH2 6242   1.978   0.450   0.308
 2079TIP3    H1 6243   1.890   0.412   0.299
 2079TIP3    H2 6244   1.977   0.525   0.248
 2080TIP3   OH2 6245   2.393   2.673   1.596
 2080TIP3    H1 6246   2.353   2.745   1.644
 2080TIP3    H2 6247   2.344   2.595   1.623
 2081TIP3   OH2 6248   4.269   5.557   4.247
 2081TIP3    H1 6249   4.185   5.598   4.223
 2081TIP3    H2 6250   4.249   5.507   4.326
 2082TIP3   OH2 6251   3.855   0.311   0.257
 2082TIP3    H1 6252   3.869   0.285   0.348
 2082TIP3    H2 6253   3.760   0.318   0.248
 2083TIP3   OH2 6254   2.910   5.464   3.736
 2083TIP3    H1 6255   2.881   5.505   3.818
 2083TIP3    H2 6256   2.833   5.417   3.704
 2084TIP3   OH2 6257   2.356   0.999   1.339
 2084TIP3    H1 6258   2.321   1.088   1.326
 2084TIP3    H2 6259   2.445   1.004   1.304
 2085TIP3   OH2 6260   2.680   5.136   1.532
 2085TIP3    H1 6261   2.724   5.219   1.552
 2085TIP3    H2 6262   2.594   5.162   1.499
 2086TIP3   OH2 6263   1.478   2.529   3.752
 2086TIP3    H1 6264   1.455   2.563   3.838
 2086TIP3    H2 6265   1.494   2.606   3.698
 2087TIP3   OH2 6266   3.543   3.696   1.456
 2087TIP3    H1 6267   3.565   3.761   1.522
 2087TIP3    H2 6268   3.522   3.747   1.378
 2088TIP3   OH2 6269   3.938   5.927   0.177
 2088TIP3    H1 6270   3.952   5.840   0.141
 2088TIP3    H2 6271   4.015   5.943   0.233
 2089TIP3   OH2 6272   1.431   5.407   1.046
 2089TIP3    H1 6273   1.441   5.316   1.072
 2089TIP3    H2 6274   1.427   5.456   1.128
 2090TIP3   OH2 6275   1.414   4.104   4.364
 2090TIP3    H1 6276   1.384   4.068   4.447
 2090TIP3    H2 6277   1.377   4.192   4.361
 2091TIP3   OH2 6278   3.393   3.007   3.779
 2091TIP3    H1 6279   3.427   3.095   3.794
 2091TIP3    H2 6280   3.299   3.014   3.797
 2092TIP3   OH2 6281   1.057   5.735   2.934
 2092TIP3    H1 6282   1.080   5.827   2.918
 2092TIP3    H2 6283   1.004   5.738   3.014
 2093TIP3   OH2 6284   1.074   5.183   1.786
 2093TIP3    H1 6285   1.152   5.237   1.771
 2093TIP3    H2 6286   1.105   5.093   1.773
 2094TIP3   OH2 6287   1.683   4.631   2.936
 2094TIP3    H1 6288   1.601   4.645   2.984
 2094TIP3    H2 6289   1.661   4.565   2.870
 2095TIP3   OH2 6290   4.135   0.207   3.847
 2095TIP3    H1 6291   4.180   0.185   3.928
 2095TIP3    H2 6292   4.130   0.303   3.847
 2096TIP3   OH2 6293   0.243   5.328   2.218
 2096TIP3    H1 6294   0.196   5.319   2.135
 2096TIP3    H2 6295   0.212   5.411   2.254
 2097TIP3   OH2 6296   3.783   0.113   1.523
 2097TIP3    H1 6297   3.778   0.158   1.608
 2097TIP3    H2 6298   3.877   0.107   1.505
 2098TIP3   OH2 6299   0.162   1.268   4.876
 2098TIP3    H1 6300   0.140   1.176   4.882
 2098TIP3    H2 6301   0.233   1.281   4.939
 2099TIP3   OH2 6302   1.589   4.252   3.442
 2099TIP3    H1 6303   1.506   4.239   3.488
 2099TIP3    H2 6304   1.641   4.175   3.465
 2100TIP3   OH2 6305   3.589   3.215   4.062
 2100TIP3    H1 6306   3.610   3.304   4.090
 2100TIP3    H2 6307   3.495   3.217   4.043
 2101TIP3   OH2 6308   4.536   4.810   5.212
 2101TIP3    H1 6309   4.617   4.823   5.260
 2101TIP3    H2 6310   4.562   4.797   5.121
 2102TIP3   OH2 6311   2.789   0.092   0.203
 2102TIP3    H1 6312   2.741   0.079   0.285
 2102TIP3    H2 6313   2.720   0.100   0.136
 2103TIP3   OH2 6314   3.821   5.741   4.911
 2103TIP3    H1 6315   3.773   5.658   4.915
 2103TIP3    H2 6316   3.753   5.808   4.912
 2104TIP3   OH2 6317   0.995   0.467   0.745
 2104TIP3    H1 6318   0.987   0.402   0.676
 2104TIP3    H2 6319   1.052   0.426   0.810
 2105TIP3   OH2 6320   4.347   2.708   1.498
 2105TIP3    H1 6321   4.262   2.721   1.456
 2105TIP3    H2 6322   4.410   2.708   1.426
 2106TIP3   OH2 6323   4.816   1.051   3.450
 2106TIP3    H1 6324   4.734   1.019   3.487
 2106TIP3    H2 6325   4.804   1.146   3.445
 2107TIP3   OH2 6326   3.904   3.001   1.218
 2107TIP3    H1 6327   3.974   3.034   1.275
 2107TIP3    H2 6328   3.939   3.011   1.129
 2108TIP3   OH2 6329   2.280   0.538   3.565
 2108TIP3    H1 6330   2.233   0.621   3.571
 2108TIP3    H2 6331   2.345   0.542   3.636
 2109TIP3   OH2 6332   4.325   2.813   0.206
 2109TIP3    H1 6333   4.366   2.728   0.223
 2109TIP3    H2 6334   4.326   2.858   0.291
 2110TIP3   OH2 6335   2.445   0.247   0.863
 2110TIP3    H1 6336   2.496   0.219   0.787
 2110TIP3    H2 6337   2.510   0.271   0.928
 2111TIP3   OH2 6338   1.829   0.040   1.284
 2111TIP3    H1 6339   1.804   0.119   1.236
 2111TIP3    H2 6340   1.923   0.052   1.302
 2112TIP3   OH2 6341   4.663   3.017   3.675
 2112TIP3    H1 6342   4.584   3.012   3.727
 2112TIP3    H2 6343   4.699   2.928   3.677
 2113TIP3   OH2 6344   2.813   1.512   2.482
 2113TIP3    H1 6345   2.867   1.478   2.553
 2113TIP3    H2 6346   2.849   1.600   2.465
 2114TIP3   OH2 6347   3.346   4.248   1.107
 2114TIP3    H1 6348   3.277   4.234   1.042
 2114TIP3    H2 6349   3.337   4.173   1.167
 2115TIP3   OH2 6350   2.907   5.860   3.442
 2115TIP3    H1 6351   2.999   5.871   3.464
 2115TIP3    H2 6352   2.863   5.935   3.483
 2116TIP3   OH2 6353   6.070   5.778   1.512
 2116TIP3    H1 6354   6.052   5.869   1.490
 2116TIP3    H2 6355   6.163   5.775   1.531
 2117TIP3   OH2 6356   2.174   5.095   2.068
 2117TIP3    H1 6357   2.217   5.180   2.066
 2117TIP3    H2 6358   2.096   5.108   2.122
 2118TIP3   OH2 6359   1.348   5.807   2.230
 2118TIP3    H1 6360   1.393   5.870   2.288
 2118TIP3    H2 6361   1.283   5.765   2.286
 2119TIP3   OH2 6362   5.643   0.924   1.694
 2119TIP3    H1 6363   5.605   0.841   1.667
 2119TIP3    H2 6364   5.730   0.926   1.653
 2120TIP3   OH2 6365   0.230   5.112   2.676
 2120TIP3    H1 6366   0.320   5.135   2.652
 2120TIP3    H2 6367   0.176   5.178   2.631
 2121TIP3   OH2 6368   0.864   3.528   2.088
 2121TIP3    H1 6369   0.918   3.544   2.010
 2121TIP3    H2 6370   0.925   3.537   2.161
 2122TIP3   OH2 6371   3.273   2.220   2.664
 2122TIP3    H1 6372   3.282   2.312   2.639
 2122TIP3    H2 6373   3.214   2.221   2.739
 2123TIP3   OH2 6374   3.921   5.802   3.942
 2123TIP3    H1 6375   3.842   5.847   3.911
 2123TIP3    H2 6376   3.990   5.868   3.934
 2124TIP3   OH2 6377   4.222   2.486   2.206
 2124TIP3    H1 6378   4.196   2.522   2.121
 2124TIP3    H2 6379   4.141   2.485   2.257
 2125TIP3   OH2 6380   5.436   2.845   5.020
 2125TIP3    H1 6381   5.441   2.761   4.973
 2125TIP3    H2 6382   5.520   2.887   5.002
 2126TIP3   OH2 6383   2.789   3.909   2.800
 2126TIP3    H1 6384   2.877   3.892   2.766
 2126TIP3    H2 6385   2.767   3.996   2.768
 2127TIP3   OH2 6386   5.516   3.510   4.991
 2127TIP3    H1 6387   5.449   3.508   4.924
 2127TIP3    H2 6388   5.553   3.421   4.991
 2128TIP3   OH2 6389   5.092   0.048   1.076
 2128TIP3    H1 6390   5.132   0.082   1.156
 2128TIP3    H2 6391   5.107  -0.046   1.080
 2129TIP3   OH2 6392   3.400   5.130   2.726
 2129TIP3    H1 6393   3.422   5.211   2.680
 2129TIP3    H2 6394   3.329   5.154   2.785
 2130TIP3   OH2 6395   2.507   1.219   2.444
 2130TIP3    H1 6396   2.584   1.163   2.454
 2130TIP3    H2 6397   2.457   1.177   2.373
 2131TIP3   OH2 6398   2.280   1.823   0.251
 2131TIP3    H1 6399   2.297   1.913   0.278
 2131TIP3    H2 6400   2.334   1.810   0.174
 2132TIP3   OH2 6401   3.544   3.906   4.769
 2132TIP3    H1 6402   3.572   3.836   4.827
 2132TIP3    H2 6403   3.469   3.946   4.813
 2133TIP3   OH2 6404   5.533   0.560   2.609
 2133TIP3    H1 6405   5.449   0.555   2.564
 2133TIP3    H2 6406   5.598   0.561   2.540
 2134TIP3   OH2 6407   4.558   3.796   4.179
 2134TIP3    H1 6408   4.528   3.723   4.126
 2134TIP3    H2 6409   4.628   3.836   4.127
 2135TIP3   OH2 6410   2.332   0.281   3.251
 2135TIP3    H1 6411   2.368   0.301   3.337
 2135TIP3    H2 6412   2.369   0.348   3.193
 2136TIP3   OH2 6413   2.910   5.674   2.520
 2136TIP3    H1 6414   2.886   5.617   2.594
 2136TIP3    H2 6415   2.977   5.733   2.556
 2137TIP3   OH2 6416   4.362   3.443   4.891
 2137TIP3    H1 6417   4.338   3.463   4.981
 2137TIP3    H2 6418   4.350   3.525   4.844
 2138TIP3   OH2 6419   0.586   4.356   4.867
 2138TIP3    H1 6420   0.625   4.433   4.825
 2138TIP3    H2 6421   0.495   4.356   4.839
 2139TIP3   OH2 6422   3.804   5.145   0.563
 2139TIP3    H1 6423   3.736   5.206   0.533
 2139TIP3    H2 6424   3.885   5.196   0.557
 2140TIP3   OH2 6425   4.219   2.862   0.510
 2140TIP3    H1 6426   4.292   2.806   0.484
 2140TIP3    H2 6427   4.215   2.853   0.606
 2141TIP3   OH2 6428   2.100   3.826   4.935
 2141TIP3    H1 6429   2.132   3.908   4.899
 2141TIP3    H2 6430   2.047   3.787   4.864
 2142TIP3   OH2 6431   4.461   5.049   4.993
 2142TIP3    H1 6432   4.440   4.999   5.072
 2142TIP3    H2 6433   4.425   4.997   4.922
 2143TIP3   OH2 6434   2.052   2.097   1.789
 2143TIP3    H1 6435   2.105   2.026   1.752
 2143TIP3    H2 6436   2.021   2.146   1.713
 2144TIP3   OH2 6437   3.212   4.701   3.785
 2144TIP3    H1 6438   3.199   4.765   3.714
 2144TIP3    H2 6439   3.258   4.628   3.743
 2145TIP3   OH2 6440   0.945   2.370   4.916
 2145TIP3    H1 6441   0.939   2.406   4.827
 2145TIP3    H2 6442   0.855   2.370   4.948
 2146TIP3   OH2 6443   1.510   0.437   3.254
 2146TIP3    H1 6444   1.451   0.366   3.281
 2146TIP3    H2 6445   1.453   0.513   3.245
 2147TIP3   OH2 6446   3.250   3.439   0.984
 2147TIP3    H1 6447   3.288   3.362   1.026
 2147TIP3    H2 6448   3.325   3.495   0.964
 2148TIP3   OH2 6449   4.339   4.961   3.828
 2148TIP3    H1 6450   4.342   5.033   3.891
 2148TIP3    H2 6451   4.253   4.921   3.841
 2149TIP3   OH2 6452   5.770   0.483   4.552
 2149TIP3    H1 6453   5.752   0.440   4.636
 2149TIP3    H2 6454   5.684   0.492   4.511
 2150TIP3   OH2 6455   2.729   3.302   0.702
 2150TIP3    H1 6456   2.812   3.339   0.733
 2150TIP3    H2 6457   2.675   3.295   0.781
 2151TIP3   OH2 6458   3.332   2.070   4.657
 2151TIP3    H1 6459   3.388   1.993   4.667
 2151TIP3    H2 6460   3.374   2.138   4.710
 2152TIP3   OH2 6461   6.312   4.246   4.591
 2152TIP3    H1 6462   6.242   4.312   4.587
 2152TIP3    H2 6463   6.357   4.263   4.673
 2153TIP3   OH2 6464   3.347   2.904   1.143
 2153TIP3    H1 6465   3.342   2.825   1.090
 2153TIP3    H2 6466   3.257   2.918   1.173
 2154TIP3   OH2 6467   2.336   4.392   4.242
 2154TIP3    H1 6468   2.334   4.376   4.337
 2154TIP3    H2 6469   2.296   4.479   4.232
 2155TIP3   OH2 6470   2.444   2.294   4.953
 2155TIP3    H1 6471   2.429   2.377   4.998
 2155TIP3    H2 6472   2.497   2.243   5.014
 2156TIP3   OH2 6473   2.482   4.638   1.973
 2156TIP3    H1 6474   2.510   4.610   2.060
 2156TIP3    H2 6475   2.458   4.730   1.985
 2157TIP3   OH2 6476   0.877   0.056   1.563
 2157TIP3    H1 6477   0.829   0.115   1.505
 2157TIP3    H2 6478   0.964   0.049   1.524
 2158TIP3   OH2 6479   2.882   0.458   4.430
 2158TIP3    H1 6480   2.887   0.409   4.512
 2158TIP3    H2 6481   2.973   0.483   4.411
 2159TIP3   OH2 6482   4.683   4.861   1.039
 2159TIP3    H1 6483   4.725   4.875   1.124
 2159TIP3    H2 6484   4.619   4.792   1.054
 2160TIP3   OH2 6485   5.206   0.109   5.081
 2160TIP3    H1 6486   5.242   0.183   5.130
 2160TIP3    H2 6487   5.259   0.034   5.109
 2161TIP3   OH2 6488   5.540   3.401   2.887
 2161TIP3    H1 6489   5.627   3.413   2.925
 2161TIP3    H2 6490   5.517   3.486   2.851
 2162TIP3   OH2 6491   5.653   4.996   4.506
 2162TIP3    H1 6492   5.703   4.988   4.424
 2162TIP3    H2 6493   5.720   4.992   4.574
 2163TIP3   OH2 6494   6.115   4.722   3.634
 2163TIP3    H1 6495   6.145   4.684   3.551
 2163TIP3    H2 6496   6.067   4.652   3.677
 2164TIP3   OH2 6497   6.028   3.146   4.250
 2164TIP3    H1 6498   6.075   3.207   4.193
 2164TIP3    H2 6499   6.079   3.065   4.246
 2165TIP3   OH2 6500   1.853   5.253   3.170
 2165TIP3    H1 6501   1.907   5.209   3.236
 2165TIP3    H2 6502   1.813   5.181   3.121
 2166TIP3   OH2 6503   0.805   0.568   1.930
 2166TIP3    H1 6504   0.744   0.499   1.957
 2166TIP3    H2 6505   0.777   0.645   1.979
 2167TIP3   OH2 6506   0.957   2.773   1.276
 2167TIP3    H1 6507   0.864   2.797   1.279
 2167TIP3    H2 6508   0.966   2.706   1.344
 2168TIP3   OH2 6509   6.066   5.328   2.111
 2168TIP3    H1 6510   6.151   5.372   2.117
 2168TIP3    H2 6511   6.002   5.396   2.129
 2169TIP3   OH2 6512   4.780   4.511   0.773
 2169TIP3    H1 6513   4.807   4.603   0.776
 2169TIP3    H2 6514   4.756   4.496   0.681
 2170TIP3   OH2 6515   5.429   2.677   4.026
 2170TIP3    H1 6516   5.414   2.731   3.948
 2170TIP3    H2 6517   5.516   2.703   4.057
 2171TIP3   OH2 6518   4.499   0.434   3.591
 2171TIP3    H1 6519   4.550   0.410   3.513
 2171TIP3    H2 6520   4.418   0.470   3.557
 2172TIP3   OH2 6521   5.383   4.270   0.030
 2172TIP3    H1 6522   5.345   4.186   0.004
 2172TIP3    H2 6523   5.373   4.273   0.125
 2173TIP3   OH2 6524   5.782   2.456   2.995
 2173TIP3    H1 6525   5.765   2.383   2.935
 2173TIP3    H2 6526   5.753   2.424   3.080
 2174TIP3   OH2 6527   4.183   2.258   5.065
 2174TIP3    H1 6528   4.175   2.350   5.042
 2174TIP3    H2 6529   4.270   2.250   5.105
 2175TIP3   OH2 6530   3.025   5.424   0.349
 2175TIP3    H1 6531   3.011   5.330   0.359
 2175TIP3    H2 6532   3.109   5.431   0.303
 2176TIP3   OH2 6533   1.842   5.193   1.835
 2176TIP3    H1 6534   1.874   5.109   1.802
 2176TIP3    H2 6535   1.769   5.215   1.778
 2177TIP3   OH2 6536   5.238   2.091   2.660
 2177TIP3    H1 6537   5.258   2.160   2.596
 2177TIP3    H2 6538   5.144   2.098   2.676
 2178TIP3   OH2 6539   3.136   0.962   4.301
 2178TIP3    H1 6540   3.133   0.994   4.211
 2178TIP3    H2 6541   3.185   1.030   4.348
 2179TIP3   OH2 6542   5.096   3.140   2.824
 2179TIP3    H1 6543   5.073   3.049   2.806
 2179TIP3    H2 6544   5.122   3.139   2.916
 2180TIP3   OH2 6545   3.790   4.441   1.217
 2180TIP3    H1 6546   3.695   4.441   1.230
 2180TIP3    H2 6547   3.800   4.457   1.123
 2181TIP3   OH2 6548   4.860   3.520   4.122
 2181TIP3    H1 6549   4.777   3.563   4.101
 2181TIP3    H2 6550   4.877   3.464   4.046
 2182TIP3   OH2 6551   3.854   3.217   1.893
 2182TIP3    H1 6552   3.831   3.129   1.921
 2182TIP3    H2 6553   3.896   3.205   1.807
 2183TIP3   OH2 6554   4.185   0.664   0.917
 2183TIP3    H1 6555   4.251   0.599   0.944
 2183TIP3    H2 6556   4.204   0.741   0.970
 2184TIP3   OH2 6557   3.304   5.271   2.405
 2184TIP3    H1 6558   3.224   5.323   2.398
 2184TIP3    H2 6559   3.347   5.304   2.485
 2185TIP3   OH2 6560   5.180   5.406   1.761
 2185TIP3    H1 6561   5.261   5.456   1.749
 2185TIP3    H2 6562   5.129   5.459   1.822
 2186TIP3   OH2 6563   5.055   0.451   2.238
 2186TIP3    H1 6564   5.016   0.504   2.168
 2186TIP3    H2 6565   5.057   0.363   2.202
 2187TIP3   OH2 6566   0.316   0.859   1.644
 2187TIP3    H1 6567   0.411   0.860   1.648
 2187TIP3    H2 6568   0.288   0.936   1.695
 2188TIP3   OH2 6569   5.512   2.982   3.659
 2188TIP3    H1 6570   5.589   3.033   3.684
 2188TIP3    H2 6571   5.492   3.010   3.570
 2189TIP3   OH2 6572   1.433   0.864   1.706
 2189TIP3    H1 6573   1.496   0.847   1.777
 2189TIP3    H2 6574   1.444   0.957   1.686
 2190TIP3   OH2 6575   4.147   3.676   4.812
 2190TIP3    H1 6576   4.189   3.641   4.733
 2190TIP3    H2 6577   4.110   3.760   4.784
 2191TIP3   OH2 6578   3.455   3.059   2.593
 2191TIP3    H1 6579   3.449   3.104   2.509
 2191TIP3    H2 6580   3.379   3.090   2.642
 2192TIP3   OH2 6581   2.318   2.063   2.263
 2192TIP3    H1 6582   2.285   2.120   2.193
 2192TIP3    H2 6583   2.368   1.995   2.217
 2193TIP3   OH2 6584   2.190   2.047   4.996
 2193TIP3    H1 6585   2.178   2.113   4.928
 2193TIP3    H2 6586   2.102   2.017   5.018
 2194TIP3   OH2 6587   3.430   2.232   0.533
 2194TIP3    H1 6588   3.404   2.321   0.557
 2194TIP3    H2 6589   3.461   2.193   0.614
 2195TIP3   OH2 6590   2.074   5.179   3.683
 2195TIP3    H1 6591   2.136   5.144   3.619
 2195TIP3    H2 6592   1.995   5.198   3.632
 2196TIP3   OH2 6593   5.799   2.986   4.003
 2196TIP3    H1 6594   5.889   3.018   4.000
 2196TIP3    H2 6595   5.746   3.063   3.981
 2197TIP3   OH2 6596   4.965   2.966   4.689
 2197TIP3    H1 6597   4.889   3.022   4.679
 2197TIP3    H2 6598   4.932   2.888   4.734
 2198TIP3   OH2 6599   0.277   0.497   1.115
 2198TIP3    H1 6600   0.363   0.482   1.154
 2198TIP3    H2 6601   0.289   0.482   1.022
 2199TIP3   OH2 6602   6.347   0.218   5.065
 2199TIP3    H1 6603   6.294   0.277   5.011
 2199TIP3    H2 6604   6.348   0.258   5.152
 2200TIP3   OH2 6605   4.959   4.776   4.443
 2200TIP3    H1 6606   4.864   4.787   4.451
 2200TIP3    H2 6607   4.982   4.820   4.362
 2201TIP3   OH2 6608   2.945   3.529   3.265
 2201TIP3    H1 6609   2.982   3.449   3.228
 2201TIP3    H2 6610   2.962   3.521   3.359
 2202TIP3   OH2 6611   2.935   1.963   1.141
 2202TIP3    H1 6612   2.938   2.033   1.205
 2202TIP3    H2 6613   3.013   1.975   1.087
 2203TIP3   OH2 6614   2.732   3.294   2.017
 2203TIP3    H1 6615   2.641   3.300   1.987
 2203TIP3    H2 6616   2.781   3.351   1.958
 2204TIP3   OH2 6617   5.252   1.947   0.793
 2204TIP3    H1 6618   5.223   1.888   0.862
 2204TIP3    H2 6619   5.329   1.904   0.755
 2205TIP3   OH2 6620   2.961   5.515   1.461
 2205TIP3    H1 6621   2.935   5.596   1.505
 2205TIP3    H2 6622   2.946   5.532   1.368
 2206TIP3   OH2 6623   1.565   4.403   3.718
 2206TIP3    H1 6624   1.561   4.344   3.793
 2206TIP3    H2 6625   1.489   4.379   3.665
 2207TIP3   OH2 6626   2.228   4.061   2.500
 2207TIP3    H1 6627   2.273   3.996   2.446
 2207TIP3    H2 6628   2.199   4.012   2.578
 2208TIP3   OH2 6629   5.680   3.790   4.253
 2208TIP3    H1 6630   5.593   3.804   4.290
 2208TIP3    H2 6631   5.697   3.696   4.266
 2209TIP3   OH2 6632   2.347   2.297   3.342
 2209TIP3    H1 6633   2.304   2.227   3.390
 2209TIP3    H2 6634   2.379   2.255   3.262
 2210TIP3   OH2 6635   2.181   3.266   0.620
 2210TIP3    H1 6636   2.196   3.344   0.566
 2210TIP3    H2 6637   2.183   3.193   0.558
 2211TIP3   OH2 6638   3.322   5.919   4.950
 2211TIP3    H1 6639   3.347   5.853   4.885
 2211TIP3    H2 6640   3.309   5.999   4.899
 2212TIP3   OH2 6641   5.016   0.811   3.169
 2212TIP3    H1 6642   5.075   0.737   3.153
 2212TIP3    H2 6643   4.937   0.770   3.206
 2213TIP3   OH2 6644   0.602   3.111   0.038
 2213TIP3    H1 6645   0.639   3.144   0.120
 2213TIP3    H2 6646   0.527   3.058   0.065
 2214TIP3   OH2 6647   1.431   2.088   4.328
 2214TIP3    H1 6648   1.441   2.142   4.406
 2214TIP3    H2 6649   1.513   2.100   4.279
 2215TIP3   OH2 6650   0.979   4.651   1.225
 2215TIP3    H1 6651   0.945   4.738   1.205
 2215TIP3    H2 6652   1.072   4.656   1.201
 2216TIP3   OH2 6653   3.313   3.184   3.987
 2216TIP3    H1 6654   3.234   3.212   3.940
 2216TIP3    H2 6655   3.287   3.182   4.079
 2217TIP3   OH2 6656   3.454   3.164   0.754
 2217TIP3    H1 6657   3.404   3.243   0.732
 2217TIP3    H2 6658   3.444   3.108   0.677
 2218TIP3   OH2 6659   1.444   0.524   1.485
 2218TIP3    H1 6660   1.403   0.455   1.432
 2218TIP3    H2 6661   1.370   0.577   1.516
 2219TIP3   OH2 6662   2.651   2.179   1.203
 2219TIP3    H1 6663   2.734   2.202   1.246
 2219TIP3    H2 6664   2.618   2.106   1.255
 2220TIP3   OH2 6665   4.420   5.298   2.209
 2220TIP3    H1 6666   4.361   5.333   2.277
 2220TIP3    H2 6667   4.427   5.370   2.146
 2221TIP3   OH2 6668   2.554   3.729   3.980
 2221TIP3    H1 6669   2.598   3.802   3.937
 2221TIP3    H2 6670   2.508   3.683   3.909
 2222TIP3   OH2 6671   3.244   2.040   1.784
 2222TIP3    H1 6672   3.269   1.988   1.861
 2222TIP3    H2 6673   3.305   2.114   1.786
 2223TIP3   OH2 6674   3.766   0.113   2.127
 2223TIP3    H1 6675   3.694   0.052   2.144
 2223TIP3    H2 6676   3.821   0.069   2.063
 2224TIP3   OH2 6677   3.005   4.897   4.289
 2224TIP3    H1 6678   3.033   4.865   4.203
 2224TIP3    H2 6679   3.027   4.990   4.288
 2225TIP3   OH2 6680   2.962   0.949   4.731
 2225TIP3    H1 6681   2.910   1.012   4.680
 2225TIP3    H2 6682   2.980   0.878   4.670
 2226TIP3   OH2 6683   4.405   0.628   2.179
 2226TIP3    H1 6684   4.447   0.641   2.264
 2226TIP3    H2 6685   4.382   0.535   2.177
 2227TIP3   OH2 6686   1.966   2.348   4.258
 2227TIP3    H1 6687   1.925   2.359   4.343
 2227TIP3    H2 6688   2.010   2.431   4.240
 2228TIP3   OH2 6689   1.381   2.967   0.993
 2228TIP3    H1 6690   1.297   2.964   1.039
 2228TIP3    H2 6691   1.411   2.876   0.992
 2229TIP3   OH2 6692   2.035   0.661   4.776
 2229TIP3    H1 6693   2.027   0.641   4.869
 2229TIP3    H2 6694   2.118   0.707   4.769
 2230TIP3   OH2 6695   2.470   3.543   2.736
 2230TIP3    H1 6696   2.417   3.544   2.816
 2230TIP3    H2 6697   2.437   3.617   2.685
 2231TIP3   OH2 6698   1.539   1.715   0.068
 2231TIP3    H1 6699   1.461   1.661   0.057
 2231TIP3    H2 6700   1.512   1.803   0.043
 2232TIP3   OH2 6701   2.665   3.617   1.429
 2232TIP3    H1 6702   2.703   3.598   1.344
 2232TIP3    H2 6703   2.636   3.532   1.463
 2233TIP3   OH2 6704   0.380   4.481   4.245
 2233TIP3    H1 6705   0.335   4.405   4.209
 2233TIP3    H2 6706   0.320   4.554   4.229
 2234TIP3   OH2 6707   1.816   3.801   4.543
 2234TIP3    H1 6708   1.865   3.883   4.534
 2234TIP3    H2 6709   1.734   3.827   4.587
 2235TIP3   OH2 6710   5.917   1.194   2.970
 2235TIP3    H1 6711   5.931   1.127   3.037
 2235TIP3    H2 6712   5.830   1.229   2.988
 2236TIP3   OH2 6713   1.556   3.962   0.820
 2236TIP3    H1 6714   1.593   4.015   0.891
 2236TIP3    H2 6715   1.537   3.877   0.860
 2237TIP3   OH2 6716   3.921   5.372   2.639
 2237TIP3    H1 6717   3.930   5.467   2.650
 2237TIP3    H2 6718   3.828   5.355   2.657
 2238TIP3   OH2 6719   1.047   5.520   4.364
 2238TIP3    H1 6720   1.115   5.545   4.426
 2238TIP3    H2 6721   1.093   5.514   4.280
 2239TIP3   OH2 6722   4.939   1.907   0.962
 2239TIP3    H1 6723   4.989   1.988   0.954
 2239TIP3    H2 6724   4.850   1.931   0.935
 2240TIP3   OH2 6725   3.492   2.129   0.806
 2240TIP3    H1 6726   3.457   2.180   0.879
 2240TIP3    H2 6727   3.498   2.040   0.839
 2241TIP3   OH2 6728   0.851   3.591   4.876
 2241TIP3    H1 6729   0.886   3.505   4.897
 2241TIP3    H2 6730   0.897   3.617   4.796
 2242TIP3   OH2 6731   5.054   3.442   1.703
 2242TIP3    H1 6732   5.065   3.494   1.624
 2242TIP3    H2 6733   5.127   3.467   1.759
 2243TIP3   OH2 6734   4.314   1.258   4.062
 2243TIP3    H1 6735   4.348   1.329   4.116
 2243TIP3    H2 6736   4.291   1.189   4.124
 2244TIP3   OH2 6737   0.483   2.462   4.325
 2244TIP3    H1 6738   0.511   2.552   4.308
 2244TIP3    H2 6739   0.390   2.461   4.303
 2245TIP3   OH2 6740   4.514   0.628   2.784
 2245TIP3    H1 6741   4.482   0.541   2.808
 2245TIP3    H2 6742   4.585   0.611   2.721
 2246TIP3   OH2 6743   2.674   5.328   3.065
 2246TIP3    H1 6744   2.650   5.363   3.151
 2246TIP3    H2 6745   2.634   5.388   3.002
 2247TIP3   OH2 6746   2.831   3.035   4.802
 2247TIP3    H1 6747   2.870   2.970   4.861
 2247TIP3    H2 6748   2.813   3.110   4.858
 2248TIP3   OH2 6749   3.910   3.432   3.714
 2248TIP3    H1 6750   3.901   3.512   3.663
 2248TIP3    H2 6751   3.989   3.445   3.767
 2249TIP3   OH2 6752   1.192   5.678   2.386
 2249TIP3    H1 6753   1.206   5.583   2.392
 2249TIP3    H2 6754   1.105   5.691   2.423
 2250TIP3   OH2 6755   2.615   0.120   4.468
 2250TIP3    H1 6756   2.635   0.162   4.551
 2250TIP3    H2 6757   2.636   0.187   4.402
 2251TIP3   OH2 6758   5.887   1.267   1.689
 2251TIP3    H1 6759   5.816   1.238   1.746
 2251TIP3    H2 6760   5.856   1.246   1.600
 2252TIP3   OH2 6761   4.349   4.049   1.942
 2252TIP3    H1 6762   4.290   4.122   1.959
 2252TIP3    H2 6763   4.366   4.054   1.848
 2253TIP3   OH2 6764   1.356   0.143   1.253
 2253TIP3    H1 6765   1.350   0.238   1.243
 2253TIP3    H2 6766   1.344   0.128   1.347
 2254TIP3   OH2 6767   3.889   5.352   0.860
 2254TIP3    H1 6768   3.943   5.313   0.792
 2254TIP3    H2 6769   3.949   5.372   0.931
 2255TIP3   OH2 6770   0.525   3.357   4.608
 2255TIP3    H1 6771   0.566   3.398   4.532
 2255TIP3    H2 6772   0.521   3.264   4.587
 2256TIP3   OH2 6773   4.500   4.481   1.010
 2256TIP3    H1 6774   4.516   4.558   1.065
 2256TIP3    H2 6775   4.587   4.444   0.995
 2257TIP3   OH2 6776   2.162   0.058   4.196
 2257TIP3    H1 6777   2.123   0.004   4.264
 2257TIP3    H2 6778   2.247   0.083   4.231
 2258TIP3   OH2 6779   2.846   4.317   1.187
 2258TIP3    H1 6780   2.846   4.405   1.150
 2258TIP3    H2 6781   2.811   4.328   1.275
 2259TIP3   OH2 6782   4.746   3.509   0.325
 2259TIP3    H1 6783   4.790   3.424   0.320
 2259TIP3    H2 6784   4.723   3.519   0.417
 2260TIP3   OH2 6785   4.519   2.899   2.374
 2260TIP3    H1 6786   4.598   2.914   2.426
 2260TIP3    H2 6787   4.485   2.815   2.405
 2261TIP3   OH2 6788   1.044   4.313   5.026
 2261TIP3    H1 6789   0.954   4.293   5.052
 2261TIP3    H2 6790   1.098   4.259   5.084
 2262TIP3   OH2 6791   3.180   3.363   2.129
 2262TIP3    H1 6792   3.183   3.458   2.126
 2262TIP3    H2 6793   3.214   3.335   2.044
 2263TIP3   OH2 6794   4.380   1.243   2.810
 2263TIP3    H1 6795   4.307   1.289   2.853
 2263TIP3    H2 6796   4.399   1.297   2.733
 2264TIP3   OH2 6797   2.475   2.739   0.640
 2264TIP3    H1 6798   2.434   2.809   0.589
 2264TIP3    H2 6799   2.420   2.662   0.624
 2265TIP3   OH2 6800   6.038   5.514   1.757
 2265TIP3    H1 6801   5.948   5.543   1.772
 2265TIP3    H2 6802   6.089   5.595   1.756
 2266TIP3   OH2 6803   2.521   1.929   0.690
 2266TIP3    H1 6804   2.537   2.023   0.698
 2266TIP3    H2 6805   2.459   1.921   0.617
 2267TIP3   OH2 6806   5.124   1.928   2.930
 2267TIP3    H1 6807   5.151   2.009   2.973
 2267TIP3    H2 6808   5.200   1.870   2.936
 2268TIP3   OH2 6809   2.174   1.775   1.309
 2268TIP3    H1 6810   2.091   1.796   1.352
 2268TIP3    H2 6811   2.182   1.841   1.239
 2269TIP3   OH2 6812   5.897   3.390   1.766
 2269TIP3    H1 6813   5.918   3.325   1.832
 2269TIP3    H2 6814   5.870   3.339   1.689
 2270TIP3   OH2 6815   3.924   0.584   0.906
 2270TIP3    H1 6816   3.896   0.675   0.911
 2270TIP3    H2 6817   4.016   0.586   0.930
 2271TIP3   OH2 6818   0.659   4.762   3.552
 2271TIP3    H1 6819   0.682   4.793   3.464
 2271TIP3    H2 6820   0.649   4.668   3.542
 2272TIP3   OH2 6821   1.613   5.361   3.299
 2272TIP3    H1 6822   1.589   5.269   3.311
 2272TIP3    H2 6823   1.699   5.358   3.257
 2273TIP3   OH2 6824   2.793   5.225   4.743
 2273TIP3    H1 6825   2.762   5.160   4.806
 2273TIP3    H2 6826   2.849   5.284   4.794
 2274TIP3   OH2 6827   3.915   0.397   4.538
 2274TIP3    H1 6828   3.832   0.403   4.490
 2274TIP3    H2 6829   3.980   0.433   4.478
 2275TIP3   OH2 6830   1.571   3.010   0.462
 2275TIP3    H1 6831   1.501   2.946   0.447
 2275TIP3    H2 6832   1.525   3.094   0.468
 2276TIP3   OH2 6833   1.449   5.493   1.313
 2276TIP3    H1 6834   1.534   5.526   1.344
 2276TIP3    H2 6835   1.385   5.556   1.345
 2277TIP3   OH2 6836   4.016   4.882   4.383
 2277TIP3    H1 6837   4.044   4.835   4.462
 2277TIP3    H2 6838   4.019   4.816   4.314
 2278TIP3   OH2 6839   4.212   5.701   2.712
 2278TIP3    H1 6840   4.269   5.772   2.740
 2278TIP3    H2 6841   4.207   5.710   2.617
 2279TIP3   OH2 6842   1.775   1.922   0.941
 2279TIP3    H1 6843   1.725   1.846   0.912
 2279TIP3    H2 6844   1.861   1.911   0.901
 2280TIP3   OH2 6845   5.022   0.291   0.577
 2280TIP3    H1 6846   4.983   0.228   0.638
 2280TIP3    H2 6847   5.090   0.240   0.532
 2281TIP3   OH2 6848   2.677   0.320   1.006
 2281TIP3    H1 6849   2.771   0.328   0.985
 2281TIP3    H2 6850   2.654   0.403   1.047
 2282TIP3   OH2 6851   5.093   3.603   1.471
 2282TIP3    H1 6852   5.133   3.689   1.487
 2282TIP3    H2 6853   4.999   3.621   1.467
 2283TIP3   OH2 6854   5.029   5.139   3.919
 2283TIP3    H1 6855   5.102   5.116   3.977
 2283TIP3    H2 6856   4.994   5.220   3.956
 2284TIP3   OH2 6857   5.748   3.105   4.300
 2284TIP3    H1 6858   5.834   3.138   4.272
 2284TIP3    H2 6859   5.697   3.099   4.219
 2285TIP3   OH2 6860   2.364   5.806   1.517
 2285TIP3    H1 6861   2.402   5.793   1.430
 2285TIP3    H2 6862   2.285   5.751   1.517
 2286TIP3   OH2 6863   4.505   3.373   0.807
 2286TIP3    H1 6864   4.460   3.399   0.887
 2286TIP3    H2 6865   4.594   3.351   0.835
 2287TIP3   OH2 6866   5.741   0.316   4.970
 2287TIP3    H1 6867   5.764   0.314   5.063
 2287TIP3    H2 6868   5.660   0.264   4.964
 2288TIP3   OH2 6869   1.206   0.414   3.233
 2288TIP3    H1 6870   1.197   0.325   3.268
 2288TIP3    H2 6871   1.174   0.470   3.304
 2289TIP3   OH2 6872   2.616   2.659   3.335
 2289TIP3    H1 6873   2.554   2.656   3.408
 2289TIP3    H2 6874   2.693   2.703   3.372
 2290TIP3   OH2 6875   5.533   2.667   0.109
 2290TIP3    H1 6876   5.585   2.736   0.068
 2290TIP3    H2 6877   5.598   2.612   0.154
 2291TIP3   OH2 6878   4.782   1.577   1.793
 2291TIP3    H1 6879   4.804   1.583   1.700
 2291TIP3    H2 6880   4.780   1.668   1.823
 2292TIP3   OH2 6881   0.094   1.677   1.204
 2292TIP3    H1 6882   0.117   1.765   1.176
 2292TIP3    H2 6883   0.018   1.654   1.151
 2293TIP3   OH2 6884   4.551   2.404   2.317
 2293TIP3    H1 6885   4.486   2.334   2.307
 2293TIP3    H2 6886   4.635   2.358   2.322
 2294TIP3   OH2 6887   5.791   1.477   0.903
 2294TIP3    H1 6888   5.703   1.517   0.903
 2294TIP3    H2 6889   5.837   1.521   0.831
 2295TIP3   OH2 6890   4.904   5.470   5.152
 2295TIP3    H1 6891   4.843   5.529   5.195
 2295TIP3    H2 6892   4.851   5.393   5.131
 2296TIP3   OH2 6893   5.320   4.263   0.625
 2296TIP3    H1 6894   5.246   4.285   0.681
 2296TIP3    H2 6895   5.344   4.174   0.650
 2297TIP3   OH2 6896   0.857   4.078   3.776
 2297TIP3    H1 6897   0.860   4.069   3.871
 2297TIP3    H2 6898   0.823   3.993   3.745
 2298TIP3   OH2 6899   4.262   3.425   4.195
 2298TIP3    H1 6900   4.199   3.393   4.260
 2298TIP3    H2 6901   4.245   3.519   4.190
 2299TIP3   OH2 6902   1.007   5.131   4.146
 2299TIP3    H1 6903   0.996   5.144   4.052
 2299TIP3    H2 6904   0.925   5.089   4.174
 2300TIP3   OH2 6905   6.017   1.710   1.734
 2300TIP3    H1 6906   6.054   1.786   1.780
 2300TIP3    H2 6907   5.989   1.744   1.650
 2301TIP3   OH2 6908   0.097   5.655   3.025
 2301TIP3    H1 6909   0.126   5.626   3.112
 2301TIP3    H2 6910   0.023   5.598   3.004
 2302TIP3   OH2 6911   3.559   2.946   4.182
 2302TIP3    H1 6912   3.494   2.902   4.128
 2302TIP3    H2 6913   3.574   3.030   4.140
 2303TIP3   OH2 6914   5.645   5.431   3.719
 2303TIP3    H1 6915   5.652   5.518   3.760
 2303TIP3    H2 6916   5.670   5.445   3.628
 2304TIP3   OH2 6917   4.080   0.734   4.793
 2304TIP3    H1 6918   4.011   0.798   4.812
 2304TIP3    H2 6919   4.157   0.787   4.772
 2305TIP3   OH2 6920   5.868   5.013   2.217
 2305TIP3    H1 6921   5.839   5.103   2.208
 2305TIP3    H2 6922   5.805   4.962   2.166
 2306TIP3   OH2 6923   1.026   2.419   5.178
 2306TIP3    H1 6924   0.957   2.362   5.210
 2306TIP3    H2 6925   1.041   2.391   5.087
 2307TIP3   OH2 6926   1.959   4.868   2.003
 2307TIP3    H1 6927   1.914   4.886   1.921
 2307TIP3    H2 6928   2.024   4.937   2.011
 2308TIP3   OH2 6929   0.340   1.795   4.838
 2308TIP3    H1 6930   0.401   1.869   4.835
 2308TIP3    H2 6931   0.385   1.725   4.790
 2309TIP3   OH2 6932   2.511   5.034  -0.019
 2309TIP3    H1 6933   2.590   4.980  -0.014
 2309TIP3    H2 6934   2.459   5.006   0.056
 2310TIP3   OH2 6935   0.198   2.044   0.169
 2310TIP3    H1 6936   0.292   2.030   0.152
 2310TIP3    H2 6937   0.189   2.140   0.171
 2311TIP3   OH2 6938   1.755   2.988   2.624
 2311TIP3    H1 6939   1.748   2.893   2.635
 2311TIP3    H2 6940   1.667   3.020   2.646
 2312TIP3   OH2 6941   2.240   5.910   3.295
 2312TIP3    H1 6942   2.335   5.910   3.308
 2312TIP3    H2 6943   2.213   5.999   3.318
 2313TIP3   OH2 6944   3.771   1.311   5.000
 2313TIP3    H1 6945   3.747   1.389   5.051
 2313TIP3    H2 6946   3.690   1.261   4.993
 2314TIP3   OH2 6947   6.128   4.013   2.333
 2314TIP3    H1 6948   6.092   4.046   2.251
 2314TIP3    H2 6949   6.215   3.979   2.310
 2315TIP3   OH2 6950   2.512   2.013   2.475
 2315TIP3    H1 6951   2.445   2.051   2.418
 2315TIP3    H2 6952   2.547   2.088   2.523
 2316TIP3   OH2 6953   5.300   1.803   4.222
 2316TIP3    H1 6954   5.391   1.775   4.227
 2316TIP3    H2 6955   5.275   1.789   4.131
 2317TIP3   OH2 6956   4.729   2.928   4.275
 2317TIP3    H1 6957   4.685   2.964   4.199
 2317TIP3    H2 6958   4.776   2.851   4.241
 2318TIP3   OH2 6959   2.333   2.261   0.809
 2318TIP3    H1 6960   2.425   2.259   0.833
 2318TIP3    H2 6961   2.289   2.297   0.886
 2319TIP3   OH2 6962   3.952   4.005   1.813
 2319TIP3    H1 6963   4.011   3.934   1.790
 2319TIP3    H2 6964   3.944   4.000   1.909
 2320TIP3   OH2 6965   5.996   1.056   3.686
 2320TIP3    H1 6966   6.014   1.058   3.592
 2320TIP3    H2 6967   5.920   0.999   3.695
 2321TIP3   OH2 6968   0.559   4.410  -0.009
 2321TIP3    H1 6969   0.581   4.489   0.040
 2321TIP3    H2 6970   0.465   4.399   0.005
 2322TIP3   OH2 6971   5.331   3.333   0.806
 2322TIP3    H1 6972   5.386   3.411   0.812
 2322TIP3    H2 6973   5.391   3.260   0.820
 2323TIP3   OH2 6974   2.678   3.486   2.359
 2323TIP3    H1 6975   2.753   3.439   2.325
 2323TIP3    H2 6976   2.637   3.525   2.282
 2324TIP3   OH2 6977   1.125   2.148   2.358
 2324TIP3    H1 6978   1.099   2.172   2.447
 2324TIP3    H2 6979   1.067   2.198   2.301
 2325TIP3   OH2 6980   4.624   1.090   1.584
 2325TIP3    H1 6981   4.610   1.160   1.520
 2325TIP3    H2 6982   4.625   1.009   1.533
 2326TIP3   OH2 6983   4.321   1.660   3.993
 2326TIP3    H1 6984   4.372   1.587   3.960
 2326TIP3    H2 6985   4.245   1.619   4.036
 2327TIP3   OH2 6986   1.044   2.615   3.314
 2327TIP3    H1 6987   1.043   2.572   3.228
 2327TIP3    H2 6988   1.042   2.709   3.294
 2328TIP3   OH2 6989   5.012   5.963   4.288
 2328TIP3    H1 6990   5.084   5.901   4.300
 2328TIP3    H2 6991   5.016   6.018   4.367
 2329TIP3   OH2 6992   1.022   3.846   3.091
 2329TIP3    H1 6993   1.087   3.805   3.148
 2329TIP3    H2 6994   1.064   3.847   3.005
 2330TIP3   OH2 6995   6.160   0.040   2.866
 2330TIP3    H1 6996   6.198   0.127   2.880
 2330TIP3    H2 6997   6.160   0.029   2.771
 2331TIP3   OH2 6998   3.881   2.658   4.631
 2331TIP3    H1 6999   3.806   2.598   4.631
 2331TIP3    H2 7000   3.944   2.617   4.572
 2332TIP3   OH2 7001   4.198   2.126   4.625
 2332TIP3    H1 7002   4.178   2.122   4.718
 2332TIP3    H2 7003   4.161   2.210   4.596
 2333TIP3   OH2 7004   4.988   0.993   4.213
 2333TIP3    H1 7005   4.928   1.056   4.252
 2333TIP3    H2 7006   5.067   0.999   4.267
 2334TIP3   OH2 7007   5.057   2.317   0.387
 2334TIP3    H1 7008   5.059   2.384   0.456
 2334TIP3    H2 7009   5.098   2.240   0.427
 2335TIP3   OH2 7010   0.458   3.452   1.046
 2335TIP3    H1 7011   0.414   3.413   0.970
 2335TIP3    H2 7012   0.475   3.542   1.020
 2336TIP3   OH2 7013   0.314   3.030   5.166
 2336TIP3    H1 7014   0.396   3.067   5.198
 2336TIP3    H2 7015   0.327   2.936   5.170
 2337TIP3   OH2 7016   1.982   0.526   1.118
 2337TIP3    H1 7017   2.063   0.572   1.096
 2337TIP3    H2 7018   1.980   0.450   1.059
 2338TIP3   OH2 7019   2.009   3.067   3.278
 2338TIP3    H1 7020   1.998   3.011   3.355
 2338TIP3    H2 7021   2.026   3.154   3.315
 2339TIP3   OH2 7022   5.319   0.925   2.867
 2339TIP3    H1 7023   5.248   0.932   2.803
 2339TIP3    H2 7024   5.380   0.994   2.843
 2340TIP3   OH2 7025   5.333   5.083   4.955
 2340TIP3    H1 7026   5.342   5.111   5.046
 2340TIP3    H2 7027   5.352   5.161   4.903
 2341TIP3   OH2 7028   0.066   3.913   1.063
 2341TIP3    H1 7029   0.136   3.937   1.124
 2341TIP3    H2 7030   0.087   3.822   1.039
 2342TIP3   OH2 7031   1.619   2.821   1.825
 2342TIP3    H1 7032   1.612   2.887   1.756
 2342TIP3    H2 7033   1.712   2.796   1.824
 2343TIP3   OH2 7034   2.500   2.094   1.955
 2343TIP3    H1 7035   2.404   2.090   1.958
 2343TIP3    H2 7036   2.529   2.004   1.971
 2344TIP3   OH2 7037   1.785   5.524   0.761
 2344TIP3    H1 7038   1.767   5.594   0.697
 2344TIP3    H2 7039   1.700   5.507   0.802
 2345TIP3   OH2 7040   3.891   5.400   1.663
 2345TIP3    H1 7041   3.927   5.457   1.731
 2345TIP3    H2 7042   3.967   5.378   1.608
 2346TIP3   OH2 7043   2.789   3.322   3.562
 2346TIP3    H1 7044   2.765   3.237   3.599
 2346TIP3    H2 7045   2.776   3.311   3.467
 2347TIP3   OH2 7046   5.878   4.723   4.369
 2347TIP3    H1 7047   5.927   4.695   4.447
 2347TIP3    H2 7048   5.789   4.692   4.385
 2348TIP3   OH2 7049   1.810   4.737   4.890
 2348TIP3    H1 7050   1.748   4.743   4.818
 2348TIP3    H2 7051   1.756   4.737   4.969
 2349TIP3   OH2 7052   4.299   4.505   2.741
 2349TIP3    H1 7053   4.361   4.528   2.810
 2349TIP3    H2 7054   4.219   4.480   2.788
 2350TIP3   OH2 7055   3.265   5.530   1.134
 2350TIP3    H1 7056   3.271   5.542   1.229
 2350TIP3    H2 7057   3.173   5.512   1.117
 2351TIP3   OH2 7058   5.269   0.151   2.431
 2351TIP3    H1 7059   5.352   0.188   2.461
 2351TIP3    H2 7060   5.276   0.151   2.336
 2352TIP3   OH2 7061   5.670   5.501   3.409
 2352TIP3    H1 7062   5.743   5.479   3.350
 2352TIP3    H2 7063   5.690   5.590   3.439
 2353TIP3   OH2 7064   6.211   5.093   4.630
 2353TIP3    H1 7065   6.172   5.036   4.695
 2353TIP3    H2 7066   6.152   5.088   4.554
 2354TIP3   OH2 7067   5.312   1.718   5.063
 2354TIP3    H1 7068   5.350   1.783   5.122
 2354TIP3    H2 7069   5.353   1.734   4.978
 2355TIP3   OH2 7070   5.937   0.256   3.135
 2355TIP3    H1 7071   6.008   0.316   3.157
 2355TIP3    H2 7072   5.859   0.312   3.133
 2356TIP3   OH2 7073   1.139   0.920   4.320
 2356TIP3    H1 7074   1.046   0.900   4.305
 2356TIP3    H2 7075   1.138   1.000   4.371
 2357TIP3   OH2 7076   2.500   3.356   4.603
 2357TIP3    H1 7077   2.580   3.336   4.554
 2357TIP3    H2 7078   2.529   3.411   4.675
 2358TIP3   OH2 7079   4.351   2.793   1.101
 2358TIP3    H1 7080   4.306   2.846   1.035
 2358TIP3    H2 7081   4.430   2.843   1.121
 2359TIP3   OH2 7082   0.908   1.586   1.559
 2359TIP3    H1 7083   0.873   1.499   1.581
 2359TIP3    H2 7084   0.867   1.644   1.623
 2360TIP3   OH2 7085   2.889   4.792   3.635
 2360TIP3    H1 7086   2.912   4.840   3.555
 2360TIP3    H2 7087   2.917   4.702   3.618
 2361TIP3   OH2 7088   4.711   5.507   4.375
 2361TIP3    H1 7089   4.712   5.514   4.470
 2361TIP3    H2 7090   4.767   5.579   4.345
 2362TIP3   OH2 7091   5.029   3.651   4.310
 2362TIP3    H1 7092   4.956   3.599   4.277
 2362TIP3    H2 7093   5.070   3.687   4.231
 2363TIP3   OH2 7094   0.238   3.008   2.669
 2363TIP3    H1 7095   0.272   3.097   2.677
 2363TIP3    H2 7096   0.253   2.969   2.754
 2364TIP3   OH2 7097   4.781   1.439   0.862
 2364TIP3    H1 7098   4.860   1.398   0.899
 2364TIP3    H2 7099   4.714   1.371   0.868
 2365TIP3   OH2 7100   3.824   2.402   0.859
 2365TIP3    H1 7101   3.742   2.445   0.837
 2365TIP3    H2 7102   3.823   2.393   0.954
 2366TIP3   OH2 7103   5.235   4.735   1.840
 2366TIP3    H1 7104   5.147   4.717   1.871
 2366TIP3    H2 7105   5.223   4.787   1.760
 2367TIP3   OH2 7106   5.464   4.626   5.093
 2367TIP3    H1 7107   5.499   4.630   5.004
 2367TIP3    H2 7108   5.439   4.535   5.105
 2368TIP3   OH2 7109   1.803   4.122   3.224
 2368TIP3    H1 7110   1.868   4.129   3.293
 2368TIP3    H2 7111   1.792   4.212   3.192
 2369TIP3   OH2 7112   6.013   5.178   2.828
 2369TIP3    H1 7113   5.976   5.221   2.905
 2369TIP3    H2 7114   6.084   5.124   2.862
 2370TIP3   OH2 7115   1.617   2.621   2.013
 2370TIP3    H1 7116   1.618   2.545   1.955
 2370TIP3    H2 7117   1.635   2.695   1.956
 2371TIP3   OH2 7118   2.726   0.550   1.904
 2371TIP3    H1 7119   2.648   0.591   1.940
 2371TIP3    H2 7120   2.766   0.617   1.849
 2372TIP3   OH2 7121   0.358   1.005   1.380
 2372TIP3    H1 7122   0.341   0.920   1.421
 2372TIP3    H2 7123   0.274   1.031   1.342
 2373TIP3   OH2 7124   1.513   2.097   1.926
 2373TIP3    H1 7125   1.421   2.118   1.941
 2373TIP3    H2 7126   1.534   2.031   1.992
 2374TIP3   OH2 7127   1.706   4.788   0.509
 2374TIP3    H1 7128   1.792   4.823   0.488
 2374TIP3    H2 7129   1.695   4.712   0.451
 2375TIP3   OH2 7130   3.370   1.720   2.661
 2375TIP3    H1 7131   3.372   1.626   2.642
 2375TIP3    H2 7132   3.446   1.735   2.718
 2376TIP3   OH2 7133   4.931   4.836   3.753
 2376TIP3    H1 7134   4.971   4.917   3.723
 2376TIP3    H2 7135   4.888   4.859   3.835
 2377TIP3   OH2 7136   5.633   5.571   2.842
 2377TIP3    H1 7137   5.635   5.485   2.883
 2377TIP3    H2 7138   5.655   5.554   2.750
 2378TIP3   OH2 7139   4.109   0.088   1.264
 2378TIP3    H1 7140   4.084   0.028   1.194
 2378TIP3    H2 7141   4.204   0.078   1.272
 2379TIP3   OH2 7142   3.030   2.042   0.242
 2379TIP3    H1 7143   2.966   2.110   0.221
 2379TIP3    H2 7144   3.011   2.020   0.334
 2380TIP3   OH2 7145   2.585   4.275   1.610
 2380TIP3    H1 7146   2.653   4.217   1.646
 2380TIP3    H2 7147   2.593   4.355   1.661
 2381TIP3   OH2 7148   0.201   3.872   0.201
 2381TIP3    H1 7149   0.211   3.821   0.280
 2381TIP3    H2 7150   0.287   3.912   0.186
 2382TIP3   OH2 7151   4.687   5.661   1.728
 2382TIP3    H1 7152   4.716   5.642   1.817
 2382TIP3    H2 7153   4.623   5.592   1.708
 2383TIP3   OH2 7154   2.331   4.000   2.189
 2383TIP3    H1 7155   2.267   4.031   2.125
 2383TIP3    H2 7156   2.356   4.078   2.238
 2384TIP3   OH2 7157   5.969   4.809   0.221
 2384TIP3    H1 7158   5.947   4.814   0.128
 2384TIP3    H2 7159   6.051   4.760   0.224
 2385TIP3   OH2 7160   3.549   5.171   2.265
 2385TIP3    H1 7161   3.483   5.231   2.301
 2385TIP3    H2 7162   3.620   5.172   2.328
 2386TIP3   OH2 7163   0.221   2.401   4.853
 2386TIP3    H1 7164   0.138   2.364   4.821
 2386TIP3    H2 7165   0.274   2.325   4.876
 2387TIP3   OH2 7166   0.522   3.957   2.056
 2387TIP3    H1 7167   0.526   3.905   1.975
 2387TIP3    H2 7168   0.584   4.028   2.041
 2388TIP3   OH2 7169   5.197   3.648   0.652
 2388TIP3    H1 7170   5.264   3.616   0.591
 2388TIP3    H2 7171   5.115   3.616   0.616
 2389TIP3   OH2 7172   6.051   1.857   0.924
 2389TIP3    H1 7173   5.956   1.850   0.935
 2389TIP3    H2 7174   6.074   1.939   0.968
 2390TIP3   OH2 7175   4.550   5.383   3.837
 2390TIP3    H1 7176   4.479   5.326   3.810
 2390TIP3    H2 7177   4.563   5.364   3.930
 2391TIP3   OH2 7178   1.649   1.950   5.166
 2391TIP3    H1 7179   1.555   1.949   5.151
 2391TIP3    H2 7180   1.677   1.861   5.144
 2392TIP3   OH2 7181   1.254   0.700   1.589
 2392TIP3    H1 7182   1.173   0.735   1.626
 2392TIP3    H2 7183   1.321   0.762   1.619
 2393TIP3   OH2 7184   3.022   2.568   4.837
 2393TIP3    H1 7185   3.012   2.576   4.932
 2393TIP3    H2 7186   2.939   2.534   4.806
 2394TIP3   OH2 7187   3.087   4.432   0.838
 2394TIP3    H1 7188   3.139   4.511   0.827
 2394TIP3    H2 7189   3.152   4.362   0.848
 2395TIP3   OH2 7190   5.185   5.566   2.693
 2395TIP3    H1 7191   5.112   5.560   2.631
 2395TIP3    H2 7192   5.258   5.599   2.640
 2396TIP3   OH2 7193   0.663   2.730   3.675
 2396TIP3    H1 7194   0.746   2.691   3.646
 2396TIP3    H2 7195   0.661   2.816   3.631
 2397TIP3   OH2 7196   1.761   0.691   4.989
 2397TIP3    H1 7197   1.741   0.600   5.010
 2397TIP3    H2 7198   1.855   0.700   5.006
 2398TIP3   OH2 7199   5.110   1.225   4.451
 2398TIP3    H1 7200   5.149   1.284   4.386
 2398TIP3    H2 7201   5.040   1.276   4.490
 2399TIP3   OH2 7202   3.952   3.709   3.944
 2399TIP3    H1 7203   3.999   3.770   4.001
 2399TIP3    H2 7204   3.941   3.630   3.997
 2400TIP3   OH2 7205   5.690   2.323   1.428
 2400TIP3    H1 7206   5.744   2.344   1.503
 2400TIP3    H2 7207   5.625   2.261   1.461
 2401TIP3   OH2 7208   5.881   0.592   1.056
 2401TIP3    H1 7209   5.888   0.688   1.052
 2401TIP3    H2 7210   5.788   0.575   1.046
 2402TIP3   OH2 7211   2.134   1.935   1.095
 2402TIP3    H1 7212   2.083   2.016   1.104
 2402TIP3    H2 7213   2.150   1.928   1.001
 2403TIP3   OH2 7214   4.227   0.326   0.386
 2403TIP3    H1 7215   4.246   0.365   0.301
 2403TIP3    H2 7216   4.172   0.391   0.430
 2404TIP3   OH2 7217   0.642   0.728   0.221
 2404TIP3    H1 7218   0.576   0.689   0.278
 2404TIP3    H2 7219   0.653   0.817   0.256
 2405TIP3   OH2 7220   0.232   2.402   4.275
 2405TIP3    H1 7221   0.161   2.455   4.241
 2405TIP3    H2 7222   0.191   2.344   4.339
 2406TIP3   OH2 7223   1.934   4.771   2.833
 2406TIP3    H1 7224   1.846   4.741   2.858
 2406TIP3    H2 7225   1.978   4.693   2.800
 2407TIP3   OH2 7226   2.405   4.019   4.795
 2407TIP3    H1 7227   2.347   4.024   4.871
 2407TIP3    H2 7228   2.360   3.962   4.734
 2408TIP3   OH2 7229   2.537   4.512   1.742
 2408TIP3    H1 7230   2.494   4.556   1.669
 2408TIP3    H2 7231   2.489   4.541   1.820
 2409TIP3   OH2 7232   6.257   3.084   5.005
 2409TIP3    H1 7233   6.273   3.176   4.980
 2409TIP3    H2 7234   6.258   3.037   4.922
 2410TIP3   OH2 7235   3.851   0.906   1.796
 2410TIP3    H1 7236   3.843   0.930   1.888
 2410TIP3    H2 7237   3.916   0.835   1.795
 2411TIP3   OH2 7238   6.293   3.063   1.753
 2411TIP3    H1 7239   6.388   3.053   1.746
 2411TIP3    H2 7240   6.277   3.079   1.846
 2412TIP3   OH2 7241   1.261   2.316   1.909
 2412TIP3    H1 7242   1.206   2.239   1.925
 2412TIP3    H2 7243   1.329   2.312   1.976
 2413TIP3   OH2 7244   3.505   3.384   4.349
 2413TIP3    H1 7245   3.598   3.365   4.353
 2413TIP3    H2 7246   3.470   3.350   4.432
 2414TIP3   OH2 7247   4.369   4.120   4.377
 2414TIP3    H1 7248   4.459   4.111   4.408
 2414TIP3    H2 7249   4.318   4.061   4.432
 2415TIP3   OH2 7250   4.804   4.302   2.060
 2415TIP3    H1 7251   4.876   4.322   1.999
 2415TIP3    H2 7252   4.842   4.241   2.123
 2416TIP3   OH2 7253   4.602   0.872   1.945
 2416TIP3    H1 7254   4.515   0.831   1.944
 2416TIP3    H2 7255   4.615   0.898   2.036
 2417TIP3   OH2 7256   1.099   1.781   0.190
 2417TIP3    H1 7257   1.131   1.734   0.266
 2417TIP3    H2 7258   1.007   1.756   0.182
 2418TIP3   OH2 7259   1.039   3.403   3.968
 2418TIP3    H1 7260   1.129   3.374   3.955
 2418TIP3    H2 7261   0.994   3.379   3.887
 2419TIP3   OH2 7262   2.575   4.407   4.116
 2419TIP3    H1 7263   2.510   4.395   4.186
 2419TIP3    H2 7264   2.524   4.439   4.042
 2420TIP3   OH2 7265   4.579   3.186   2.252
 2420TIP3    H1 7266   4.528   3.114   2.213
 2420TIP3    H2 7267   4.616   3.148   2.332
 2421TIP3   OH2 7268   2.008   5.708   1.671
 2421TIP3    H1 7269   1.940   5.764   1.633
 2421TIP3    H2 7270   1.973   5.619   1.663
 2422TIP3   OH2 7271   4.063   4.232   0.947
 2422TIP3    H1 7272   4.096   4.321   0.952
 2422TIP3    H2 7273   4.126   4.186   0.891
 2423TIP3   OH2 7274   6.219   3.763   3.098
 2423TIP3    H1 7275   6.134   3.807   3.097
 2423TIP3    H2 7276   6.249   3.767   3.007
 2424TIP3   OH2 7277   5.407   3.632   1.324
 2424TIP3    H1 7278   5.353   3.595   1.394
 2424TIP3    H2 7279   5.471   3.687   1.369
 2425TIP3   OH2 7280   5.743   0.917   4.395
 2425TIP3    H1 7281   5.669   0.864   4.365
 2425TIP3    H2 7282   5.817   0.855   4.397
 2426TIP3   OH2 7283   6.187   0.235   3.792
 2426TIP3    H1 7284   6.274   0.212   3.825
 2426TIP3    H2 7285   6.131   0.239   3.870
 2427TIP3   OH2 7286   4.538   2.199   4.982
 2427TIP3    H1 7287   4.603   2.168   5.044
 2427TIP3    H2 7288   4.533   2.293   4.997
 2428TIP3   OH2 7289   0.493   0.714   1.870
 2428TIP3    H1 7290   0.514   0.730   1.778
 2428TIP3    H2 7291   0.572   0.739   1.918
 2429TIP3   OH2 7292   3.191   0.405   3.784
 2429TIP3    H1 7293   3.227   0.489   3.811
 2429TIP3    H2 7294   3.219   0.395   3.693
 2430TIP3   OH2 7295   4.506   1.996   2.970
 2430TIP3    H1 7296   4.567   2.068   2.986
 2430TIP3    H2 7297   4.540   1.952   2.892
 2431TIP3   OH2 7298   3.086   1.304   4.399
 2431TIP3    H1 7299   3.056   1.381   4.350
 2431TIP3    H2 7300   3.102   1.337   4.488
 2432TIP3   OH2 7301   4.550   2.902   1.647
 2432TIP3    H1 7302   4.489   2.964   1.687
 2432TIP3    H2 7303   4.500   2.861   1.576
 2433TIP3   OH2 7304   3.154   5.477   4.310
 2433TIP3    H1 7305   3.064   5.460   4.283
 2433TIP3    H2 7306   3.146   5.535   4.386
 2434TIP3   OH2 7307   3.688   0.643   1.704
 2434TIP3    H1 7308   3.679   0.592   1.624
 2434TIP3    H2 7309   3.780   0.634   1.729
 2435TIP3   OH2 7310   5.460   3.554   0.910
 2435TIP3    H1 7311   5.409   3.630   0.938
 2435TIP3    H2 7312   5.538   3.557   0.966
 2436TIP3   OH2 7313   3.335   4.586   4.750
 2436TIP3    H1 7314   3.310   4.571   4.841
 2436TIP3    H2 7315   3.252   4.597   4.704
 2437TIP3   OH2 7316   5.194   0.992   0.115
 2437TIP3    H1 7317   5.202   0.983   0.210
 2437TIP3    H2 7318   5.101   1.009   0.101
 2438TIP3   OH2 7319   5.051   1.625   4.879
 2438TIP3    H1 7320   5.018   1.714   4.885
 2438TIP3    H2 7321   4.984   1.572   4.923
 2439TIP3   OH2 7322   2.980   3.262   3.109
 2439TIP3    H1 7323   2.937   3.201   3.048
 2439TIP3    H2 7324   3.033   3.318   3.053
 2440TIP3   OH2 7325   2.854   1.015   3.517
 2440TIP3    H1 7326   2.944   1.020   3.548
 2440TIP3    H2 7327   2.820   0.933   3.554
 2441TIP3   OH2 7328   5.053   2.324   3.261
 2441TIP3    H1 7329   5.116   2.349   3.193
 2441TIP3    H2 7330   5.105   2.318   3.341
 2442TIP3   OH2 7331   1.394   1.265   3.687
 2442TIP3    H1 7332   1.356   1.203   3.625
 2442TIP3    H2 7333   1.433   1.333   3.633
 2443TIP3   OH2 7334   0.811   1.087   0.076
 2443TIP3    H1 7335   0.802   1.151   0.005
 2443TIP3    H2 7336   0.782   1.134   0.154
 2444TIP3   OH2 7337   3.279   4.019   3.278
 2444TIP3    H1 7338   3.357   4.074   3.276
 2444TIP3    H2 7339   3.290   3.963   3.354
 2445TIP3   OH2 7340   5.729   0.112   0.975
 2445TIP3    H1 7341   5.654   0.061   1.006
 2445TIP3    H2 7342   5.766   0.059   0.905
 2446TIP3   OH2 7343   2.043   2.986   3.593
 2446TIP3    H1 7344   2.050   3.078   3.615
 2446TIP3    H2 7345   2.061   2.940   3.676
 2447TIP3   OH2 7346   1.996   1.883   2.781
 2447TIP3    H1 7347   2.012   1.804   2.730
 2447TIP3    H2 7348   2.010   1.856   2.872
 2448TIP3   OH2 7349   0.983   2.756   0.737
 2448TIP3    H1 7350   0.932   2.806   0.802
 2448TIP3    H2 7351   1.050   2.712   0.788
 2449TIP3   OH2 7352   5.806   0.165   2.214
 2449TIP3    H1 7353   5.784   0.251   2.249
 2449TIP3    H2 7354   5.881   0.181   2.157
 2450TIP3   OH2 7355   2.190   0.825   1.206
 2450TIP3    H1 7356   2.163   0.889   1.140
 2450TIP3    H2 7357   2.242   0.876   1.268
 2451TIP3   OH2 7358   0.534   1.817   2.859
 2451TIP3    H1 7359   0.510   1.850   2.946
 2451TIP3    H2 7360   0.563   1.727   2.874
 2452TIP3   OH2 7361   2.267   3.824   4.631
 2452TIP3    H1 7362   2.330   3.753   4.638
 2452TIP3    H2 7363   2.182   3.780   4.636
 2453TIP3   OH2 7364   0.538   0.903   0.467
 2453TIP3    H1 7365   0.450   0.935   0.443
 2453TIP3    H2 7366   0.539   0.812   0.435
 2454TIP3   OH2 7367   4.044   5.296   0.548
 2454TIP3    H1 7368   4.070   5.388   0.535
 2454TIP3    H2 7369   4.123   5.254   0.584
 2455TIP3   OH2 7370   4.400   4.139   0.496
 2455TIP3    H1 7371   4.381   4.047   0.479
 2455TIP3    H2 7372   4.332   4.187   0.450
 2456TIP3   OH2 7373   3.595   5.849   0.607
 2456TIP3    H1 7374   3.596   5.916   0.539
 2456TIP3    H2 7375   3.503   5.824   0.615
 2457TIP3   OH2 7376   2.023   5.060   3.287
 2457TIP3    H1 7377   2.111   5.034   3.313
 2457TIP3    H2 7378   1.989   4.985   3.239
 2458TIP3   OH2 7379   2.840   4.160   2.619
 2458TIP3    H1 7380   2.912   4.104   2.648
 2458TIP3    H2 7381   2.881   4.244   2.600
 2459TIP3   OH2 7382   0.069   4.222   1.371
 2459TIP3    H1 7383  -0.020   4.189   1.382
 2459TIP3    H2 7384   0.106   4.166   1.302
 2460TIP3   OH2 7385   1.026   1.187   0.888
 2460TIP3    H1 7386   1.080   1.127   0.939
 2460TIP3    H2 7387   1.075   1.269   0.886
 2461TIP3   OH2 7388   0.414   4.157   4.421
 2461TIP3    H1 7389   0.434   4.103   4.498
 2461TIP3    H2 7390   0.381   4.094   4.356
 2462TIP3   OH2 7391   1.160   0.623   3.810
 2462TIP3    H1 7392   1.076   0.587   3.838
 2462TIP3    H2 7393   1.208   0.640   3.892
 2463TIP3   OH2 7394   6.133   4.144   3.518
 2463TIP3    H1 7395   6.041   4.163   3.540
 2463TIP3    H2 7396   6.137   4.152   3.423
 2464TIP3   OH2 7397   6.208   2.912   1.441
 2464TIP3    H1 7398   6.257   2.920   1.523
 2464TIP3    H2 7399   6.255   2.846   1.391
 2465TIP3   OH2 7400   5.345   3.756   1.070
 2465TIP3    H1 7401   5.367   3.702   1.145
 2465TIP3    H2 7402   5.314   3.839   1.108
 2466TIP3   OH2 7403   1.775   4.635   2.360
 2466TIP3    H1 7404   1.772   4.707   2.423
 2466TIP3    H2 7405   1.768   4.678   2.275
 2467TIP3   OH2 7406   2.250   2.871   2.756
 2467TIP3    H1 7407   2.174   2.848   2.809
 2467TIP3    H2 7408   2.310   2.913   2.818
 2468TIP3   OH2 7409   5.053   5.617   1.123
 2468TIP3    H1 7410   5.057   5.521   1.120
 2468TIP3    H2 7411   5.123   5.645   1.064
 2469TIP3   OH2 7412   3.605   4.966   1.837
 2469TIP3    H1 7413   3.576   5.008   1.918
 2469TIP3    H2 7414   3.638   4.881   1.864
 2470TIP3   OH2 7415   4.600   4.680   3.200
 2470TIP3    H1 7416   4.568   4.671   3.289
 2470TIP3    H2 7417   4.626   4.772   3.193
 2471TIP3   OH2 7418   4.554   2.787   1.316
 2471TIP3    H1 7419   4.618   2.730   1.272
 2471TIP3    H2 7420   4.608   2.847   1.367
 2472TIP3   OH2 7421   3.313   3.961   4.911
 2472TIP3    H1 7422   3.253   3.905   4.861
 2472TIP3    H2 7423   3.312   3.924   4.999
 2473TIP3   OH2 7424   3.453   0.347   2.589
 2473TIP3    H1 7425   3.483   0.435   2.568
 2473TIP3    H2 7426   3.369   0.339   2.544
 2474TIP3   OH2 7427   2.437   0.327   3.508
 2474TIP3    H1 7428   2.501   0.340   3.578
 2474TIP3    H2 7429   2.357   0.368   3.540
 2475TIP3   OH2 7430   4.818   1.131   4.398
 2475TIP3    H1 7431   4.738   1.178   4.372
 2475TIP3    H2 7432   4.848   1.176   4.476
 2476TIP3   OH2 7433   4.296   2.292   0.078
 2476TIP3    H1 7434   4.284   2.355   0.149
 2476TIP3    H2 7435   4.384   2.309   0.045
 2477TIP3   OH2 7436   5.919   1.004   1.961
 2477TIP3    H1 7437   5.969   0.973   1.885
 2477TIP3    H2 7438   5.875   1.083   1.929
 2478TIP3   OH2 7439   1.725   1.647   4.863
 2478TIP3    H1 7440   1.786   1.648   4.788
 2478TIP3    H2 7441   1.642   1.679   4.827
 2479TIP3   OH2 7442   6.204   6.018   0.075
 2479TIP3    H1 7443   6.151   5.956   0.025
 2479TIP3    H2 7444   6.155   6.030   0.157
 2480TIP3   OH2 7445   5.669   4.467   1.495
 2480TIP3    H1 7446   5.608   4.420   1.553
 2480TIP3    H2 7447   5.676   4.412   1.417
 2481TIP3   OH2 7448   5.110   3.345   2.191
 2481TIP3    H1 7449   5.185   3.352   2.131
 2481TIP3    H2 7450   5.044   3.297   2.142
 2482TIP3   OH2 7451   5.854   2.092   4.152
 2482TIP3    H1 7452   5.881   2.167   4.098
 2482TIP3    H2 7453   5.854   2.126   4.242
 2483TIP3   OH2 7454   6.147   3.490   3.805
 2483TIP3    H1 7455   6.243   3.496   3.805
 2483TIP3    H2 7456   6.118   3.570   3.762
 2484TIP3   OH2 7457   3.216   4.526   2.042
 2484TIP3    H1 7458   3.236   4.613   2.006
 2484TIP3    H2 7459   3.299   4.494   2.076
 2485TIP3   OH2 7460   5.720   0.838   5.204
 2485TIP3    H1 7461   5.732   0.749   5.172
 2485TIP3    H2 7462   5.750   0.894   5.132
 2486TIP3   OH2 7463   4.864   2.133   3.908
 2486TIP3    H1 7464   4.794   2.067   3.907
 2486TIP3    H2 7465   4.849   2.182   3.989
 2487TIP3   OH2 7466   5.918   3.365   3.587
 2487TIP3    H1 7467   5.864   3.444   3.598
 2487TIP3    H2 7468   6.000   3.386   3.632
 2488TIP3   OH2 7469   2.358   4.904   1.938
 2488TIP3    H1 7470   2.392   4.974   1.882
 2488TIP3    H2 7471   2.280   4.942   1.980
 2489TIP3   OH2 7472   5.980   5.790   2.110
 2489TIP3    H1 7473   6.048   5.824   2.052
 2489TIP3    H2 7474   5.966   5.859   2.175
 2490TIP3   OH2 7475   5.109   5.866   0.759
 2490TIP3    H1 7476   5.137   5.852   0.669
 2490TIP3    H2 7477   5.173   5.927   0.796
 2491TIP3   OH2 7478   3.304   1.649   4.941
 2491TIP3    H1 7479   3.371   1.715   4.961
 2491TIP3    H2 7480   3.274   1.671   4.853
 2492TIP3   OH2 7481   4.792   0.747   4.211
 2492TIP3    H1 7482   4.773   0.726   4.303
 2492TIP3    H2 7483   4.850   0.823   4.216
 2493TIP3   OH2 7484   1.869   0.641   0.143
 2493TIP3    H1 7485   1.798   0.705   0.151
 2493TIP3    H2 7486   1.912   0.664   0.061
 2494TIP3   OH2 7487   4.824   5.360   2.835
 2494TIP3    H1 7488   4.854   5.273   2.809
 2494TIP3    H2 7489   4.745   5.343   2.887
 2495TIP3   OH2 7490   0.865   4.294   1.624
 2495TIP3    H1 7491   0.787   4.325   1.669
 2495TIP3    H2 7492   0.863   4.338   1.539
 2496TIP3   OH2 7493   4.346   1.467   1.254
 2496TIP3    H1 7494   4.312   1.392   1.303
 2496TIP3    H2 7495   4.289   1.474   1.178
 2497TIP3   OH2 7496   1.599   4.682   3.860
 2497TIP3    H1 7497   1.582   4.594   3.825
 2497TIP3    H2 7498   1.657   4.723   3.796
 2498TIP3   OH2 7499   0.855   5.499   1.123
 2498TIP3    H1 7500   0.795   5.430   1.150
 2498TIP3    H2 7501   0.810   5.542   1.050
 2499TIP3   OH2 7502   4.540   4.296   2.111
 2499TIP3    H1 7503   4.630   4.325   2.092
 2499TIP3    H2 7504   4.517   4.240   2.037
 2500TIP3   OH2 7505   1.382   2.023   1.043
 2500TIP3    H1 7506   1.343   1.949   1.090
 2500TIP3    H2 7507   1.339   2.100   1.080
 2501TIP3   OH2 7508   0.961   3.249   2.140
 2501TIP3    H1 7509   0.997   3.301   2.212
 2501TIP3    H2 7510   0.867   3.247   2.157
 2502TIP3   OH2 7511   4.861   4.132   3.862
 2502TIP3    H1 7512   4.808   4.193   3.810
 2502TIP3    H2 7513   4.884   4.062   3.802
 2503TIP3   OH2 7514   4.198   5.146   1.180
 2503TIP3    H1 7515   4.176   5.206   1.252
 2503TIP3    H2 7516   4.276   5.100   1.209
 2504TIP3   OH2 7517   5.920   2.573   2.322
 2504TIP3    H1 7518   6.012   2.598   2.328
 2504TIP3    H2 7519   5.921   2.477   2.323
 2505TIP3   OH2 7520   1.543   5.176   2.685
 2505TIP3    H1 7521   1.622   5.134   2.649
 2505TIP3    H2 7522   1.548   5.158   2.779
 2506TIP3   OH2 7523   5.554   1.011   0.640
 2506TIP3    H1 7524   5.612   1.081   0.610
 2506TIP3    H2 7525   5.609   0.958   0.698
 2507TIP3   OH2 7526   0.713   4.211   2.522
 2507TIP3    H1 7527   0.657   4.241   2.594
 2507TIP3    H2 7528   0.790   4.174   2.565
 2508TIP3   OH2 7529   4.563   2.963   4.031
 2508TIP3    H1 7530   4.548   2.869   4.038
 2508TIP3    H2 7531   4.545   2.983   3.939
 2509TIP3   OH2 7532   5.677   5.194   0.437
 2509TIP3    H1 7533   5.718   5.239   0.511
 2509TIP3    H2 7534   5.613   5.135   0.478
 2510TIP3   OH2 7535   1.135   5.729   0.078
 2510TIP3    H1 7536   1.168   5.737  -0.012
 2510TIP3    H2 7537   1.094   5.814   0.096
 2511TIP3   OH2 7538   1.359   3.817   0.689
 2511TIP3    H1 7539   1.426   3.877   0.720
 2511TIP3    H2 7540   1.335   3.851   0.602
 2512TIP3   OH2 7541   2.706   3.337   0.161
 2512TIP3    H1 7542   2.651   3.406   0.125
 2512TIP3    H2 7543   2.712   3.357   0.254
 2513TIP3   OH2 7544   2.276   5.851   1.041
 2513TIP3    H1 7545   2.235   5.842   0.955
 2513TIP3    H2 7546   2.241   5.778   1.092
 2514TIP3   OH2 7547   3.689   4.868   2.490
 2514TIP3    H1 7548   3.772   4.840   2.528
 2514TIP3    H2 7549   3.703   4.960   2.466
 2515TIP3   OH2 7550   5.608   1.418   1.585
 2515TIP3    H1 7551   5.680   1.450   1.531
 2515TIP3    H2 7552   5.631   1.446   1.674
 2516TIP3   OH2 7553   2.304   2.594   4.762
 2516TIP3    H1 7554   2.311   2.547   4.845
 2516TIP3    H2 7555   2.352   2.675   4.777
 2517TIP3   OH2 7556   5.123   2.779   0.806
 2517TIP3    H1 7557   5.146   2.804   0.717
 2517TIP3    H2 7558   5.062   2.847   0.835
 2518TIP3   OH2 7559   0.796   1.335   0.580
 2518TIP3    H1 7560   0.889   1.358   0.588
 2518TIP3    H2 7561   0.794   1.240   0.583
 2519TIP3   OH2 7562   3.564   1.087   1.347
 2519TIP3    H1 7563   3.612   1.063   1.426
 2519TIP3    H2 7564   3.501   1.153   1.377
 2520TIP3   OH2 7565   5.369   1.098   5.177
 2520TIP3    H1 7566   5.415   1.095   5.093
 2520TIP3    H2 7567   5.278   1.076   5.155
 2521TIP3   OH2 7568   1.892   5.755   4.908
 2521TIP3    H1 7569   1.867   5.823   4.845
 2521TIP3    H2 7570   1.908   5.802   4.990
 2522TIP3   OH2 7571   1.539   2.724   3.978
 2522TIP3    H1 7572   1.632   2.702   3.982
 2522TIP3    H2 7573   1.535   2.807   3.931
 2523TIP3   OH2 7574   2.469   4.763   1.624
 2523TIP3    H1 7575   2.456   4.829   1.556
 2523TIP3    H2 7576   2.537   4.799   1.680
 2524TIP3   OH2 7577   0.675   4.340   0.461
 2524TIP3    H1 7578   0.696   4.348   0.554
 2524TIP3    H2 7579   0.736   4.400   0.418
 2525TIP3   OH2 7580   4.980   4.188   3.314
 2525TIP3    H1 7581   4.986   4.096   3.288
 2525TIP3    H2 7582   4.970   4.185   3.410
 2526TIP3   OH2 7583   0.247   1.441   1.509
 2526TIP3    H1 7584   0.310   1.491   1.457
 2526TIP3    H2 7585   0.181   1.413   1.446
 2527TIP3   OH2 7586   0.855   5.678   2.224
 2527TIP3    H1 7587   0.926   5.617   2.206
 2527TIP3    H2 7588   0.893   5.742   2.284
 2528TIP3   OH2 7589   1.312   3.988   0.462
 2528TIP3    H1 7590   1.239   4.036   0.500
 2528TIP3    H2 7591   1.293   3.985   0.368
 2529TIP3   OH2 7592   5.703   5.141   5.171
 2529TIP3    H1 7593   5.770   5.204   5.145
 2529TIP3    H2 7594   5.656   5.183   5.243
 2530TIP3   OH2 7595   3.295   3.566   4.484
 2530TIP3    H1 7596   3.349   3.566   4.564
 2530TIP3    H2 7597   3.348   3.612   4.420
 2531TIP3   OH2 7598   1.962   5.793   3.176
 2531TIP3    H1 7599   2.011   5.854   3.122
 2531TIP3    H2 7600   1.872   5.825   3.173
 2532TIP3   OH2 7601   0.930   3.429   0.242
 2532TIP3    H1 7602   0.988   3.397   0.173
 2532TIP3    H2 7603   0.930   3.524   0.231
 2533TIP3   OH2 7604   1.722   0.373   1.577
 2533TIP3    H1 7605   1.648   0.426   1.547
 2533TIP3    H2 7606   1.787   0.381   1.508
 2534TIP3   OH2 7607   1.034   4.736   2.174
 2534TIP3    H1 7608   1.039   4.701   2.263
 2534TIP3    H2 7609   1.064   4.665   2.118
 2535TIP3   OH2 7610   1.077   3.764   0.529
 2535TIP3    H1 7611   1.033   3.833   0.478
 2535TIP3    H2 7612   1.151   3.809   0.569
 2536TIP3   OH2 7613   3.457   1.106   0.060
 2536TIP3    H1 7614   3.399   1.041   0.021
 2536TIP3    H2 7615   3.528   1.117  -0.004
 2537TIP3   OH2 7616   5.631   4.751   3.201
 2537TIP3    H1 7617   5.592   4.681   3.150
 2537TIP3    H2 7618   5.559   4.811   3.219
 2538TIP3   OH2 7619   0.790   1.303   0.285
 2538TIP3    H1 7620   0.784   1.318   0.380
 2538TIP3    H2 7621   0.699   1.312   0.255
 2539TIP3   OH2 7622   3.271   1.560   3.633
 2539TIP3    H1 7623   3.308   1.598   3.554
 2539TIP3    H2 7624   3.259   1.633   3.692
 2540TIP3   OH2 7625   2.864   2.731   2.304
 2540TIP3    H1 7626   2.941   2.723   2.248
 2540TIP3    H2 7627   2.865   2.653   2.358
 2541TIP3   OH2 7628   5.426   4.256   1.165
 2541TIP3    H1 7629   5.367   4.330   1.152
 2541TIP3    H2 7630   5.374   4.180   1.138
 2542TIP3   OH2 7631   1.573   2.645   4.555
 2542TIP3    H1 7632   1.656   2.639   4.603
 2542TIP3    H2 7633   1.598   2.649   4.463
 2543TIP3   OH2 7634   1.821   0.600   4.616
 2543TIP3    H1 7635   1.833   0.528   4.555
 2543TIP3    H2 7636   1.902   0.602   4.667
 2544TIP3   OH2 7637   1.687   2.759   2.751
 2544TIP3    H1 7638   1.614   2.757   2.812
 2544TIP3    H2 7639   1.730   2.674   2.762
 2545TIP3   OH2 7640   4.584   0.821   3.218
 2545TIP3    H1 7641   4.656   0.880   3.194
 2545TIP3    H2 7642   4.505   0.870   3.195
 2546TIP3   OH2 7643   5.656   4.206   0.035
 2546TIP3    H1 7644   5.669   4.149  -0.041
 2546TIP3    H2 7645   5.564   4.232   0.029
 2547TIP3   OH2 7646   4.750   3.229   0.281
 2547TIP3    H1 7647   4.733   3.138   0.256
 2547TIP3    H2 7648   4.666   3.261   0.312
 2548TIP3   OH2 7649   4.959   1.533   3.306
 2548TIP3    H1 7650   5.000   1.487   3.233
 2548TIP3    H2 7651   4.930   1.616   3.269
 2549TIP3   OH2 7652   2.412   0.326  -0.015
 2549TIP3    H1 7653   2.460   0.386   0.041
 2549TIP3    H2 7654   2.437   0.239   0.014
 2550TIP3   OH2 7655   1.701   0.737   0.773
 2550TIP3    H1 7656   1.718   0.722   0.680
 2550TIP3    H2 7657   1.773   0.793   0.802
 2551TIP3   OH2 7658   5.501   5.695   2.291
 2551TIP3    H1 7659   5.571   5.754   2.318
 2551TIP3    H2 7660   5.540   5.643   2.221
 2552TIP3   OH2 7661   3.244   1.483   1.436
 2552TIP3    H1 7662   3.267   1.436   1.356
 2552TIP3    H2 7663   3.311   1.460   1.499
 2553TIP3   OH2 7664   4.573   3.982   4.782
 2553TIP3    H1 7665   4.647   4.006   4.838
 2553TIP3    H2 7666   4.607   3.911   4.728
 2554TIP3   OH2 7667   3.055   4.290   4.585
 2554TIP3    H1 7668   3.006   4.211   4.608
 2554TIP3    H2 7669   3.145   4.271   4.612
 2555TIP3   OH2 7670   5.350   4.790   4.336
 2555TIP3    H1 7671   5.400   4.764   4.413
 2555TIP3    H2 7672   5.314   4.708   4.302
 2556TIP3   OH2 7673   4.279   3.642   4.533
 2556TIP3    H1 7674   4.250   3.634   4.442
 2556TIP3    H2 7675   4.365   3.683   4.527
 2557TIP3   OH2 7676   3.109   3.717   1.332
 2557TIP3    H1 7677   3.147   3.646   1.384
 2557TIP3    H2 7678   3.037   3.751   1.385
 2558TIP3   OH2 7679   1.527   0.973   2.539
 2558TIP3    H1 7680   1.484   1.055   2.564
 2558TIP3    H2 7681   1.463   0.929   2.483
 2559TIP3   OH2 7682   6.104   1.197   4.498
 2559TIP3    H1 7683   6.102   1.108   4.462
 2559TIP3    H2 7684   6.029   1.241   4.457
 2560TIP3   OH2 7685   2.605   2.647   2.192
 2560TIP3    H1 7686   2.696   2.622   2.208
 2560TIP3    H2 7687   2.573   2.679   2.276
 2561TIP3   OH2 7688   1.298   3.524   5.040
 2561TIP3    H1 7689   1.344   3.465   5.100
 2561TIP3    H2 7690   1.228   3.562   5.093
 2562TIP3   OH2 7691   3.286   2.442   1.529
 2562TIP3    H1 7692   3.272   2.381   1.601
 2562TIP3    H2 7693   3.354   2.401   1.476
 2563TIP3   OH2 7694   4.929   0.451   2.521
 2563TIP3    H1 7695   4.980   0.455   2.440
 2563TIP3    H2 7696   4.936   0.359   2.549
 2564TIP3   OH2 7697   2.692   4.194   3.971
 2564TIP3    H1 7698   2.722   4.133   4.039
 2564TIP3    H2 7699   2.637   4.257   4.018
 2565TIP3   OH2 7700   1.089   2.324   2.660
 2565TIP3    H1 7701   1.075   2.369   2.743
 2565TIP3    H2 7702   1.038   2.244   2.667
 2566TIP3   OH2 7703   5.372   2.154   1.823
 2566TIP3    H1 7704   5.457   2.110   1.825
 2566TIP3    H2 7705   5.313   2.094   1.869
 2567TIP3   OH2 7706   4.824   3.344   5.106
 2567TIP3    H1 7707   4.784   3.318   5.024
 2567TIP3    H2 7708   4.795   3.278   5.169
 2568TIP3   OH2 7709   4.046   1.073   4.663
 2568TIP3    H1 7710   4.117   1.020   4.698
 2568TIP3    H2 7711   4.046   1.152   4.716
 2569TIP3   OH2 7712   5.764   4.790   0.400
 2569TIP3    H1 7713   5.824   4.770   0.328
 2569TIP3    H2 7714   5.813   4.852   0.455
 2570TIP3   OH2 7715   4.019   1.286   0.284
 2570TIP3    H1 7716   4.097   1.325   0.323
 2570TIP3    H2 7717   3.968   1.255   0.359
 2571TIP3   OH2 7718   1.089   1.581   1.352
 2571TIP3    H1 7719   1.031   1.568   1.428
 2571TIP3    H2 7720   1.106   1.675   1.352
 2572TIP3   OH2 7721   4.598   1.635   3.114
 2572TIP3    H1 7722   4.614   1.589   3.197
 2572TIP3    H2 7723   4.562   1.719   3.141
 2573TIP3   OH2 7724   6.079   4.643   4.596
 2573TIP3    H1 7725   6.097   4.550   4.582
 2573TIP3    H2 7726   6.163   4.680   4.623
 2574TIP3   OH2 7727   4.776   0.415   0.206
 2574TIP3    H1 7728   4.712   0.477   0.173
 2574TIP3    H2 7729   4.807   0.368   0.129
 2575TIP3   OH2 7730   4.185   5.117   1.817
 2575TIP3    H1 7731   4.091   5.130   1.808
 2575TIP3    H2 7732   4.223   5.166   1.744
 2576TIP3   OH2 7733   2.279   1.071   3.388
 2576TIP3    H1 7734   2.213   1.002   3.396
 2576TIP3    H2 7735   2.360   1.024   3.369
 2577TIP3   OH2 7736   1.981   3.334   4.385
 2577TIP3    H1 7737   1.951   3.352   4.474
 2577TIP3    H2 7738   2.072   3.307   4.396
 2578TIP3   OH2 7739   1.400   4.562   2.983
 2578TIP3    H1 7740   1.429   4.506   2.911
 2578TIP3    H2 7741   1.349   4.505   3.040
 2579TIP3   OH2 7742   4.156   2.743   2.936
 2579TIP3    H1 7743   4.154   2.823   2.989
 2579TIP3    H2 7744   4.066   2.712   2.935
 2580TIP3   OH2 7745   1.884   3.430   5.008
 2580TIP3    H1 7746   1.883   3.427   5.104
 2580TIP3    H2 7747   1.977   3.425   4.985
 2581TIP3   OH2 7748   2.992   1.902   0.491
 2581TIP3    H1 7749   3.031   1.987   0.510
 2581TIP3    H2 7750   2.959   1.871   0.575
 2582TIP3   OH2 7751   0.688   5.293   1.109
 2582TIP3    H1 7752   0.608   5.331   1.072
 2582TIP3    H2 7753   0.722   5.237   1.039
 2583TIP3   OH2 7754   5.672   5.533   0.858
 2583TIP3    H1 7755   5.589   5.581   0.865
 2583TIP3    H2 7756   5.712   5.541   0.944
 2584TIP3   OH2 7757   4.016   0.929   0.427
 2584TIP3    H1 7758   4.027   0.888   0.513
 2584TIP3    H2 7759   3.926   0.960   0.427
 2585TIP3   OH2 7760   5.532   0.574   0.794
 2585TIP3    H1 7761   5.549   0.500   0.735
 2585TIP3    H2 7762   5.437   0.580   0.797
 2586TIP3   OH2 7763   0.775   2.541  -0.028
 2586TIP3    H1 7764   0.756   2.473   0.036
 2586TIP3    H2 7765   0.863   2.572  -0.006
 2587TIP3   OH2 7766   2.343   3.566   3.008
 2587TIP3    H1 7767   2.266   3.619   3.031
 2587TIP3    H2 7768   2.381   3.541   3.092
 2588TIP3   OH2 7769   3.550   5.814   4.072
 2588TIP3    H1 7770   3.520   5.890   4.023
 2588TIP3    H2 7771   3.470   5.776   4.109
 2589TIP3   OH2 7772   4.447   2.522   3.819
 2589TIP3    H1 7773   4.452   2.464   3.744
 2589TIP3    H2 7774   4.518   2.584   3.807
 2590TIP3   OH2 7775   2.860   0.998   0.613
 2590TIP3    H1 7776   2.939   1.026   0.660
 2590TIP3    H2 7777   2.790   1.052   0.650
 2591TIP3   OH2 7778   3.999   3.997   3.416
 2591TIP3    H1 7779   3.971   4.061   3.350
 2591TIP3    H2 7780   4.001   4.046   3.498
 2592TIP3   OH2 7781   1.879   0.336   4.216
 2592TIP3    H1 7782   1.793   0.294   4.212
 2592TIP3    H2 7783   1.917   0.320   4.130
 2593TIP3   OH2 7784   5.732   4.151   2.005
 2593TIP3    H1 7785   5.768   4.064   2.025
 2593TIP3    H2 7786   5.663   4.164   2.069
 2594TIP3   OH2 7787   1.445   2.467   5.172
 2594TIP3    H1 7788   1.534   2.435   5.183
 2594TIP3    H2 7789   1.396   2.391   5.140
 2595TIP3   OH2 7790   0.258   0.057   3.494
 2595TIP3    H1 7791   0.211  -0.018   3.530
 2595TIP3    H2 7792   0.350   0.031   3.496
 2596TIP3   OH2 7793   0.635   4.958   1.236
 2596TIP3    H1 7794   0.574   5.004   1.178
 2596TIP3    H2 7795   0.581   4.932   1.311
 2597TIP3   OH2 7796   4.064   4.792   1.323
 2597TIP3    H1 7797   4.072   4.854   1.396
 2597TIP3    H2 7798   4.146   4.744   1.323
 2598TIP3   OH2 7799   3.228   1.055   1.157
 2598TIP3    H1 7800   3.195   1.048   1.067
 2598TIP3    H2 7801   3.313   1.011   1.155
 2599TIP3   OH2 7802   3.613   3.131   1.507
 2599TIP3    H1 7803   3.572   3.208   1.467
 2599TIP3    H2 7804   3.543   3.090   1.557
 2600TIP3   OH2 7805   5.955   0.164   3.942
 2600TIP3    H1 7806   5.911   0.080   3.959
 2600TIP3    H2 7807   5.951   0.210   4.025
 2601TIP3   OH2 7808   5.860   2.286   1.646
 2601TIP3    H1 7809   5.878   2.230   1.722
 2601TIP3    H2 7810   5.897   2.371   1.670
 2602TIP3   OH2 7811   4.259   3.034   1.008
 2602TIP3    H1 7812   4.338   3.081   1.036
 2602TIP3    H2 7813   4.187   3.093   1.029
 2603TIP3   OH2 7814   2.541   4.637   4.480
 2603TIP3    H1 7815   2.587   4.705   4.527
 2603TIP3    H2 7816   2.583   4.555   4.508
 2604TIP3   OH2 7817   1.957   3.895   3.402
 2604TIP3    H1 7818   2.004   3.976   3.419
 2604TIP3    H2 7819   2.022   3.826   3.416
 2605TIP3   OH2 7820   1.047   3.820   2.580
 2605TIP3    H1 7821   1.018   3.830   2.489
 2605TIP3    H2 7822   1.109   3.748   2.579
 2606TIP3   OH2 7823   1.936   4.003   1.356
 2606TIP3    H1 7824   1.986   4.045   1.287
 2606TIP3    H2 7825   1.854   3.977   1.313
 2607TIP3   OH2 7826   4.433   1.907   4.061
 2607TIP3    H1 7827   4.351   1.949   4.086
 2607TIP3    H2 7828   4.407   1.831   4.009
 2608TIP3   OH2 7829   4.599   4.839   1.433
 2608TIP3    H1 7830   4.662   4.910   1.444
 2608TIP3    H2 7831   4.545   4.842   1.512
 2609TIP3   OH2 7832   0.465   2.672   3.311
 2609TIP3    H1 7833   0.443   2.735   3.379
 2609TIP3    H2 7834   0.380   2.641   3.280
 2610TIP3   OH2 7835   5.513   5.201   2.746
 2610TIP3    H1 7836   5.595   5.168   2.710
 2610TIP3    H2 7837   5.458   5.124   2.756
 2611TIP3   OH2 7838   3.779   4.457   3.691
 2611TIP3    H1 7839   3.742   4.478   3.777
 2611TIP3    H2 7840   3.864   4.417   3.711
 2612TIP3   OH2 7841   3.199   1.868   2.437
 2612TIP3    H1 7842   3.285   1.850   2.475
 2612TIP3    H2 7843   3.203   1.831   2.349
 2613TIP3   OH2 7844   6.102   3.323   4.036
 2613TIP3    H1 7845   6.091   3.238   3.993
 2613TIP3    H2 7846   6.166   3.370   3.983
 2614TIP3   OH2 7847   5.759   4.419   0.209
 2614TIP3    H1 7848   5.742   4.337   0.162
 2614TIP3    H2 7849   5.796   4.390   0.293
 2615TIP3   OH2 7850   3.021   1.787   3.653
 2615TIP3    H1 7851   3.066   1.765   3.734
 2615TIP3    H2 7852   3.087   1.832   3.600
 2616TIP3   OH2 7853   4.776   2.405   0.177
 2616TIP3    H1 7854   4.828   2.342   0.227
 2616TIP3    H2 7855   4.830   2.426   0.101
 2617TIP3   OH2 7856   2.657   5.168   2.640
 2617TIP3    H1 7857   2.621   5.123   2.563
 2617TIP3    H2 7858   2.596   5.239   2.657
 2618TIP3   OH2 7859   5.981   3.016   2.875
 2618TIP3    H1 7860   5.892   2.990   2.852
 2618TIP3    H2 7861   5.971   3.065   2.957
 2619TIP3   OH2 7862   4.312   1.857   2.688
 2619TIP3    H1 7863   4.262   1.835   2.609
 2619TIP3    H2 7864   4.403   1.838   2.666
 2620TIP3   OH2 7865   4.262   2.048   2.891
 2620TIP3    H1 7866   4.339   2.028   2.945
 2620TIP3    H2 7867   4.280   2.006   2.807
 2621TIP3   OH2 7868   5.233   1.403   4.297
 2621TIP3    H1 7869   5.212   1.438   4.210
 2621TIP3    H2 7870   5.210   1.474   4.357
 2622TIP3   OH2 7871   0.553   0.491   4.246
 2622TIP3    H1 7872   0.540   0.425   4.315
 2622TIP3    H2 7873   0.574   0.441   4.168
 2623TIP3   OH2 7874   0.948   2.945   3.467
 2623TIP3    H1 7875   0.945   3.040   3.454
 2623TIP3    H2 7876   1.024   2.931   3.524
 2624TIP3   OH2 7877   5.716   2.655   0.731
 2624TIP3    H1 7878   5.695   2.644   0.638
 2624TIP3    H2 7879   5.754   2.571   0.757
 2625TIP3   OH2 7880   4.211   3.479   2.961
 2625TIP3    H1 7881   4.175   3.474   2.872
 2625TIP3    H2 7882   4.184   3.397   3.002
 2626TIP3   OH2 7883   3.806   0.466   2.791
 2626TIP3    H1 7884   3.748   0.537   2.766
 2626TIP3    H2 7885   3.751   0.388   2.790
 2627TIP3   OH2 7886   0.312   4.407   4.519
 2627TIP3    H1 7887   0.349   4.477   4.464
 2627TIP3    H2 7888   0.338   4.326   4.475
 2628TIP3   OH2 7889   2.296   1.495   4.634
 2628TIP3    H1 7890   2.327   1.495   4.544
 2628TIP3    H2 7891   2.376   1.498   4.687
 2629TIP3   OH2 7892   4.198   0.038   0.804
 2629TIP3    H1 7893   4.201   0.003   0.893
 2629TIP3    H2 7894   4.153   0.122   0.813
 2630TIP3   OH2 7895   5.246   1.207   2.978
 2630TIP3    H1 7896   5.205   1.261   3.045
 2630TIP3    H2 7897   5.215   1.119   2.995
 2631TIP3   OH2 7898   1.517   2.444   0.812
 2631TIP3    H1 7899   1.587   2.383   0.788
 2631TIP3    H2 7900   1.521   2.449   0.908
 2632TIP3   OH2 7901   4.795   2.100   1.298
 2632TIP3    H1 7902   4.799   2.023   1.354
 2632TIP3    H2 7903   4.717   2.086   1.244
 2633TIP3   OH2 7904   2.974   4.497   3.292
 2633TIP3    H1 7905   3.024   4.577   3.307
 2633TIP3    H2 7906   3.032   4.427   3.322
 2634TIP3   OH2 7907   2.359   0.652   5.050
 2634TIP3    H1 7908   2.357   0.660   5.145
 2634TIP3    H2 7909   2.448   0.625   5.029
 2635TIP3   OH2 7910   0.822   4.880   2.108
 2635TIP3    H1 7911   0.774   4.909   2.185
 2635TIP3    H2 7912   0.893   4.826   2.143
 2636TIP3   OH2 7913   6.081   4.836   2.029
 2636TIP3    H1 7914   6.024   4.836   1.951
 2636TIP3    H2 7915   6.102   4.928   2.043
 2637TIP3   OH2 7916   2.827   1.824   5.069
 2637TIP3    H1 7917   2.847   1.897   5.128
 2637TIP3    H2 7918   2.878   1.751   5.103
 2638TIP3   OH2 7919   1.586   0.753   3.972
 2638TIP3    H1 7920   1.563   0.783   3.883
 2638TIP3    H2 7921   1.529   0.805   4.029
 2639TIP3   OH2 7922   2.656   3.793   0.248
 2639TIP3    H1 7923   2.721   3.822   0.184
 2639TIP3    H2 7924   2.584   3.856   0.239
 2640TIP3   OH2 7925   0.140   5.926   5.113
 2640TIP3    H1 7926   0.101   6.010   5.137
 2640TIP3    H2 7927   0.144   5.876   5.194
 2641TIP3   OH2 7928   4.212   5.563   2.108
 2641TIP3    H1 7929   4.143   5.505   2.074
 2641TIP3    H2 7930   4.282   5.556   2.043
 2642TIP3   OH2 7931   5.470   2.763   1.277
 2642TIP3    H1 7932   5.487   2.670   1.288
 2642TIP3    H2 7933   5.399   2.768   1.212
 2643TIP3   OH2 7934   5.602   1.830   1.619
 2643TIP3    H1 7935   5.531   1.772   1.591
 2643TIP3    H2 7936   5.648   1.854   1.538
 2644TIP3   OH2 7937   6.298   3.547   3.391
 2644TIP3    H1 7938   6.207   3.548   3.360
 2644TIP3    H2 7939   6.317   3.639   3.411
 2645TIP3   OH2 7940   4.792   2.631   4.389
 2645TIP3    H1 7941   4.767   2.606   4.478
 2645TIP3    H2 7942   4.725   2.592   4.333
 2646TIP3   OH2 7943   2.623   0.559   4.978
 2646TIP3    H1 7944   2.649   0.590   4.891
 2646TIP3    H2 7945   2.690   0.493   5.000
 2647TIP3   OH2 7946   3.389   4.223   2.590
 2647TIP3    H1 7947   3.374   4.291   2.656
 2647TIP3    H2 7948   3.320   4.237   2.525
 2648TIP3   OH2 7949   4.196   0.271   2.707
 2648TIP3    H1 7950   4.104   0.247   2.703
 2648TIP3    H2 7951   4.199   0.364   2.685
 2649TIP3   OH2 7952   3.493   4.136   2.312
 2649TIP3    H1 7953   3.405   4.150   2.349
 2649TIP3    H2 7954   3.505   4.041   2.315
 2650TIP3   OH2 7955   1.827   0.333   0.685
 2650TIP3    H1 7956   1.852   0.259   0.630
 2650TIP3    H2 7957   1.765   0.383   0.631
 2651TIP3   OH2 7958   1.857   5.095   2.772
 2651TIP3    H1 7959   1.924   5.088   2.840
 2651TIP3    H2 7960   1.894   5.046   2.698
 2652TIP3   OH2 7961   5.550   2.249   2.611
 2652TIP3    H1 7962   5.542   2.201   2.693
 2652TIP3    H2 7963   5.628   2.303   2.622
 2653TIP3   OH2 7964   1.179   1.358   0.190
 2653TIP3    H1 7965   1.170   1.312   0.107
 2653TIP3    H2 7966   1.269   1.392   0.189
 2654TIP3   OH2 7967   5.287   5.584   1.998
 2654TIP3    H1 7968   5.194   5.564   1.984
 2654TIP3    H2 7969   5.286   5.668   2.045
 2655TIP3   OH2 7970   0.077   1.795   4.896
 2655TIP3    H1 7971   0.048   1.723   4.840
 2655TIP3    H2 7972   0.171   1.804   4.877
 2656TIP3   OH2 7973   4.635   5.017   3.818
 2656TIP3    H1 7974   4.550   4.979   3.838
 2656TIP3    H2 7975   4.694   4.982   3.884
 2657TIP3   OH2 7976   2.556   0.613   1.513
 2657TIP3    H1 7977   2.527   0.683   1.572
 2657TIP3    H2 7978   2.593   0.659   1.438
 2658TIP3   OH2 7979   0.382   0.528   3.996
 2658TIP3    H1 7980   0.310   0.471   4.025
 2658TIP3    H2 7981   0.461   0.486   4.030
 2659TIP3   OH2 7982   3.731   5.602   3.946
 2659TIP3    H1 7983   3.674   5.647   4.009
 2659TIP3    H2 7984   3.805   5.662   3.933
 2660TIP3   OH2 7985   4.072   3.044   2.236
 2660TIP3    H1 7986   4.144   2.991   2.268
 2660TIP3    H2 7987   4.030   2.991   2.168
 2661TIP3   OH2 7988   3.474   5.736   4.777
 2661TIP3    H1 7989   3.449   5.737   4.684
 2661TIP3    H2 7990   3.476   5.643   4.799
 2662TIP3   OH2 7991   3.922   3.703   0.787
 2662TIP3    H1 7992   3.877   3.671   0.865
 2662TIP3    H2 7993   3.941   3.795   0.807
 2663TIP3   OH2 7994   5.897   5.676   0.613
 2663TIP3    H1 7995   5.900   5.758   0.661
 2663TIP3    H2 7996   5.807   5.645   0.624
 2664TIP3   OH2 7997   2.424   4.172   1.012
 2664TIP3    H1 7998   2.348   4.119   0.989
 2664TIP3    H2 7999   2.463   4.195   0.928
 2665TIP3   OH2 8000   2.429   1.939   1.173
 2665TIP3    H1 8001   2.455   1.860   1.221
 2665TIP3    H2 8002   2.395   1.906   1.090
 2666TIP3   OH2 8003   5.045   4.433   0.466
 2666TIP3    H1 8004   5.060   4.522   0.499
 2666TIP3    H2 8005   5.130   4.405   0.434
 2667TIP3   OH2 8006   4.629   3.448   2.133
 2667TIP3    H1 8007   4.542   3.487   2.129
 2667TIP3    H2 8008   4.614   3.358   2.164
 2668TIP3   OH2 8009   1.627   1.458   0.919
 2668TIP3    H1 8010   1.668   1.490   0.999
 2668TIP3    H2 8011   1.595   1.371   0.942
 2669TIP3   OH2 8012   2.650   1.040   2.112
 2669TIP3    H1 8013   2.740   1.036   2.145
 2669TIP3    H2 8014   2.621   1.129   2.131
 2670TIP3   OH2 8015   3.704   1.315   2.708
 2670TIP3    H1 8016   3.798   1.305   2.718
 2670TIP3    H2 8017   3.684   1.269   2.626
 2671TIP3   OH2 8018   0.660   5.742   0.481
 2671TIP3    H1 8019   0.567   5.745   0.460
 2671TIP3    H2 8020   0.701   5.703   0.404
 2672TIP3   OH2 8021   0.931   3.588   3.165
 2672TIP3    H1 8022   0.854   3.552   3.211
 2672TIP3    H2 8023   0.939   3.677   3.197
 2673TIP3   OH2 8024   5.795   3.580   1.172
 2673TIP3    H1 8025   5.777   3.617   1.258
 2673TIP3    H2 8026   5.789   3.654   1.112
 2674TIP3   OH2 8027   3.353   2.273   2.031
 2674TIP3    H1 8028   3.416   2.231   1.973
 2674TIP3    H2 8029   3.403   2.344   2.073
 2675TIP3   OH2 8030   3.070   5.086   1.657
 2675TIP3    H1 8031   3.047   5.134   1.577
 2675TIP3    H2 8032   3.043   4.996   1.639
 2676TIP3   OH2 8033   4.521   4.473   4.992
 2676TIP3    H1 8034   4.448   4.467   5.053
 2676TIP3    H2 8035   4.573   4.394   5.009
 2677TIP3   OH2 8036   0.050   4.976   4.495
 2677TIP3    H1 8037   0.035   5.033   4.420
 2677TIP3    H2 8038  -0.022   4.996   4.555
 2678TIP3   OH2 8039   1.577   2.774   3.670
 2678TIP3    H1 8040   1.630   2.796   3.746
 2678TIP3    H2 8041   1.641   2.750   3.603
 2679TIP3   OH2 8042   2.715   0.589   4.733
 2679TIP3    H1 8043   2.704   0.650   4.659
 2679TIP3    H2 8044   2.797   0.616   4.775
 2680TIP3   OH2 8045   5.716   2.488   1.984
 2680TIP3    H1 8046   5.812   2.494   1.989
 2680TIP3    H2 8047   5.697   2.471   1.892
 2681TIP3   OH2 8048   2.869   5.167   0.938
 2681TIP3    H1 8049   2.959   5.192   0.918
 2681TIP3    H2 8050   2.828   5.154   0.853
 2682TIP3   OH2 8051   5.601   0.619   2.314
 2682TIP3    H1 8052   5.522   0.577   2.281
 2682TIP3    H2 8053   5.672   0.563   2.281
 2683TIP3   OH2 8054   5.115   5.503   3.747
 2683TIP3    H1 8055   5.121   5.504   3.652
 2683TIP3    H2 8056   5.093   5.412   3.769
 2684TIP3   OH2 8057   3.043   0.778   4.487
 2684TIP3    H1 8058   3.102   0.828   4.430
 2684TIP3    H2 8059   3.041   0.690   4.448
 2685TIP3   OH2 8060   0.895   3.898   1.872
 2685TIP3    H1 8061   0.868   3.929   1.785
 2685TIP3    H2 8062   0.812   3.880   1.917
 2686TIP3   OH2 8063   1.213   4.884   3.780
 2686TIP3    H1 8064   1.307   4.899   3.792
 2686TIP3    H2 8065   1.184   4.958   3.726
 2687TIP3   OH2 8066   4.486   0.863   1.477
 2687TIP3    H1 8067   4.516   0.776   1.451
 2687TIP3    H2 8068   4.407   0.847   1.528
 2688TIP3   OH2 8069   3.377   4.904   3.310
 2688TIP3    H1 8070   3.444   4.839   3.293
 2688TIP3    H2 8071   3.306   4.882   3.250
 2689TIP3   OH2 8072   4.678   4.249   1.303
 2689TIP3    H1 8073   4.681   4.265   1.208
 2689TIP3    H2 8074   4.726   4.322   1.341
 2690TIP3   OH2 8075   1.267   5.791   4.954
 2690TIP3    H1 8076   1.234   5.860   5.012
 2690TIP3    H2 8077   1.218   5.713   4.978
 2691TIP3   OH2 8078   5.932   3.148   3.201
 2691TIP3    H1 8079   6.009   3.109   3.242
 2691TIP3    H2 8080   5.901   3.213   3.265
 2692TIP3   OH2 8081   4.319   4.683   5.076
 2692TIP3    H1 8082   4.265   4.759   5.053
 2692TIP3    H2 8083   4.360   4.707   5.159
 2693TIP3   OH2 8084   4.863   3.492   3.056
 2693TIP3    H1 8085   4.830   3.414   3.099
 2693TIP3    H2 8086   4.815   3.496   2.973
 2694TIP3   OH2 8087   3.021   5.057   0.609
 2694TIP3    H1 8088   2.930   5.061   0.640
 2694TIP3    H2 8089   3.072   5.094   0.681
 2695TIP3   OH2 8090   1.391   5.158   5.056
 2695TIP3    H1 8091   1.461   5.182   4.996
 2695TIP3    H2 8092   1.312   5.161   5.002
 2696TIP3   OH2 8093   0.089   1.035   1.302
 2696TIP3    H1 8094   0.048   1.062   1.384
 2696TIP3    H2 8095   0.059   1.099   1.237
 2697TIP3   OH2 8096   0.996   0.779   2.484
 2697TIP3    H1 8097   0.965   0.734   2.406
 2697TIP3    H2 8098   1.091   0.786   2.471
 2698TIP3   OH2 8099   2.529   1.554   1.756
 2698TIP3    H1 8100   2.457   1.615   1.771
 2698TIP3    H2 8101   2.586   1.564   1.833
 2699TIP3   OH2 8102   4.800   3.831   2.206
 2699TIP3    H1 8103   4.758   3.867   2.128
 2699TIP3    H2 8104   4.803   3.737   2.191
 2700TIP3   OH2 8105   5.222   4.355   1.479
 2700TIP3    H1 8106   5.282   4.383   1.410
 2700TIP3    H2 8107   5.268   4.371   1.560
 2701TIP3   OH2 8108   4.489   1.556   2.379
 2701TIP3    H1 8109   4.548   1.513   2.317
 2701TIP3    H2 8110   4.410   1.501   2.379
 2702TIP3   OH2 8111   6.095   2.827   2.690
 2702TIP3    H1 8112   6.094   2.878   2.608
 2702TIP3    H2 8113   6.048   2.882   2.753
 2703TIP3   OH2 8114   2.479   3.425   4.224
 2703TIP3    H1 8115   2.426   3.489   4.271
 2703TIP3    H2 8116   2.560   3.471   4.203
 2704TIP3   OH2 8117   0.507   0.918   5.104
 2704TIP3    H1 8118   0.498   1.010   5.129
 2704TIP3    H2 8119   0.590   0.891   5.144
 2705TIP3   OH2 8120   3.478   3.412   1.723
 2705TIP3    H1 8121   3.384   3.423   1.739
 2705TIP3    H2 8122   3.484   3.335   1.666
 2706TIP3   OH2 8123   4.525   5.627   3.712
 2706TIP3    H1 8124   4.531   5.550   3.769
 2706TIP3    H2 8125   4.613   5.663   3.712
 2707TIP3   OH2 8126   0.412   3.546   4.197
 2707TIP3    H1 8127   0.390   3.592   4.278
 2707TIP3    H2 8128   0.493   3.500   4.218
 2708TIP3   OH2 8129   0.574   3.608   0.119
 2708TIP3    H1 8130   0.598   3.566   0.037
 2708TIP3    H2 8131   0.649   3.662   0.142
 2709TIP3   OH2 8132   5.423   0.255   1.041
 2709TIP3    H1 8133   5.360   0.313   1.083
 2709TIP3    H2 8134   5.469   0.211   1.113
 2710TIP3   OH2 8135   2.676   3.308   3.855
 2710TIP3    H1 8136   2.582   3.296   3.868
 2710TIP3    H2 8137   2.697   3.253   3.779
 2711TIP3   OH2 8138   5.756   5.283   1.299
 2711TIP3    H1 8139   5.771   5.284   1.394
 2711TIP3    H2 8140   5.697   5.356   1.283
 2712TIP3   OH2 8141   0.612   4.894   1.848
 2712TIP3    H1 8142   0.560   4.839   1.790
 2712TIP3    H2 8143   0.585   4.984   1.827
 2713TIP3   OH2 8144   4.178   5.940   3.975
 2713TIP3    H1 8145   4.237   6.007   3.942
 2713TIP3    H2 8146   4.188   5.866   3.915
 2714TIP3   OH2 8147   1.874   4.806   3.812
 2714TIP3    H1 8148   1.911   4.829   3.727
 2714TIP3    H2 8149   1.932   4.739   3.847
 2715TIP3   OH2 8150   2.376   5.691   3.051
 2715TIP3    H1 8151   2.293   5.675   3.095
 2715TIP3    H2 8152   2.371   5.783   3.024
 2716TIP3   OH2 8153   0.607   1.157   2.609
 2716TIP3    H1 8154   0.679   1.107   2.570
 2716TIP3    H2 8155   0.612   1.243   2.568
 2717TIP3   OH2 8156   0.998   5.014   0.259
 2717TIP3    H1 8157   1.028   5.029   0.349
 2717TIP3    H2 8158   0.926   5.077   0.247
 2718TIP3   OH2 8159   2.538   0.710   1.239
 2718TIP3    H1 8160   2.554   0.802   1.219
 2718TIP3    H2 8161   2.536   0.667   1.154
 2719TIP3   OH2 8162   3.502   1.274   1.083
 2719TIP3    H1 8163   3.562   1.327   1.030
 2719TIP3    H2 8164   3.558   1.209   1.126
 2720TIP3   OH2 8165   6.354   3.370   2.844
 2720TIP3    H1 8166   6.299   3.356   2.767
 2720TIP3    H2 8167   6.318   3.311   2.910
 2721TIP3   OH2 8168   1.103   2.071   0.829
 2721TIP3    H1 8169   1.092   2.153   0.876
 2721TIP3    H2 8170   1.197   2.063   0.815
 2722TIP3   OH2 8171   0.678   3.374   1.984
 2722TIP3    H1 8172   0.596   3.405   2.021
 2722TIP3    H2 8173   0.745   3.434   2.018
 2723TIP3   OH2 8174   3.816   0.441   1.282
 2723TIP3    H1 8175   3.760   0.431   1.359
 2723TIP3    H2 8176   3.772   0.506   1.229
 2724TIP3   OH2 8177   0.189   3.773   3.135
 2724TIP3    H1 8178   0.151   3.686   3.121
 2724TIP3    H2 8179   0.226   3.769   3.223
 2725TIP3   OH2 8180   4.002   3.149   2.701
 2725TIP3    H1 8181   3.925   3.115   2.657
 2725TIP3    H2 8182   3.992   3.120   2.792
 2726TIP3   OH2 8183   6.085   2.038   5.118
 2726TIP3    H1 8184   6.008   2.044   5.174
 2726TIP3    H2 8185   6.099   2.128   5.087
 2727TIP3   OH2 8186   0.012   3.044   0.358
 2727TIP3    H1 8187   0.074   3.066   0.428
 2727TIP3    H2 8188   0.065   2.997   0.293
 2728TIP3   OH2 8189   2.922   3.337   2.270
 2728TIP3    H1 8190   2.875   3.303   2.194
 2728TIP3    H2 8191   3.002   3.376   2.233
 2729TIP3   OH2 8192   2.928   2.211   3.078
 2729TIP3    H1 8193   2.904   2.124   3.048
 2729TIP3    H2 8194   2.960   2.198   3.167
 2730TIP3   OH2 8195   1.279   0.421   1.286
 2730TIP3    H1 8196   1.244   0.473   1.214
 2730TIP3    H2 8197   1.224   0.444   1.361
 2731TIP3   OH2 8198   1.273   0.356   2.234
 2731TIP3    H1 8199   1.356   0.310   2.240
 2731TIP3    H2 8200   1.243   0.364   2.324
 2732TIP3   OH2 8201   3.171   1.540   2.394
 2732TIP3    H1 8202   3.263   1.547   2.419
 2732TIP3    H2 8203   3.129   1.499   2.470
 2733TIP3   OH2 8204   4.547   0.378   4.304
 2733TIP3    H1 8205   4.565   0.293   4.263
 2733TIP3    H2 8206   4.591   0.372   4.389
 2734TIP3   OH2 8207   2.162   5.033   3.934
 2734TIP3    H1 8208   2.119   5.051   3.851
 2734TIP3    H2 8209   2.240   5.089   3.934
 2735TIP3   OH2 8210   3.853   1.585   3.685
 2735TIP3    H1 8211   3.862   1.600   3.591
 2735TIP3    H2 8212   3.791   1.652   3.715
 2736TIP3   OH2 8213   0.738   5.764   3.782
 2736TIP3    H1 8214   0.651   5.766   3.822
 2736TIP3    H2 8215   0.761   5.671   3.779
 2737TIP3   OH2 8216   0.376   1.869   4.131
 2737TIP3    H1 8217   0.327   1.888   4.211
 2737TIP3    H2 8218   0.436   1.798   4.155
 2738TIP3   OH2 8219   4.742   4.058   4.237
 2738TIP3    H1 8220   4.658   4.036   4.275
 2738TIP3    H2 8221   4.723   4.128   4.174
 2739TIP3   OH2 8222   1.068   4.430   4.799
 2739TIP3    H1 8223   1.061   4.385   4.883
 2739TIP3    H2 8224   1.028   4.515   4.814
 2740TIP3   OH2 8225   5.470   5.127   1.038
 2740TIP3    H1 8226   5.445   5.216   1.062
 2740TIP3    H2 8227   5.504   5.135   0.949
 2741TIP3   OH2 8228   2.387   0.348   2.106
 2741TIP3    H1 8229   2.334   0.309   2.036
 2741TIP3    H2 8230   2.429   0.273   2.149
 2742TIP3   OH2 8231   1.925   1.139   4.374
 2742TIP3    H1 8232   1.887   1.203   4.434
 2742TIP3    H2 8233   1.916   1.055   4.420
 2743TIP3   OH2 8234   2.153   3.445   4.171
 2743TIP3    H1 8235   2.088   3.445   4.241
 2743TIP3    H2 8236   2.223   3.502   4.203
 2744TIP3   OH2 8237   2.562   2.017   4.158
 2744TIP3    H1 8238   2.587   1.929   4.130
 2744TIP3    H2 8239   2.511   2.003   4.238
 2745TIP3   OH2 8240   0.061   1.772   2.443
 2745TIP3    H1 8241   0.103   1.705   2.390
 2745TIP3    H2 8242   0.004   1.723   2.503
 2746TIP3   OH2 8243   5.609   5.553   0.536
 2746TIP3    H1 8244   5.643   5.472   0.573
 2746TIP3    H2 8245   5.514   5.545   0.544
 2747TIP3   OH2 8246   2.778   2.437   2.145
 2747TIP3    H1 8247   2.697   2.392   2.123
 2747TIP3    H2 8248   2.812   2.469   2.061
 2748TIP3   OH2 8249   0.633   1.989   4.555
 2748TIP3    H1 8250   0.685   1.909   4.564
 2748TIP3    H2 8251   0.590   1.980   4.470
 2749TIP3   OH2 8252   2.608   0.139   4.106
 2749TIP3    H1 8253   2.651   0.210   4.152
 2749TIP3    H2 8254   2.543   0.182   4.050
 2750TIP3   OH2 8255   2.286   3.090   1.118
 2750TIP3    H1 8256   2.205   3.069   1.164
 2750TIP3    H2 8257   2.339   3.137   1.183
 2751TIP3   OH2 8258   4.904   1.431   3.015
 2751TIP3    H1 8259   4.920   1.513   2.969
 2751TIP3    H2 8260   4.841   1.385   2.961
 2752TIP3   OH2 8261   3.798   0.650   0.315
 2752TIP3    H1 8262   3.737   0.595   0.266
 2752TIP3    H2 8263   3.838   0.706   0.249
 2753TIP3   OH2 8264   2.419   3.102   3.715
 2753TIP3    H1 8265   2.347   3.042   3.697
 2753TIP3    H2 8266   2.408   3.124   3.808
 2754TIP3   OH2 8267   2.818   1.199   2.776
 2754TIP3    H1 8268   2.741   1.142   2.773
 2754TIP3    H2 8269   2.814   1.239   2.863
 2755TIP3   OH2 8270   3.983   1.371   0.028
 2755TIP3    H1 8271   3.999   1.463   0.006
 2755TIP3    H2 8272   4.023   1.361   0.115
 2756TIP3   OH2 8273   6.256   0.408   4.263
 2756TIP3    H1 8274   6.282   0.446   4.347
 2756TIP3    H2 8275   6.172   0.366   4.281
 2757TIP3   OH2 8276   0.030   1.715   4.069
 2757TIP3    H1 8277  -0.021   1.663   4.006
 2757TIP3    H2 8278   0.042   1.799   4.026
 2758TIP3   OH2 8279   5.474   3.809   4.645
 2758TIP3    H1 8280   5.438   3.891   4.678
 2758TIP3    H2 8281   5.541   3.836   4.582
 2759TIP3   OH2 8282   2.172   5.560   3.648
 2759TIP3    H1 8283   2.085   5.535   3.619
 2759TIP3    H2 8284   2.161   5.649   3.682
 2760TIP3   OH2 8285   5.382   3.700   2.676
 2760TIP3    H1 8286   5.423   3.672   2.595
 2760TIP3    H2 8287   5.453   3.734   2.730
 2761TIP3   OH2 8288   0.213   5.396   3.181
 2761TIP3    H1 8289   0.199   5.344   3.102
 2761TIP3    H2 8290   0.302   5.429   3.173
 2762TIP3   OH2 8291   2.833   2.425   0.343
 2762TIP3    H1 8292   2.786   2.482   0.404
 2762TIP3    H2 8293   2.920   2.465   0.336
 2763TIP3   OH2 8294   4.176   4.584   4.835
 2763TIP3    H1 8295   4.228   4.580   4.915
 2763TIP3    H2 8296   4.177   4.495   4.801
 2764TIP3   OH2 8297   3.038   2.200   1.679
 2764TIP3    H1 8298   3.064   2.127   1.735
 2764TIP3    H2 8299   3.098   2.197   1.605
 2765TIP3   OH2 8300   6.022   5.340   0.676
 2765TIP3    H1 8301   5.989   5.342   0.766
 2765TIP3    H2 8302   5.943   5.345   0.621
 2766TIP3   OH2 8303   2.494   5.121   4.926
 2766TIP3    H1 8304   2.411   5.079   4.949
 2766TIP3    H2 8305   2.514   5.177   5.001
 2767TIP3   OH2 8306   3.032   0.193   0.455
 2767TIP3    H1 8307   2.975   0.116   0.465
 2767TIP3    H2 8308   2.972   0.263   0.429
 2768TIP3   OH2 8309   6.131   0.798   3.040
 2768TIP3    H1 8310   6.066   0.863   3.066
 2768TIP3    H2 8311   6.138   0.807   2.945
 2769TIP3   OH2 8312   3.641   5.298   1.187
 2769TIP3    H1 8313   3.568   5.237   1.191
 2769TIP3    H2 8314   3.621   5.366   1.251
 2770TIP3   OH2 8315   3.856   0.867   0.938
 2770TIP3    H1 8316   3.771   0.847   0.900
 2770TIP3    H2 8317   3.868   0.961   0.923
 2771TIP3   OH2 8318   2.888   2.492   2.450
 2771TIP3    H1 8319   2.841   2.412   2.427
 2771TIP3    H2 8320   2.973   2.483   2.408
 2772TIP3   OH2 8321   6.255   3.560   1.871
 2772TIP3    H1 8322   6.321   3.615   1.829
 2772TIP3    H2 8323   6.205   3.621   1.926
 2773TIP3   OH2 8324   2.114   5.281   0.426
 2773TIP3    H1 8325   2.130   5.372   0.451
 2773TIP3    H2 8326   2.105   5.235   0.510
 2774TIP3   OH2 8327   2.589   2.259   0.270
 2774TIP3    H1 8328   2.637   2.329   0.315
 2774TIP3    H2 8329   2.638   2.180   0.289
 2775TIP3   OH2 8330   3.802   5.918   1.694
 2775TIP3    H1 8331   3.869   5.942   1.630
 2775TIP3    H2 8332   3.719   5.926   1.646
 2776TIP3   OH2 8333   2.779   5.705   1.592
 2776TIP3    H1 8334   2.775   5.646   1.667
 2776TIP3    H2 8335   2.736   5.658   1.521
 2777TIP3   OH2 8336   1.468   5.263   1.930
 2777TIP3    H1 8337   1.471   5.180   1.977
 2777TIP3    H2 8338   1.454   5.329   1.999
 2778TIP3   OH2 8339   2.835   2.172   0.863
 2778TIP3    H1 8340   2.797   2.258   0.848
 2778TIP3    H2 8341   2.906   2.187   0.926
 2779TIP3   OH2 8342   4.508   4.762   3.729
 2779TIP3    H1 8343   4.445   4.832   3.748
 2779TIP3    H2 8344   4.592   4.806   3.720
 2780TIP3   OH2 8345   0.943   5.140   3.832
 2780TIP3    H1 8346   0.857   5.128   3.791
 2780TIP3    H2 8347   1.003   5.091   3.775
 2781TIP3   OH2 8348   4.619   3.624   1.027
 2781TIP3    H1 8349   4.636   3.658   0.939
 2781TIP3    H2 8350   4.706   3.613   1.065
 2782TIP3   OH2 8351   0.536   5.624   4.947
 2782TIP3    H1 8352   0.589   5.581   5.015
 2782TIP3    H2 8353   0.592   5.695   4.915
 2783TIP3   OH2 8354   3.523   4.041   1.876
 2783TIP3    H1 8355   3.615   4.069   1.881
 2783TIP3    H2 8356   3.475   4.121   1.856
 2784TIP3   OH2 8357   4.738   3.896   3.965
 2784TIP3    H1 8358   4.791   3.975   3.960
 2784TIP3    H2 8359   4.660   3.915   3.913
 2785TIP3   OH2 8360   4.509   3.071   1.122
 2785TIP3    H1 8361   4.577   3.094   1.059
 2785TIP3    H2 8362   4.538   3.110   1.204
 2786TIP3   OH2 8363   2.506   3.292   4.997
 2786TIP3    H1 8364   2.417   3.280   4.964
 2786TIP3    H2 8365   2.529   3.382   4.973
 2787TIP3   OH2 8366   0.894   4.155   2.245
 2787TIP3    H1 8367   0.919   4.212   2.317
 2787TIP3    H2 8368   0.800   4.168   2.234
 2788TIP3   OH2 8369   4.063   0.439   4.251
 2788TIP3    H1 8370   4.105   0.524   4.264
 2788TIP3    H2 8371   4.134   0.375   4.256
 2789TIP3   OH2 8372   3.341   5.797   2.881
 2789TIP3    H1 8373   3.340   5.834   2.969
 2789TIP3    H2 8374   3.410   5.845   2.835
 2790TIP3   OH2 8375   5.260   4.826   4.818
 2790TIP3    H1 8376   5.254   4.884   4.894
 2790TIP3    H2 8377   5.343   4.782   4.829
 2791TIP3   OH2 8378   2.887   0.349   2.594
 2791TIP3    H1 8379   2.810   0.314   2.640
 2791TIP3    H2 8380   2.853   0.423   2.544
 2792TIP3   OH2 8381   6.234   1.637   1.525
 2792TIP3    H1 8382   6.260   1.728   1.510
 2792TIP3    H2 8383   6.151   1.644   1.573
 2793TIP3   OH2 8384   4.748   0.899   2.859
 2793TIP3    H1 8385   4.765   0.923   2.950
 2793TIP3    H2 8386   4.657   0.870   2.859
 2794TIP3   OH2 8387   0.236   1.592   0.090
 2794TIP3    H1 8388   0.199   1.528   0.030
 2794TIP3    H2 8389   0.295   1.541   0.146
 2795TIP3   OH2 8390   2.841   2.881   4.369
 2795TIP3    H1 8391   2.796   2.962   4.394
 2795TIP3    H2 8392   2.931   2.894   4.398
 2796TIP3   OH2 8393   1.245   0.126   1.908
 2796TIP3    H1 8394   1.185   0.067   1.863
 2796TIP3    H2 8395   1.244   0.206   1.856
 2797TIP3   OH2 8396   2.074   2.973   1.272
 2797TIP3    H1 8397   2.154   2.921   1.276
 2797TIP3    H2 8398   2.044   2.978   1.363
 2798TIP3   OH2 8399   5.696   2.014   2.283
 2798TIP3    H1 8400   5.619   1.957   2.283
 2798TIP3    H2 8401   5.752   1.979   2.352
 2799TIP3   OH2 8402   6.227   1.639   2.550
 2799TIP3    H1 8403   6.222   1.638   2.646
 2799TIP3    H2 8404   6.206   1.549   2.524
 2800TIP3   OH2 8405   0.152   3.893   4.500
 2800TIP3    H1 8406   0.200   3.923   4.577
 2800TIP3    H2 8407   0.081   3.839   4.535
 2801TIP3   OH2 8408   3.094   1.179   2.470
 2801TIP3    H1 8409   3.091   1.241   2.543
 2801TIP3    H2 8410   3.035   1.216   2.404
 2802TIP3   OH2 8411   1.961   1.808   2.133
 2802TIP3    H1 8412   2.023   1.746   2.171
 2802TIP3    H2 8413   1.876   1.764   2.140
 2803TIP3   OH2 8414   5.732   3.154   2.200
 2803TIP3    H1 8415   5.658   3.196   2.157
 2803TIP3    H2 8416   5.731   3.189   2.289
 2804TIP3   OH2 8417   1.581   2.982   1.314
 2804TIP3    H1 8418   1.668   2.948   1.292
 2804TIP3    H2 8419   1.520   2.925   1.267
 2805TIP3   OH2 8420   3.554   5.630   1.042
 2805TIP3    H1 8421   3.553   5.540   1.011
 2805TIP3    H2 8422   3.501   5.629   1.121
 2806TIP3   OH2 8423   6.060   1.773   2.358
 2806TIP3    H1 8424   6.099   1.748   2.441
 2806TIP3    H2 8425   5.984   1.715   2.348
 2807TIP3   OH2 8426   5.678   4.159   0.967
 2807TIP3    H1 8427   5.651   4.185   0.879
 2807TIP3    H2 8428   5.768   4.129   0.957
 2808TIP3   OH2 8429   5.621   2.011   1.823
 2808TIP3    H1 8430   5.706   2.056   1.829
 2808TIP3    H2 8431   5.631   1.951   1.749
 2809TIP3   OH2 8432   1.264   5.596   3.415
 2809TIP3    H1 8433   1.360   5.595   3.414
 2809TIP3    H2 8434   1.241   5.689   3.415
 2810TIP3   OH2 8435   0.918   5.301   0.225
 2810TIP3    H1 8436   0.965   5.366   0.174
 2810TIP3    H2 8437   0.861   5.257   0.161
 2811TIP3   OH2 8438   2.136   1.392   3.915
 2811TIP3    H1 8439   2.162   1.319   3.859
 2811TIP3    H2 8440   2.089   1.352   3.987
 2812TIP3   OH2 8441   4.232   5.007   0.267
 2812TIP3    H1 8442   4.244   4.945   0.195
 2812TIP3    H2 8443   4.150   5.053   0.246
 2813TIP3   OH2 8444   5.815   1.942   2.883
 2813TIP3    H1 8445   5.874   1.889   2.829
 2813TIP3    H2 8446   5.874   1.991   2.941
 2814TIP3   OH2 8447   6.098   1.417   4.816
 2814TIP3    H1 8448   6.026   1.366   4.778
 2814TIP3    H2 8449   6.171   1.356   4.821
 2815TIP3   OH2 8450   2.575   0.871   2.412
 2815TIP3    H1 8451   2.526   0.892   2.333
 2815TIP3    H2 8452   2.654   0.925   2.407
 2816TIP3   OH2 8453   3.063   5.796   0.185
 2816TIP3    H1 8454   2.984   5.749   0.212
 2816TIP3    H2 8455   3.038   5.840   0.104
 2817TIP3   OH2 8456   1.076   4.558   2.395
 2817TIP3    H1 8457   1.041   4.485   2.446
 2817TIP3    H2 8458   1.059   4.636   2.448
 2818TIP3   OH2 8459   5.873   1.799   4.148
 2818TIP3    H1 8460   5.921   1.807   4.065
 2818TIP3    H2 8461   5.849   1.889   4.171
 2819TIP3   OH2 8462   6.294   3.348   4.945
 2819TIP3    H1 8463   6.202   3.373   4.955
 2819TIP3    H2 8464   6.329   3.409   4.880
 2820TIP3   OH2 8465   2.343   1.953   0.920
 2820TIP3    H1 8466   2.367   2.046   0.924
 2820TIP3    H2 8467   2.378   1.923   0.836
 2821TIP3   OH2 8468   1.906   2.625   0.304
 2821TIP3    H1 8469   1.910   2.618   0.400
 2821TIP3    H2 8470   1.876   2.538   0.276
 2822TIP3   OH2 8471   5.799   2.382   2.628
 2822TIP3    H1 8472   5.862   2.323   2.669
 2822TIP3    H2 8473   5.836   2.469   2.640
 2823TIP3   OH2 8474   2.988   5.276   3.055
 2823TIP3    H1 8475   2.897   5.299   3.039
 2823TIP3    H2 8476   3.014   5.329   3.131
 2824TIP3   OH2 8477   6.147   4.193   1.440
 2824TIP3    H1 8478   6.105   4.249   1.375
 2824TIP3    H2 8479   6.115   4.105   1.420
 2825TIP3   OH2 8480   3.120   4.922   4.570
 2825TIP3    H1 8481   3.051   4.870   4.531
 2825TIP3    H2 8482   3.105   5.011   4.537
 2826TIP3   OH2 8483   6.339   0.518   2.609
 2826TIP3    H1 8484   6.333   0.595   2.666
 2826TIP3    H2 8485   6.251   0.509   2.572
 2827TIP3   OH2 8486   3.451   5.603   2.699
 2827TIP3    H1 8487   3.534   5.632   2.662
 2827TIP3    H2 8488   3.429   5.669   2.764
 2828TIP3   OH2 8489   3.030   3.952   2.673
 2828TIP3    H1 8490   3.114   3.918   2.703
 2828TIP3    H2 8491   3.043   3.972   2.581
 2829TIP3   OH2 8492   0.499   2.246   2.276
 2829TIP3    H1 8493   0.559   2.256   2.202
 2829TIP3    H2 8494   0.513   2.325   2.329
 2830TIP3   OH2 8495   3.764   2.158   0.800
 2830TIP3    H1 8496   3.670   2.162   0.781
 2830TIP3    H2 8497   3.789   2.249   0.817
 2831TIP3   OH2 8498   3.868   2.389   1.138
 2831TIP3    H1 8499   3.776   2.409   1.153
 2831TIP3    H2 8500   3.915   2.468   1.168
 2832TIP3   OH2 8501   5.887   1.542   0.666
 2832TIP3    H1 8502   5.915   1.633   0.674
 2832TIP3    H2 8503   5.926   1.513   0.583
 2833TIP3   OH2 8504   0.875   2.568   3.556
 2833TIP3    H1 8505   0.935   2.632   3.519
 2833TIP3    H2 8506   0.908   2.483   3.526
 2834TIP3   OH2 8507   1.380   1.882   5.075
 2834TIP3    H1 8508   1.328   1.919   5.146
 2834TIP3    H2 8509   1.316   1.837   5.019
 2835TIP3   OH2 8510   4.240   4.386   1.489
 2835TIP3    H1 8511   4.307   4.446   1.456
 2835TIP3    H2 8512   4.175   4.382   1.418
 2836TIP3   OH2 8513   1.752   1.407   2.613
 2836TIP3    H1 8514   1.705   1.488   2.593
 2836TIP3    H2 8515   1.738   1.394   2.707
 2837TIP3   OH2 8516   0.834   2.262   0.065
 2837TIP3    H1 8517   0.868   2.178   0.095
 2837TIP3    H2 8518   0.905   2.324   0.081
 2838TIP3   OH2 8519   3.091   5.277   1.135
 2838TIP3    H1 8520   3.038   5.357   1.131
 2838TIP3    H2 8521   3.028   5.206   1.123
 2839TIP3   OH2 8522   5.985   4.889   3.000
 2839TIP3    H1 8523   5.993   4.957   3.066
 2839TIP3    H2 8524   6.063   4.898   2.946
 2840TIP3   OH2 8525   2.594   1.318   4.962
 2840TIP3    H1 8526   2.531   1.246   4.953
 2840TIP3    H2 8527   2.662   1.283   5.020
 2841TIP3   OH2 8528   2.487   5.142   1.334
 2841TIP3    H1 8529   2.563   5.126   1.278
 2841TIP3    H2 8530   2.424   5.186   1.277
 2842TIP3   OH2 8531   1.712   5.851   0.256
 2842TIP3    H1 8532   1.798   5.839   0.217
 2842TIP3    H2 8533   1.698   5.772   0.308
 2843TIP3   OH2 8534   4.381   4.375   0.244
 2843TIP3    H1 8535   4.295   4.381   0.287
 2843TIP3    H2 8536   4.363   4.332   0.161
 2844TIP3   OH2 8537   6.293   5.514   2.072
 2844TIP3    H1 8538   6.289   5.587   2.011
 2844TIP3    H2 8539   6.320   5.554   2.155
 2845TIP3   OH2 8540   1.480   3.242   4.132
 2845TIP3    H1 8541   1.419   3.182   4.176
 2845TIP3    H2 8542   1.558   3.242   4.187
 2846TIP3   OH2 8543   5.485   1.902   0.227
 2846TIP3    H1 8544   5.429   1.904   0.149
 2846TIP3    H2 8545   5.453   1.974   0.281
 2847TIP3   OH2 8546   4.244   0.878   0.281
 2847TIP3    H1 8547   4.195   0.907   0.357
 2847TIP3    H2 8548   4.204   0.794   0.257
 2848TIP3   OH2 8549   1.231   3.199   1.226
 2848TIP3    H1 8550   1.253   3.267   1.163
 2848TIP3    H2 8551   1.268   3.230   1.309
 2849TIP3   OH2 8552   2.580   3.557   4.951
 2849TIP3    H1 8553   2.653   3.544   4.890
 2849TIP3    H2 8554   2.617   3.538   5.037
 2850TIP3   OH2 8555   2.998   1.400   2.666
 2850TIP3    H1 8556   2.934   1.336   2.699
 2850TIP3    H2 8557   3.056   1.417   2.740
 2851TIP3   OH2 8558   5.815   3.108   3.480
 2851TIP3    H1 8559   5.796   3.191   3.435
 2851TIP3    H2 8560   5.911   3.102   3.478
 2852TIP3   OH2 8561   2.256   3.352   1.629
 2852TIP3    H1 8562   2.189   3.406   1.670
 2852TIP3    H2 8563   2.208   3.291   1.574
 2853TIP3   OH2 8564   6.259   4.985   2.843
 2853TIP3    H1 8565   6.272   4.940   2.760
 2853TIP3    H2 8566   6.283   4.921   2.909
 2854TIP3   OH2 8567   1.903   1.173   1.000
 2854TIP3    H1 8568   1.875   1.128   1.080
 2854TIP3    H2 8569   1.986   1.214   1.023
 2855TIP3   OH2 8570   3.860   1.228   0.851
 2855TIP3    H1 8571   3.874   1.166   0.923
 2855TIP3    H2 8572   3.946   1.267   0.835
 2856TIP3   OH2 8573   3.000   3.595   4.948
 2856TIP3    H1 8574   2.998   3.503   4.973
 2856TIP3    H2 8575   3.002   3.643   5.031
 2857TIP3   OH2 8576   5.117   3.066   2.467
 2857TIP3    H1 8577   5.082   3.154   2.455
 2857TIP3    H2 8578   5.077   3.014   2.397
 2858TIP3   OH2 8579   3.727   1.662   4.239
 2858TIP3    H1 8580   3.765   1.574   4.234
 2858TIP3    H2 8581   3.732   1.685   4.332
 2859TIP3   OH2 8582   2.193   0.244   0.362
 2859TIP3    H1 8583   2.135   0.313   0.330
 2859TIP3    H2 8584   2.269   0.291   0.397
 2860TIP3   OH2 8585   3.413   0.325   5.006
 2860TIP3    H1 8586   3.471   0.298   4.936
 2860TIP3    H2 8587   3.456   0.296   5.086
 2861TIP3   OH2 8588   0.242   3.101   4.913
 2861TIP3    H1 8589   0.167   3.052   4.878
 2861TIP3    H2 8590   0.266   3.053   4.992
 2862TIP3   OH2 8591   2.220   4.291   0.671
 2862TIP3    H1 8592   2.158   4.304   0.599
 2862TIP3    H2 8593   2.280   4.223   0.639
 2863TIP3   OH2 8594   0.695   1.902   5.008
 2863TIP3    H1 8595   0.656   1.868   5.089
 2863TIP3    H2 8596   0.784   1.927   5.034
 2864TIP3   OH2 8597   5.442   0.720   5.193
 2864TIP3    H1 8598   5.477   0.739   5.106
 2864TIP3    H2 8599   5.475   0.791   5.248
 2865TIP3   OH2 8600   1.035   0.875   3.764
 2865TIP3    H1 8601   1.079   0.790   3.768
 2865TIP3    H2 8602   1.003   0.889   3.853
 2866TIP3   OH2 8603   2.039   4.643   1.613
 2866TIP3    H1 8604   2.110   4.660   1.675
 2866TIP3    H2 8605   1.960   4.664   1.662
 2867TIP3   OH2 8606   4.219   2.804   3.778
 2867TIP3    H1 8607   4.167   2.883   3.763
 2867TIP3    H2 8608   4.284   2.803   3.708
 2868TIP3   OH2 8609   2.466   4.687   2.650
 2868TIP3    H1 8610   2.526   4.613   2.641
 2868TIP3    H2 8611   2.412   4.665   2.727
 2869TIP3   OH2 8612   1.429   4.776   1.692
 2869TIP3    H1 8613   1.413   4.745   1.603
 2869TIP3    H2 8614   1.460   4.699   1.740
 2870TIP3   OH2 8615   2.665   4.697   2.216
 2870TIP3    H1 8616   2.680   4.628   2.281
 2870TIP3    H2 8617   2.739   4.691   2.156
 2871TIP3   OH2 8618   6.083  -0.001   4.352
 2871TIP3    H1 8619   6.179   0.006   4.353
 2871TIP3    H2 8620   6.053   0.075   4.401
 2872TIP3   OH2 8621   0.148   1.403   1.239
 2872TIP3    H1 8622   0.172   1.496   1.239
 2872TIP3    H2 8623   0.220   1.360   1.192
 2873TIP3   OH2 8624   1.629   2.135   0.997
 2873TIP3    H1 8625   1.539   2.104   0.988
 2873TIP3    H2 8626   1.682   2.055   0.994
 2874TIP3   OH2 8627   1.188   4.259   4.449
 2874TIP3    H1 8628   1.108   4.288   4.494
 2874TIP3    H2 8629   1.157   4.198   4.381
 2875TIP3   OH2 8630   1.653   4.269   4.307
 2875TIP3    H1 8631   1.588   4.199   4.297
 2875TIP3    H2 8632   1.603   4.350   4.298
 2876TIP3   OH2 8633   2.084   4.131   3.033
 2876TIP3    H1 8634   2.087   4.038   3.055
 2876TIP3    H2 8635   1.991   4.150   3.023
 2877TIP3   OH2 8636   5.702   1.295   4.916
 2877TIP3    H1 8637   5.761   1.220   4.921
 2877TIP3    H2 8638   5.616   1.256   4.898
 2878TIP3   OH2 8639   0.061   0.565   1.835
 2878TIP3    H1 8640   0.138   0.619   1.852
 2878TIP3    H2 8641   0.034   0.589   1.747
 2879TIP3   OH2 8642   4.479   1.100   1.795
 2879TIP3    H1 8643   4.546   1.088   1.727
 2879TIP3    H2 8644   4.501   1.035   1.862
 2880TIP3   OH2 8645   0.695   5.071   2.790
 2880TIP3    H1 8646   0.790   5.071   2.791
 2880TIP3    H2 8647   0.672   5.021   2.712
 2881TIP3   OH2 8648   0.856   5.118   4.508
 2881TIP3    H1 8649   0.826   5.144   4.595
 2881TIP3    H2 8650   0.924   5.181   4.486
 2882TIP3   OH2 8651   1.188   3.066   3.341
 2882TIP3    H1 8652   1.206   3.022   3.424
 2882TIP3    H2 8653   1.173   3.157   3.364
 2883TIP3   OH2 8654   3.876   4.289   1.524
 2883TIP3    H1 8655   3.791   4.308   1.483
 2883TIP3    H2 8656   3.933   4.269   1.450
 2884TIP3   OH2 8657   3.178   2.156   0.011
 2884TIP3    H1 8658   3.248   2.194   0.064
 2884TIP3    H2 8659   3.102   2.155   0.068
 2885TIP3   OH2 8660   1.298   3.943   4.578
 2885TIP3    H1 8661   1.346   3.868   4.544
 2885TIP3    H2 8662   1.217   3.945   4.527
 2886TIP3   OH2 8663   1.978   3.038   2.779
 2886TIP3    H1 8664   2.047   3.055   2.715
 2886TIP3    H2 8665   1.906   3.000   2.728
 2887TIP3   OH2 8666   1.890   5.063   0.455
 2887TIP3    H1 8667   1.836   5.130   0.497
 2887TIP3    H2 8668   1.960   5.111   0.412
 2888TIP3   OH2 8669   4.854   3.500   4.854
 2888TIP3    H1 8670   4.857   3.589   4.889
 2888TIP3    H2 8671   4.777   3.499   4.795
 2889TIP3   OH2 8672   3.536   4.895   1.127
 2889TIP3    H1 8673   3.522   4.986   1.100
 2889TIP3    H2 8674   3.513   4.894   1.220
 2890TIP3   OH2 8675   1.603   0.825   5.175
 2890TIP3    H1 8676   1.654   0.802   5.098
 2890TIP3    H2 8677   1.618   0.752   5.236
 2891TIP3   OH2 8678   5.183   0.373   1.109
 2891TIP3    H1 8679   5.104   0.391   1.161
 2891TIP3    H2 8680   5.160   0.401   1.020
 2892TIP3   OH2 8681   0.687   3.697   1.960
 2892TIP3    H1 8682   0.727   3.635   2.021
 2892TIP3    H2 8683   0.641   3.642   1.896
 2893TIP3   OH2 8684   1.837   4.018   2.849
 2893TIP3    H1 8685   1.816   4.099   2.895
 2893TIP3    H2 8686   1.861   3.957   2.919
 2894TIP3   OH2 8687   2.733   4.816   3.010
 2894TIP3    H1 8688   2.656   4.866   3.036
 2894TIP3    H2 8689   2.699   4.734   2.976
 2895TIP3   OH2 8690   5.392   5.131   3.872
 2895TIP3    H1 8691   5.418   5.213   3.914
 2895TIP3    H2 8692   5.362   5.158   3.785
 2896TIP3   OH2 8693   4.662   2.441   1.017
 2896TIP3    H1 8694   4.715   2.366   1.043
 2896TIP3    H2 8695   4.711   2.482   0.946
 2897TIP3   OH2 8696   6.203   2.855   3.798
 2897TIP3    H1 8697   6.132   2.884   3.741
 2897TIP3    H2 8698   6.281   2.860   3.743
 2898TIP3   OH2 8699   2.649   5.025   3.272
 2898TIP3    H1 8700   2.573   5.074   3.303
 2898TIP3    H2 8701   2.645   5.033   3.176
 2899TIP3   OH2 8702   6.233   4.862   0.534
 2899TIP3    H1 8703   6.167   4.803   0.572
 2899TIP3    H2 8704   6.210   4.948   0.568
 2900TIP3   OH2 8705   2.562   2.622   0.014
 2900TIP3    H1 8706   2.531   2.549   0.068
 2900TIP3    H2 8707   2.486   2.648  -0.037
 2901TIP3   OH2 8708   2.958   3.375   1.043
 2901TIP3    H1 8709   3.050   3.403   1.037
 2901TIP3    H2 8710   2.940   3.336   0.958
 2902TIP3   OH2 8711   0.098   1.541   4.760
 2902TIP3    H1 8712   0.116   1.531   4.667
 2902TIP3    H2 8713   0.119   1.456   4.798
 2903TIP3   OH2 8714   4.923   3.913   1.879
 2903TIP3    H1 8715   5.012   3.888   1.904
 2903TIP3    H2 8716   4.888   3.958   1.956
 2904TIP3   OH2 8717   1.447   2.709   3.224
 2904TIP3    H1 8718   1.487   2.622   3.217
 2904TIP3    H2 8719   1.426   2.719   3.316
 2905TIP3   OH2 8720   1.984   0.764   3.065
 2905TIP3    H1 8721   2.029   0.706   3.004
 2905TIP3    H2 8722   2.039   0.764   3.143
 2906TIP3   OH2 8723   3.262   2.170   4.138
 2906TIP3    H1 8724   3.186   2.214   4.100
 2906TIP3    H2 8725   3.300   2.121   4.064
 2907TIP3   OH2 8726   1.339   2.973   0.707
 2907TIP3    H1 8727   1.353   2.949   0.799
 2907TIP3    H2 8728   1.363   3.066   0.703
 2908TIP3   OH2 8729   3.230   4.156   5.190
 2908TIP3    H1 8730   3.246   4.061   5.190
 2908TIP3    H2 8731   3.149   4.166   5.141
 2909TIP3   OH2 8732   5.940   5.707   0.919
 2909TIP3    H1 8733   5.871   5.646   0.945
 2909TIP3    H2 8734   5.974   5.740   1.002
 2910TIP3   OH2 8735   3.699   0.393   0.816
 2910TIP3    H1 8736   3.769   0.455   0.835
 2910TIP3    H2 8737   3.715   0.366   0.726
 2911TIP3   OH2 8738   4.658   5.265   1.998
 2911TIP3    H1 8739   4.716   5.217   2.058
 2911TIP3    H2 8740   4.573   5.266   2.042
 2912TIP3   OH2 8741   1.801   4.371   4.798
 2912TIP3    H1 8742   1.884   4.414   4.778
 2912TIP3    H2 8743   1.800   4.294   4.741
 2913TIP3   OH2 8744   5.423   3.154   2.970
 2913TIP3    H1 8745   5.426   3.214   2.895
 2913TIP3    H2 8746   5.330   3.148   2.992
 2914TIP3   OH2 8747   2.765   4.197   4.296
 2914TIP3    H1 8748   2.715   4.165   4.371
 2914TIP3    H2 8749   2.803   4.118   4.258
 2915TIP3   OH2 8750   1.199   3.122   2.922
 2915TIP3    H1 8751   1.141   3.067   2.870
 2915TIP3    H2 8752   1.285   3.079   2.916
 2916TIP3   OH2 8753   5.105   4.651   4.629
 2916TIP3    H1 8754   5.052   4.695   4.563
 2916TIP3    H2 8755   5.115   4.715   4.699
 2917TIP3   OH2 8756   4.823   0.304   4.199
 2917TIP3    H1 8757   4.731   0.309   4.174
 2917TIP3    H2 8758   4.844   0.211   4.194
 2918TIP3   OH2 8759   5.341   3.409   1.176
 2918TIP3    H1 8760   5.427   3.401   1.136
 2918TIP3    H2 8761   5.345   3.489   1.228
 2919TIP3   OH2 8762   1.726   3.549   0.492
 2919TIP3    H1 8763   1.789   3.585   0.553
 2919TIP3    H2 8764   1.714   3.458   0.520
 2920TIP3   OH2 8765   5.948   4.858   2.518
 2920TIP3    H1 8766   5.875   4.860   2.457
 2920TIP3    H2 8767   5.910   4.825   2.600
 2921TIP3   OH2 8768   5.967   2.887   1.004
 2921TIP3    H1 8769   6.034   2.830   0.968
 2921TIP3    H2 8770   5.982   2.886   1.099
 2922TIP3   OH2 8771   5.866   2.181   3.751
 2922TIP3    H1 8772   5.811   2.159   3.676
 2922TIP3    H2 8773   5.950   2.141   3.733
 2923TIP3   OH2 8774   6.227   1.388   2.417
 2923TIP3    H1 8775   6.154   1.360   2.362
 2923TIP3    H2 8776   6.305   1.361   2.369
 2924TIP3   OH2 8777   0.404   1.844   2.608
 2924TIP3    H1 8778   0.451   1.861   2.690
 2924TIP3    H2 8779   0.436   1.758   2.580
 2925TIP3   OH2 8780   6.238   2.344   1.818
 2925TIP3    H1 8781   6.292   2.300   1.884
 2925TIP3    H2 8782   6.211   2.273   1.759
 2926TIP3   OH2 8783   3.700   3.241   3.747
 2926TIP3    H1 8784   3.779   3.295   3.748
 2926TIP3    H2 8785   3.628   3.302   3.761
 2927TIP3   OH2 8786   2.828   2.493   4.034
 2927TIP3    H1 8787   2.780   2.529   3.960
 2927TIP3    H2 8788   2.761   2.450   4.087
 2928TIP3   OH2 8789   5.777   5.677   4.736
 2928TIP3    H1 8790   5.724   5.755   4.722
 2928TIP3    H2 8791   5.850   5.706   4.790
 2929TIP3   OH2 8792   3.367   5.784   3.273
 2929TIP3    H1 8793   3.456   5.751   3.285
 2929TIP3    H2 8794   3.375   5.851   3.205
 2930TIP3   OH2 8795   3.518   1.117   3.021
 2930TIP3    H1 8796   3.598   1.120   3.074
 2930TIP3    H2 8797   3.493   1.209   3.011
 2931TIP3   OH2 8798   5.302   5.430   0.766
 2931TIP3    H1 8799   5.303   5.464   0.676
 2931TIP3    H2 8800   5.306   5.335   0.756
 2932TIP3   OH2 8801   2.338   0.459   1.540
 2932TIP3    H1 8802   2.418   0.510   1.526
 2932TIP3    H2 8803   2.299   0.497   1.619
 2933TIP3   OH2 8804   4.630   3.930   2.024
 2933TIP3    H1 8805   4.594   3.843   2.011
 2933TIP3    H2 8806   4.560   3.979   2.067
 2934TIP3   OH2 8807   3.876   5.788   3.244
 2934TIP3    H1 8808   3.947   5.839   3.206
 2934TIP3    H2 8809   3.827   5.851   3.298
 2935TIP3   OH2 8810   2.225   0.057   1.629
 2935TIP3    H1 8811   2.199  -0.035   1.636
 2935TIP3    H2 8812   2.157   0.097   1.575
 2936TIP3   OH2 8813   5.832   2.259   0.335
 2936TIP3    H1 8814   5.925   2.254   0.311
 2936TIP3    H2 8815   5.787   2.271   0.251
 2937TIP3   OH2 8816   4.285   0.220   3.070
 2937TIP3    H1 8817   4.333   0.201   3.151
 2937TIP3    H2 8818   4.277   0.315   3.068
 2938TIP3   OH2 8819   5.451   2.400   1.797
 2938TIP3    H1 8820   5.428   2.436   1.883
 2938TIP3    H2 8821   5.420   2.309   1.801
 2939TIP3   OH2 8822   4.233   4.826   3.030
 2939TIP3    H1 8823   4.266   4.760   2.969
 2939TIP3    H2 8824   4.229   4.782   3.114
 2940TIP3   OH2 8825   1.552   1.469   3.538
 2940TIP3    H1 8826   1.611   1.538   3.510
 2940TIP3    H2 8827   1.593   1.388   3.508
 2941TIP3   OH2 8828   4.343   0.952   5.132
 2941TIP3    H1 8829   4.432   0.918   5.125
 2941TIP3    H2 8830   4.313   0.922   5.218
 2942TIP3   OH2 8831   1.019   2.058   1.833
 2942TIP3    H1 8832   0.988   2.141   1.797
 2942TIP3    H2 8833   1.012   1.996   1.760
 2943TIP3   OH2 8834   2.297   0.831   4.348
 2943TIP3    H1 8835   2.254   0.746   4.353
 2943TIP3    H2 8836   2.339   0.842   4.434
 2944TIP3   OH2 8837   4.297   2.730   3.304
 2944TIP3    H1 8838   4.275   2.811   3.258
 2944TIP3    H2 8839   4.213   2.690   3.325
 2945TIP3   OH2 8840   3.662   4.592   2.277
 2945TIP3    H1 8841   3.680   4.642   2.198
 2945TIP3    H2 8842   3.603   4.647   2.329
 2946TIP3   OH2 8843   4.213   2.511   2.545
 2946TIP3    H1 8844   4.220   2.429   2.593
 2946TIP3    H2 8845   4.216   2.580   2.612
 2947TIP3   OH2 8846   0.681   2.455   3.751
 2947TIP3    H1 8847   0.702   2.544   3.780
 2947TIP3    H2 8848   0.731   2.444   3.670
 2948TIP3   OH2 8849   2.123   0.378   3.751
 2948TIP3    H1 8850   2.112   0.301   3.695
 2948TIP3    H2 8851   2.158   0.445   3.694
 2949TIP3   OH2 8852   4.307   0.376   0.767
 2949TIP3    H1 8853   4.217   0.342   0.764
 2949TIP3    H2 8854   4.333   0.365   0.859
 2950TIP3   OH2 8855   4.450   2.331   0.847
 2950TIP3    H1 8856   4.513   2.373   0.905
 2950TIP3    H2 8857   4.366   2.337   0.894
 2951TIP3   OH2 8858   5.185   4.467   1.093
 2951TIP3    H1 8859   5.196   4.561   1.082
 2951TIP3    H2 8860   5.126   4.441   1.022
 2952TIP3   OH2 8861   3.484   3.793   2.924
 2952TIP3    H1 8862   3.498   3.763   3.014
 2952TIP3    H2 8863   3.539   3.871   2.916
 2953TIP3   OH2 8864   0.869   5.107   2.373
 2953TIP3    H1 8865   0.793   5.049   2.379
 2953TIP3    H2 8866   0.833   5.194   2.391
 2954TIP3   OH2 8867   5.075   2.310   2.950
 2954TIP3    H1 8868   5.089   2.240   3.014
 2954TIP3    H2 8869   5.137   2.378   2.975
 2955TIP3   OH2 8870   2.590   3.010   1.700
 2955TIP3    H1 8871   2.539   2.983   1.623
 2955TIP3    H2 8872   2.550   3.092   1.727
 2956TIP3   OH2 8873   3.872   4.265   4.393
 2956TIP3    H1 8874   3.894   4.264   4.486
 2956TIP3    H2 8875   3.814   4.190   4.380
 2957TIP3   OH2 8876   3.994   3.829   3.712
 2957TIP3    H1 8877   3.980   3.781   3.794
 2957TIP3    H2 8878   4.089   3.830   3.701
 2958TIP3   OH2 8879   5.470   0.432   2.844
 2958TIP3    H1 8880   5.503   0.467   2.761
 2958TIP3    H2 8881   5.421   0.504   2.882
 2959TIP3   OH2 8882   0.624   4.487   3.521
 2959TIP3    H1 8883   0.628   4.444   3.606
 2959TIP3    H2 8884   0.672   4.428   3.462
 2960TIP3   OH2 8885   4.739   4.462   3.284
 2960TIP3    H1 8886   4.764   4.518   3.357
 2960TIP3    H2 8887   4.697   4.522   3.221
 2961TIP3   OH2 8888   1.492   0.868   3.356
 2961TIP3    H1 8889   1.564   0.930   3.354
 2961TIP3    H2 8890   1.428   0.907   3.416
 2962TIP3   OH2 8891   4.795   5.942   2.384
 2962TIP3    H1 8892   4.737   6.001   2.433
 2962TIP3    H2 8893   4.853   6.001   2.336
 2963TIP3   OH2 8894   4.982   1.758   0.582
 2963TIP3    H1 8895   4.971   1.702   0.658
 2963TIP3    H2 8896   5.015   1.700   0.514
 2964TIP3   OH2 8897   3.081   2.754   2.101
 2964TIP3    H1 8898   3.039   2.784   2.020
 2964TIP3    H2 8899   3.144   2.687   2.072
 2965TIP3   OH2 8900   4.029   4.732   3.577
 2965TIP3    H1 8901   4.043   4.723   3.671
 2965TIP3    H2 8902   3.993   4.820   3.567
 2966TIP3   OH2 8903   5.803   0.977   4.924
 2966TIP3    H1 8904   5.778   0.961   4.833
 2966TIP3    H2 8905   5.896   0.955   4.927
 2967TIP3   OH2 8906   4.858   1.855   5.174
 2967TIP3    H1 8907   4.776   1.902   5.163
 2967TIP3    H2 8908   4.911   1.912   5.229
 2968TIP3   OH2 8909   0.323   2.821   4.801
 2968TIP3    H1 8910   0.360   2.743   4.761
 2968TIP3    H2 8911   0.373   2.834   4.881
 2969TIP3   OH2 8912   2.047   1.652   3.917
 2969TIP3    H1 8913   2.071   1.566   3.951
 2969TIP3    H2 8914   2.127   1.685   3.875
 2970TIP3   OH2 8915   3.238   5.486   1.433
 2970TIP3    H1 8916   3.269   5.398   1.454
 2970TIP3    H2 8917   3.161   5.498   1.489
 2971TIP3   OH2 8918   5.441   5.667   0.160
 2971TIP3    H1 8919   5.503   5.598   0.186
 2971TIP3    H2 8920   5.404   5.636   0.078
 2972TIP3   OH2 8921   1.678   4.839   0.200
 2972TIP3    H1 8922   1.689   4.747   0.175
 2972TIP3    H2 8923   1.767   4.875   0.198
 2973TIP3   OH2 8924   3.877   1.937   3.234
 2973TIP3    H1 8925   3.911   2.016   3.192
 2973TIP3    H2 8926   3.937   1.868   3.206
 2974TIP3   OH2 8927   6.034   2.351   2.801
 2974TIP3    H1 8928   6.097   2.319   2.737
 2974TIP3    H2 8929   6.007   2.437   2.768
 2975TIP3   OH2 8930   2.914   4.126   3.584
 2975TIP3    H1 8931   2.842   4.182   3.611
 2975TIP3    H2 8932   2.908   4.050   3.641
 2976TIP3   OH2 8933   6.085   5.200   0.983
 2976TIP3    H1 8934   6.168   5.222   0.940
 2976TIP3    H2 8935   6.066   5.274   1.040
 2977TIP3   OH2 8936   6.186   2.271   4.298
 2977TIP3    H1 8937   6.182   2.334   4.370
 2977TIP3    H2 8938   6.128   2.307   4.231
 2978TIP3   OH2 8939   0.736   0.088   2.245
 2978TIP3    H1 8940   0.829   0.080   2.224
 2978TIP3    H2 8941   0.721   0.182   2.254
 2979TIP3   OH2 8942   5.137   2.057   3.456
 2979TIP3    H1 8943   5.174   2.134   3.500
 2979TIP3    H2 8944   5.066   2.028   3.513
 2980TIP3   OH2 8945   3.814   3.618   1.301
 2980TIP3    H1 8946   3.802   3.525   1.315
 2980TIP3    H2 8947   3.780   3.659   1.381
 2981TIP3   OH2 8948   5.935   5.914   3.282
 2981TIP3    H1 8949   5.877   5.977   3.240
 2981TIP3    H2 8950   5.892   5.893   3.365
 2982TIP3   OH2 8951   2.718   2.435   5.103
 2982TIP3    H1 8952   2.666   2.361   5.074
 2982TIP3    H2 8953   2.665   2.475   5.173
 2983TIP3   OH2 8954   5.924   1.835   1.475
 2983TIP3    H1 8955   5.933   1.837   1.380
 2983TIP3    H2 8956   5.910   1.927   1.500
 2984TIP3   OH2 8957   2.212   4.311   0.175
 2984TIP3    H1 8958   2.175   4.265   0.099
 2984TIP3    H2 8959   2.178   4.400   0.168
 2985TIP3   OH2 8960   6.110   4.814   1.074
 2985TIP3    H1 8961   6.054   4.792   1.149
 2985TIP3    H2 8962   6.146   4.900   1.095
 2986TIP3   OH2 8963   2.545   4.255   4.746
 2986TIP3    H1 8964   2.467   4.203   4.764
 2986TIP3    H2 8965   2.528   4.339   4.789
 2987TIP3   OH2 8966   3.539   0.941   2.368
 2987TIP3    H1 8967   3.498   0.994   2.299
 2987TIP3    H2 8968   3.488   0.860   2.370
 2988TIP3   OH2 8969   3.505   4.704   2.635
 2988TIP3    H1 8970   3.423   4.752   2.623
 2988TIP3    H2 8971   3.569   4.751   2.583
 2989TIP3   OH2 8972   0.388   5.858   2.783
 2989TIP3    H1 8973   0.296   5.833   2.792
 2989TIP3    H2 8974   0.416   5.817   2.701
 2990TIP3   OH2 8975   4.956   0.875   4.971
 2990TIP3    H1 8976   5.026   0.838   4.917
 2990TIP3    H2 8977   4.876   0.860   4.920
 2991TIP3   OH2 8978   4.924   3.217   0.502
 2991TIP3    H1 8979   4.870   3.237   0.426
 2991TIP3    H2 8980   4.971   3.137   0.479
 2992TIP3   OH2 8981   0.405   3.314   0.220
 2992TIP3    H1 8982   0.418   3.324   0.126
 2992TIP3    H2 8983   0.472   3.369   0.260
 2993TIP3   OH2 8984   0.757   4.900   3.817
 2993TIP3    H1 8985   0.670   4.862   3.805
 2993TIP3    H2 8986   0.770   4.955   3.740
 2994TIP3   OH2 8987   2.751   4.850   1.152
 2994TIP3    H1 8988   2.687   4.789   1.115
 2994TIP3    H2 8989   2.833   4.828   1.108
 2995TIP3   OH2 8990   2.103   0.221   3.542
 2995TIP3    H1 8991   2.180   0.170   3.517
 2995TIP3    H2 8992   2.062   0.244   3.459
 2996TIP3   OH2 8993   2.392   2.581   4.105
 2996TIP3    H1 8994   2.302   2.561   4.079
 2996TIP3    H2 8995   2.445   2.552   4.031
 2997TIP3   OH2 8996   4.166   4.703   3.865
 2997TIP3    H1 8997   4.153   4.731   3.955
 2997TIP3    H2 8998   4.135   4.613   3.863
 2998TIP3   OH2 8999   3.002   3.185   0.845
 2998TIP3    H1 9000   3.089   3.182   0.885
 2998TIP3    H2 9001   3.018   3.209   0.754
 2999TIP3   OH2 9002   4.888   0.077   3.555
 2999TIP3    H1 9003   4.861   0.156   3.603
 2999TIP3    H2 9004   4.809   0.023   3.551
 3000TIP3   OH2 9005   0.224   4.668   1.392
 3000TIP3    H1 9006   0.180   4.733   1.447
 3000TIP3    H2 9007   0.154   4.609   1.363
 3001TIP3   OH2 9008   0.140   1.706   0.546
 3001TIP3    H1 9009   0.094   1.623   0.538
 3001TIP3    H2 9010   0.088   1.768   0.494
 3002TIP3   OH2 9011   5.478   1.178   4.913
 3002TIP3    H1 9012   5.428   1.243   4.863
 3002TIP3    H2 9013   5.473   1.098   4.861
 3003TIP3   OH2 9014   3.515   3.164   5.108
 3003TIP3    H1 9015   3.587   3.127   5.158
 3003TIP3    H2 9016   3.544   3.160   5.017
 3004TIP3   OH2 9017   4.513   3.901   1.163
 3004TIP3    H1 9018   4.449   3.857   1.218
 3004TIP3    H2 9019   4.543   3.833   1.102
 3005TIP3   OH2 9020   1.611   3.922   0.405
 3005TIP3    H1 9021   1.523   3.938   0.439
 3005TIP3    H2 9022   1.670   3.954   0.473
 3006TIP3   OH2 9023   4.435   1.724   1.215
 3006TIP3    H1 9024   4.396   1.655   1.268
 3006TIP3    H2 9025   4.502   1.763   1.272
 3007TIP3   OH2 9026   4.990   4.556   3.730
 3007TIP3    H1 9027   4.957   4.638   3.767
 3007TIP3    H2 9028   5.082   4.552   3.758
 3008TIP3   OH2 9029   1.987   3.729   2.778
 3008TIP3    H1 9030   1.900   3.742   2.741
 3008TIP3    H2 9031   1.975   3.662   2.845
 3009TIP3   OH2 9032   5.605   4.240   0.465
 3009TIP3    H1 9033   5.578   4.278   0.381
 3009TIP3    H2 9034   5.598   4.146   0.452
 3010TIP3   OH2 9035   3.725   5.907   3.473
 3010TIP3    H1 9036   3.782   5.960   3.529
 3010TIP3    H2 9037   3.704   5.964   3.399
 3011TIP3   OH2 9038   4.978   2.592   0.478
 3011TIP3    H1 9039   4.992   2.664   0.416
 3011TIP3    H2 9040   4.976   2.634   0.564
 3012TIP3   OH2 9041   1.869   0.723   4.021
 3012TIP3    H1 9042   1.895   0.643   4.067
 3012TIP3    H2 9043   1.776   0.711   4.002
 3013TIP3   OH2 9044   0.063   4.016   3.050
 3013TIP3    H1 9045   0.015   3.962   2.987
 3013TIP3    H2 9046   0.137   3.962   3.077
 3014TIP3   OH2 9047   3.065   4.212   3.361
 3014TIP3    H1 9048   3.151   4.174   3.379
 3014TIP3    H2 9049   3.005   4.164   3.418
 3015TIP3   OH2 9050   2.391   1.572   0.702
 3015TIP3    H1 9051   2.412   1.487   0.741
 3015TIP3    H2 9052   2.360   1.625   0.776
 3016TIP3   OH2 9053   4.561   1.533   3.367
 3016TIP3    H1 9054   4.568   1.477   3.444
 3016TIP3    H2 9055   4.518   1.613   3.398
 3017TIP3   OH2 9056   2.725   3.360   0.441
 3017TIP3    H1 9057   2.713   3.322   0.528
 3017TIP3    H2 9058   2.794   3.425   0.453
 3018TIP3   OH2 9059   0.432   1.574   4.720
 3018TIP3    H1 9060   0.374   1.569   4.644
 3018TIP3    H2 9061   0.520   1.568   4.684
 3019TIP3   OH2 9062   1.786   3.384   1.711
 3019TIP3    H1 9063   1.779   3.390   1.616
 3019TIP3    H2 9064   1.717   3.322   1.737
 3020TIP3   OH2 9065   3.992   0.577   2.618
 3020TIP3    H1 9066   3.964   0.516   2.686
 3020TIP3    H2 9067   3.955   0.541   2.537
 3021TIP3   OH2 9068   0.612   0.150   0.985
 3021TIP3    H1 9069   0.550   0.209   1.028
 3021TIP3    H2 9070   0.660   0.207   0.925
 3022TIP3   OH2 9071   1.408   5.361   0.482
 3022TIP3    H1 9072   1.330   5.369   0.427
 3022TIP3    H2 9073   1.479   5.344   0.420
 3023TIP3   OH2 9074   1.553   0.912   0.478
 3023TIP3    H1 9075   1.499   0.847   0.523
 3023TIP3    H2 9076   1.490   0.965   0.430
 3024TIP3   OH2 9077   4.724   3.523   0.604
 3024TIP3    H1 9078   4.723   3.471   0.684
 3024TIP3    H2 9079   4.692   3.609   0.630
 3025TIP3   OH2 9080   0.996   2.948   2.316
 3025TIP3    H1 9081   1.007   2.889   2.391
 3025TIP3    H2 9082   0.950   3.024   2.352
 3026TIP3   OH2 9083   1.290   2.609   4.035
 3026TIP3    H1 9084   1.225   2.660   3.986
 3026TIP3    H2 9085   1.371   2.659   4.025
 3027TIP3   OH2 9086   2.248   0.612   1.041
 3027TIP3    H1 9087   2.341   0.620   1.022
 3027TIP3    H2 9088   2.231   0.680   1.107
 3028TIP3   OH2 9089   5.565   0.721   3.703
 3028TIP3    H1 9090   5.586   0.703   3.612
 3028TIP3    H2 9091   5.479   0.681   3.717
 3029TIP3   OH2 9092   1.818   1.966   3.567
 3029TIP3    H1 9093   1.822   2.025   3.492
 3029TIP3    H2 9094   1.897   1.912   3.559
 3030TIP3   OH2 9095   1.241   4.490   1.804
 3030TIP3    H1 9096   1.289   4.416   1.842
 3030TIP3    H2 9097   1.204   4.455   1.723
 3031TIP3   OH2 9098   0.628   4.611   4.322
 3031TIP3    H1 9099   0.706   4.568   4.286
 3031TIP3    H2 9100   0.555   4.565   4.281
 3032TIP3   OH2 9101   0.052   4.659   0.134
 3032TIP3    H1 9102   0.132   4.610   0.114
 3032TIP3    H2 9103   0.044   4.654   0.229
 3033TIP3   OH2 9104   0.632   4.453   1.045
 3033TIP3    H1 9105   0.676   4.536   1.028
 3033TIP3    H2 9106   0.550   4.477   1.089
 3034TIP3   OH2 9107   4.981   2.566   3.830
 3034TIP3    H1 9108   4.988   2.493   3.769
 3034TIP3    H2 9109   5.068   2.572   3.870
 3035TIP3   OH2 9110   4.913   5.604   4.923
 3035TIP3    H1 9111   4.881   5.587   5.011
 3035TIP3    H2 9112   4.967   5.528   4.901
 3036TIP3   OH2 9113   1.908   3.533   1.370
 3036TIP3    H1 9114   1.905   3.590   1.293
 3036TIP3    H2 9115   1.962   3.459   1.342
 3037TIP3   OH2 9116   2.523   5.494   3.229
 3037TIP3    H1 9117   2.457   5.453   3.284
 3037TIP3    H2 9118   2.476   5.563   3.181
 3038TIP3   OH2 9119   2.905   5.419   4.261
 3038TIP3    H1 9120   2.859   5.503   4.266
 3038TIP3    H2 9121   2.836   5.355   4.248
 3039TIP3   OH2 9122   0.887   2.508   4.373
 3039TIP3    H1 9123   0.945   2.460   4.313
 3039TIP3    H2 9124   0.831   2.440   4.410
 3040TIP3   OH2 9125   2.175   2.403   0.303
 3040TIP3    H1 9126   2.235   2.469   0.269
 3040TIP3    H2 9127   2.230   2.348   0.360
 3041TIP3   OH2 9128   5.033   5.361   1.502
 3041TIP3    H1 9129   5.102   5.378   1.438
 3041TIP3    H2 9130   5.079   5.351   1.585
 3042TIP3   OH2 9131   0.373   2.850   1.558
 3042TIP3    H1 9132   0.423   2.871   1.637
 3042TIP3    H2 9133   0.423   2.780   1.516
 3043TIP3   OH2 9134   1.520   0.459   3.946
 3043TIP3    H1 9135   1.524   0.553   3.930
 3043TIP3    H2 9136   1.611   0.430   3.941
 3044TIP3   OH2 9137   3.360   4.139   1.485
 3044TIP3    H1 9138   3.292   4.200   1.515
 3044TIP3    H2 9139   3.319   4.090   1.414
 3045TIP3   OH2 9140   2.260   3.521   0.976
 3045TIP3    H1 9141   2.336   3.526   1.035
 3045TIP3    H2 9142   2.280   3.448   0.918
 3046TIP3   OH2 9143   2.109   5.578   4.841
 3046TIP3    H1 9144   2.060   5.660   4.847
 3046TIP3    H2 9145   2.201   5.605   4.844
 3047TIP3   OH2 9146   2.306   2.282   2.928
 3047TIP3    H1 9147   2.329   2.375   2.916
 3047TIP3    H2 9148   2.383   2.244   2.971
 3048TIP3   OH2 9149   5.225   5.041   1.467
 3048TIP3    H1 9150   5.287   5.112   1.483
 3048TIP3    H2 9151   5.202   5.049   1.375
 3049TIP3   OH2 9152   0.125   2.858   0.012
 3049TIP3    H1 9153   0.207   2.905  -0.008
 3049TIP3    H2 9154   0.142   2.815   0.096
 3050TIP3   OH2 9155   5.333   5.879   2.587
 3050TIP3    H1 9156   5.363   5.888   2.677
 3050TIP3    H2 9157   5.376   5.800   2.555
 3051TIP3   OH2 9158   6.246   1.213   3.027
 3051TIP3    H1 9159   6.200   1.148   2.974
 3051TIP3    H2 9160   6.283   1.163   3.099
 3052TIP3   OH2 9161   0.995   0.728   4.063
 3052TIP3    H1 9162   0.986   0.635   4.084
 3052TIP3    H2 9163   0.918   0.769   4.104
 3053TIP3   OH2 9164   0.239   1.258   1.724
 3053TIP3    H1 9165   0.231   1.317   1.650
 3053TIP3    H2 9166   0.318   1.207   1.706
 3054TIP3   OH2 9167   3.667   1.814   3.109
 3054TIP3    H1 9168   3.743   1.840   3.161
 3054TIP3    H2 9169   3.594   1.863   3.145
 3055TIP3   OH2 9170   1.650   2.380   1.631
 3055TIP3    H1 9171   1.704   2.302   1.621
 3055TIP3    H2 9172   1.709   2.454   1.615
 3056TIP3   OH2 9173   0.593   4.535   2.792
 3056TIP3    H1 9174   0.499   4.530   2.812
 3056TIP3    H2 9175   0.636   4.532   2.877
 3057TIP3   OH2 9176   2.206   3.324   3.152
 3057TIP3    H1 9177   2.209   3.242   3.102
 3057TIP3    H2 9178   2.149   3.304   3.226
 3058TIP3   OH2 9179   6.106   2.228   0.254
 3058TIP3    H1 9180   6.133   2.149   0.207
 3058TIP3    H2 9181   6.169   2.237   0.325
 3059TIP3   OH2 9182   5.764   3.426   0.507
 3059TIP3    H1 9183   5.777   3.446   0.599
 3059TIP3    H2 9184   5.833   3.363   0.486
 3060TIP3   OH2 9185   1.833   3.663   1.054
 3060TIP3    H1 9186   1.800   3.691   0.969
 3060TIP3    H2 9187   1.770   3.596   1.083
 3061TIP3   OH2 9188   1.363   1.040   0.294
 3061TIP3    H1 9189   1.414   1.098   0.238
 3061TIP3    H2 9190   1.309   1.099   0.347
 3062TIP3   OH2 9191   5.729   0.088   3.254
 3062TIP3    H1 9192   5.694   0.157   3.310
 3062TIP3    H2 9193   5.763   0.133   3.177
 3063TIP3   OH2 9194   0.568   1.639   2.553
 3063TIP3    H1 9195   0.649   1.658   2.506
 3063TIP3    H2 9196   0.541   1.553   2.521
 3064TIP3   OH2 9197   5.233   4.348   2.970
 3064TIP3    H1 9198   5.170   4.277   2.957
 3064TIP3    H2 9199   5.179   4.428   2.970
 3065TIP3   OH2 9200   5.649   2.061   3.281
 3065TIP3    H1 9201   5.578   2.032   3.223
 3065TIP3    H2 9202   5.713   1.991   3.278
 3066TIP3   OH2 9203   0.707   4.560   1.672
 3066TIP3    H1 9204   0.741   4.563   1.583
 3066TIP3    H2 9205   0.646   4.635   1.676
 3067TIP3   OH2 9206   4.736   2.075   1.986
 3067TIP3    H1 9207   4.673   2.086   2.057
 3067TIP3    H2 9208   4.798   2.147   1.998
 3068TIP3   OH2 9209   3.844   1.186   3.883
 3068TIP3    H1 9210   3.795   1.146   3.955
 3068TIP3    H2 9211   3.921   1.224   3.924
 3069TIP3   OH2 9212   4.353   4.092   0.811
 3069TIP3    H1 9213   4.372   4.011   0.763
 3069TIP3    H2 9214   4.417   4.155   0.778
 3070TIP3   OH2 9215   3.449   3.565   0.883
 3070TIP3    H1 9216   3.513   3.636   0.890
 3070TIP3    H2 9217   3.405   3.580   0.800
 3071TIP3   OH2 9218   5.917   1.744   1.192
 3071TIP3    H1 9219   5.925   1.755   1.097
 3071TIP3    H2 9220   5.927   1.650   1.206
 3072TIP3   OH2 9221   4.610   2.075   0.089
 3072TIP3    H1 9222   4.580   2.161   0.060
 3072TIP3    H2 9223   4.643   2.090   0.178
 3073TIP3   OH2 9224   0.522   2.784   4.492
 3073TIP3    H1 9225   0.501   2.706   4.544
 3073TIP3    H2 9226   0.618   2.786   4.490
 3074TIP3   OH2 9227   5.730   5.484   2.608
 3074TIP3    H1 9228   5.744   5.400   2.565
 3074TIP3    H2 9229   5.808   5.536   2.587
 3075TIP3   OH2 9230   3.047   3.314   5.021
 3075TIP3    H1 9231   3.079   3.258   5.091
 3075TIP3    H2 9232   2.954   3.291   5.013
 3076TIP3   OH2 9233   3.312   5.739   3.709
 3076TIP3    H1 9234   3.299   5.820   3.659
 3076TIP3    H2 9235   3.405   5.719   3.697
 3077TIP3   OH2 9236   3.448   2.924   2.236
 3077TIP3    H1 9237   3.435   3.017   2.256
 3077TIP3    H2 9238   3.541   2.908   2.255
 3078TIP3   OH2 9239   5.226   0.535   0.268
 3078TIP3    H1 9240   5.267   0.530   0.182
 3078TIP3    H2 9241   5.232   0.627   0.292
 3079TIP3   OH2 9242   3.876   5.634   1.444
 3079TIP3    H1 9243   3.805   5.575   1.468
 3079TIP3    H2 9244   3.881   5.629   1.348
 3080TIP3   OH2 9245   3.848   2.337   1.496
 3080TIP3    H1 9246   3.906   2.408   1.468
 3080TIP3    H2 9247   3.760   2.372   1.483
 3081TIP3   OH2 9248   0.566   5.214   3.135
 3081TIP3    H1 9249   0.643   5.239   3.083
 3081TIP3    H2 9250   0.492   5.233   3.078
 3082TIP3   OH2 9251   3.495   1.940   3.273
 3082TIP3    H1 9252   3.520   2.026   3.308
 3082TIP3    H2 9253   3.400   1.944   3.264
 3083TIP3   OH2 9254   0.391   3.351   0.799
 3083TIP3    H1 9255   0.483   3.373   0.783
 3083TIP3    H2 9256   0.382   3.262   0.764
 3084TIP3   OH2 9257   0.292   0.641   0.699
 3084TIP3    H1 9258   0.257   0.577   0.637
 3084TIP3    H2 9259   0.317   0.588   0.775
 3085TIP3   OH2 9260   2.925   0.092   0.807
 3085TIP3    H1 9261   2.915   0.156   0.877
 3085TIP3    H2 9262   2.965   0.140   0.735
 3086TIP3   OH2 9263   0.863   2.751   4.179
 3086TIP3    H1 9264   0.864   2.833   4.229
 3086TIP3    H2 9265   0.934   2.699   4.216
 3087TIP3   OH2 9266   4.676   1.612   4.440
 3087TIP3    H1 9267   4.753   1.589   4.388
 3087TIP3    H2 9268   4.615   1.540   4.425
 3088TIP3   OH2 9269   4.590   5.402   4.114
 3088TIP3    H1 9270   4.651   5.416   4.187
 3088TIP3    H2 9271   4.509   5.446   4.142
 3089TIP3   OH2 9272   0.231   2.283   2.080
 3089TIP3    H1 9273   0.326   2.285   2.095
 3089TIP3    H2 9274   0.205   2.194   2.106
 3090TIP3   OH2 9275   3.396   2.814   3.981
 3090TIP3    H1 9276   3.408   2.721   3.959
 3090TIP3    H2 9277   3.399   2.859   3.896
 3091TIP3   OH2 9278   2.734   1.830   3.823
 3091TIP3    H1 9279   2.765   1.818   3.912
 3091TIP3    H2 9280   2.785   1.767   3.771
 3092TIP3   OH2 9281   0.368   2.726   0.462
 3092TIP3    H1 9282   0.371   2.782   0.540
 3092TIP3    H2 9283   0.453   2.738   0.420
 3093TIP3   OH2 9284   2.444   4.484   4.988
 3093TIP3    H1 9285   2.389   4.562   4.990
 3093TIP3    H2 9286   2.400   4.423   5.047
 3094TIP3   OH2 9287   3.551   0.594   2.493
 3094TIP3    H1 9288   3.489   0.642   2.439
 3094TIP3    H2 9289   3.593   0.662   2.547
 3095TIP3   OH2 9290   5.420   1.370   4.718
 3095TIP3    H1 9291   5.342   1.409   4.679
 3095TIP3    H2 9292   5.493   1.420   4.682
 3096TIP3   OH2 9293   1.203   1.102   2.423
 3096TIP3    H1 9294   1.114   1.090   2.391
 3096TIP3    H2 9295   1.249   1.023   2.394
 3097TIP3   OH2 9296   5.624   2.793   3.838
 3097TIP3    H1 9297   5.703   2.831   3.876
 3097TIP3    H2 9298   5.600   2.852   3.767
 3098TIP3   OH2 9299   4.424   4.079   2.564
 3098TIP3    H1 9300   4.481   4.099   2.638
 3098TIP3    H2 9301   4.348   4.135   2.577
 3099TIP3   OH2 9302   0.487   0.896   3.280
 3099TIP3    H1 9303   0.398   0.874   3.255
 3099TIP3    H2 9304   0.499   0.858   3.367
 3100TIP3   OH2 9305   1.993   1.528   1.032
 3100TIP3    H1 9306   2.006   1.545   0.939
 3100TIP3    H2 9307   1.911   1.572   1.053
 3101TIP3   OH2 9308   4.655   0.888   2.216
 3101TIP3    H1 9309   4.568   0.920   2.242
 3101TIP3    H2 9310   4.666   0.807   2.264
 3102TIP3   OH2 9311   2.032   1.559   0.459
 3102TIP3    H1 9312   2.036   1.635   0.401
 3102TIP3    H2 9313   1.940   1.532   0.456
 3103TIP3   OH2 9314   1.475   3.286   0.074
 3103TIP3    H1 9315   1.412   3.215   0.062
 3103TIP3    H2 9316   1.421   3.364   0.085
 3104TIP3   OH2 9317   2.978   0.753   0.896
 3104TIP3    H1 9318   2.887   0.733   0.916
 3104TIP3    H2 9319   3.027   0.678   0.932
 3105TIP3   OH2 9320   3.883   4.861   0.512
 3105TIP3    H1 9321   3.939   4.904   0.577
 3105TIP3    H2 9322   3.806   4.917   0.506
 3106TIP3   OH2 9323   5.254   3.321   1.958
 3106TIP3    H1 9324   5.315   3.323   1.884
 3106TIP3    H2 9325   5.287   3.388   2.017
 3107TIP3   OH2 9326   0.131   4.834   3.057
 3107TIP3    H1 9327   0.150   4.915   3.105
 3107TIP3    H2 9328   0.042   4.810   3.084
 3108TIP3   OH2 9329   5.979   1.487   1.263
 3108TIP3    H1 9330   6.055   1.493   1.320
 3108TIP3    H2 9331   5.998   1.413   1.205
 3109TIP3   OH2 9332   5.397   4.334   2.760
 3109TIP3    H1 9333   5.363   4.415   2.723
 3109TIP3    H2 9334   5.349   4.322   2.842
 3110TIP3   OH2 9335   5.431   5.528   1.695
 3110TIP3    H1 9336   5.454   5.600   1.636
 3110TIP3    H2 9337   5.509   5.516   1.749
 3111TIP3   OH2 9338   4.930   2.391   3.598
 3111TIP3    H1 9339   4.850   2.437   3.624
 3111TIP3    H2 9340   4.904   2.342   3.520
 3112TIP3   OH2 9341   3.434   2.811   2.779
 3112TIP3    H1 9342   3.449   2.873   2.707
 3112TIP3    H2 9343   3.366   2.852   2.832
 3113TIP3   OH2 9344   0.199  -0.020   3.108
 3113TIP3    H1 9345   0.200   0.074   3.088
 3113TIP3    H2 9346   0.220  -0.024   3.201
 3114TIP3   OH2 9347   5.626   5.313   2.975
 3114TIP3    H1 9348   5.552   5.287   3.029
 3114TIP3    H2 9349   5.615   5.265   2.893
 3115TIP3   OH2 9350   2.650   2.904   4.119
 3115TIP3    H1 9351   2.714   2.878   4.186
 3115TIP3    H2 9352   2.627   2.994   4.142
 3116TIP3   OH2 9353   4.202   4.592   4.291
 3116TIP3    H1 9354   4.290   4.614   4.322
 3116TIP3    H2 9355   4.171   4.525   4.351
 3117TIP3   OH2 9356   0.402   2.210   1.194
 3117TIP3    H1 9357   0.337   2.252   1.138
 3117TIP3    H2 9358   0.380   2.239   1.283
 3118TIP3   OH2 9359   1.932   0.944   4.611
 3118TIP3    H1 9360   1.962   0.892   4.536
 3118TIP3    H2 9361   1.857   0.894   4.645
 3119TIP3   OH2 9362   5.597   3.490   1.862
 3119TIP3    H1 9363   5.547   3.419   1.822
 3119TIP3    H2 9364   5.688   3.460   1.859
 3120TIP3   OH2 9365   3.936   5.681   0.007
 3120TIP3    H1 9366   3.895   5.621   0.070
 3120TIP3    H2 9367   3.864   5.739  -0.019
 3121TIP3   OH2 9368   2.390   4.233   1.810
 3121TIP3    H1 9369   2.433   4.245   1.725
 3121TIP3    H2 9370   2.337   4.312   1.822
 3122TIP3   OH2 9371   5.819   3.515   0.773
 3122TIP3    H1 9372   5.746   3.457   0.793
 3122TIP3    H2 9373   5.832   3.565   0.854
 3123TIP3   OH2 9374   5.421   3.547   0.548
 3123TIP3    H1 9375   5.454   3.609   0.613
 3123TIP3    H2 9376   5.450   3.582   0.464
 3124TIP3   OH2 9377   2.219   1.891   4.272
 3124TIP3    H1 9378   2.271   1.857   4.345
 3124TIP3    H2 9379   2.145   1.831   4.266
 3125TIP3   OH2 9380   5.584   0.985   3.197
 3125TIP3    H1 9381   5.569   0.892   3.183
 3125TIP3    H2 9382   5.567   0.998   3.290
 3126TIP3   OH2 9383   2.199   5.335   1.434
 3126TIP3    H1 9384   2.117   5.383   1.421
 3126TIP3    H2 9385   2.217   5.294   1.349
 3127TIP3   OH2 9386   3.941   2.191   2.129
 3127TIP3    H1 9387   3.914   2.279   2.103
 3127TIP3    H2 9388   3.996   2.161   2.056
 3128TIP3   OH2 9389   0.523   5.924   2.132
 3128TIP3    H1 9390   0.516   5.829   2.139
 3128TIP3    H2 9391   0.608   5.938   2.090
 3129TIP3   OH2 9392   5.110   0.902   1.749
 3129TIP3    H1 9393   5.030   0.868   1.708
 3129TIP3    H2 9394   5.162   0.937   1.677
 3130TIP3   OH2 9395   0.633   4.243   3.305
 3130TIP3    H1 9396   0.604   4.177   3.243
 3130TIP3    H2 9397   0.555   4.295   3.325
 3131TIP3   OH2 9398   4.626   1.981   5.169
 3131TIP3    H1 9399   4.597   2.054   5.224
 3131TIP3    H2 9400   4.551   1.962   5.113
 3132TIP3   OH2 9401   2.225   4.859   2.715
 3132TIP3    H1 9402   2.279   4.864   2.637
 3132TIP3    H2 9403   2.256   4.781   2.761
 3133TIP3   OH2 9404   3.826   3.892   0.394
 3133TIP3    H1 9405   3.772   3.948   0.338
 3133TIP3    H2 9406   3.769   3.865   0.465
 3134TIP3   OH2 9407   3.692   2.401   0.170
 3134TIP3    H1 9408   3.692   2.493   0.198
 3134TIP3    H2 9409   3.705   2.405   0.076
 3135TIP3   OH2 9410   1.213   0.345   2.701
 3135TIP3    H1 9411   1.255   0.407   2.642
 3135TIP3    H2 9412   1.225   0.383   2.788
 3136TIP3   OH2 9413   0.601   4.357   1.861
 3136TIP3    H1 9414   0.527   4.378   1.918
 3136TIP3    H2 9415   0.600   4.425   1.794
 3137TIP3   OH2 9416   2.054   4.515   4.775
 3137TIP3    H1 9417   2.001   4.586   4.810
 3137TIP3    H2 9418   2.142   4.552   4.767
 3138TIP3   OH2 9419   3.580   2.047   2.769
 3138TIP3    H1 9420   3.642   2.042   2.842
 3138TIP3    H2 9421   3.495   2.055   2.812
 3139TIP3   OH2 9422   0.323   5.329   5.190
 3139TIP3    H1 9423   0.350   5.353   5.101
 3139TIP3    H2 9424   0.400   5.350   5.244
 3140TIP3   OH2 9425   4.853   3.249   2.114
 3140TIP3    H1 9426   4.798   3.286   2.183
 3140TIP3    H2 9427   4.863   3.157   2.138
 3141TIP3   OH2 9428   1.425   2.940   2.004
 3141TIP3    H1 9429   1.465   3.016   2.045
 3141TIP3    H2 9430   1.497   2.896   1.959
 3142TIP3   OH2 9431   5.194   5.274   3.085
 3142TIP3    H1 9432   5.181   5.180   3.069
 3142TIP3    H2 9433   5.244   5.305   3.009
 3143TIP3   OH2 9434   1.142   2.749   0.332
 3143TIP3    H1 9435   1.055   2.765   0.369
 3143TIP3    H2 9436   1.154   2.654   0.341
 3144TIP3   OH2 9437   5.301   4.879   3.902
 3144TIP3    H1 9438   5.299   4.960   3.851
 3144TIP3    H2 9439   5.347   4.903   3.982
 3145TIP3   OH2 9440   3.177   5.362   1.716
 3145TIP3    H1 9441   3.140   5.279   1.744
 3145TIP3    H2 9442   3.271   5.354   1.734
 3146TIP3   OH2 9443   2.337   3.323   0.063
 3146TIP3    H1 9444   2.354   3.233   0.090
 3146TIP3    H2 9445   2.384   3.377   0.126
 3147TIP3   OH2 9446   3.265   2.428   4.855
 3147TIP3    H1 9447   3.299   2.447   4.943
 3147TIP3    H2 9448   3.191   2.488   4.846
 3148TIP3   OH2 9449   2.015   1.171   0.454
 3148TIP3    H1 9450   1.946   1.214   0.404
 3148TIP3    H2 9451   1.997   1.077   0.444
 3149TIP3   OH2 9452   2.270   5.040   3.547
 3149TIP3    H1 9453   2.319   5.076   3.621
 3149TIP3    H2 9454   2.227   4.962   3.581
 3150TIP3   OH2 9455   0.512   3.173   4.280
 3150TIP3    H1 9456   0.418   3.191   4.288
 3150TIP3    H2 9457   0.539   3.145   4.368
 3151TIP3   OH2 9458   2.169   3.371   2.878
 3151TIP3    H1 9459   2.227   3.388   2.951
 3151TIP3    H2 9460   2.090   3.421   2.897
 3152TIP3   OH2 9461   0.214   3.395   4.123
 3152TIP3    H1 9462   0.247   3.362   4.207
 3152TIP3    H2 9463   0.270   3.470   4.103
 3153TIP3   OH2 9464   4.638   3.251   3.341
 3153TIP3    H1 9465   4.703   3.203   3.291
 3153TIP3    H2 9466   4.620   3.329   3.289
 3154TIP3   OH2 9467   4.998   4.239   5.043
 3154TIP3    H1 9468   5.059   4.287   4.988
 3154TIP3    H2 9469   4.929   4.303   5.063
 3155TIP3   OH2 9470   4.969   2.790   0.275
 3155TIP3    H1 9471   4.890   2.751   0.312
 3155TIP3    H2 9472   4.950   2.800   0.182
 3156TIP3   OH2 9473   5.606   1.809   2.770
 3156TIP3    H1 9474   5.641   1.867   2.837
 3156TIP3    H2 9475   5.682   1.757   2.741
 3157TIP3   OH2 9476   1.776   1.826   3.870
 3157TIP3    H1 9477   1.758   1.795   3.959
 3157TIP3    H2 9478   1.868   1.803   3.855
 3158TIP3   OH2 9479   5.921   5.649   2.489
 3158TIP3    H1 9480   5.939   5.614   2.401
 3158TIP3    H2 9481   5.995   5.708   2.506
 3159TIP3   OH2 9482   3.819   4.270   0.252
 3159TIP3    H1 9483   3.808   4.181   0.219
 3159TIP3    H2 9484   3.887   4.309   0.196
 3160TIP3   OH2 9485   0.394   3.842   0.468
 3160TIP3    H1 9486   0.432   3.913   0.519
 3160TIP3    H2 9487   0.303   3.837   0.497
 3161TIP3   OH2 9488   4.648   3.782   3.484
 3161TIP3    H1 9489   4.730   3.759   3.442
 3161TIP3    H2 9490   4.634   3.875   3.461
 3162TIP3   OH2 9491   0.459   1.114   1.709
 3162TIP3    H1 9492   0.524   1.184   1.722
 3162TIP3    H2 9493   0.512   1.036   1.696
 3163TIP3   OH2 9494   1.887   5.949   2.284
 3163TIP3    H1 9495   1.850   5.909   2.363
 3163TIP3    H2 9496   1.928   5.876   2.238
 3164TIP3   OH2 9497   0.338   2.132   1.714
 3164TIP3    H1 9498   0.290   2.089   1.786
 3164TIP3    H2 9499   0.330   2.225   1.732
 3165TIP3   OH2 9500   2.307   2.402   1.421
 3165TIP3    H1 9501   2.368   2.402   1.495
 3165TIP3    H2 9502   2.331   2.324   1.371
 3166TIP3   OH2 9503   5.004   1.227   3.173
 3166TIP3    H1 9504   5.010   1.304   3.115
 3166TIP3    H2 9505   4.998   1.153   3.113
 3167TIP3   OH2 9506   3.232   2.099   1.523
 3167TIP3    H1 9507   3.227   2.055   1.608
 3167TIP3    H2 9508   3.325   2.097   1.500
 3168TIP3   OH2 9509   1.968   0.578   4.259
 3168TIP3    H1 9510   1.935   0.488   4.260
 3168TIP3    H2 9511   2.036   0.579   4.326
 3169TIP3   OH2 9512   1.560   5.094   3.341
 3169TIP3    H1 9513   1.527   5.022   3.286
 3169TIP3    H2 9514   1.636   5.057   3.385
 3170TIP3   OH2 9515   3.176   6.033   2.899
 3170TIP3    H1 9516   3.169   5.958   2.959
 3170TIP3    H2 9517   3.218   5.997   2.821
 3171TIP3   OH2 9518   5.591   1.727   3.214
 3171TIP3    H1 9519   5.640   1.669   3.273
 3171TIP3    H2 9520   5.590   1.682   3.130
 3172TIP3   OH2 9521   0.913   4.695   4.529
 3172TIP3    H1 9522   0.875   4.608   4.539
 3172TIP3    H2 9523   0.838   4.753   4.518
 3173TIP3   OH2 9524   5.488   5.559   5.043
 3173TIP3    H1 9525   5.502   5.572   5.137
 3173TIP3    H2 9526   5.426   5.629   5.018
 3174TIP3   OH2 9527   0.329   1.639   2.145
 3174TIP3    H1 9528   0.387   1.676   2.212
 3174TIP3    H2 9529   0.385   1.629   2.068
 3175TIP3   OH2 9530   6.193   0.946   0.158
 3175TIP3    H1 9531   6.210   1.011   0.227
 3175TIP3    H2 9532   6.196   0.862   0.204
 3176TIP3   OH2 9533   0.812   1.003   2.488
 3176TIP3    H1 9534   0.869   1.064   2.442
 3176TIP3    H2 9535   0.852   0.917   2.474
 3177TIP3   OH2 9536   3.007   4.327   0.150
 3177TIP3    H1 9537   3.052   4.405   0.119
 3177TIP3    H2 9538   3.076   4.262   0.164
 3178TIP3   OH2 9539   4.749   5.981   3.488
 3178TIP3    H1 9540   4.735   5.923   3.413
 3178TIP3    H2 9541   4.796   6.056   3.452
 3179TIP3   OH2 9542   2.115   5.834   4.737
 3179TIP3    H1 9543   2.190   5.894   4.746
 3179TIP3    H2 9544   2.038   5.889   4.753
 3180TIP3   OH2 9545   0.288   3.147   2.374
 3180TIP3    H1 9546   0.290   3.152   2.470
 3180TIP3    H2 9547   0.280   3.238   2.345
 3181TIP3   OH2 9548   0.066   2.939   3.613
 3181TIP3    H1 9549   0.068   2.858   3.562
 3181TIP3    H2 9550   0.073   3.009   3.548
 3182TIP3   OH2 9551   6.035   4.187   4.982
 3182TIP3    H1 9552   6.112   4.130   4.974
 3182TIP3    H2 9553   6.060   4.249   5.050
 3183TIP3   OH2 9554   1.843   5.492   4.363
 3183TIP3    H1 9555   1.839   5.525   4.452
 3183TIP3    H2 9556   1.927   5.447   4.358
 3184TIP3   OH2 9557   1.432   1.383   0.528
 3184TIP3    H1 9558   1.494   1.311   0.536
 3184TIP3    H2 9559   1.346   1.342   0.531
 3185TIP3   OH2 9560   1.280   0.860   4.817
 3185TIP3    H1 9561   1.362   0.873   4.865
 3185TIP3    H2 9562   1.267   0.942   4.770
 3186TIP3   OH2 9563   6.004   5.406   1.527
 3186TIP3    H1 9564   6.087   5.399   1.481
 3186TIP3    H2 9565   6.026   5.434   1.615
 3187TIP3   OH2 9566   1.081   0.588   1.935
 3187TIP3    H1 9567   1.083   0.643   1.856
 3187TIP3    H2 9568   0.988   0.575   1.953
 3188TIP3   OH2 9569   4.478   1.827   2.452
 3188TIP3    H1 9570   4.461   1.733   2.447
 3188TIP3    H2 9571   4.392   1.867   2.454
 3189TIP3   OH2 9572   1.900   1.337   5.226
 3189TIP3    H1 9573   1.829   1.330   5.162
 3189TIP3    H2 9574   1.966   1.391   5.184
 3190TIP3   OH2 9575   5.301   1.198   2.690
 3190TIP3    H1 9576   5.274   1.200   2.782
 3190TIP3    H2 9577   5.229   1.239   2.643
 3191TIP3   OH2 9578   5.969   5.084   1.330
 3191TIP3    H1 9579   5.935   4.997   1.307
 3191TIP3    H2 9580   5.912   5.144   1.282
 3192TIP3   OH2 9581   4.378   0.569   3.120
 3192TIP3    H1 9582   4.342   0.631   3.057
 3192TIP3    H2 9583   4.461   0.540   3.082
 3193TIP3   OH2 9584   4.716   3.216   4.047
 3193TIP3    H1 9585   4.644   3.264   4.087
 3193TIP3    H2 9586   4.682   3.127   4.037
 3194TIP3   OH2 9587   3.813   0.396   4.136
 3194TIP3    H1 9588   3.773   0.443   4.208
 3194TIP3    H2 9589   3.907   0.397   4.157
 3195TIP3   OH2 9590   5.889   4.420   2.929
 3195TIP3    H1 9591   5.854   4.484   2.991
 3195TIP3    H2 9592   5.960   4.466   2.884
 3196TIP3   OH2 9593   5.479   4.922   4.123
 3196TIP3    H1 9594   5.531   4.995   4.156
 3196TIP3    H2 9595   5.442   4.881   4.201
 3197TIP3   OH2 9596   2.993   1.616   1.372
 3197TIP3    H1 9597   3.066   1.560   1.400
 3197TIP3    H2 9598   3.001   1.695   1.427
 3198TIP3   OH2 9599   3.541   4.387   4.654
 3198TIP3    H1 9600   3.625   4.417   4.620
 3198TIP3    H2 9601   3.478   4.450   4.620
 3199TIP3   OH2 9602   0.149   2.690   1.691
 3199TIP3    H1 9603   0.157   2.751   1.764
 3199TIP3    H2 9604   0.205   2.727   1.622
 3200TIP3   OH2 9605   3.242   1.311   1.207
 3200TIP3    H1 9606   3.323   1.343   1.169
 3200TIP3    H2 9607   3.244   1.216   1.192
 3201TIP3   OH2 9608   6.342   4.079   4.360
 3201TIP3    H1 9609   6.377   4.007   4.413
 3201TIP3    H2 9610   6.326   4.150   4.422
 3202TIP3   OH2 9611   6.295   3.294   3.502
 3202TIP3    H1 9612   6.303   3.371   3.445
 3202TIP3    H2 9613   6.335   3.320   3.585
 3203TIP3   OH2 9614   3.571   5.473   1.376
 3203TIP3    H1 9615   3.494   5.530   1.385
 3203TIP3    H2 9616   3.599   5.455   1.465
 3204TIP3   OH2 9617   0.569   3.708   4.959
 3204TIP3    H1 9618   0.644   3.696   4.901
 3204TIP3    H2 9619   0.528   3.622   4.963
 3205TIP3   OH2 9620   0.286   2.716   4.380
 3205TIP3    H1 9621   0.291   2.643   4.443
 3205TIP3    H2 9622   0.357   2.774   4.407
 3206TIP3   OH2 9623   5.431   4.348   3.188
 3206TIP3    H1 9624   5.477   4.423   3.151
 3206TIP3    H2 9625   5.341   4.356   3.156
 3207TIP3   OH2 9626   2.716   4.431   2.769
 3207TIP3    H1 9627   2.767   4.435   2.688
 3207TIP3    H2 9628   2.776   4.391   2.833
 3208TIP3   OH2 9629   5.406   3.240   0.512
 3208TIP3    H1 9630   5.423   3.330   0.542
 3208TIP3    H2 9631   5.368   3.196   0.588
 3209TIP3   OH2 9632   5.134   2.796   2.238
 3209TIP3    H1 9633   5.112   2.703   2.241
 3209TIP3    H2 9634   5.214   2.799   2.184
 3210TIP3   OH2 9635   6.137   0.869   2.173
 3210TIP3    H1 9636   6.200   0.899   2.108
 3210TIP3    H2 9637   6.161   0.778   2.190
 3211TIP3   OH2 9638   0.646   5.312   1.913
 3211TIP3    H1 9639   0.598   5.302   1.994
 3211TIP3    H2 9640   0.579   5.326   1.846
 3212TIP3   OH2 9641   3.357   2.784   1.954
 3212TIP3    H1 9642   3.329   2.802   1.864
 3212TIP3    H2 9643   3.354   2.688   1.960
 3213TIP3   OH2 9644   0.228   4.704   4.225
 3213TIP3    H1 9645   0.266   4.780   4.181
 3213TIP3    H2 9646   0.151   4.682   4.173
 3214TIP3   OH2 9647   1.327   4.332   0.897
 3214TIP3    H1 9648   1.249   4.355   0.846
 3214TIP3    H2 9649   1.293   4.300   0.980
 3215TIP3   OH2 9650   3.917   0.372   3.610
 3215TIP3    H1 9651   3.985   0.387   3.676
 3215TIP3    H2 9652   3.843   0.425   3.639
 3216TIP3   OH2 9653   2.369   5.117   0.393
 3216TIP3    H1 9654   2.276   5.119   0.414
 3216TIP3    H2 9655   2.377   5.053   0.322
 3217TIP3   OH2 9656   1.524   3.941   4.156
 3217TIP3    H1 9657   1.513   3.850   4.186
 3217TIP3    H2 9658   1.496   3.994   4.230
 3218TIP3   OH2 9659   1.056   3.496   0.940
 3218TIP3    H1 9660   0.968   3.480   0.974
 3218TIP3    H2 9661   1.042   3.543   0.858
 3219TIP3   OH2 9662   2.254   1.528   2.862
 3219TIP3    H1 9663   2.217   1.475   2.933
 3219TIP3    H2 9664   2.315   1.469   2.818
 3220TIP3   OH2 9665   6.234   2.423   1.268
 3220TIP3    H1 9666   6.152   2.446   1.224
 3220TIP3    H2 9667   6.205   2.384   1.351
 3221TIP3   OH2 9668   1.307   5.619   4.536
 3221TIP3    H1 9669   1.371   5.657   4.596
 3221TIP3    H2 9670   1.343   5.634   4.449
 3222TIP3   OH2 9671   4.355   4.256   3.351
 3222TIP3    H1 9672   4.309   4.188   3.304
 3222TIP3    H2 9673   4.302   4.335   3.338
 3223TIP3   OH2 9674   1.650   4.945   3.587
 3223TIP3    H1 9675   1.702   4.909   3.515
 3223TIP3    H2 9676   1.714   4.967   3.654
 3224TIP3   OH2 9677   2.466   3.349   0.327
 3224TIP3    H1 9678   2.548   3.338   0.374
 3224TIP3    H2 9679   2.423   3.423   0.370
 3225TIP3   OH2 9680   6.058   5.242   1.825
 3225TIP3    H1 9681   6.070   5.334   1.803
 3225TIP3    H2 9682   6.100   5.231   1.910
 3226TIP3   OH2 9683   5.962   0.273   1.692
 3226TIP3    H1 9684   6.041   0.229   1.661
 3226TIP3    H2 9685   5.890   0.224   1.652
 3227TIP3   OH2 9686   0.069   2.035   4.593
 3227TIP3    H1 9687   0.101   1.967   4.652
 3227TIP3    H2 9688  -0.004   1.994   4.547
 3228TIP3   OH2 9689   1.165   4.606   4.422
 3228TIP3    H1 9690   1.213   4.643   4.496
 3228TIP3    H2 9691   1.073   4.612   4.447
 3229TIP3   OH2 9692   2.071   1.818   3.582
 3229TIP3    H1 9693   2.134   1.833   3.653
 3229TIP3    H2 9694   2.094   1.883   3.516
 3230TIP3   OH2 9695   4.126   4.308   0.662
 3230TIP3    H1 9696   4.080   4.226   0.676
 3230TIP3    H2 9697   4.219   4.285   0.669
 3231TIP3   OH2 9698   1.022   3.057   2.681
 3231TIP3    H1 9699   1.089   3.120   2.653
 3231TIP3    H2 9700   0.959   3.110   2.730
 3232TIP3   OH2 9701   1.248   5.388   0.783
 3232TIP3    H1 9702   1.218   5.373   0.873
 3232TIP3    H2 9703   1.290   5.307   0.757
 3233TIP3   OH2 9704   0.846   4.459   4.273
 3233TIP3    H1 9705   0.910   4.433   4.207
 3233TIP3    H2 9706   0.876   4.417   4.354
 3234TIP3   OH2 9707   3.867   2.255   3.116
 3234TIP3    H1 9708   3.779   2.292   3.125
 3234TIP3    H2 9709   3.859   2.190   3.047
 3235TIP3   OH2 9710   2.979   2.243   4.943
 3235TIP3    H1 9711   2.888   2.267   4.959
 3235TIP3    H2 9712   2.998   2.275   4.855
 3236TIP3   OH2 9713   0.311   3.734   3.393
 3236TIP3    H1 9714   0.345   3.801   3.453
 3236TIP3    H2 9715   0.305   3.655   3.447
 3237TIP3   OH2 9716   4.387   1.722   4.368
 3237TIP3    H1 9717   4.423   1.708   4.456
 3237TIP3    H2 9718   4.449   1.782   4.326
 3238TIP3   OH2 9719   3.076   0.355   4.967
 3238TIP3    H1 9720   3.123   0.337   5.048
 3238TIP3    H2 9721   3.138   0.333   4.898
 3239TIP3   OH2 9722   2.813   0.184   4.877
 3239TIP3    H1 9723   2.768   0.241   4.814
 3239TIP3    H2 9724   2.836   0.242   4.950
 3240TIP3   OH2 9725   3.035   4.134   1.804
 3240TIP3    H1 9726   3.016   4.122   1.711
 3240TIP3    H2 9727   3.076   4.220   1.810
 3241TIP3   OH2 9728   5.915   0.131   0.081
 3241TIP3    H1 9729   5.897   0.197   0.148
 3241TIP3    H2 9730   5.944   0.054   0.129
 3242TIP3   OH2 9731   1.089   1.295   3.142
 3242TIP3    H1 9732   1.127   1.356   3.206
 3242TIP3    H2 9733   1.147   1.302   3.066
 3243TIP3   OH2 9734   4.363   0.564   3.919
 3243TIP3    H1 9735   4.376   0.635   3.855
 3243TIP3    H2 9736   4.425   0.583   3.989
 3244TIP3   OH2 9737   1.010   4.202   3.470
 3244TIP3    H1 9738   1.047   4.210   3.558
 3244TIP3    H2 9739   1.076   4.152   3.421
 3245TIP3   OH2 9740   3.875   3.279   1.117
 3245TIP3    H1 9741   3.820   3.204   1.137
 3245TIP3    H2 9742   3.816   3.340   1.071
 3246TIP3   OH2 9743   3.529   5.142   0.044
 3246TIP3    H1 9744   3.567   5.185   0.121
 3246TIP3    H2 9745   3.441   5.116   0.072
 3247TIP3   OH2 9746   4.467   0.790   0.858
 3247TIP3    H1 9747   4.450   0.737   0.936
 3247TIP3    H2 9748   4.516   0.731   0.800
 3248TIP3   OH2 9749   0.918   4.622   4.906
 3248TIP3    H1 9750   0.868   4.693   4.866
 3248TIP3    H2 9751   0.871   4.602   4.987
 3249TIP3   OH2 9752   3.023   3.449   3.523
 3249TIP3    H1 9753   2.948   3.435   3.580
 3249TIP3    H2 9754   3.076   3.370   3.533
 3250TIP3   OH2 9755   4.737   0.483   1.124
 3250TIP3    H1 9756   4.675   0.413   1.142
 3250TIP3    H2 9757   4.750   0.479   1.029
 3251TIP3   OH2 9758   0.719   2.323   2.587
 3251TIP3    H1 9759   0.693   2.231   2.577
 3251TIP3    H2 9760   0.767   2.325   2.671
 3252TIP3   OH2 9761   4.148   2.593   0.887
 3252TIP3    H1 9762   4.100   2.546   0.819
 3252TIP3    H2 9763   4.090   2.665   0.913
 3253TIP3   OH2 9764   5.096   5.867   5.092
 3253TIP3    H1 9765   5.022   5.842   5.148
 3253TIP3    H2 9766   5.064   5.942   5.042
 3254TIP3   OH2 9767   0.877   4.714   2.996
 3254TIP3    H1 9768   0.964   4.753   3.005
 3254TIP3    H2 9769   0.890   4.622   3.019
 3255TIP3   OH2 9770   3.573   4.371   0.266
 3255TIP3    H1 9771   3.667   4.366   0.250
 3255TIP3    H2 9772   3.552   4.465   0.260
 3256TIP3   OH2 9773   2.089   0.697   1.622
 3256TIP3    H1 9774   2.075   0.656   1.537
 3256TIP3    H2 9775   2.025   0.655   1.680
 3257TIP3   OH2 9776   3.359   1.226   4.447
 3257TIP3    H1 9777   3.269   1.256   4.433
 3257TIP3    H2 9778   3.413   1.303   4.430
 3258TIP3   OH2 9779   1.860   1.003   2.250
 3258TIP3    H1 9780   1.827   1.071   2.309
 3258TIP3    H2 9781   1.810   0.925   2.273
 3259TIP3   OH2 9782   0.532   1.651   4.123
 3259TIP3    H1 9783   0.448   1.614   4.096
 3259TIP3    H2 9784   0.597   1.587   4.095
 3260TIP3   OH2 9785   0.216   0.317   4.973
 3260TIP3    H1 9786   0.238   0.301   5.065
 3260TIP3    H2 9787   0.123   0.292   4.966
 3261TIP3   OH2 9788   1.167   0.200   3.860
 3261TIP3    H1 9789   1.148   0.215   3.767
 3261TIP3    H2 9790   1.081   0.200   3.902
 3262TIP3   OH2 9791   1.094   1.914   4.612
 3262TIP3    H1 9792   1.111   1.847   4.677
 3262TIP3    H2 9793   1.011   1.953   4.637
 3263TIP3   OH2 9794   5.514   4.556   3.007
 3263TIP3    H1 9795   5.477   4.497   2.942
 3263TIP3    H2 9796   5.505   4.644   2.969
 3264TIP3   OH2 9797   1.921   5.459   2.730
 3264TIP3    H1 9798   1.943   5.540   2.776
 3264TIP3    H2 9799   1.831   5.440   2.757
 3265TIP3   OH2 9800   0.395   4.263   1.053
 3265TIP3    H1 9801   0.387   4.318   1.130
 3265TIP3    H2 9802   0.355   4.314   0.982
 3266TIP3   OH2 9803   0.469   2.605   1.489
 3266TIP3    H1 9804   0.541   2.567   1.438
 3266TIP3    H2 9805   0.415   2.531   1.515
 3267TIP3   OH2 9806   0.524   3.868   3.790
 3267TIP3    H1 9807   0.482   3.787   3.818
 3267TIP3    H2 9808   0.523   3.924   3.867
 3268TIP3   OH2 9809   0.025   2.300   5.024
 3268TIP3    H1 9810   0.101   2.353   5.050
 3268TIP3    H2 9811   0.042   2.214   5.063
 3269TIP3   OH2 9812   4.653   1.225   2.832
 3269TIP3    H1 9813   4.642   1.141   2.877
 3269TIP3    H2 9814   4.569   1.269   2.844
 3270TIP3   OH2 9815   3.600   1.119   4.960
 3270TIP3    H1 9816   3.618   1.025   4.963
 3270TIP3    H2 9817   3.562   1.133   4.874
 3271TIP3   OH2 9818   4.742   4.905   3.141
 3271TIP3    H1 9819   4.779   4.914   3.229
 3271TIP3    H2 9820   4.766   4.985   3.096
 3272TIP3   OH2 9821   1.454   2.277   4.552
 3272TIP3    H1 9822   1.517   2.316   4.613
 3272TIP3    H2 9823   1.380   2.337   4.553
 3273TIP3   OH2 9824   3.740   4.209   0.548
 3273TIP3    H1 9825   3.721   4.187   0.457
 3273TIP3    H2 9826   3.753   4.304   0.548
 3274TIP3   OH2 9827   4.771   1.007   3.154
 3274TIP3    H1 9828   4.848   1.032   3.102
 3274TIP3    H2 9829   4.792   1.034   3.243
 3275TIP3   OH2 9830   4.308   4.795   4.534
 3275TIP3    H1 9831   4.352   4.803   4.618
 3275TIP3    H2 9832   4.219   4.767   4.556
 3276TIP3   OH2 9833   4.076   3.778   0.346
 3276TIP3    H1 9834   4.063   3.711   0.413
 3276TIP3    H2 9835   3.993   3.826   0.343
 3277TIP3   OH2 9836   3.800   1.748   1.451
 3277TIP3    H1 9837   3.716   1.729   1.493
 3277TIP3    H2 9838   3.834   1.663   1.424
 3278TIP3   OH2 9839   4.698   1.809   0.212
 3278TIP3    H1 9840   4.702   1.811   0.116
 3278TIP3    H2 9841   4.779   1.851   0.240
 3279TIP3   OH2 9842   1.953   0.437   3.091
 3279TIP3    H1 9843   1.859   0.419   3.095
 3279TIP3    H2 9844   1.967   0.470   3.002
 3280TIP3   OH2 9845   5.628   3.163   3.152
 3280TIP3    H1 9846   5.708   3.150   3.102
 3280TIP3    H2 9847   5.558   3.158   3.087
 3281TIP3   OH2 9848   0.888   1.308   3.948
 3281TIP3    H1 9849   0.962   1.330   3.891
 3281TIP3    H2 9850   0.884   1.212   3.946
 3282TIP3   OH2 9851   5.736   4.362   3.250
 3282TIP3    H1 9852   5.770   4.426   3.188
 3282TIP3    H2 9853   5.681   4.413   3.309
 3283TIP3   OH2 9854   1.930   5.913   0.596
 3283TIP3    H1 9855   1.977   5.940   0.675
 3283TIP3    H2 9856   1.981   5.839   0.562
 3284TIP3   OH2 9857   1.756   0.186   3.553
 3284TIP3    H1 9858   1.844   0.152   3.567
 3284TIP3    H2 9859   1.698   0.119   3.590
 3285TIP3   OH2 9860   5.761   1.172   3.373
 3285TIP3    H1 9861   5.847   1.130   3.365
 3285TIP3    H2 9862   5.770   1.229   3.449
 3286TIP3   OH2 9863   2.194   1.017   0.987
 3286TIP3    H1 9864   2.236   1.022   0.901
 3286TIP3    H2 9865   2.169   1.108   1.007
 3287TIP3   OH2 9866   3.206   2.840   1.679
 3287TIP3    H1 9867   3.179   2.897   1.607
 3287TIP3    H2 9868   3.124   2.816   1.722
 3288TIP3   OH2 9869   0.809   3.510   1.610
 3288TIP3    H1 9870   0.835   3.426   1.649
 3288TIP3    H2 9871   0.892   3.555   1.594
 3289TIP3   OH2 9872   1.530   0.727   1.947
 3289TIP3    H1 9873   1.570   0.696   2.028
 3289TIP3    H2 9874   1.536   0.653   1.887
 3290TIP3   OH2 9875   5.340   2.499   1.558
 3290TIP3    H1 9876   5.406   2.506   1.627
 3290TIP3    H2 9877   5.390   2.484   1.479
 3291TIP3   OH2 9878   3.474   4.633   0.218
 3291TIP3    H1 9879   3.389   4.671   0.197
 3291TIP3    H2 9880   3.534   4.669   0.153
 3292TIP3   OH2 9881   2.540   1.616   3.329
 3292TIP3    H1 9882   2.542   1.584   3.239
 3292TIP3    H2 9883   2.466   1.571   3.370
 3293TIP3   OH2 9884   3.461   2.693   3.263
 3293TIP3    H1 9885   3.380   2.681   3.213
 3293TIP3    H2 9886   3.456   2.783   3.295
 3294TIP3   OH2 9887   5.010   1.413   1.840
 3294TIP3    H1 9888   4.922   1.391   1.808
 3294TIP3    H2 9889   5.069   1.363   1.784
 3295TIP3   OH2 9890   3.233   4.196   2.382
 3295TIP3    H1 9891   3.191   4.266   2.331
 3295TIP3    H2 9892   3.174   4.122   2.373
 3296TIP3   OH2 9893   0.507   1.503   2.789
 3296TIP3    H1 9894   0.569   1.517   2.717
 3296TIP3    H2 9895   0.425   1.481   2.746
 3297TIP3   OH2 9896   2.126   5.411   5.064
 3297TIP3    H1 9897   2.103   5.473   4.994
 3297TIP3    H2 9898   2.166   5.337   5.018
 3298TIP3   OH2 9899   2.669   0.332   4.289
 3298TIP3    H1 9900   2.750   0.379   4.310
 3298TIP3    H2 9901   2.618   0.394   4.236
 3299TIP3   OH2 9902   2.902   4.923   3.379
 3299TIP3    H1 9903   2.814   4.954   3.360
 3299TIP3    H2 9904   2.956   4.959   3.309
 3300TIP3   OH2 9905   4.476   4.710   4.082
 3300TIP3    H1 9906   4.496   4.660   4.160
 3300TIP3    H2 9907   4.427   4.786   4.114
 3301TIP3   OH2 9908   0.263   3.191   4.419
 3301TIP3    H1 9909   0.265   3.125   4.488
 3301TIP3    H2 9910   0.192   3.163   4.361
 3302TIP3   OH2 9911   5.375   3.916   2.104
 3302TIP3    H1 9912   5.290   3.883   2.075
 3302TIP3    H2 9913   5.390   3.872   2.188
 3303TIP3   OH2 9914   0.972   1.808   4.931
 3303TIP3    H1 9915   0.962   1.734   4.991
 3303TIP3    H2 9916   0.990   1.883   4.987
 3304TIP3   OH2 9917   3.690   2.628   5.202
 3304TIP3    H1 9918   3.706   2.713   5.243
 3304TIP3    H2 9919   3.697   2.645   5.109
 3305TIP3   OH2 9920   1.671   5.054   2.470
 3305TIP3    H1 9921   1.577   5.065   2.486
 3305TIP3    H2 9922   1.686   5.092   2.383
 3306TIP3   OH2 9923   3.499   3.146   3.454
 3306TIP3    H1 9924   3.573   3.194   3.490
 3306TIP3    H2 9925   3.437   3.213   3.426
 3307TIP3   OH2 9926   4.889   5.189   0.471
 3307TIP3    H1 9927   4.951   5.230   0.531
 3307TIP3    H2 9928   4.917   5.219   0.384
 3308TIP3   OH2 9929   4.957   5.092   3.618
 3308TIP3    H1 9930   5.006   5.104   3.700
 3308TIP3    H2 9931   4.870   5.126   3.637
 3309TIP3   OH2 9932   5.516   1.937   3.074
 3309TIP3    H1 9933   5.578   1.874   3.111
 3309TIP3    H2 9934   5.430   1.898   3.088
 3310TIP3   OH2 9935   5.607   5.164   4.181
 3310TIP3    H1 9936   5.608   5.215   4.262
 3310TIP3    H2 9937   5.598   5.229   4.112
 3311TIP3   OH2 9938   6.124   2.846   5.129
 3311TIP3    H1 9939   6.184   2.851   5.054
 3311TIP3    H2 9940   6.126   2.934   5.166
 3312TIP3   OH2 9941   2.347   2.100   0.303
 3312TIP3    H1 9942   2.417   2.152   0.264
 3312TIP3    H2 9943   2.313   2.156   0.373
 3313TIP3   OH2 9944   6.241   5.189   3.364
 3313TIP3    H1 9945   6.313   5.216   3.421
 3313TIP3    H2 9946   6.186   5.267   3.356
 3314TIP3   OH2 9947   4.785   0.672   0.512
 3314TIP3    H1 9948   4.831   0.588   0.510
 3314TIP3    H2 9949   4.837   0.729   0.456
 3315TIP3   OH2 9950   2.836   5.322   2.327
 3315TIP3    H1 9951   2.900   5.288   2.264
 3315TIP3    H2 9952   2.873   5.300   2.412
 3316TIP3   OH2 9953   5.938   3.285   2.703
 3316TIP3    H1 9954   5.849   3.269   2.734
 3316TIP3    H2 9955   5.990   3.293   2.783
 3317TIP3   OH2 9956   3.812   1.550   3.415
 3317TIP3    H1 9957   3.811   1.631   3.363
 3317TIP3    H2 9958   3.892   1.506   3.388
 3318TIP3   OH2 9959   0.022   1.243   0.666
 3318TIP3    H1 9960  -0.050   1.192   0.702
 3318TIP3    H2 9961   0.101   1.204   0.706
 3319TIP3   OH2 9962   1.137   5.343   3.326
 3319TIP3    H1 9963   1.189   5.289   3.385
 3319TIP3    H2 9964   1.164   5.433   3.346
 3320TIP3   OH2 9965   2.425   1.092   4.290
 3320TIP3    H1 9966   2.442   1.141   4.209
 3320TIP3    H2 9967   2.447   1.154   4.360
 3321TIP3   OH2 9968   6.176   2.989   2.047
 3321TIP3    H1 9969   6.182   2.894   2.031
 3321TIP3    H2 9970   6.265   3.014   2.071
 3322TIP3   OH2 9971   1.746   2.849   3.868
 3322TIP3    H1 9972   1.748   2.933   3.913
 3322TIP3    H2 9973   1.826   2.804   3.898
 3323TIP3   OH2 9974   5.899   2.659   3.756
 3323TIP3    H1 9975   5.872   2.581   3.708
 3323TIP3    H2 9976   5.869   2.732   3.702
 3324TIP3   OH2 9977   4.542   4.031   3.368
 3324TIP3    H1 9978   4.459   4.041   3.415
 3324TIP3    H2 9979   4.523   4.060   3.279
 3325TIP3   OH2 9980   3.534   2.468   0.850
 3325TIP3    H1 9981   3.505   2.548   0.893
 3325TIP3    H2 9982   3.502   2.476   0.760
 3326TIP3   OH2 9983   1.554   5.009   4.612
 3326TIP3    H1 9984   1.462   5.000   4.587
 3326TIP3    H2 9985   1.582   4.920   4.635
 3327TIP3   OH2 9986   2.635   2.950   2.213
 3327TIP3    H1 9987   2.708   3.008   2.191
 3327TIP3    H2 9988   2.672   2.862   2.211
 3328TIP3   OH2 9989   5.358   2.434   2.501
 3328TIP3    H1 9990   5.405   2.416   2.582
 3328TIP3    H2 9991   5.379   2.526   2.481
 3329TIP3   OH2 9992   0.701   4.622   0.104
 3329TIP3    H1 9993   0.687   4.713   0.079
 3329TIP3    H2 9994   0.778   4.624   0.162
 3330TIP3   OH2 9995   0.742   5.986   0.537
 3330TIP3    H1 9996   0.790   5.971   0.619
 3330TIP3    H2 9997   0.723   5.898   0.504
 3331TIP3   OH2 9998   2.032   2.817   2.354
 3331TIP3    H1 9999   2.005   2.892   2.299
 3331TIP3    H210000   1.951   2.788   2.396
 3332TIP3   OH210001   0.729   1.560   5.045
 3332TIP3    H110002   0.810   1.604   5.068
 3332TIP3    H210003   0.696   1.609   4.969
 3333TIP3   OH210004   1.678   3.329   4.871
 3333TIP3    H110005   1.746   3.368   4.925
 3333TIP3    H210006   1.693   3.363   4.783
 3334TIP3   OH210007   2.915   1.167   1.783
 3334TIP3    H110008   2.897   1.184   1.690
 3334TIP3    H210009   2.832   1.184   1.827
 3335TIP3   OH210010   4.393   2.835   3.561
 3335TIP3    H110011   4.416   2.919   3.522
 3335TIP3    H210012   4.382   2.776   3.487
 3336TIP3   OH210013   4.234   2.067   1.347
 3336TIP3    H110014   4.248   2.029   1.260
 3336TIP3    H210015   4.246   1.995   1.408
 3337TIP3   OH210016   4.459   5.462   1.985
 3337TIP3    H110017   4.451   5.556   1.969
 3337TIP3    H210018   4.466   5.424   1.897
 3338TIP3   OH210019   0.996   1.886   1.602
 3338TIP3    H110020   0.963   1.862   1.516
 3338TIP3    H210021   1.087   1.857   1.602
 3339TIP3   OH210022   2.380   1.375   4.384
 3339TIP3    H110023   2.467   1.414   4.398
 3339TIP3    H210024   2.352   1.408   4.299
 3340TIP3   OH210025   0.403   0.044   4.873
 3340TIP3    H110026   0.443  -0.043   4.873
 3340TIP3    H210027   0.456   0.094   4.935
 3341TIP3   OH210028   0.303   2.302   0.221
 3341TIP3    H110029   0.327   2.384   0.179
 3341TIP3    H210030   0.271   2.328   0.308
 3342TIP3   OH210031   5.495   4.825   1.930
 3342TIP3    H110032   5.537   4.905   1.899
 3342TIP3    H210033   5.423   4.810   1.869
 3343TIP3   OH210034   3.903   5.649   2.614
 3343TIP3    H110035   3.986   5.697   2.613
 3343TIP3    H210036   3.860   5.677   2.694
 3344TIP3   OH210037   3.929   3.969   0.911
 3344TIP3    H110038   3.989   4.041   0.931
 3344TIP3    H210039   3.849   3.991   0.957
 3345TIP3   OH210040   6.364   4.238   3.582
 3345TIP3    H110041   6.380   4.271   3.493
 3345TIP3    H210042   6.277   4.198   3.577
 3346TIP3   OH210043   6.186   2.795   0.427
 3346TIP3    H110044   6.272   2.796   0.386
 3346TIP3    H210045   6.133   2.855   0.375
 3347TIP3   OH210046   5.530   1.022   3.492
 3347TIP3    H110047   5.618   1.009   3.526
 3347TIP3    H210048   5.527   1.114   3.467
 3348TIP3   OH210049   3.614   2.683   4.243
 3348TIP3    H110050   3.545   2.663   4.307
 3348TIP3    H210051   3.638   2.774   4.260
 3349TIP3   OH210052   4.969   5.002   5.156
 3349TIP3    H110053   4.962   5.085   5.204
 3349TIP3    H210054   5.022   5.024   5.079
 3350TIP3   OH210055   6.027   5.653   4.897
 3350TIP3    H110056   6.050   5.573   4.849
 3350TIP3    H210057   6.107   5.676   4.944
 3351TIP3   OH210058   5.177   4.300   4.783
 3351TIP3    H110059   5.225   4.366   4.733
 3351TIP3    H210060   5.198   4.217   4.740
 3352TIP3   OH210061   2.719   3.449   4.457
 3352TIP3    H110062   2.683   3.521   4.405
 3352TIP3    H210063   2.796   3.421   4.407
 3353TIP3   OH210064   4.571   4.107   2.315
 3353TIP3    H110065   4.642   4.149   2.364
 3353TIP3    H210066   4.537   4.176   2.258
 3354TIP3   OH210067   0.420   5.493   2.545
 3354TIP3    H110068   0.368   5.517   2.621
 3354TIP3    H210069   0.491   5.439   2.580
 3355TIP3   OH210070   0.999   0.323   2.337
 3355TIP3    H110071   1.026   0.231   2.334
 3355TIP3    H210072   1.056   0.366   2.274
 3356TIP3   OH210073   1.975   1.718   2.543
 3356TIP3    H110074   2.069   1.735   2.531
 3356TIP3    H210075   1.971   1.629   2.576
 3357TIP3   OH210076   2.223   5.219   4.225
 3357TIP3    H110077   2.227   5.235   4.131
 3357TIP3    H210078   2.295   5.271   4.261
 3358TIP3   OH210079   3.509   4.437   1.232
 3358TIP3    H110080   3.460   4.517   1.253
 3358TIP3    H210081   3.444   4.367   1.241
 3359TIP3   OH210082   3.785   3.235   3.279
 3359TIP3    H110083   3.744   3.240   3.193
 3359TIP3    H210084   3.736   3.297   3.332
 3360TIP3   OH210085   4.467   2.703   5.057
 3360TIP3    H110086   4.398   2.734   5.116
 3360TIP3    H210087   4.534   2.771   5.061
 3361TIP3   OH210088   4.925   0.401   1.801
 3361TIP3    H110089   4.844   0.358   1.830
 3361TIP3    H210090   4.933   0.477   1.859
 3362TIP3   OH210091   5.309   2.369   4.670
 3362TIP3    H110092   5.292   2.302   4.736
 3362TIP3    H210093   5.314   2.321   4.587
 3363TIP3   OH210094   3.549   1.561   0.759
 3363TIP3    H110095   3.454   1.567   0.767
 3363TIP3    H210096   3.567   1.467   0.758
 3364TIP3   OH210097   1.370   0.000   1.013
 3364TIP3    H110098   1.378   0.054   0.934
 3364TIP3    H210099   1.385   0.061   1.085
 3365TIP3   OH210100   6.042   2.914   0.150
 3365TIP3    H110101   6.100   2.898   0.076
 3365TIP3    H210102   5.976   2.845   0.145
 3366TIP3   OH210103   5.823   4.992   4.282
 3366TIP3    H110104   5.867   4.908   4.269
 3366TIP3    H210105   5.821   5.032   4.195
 3367TIP3   OH210106   0.772   5.936   4.403
 3367TIP3    H110107   0.688   5.910   4.440
 3367TIP3    H210108   0.824   5.964   4.478
 3368TIP3   OH210109   0.080   3.037   2.111
 3368TIP3    H110110   0.099   3.120   2.155
 3368TIP3    H210111   0.135   2.973   2.157
 3369TIP3   OH210112   0.365   2.182   4.945
 3369TIP3    H110113   0.376   2.142   5.031
 3369TIP3    H210114   0.413   2.125   4.885
 3370TIP3   OH210115   0.121   0.433   2.352
 3370TIP3    H110116   0.211   0.402   2.359
 3370TIP3    H210117   0.113   0.501   2.419
 3371TIP3   OH210118   0.043   0.771   5.037
 3371TIP3    H110119  -0.030   0.832   5.042
 3371TIP3    H210120   0.034   0.716   5.114
 3372TIP3   OH210121   5.343   5.282   1.525
 3372TIP3    H110122   5.311   5.323   1.605
 3372TIP3    H210123   5.426   5.325   1.507
 3373TIP3   OH210124   5.228   0.372   3.454
 3373TIP3    H110125   5.147   0.320   3.462
 3373TIP3    H210126   5.199   0.463   3.460
 3374TIP3   OH210127   5.404   2.132   5.070
 3374TIP3    H110128   5.471   2.186   5.029
 3374TIP3    H210129   5.445   2.046   5.082
 3375TIP3   OH210130   3.211   1.402   3.154
 3375TIP3    H110131   3.185   1.493   3.167
 3375TIP3    H210132   3.226   1.369   3.243
 3376TIP3   OH210133   4.486   5.468   1.657
 3376TIP3    H110134   4.506   5.379   1.629
 3376TIP3    H210135   4.451   5.511   1.579
 3377TIP3   OH210136   5.707   5.763   1.808
 3377TIP3    H110137   5.679   5.680   1.770
 3377TIP3    H210138   5.630   5.819   1.803
 3378TIP3   OH210139   3.985   0.476   3.345
 3378TIP3    H110140   4.004   0.391   3.384
 3378TIP3    H210141   3.924   0.457   3.274
 3379TIP3   OH210142   4.840   1.435   3.806
 3379TIP3    H110143   4.745   1.432   3.791
 3379TIP3    H210144   4.877   1.451   3.719
 3380TIP3   OH210145   4.185   4.688   1.662
 3380TIP3    H110146   4.238   4.716   1.737
 3380TIP3    H210147   4.127   4.762   1.644
 3381TIP3   OH210148   3.917   4.208   4.700
 3381TIP3    H110149   3.871   4.206   4.784
 3381TIP3    H210150   3.976   4.133   4.703
 3382TIP3   OH210151   3.524   5.013   5.140
 3382TIP3    H110152   3.588   5.058   5.195
 3382TIP3    H210153   3.459   5.080   5.120
 3383TIP3   OH210154   0.685   3.017   2.449
 3383TIP3    H110155   0.675   3.078   2.522
 3383TIP3    H210156   0.722   3.071   2.378
 3384TIP3   OH210157   0.891   4.494   2.006
 3384TIP3    H110158   0.827   4.523   1.940
 3384TIP3    H210159   0.870   4.401   2.019
 3385TIP3   OH210160   4.774   2.133   0.712
 3385TIP3    H110161   4.772   2.057   0.654
 3385TIP3    H210162   4.715   2.110   0.784
 3386TIP3   OH210163   3.769   1.365   4.711
 3386TIP3    H110164   3.741   1.318   4.789
 3386TIP3    H210165   3.864   1.363   4.715
 3387TIP3   OH210166   0.492   5.226   1.309
 3387TIP3    H110167   0.463   5.166   1.240
 3387TIP3    H210168   0.576   5.260   1.277
 3388TIP3   OH210169   2.101   4.462   0.949
 3388TIP3    H110170   2.191   4.485   0.926
 3388TIP3    H210171   2.092   4.370   0.924
 3389TIP3   OH210172   1.972   4.702   4.217
 3389TIP3    H110173   2.013   4.783   4.186
 3389TIP3    H210174   2.034   4.667   4.280
 3390TIP3   OH210175   1.017   5.399   3.892
 3390TIP3    H110176   0.987   5.441   3.811
 3390TIP3    H210177   1.014   5.306   3.873
 3391TIP3   OH210178   2.544   1.494   2.402
 3391TIP3    H110179   2.532   1.403   2.429
 3391TIP3    H210180   2.631   1.518   2.435
 3392TIP3   OH210181   5.393   3.415   2.327
 3392TIP3    H110182   5.394   3.319   2.318
 3392TIP3    H210183   5.424   3.447   2.242
 3393TIP3   OH210184   2.498   0.180   1.750
 3393TIP3    H110185   2.439   0.238   1.799
 3393TIP3    H210186   2.586   0.212   1.772
 3394TIP3   OH210187   0.658   2.394   2.103
 3394TIP3    H110188   0.691   2.357   2.022
 3394TIP3    H210189   0.608   2.471   2.075
 3395TIP3   OH210190   3.672   0.576   5.063
 3395TIP3    H110191   3.640   0.497   5.106
 3395TIP3    H210192   3.687   0.638   5.134
 3396TIP3   OH210193   1.771   5.804   3.553
 3396TIP3    H110194   1.759   5.892   3.589
 3396TIP3    H210195   1.862   5.801   3.525
 3397TIP3   OH210196   5.930   0.201   4.797
 3397TIP3    H110197   5.894   0.256   4.867
 3397TIP3    H210198   5.873   0.124   4.796
 3398TIP3   OH210199   3.652   3.212   3.016
 3398TIP3    H110200   3.693   3.141   2.967
 3398TIP3    H210201   3.558   3.198   3.005
 3399TIP3   OH210202   0.639   0.847   3.030
 3399TIP3    H110203   0.584   0.872   3.104
 3399TIP3    H210204   0.604   0.764   3.000
 3400TIP3   OH210205   5.112   3.515   4.734
 3400TIP3    H110206   5.056   3.481   4.803
 3400TIP3    H210207   5.059   3.582   4.690
 3401TIP3   OH210208   2.620   1.466   4.464
 3401TIP3    H110209   2.661   1.543   4.503
 3401TIP3    H210210   2.640   1.395   4.525
 3402TIP3   OH210211   1.101   0.078   4.483
 3402TIP3    H110212   1.118  -0.013   4.458
 3402TIP3    H210213   1.091   0.125   4.400
 3403TIP3   OH210214   3.312   1.551   3.970
 3403TIP3    H110215   3.335   1.539   4.062
 3403TIP3    H210216   3.391   1.529   3.922
 3404TIP3   OH210217   2.402   2.396   4.355
 3404TIP3    H110218   2.441   2.420   4.271
 3404TIP3    H210219   2.311   2.376   4.335
 3405TIP3   OH210220   2.639   5.689   3.415
 3405TIP3    H110221   2.726   5.723   3.394
 3405TIP3    H210222   2.619   5.629   3.344
 3406TIP3   OH210223   1.634   3.756   3.345
 3406TIP3    H110224   1.604   3.712   3.425
 3406TIP3    H210225   1.724   3.727   3.334
 3407TIP3   OH210226   3.798   3.060   4.023
 3407TIP3    H110227   3.723   3.120   4.029
 3407TIP3    H210228   3.875   3.117   4.021
 3408TIP3   OH210229   3.709   0.927   2.572
 3408TIP3    H110230   3.668   0.929   2.485
 3408TIP3    H210231   3.666   0.998   2.620
 3409TIP3   OH210232   3.294   5.389   4.051
 3409TIP3    H110233   3.264   5.447   3.981
 3409TIP3    H210234   3.245   5.416   4.128
 3410TIP3   OH210235   6.156   2.016   2.565
 3410TIP3    H110236   6.232   2.037   2.510
 3410TIP3    H210237   6.175   2.057   2.649
 3411TIP3   OH210238   2.965   4.643   0.132
 3411TIP3    H110239   2.920   4.728   0.130
 3411TIP3    H210240   2.911   4.587   0.076
 3412TIP3   OH210241   3.135   3.190   3.516
 3412TIP3    H110242   3.064   3.141   3.477
 3412TIP3    H210243   3.179   3.232   3.442
 3413TIP3   OH210244   1.209   2.240   0.349
 3413TIP3    H110245   1.213   2.198   0.263
 3413TIP3    H210246   1.211   2.167   0.411
 3414TIP3   OH210247   1.815   2.621   0.850
 3414TIP3    H110248   1.829   2.533   0.814
 3414TIP3    H210249   1.790   2.605   0.941
 3415TIP3   OH210250   2.915   1.290   2.281
 3415TIP3    H110251   2.829   1.320   2.250
 3415TIP3    H210252   2.975   1.312   2.210
 3416TIP3   OH210253   0.030   2.038   2.414
 3416TIP3    H110254   0.050   1.946   2.431
 3416TIP3    H210255  -0.012   2.038   2.328
 3417TIP3   OH210256   3.397   0.852   2.769
 3417TIP3    H110257   3.335   0.861   2.696
 3417TIP3    H210258   3.458   0.925   2.758
 3418TIP3   OH210259   4.237   5.176   4.278
 3418TIP3    H110260   4.251   5.240   4.349
 3418TIP3    H210261   4.231   5.092   4.323
 3419TIP3   OH210262   1.398   4.124   2.096
 3419TIP3    H110263   1.348   4.186   2.149
 3419TIP3    H210264   1.391   4.041   2.144
 3420TIP3   OH210265   3.902   5.129   1.787
 3420TIP3    H110266   3.865   5.127   1.699
 3420TIP3    H210267   3.853   5.198   1.832
 3421TIP3   OH210268   1.669   1.708   0.815
 3421TIP3    H110269   1.673   1.625   0.862
 3421TIP3    H210270   1.581   1.711   0.778
 3422TIP3   OH210271   3.617   2.453   1.716
 3422TIP3    H110272   3.588   2.507   1.643
 3422TIP3    H210273   3.701   2.491   1.742
 3423TIP3   OH210274   5.596   5.495   4.814
 3423TIP3    H110275   5.672   5.553   4.802
 3423TIP3    H210276   5.559   5.521   4.898
 3424TIP3   OH210277   1.103   5.470   1.242
 3424TIP3    H110278   1.021   5.486   1.195
 3424TIP3    H210279   1.161   5.433   1.176
 3425TIP3   OH210280   1.660   2.371   3.578
 3425TIP3    H110281   1.637   2.280   3.599
 3425TIP3    H210282   1.610   2.424   3.640
 3426TIP3   OH210283   2.948   0.350   4.664
 3426TIP3    H110284   2.992   0.380   4.744
 3426TIP3    H210285   3.010   0.290   4.623
 3427TIP3   OH210286   5.696   4.895   5.018
 3427TIP3    H110287   5.675   4.983   5.050
 3427TIP3    H210288   5.637   4.882   4.944
 3428TIP3   OH210289   2.887   5.759   2.012
 3428TIP3    H110290   2.916   5.772   1.922
 3428TIP3    H210291   2.823   5.829   2.027
 3429TIP3   OH210292   1.215   0.144   4.715
 3429TIP3    H110293   1.215   0.111   4.625
 3429TIP3    H210294   1.123   0.158   4.736
 3430TIP3   OH210295   2.303   1.478   4.147
 3430TIP3    H110296   2.270   1.424   4.075
 3430TIP3    H210297   2.359   1.543   4.104
 3431TIP3   OH210298   4.708   0.870   2.581
 3431TIP3    H110299   4.746   0.922   2.651
 3431TIP3    H210300   4.690   0.933   2.511
 3432TIP3   OH210301   1.250   4.149   2.620
 3432TIP3    H110302   1.300   4.091   2.563
 3432TIP3    H210303   1.303   4.156   2.699
 3433TIP3   OH210304   3.741   4.322   0.832
 3433TIP3    H110305   3.802   4.388   0.864
 3433TIP3    H210306   3.740   4.334   0.737
 3434TIP3   OH210307   2.661   2.226   4.454
 3434TIP3    H110308   2.610   2.146   4.440
 3434TIP3    H210309   2.596   2.295   4.465
 3435TIP3   OH210310   2.691   4.253   3.695
 3435TIP3    H110311   2.689   4.349   3.701
 3435TIP3    H210312   2.696   4.223   3.785
 3436TIP3   OH210313   1.141   5.006   5.152
 3436TIP3    H110314   1.122   4.934   5.093
 3436TIP3    H210315   1.134   5.085   5.098
 3437TIP3   OH210316   0.477   5.629   1.577
 3437TIP3    H110317   0.563   5.664   1.556
 3437TIP3    H210318   0.437   5.610   1.492
 3438TIP3   OH210319   2.648   2.230   4.751
 3438TIP3    H110320   2.636   2.280   4.670
 3438TIP3    H210321   2.565   2.241   4.798
 3439TIP3   OH210322   6.059   4.538   2.438
 3439TIP3    H110323   6.123   4.579   2.496
 3439TIP3    H210324   6.033   4.607   2.377
 3440TIP3   OH210325   5.218   3.512   3.650
 3440TIP3    H110326   5.254   3.423   3.657
 3440TIP3    H210327   5.248   3.543   3.565
 3441TIP3   OH210328   5.002   3.501   0.540
 3441TIP3    H110329   4.964   3.413   0.535
 3441TIP3    H210330   5.027   3.521   0.450
 3442TIP3   OH210331   1.414   0.258   5.001
 3442TIP3    H110332   1.373   0.174   4.982
 3442TIP3    H210333   1.454   0.285   4.919
 3443TIP3   OH210334   4.921   4.489   2.731
 3443TIP3    H110335   4.914   4.529   2.644
 3443TIP3    H210336   4.832   4.492   2.765
 3444TIP3   OH210337   2.381   2.940   4.003
 3444TIP3    H110338   2.436   2.867   4.032
 3444TIP3    H210339   2.406   3.013   4.060
 3445TIP3   OH210340   4.336   5.854   0.036
 3445TIP3    H110341   4.362   5.813   0.119
 3445TIP3    H210342   4.372   5.943   0.042
 3446TIP3   OH210343   2.248   2.687   3.282
 3446TIP3    H110344   2.300   2.638   3.219
 3446TIP3    H210345   2.301   2.686   3.362
 3447TIP3   OH210346   6.000   2.986   2.499
 3447TIP3    H110347   5.996   3.067   2.449
 3447TIP3    H210348   5.909   2.961   2.512
 3448TIP3   OH210349   0.744   3.540   3.368
 3448TIP3    H110350   0.793   3.579   3.441
 3448TIP3    H210351   0.657   3.578   3.375
 3449TIP3   OH210352   3.673   3.991   3.026
 3449TIP3    H110353   3.641   4.005   3.115
 3449TIP3    H210354   3.634   4.061   2.974
 3450TIP3   OH210355   0.127   2.155   3.325
 3450TIP3    H110356   0.221   2.162   3.344
 3450TIP3    H210357   0.086   2.146   3.411
 3451TIP3   OH210358   1.945   3.666   0.686
 3451TIP3    H110359   1.982   3.723   0.753
 3451TIP3    H210360   1.851   3.672   0.698
 3452TIP3   OH210361   0.075   3.528   0.764
 3452TIP3    H110362   0.049   3.435   0.758
 3452TIP3    H210363   0.162   3.531   0.726
 3453TIP3   OH210364   0.673   2.879   1.911
 3453TIP3    H110365   0.746   2.830   1.949
 3453TIP3    H210366   0.595   2.832   1.941
 3454TIP3   OH210367   3.994   0.575   1.485
 3454TIP3    H110368   4.063   0.632   1.450
 3454TIP3    H210369   3.928   0.572   1.416
 3455TIP3   OH210370   3.104   1.451   5.063
 3455TIP3    H110371   3.155   1.531   5.064
 3455TIP3    H210372   3.166   1.382   5.089
 3456TIP3   OH210373   1.464   3.793   3.923
 3456TIP3    H110374   1.373   3.810   3.899
 3456TIP3    H210375   1.477   3.839   4.006
 3457TIP3   OH210376   3.521   5.449   3.727
 3457TIP3    H110377   3.536   5.541   3.704
 3457TIP3    H210378   3.482   5.452   3.814
 3458TIP3   OH210379   2.885   1.978   1.750
 3458TIP3    H110380   2.886   1.957   1.843
 3458TIP3    H210381   2.866   2.072   1.746
 3459TIP3   OH210382   1.377   5.969   0.553
 3459TIP3    H110383   1.397   5.916   0.631
 3459TIP3    H210384   1.462   5.984   0.512
 3460TIP3   OH210385   1.092   1.646   3.525
 3460TIP3    H110386   1.038   1.590   3.580
 3460TIP3    H210387   1.167   1.670   3.581
 3461TIP3   OH210388   1.180   0.809   3.144
 3461TIP3    H110389   1.122   0.884   3.135
 3461TIP3    H210390   1.158   0.753   3.070
 3462TIP3   OH210391   3.118   2.407   0.393
 3462TIP3    H110392   3.088   2.496   0.412
 3462TIP3    H210393   3.181   2.417   0.322
 3463TIP3   OH210394   4.145   2.906   1.645
 3463TIP3    H110395   4.213   2.955   1.599
 3463TIP3    H210396   4.068   2.912   1.589
 3464TIP3   OH210397   0.835   1.837   3.972
 3464TIP3    H110398   0.884   1.756   3.961
 3464TIP3    H210399   0.755   1.823   3.921
 3465TIP3   OH210400   2.949   5.175   0.357
 3465TIP3    H110401   2.892   5.102   0.332
 3465TIP3    H210402   2.976   5.155   0.447
 3466TIP3   OH210403   2.432   0.945   0.774
 3466TIP3    H110404   2.350   0.905   0.744
 3466TIP3    H210405   2.499   0.911   0.714
 3467TIP3   OH210406   5.636   4.562   4.424
 3467TIP3    H110407   5.668   4.491   4.480
 3467TIP3    H210408   5.597   4.625   4.485
 3468TIP3   OH210409   3.239   5.899   0.427
 3468TIP3    H110410   3.161   5.862   0.386
 3468TIP3    H210411   3.308   5.836   0.409
 3469TIP3   OH210412   1.841   2.213   0.025
 3469TIP3    H110413   1.824   2.201  -0.068
 3469TIP3    H210414   1.758   2.192   0.068
 3470TIP3   OH210415   2.545   1.196   4.050
 3470TIP3    H110416   2.568   1.113   4.007
 3470TIP3    H210417   2.535   1.258   3.977
 3471TIP3   OH210418   3.029   2.628   4.145
 3471TIP3    H110419   2.953   2.607   4.090
 3471TIP3    H210420   3.052   2.718   4.121
 3472TIP3   OH210421   4.885   2.462   4.590
 3472TIP3    H110422   4.884   2.399   4.662
 3472TIP3    H210423   4.969   2.506   4.598
 3473TIP3   OH210424   2.412   5.773   4.839
 3473TIP3    H110425   2.446   5.859   4.814
 3473TIP3    H210426   2.461   5.751   4.918
 3474TIP3   OH210427   5.701   2.896   1.369
 3474TIP3    H110428   5.624   2.864   1.322
 3474TIP3    H210429   5.743   2.957   1.308
 3475TIP3   OH210430   4.122   1.340   2.936
 3475TIP3    H110431   4.166   1.382   3.010
 3475TIP3    H210432   4.034   1.320   2.967
 3476TIP3   OH210433   2.622   1.348   1.252
 3476TIP3    H110434   2.550   1.398   1.291
 3476TIP3    H210435   2.682   1.331   1.325
 3477TIP3   OH210436   1.800   0.742   1.173
 3477TIP3    H110437   1.724   0.690   1.200
 3477TIP3    H210438   1.869   0.677   1.159
 3478TIP3   OH210439   5.571   3.836   0.738
 3478TIP3    H110440   5.646   3.839   0.678
 3478TIP3    H210441   5.598   3.776   0.807
 3479TIP3   OH210442   2.689   2.789   1.862
 3479TIP3    H110443   2.661   2.850   1.794
 3479TIP3    H210444   2.629   2.804   1.935
 3480TIP3   OH210445   4.070   2.601   3.336
 3480TIP3    H110446   4.026   2.685   3.352
 3480TIP3    H210447   4.049   2.549   3.414
 3481TIP3   OH210448   4.884   5.100   4.457
 3481TIP3    H110449   4.791   5.078   4.463
 3481TIP3    H210450   4.921   5.075   4.542
 3482TIP3   OH210451   3.111   4.443   1.813
 3482TIP3    H110452   3.176   4.475   1.876
 3482TIP3    H210453   3.032   4.494   1.832
 3483TIP3   OH210454   4.586   2.050   4.479
 3483TIP3    H110455   4.598   1.993   4.403
 3483TIP3    H210456   4.636   2.129   4.458
 3484TIP3   OH210457   3.453   1.143   4.715
 3484TIP3    H110458   3.444   1.134   4.620
 3484TIP3    H210459   3.452   1.237   4.730
 3485TIP3   OH210460   5.192   1.255   1.269
 3485TIP3    H110461   5.274   1.303   1.257
 3485TIP3    H210462   5.220   1.165   1.286
 3486TIP3   OH210463   4.177   2.137   0.617
 3486TIP3    H110464   4.115   2.189   0.565
 3486TIP3    H210465   4.151   2.154   0.708
 3487TIP3   OH210466   0.832   3.066   4.594
 3487TIP3    H110467   0.834   2.987   4.541
 3487TIP3    H210468   0.769   3.124   4.549
 3488TIP3   OH210469   2.332   5.611   4.635
 3488TIP3    H110470   2.335   5.526   4.678
 3488TIP3    H210471   2.355   5.674   4.703
 3489TIP3   OH210472   2.445   3.115   2.310
 3489TIP3    H110473   2.491   3.053   2.254
 3489TIP3    H210474   2.412   3.182   2.250
 3490TIP3   OH210475   4.467   4.395   0.760
 3490TIP3    H110476   4.551   4.441   0.757
 3490TIP3    H210477   4.437   4.409   0.850
 3491TIP3   OH210478   0.680   2.863   1.052
 3491TIP3    H110479   0.761   2.837   1.008
 3491TIP3    H210480   0.682   2.816   1.135
 3492TIP3   OH210481   3.324   0.693   3.835
 3492TIP3    H110482   3.394   0.711   3.772
 3492TIP3    H210483   3.370   0.685   3.919
 3493TIP3   OH210484   1.200   3.111   2.116
 3493TIP3    H110485   1.242   3.134   2.199
 3493TIP3    H210486   1.113   3.150   2.122
 3494TIP3   OH210487   4.520   1.379   4.505
 3494TIP3    H110488   4.587   1.366   4.573
 3494TIP3    H210489   4.439   1.348   4.544
 3495TIP3   OH210490   3.209   2.931   2.896
 3495TIP3    H110491   3.180   2.955   2.985
 3495TIP3    H210492   3.174   3.001   2.841
 3496TIP3   OH210493   4.510   5.724   5.031
 3496TIP3    H110494   4.517   5.696   4.939
 3496TIP3    H210495   4.416   5.731   5.047
 3497TIP3   OH210496   2.169   0.303   5.019
 3497TIP3    H110497   2.265   0.301   5.015
 3497TIP3    H210498   2.147   0.248   5.094
 3498TIP3   OH210499   2.681   4.928   2.335
 3498TIP3    H110500   2.645   4.988   2.271
 3498TIP3    H210501   2.697   4.847   2.286
 3499TIP3   OH210502   0.851   1.625   0.489
 3499TIP3    H110503   0.937   1.582   0.491
 3499TIP3    H210504   0.842   1.664   0.576
 3500TIP3   OH210505   0.829   3.205   3.408
 3500TIP3    H110506   0.831   3.227   3.315
 3500TIP3    H210507   0.736   3.194   3.428
 3501TIP3   OH210508   2.395   5.953   2.965
 3501TIP3    H110509   2.459   6.022   2.986
 3501TIP3    H210510   2.311   5.989   2.994
 3502TIP3   OH210511   5.924   5.439   0.165
 3502TIP3    H110512   5.988   5.506   0.189
 3502TIP3    H210513   5.864   5.482   0.105
 3503TIP3   OH210514   3.550   4.802   4.622
 3503TIP3    H110515   3.478   4.865   4.622
 3503TIP3    H210516   3.516   4.727   4.671
 3504TIP3   OH210517   4.365   4.902   4.275
 3504TIP3    H110518   4.356   4.908   4.370
 3504TIP3    H210519   4.428   4.971   4.252
 3505TIP3   OH210520   2.262   4.465   2.143
 3505TIP3    H110521   2.300   4.378   2.153
 3505TIP3    H210522   2.284   4.511   2.224
 3506TIP3   OH210523   4.105   2.439   4.186
 3506TIP3    H110524   4.127   2.443   4.093
 3506TIP3    H210525   4.014   2.408   4.188
 3507TIP3   OH210526   2.265   3.833   3.308
 3507TIP3    H110527   2.359   3.826   3.295
 3507TIP3    H210528   2.243   3.759   3.364
 3508TIP3   OH210529   3.938   2.680   0.354
 3508TIP3    H110530   3.993   2.618   0.402
 3508TIP3    H210531   3.898   2.734   0.422
 3509TIP3   OH210532   5.475   4.674   3.882
 3509TIP3    H110533   5.541   4.689   3.950
 3509TIP3    H210534   5.414   4.747   3.892
 3510TIP3   OH210535   4.037   3.376   3.269
 3510TIP3    H110536   4.031   3.456   3.322
 3510TIP3    H210537   3.950   3.336   3.278
 3511TIP3   OH210538   5.573   5.844   4.210
 3511TIP3    H110539   5.639   5.784   4.176
 3511TIP3    H210540   5.617   5.889   4.283
 3512TIP3   OH210541   0.204   0.962   3.405
 3512TIP3    H110542   0.174   0.906   3.476
 3512TIP3    H210543   0.234   0.901   3.337
 3513TIP3   OH210544   1.550   5.586   3.419
 3513TIP3    H110545   1.598   5.592   3.501
 3513TIP3    H210546   1.581   5.506   3.378
 3514TIP3   OH210547   1.119   5.215   4.652
 3514TIP3    H110548   1.187   5.282   4.663
 3514TIP3    H210549   1.085   5.231   4.564
 3515TIP3   OH210550   2.451   4.482   3.581
 3515TIP3    H110551   2.534   4.479   3.629
 3515TIP3    H210552   2.476   4.502   3.491
 3516TIP3   OH210553   4.969   1.064   1.532
 3516TIP3    H110554   4.988   1.116   1.610
 3516TIP3    H210555   4.959   0.974   1.564
 3517TIP3   OH210556   0.033   1.977   1.805
 3517TIP3    H110557   0.030   2.047   1.871
 3517TIP3    H210558   0.086   1.908   1.846
 3518TIP3   OH210559   6.028   0.771   4.095
 3518TIP3    H110560   6.092   0.700   4.087
 3518TIP3    H210561   6.060   0.840   4.038
 3519TIP3   OH210562   3.017   5.122   3.542
 3519TIP3    H110563   2.974   5.206   3.554
 3519TIP3    H210564   2.953   5.069   3.494
 3520TIP3   OH210565   2.319   4.297   1.508
 3520TIP3    H110566   2.413   4.282   1.516
 3520TIP3    H210567   2.312   4.369   1.445
 3521TIP3   OH210568   3.514   4.398   4.955
 3521TIP3    H110569   3.537   4.405   4.862
 3521TIP3    H210570   3.419   4.384   4.955
 3522TIP3   OH210571   2.766   4.650   4.011
 3522TIP3    H110572   2.856   4.656   3.979
 3522TIP3    H210573   2.714   4.635   3.932
 3523TIP3   OH210574   6.394   1.100   0.015
 3523TIP3    H110575   6.352   1.068   0.095
 3523TIP3    H210576   6.355   1.047  -0.055
 3524TIP3   OH210577   4.581   3.442   4.442
 3524TIP3    H110578   4.577   3.475   4.532
 3524TIP3    H210579   4.506   3.383   4.434
 3525TIP3   OH210580   2.025   0.723   2.672
 3525TIP3    H110581   1.975   0.801   2.649
 3525TIP3    H210582   2.099   0.756   2.723
 3526TIP3   OH210583   1.344   5.155   1.186
 3526TIP3    H110584   1.346   5.186   1.276
 3526TIP3    H210585   1.436   5.139   1.164
 3527TIP3   OH210586   0.476   2.953   2.248
 3527TIP3    H110587   0.408   3.007   2.289
 3527TIP3    H210588   0.558   2.992   2.278
 3528TIP3   OH210589   2.511   0.557   0.662
 3528TIP3    H110590   2.536   0.643   0.626
 3528TIP3    H210591   2.579   0.498   0.633
 3529TIP3   OH210592   5.274   4.541   0.330
 3529TIP3    H110593   5.200   4.581   0.285
 3529TIP3    H210594   5.351   4.574   0.283
 3530TIP3   OH210595   3.903   2.279   1.775
 3530TIP3    H110596   3.934   2.194   1.745
 3530TIP3    H210597   3.822   2.294   1.725
 3531TIP3   OH210598   2.046   3.312   3.404
 3531TIP3    H110599   1.965   3.364   3.404
 3531TIP3    H210600   2.057   3.285   3.495
 3532TIP3   OH210601   5.756   5.969   4.372
 3532TIP3    H110602   5.817   6.042   4.376
 3532TIP3    H210603   5.801   5.897   4.415
 3533TIP3   OH210604   3.606   1.611   2.903
 3533TIP3    H110605   3.694   1.586   2.875
 3533TIP3    H210606   3.619   1.652   2.989
 3534TIP3   OH210607   5.247   4.045   1.036
 3534TIP3    H110608   5.160   4.058   1.075
 3534TIP3    H210609   5.231   4.054   0.942
 3535TIP3   OH210610   4.539   1.873   3.214
 3535TIP3    H110611   4.557   1.949   3.269
 3535TIP3    H210612   4.535   1.908   3.125
 3536TIP3   OH210613   5.154   5.805   0.495
 3536TIP3    H110614   5.226   5.834   0.440
 3536TIP3    H210615   5.103   5.746   0.439
 3537TIP3   OH210616   3.285   5.211   3.267
 3537TIP3    H110617   3.277   5.306   3.263
 3537TIP3    H210618   3.354   5.196   3.332
 3538TIP3   OH210619   0.415   4.399   0.376
 3538TIP3    H110620   0.372   4.438   0.452
 3538TIP3    H210621   0.490   4.352   0.412
 3539TIP3   OH210622   5.214   5.894   1.170
 3539TIP3    H110623   5.192   5.959   1.237
 3539TIP3    H210624   5.138   5.837   1.165
 3540TIP3   OH210625   1.595   3.197   1.795
 3540TIP3    H110626   1.581   3.117   1.744
 3540TIP3    H210627   1.507   3.228   1.815
 3541TIP3   OH210628   4.635   5.760   1.278
 3541TIP3    H110629   4.695   5.686   1.286
 3541TIP3    H210630   4.655   5.798   1.192
 3542TIP3   OH210631   4.022   2.288   0.443
 3542TIP3    H110632   4.041   2.234   0.366
 3542TIP3    H210633   3.927   2.290   0.449
 3543TIP3   OH210634   2.687   0.819   5.152
 3543TIP3    H110635   2.663   0.739   5.104
 3543TIP3    H210636   2.605   0.848   5.192
 3544TIP3   OH210637   5.351   2.179   1.048
 3544TIP3    H110638   5.293   2.104   1.059
 3544TIP3    H210639   5.331   2.236   1.123
 3545TIP3   OH210640   5.114   3.719   2.120
 3545TIP3    H110641   5.099   3.768   2.201
 3545TIP3    H210642   5.031   3.675   2.102
 3546TIP3   OH210643   4.438   4.530   3.871
 3546TIP3    H110644   4.415   4.576   3.951
 3546TIP3    H210645   4.484   4.595   3.818
 3547TIP3   OH210646   4.660   3.080   1.363
 3547TIP3    H110647   4.719   3.093   1.288
 3547TIP3    H210648   4.686   3.148   1.425
 3548TIP3   OH210649   3.614   3.781   4.996
 3548TIP3    H110650   3.709   3.779   4.990
 3548TIP3    H210651   3.595   3.749   5.084
 3549TIP3   OH210652   5.236   0.661   0.736
 3549TIP3    H110653   5.170   0.658   0.667
 3549TIP3    H210654   5.188   0.641   0.816
 3550TIP3   OH210655   3.453   3.686   1.796
 3550TIP3    H110656   3.486   3.754   1.737
 3550TIP3    H210657   3.484   3.604   1.758
 3551TIP3   OH210658   0.999   5.925   4.184
 3551TIP3    H110659   1.003   5.984   4.109
 3551TIP3    H210660   1.083   5.879   4.182
 3552TIP3   OH210661   3.086   2.170   5.213
 3552TIP3    H110662   3.051   2.158   5.124
 3552TIP3    H210663   3.073   2.085   5.255
 3553TIP3   OH210664   1.505   5.830   3.303
 3553TIP3    H110665   1.482   5.909   3.351
 3553TIP3    H210666   1.546   5.773   3.368
 3554TIP3   OH210667   4.251   3.841   3.583
 3554TIP3    H110668   4.185   3.882   3.527
 3554TIP3    H210669   4.318   3.908   3.595
 3555TIP3   OH210670   1.756   2.564   1.106
 3555TIP3    H110671   1.726   2.478   1.138
 3555TIP3    H210672   1.821   2.591   1.170
 3556TIP3   OH210673   0.089   4.201   0.710
 3556TIP3    H110674   0.180   4.179   0.687
 3556TIP3    H210675   0.076   4.289   0.673
 3557TIP3   OH210676   4.201   5.778   3.325
 3557TIP3    H110677   4.296   5.791   3.323
 3557TIP3    H210678   4.170   5.817   3.244
 3558TIP3   OH210679   1.094   0.437   4.602
 3558TIP3    H110680   1.162   0.490   4.642
 3558TIP3    H210681   1.071   0.372   4.669
 3559TIP3   OH210682   4.752   5.256   5.099
 3559TIP3    H110683   4.783   5.165   5.092
 3559TIP3    H210684   4.682   5.252   5.164
 3560TIP3   OH210685   4.435   3.735   3.141
 3560TIP3    H110686   4.363   3.758   3.200
 3560TIP3    H210687   4.411   3.775   3.057
 3561TIP3   OH210688   1.211   1.862   4.125
 3561TIP3    H110689   1.158   1.878   4.047
 3561TIP3    H210690   1.301   1.867   4.094
 3562TIP3   OH210691   1.356   2.057   2.255
 3562TIP3    H110692   1.274   2.071   2.302
 3562TIP3    H210693   1.418   2.029   2.323
 3563TIP3   OH210694   5.851   3.390   0.103
 3563TIP3    H110695   5.755   3.385   0.104
 3563TIP3    H210696   5.879   3.299   0.108
 3564TIP3   OH210697   6.087   4.601   4.216
 3564TIP3    H110698   6.001   4.608   4.258
 3564TIP3    H210699   6.101   4.507   4.207
 3565TIP3   OH210700   5.468   1.948   3.518
 3565TIP3    H110701   5.450   2.036   3.486
 3565TIP3    H210702   5.494   1.898   3.440
 3566TIP3   OH210703   6.081   2.851   3.527
 3566TIP3    H110704   5.988   2.828   3.527
 3566TIP3    H210705   6.085   2.936   3.483
 3567TIP3   OH210706   5.091   2.511   2.269
 3567TIP3    H110707   5.135   2.480   2.348
 3567TIP3    H210708   5.091   2.436   2.211
 3568TIP3   OH210709   3.818   4.694   1.378
 3568TIP3    H110710   3.802   4.611   1.333
 3568TIP3    H210711   3.912   4.709   1.366
 3569TIP3   OH210712   4.625   5.003   4.751
 3569TIP3    H110713   4.602   5.075   4.810
 3569TIP3    H210714   4.613   4.924   4.803
 3570TIP3   OH210715   3.874   2.891   0.530
 3570TIP3    H110716   3.834   2.954   0.470
 3570TIP3    H210717   3.943   2.940   0.574
 3571TIP3   OH210718   2.712   3.908   0.922
 3571TIP3    H110719   2.675   3.905   1.010
 3571TIP3    H210720   2.757   3.993   0.918
 3572TIP3   OH210721   0.151   4.966   1.672
 3572TIP3    H110722   0.181   4.876   1.686
 3572TIP3    H210723   0.092   4.985   1.744
 3573TIP3   OH210724   4.578   0.608   0.124
 3573TIP3    H110725   4.530   0.681   0.164
 3573TIP3    H210726   4.510   0.553   0.086
 3574TIP3   OH210727   4.587   4.985   0.506
 3574TIP3    H110728   4.520   5.043   0.542
 3574TIP3    H210729   4.545   4.899   0.504
 3575TIP3   OH210730   2.031   5.744   3.469
 3575TIP3    H110731   2.072   5.751   3.383
 3575TIP3    H210732   2.090   5.792   3.527
 3576TIP3   OH210733   0.974   0.546   0.147
 3576TIP3    H110734   0.942   0.621   0.096
 3576TIP3    H210735   0.895   0.506   0.182
 3577TIP3   OH210736   2.557   0.920   4.855
 3577TIP3    H110737   2.642   0.963   4.865
 3577TIP3    H210738   2.508   0.946   4.934
 3578TIP3   OH210739   5.911   0.875   2.846
 3578TIP3    H110740   5.869   0.807   2.793
 3578TIP3    H210741   5.943   0.938   2.782
 3579TIP3   OH210742   3.465   4.680   0.638
 3579TIP3    H110743   3.518   4.679   0.718
 3579TIP3    H210744   3.520   4.724   0.573
 3580TIP3   OH210745   5.226   2.911   4.632
 3580TIP3    H110746   5.131   2.907   4.627
 3580TIP3    H210747   5.245   2.958   4.712
 3581TIP3   OH210748   3.920   4.834   2.907
 3581TIP3    H110749   3.899   4.926   2.922
 3581TIP3    H210750   3.994   4.816   2.965
 3582TIP3   OH210751   4.977   2.193   5.225
 3582TIP3    H110752   4.952   2.157   5.140
 3582TIP3    H210753   5.022   2.275   5.204
 3583TIP3   OH210754   0.793   1.872   2.182
 3583TIP3    H110755   0.884   1.860   2.157
 3583TIP3    H210756   0.792   1.860   2.277
 3584TIP3   OH210757   5.690   1.540   3.387
 3584TIP3    H110758   5.765   1.537   3.327
 3584TIP3    H210759   5.728   1.532   3.474
 3585TIP3   OH210760   3.675   5.277   3.599
 3585TIP3    H110761   3.608   5.248   3.538
 3585TIP3    H210762   3.629   5.335   3.659
 3586TIP3   OH210763   2.256   2.792   1.068
 3586TIP3    H110764   2.198   2.740   1.012
 3586TIP3    H210765   2.267   2.875   1.022
 3587TIP3   OH210766   5.912   2.305   1.245
 3587TIP3    H110767   5.831   2.291   1.293
 3587TIP3    H210768   5.904   2.395   1.212
 3588TIP3   OH210769   2.444   1.554   3.731
 3588TIP3    H110770   2.453   1.470   3.777
 3588TIP3    H210771   2.452   1.532   3.639
 3589TIP3   OH210772   4.438   2.280   3.657
 3589TIP3    H110773   4.452   2.318   3.571
 3589TIP3    H210774   4.512   2.221   3.669
 3590TIP3   OH210775   2.295   5.854   2.144
 3590TIP3    H110776   2.384   5.827   2.120
 3590TIP3    H210777   2.242   5.832   2.067
 3591TIP3   OH210778   1.532   3.628   3.566
 3591TIP3    H110779   1.439   3.611   3.553
 3591TIP3    H210780   1.571   3.541   3.576
 3592TIP3   OH210781   1.777   2.483   4.095
 3592TIP3    H110782   1.830   2.414   4.134
 3592TIP3    H210783   1.841   2.541   4.053
 3593TIP3   OH210784   0.548   5.624   1.935
 3593TIP3    H110785   0.516   5.542   1.899
 3593TIP3    H210786   0.615   5.653   1.874
 3594TIP3   OH210787   3.928   4.625   2.374
 3594TIP3    H110788   3.963   4.702   2.330
 3594TIP3    H210789   3.835   4.624   2.350
 3595TIP3   OH210790   0.397   1.691   0.551
 3595TIP3    H110791   0.304   1.712   0.538
 3595TIP3    H210792   0.398   1.625   0.620
 3596TIP3   OH210793   5.911   4.954   0.579
 3596TIP3    H110794   5.970   5.026   0.559
 3596TIP3    H210795   5.898   4.958   0.673
 3597TIP3   OH210796   5.340   3.569   3.399
 3597TIP3    H110797   5.407   3.523   3.449
 3597TIP3    H210798   5.340   3.524   3.314
 3598TIP3   OH210799   0.416   2.058   3.685
 3598TIP3    H110800   0.469   2.124   3.730
 3598TIP3    H210801   0.377   2.007   3.756
 3599TIP3   OH210802   5.124   5.415   4.788
 3599TIP3    H110803   5.207   5.368   4.781
 3599TIP3    H210804   5.091   5.421   4.699
 3600TIP3   OH210805   0.054   5.031   2.262
 3600TIP3    H110806  -0.040   5.023   2.244
 3600TIP3    H210807   0.090   5.066   2.181
 3601TIP3   OH210808   2.871   5.242   2.784
 3601TIP3    H110809   2.916   5.181   2.843
 3601TIP3    H210810   2.796   5.192   2.752
 3602TIP3   OH210811   1.247   2.501   3.485
 3602TIP3    H110812   1.317   2.564   3.496
 3602TIP3    H210813   1.189   2.540   3.420
 3603TIP3   OH210814   4.472   3.278   2.727
 3603TIP3    H110815   4.419   3.215   2.776
 3603TIP3    H210816   4.499   3.343   2.792
 3604TIP3   OH210817   0.295   1.811   3.860
 3604TIP3    H110818   0.327   1.790   3.947
 3604TIP3    H210819   0.215   1.862   3.875
 3605TIP3   OH210820   1.102   1.856   1.330
 3605TIP3    H110821   1.114   1.937   1.381
 3605TIP3    H210822   1.043   1.882   1.260
 3606TIP3   OH210823   3.198   3.404   2.960
 3606TIP3    H110824   3.136   3.398   2.888
 3606TIP3    H210825   3.200   3.496   2.983
 3607TIP3   OH210826   5.587   4.440   0.983
 3607TIP3    H110827   5.623   4.406   0.901
 3607TIP3    H210828   5.522   4.375   1.009
 3608TIP3   OH210829   5.122   0.767   3.738
 3608TIP3    H110830   5.193   0.822   3.706
 3608TIP3    H210831   5.111   0.794   3.829
 3609TIP3   OH210832   0.271   4.760   2.845
 3609TIP3    H110833   0.203   4.767   2.912
 3609TIP3    H210834   0.337   4.824   2.871
 3610TIP3   OH210835   2.738   5.571   2.186
 3610TIP3    H110836   2.778   5.499   2.235
 3610TIP3    H210837   2.788   5.576   2.105
 3611TIP3   OH210838   2.104   5.827   4.015
 3611TIP3    H110839   2.155   5.908   4.013
 3611TIP3    H210840   2.017   5.853   4.043
 3612TIP3   OH210841   0.558   0.271   3.725
 3612TIP3    H110842   0.518   0.344   3.678
 3612TIP3    H210843   0.601   0.219   3.658
 3613TIP3   OH210844   1.853   3.957   2.348
 3613TIP3    H110845   1.893   3.907   2.276
 3613TIP3    H210846   1.785   4.009   2.306
 3614TIP3   OH210847   2.235   5.180   2.784
 3614TIP3    H110848   2.175   5.111   2.811
 3614TIP3    H210849   2.244   5.236   2.861
 3615TIP3   OH210850   2.113   2.673   2.085
 3615TIP3    H110851   2.090   2.639   1.999
 3615TIP3    H210852   2.035   2.657   2.139
 3616TIP3   OH210853   1.943   4.591   4.491
 3616TIP3    H110854   1.951   4.498   4.470
 3616TIP3    H210855   2.032   4.618   4.515
 3617TIP3   OH210856   0.216   1.326   2.057
 3617TIP3    H110857   0.179   1.290   1.976
 3617TIP3    H210858   0.241   1.415   2.033
 3618TIP3   OH210859   5.760   5.288   1.587
 3618TIP3    H110860   5.842   5.336   1.580
 3618TIP3    H210861   5.784   5.204   1.625
 3619TIP3   OH210862   3.687   2.033   4.981
 3619TIP3    H110863   3.740   1.958   4.955
 3619TIP3    H210864   3.729   2.065   5.062
 3620TIP3   OH210865   5.520   4.123   4.572
 3620TIP3    H110866   5.592   4.059   4.571
 3620TIP3    H210867   5.561   4.204   4.541
 3621TIP3   OH210868   3.985   4.962   1.113
 3621TIP3    H110869   3.990   4.895   1.181
 3621TIP3    H210870   4.064   5.015   1.126
 3622TIP3   OH210871   0.943   3.498   2.604
 3622TIP3    H110872   0.861   3.540   2.581
 3622TIP3    H210873   0.945   3.500   2.700
 3623TIP3   OH210874   1.621   5.317   4.389
 3623TIP3    H110875   1.563   5.282   4.322
 3623TIP3    H210876   1.695   5.354   4.341
 3624TIP3   OH210877   0.495   1.201   0.663
 3624TIP3    H110878   0.457   1.174   0.580
 3624TIP3    H210879   0.589   1.185   0.653
 3625TIP3   OH210880   2.466   3.855   2.917
 3625TIP3    H110881   2.548   3.860   2.967
 3625TIP3    H210882   2.420   3.780   2.954
 3626TIP3   OH210883   5.797   3.291   5.167
 3626TIP3    H110884   5.720   3.252   5.127
 3626TIP3    H210885   5.852   3.217   5.192
 3627TIP3   OH210886   1.482   1.330   1.878
 3627TIP3    H110887   1.565   1.303   1.919
 3627TIP3    H210888   1.434   1.374   1.949
 3628TIP3   OH210889   2.241   0.662   2.031
 3628TIP3    H110890   2.179   0.594   2.056
 3628TIP3    H210891   2.310   0.656   2.097
 3629TIP3   OH210892   2.203   4.346   3.280
 3629TIP3    H110893   2.284   4.295   3.273
 3629TIP3    H210894   2.191   4.384   3.193
 3630TIP3   OH210895   5.379   4.810   3.350
 3630TIP3    H110896   5.332   4.764   3.281
 3630TIP3    H210897   5.377   4.750   3.425
 3631TIP3   OH210898   0.625   1.230   1.442
 3631TIP3    H110899   0.686   1.227   1.516
 3631TIP3    H210900   0.631   1.320   1.410
 3632TIP3   OH210901   4.735   5.874   1.044
 3632TIP3    H110902   4.792   5.951   1.039
 3632TIP3    H210903   4.790   5.801   1.016
 3633TIP3   OH210904   6.030   1.116   3.385
 3633TIP3    H110905   6.095   1.187   3.382
 3633TIP3    H210906   6.081   1.036   3.371
 3634TIP3   OH210907   6.066   0.458   2.639
 3634TIP3    H110908   6.011   0.382   2.620
 3634TIP3    H210909   6.085   0.451   2.732
 3635TIP3   OH210910   1.359   0.510   0.699
 3635TIP3    H110911   1.379   0.438   0.638
 3635TIP3    H210912   1.274   0.486   0.736
 3636TIP3   OH210913   1.342   4.635   0.667
 3636TIP3    H110914   1.304   4.557   0.627
 3636TIP3    H210915   1.344   4.699   0.596
 3637TIP3   OH210916   4.559   3.675   1.918
 3637TIP3    H110917   4.618   3.716   1.855
 3637TIP3    H210918   4.564   3.581   1.897
 3638TIP3   OH210919   2.233   1.184   0.606
 3638TIP3    H110920   2.166   1.172   0.538
 3638TIP3    H210921   2.229   1.103   0.657
 3639TIP3   OH210922   0.641   4.218   1.217
 3639TIP3    H110923   0.593   4.206   1.135
 3639TIP3    H210924   0.613   4.303   1.250
 3640TIP3   OH210925   5.566   1.721   4.213
 3640TIP3    H110926   5.610   1.713   4.298
 3640TIP3    H210927   5.608   1.656   4.157
 3641TIP3   OH210928   0.462   5.499   3.805
 3641TIP3    H110929   0.464   5.412   3.844
 3641TIP3    H210930   0.445   5.483   3.712
 3642TIP3   OH210931   2.078   1.972   2.341
 3642TIP3    H110932   2.174   1.977   2.345
 3642TIP3    H210933   2.060   1.918   2.264
 3643TIP3   OH210934   2.717   5.520   0.648
 3643TIP3    H110935   2.708   5.590   0.584
 3643TIP3    H210936   2.781   5.552   0.712
 3644TIP3   OH210937   5.416   3.886   2.384
 3644TIP3    H110938   5.504   3.897   2.420
 3644TIP3    H210939   5.367   3.962   2.416
 3645TIP3   OH210940   4.400   2.700   4.794
 3645TIP3    H110941   4.410   2.680   4.888
 3645TIP3    H210942   4.376   2.792   4.791
 3646TIP3   OH210943   3.871   4.784   2.641
 3646TIP3    H110944   3.956   4.742   2.626
 3646TIP3    H210945   3.873   4.809   2.733
 3647TIP3   OH210946   4.567   0.086   0.809
 3647TIP3    H110947   4.646   0.083   0.755
 3647TIP3    H210948   4.597   0.068   0.898
 3648TIP3   OH210949   4.875   2.570   0.873
 3648TIP3    H110950   4.944   2.508   0.850
 3648TIP3    H210951   4.875   2.634   0.802
 3649TIP3   OH210952   4.417   5.891   2.813
 3649TIP3    H110953   4.456   5.868   2.897
 3649TIP3    H210954   4.378   5.977   2.827
 3650TIP3   OH210955   0.064   5.201   4.783
 3650TIP3    H110956   0.030   5.270   4.840
 3650TIP3    H210957  -0.005   5.190   4.717
 3651TIP3   OH210958   0.546   3.559   1.740
 3651TIP3    H110959   0.639   3.546   1.760
 3651TIP3    H210960   0.544   3.572   1.645
 3652TIP3   OH210961   0.417   2.576   2.241
 3652TIP3    H110962   0.469   2.582   2.321
 3652TIP3    H210963   0.326   2.586   2.270
 3653TIP3   OH210964   4.410   5.919   0.634
 3653TIP3    H110965   4.333   5.874   0.598
 3653TIP3    H210966   4.379   5.956   0.717
 3654TIP3   OH210967   4.082   0.048   3.322
 3654TIP3    H110968   4.135   0.111   3.372
 3654TIP3    H210969   4.129  -0.035   3.332
 3655TIP3   OH210970   3.557   0.839   4.946
 3655TIP3    H110971   3.518   0.755   4.972
 3655TIP3    H210972   3.583   0.825   4.855
 3656TIP3   OH210973   1.521   0.142   1.968
 3656TIP3    H110974   1.441   0.195   1.970
 3656TIP3    H210975   1.523   0.104   1.881
 3657TIP3   OH210976   6.145   5.618   0.722
 3657TIP3    H110977   6.073   5.597   0.662
 3657TIP3    H210978   6.102   5.654   0.799
 3658TIP3   OH210979   6.027   4.678   1.637
 3658TIP3    H110980   6.117   4.646   1.647
 3658TIP3    H210981   5.980   4.603   1.600
 3659TIP3   OH210982   4.698   0.354   1.458
 3659TIP3    H110983   4.672   0.309   1.539
 3659TIP3    H210984   4.670   0.295   1.388
 3660TIP3   OH210985   0.583   0.063   1.910
 3660TIP3    H110986   0.638  -0.001   1.955
 3660TIP3    H210987   0.494   0.040   1.935
 3661TIP3   OH210988   5.063   5.280   2.482
 3661TIP3    H110989   4.991   5.216   2.476
 3661TIP3    H210990   5.030   5.347   2.541
 3662TIP3   OH210991   4.106   1.233   2.322
 3662TIP3    H110992   4.092   1.212   2.414
 3662TIP3    H210993   4.197   1.263   2.317
 3663TIP3   OH210994   1.613   5.834   3.907
 3663TIP3    H110995   1.697   5.809   3.870
 3663TIP3    H210996   1.559   5.756   3.900
 3664TIP3   OH210997   5.452   5.253   2.083
 3664TIP3    H110998   5.443   5.262   2.178
 3664TIP3    H210999   5.362   5.263   2.050
 3665TIP3   OH211000   4.671   1.114   0.654
 3665TIP3    H111001   4.733   1.100   0.583
 3665TIP3    H211002   4.696   1.049   0.721
 3666TIP3   OH211003   3.182   0.267   4.220
 3666TIP3    H111004   3.142   0.316   4.147
 3666TIP3    H211005   3.275   0.265   4.198
 3667TIP3   OH211006   3.040   2.398   3.632
 3667TIP3    H111007   3.108   2.331   3.642
 3667TIP3    H211008   2.974   2.375   3.698
 3668TIP3   OH211009   1.871   0.633   1.843
 3668TIP3    H111010   1.855   0.698   1.912
 3668TIP3    H211011   1.787   0.590   1.831
 3669TIP3   OH211012   3.692   4.073   4.608
 3669TIP3    H111013   3.667   4.008   4.674
 3669TIP3    H211014   3.770   4.115   4.644
 3670TIP3   OH211015   1.777   1.527   4.312
 3670TIP3    H111016   1.836   1.521   4.387
 3670TIP3    H211017   1.712   1.457   4.326
 3671TIP3   OH211018   6.278   1.525   2.050
 3671TIP3    H111019   6.192   1.484   2.061
 3671TIP3    H211020   6.296   1.520   1.956
 3672TIP3   OH211021   0.841   0.505   5.209
 3672TIP3    H111022   0.787   0.499   5.130
 3672TIP3    H211023   0.785   0.473   5.280
 3673TIP3   OH211024   2.264   0.183   1.909
 3673TIP3    H111025   2.180   0.164   1.951
 3673TIP3    H211026   2.256   0.146   1.821
 3674TIP3   OH211027   0.901   1.889   0.410
 3674TIP3    H111028   0.864   1.803   0.428
 3674TIP3    H211029   0.875   1.943   0.485
 3675TIP3   OH211030   2.893   2.791   1.300
 3675TIP3    H111031   2.818   2.832   1.343
 3675TIP3    H211032   2.907   2.709   1.347
 3676TIP3   OH211033   0.690   3.472   2.740
 3676TIP3    H111034   0.666   3.458   2.832
 3676TIP3    H211035   0.726   3.560   2.739
 3677TIP3   OH211036   0.877   4.983   3.125
 3677TIP3    H111037   0.811   4.995   3.056
 3677TIP3    H211038   0.954   4.949   3.078
 3678TIP3   OH211039   6.226   4.335   1.692
 3678TIP3    H111040   6.162   4.354   1.760
 3678TIP3    H211041   6.173   4.316   1.614
 3679TIP3   OH211042   5.509   0.517   4.478
 3679TIP3    H111043   5.455   0.475   4.411
 3679TIP3    H211044   5.447   0.543   4.546
 3680TIP3   OH211045   0.278   3.499   1.836
 3680TIP3    H111046   0.363   3.489   1.794
 3680TIP3    H211047   0.252   3.589   1.815
 3681TIP3   OH211048   2.435   5.514   2.452
 3681TIP3    H111049   2.354   5.563   2.436
 3681TIP3    H211050   2.416   5.463   2.532
 3682TIP3   OH211051   0.925   1.904   1.091
 3682TIP3    H111052   0.868   1.980   1.100
 3682TIP3    H211053   0.985   1.927   1.020
 3683TIP3   OH211054   2.836   4.363   0.764
 3683TIP3    H111055   2.920   4.399   0.791
 3683TIP3    H211056   2.850   4.335   0.674
 3684TIP3   OH211057   0.363   0.203   1.722
 3684TIP3    H111058   0.337   0.130   1.666
 3684TIP3    H211059   0.290   0.265   1.715
 3685TIP3   OH211060   5.873   5.121   0.038
 3685TIP3    H111061   5.954   5.132   0.087
 3685TIP3    H211062   5.815   5.074   0.098
 3686TIP3   OH211063   3.884   5.859   0.594
 3686TIP3    H111064   3.890   5.947   0.631
 3686TIP3    H211065   3.792   5.835   0.604
 3687TIP3   OH211066   5.974   3.353   0.917
 3687TIP3    H111067   5.921   3.405   0.857
 3687TIP3    H211068   5.975   3.402   0.999
 3688TIP3   OH211069   2.307   5.905   0.618
 3688TIP3    H111070   2.347   5.942   0.697
 3688TIP3    H211071   2.262   5.979   0.577
 3689TIP3   OH211072   1.303   0.796   0.218
 3689TIP3    H111073   1.282   0.745   0.296
 3689TIP3    H211074   1.304   0.887   0.248
 3690TIP3   OH211075   2.032   2.890   1.537
 3690TIP3    H111076   1.993   2.803   1.537
 3690TIP3    H211077   2.104   2.884   1.600
 3691TIP3   OH211078   6.172   4.948   3.909
 3691TIP3    H111079   6.126   5.016   3.859
 3691TIP3    H211080   6.251   4.930   3.859
 3692TIP3   OH211081   4.105   3.377   0.088
 3692TIP3    H111082   4.097   3.380  -0.008
 3692TIP3    H211083   4.153   3.457   0.110
 3693TIP3   OH211084   4.140   5.543   0.392
 3693TIP3    H111085   4.141   5.475   0.325
 3693TIP3    H211086   4.232   5.566   0.403
 3694TIP3   OH211087   0.469   4.009   4.019
 3694TIP3    H111088   0.436   4.095   3.992
 3694TIP3    H211089   0.391   3.964   4.053
 3695TIP3   OH211090   0.766   0.459   0.320
 3695TIP3    H111091   0.708   0.535   0.309
 3695TIP3    H211092   0.728   0.412   0.395
 3696TIP3   OH211093   4.023   2.059   1.611
 3696TIP3    H111094   3.997   2.109   1.534
 3696TIP3    H211095   4.108   2.021   1.589
 3697TIP3   OH211096   2.378   3.289   2.083
 3697TIP3    H111097   2.306   3.230   2.059
 3697TIP3    H211098   2.348   3.376   2.056
 3698TIP3   OH211099   4.764   5.930   1.525
 3698TIP3    H111100   4.699   5.999   1.535
 3698TIP3    H211101   4.714   5.852   1.502
 3699TIP3   OH211102   3.853   2.550   2.269
 3699TIP3    H111103   3.899   2.490   2.328
 3699TIP3    H211104   3.855   2.506   2.184
 3700TIP3   OH211105   6.153   4.877   4.808
 3700TIP3    H111106   6.098   4.907   4.880
 3700TIP3    H211107   6.221   4.824   4.850
 3701TIP3   OH211108   3.050   0.539   0.117
 3701TIP3    H111109   3.109   0.591   0.172
 3701TIP3    H211110   3.066   0.571   0.028
 3702TIP3   OH211111   0.099   3.407   3.714
 3702TIP3    H111112   0.179   3.360   3.688
 3702TIP3    H211113   0.120   3.499   3.699
 3703TIP3   OH211114   2.776   0.224   2.327
 3703TIP3    H111115   2.844   0.274   2.373
 3703TIP3    H211116   2.820   0.191   2.249
 3704TIP3   OH211117   0.324   3.816   1.764
 3704TIP3    H111118   0.399   3.869   1.793
 3704TIP3    H211119   0.350   3.785   1.678
 3705TIP3   OH211120   3.004   4.042   2.387
 3705TIP3    H111121   2.979   3.967   2.333
 3705TIP3    H211122   2.931   4.104   2.379
 3706TIP3   OH211123   0.596   3.594   1.455
 3706TIP3    H111124   0.666   3.557   1.509
 3706TIP3    H211125   0.587   3.533   1.381
 3707TIP3   OH211126   5.259   5.789   2.156
 3707TIP3    H111127   5.339   5.784   2.209
 3707TIP3    H211128   5.232   5.881   2.162
 3708TIP3   OH211129   5.568   4.143   3.911
 3708TIP3    H111130   5.525   4.064   3.876
 3708TIP3    H211131   5.497   4.194   3.950
 3709TIP3   OH211132   1.501   4.067   2.772
 3709TIP3    H111133   1.537   4.012   2.842
 3709TIP3    H211134   1.571   4.072   2.707
 3710TIP3   OH211135   3.198   2.069   1.246
 3710TIP3    H111136   3.200   2.073   1.342
 3710TIP3    H211137   3.211   1.977   1.225
 3711TIP3   OH211138   2.147   2.067   2.624
 3711TIP3    H111139   2.100   2.017   2.690
 3711TIP3    H211140   2.140   2.015   2.544
 3712TIP3   OH211141   2.166   3.208   4.031
 3712TIP3    H111142   2.260   3.225   4.032
 3712TIP3    H211143   2.126   3.291   4.057
 3713TIP3   OH211144   1.111   2.777   3.867
 3713TIP3    H111145   1.078   2.861   3.835
 3713TIP3    H211146   1.033   2.724   3.884
 3714TIP3   OH211147   1.699   1.174   1.637
 3714TIP3    H111148   1.697   1.107   1.706
 3714TIP3    H211149   1.608   1.201   1.627
 3715TIP3   OH211150   0.943   2.257   2.167
 3715TIP3    H111151   0.858   2.240   2.127
 3715TIP3    H211152   0.943   2.351   2.185
 3716TIP3   OH211153   4.394   0.018   1.281
 3716TIP3    H111154   4.484   0.028   1.313
 3716TIP3    H211155   4.404  -0.014   1.191
 3717TIP3   OH211156   1.871   5.688   4.584
 3717TIP3    H111157   1.865   5.632   4.661
 3717TIP3    H211158   1.965   5.698   4.568
 3718TIP3   OH211159   2.798   5.344   1.659
 3718TIP3    H111160   2.866   5.368   1.596
 3718TIP3    H211161   2.800   5.415   1.724
 3719TIP3   OH211162   6.239   1.447   1.345
 3719TIP3    H111163   6.245   1.514   1.413
 3719TIP3    H211164   6.321   1.454   1.297
 3720TIP3   OH211165   5.378   3.275   3.717
 3720TIP3    H111166   5.443   3.225   3.767
 3720TIP3    H211167   5.300   3.275   3.773
 3721TIP3   OH211168   1.158   0.875  -0.023
 3721TIP3    H111169   1.210   0.842   0.050
 3721TIP3    H211170   1.067   0.859   0.004
 3722TIP3   OH211171   1.152   2.831   2.108
 3722TIP3    H111172   1.157   2.737   2.129
 3722TIP3    H211173   1.115   2.871   2.186
 3723TIP3   OH211174   0.721   3.289   3.172
 3723TIP3    H111175   0.732   3.370   3.222
 3723TIP3    H211176   0.666   3.314   3.098
 3724TIP3   OH211177   1.628   5.185   2.220
 3724TIP3    H111178   1.709   5.140   2.196
 3724TIP3    H211179   1.651   5.278   2.217
 3725TIP3   OH211180   3.149   4.295   1.573
 3725TIP3    H111181   3.068   4.273   1.527
 3725TIP3    H211182   3.120   4.348   1.648
 3726TIP3   OH211183   4.631   5.150   0.999
 3726TIP3    H111184   4.635   5.212   1.072
 3726TIP3    H211185   4.644   5.065   1.040
 3727TIP3   OH211186   3.892   2.711   2.958
 3727TIP3    H111187   3.818   2.748   3.006
 3727TIP3    H211188   3.862   2.624   2.931
 3728TIP3   OH211189   6.161   4.727   0.787
 3728TIP3    H111190   6.151   4.754   0.879
 3728TIP3    H211191   6.077   4.686   0.765
 3729TIP3   OH211192   6.213   4.604   2.009
 3729TIP3    H111193   6.136   4.562   1.972
 3729TIP3    H211194   6.186   4.693   2.028
 3730TIP3   OH211195   0.905   5.025   0.632
 3730TIP3    H111196   0.902   4.931   0.615
 3730TIP3    H211197   0.998   5.044   0.641
 3731TIP3   OH211198   5.865   4.041   0.721
 3731TIP3    H111199   5.860   4.033   0.625
 3731TIP3    H211200   5.914   3.963   0.748
 3732TIP3   OH211201   2.795   3.917   1.776
 3732TIP3    H111202   2.819   3.922   1.869
 3732TIP3    H211203   2.757   4.003   1.757
 3733TIP3   OH211204   4.151   1.161   1.577
 3733TIP3    H111205   4.233   1.206   1.596
 3733TIP3    H211206   4.096   1.177   1.654
 3734TIP3   OH211207   5.638   0.311   0.820
 3734TIP3    H111208   5.730   0.334   0.808
 3734TIP3    H211209   5.640   0.237   0.880
 3735TIP3   OH211210   5.857   3.472   4.078
 3735TIP3    H111211   5.928   3.408   4.073
 3735TIP3    H211212   5.895   3.544   4.130
 3736TIP3   OH211213   3.183   2.842   0.758
 3736TIP3    H111214   3.163   2.930   0.790
 3736TIP3    H211215   3.107   2.818   0.706
 3737TIP3   OH211216   3.230   0.648   0.684
 3737TIP3    H111217   3.292   0.578   0.707
 3737TIP3    H211218   3.227   0.704   0.762
 3738TIP3   OH211219   6.284   2.108   0.891
 3738TIP3    H111220   6.226   2.079   0.821
 3738TIP3    H211221   6.225   2.134   0.962
 3739TIP3   OH211222   4.786   4.950   0.297
 3739TIP3    H111223   4.716   4.969   0.360
 3739TIP3    H211224   4.771   4.859   0.270
 3740TIP3   OH211225   3.570   0.345   1.949
 3740TIP3    H111226   3.572   0.439   1.970
 3740TIP3    H211227   3.530   0.341   1.863
 3741TIP3   OH211228   0.526   5.787   4.424
 3741TIP3    H111229   0.478   5.863   4.458
 3741TIP3    H211230   0.527   5.725   4.496
 3742TIP3   OH211231   3.668   5.462   2.184
 3742TIP3    H111232   3.584   5.503   2.164
 3742TIP3    H211233   3.695   5.500   2.268
 3743TIP3   OH211234   5.568   2.280   2.331
 3743TIP3    H111235   5.550   2.253   2.421
 3743TIP3    H211236   5.605   2.203   2.289
 3744TIP3   OH211237   5.725   3.175   2.829
 3744TIP3    H111238   5.699   3.094   2.871
 3744TIP3    H211239   5.642   3.216   2.802
 3745TIP3   OH211240   0.382   3.585   3.813
 3745TIP3    H111241   0.316   3.612   3.876
 3745TIP3    H211242   0.394   3.492   3.828
 3746TIP3   OH211243   4.350   0.060   2.335
 3746TIP3    H111244   4.285   0.114   2.289
 3746TIP3    H211245   4.364  -0.015   2.277
 3747TIP3   OH211246   3.189   0.007   2.520
 3747TIP3    H111247   3.162   0.084   2.570
 3747TIP3    H211248   3.274  -0.017   2.556
 3748TIP3   OH211249   4.311   4.825   0.460
 3748TIP3    H111250   4.315   4.907   0.411
 3748TIP3    H211251   4.223   4.792   0.444
 3749TIP3   OH211252   1.580   1.716   1.853
 3749TIP3    H111253   1.625   1.639   1.888
 3749TIP3    H211254   1.533   1.753   1.927
 3750TIP3   OH211255   0.128   5.710   2.128
 3750TIP3    H111256   0.193   5.745   2.067
 3750TIP3    H211257   0.179   5.682   2.204
 3751TIP3   OH211258   1.006   3.642   1.894
 3751TIP3    H111259   0.966   3.726   1.875
 3751TIP3    H211260   1.032   3.607   1.809
 3752TIP3   OH211261   4.315   3.136   2.898
 3752TIP3    H111262   4.377   3.101   2.963
 3752TIP3    H211263   4.231   3.138   2.944
 3753TIP3   OH211264   2.194   2.500   2.776
 3753TIP3    H111265   2.121   2.453   2.734
 3753TIP3    H211266   2.250   2.527   2.704
 3754TIP3   OH211267   4.906   3.610   5.178
 3754TIP3    H111268   4.991   3.647   5.151
 3754TIP3    H211269   4.909   3.519   5.148
 3755TIP3   OH211270   0.933   2.101   2.628
 3755TIP3    H111271   0.933   2.031   2.563
 3755TIP3    H211272   0.865   2.077   2.690
 3756TIP3   OH211273   5.516   4.755   4.568
 3756TIP3    H111274   5.585   4.817   4.590
 3756TIP3    H211275   5.473   4.736   4.651
 3757TIP3   OH211276   2.958   5.837   0.620
 3757TIP3    H111277   3.026   5.861   0.683
 3757TIP3    H211278   2.966   5.901   0.550
 3758TIP3   OH211279   0.476   4.598   2.251
 3758TIP3    H111280   0.493   4.687   2.283
 3758TIP3    H211281   0.499   4.541   2.325
 3759TIP3   OH211282   3.299   4.475   3.095
 3759TIP3    H111283   3.223   4.484   3.039
 3759TIP3    H211284   3.373   4.505   3.042
 3760TIP3   OH211285   2.866   3.138   2.640
 3760TIP3    H111286   2.914   3.175   2.566
 3760TIP3    H211287   2.868   3.043   2.624
 3761TIP3   OH211288   4.306   0.009   1.601
 3761TIP3    H111289   4.356  -0.046   1.541
 3761TIP3    H211290   4.326   0.099   1.575
 3762TIP3   OH211291   1.302   0.762   2.733
 3762TIP3    H111292   1.396   0.776   2.746
 3762TIP3    H211293   1.292   0.758   2.638
 3763TIP3   OH211294   4.544   0.181   3.782
 3763TIP3    H111295   4.553   0.276   3.773
 3763TIP3    H211296   4.615   0.157   3.842
 3764TIP3   OH211297   1.783   2.073   2.793
 3764TIP3    H111298   1.792   2.145   2.855
 3764TIP3    H211299   1.873   2.043   2.777
 3765TIP3   OH211300   1.039   2.371   4.202
 3765TIP3    H111301   0.992   2.351   4.121
 3765TIP3    H211302   1.128   2.340   4.187
 3766TIP3   OH211303   6.323   2.765   4.501
 3766TIP3    H111304   6.371   2.683   4.499
 3766TIP3    H211305   6.390   2.833   4.509
 3767TIP3   OH211306   1.707   0.108   4.233
 3767TIP3    H111307   1.702   0.026   4.184
 3767TIP3    H211308   1.634   0.161   4.200
 3768TIP3   OH211309   5.191   2.056   4.296
 3768TIP3    H111310   5.145   2.050   4.212
 3768TIP3    H211311   5.232   1.970   4.306
 3769TIP3   OH211312   1.801   1.473   0.062
 3769TIP3    H111313   1.720   1.514   0.092
 3769TIP3    H211314   1.820   1.515  -0.022
 3770TIP3   OH211315   5.758   3.962   1.421
 3770TIP3    H111316   5.690   4.011   1.375
 3770TIP3    H211317   5.720   3.875   1.436
 3771TIP3   OH211318   4.626   4.318   0.340
 3771TIP3    H111319   4.587   4.241   0.382
 3771TIP3    H211320   4.561   4.344   0.274
 3772TIP3   OH211321   4.646   5.216   1.716
 3772TIP3    H111322   4.693   5.289   1.676
 3772TIP3    H211323   4.635   5.241   1.808
 3773TIP3   OH211324   5.621   2.940   1.645
 3773TIP3    H111325   5.618   2.852   1.684
 3773TIP3    H211326   5.656   2.925   1.557
 3774TIP3   OH211327   6.130   0.925   3.900
 3774TIP3    H111328   6.087   0.961   3.823
 3774TIP3    H211329   6.150   1.002   3.955
 3775TIP3   OH211330   0.130   5.015   4.961
 3775TIP3    H111331   0.164   5.060   5.038
 3775TIP3    H211332   0.104   5.085   4.901
 3776TIP3   OH211333   3.193   5.514   3.801
 3776TIP3    H111334   3.223   5.598   3.766
 3776TIP3    H211335   3.098   5.514   3.784
 3777TIP3   OH211336   5.590   3.378   0.069
 3777TIP3    H111337   5.595   3.313   0.139
 3777TIP3    H211338   5.501   3.412   0.074
 3778TIP3   OH211339   6.177   5.276   5.164
 3778TIP3    H111340   6.270   5.273   5.182
 3778TIP3    H211341   6.154   5.369   5.171
 3779TIP3   OH211342   0.114   0.166   3.890
 3779TIP3    H111343   0.100   0.257   3.916
 3779TIP3    H211344   0.166   0.171   3.810
 3780TIP3   OH211345   1.393   2.373   4.000
 3780TIP3    H111346   1.324   2.308   4.018
 3780TIP3    H211347   1.351   2.457   4.016
 3781TIP3   OH211348   4.168   2.529   3.936
 3781TIP3    H111349   4.150   2.620   3.915
 3781TIP3    H211350   4.260   2.516   3.911
 3782TIP3   OH211351   0.819   3.275   1.741
 3782TIP3    H111352   0.822   3.180   1.732
 3782TIP3    H211353   0.751   3.291   1.806
 3783TIP3   OH211354   0.680   2.252   0.895
 3783TIP3    H111355   0.733   2.251   0.815
 3783TIP3    H211356   0.688   2.163   0.930
 3784TIP3   OH211357   5.293   0.669   4.871
 3784TIP3    H111358   5.363   0.708   4.925
 3784TIP3    H211359   5.252   0.745   4.829
 3785TIP3   OH211360   1.855   3.391   4.604
 3785TIP3    H111361   1.846   3.475   4.649
 3785TIP3    H211362   1.772   3.380   4.557
 3786TIP3   OH211363   4.875   3.101   1.618
 3786TIP3    H111364   4.894   3.089   1.711
 3786TIP3    H211365   4.806   3.038   1.599
 3787TIP3   OH211366   5.087   0.735   2.573
 3787TIP3    H111367   5.145   0.692   2.511
 3787TIP3    H211368   5.030   0.666   2.606
 3788TIP3   OH211369   1.151   1.970   0.430
 3788TIP3    H111370   1.178   1.894   0.483
 3788TIP3    H211371   1.061   1.949   0.404
 3789TIP3   OH211372   0.461   1.483   0.707
 3789TIP3    H111373   0.377   1.492   0.752
 3789TIP3    H211374   0.469   1.389   0.691
 3790TIP3   OH211375   2.928   5.696   3.234
 3790TIP3    H111376   2.930   5.738   3.320
 3790TIP3    H211377   2.981   5.616   3.245
 3791TIP3   OH211378   4.622   5.059   4.483
 3791TIP3    H111379   4.622   5.021   4.571
 3791TIP3    H211380   4.551   5.123   4.485
 3792TIP3   OH211381   2.348   1.162   4.998
 3792TIP3    H111382   2.316   1.239   4.952
 3792TIP3    H211383   2.278   1.098   4.989
 3793TIP3   OH211384   5.503   1.899   1.012
 3793TIP3    H111385   5.414   1.906   1.046
 3793TIP3    H211386   5.498   1.938   0.924
 3794TIP3   OH211387   1.908   4.433   3.404
 3794TIP3    H111388   1.871   4.442   3.317
 3794TIP3    H211389   1.929   4.340   3.412
 3795TIP3   OH211390   2.157   4.100   4.852
 3795TIP3    H111391   2.093   4.085   4.783
 3795TIP3    H211392   2.163   4.195   4.860
 3796TIP3   OH211393   0.834   2.408   2.835
 3796TIP3    H111394   0.930   2.407   2.834
 3796TIP3    H211395   0.811   2.391   2.926
 3797TIP3   OH211396   5.010   4.454   4.159
 3797TIP3    H111397   5.013   4.544   4.127
 3797TIP3    H211398   4.938   4.414   4.111
 3798TIP3   OH211399   4.037   0.295   4.757
 3798TIP3    H111400   4.000   0.355   4.821
 3798TIP3    H211401   3.989   0.314   4.676
 3799TIP3   OH211402   6.261   4.763   3.175
 3799TIP3    H111403   6.191   4.706   3.208
 3799TIP3    H211404   6.315   4.781   3.252
 3800TIP3   OH211405   6.026   4.336   3.316
 3800TIP3    H111406   6.070   4.328   3.232
 3800TIP3    H211407   5.934   4.315   3.297
 3801TIP3   OH211408   5.234   1.906   1.087
 3801TIP3    H111409   5.210   1.948   1.170
 3801TIP3    H211410   5.239   1.813   1.108
 3802TIP3   OH211411   5.204   2.853   2.593
 3802TIP3    H111412   5.130   2.794   2.609
 3802TIP3    H211413   5.166   2.926   2.545
 3803TIP3   OH211414   2.913   0.712   2.708
 3803TIP3    H111415   2.925   0.637   2.766
 3803TIP3    H211416   2.992   0.765   2.721
 3804TIP3   OH211417   0.239   4.308   4.109
 3804TIP3    H111418   0.269   4.234   4.161
 3804TIP3    H211419   0.157   4.279   4.071
 3805TIP3   OH211420   1.500   4.756   1.177
 3805TIP3    H111421   1.484   4.808   1.098
 3805TIP3    H211422   1.591   4.774   1.199
 3806TIP3   OH211423   0.440   2.232  -0.003
 3806TIP3    H111424   0.378   2.252   0.067
 3806TIP3    H211425   0.469   2.143   0.016
 3807TIP3   OH211426   3.036   5.233   1.417
 3807TIP3    H111427   3.005   5.320   1.443
 3807TIP3    H211428   3.053   5.241   1.323
 3808TIP3   OH211429   4.482   1.854   0.018
 3808TIP3    H111430   4.533   1.932   0.040
 3808TIP3    H211431   4.406   1.858   0.076
 3809TIP3   OH211432   3.412   3.726   4.003
 3809TIP3    H111433   3.500   3.763   3.990
 3809TIP3    H211434   3.354   3.786   3.956
 3810TIP3   OH211435   4.633   1.848   4.245
 3810TIP3    H111436   4.553   1.824   4.199
 3810TIP3    H211437   4.688   1.770   4.240
 3811TIP3   OH211438   2.703   2.256   1.797
 3811TIP3    H111439   2.777   2.278   1.854
 3811TIP3    H211440   2.630   2.240   1.857
 3812TIP3   OH211441   3.217   0.040   0.612
 3812TIP3    H111442   3.161   0.076   0.543
 3812TIP3    H211443   3.306   0.051   0.579
 3813TIP3   OH211444   5.221   2.187   0.109
 3813TIP3    H111445   5.241   2.143   0.191
 3813TIP3    H211446   5.283   2.150   0.046
 3814TIP3   OH211447   0.049   1.972   3.111
 3814TIP3    H111448   0.093   2.019   3.182
 3814TIP3    H211449   0.118   1.923   3.068
 3815TIP3   OH211450   4.649   1.437   0.397
 3815TIP3    H111451   4.619   1.362   0.346
 3815TIP3    H211452   4.588   1.508   0.375
 3816TIP3   OH211453   1.357   4.694   4.602
 3816TIP3    H111454   1.423   4.624   4.613
 3816TIP3    H211455   1.331   4.717   4.691
 3817TIP3   OH211456   0.122   2.595   2.219
 3817TIP3    H111457   0.113   2.515   2.271
 3817TIP3    H211458   0.032   2.626   2.207
 3818TIP3   OH211459   5.126   4.521   4.994
 3818TIP3    H111460   5.192   4.455   4.972
 3818TIP3    H211461   5.176   4.593   5.032
 3819TIP3   OH211462   5.011   4.978   4.229
 3819TIP3    H111463   5.080   5.035   4.195
 3819TIP3    H211464   4.972   5.028   4.301
 3820TIP3   OH211465   2.689   2.465   1.581
 3820TIP3    H111466   2.596   2.442   1.582
 3820TIP3    H211467   2.724   2.429   1.662
 3821TIP3   OH211468   0.625   3.404   1.259
 3821TIP3    H111469   0.561   3.424   1.190
 3821TIP3    H211470   0.645   3.311   1.247
 3822TIP3   OH211471   0.129   3.281   0.258
 3822TIP3    H111472   0.132   3.253   0.350
 3822TIP3    H211473   0.220   3.274   0.228
 3823TIP3   OH211474   4.790   0.661   3.235
 3823TIP3    H111475   4.802   0.632   3.145
 3823TIP3    H211476   4.705   0.705   3.235
 3824TIP3   OH211477   6.156   4.260   0.977
 3824TIP3    H111478   6.243   4.222   0.986
 3824TIP3    H211479   6.161   4.342   1.026
 3825TIP3   OH211480   3.043   3.611   2.777
 3825TIP3    H111481   3.080   3.534   2.734
 3825TIP3    H211482   3.106   3.681   2.761
 3826TIP3   OH211483   1.676   4.938   1.452
 3826TIP3    H111484   1.661   4.979   1.537
 3826TIP3    H211485   1.688   5.011   1.392
 3827TIP3   OH211486   1.766   4.051   3.516
 3827TIP3    H111487   1.811   3.977   3.476
 3827TIP3    H211488   1.687   4.014   3.555
 3828TIP3   OH211489   0.111   3.822   4.986
 3828TIP3    H111490   0.205   3.834   4.979
 3828TIP3    H211491   0.089   3.856   5.073
 3829TIP3   OH211492   3.483   2.500   2.149
 3829TIP3    H111493   3.426   2.555   2.203
 3829TIP3    H211494   3.547   2.560   2.112
 3830TIP3   OH211495   3.888   3.552   4.527
 3830TIP3    H111496   3.971   3.521   4.563
 3830TIP3    H211497   3.826   3.483   4.546
 3831TIP3   OH211498   5.239   1.572   2.947
 3831TIP3    H111499   5.300   1.504   2.918
 3831TIP3    H211500   5.240   1.567   3.043
 3832TIP3   OH211501   5.998   0.473   1.883
 3832TIP3    H111502   5.978   0.551   1.832
 3832TIP3    H211503   6.007   0.404   1.817
 3833TIP3   OH211504   0.636   1.830   1.801
 3833TIP3    H111505   0.666   1.914   1.767
 3833TIP3    H211506   0.605   1.783   1.723
 3834TIP3   OH211507   0.119   0.817   0.488
 3834TIP3    H111508   0.079   0.777   0.565
 3834TIP3    H211509   0.209   0.786   0.488
 3835TIP3   OH211510   0.461   5.890   3.039
 3835TIP3    H111511   0.389   5.940   3.078
 3835TIP3    H211512   0.433   5.873   2.949
 3836TIP3   OH211513   6.147   1.263   1.737
 3836TIP3    H111514   6.160   1.180   1.691
 3836TIP3    H211515   6.055   1.284   1.724
 3837TIP3   OH211516   5.868   0.945   3.108
 3837TIP3    H111517   5.775   0.947   3.131
 3837TIP3    H211518   5.870   0.912   3.019
 3838TIP3   OH211519   4.269   3.536   1.593
 3838TIP3    H111520   4.350   3.506   1.552
 3838TIP3    H211521   4.269   3.493   1.679
 3839TIP3   OH211522   0.042   1.061   0.363
 3839TIP3    H111523   0.077   0.973   0.374
 3839TIP3    H211524  -0.047   1.056   0.397
 3840TIP3   OH211525   4.100   1.064   4.404
 3840TIP3    H111526   4.082   1.069   4.498
 3840TIP3    H211527   4.052   0.987   4.375
 3841TIP3   OH211528   5.515   4.142   2.169
 3841TIP3    H111529   5.471   4.066   2.208
 3841TIP3    H211530   5.492   4.215   2.226
 3842TIP3   OH211531   4.752   4.258   4.674
 3842TIP3    H111532   4.811   4.334   4.675
 3842TIP3    H211533   4.811   4.182   4.672
 3843TIP3   OH211534   1.676   5.813   1.475
 3843TIP3    H111535   1.606   5.851   1.422
 3843TIP3    H211536   1.712   5.888   1.523
 3844TIP3   OH211537   3.207  -0.002   2.882
 3844TIP3    H111538   3.121  -0.006   2.840
 3844TIP3    H211539   3.247   0.077   2.847
 3845TIP3   OH211540   0.385   0.333   1.977
 3845TIP3    H111541   0.304   0.303   2.019
 3845TIP3    H211542   0.433   0.376   2.048
 3846TIP3   OH211543   1.586   5.919   1.058
 3846TIP3    H111544   1.534   5.839   1.047
 3846TIP3    H211545   1.586   5.934   1.152
 3847TIP3   OH211546   4.663   0.355   3.352
 3847TIP3    H111547   4.753   0.359   3.384
 3847TIP3    H211548   4.661   0.415   3.277
 3848TIP3   OH211549   3.711   1.228   0.217
 3848TIP3    H111550   3.760   1.146   0.212
 3848TIP3    H211551   3.629   1.210   0.170
 3849TIP3   OH211552   3.760   1.336   1.520
 3849TIP3    H111553   3.784   1.286   1.599
 3849TIP3    H211554   3.838   1.389   1.502
 3850TIP3   OH211555   3.155   3.148   2.734
 3850TIP3    H111556   3.129   3.130   2.644
 3850TIP3    H211557   3.146   3.243   2.742
 3851TIP3   OH211558   6.247   3.628   0.990
 3851TIP3    H111559   6.267   3.649   0.899
 3851TIP3    H211560   6.310   3.560   1.013
 3852TIP3   OH211561   0.373   4.322   0.685
 3852TIP3    H111562   0.319   4.396   0.659
 3852TIP3    H211563   0.415   4.350   0.766
 3853TIP3   OH211564   0.405   1.549   1.899
 3853TIP3    H111565   0.343   1.591   1.840
 3853TIP3    H211566   0.432   1.469   1.853
 3854TIP3   OH211567   0.999   1.142   3.656
 3854TIP3    H111568   1.061   1.197   3.703
 3854TIP3    H211569   1.000   1.058   3.702
 3855TIP3   OH211570   6.329   4.748   4.991
 3855TIP3    H111571   6.420   4.738   4.966
 3855TIP3    H211572   6.332   4.795   5.074
 3856TIP3   OH211573   3.626   2.943   2.987
 3856TIP3    H111574   3.586   2.885   2.922
 3856TIP3    H211575   3.554   2.970   3.043
 3857TIP3   OH211576   3.354   0.971   5.062
 3857TIP3    H111577   3.401   0.899   5.020
 3857TIP3    H211578   3.311   1.017   4.990
 3858TIP3   OH211579   4.625   0.914   5.150
 3858TIP3    H111580   4.658   0.932   5.238
 3858TIP3    H211581   4.657   0.987   5.097
 3859TIP3   OH211582   1.612   3.952   4.973
 3859TIP3    H111583   1.689   3.977   5.023
 3859TIP3    H211584   1.601   3.858   4.990
 3860TIP3   OH211585   3.263   3.258   1.245
 3860TIP3    H111586   3.234   3.172   1.215
 3860TIP3    H211587   3.192   3.288   1.302
 3861TIP3   OH211588   2.455   4.542   3.891
 3861TIP3    H111589   2.457   4.534   3.795
 3861TIP3    H211590   2.378   4.596   3.909
 3862TIP3   OH211591   0.353   2.783   2.484
 3862TIP3    H111592   0.392   2.807   2.400
 3862TIP3    H211593   0.339   2.867   2.528
 3863TIP3   OH211594   4.857   0.640   2.951
 3863TIP3    H111595   4.931   0.603   2.902
 3863TIP3    H211596   4.820   0.705   2.891
 3864TIP3   OH211597   2.405   1.916   3.468
 3864TIP3    H111598   2.468   1.943   3.401
 3864TIP3    H211599   2.455   1.914   3.549
 3865TIP3   OH211600   1.629   0.986   1.885
 3865TIP3    H111601   1.666   0.898   1.879
 3865TIP3    H211602   1.589   0.989   1.972
 3866TIP3   OH211603   1.013   5.061   0.934
 3866TIP3    H111604   0.989   5.000   1.003
 3866TIP3    H211605   0.931   5.105   0.910
 3867TIP3   OH211606   0.972   4.483   0.593
 3867TIP3    H111607   1.052   4.430   0.596
 3867TIP3    H211608   0.927   4.452   0.515
 3868TIP3   OH211609   2.059   2.236   3.130
 3868TIP3    H111610   2.125   2.196   3.072
 3868TIP3    H211611   2.096   2.321   3.153
 3869TIP3   OH211612   4.968   1.655   0.836
 3869TIP3    H111613   4.979   1.729   0.897
 3869TIP3    H211614   4.879   1.625   0.849
 3870TIP3   OH211615   5.663   0.730   0.109
 3870TIP3    H111616   5.584   0.771   0.073
 3870TIP3    H211617   5.682   0.781   0.187
 3871TIP3   OH211618   2.291   2.115   4.733
 3871TIP3    H111619   2.346   2.166   4.792
 3871TIP3    H211620   2.280   2.031   4.778
 3872TIP3   OH211621   1.420   4.305   1.913
 3872TIP3    H111622   1.400   4.234   1.974
 3872TIP3    H211623   1.511   4.292   1.889
 3873TIP3   OH211624   1.129   2.445   2.378
 3873TIP3    H111625   1.160   2.374   2.434
 3873TIP3    H211626   1.039   2.460   2.406
 3874TIP3   OH211627   1.598   0.909   3.730
 3874TIP3    H111628   1.505   0.913   3.751
 3874TIP3    H211629   1.608   0.827   3.681
 3875TIP3   OH211630   1.579   4.671   1.457
 3875TIP3    H111631   1.629   4.751   1.469
 3875TIP3    H211632   1.523   4.688   1.381
 3876TIP3   OH211633   1.236   4.075   2.906
 3876TIP3    H111634   1.206   3.985   2.908
 3876TIP3    H211635   1.330   4.069   2.891
 3877TIP3   OH211636   3.098   4.650   4.120
 3877TIP3    H111637   3.072   4.605   4.201
 3877TIP3    H211638   3.124   4.579   4.061
 3878TIP3   OH211639   4.807   2.652   2.353
 3878TIP3    H111640   4.894   2.617   2.333
 3878TIP3    H211641   4.786   2.618   2.439
 3879TIP3   OH211642   3.651   4.665   3.526
 3879TIP3    H111643   3.575   4.666   3.584
 3879TIP3    H211644   3.708   4.597   3.563
 3880TIP3   OH211645   3.184   3.009   2.079
 3880TIP3    H111646   3.146   2.935   2.127
 3880TIP3    H211647   3.267   2.975   2.045
 3881TIP3   OH211648   0.586   0.731   1.082
 3881TIP3    H111649   0.652   0.663   1.071
 3881TIP3    H211650   0.608   0.797   1.016
 3882TIP3   OH211651   3.307   3.724   0.677
 3882TIP3    H111652   3.214   3.721   0.653
 3882TIP3    H211653   3.314   3.799   0.736
 3883TIP3   OH211654   2.383   0.042   1.344
 3883TIP3    H111655   2.390   0.137   1.335
 3883TIP3    H211656   2.366   0.027   1.437
 3884TIP3   OH211657   0.095   4.856   2.667
 3884TIP3    H111658   0.165   4.805   2.708
 3884TIP3    H211659   0.134   4.943   2.654
 3885TIP3   OH211660   4.454   1.915   3.716
 3885TIP3    H111661   4.373   1.916   3.767
 3885TIP3    H211662   4.490   2.003   3.726
 3886TIP3   OH211663   1.725   3.764   2.764
 3886TIP3    H111664   1.651   3.755   2.704
 3886TIP3    H211665   1.740   3.858   2.768
 3887TIP3   OH211666   3.180   1.798   4.690
 3887TIP3    H111667   3.203   1.798   4.597
 3887TIP3    H211668   3.122   1.723   4.700
 3888TIP3   OH211669   4.627   1.844   2.222
 3888TIP3    H111670   4.613   1.838   2.316
 3888TIP3    H211671   4.576   1.921   2.195
 3889TIP3   OH211672   5.799   3.087   1.212
 3889TIP3    H111673   5.894   3.103   1.214
 3889TIP3    H211674   5.783   3.056   1.122
 3890TIP3   OH211675   6.321   1.501   0.788
 3890TIP3    H111676   6.331   1.406   0.792
 3890TIP3    H211677   6.272   1.517   0.707
 3891TIP3   OH211678   2.361   1.256   2.014
 3891TIP3    H111679   2.326   1.343   1.996
 3891TIP3    H211680   2.364   1.213   1.928
 3892TIP3   OH211681   5.467   2.448   2.811
 3892TIP3    H111682   5.501   2.483   2.893
 3892TIP3    H211683   5.452   2.355   2.829
 3893TIP3   OH211684   4.872   3.178   3.166
 3893TIP3    H111685   4.869   3.088   3.197
 3893TIP3    H211686   4.903   3.171   3.075
 3894TIP3   OH211687   2.220   2.585   4.465
 3894TIP3    H111688   2.291   2.617   4.409
 3894TIP3    H211689   2.242   2.620   4.552
 3895TIP3   OH211690   0.284   2.877   2.938
 3895TIP3    H111691   0.222   2.864   3.010
 3895TIP3    H211692   0.370   2.866   2.979
 3896TIP3   OH211693   3.790   3.178   2.310
 3896TIP3    H111694   3.709   3.163   2.261
 3896TIP3    H211695   3.761   3.215   2.393
 3897TIP3   OH211696   4.149   4.340   4.726
 3897TIP3    H111697   4.070   4.295   4.698
 3897TIP3    H211698   4.215   4.271   4.735
 3898TIP3   OH211699   0.465   5.947   3.741
 3898TIP3    H111700   0.397   6.007   3.770
 3898TIP3    H211701   0.456   5.871   3.798
 3899TIP3   OH211702   1.318   4.542   5.052
 3899TIP3    H111703   1.312   4.575   4.962
 3899TIP3    H211704   1.340   4.449   5.042
 3900TIP3   OH211705   0.050   3.134   1.229
 3900TIP3    H111706   0.031   3.104   1.140
 3900TIP3    H211707   0.126   3.083   1.257
 3901TIP3   OH211708   3.813   3.123   0.044
 3901TIP3    H111709   3.833   3.132  -0.049
 3901TIP3    H211710   3.850   3.038   0.068
 3902TIP3   OH211711   6.098   4.255   2.484
 3902TIP3    H111712   6.074   4.340   2.448
 3902TIP3    H211713   6.105   4.197   2.408
 3903TIP3   OH211714   5.735   2.715   1.146
 3903TIP3    H111715   5.663   2.735   1.086
 3903TIP3    H211716   5.744   2.620   1.141
 3904TIP3   OH211717   4.758   3.739   4.938
 3904TIP3    H111718   4.784   3.830   4.933
 3904TIP3    H211719   4.672   3.740   4.981
 3905TIP3   OH211720   6.038   0.817   4.913
 3905TIP3    H111721   5.986   0.790   4.837
 3905TIP3    H211722   6.028   0.746   4.976
 3906TIP3   OH211723   5.461   0.946   2.042
 3906TIP3    H111724   5.534   0.909   2.092
 3906TIP3    H211725   5.473   0.912   1.953
 3907TIP3   OH211726   6.260   2.607   1.661
 3907TIP3    H111727   6.347   2.644   1.646
 3907TIP3    H211728   6.267   2.561   1.744
 3908TIP3   OH211729   5.633   5.005   3.036
 3908TIP3    H111730   5.632   5.081   3.095
 3908TIP3    H211731   5.670   4.935   3.090
 3909TIP3   OH211732   4.189   1.758   0.571
 3909TIP3    H111733   4.281   1.753   0.547
 3909TIP3    H211734   4.148   1.809   0.502
 3910TIP3   OH211735   2.924   1.063   4.489
 3910TIP3    H111736   2.942   0.985   4.437
 3910TIP3    H211737   2.923   1.134   4.424
 3911TIP3   OH211738   1.831   0.088   1.702
 3911TIP3    H111739   1.750   0.112   1.657
 3911TIP3    H211740   1.891   0.161   1.683
 3912TIP3   OH211741   0.618   2.504   0.782
 3912TIP3    H111742   0.711   2.524   0.792
 3912TIP3    H211743   0.607   2.419   0.824
 3913TIP3   OH211744   3.689   1.475   1.033
 3913TIP3    H111745   3.781   1.459   1.056
 3913TIP3    H211746   3.692   1.551   0.975
 3914TIP3   OH211747   5.492   0.277   2.533
 3914TIP3    H111748   5.447   0.327   2.601
 3914TIP3    H211749   5.576   0.254   2.572
 3915TIP3   OH211750   1.131   5.990   3.154
 3915TIP3    H111751   1.053   6.042   3.174
 3915TIP3    H211752   1.153   6.013   3.064
 3916TIP3   OH211753   5.026   3.180   1.831
 3916TIP3    H111754   5.058   3.226   1.909
 3916TIP3    H211755   5.088   3.204   1.762
 3917TIP3   OH211756   0.563   3.058   1.760
 3917TIP3    H111757   0.579   2.994   1.829
 3917TIP3    H211758   0.500   3.119   1.798
 3918TIP3   OH211759   0.054   5.959   0.355
 3918TIP3    H111760   0.091   5.933   0.440
 3918TIP3    H211761   0.042   6.053   0.362
 3919TIP3   OH211762   2.580   4.530   2.976
 3919TIP3    H111763   2.607   4.513   2.886
 3919TIP3    H211764   2.653   4.498   3.030
 3920TIP3   OH211765   1.888   5.756   2.530
 3920TIP3    H111766   1.968   5.740   2.580
 3920TIP3    H211767   1.824   5.781   2.596
 3921TIP3   OH211768   3.451   1.839   0.893
 3921TIP3    H111769   3.455   1.877   0.981
 3921TIP3    H211770   3.368   1.792   0.891
 3922TIP3   OH211771   3.995   0.816   2.497
 3922TIP3    H111772   3.930   0.835   2.565
 3922TIP3    H211773   4.013   0.722   2.507
 3923TIP3   OH211774   3.119   0.384   1.309
 3923TIP3    H111775   3.155   0.306   1.350
 3923TIP3    H211776   3.164   0.457   1.353
 3924TIP3   OH211777   4.534   5.890   2.484
 3924TIP3    H111778   4.521   5.871   2.391
 3924TIP3    H211779   4.504   5.810   2.528
 3925TIP3   OH211780   2.676   1.749   3.526
 3925TIP3    H111781   2.614   1.698   3.473
 3925TIP3    H211782   2.716   1.685   3.584
 3926TIP3   OH211783   4.673   2.979   0.227
 3926TIP3    H111784   4.654   2.935   0.310
 3926TIP3    H211785   4.665   2.911   0.160
 3927TIP3   OH211786   6.292   3.438   1.577
 3927TIP3    H111787   6.297   3.483   1.661
 3927TIP3    H211788   6.320   3.504   1.513
 3928TIP3   OH211789   5.226   2.977   0.118
 3928TIP3    H111790   5.131   2.969   0.105
 3928TIP3    H211791   5.245   3.068   0.095
 3929TIP3   OH211792   0.392   1.002   0.956
 3929TIP3    H111793   0.349   0.928   1.000
 3929TIP3    H211794   0.472   0.964   0.918
 3930TIP3   OH211795   1.217   0.647   4.985
 3930TIP3    H111796   1.237   0.722   4.930
 3930TIP3    H211797   1.302   0.622   5.023
 3931TIP3   OH211798   3.722   1.003   1.546
 3931TIP3    H111799   3.807   0.971   1.576
 3931TIP3    H211800   3.663   0.988   1.620
 3932TIP3   OH211801   4.075   5.975   3.466
 3932TIP3    H111802   4.161   6.013   3.483
 3932TIP3    H211803   4.094   5.885   3.438
 3933TIP3   OH211804   1.799   3.296   0.572
 3933TIP3    H111805   1.864   3.326   0.635
 3933TIP3    H211806   1.820   3.204   0.557
 3934TIP3   OH211807   0.328   3.825   2.674
 3934TIP3    H111808   0.333   3.788   2.762
 3934TIP3    H211809   0.240   3.862   2.668
 3935TIP3   OH211810   3.676   4.631   4.947
 3935TIP3    H111811   3.627   4.646   5.028
 3935TIP3    H211812   3.663   4.538   4.928
 3936TIP3   OH211813   6.311   0.879   2.424
 3936TIP3    H111814   6.242   0.819   2.454
 3936TIP3    H211815   6.271   0.925   2.350
 3937TIP3   OH211816   5.232   1.440   3.222
 3937TIP3    H111817   5.323   1.416   3.206
 3937TIP3    H211818   5.204   1.383   3.294
 3938TIP3   OH211819   4.161   3.655   4.275
 3938TIP3    H111820   4.084   3.600   4.257
 3938TIP3    H211821   4.144   3.736   4.226
 3939TIP3   OH211822   0.714   1.326   3.614
 3939TIP3    H111823   0.652   1.326   3.687
 3939TIP3    H211824   0.774   1.398   3.633
 3940TIP3   OH211825   6.297   4.289   0.407
 3940TIP3    H111826   6.255   4.221   0.460
 3940TIP3    H211827   6.234   4.361   0.406
 3941TIP3   OH211828   5.288   2.694   0.243
 3941TIP3    H111829   5.267   2.787   0.231
 3941TIP3    H211830   5.371   2.682   0.197
 3942TIP3   OH211831   2.252   4.009   1.558
 3942TIP3    H111832   2.254   3.993   1.464
 3942TIP3    H211833   2.281   4.100   1.568
 3943TIP3   OH211834   4.737   2.682   2.060
 3943TIP3    H111835   4.737   2.666   2.154
 3943TIP3    H211836   4.707   2.599   2.022
 3944TIP3   OH211837   0.366   5.713   3.522
 3944TIP3    H111838   0.454   5.689   3.492
 3944TIP3    H211839   0.362   5.808   3.510
 3945TIP3   OH211840   0.253   0.556   4.837
 3945TIP3    H111841   0.160   0.564   4.814
 3945TIP3    H211842   0.259   0.473   4.884
 3946TIP3   OH211843   5.277   0.973   3.590
 3946TIP3    H111844   5.219   0.949   3.517
 3946TIP3    H211845   5.365   0.974   3.551
 3947TIP3   OH211846   4.077   4.732   0.384
 3947TIP3    H111847   4.054   4.671   0.315
 3947TIP3    H211848   3.993   4.762   0.419
 3948TIP3   OH211849   1.566   3.118   3.012
 3948TIP3    H111850   1.487   3.088   3.057
 3948TIP3    H211851   1.633   3.055   3.037
 3949TIP3   OH211852   6.353   5.155   0.381
 3949TIP3    H111853   6.375   5.066   0.352
 3949TIP3    H211854   6.322   5.199   0.302
 3950TIP3   OH211855   4.178   1.140   0.118
 3950TIP3    H111856   4.133   1.210   0.165
 3950TIP3    H211857   4.169   1.063   0.175
 3951TIP3   OH211858   2.782   4.165   4.816
 3951TIP3    H111859   2.842   4.161   4.743
 3951TIP3    H211860   2.718   4.232   4.791
 3952TIP3   OH211861   0.722   3.102   3.805
 3952TIP3    H111862   0.706   3.064   3.891
 3952TIP3    H211863   0.643   3.080   3.755
 3953TIP3   OH211864   5.296   5.063   0.427
 3953TIP3    H111865   5.222   5.004   0.412
 3953TIP3    H211866   5.360   5.009   0.473
 3954TIP3   OH211867   0.568   0.063   4.134
 3954TIP3    H111868   0.639   0.020   4.180
 3954TIP3    H211869   0.511   0.097   4.203
 3955TIP3   OH211870   2.856   5.734   2.908
 3955TIP3    H111871   2.933   5.718   2.853
 3955TIP3    H211872   2.787   5.680   2.868
 3956TIP3   OH211873   6.241   3.790   5.145
 3956TIP3    H111874   6.258   3.755   5.233
 3956TIP3    H211875   6.171   3.734   5.110
 3957TIP3   OH211876   2.353   4.602   3.192
 3957TIP3    H111877   2.393   4.646   3.267
 3957TIP3    H211878   2.426   4.569   3.141
 3958TIP3   OH211879   2.380   2.179   1.319
 3958TIP3    H111880   2.396   2.126   1.397
 3958TIP3    H211881   2.374   2.116   1.247
 3959TIP3   OH211882   3.154   1.496   2.855
 3959TIP3    H111883   3.142   1.591   2.848
 3959TIP3    H211884   3.178   1.481   2.946
 3960TIP3   OH211885   3.243   0.730   0.187
 3960TIP3    H111886   3.279   0.766   0.269
 3960TIP3    H211887   3.237   0.806   0.128
 3961TIP3   OH211888   2.432   4.437   1.153
 3961TIP3    H111889   2.421   4.362   1.095
 3961TIP3    H211890   2.343   4.469   1.169
 3962TIP3   OH211891   3.340   2.455   0.615
 3962TIP3    H111892   3.330   2.530   0.556
 3962TIP3    H211893   3.251   2.428   0.634
 3963TIP3   OH211894   0.634   0.926   4.450
 3963TIP3    H111895   0.624   0.831   4.461
 3963TIP3    H211896   0.629   0.960   4.539
 3964TIP3   OH211897   4.396   4.349   1.266
 3964TIP3    H111898   4.370   4.294   1.192
 3964TIP3    H211899   4.463   4.298   1.311
 3965TIP3   OH211900   0.167   1.992   0.805
 3965TIP3    H111901   0.230   2.063   0.816
 3965TIP3    H211902   0.090   2.019   0.855
 3966TIP3   OH211903   5.804   2.858   3.143
 3966TIP3    H111904   5.708   2.857   3.136
 3966TIP3    H211905   5.824   2.944   3.180
 3967TIP3   OH211906   3.727   3.005   3.587
 3967TIP3    H111907   3.692   3.074   3.644
 3967TIP3    H211908   3.750   2.934   3.646
 3968TIP3   OH211909   6.107   4.529   4.924
 3968TIP3    H111910   6.030   4.585   4.918
 3968TIP3    H211911   6.173   4.574   4.870
 3969TIP3   OH211912   4.733   3.797   4.648
 3969TIP3    H111913   4.748   3.712   4.690
 3969TIP3    H211914   4.749   3.781   4.555
 3970TIP3   OH211915   1.973   4.583   3.947
 3970TIP3    H111916   1.908   4.513   3.943
 3970TIP3    H211917   1.954   4.627   4.030
 3971TIP3   OH211918   2.166   3.085   5.032
 3971TIP3    H111919   2.211   3.011   4.992
 3971TIP3    H211920   2.073   3.070   5.014
 3972TIP3   OH211921   4.577   0.121   4.184
 3972TIP3    H111922   4.579   0.073   4.267
 3972TIP3    H211923   4.488   0.107   4.151
 3973TIP3   OH211924   5.013   0.228   3.343
 3973TIP3    H111925   5.017   0.134   3.330
 3973TIP3    H211926   4.949   0.240   3.414
 3974TIP3   OH211927   5.066   0.335   4.704
 3974TIP3    H111928   5.041   0.263   4.646
 3974TIP3    H211929   5.032   0.309   4.790
 3975TIP3   OH211930   2.572   4.775   4.235
 3975TIP3    H111931   2.633   4.738   4.172
 3975TIP3    H211932   2.580   4.720   4.313
 3976TIP3   OH211933   1.740   2.493   2.548
 3976TIP3    H111934   1.754   2.585   2.526
 3976TIP3    H211935   1.704   2.495   2.637
 3977TIP3   OH211936   3.719   5.295   4.843
 3977TIP3    H111937   3.684   5.206   4.834
 3977TIP3    H211938   3.812   5.282   4.860
 3978TIP3   OH211939   6.131   5.115   0.570
 3978TIP3    H111940   6.106   5.203   0.596
 3978TIP3    H211941   6.203   5.127   0.509
 3979TIP3   OH211942   4.071   1.652   2.190
 3979TIP3    H111943   4.133   1.706   2.142
 3979TIP3    H211944   3.999   1.711   2.214
 3980TIP3   OH211945   3.784   3.851   3.360
 3980TIP3    H111946   3.726   3.905   3.414
 3980TIP3    H211947   3.871   3.887   3.376
 3981TIP3   OH211948   2.138   3.207   4.754
 3981TIP3    H111949   2.143   3.172   4.843
 3981TIP3    H211950   2.127   3.130   4.699
 3982TIP3   OH211951   3.920   3.833   4.583
 3982TIP3    H111952   3.920   3.812   4.490
 3982TIP3    H211953   3.889   3.753   4.626
 3983TIP3   OH211954   2.892   6.006   2.989
 3983TIP3    H111955   2.850   5.926   3.021
 3983TIP3    H211956   2.981   6.000   3.023
 3984TIP3   OH211957   0.883   3.962   5.012
 3984TIP3    H111958   0.880   3.885   5.070
 3984TIP3    H211959   0.953   4.016   5.049
 3985TIP3   OH211960   6.092   0.708   2.521
 3985TIP3    H111961   6.012   0.713   2.468
 3985TIP3    H211962   6.071   0.644   2.590
 3986TIP3   OH211963   2.992   0.399   3.963
 3986TIP3    H111964   2.943   0.324   3.929
 3986TIP3    H211965   3.055   0.420   3.894
 3987TIP3   OH211966   1.772   4.555   3.597
 3987TIP3    H111967   1.797   4.486   3.536
 3987TIP3    H211968   1.699   4.518   3.647
 3988TIP3   OH211969   4.104   1.227   0.732
 3988TIP3    H111970   4.148   1.254   0.652
 3988TIP3    H211971   4.123   1.133   0.740
 3989TIP3   OH211972   3.061   5.800   1.115
 3989TIP3    H111973   3.124   5.779   1.046
 3989TIP3    H211974   3.010   5.720   1.126
 3990TIP3   OH211975   5.255   2.450   1.162
 3990TIP3    H111976   5.199   2.385   1.203
 3990TIP3    H211977   5.209   2.533   1.175
 3991TIP3   OH211978   5.031   2.137   0.854
 3991TIP3    H111979   5.091   2.070   0.823
 3991TIP3    H211980   4.954   2.127   0.798
 3992TIP3   OH211981   1.129   5.078   3.617
 3992TIP3    H111982   1.065   5.054   3.550
 3992TIP3    H211983   1.173   5.155   3.581
 3993TIP3   OH211984   0.949   4.790   3.557
 3993TIP3    H111985   0.872   4.840   3.581
 3993TIP3    H211986   1.000   4.784   3.639
 3994TIP3   OH211987   4.887   5.718   0.863
 3994TIP3    H111988   4.850   5.695   0.778
 3994TIP3    H211989   4.977   5.745   0.844
 3995TIP3   OH211990   1.998   1.756   0.282
 3995TIP3    H111991   2.090   1.782   0.281
 3995TIP3    H211992   1.968   1.772   0.192
 3996TIP3   OH211993   3.060   2.307   3.999
 3996TIP3    H111994   3.002   2.382   3.984
 3996TIP3    H211995   3.001   2.232   4.003
 3997TIP3   OH211996   6.126   4.347   2.737
 3997TIP3    H111997   6.122   4.331   2.642
 3997TIP3    H211998   6.205   4.299   2.765
 3998TIP3   OH211999   1.282   0.870   0.644
 3998TIP3    H112000   1.333   0.928   0.700
 3998TIP3    H212001   1.191   0.892   0.663
 3999TIP3   OH212002   3.980   0.856   4.277
 3999TIP3    H112003   3.969   0.862   4.182
 3999TIP3    H212004   3.923   0.784   4.303
 4000TIP3   OH212005   4.502   4.887   1.879
 4000TIP3    H112006   4.495   4.924   1.790
 4000TIP3    H212007   4.586   4.920   1.912
 4001TIP3   OH212008   0.388   1.437   4.955
 4001TIP3    H112009   0.372   1.519   5.000
 4001TIP3    H212010   0.381   1.459   4.862
 4002TIP3   OH212011   2.793   2.002   3.582
 4002TIP3    H112012   2.738   1.924   3.582
 4002TIP3    H212013   2.883   1.968   3.576
 4003TIP3   OH212014   3.107   1.145   3.612
 4003TIP3    H112015   3.126   1.215   3.674
 4003TIP3    H212016   3.145   1.066   3.653
 4004TIP3   OH212017   0.656   5.902   0.931
 4004TIP3    H112018   0.716   5.963   0.889
 4004TIP3    H212019   0.594   5.957   0.979
 4005TIP3   OH212020   4.564   5.686   0.609
 4005TIP3    H112021   4.528   5.774   0.612
 4005TIP3    H212022   4.511   5.636   0.671
 4006TIP3   OH212023   1.430   0.937   4.152
 4006TIP3    H112024   1.478   0.876   4.209
 4006TIP3    H212025   1.452   1.023   4.187
 4007TIP3   OH212026   6.258   3.987   0.525
 4007TIP3    H112027   6.219   3.954   0.606
 4007TIP3    H212028   6.344   4.019   0.551
 4008TIP3   OH212029   0.275   2.224   2.436
 4008TIP3    H112030   0.227   2.146   2.406
 4008TIP3    H212031   0.339   2.240   2.367
 4009TIP3   OH212032   4.042   1.934   0.399
 4009TIP3    H112033   3.989   1.971   0.470
 4009TIP3    H212034   4.029   1.994   0.325
 4010TIP3   OH212035   1.271   3.302   0.753
 4010TIP3    H112036   1.177   3.310   0.772
 4010TIP3    H212037   1.312   3.300   0.840
 4011TIP3   OH212038   4.622   4.070   4.487
 4011TIP3    H112039   4.647   4.015   4.561
 4011TIP3    H212040   4.673   4.150   4.498
 4012TIP3   OH212041   5.775   2.107   0.925
 4012TIP3    H112042   5.851   2.140   0.972
 4012TIP3    H212043   5.700   2.147   0.969
 4013TIP3   OH212044   6.200   2.977   0.824
 4013TIP3    H112045   6.266   3.000   0.889
 4013TIP3    H212046   6.180   2.885   0.843
 4014TIP3   OH212047   0.750   0.609   1.486
 4014TIP3    H112048   0.665   0.623   1.527
 4014TIP3    H212049   0.807   0.583   1.558
 4015TIP3   OH212050   5.028   5.526   1.979
 4015TIP3    H112051   4.945   5.525   1.931
 4015TIP3    H212052   5.012   5.473   2.057
 4016TIP3   OH212053   2.615   2.763   1.446
 4016TIP3    H112054   2.558   2.707   1.499
 4016TIP3    H212055   2.572   2.765   1.360
 4017TIP3   OH212056   1.896   3.507   3.628
 4017TIP3    H112057   1.820   3.448   3.633
 4017TIP3    H212058   1.897   3.552   3.713
 4018TIP3   OH212059   4.105   1.341   4.295
 4018TIP3    H112060   4.194   1.375   4.295
 4018TIP3    H212061   4.109   1.263   4.349
 4019TIP3   OH212062   4.071   2.644   1.709
 4019TIP3    H112063   4.123   2.721   1.685
 4019TIP3    H212064   4.048   2.604   1.625
 4020TIP3   OH212065   6.202   0.920   4.532
 4020TIP3    H112066   6.277   0.959   4.488
 4020TIP3    H212067   6.236   0.894   4.618
 4021TIP3   OH212068   3.592   2.295   3.085
 4021TIP3    H112069   3.536   2.350   3.030
 4021TIP3    H212070   3.551   2.208   3.080
 4022TIP3   OH212071   1.010   4.486   3.120
 4022TIP3    H112072   1.068   4.411   3.126
 4022TIP3    H212073   0.941   4.468   3.184
 4023TIP3   OH212074   5.610   5.356   4.426
 4023TIP3    H112075   5.597   5.442   4.466
 4023TIP3    H212076   5.557   5.296   4.479
 4024TIP3   OH212077   0.554   1.247   4.756
 4024TIP3    H112078   0.621   1.180   4.744
 4024TIP3    H212079   0.472   1.201   4.738
 4025TIP3   OH212080   5.462   4.393   2.393
 4025TIP3    H112081   5.399   4.449   2.437
 4025TIP3    H212082   5.548   4.423   2.424
 4026TIP3   OH212083   0.027   4.734   2.291
 4026TIP3    H112084   0.070   4.820   2.289
 4026TIP3    H212085  -0.063   4.751   2.267
 4027TIP3   OH212086   1.198   1.408   1.618
 4027TIP3    H112087   1.171   1.459   1.694
 4027TIP3    H212088   1.266   1.460   1.576
 4028TIP3   OH212089   1.928   2.339   0.264
 4028TIP3    H112090   2.021   2.365   0.261
 4028TIP3    H212091   1.912   2.298   0.179
 4029TIP3   OH212092   5.254   2.205   2.342
 4029TIP3    H112093   5.316   2.270   2.377
 4029TIP3    H212094   5.308   2.144   2.292
 4030TIP3   OH212095   4.144   3.274   1.185
 4030TIP3    H112096   4.145   3.332   1.262
 4030TIP3    H212097   4.054   3.280   1.153
 4031TIP3   OH212098   1.277   0.442   2.963
 4031TIP3    H112099   1.275   0.406   3.051
 4031TIP3    H212100   1.217   0.517   2.966
 4032TIP3   OH212101   4.404   1.461   4.226
 4032TIP3    H112102   4.480   1.479   4.171
 4032TIP3    H212103   4.405   1.531   4.291
 4033TIP3   OH212104   2.956   0.841   5.094
 4033TIP3    H112105   2.871   0.833   5.136
 4033TIP3    H212106   2.959   0.770   5.031
 4034TIP3   OH212107   2.994   2.458   0.793
 4034TIP3    H112108   3.044   2.386   0.753
 4034TIP3    H212109   3.042   2.478   0.873
 4035TIP3   OH212110   1.174   3.880   5.124
 4035TIP3    H112111   1.189   3.823   5.049
 4035TIP3    H212112   1.091   3.850   5.161
 4036TIP3   OH212113   3.454   3.847   2.372
 4036TIP3    H112114   3.486   3.837   2.282
 4036TIP3    H212115   3.374   3.793   2.375
 4037TIP3   OH212116   1.053   4.841   3.988
 4037TIP3    H112117   1.113   4.826   3.914
 4037TIP3    H212118   1.105   4.821   4.066
 4038TIP3   OH212119   5.340   2.131   0.349
 4038TIP3    H112120   5.399   2.188   0.398
 4038TIP3    H212121   5.284   2.091   0.415
 4039TIP3   OH212122   5.090   2.872   1.216
 4039TIP3    H112123   5.014   2.819   1.242
 4039TIP3    H212124   5.095   2.941   1.282
 4040TIP3   OH212125   5.833   0.336   2.848
 4040TIP3    H112126   5.772   0.353   2.920
 4040TIP3    H212127   5.916   0.374   2.877
 4041TIP3   OH212128   1.836   3.989   0.580
 4041TIP3    H112129   1.810   3.974   0.671
 4041TIP3    H212130   1.798   4.074   0.558
 4042TIP3   OH212131   1.050   1.441   0.585
 4042TIP3    H112132   1.094   1.471   0.506
 4042TIP3    H212133   1.096   1.485   0.657
 4043TIP3   OH212134   2.250   1.773   3.806
 4043TIP3    H112135   2.293   1.825   3.874
 4043TIP3    H212136   2.322   1.726   3.763
 4044TIP3   OH212137   3.438   2.531   4.100
 4044TIP3    H112138   3.373   2.540   4.169
 4044TIP3    H212139   3.515   2.577   4.134
 4045TIP3   OH212140   5.427   4.573   1.594
 4045TIP3    H112141   5.375   4.653   1.597
 4045TIP3    H212142   5.420   4.543   1.504
 4046TIP3   OH212143   1.490   5.479   2.216
 4046TIP3    H112144   1.536   5.547   2.266
 4046TIP3    H212145   1.420   5.450   2.275
 4047TIP3   OH212146   2.183   0.897   0.659
 4047TIP3    H112147   2.140   0.833   0.715
 4047TIP3    H212148   2.165   0.867   0.570
 4048TIP3   OH212149   1.388   4.273   5.048
 4048TIP3    H112150   1.342   4.229   4.977
 4048TIP3    H212151   1.353   4.233   5.128
 4049TIP3   OH212152   2.934   4.899   1.808
 4049TIP3    H112153   2.984   4.859   1.879
 4049TIP3    H212154   2.916   4.988   1.840
 4050TIP3   OH212155   5.488   5.812   1.179
 4050TIP3    H112156   5.511   5.894   1.135
 4050TIP3    H212157   5.393   5.807   1.173
 4051TIP3   OH212158   1.553   2.006   0.477
 4051TIP3    H112159   1.614   1.956   0.423
 4051TIP3    H212160   1.583   2.097   0.468
 4052TIP3   OH212161   2.061   0.639   5.058
 4052TIP3    H112162   2.155   0.626   5.045
 4052TIP3    H212163   2.051   0.649   5.152
 4053TIP3   OH212164   5.568   3.197   1.325
 4053TIP3    H112165   5.566   3.286   1.288
 4053TIP3    H212166   5.659   3.169   1.317
 4054TIP3   OH212167   3.717   5.029   0.778
 4054TIP3    H112168   3.768   5.082   0.716
 4054TIP3    H212169   3.775   5.018   0.853
 4055TIP3   OH212170   2.825   5.905   2.299
 4055TIP3    H112171   2.793   5.847   2.368
 4055TIP3    H212172   2.780   5.988   2.314
 4056TIP3   OH212173   0.391   5.706   0.412
 4056TIP3    H112174   0.314   5.673   0.365
 4056TIP3    H212175   0.385   5.664   0.498
 4057TIP3   OH212176   0.247   4.023   4.744
 4057TIP3    H112177   0.180   4.082   4.779
 4057TIP3    H212178   0.301   4.001   4.821
 4058TIP3   OH212179   4.924   0.431   3.553
 4058TIP3    H112180   4.913   0.379   3.632
 4058TIP3    H212181   4.916   0.522   3.582
 4059TIP3   OH212182   4.998   4.495   3.171
 4059TIP3    H112183   5.058   4.528   3.239
 4059TIP3    H212184   4.975   4.407   3.200
 4060TIP3   OH212185   3.993   3.733   1.763
 4060TIP3    H112186   4.077   3.725   1.808
 4060TIP3    H212187   4.014   3.728   1.670
 4061TIP3   OH212188   5.974   3.363   1.205
 4061TIP3    H112189   5.895   3.416   1.202
 4061TIP3    H212190   6.009   3.377   1.294
 4062TIP3   OH212191   4.129   0.946   2.279
 4062TIP3    H112192   4.113   1.036   2.309
 4062TIP3    H212193   4.105   0.891   2.354
 4063TIP3   OH212194   4.274   5.543   3.630
 4063TIP3    H112195   4.363   5.566   3.658
 4063TIP3    H212196   4.268   5.449   3.646
 4064TIP3   OH212197   4.775   0.608   2.286
 4064TIP3    H112198   4.839   0.648   2.345
 4064TIP3    H212199   4.728   0.544   2.340
 4065TIP3   OH212200   5.080   0.530   2.840
 4065TIP3    H112201   5.086   0.444   2.799
 4065TIP3    H212202   5.165   0.543   2.882
 4066TIP3   OH212203   4.425   3.523   1.198
 4066TIP3    H112204   4.482   3.584   1.151
 4066TIP3    H212205   4.381   3.474   1.129
 4067TIP3   OH212206   3.053   3.735   3.441
 4067TIP3    H112207   3.085   3.649   3.470
 4067TIP3    H212208   3.017   3.719   3.354
 4068TIP3   OH212209   1.361   1.992   0.745
 4068TIP3    H112210   1.411   2.017   0.667
 4068TIP3    H212211   1.428   1.983   0.813
 4069TIP3   OH212212   2.983   2.471   1.739
 4069TIP3    H112213   3.004   2.379   1.719
 4069TIP3    H212214   2.893   2.468   1.772
 4070TIP3   OH212215   5.384   4.877   0.895
 4070TIP3    H112216   5.422   4.791   0.916
 4070TIP3    H212217   5.423   4.937   0.958
 4071TIP3   OH212218   3.438   1.385   0.452
 4071TIP3    H112219   3.510   1.431   0.409
 4071TIP3    H212220   3.392   1.453   0.502
 4072TIP3   OH212221   2.018   4.556   2.692
 4072TIP3    H112222   2.083   4.506   2.642
 4072TIP3    H212223   1.956   4.587   2.626
 4073TIP3   OH212224   2.444   2.698   4.338
 4073TIP3    H112225   2.425   2.685   4.245
 4073TIP3    H212226   2.531   2.659   4.350
 4074TIP3   OH212227   1.380   2.774   1.331
 4074TIP3    H112228   1.442   2.704   1.349
 4074TIP3    H212229   1.308   2.731   1.284
 4075TIP3   OH212230   0.738   5.318   0.443
 4075TIP3    H112231   0.785   5.330   0.526
 4075TIP3    H212232   0.804   5.333   0.376
 4076TIP3   OH212233   6.275   1.892   3.436
 4076TIP3    H112234   6.306   1.883   3.346
 4076TIP3    H212235   6.281   1.986   3.454
 4077TIP3   OH212236   2.013   4.696   1.355
 4077TIP3    H112237   2.016   4.688   1.451
 4077TIP3    H212238   2.052   4.781   1.337
 4078TIP3   OH212239   1.525   1.951   1.349
 4078TIP3    H112240   1.605   1.922   1.307
 4078TIP3    H212241   1.545   2.040   1.379
 4079TIP3   OH212242   5.549   1.368   5.154
 4079TIP3    H112243   5.453   1.358   5.156
 4079TIP3    H212244   5.573   1.348   5.063
 4080TIP3   OH212245   1.949   1.524   1.547
 4080TIP3    H112246   1.926   1.519   1.640
 4080TIP3    H212247   1.932   1.614   1.522
 4081TIP3   OH212248   3.674   0.232   2.744
 4081TIP3    H112249   3.619   0.262   2.672
 4081TIP3    H212250   3.647   0.141   2.758
 4082TIP3   OH212251   3.702   2.947   4.712
 4082TIP3    H112252   3.731   2.964   4.622
 4082TIP3    H212253   3.783   2.928   4.760
 4083TIP3   OH212254   0.206   2.839   1.913
 4083TIP3    H112255   0.250   2.824   1.996
 4083TIP3    H212256   0.226   2.929   1.890
 4084TIP3   OH212257   5.356   2.993   0.357
 4084TIP3    H112258   5.381   2.989   0.265
 4084TIP3    H212259   5.393   3.076   0.389
 4085TIP3   OH212260   0.866   3.161   0.907
 4085TIP3    H112261   0.853   3.243   0.955
 4085TIP3    H212262   0.924   3.184   0.834
 4086TIP3   OH212263   2.028   2.622   4.291
 4086TIP3    H112264   2.112   2.608   4.335
 4086TIP3    H212265   2.052   2.658   4.205
 4087TIP3   OH212266   4.696   1.249   4.699
 4087TIP3    H112267   4.646   1.290   4.770
 4087TIP3    H212268   4.665   1.158   4.698
 4088TIP3   OH212269   2.440   0.886   0.367
 4088TIP3    H112270   2.445   0.979   0.389
 4088TIP3    H212271   2.399   0.883   0.281
 4089TIP3   OH212272   2.679   5.783   0.542
 4089TIP3    H112273   2.754   5.802   0.598
 4089TIP3    H212274   2.603   5.803   0.597
 4090TIP3   OH212275   5.388   2.185   4.439
 4090TIP3    H112276   5.395   2.279   4.420
 4090TIP3    H212277   5.308   2.158   4.395
 4091TIP3   OH212278   4.334   0.052   0.301
 4091TIP3    H112279   4.382   0.119   0.350
 4091TIP3    H212280   4.324   0.089   0.213
 4092TIP3   OH212281   1.011   5.976   0.972
 4092TIP3    H112282   0.960   5.990   0.892
 4092TIP3    H212283   1.024   5.882   0.977
 4093TIP3   OH212284   3.349   5.642   1.722
 4093TIP3    H112285   3.337   5.607   1.633
 4093TIP3    H212286   3.444   5.650   1.732
 4094TIP3   OH212287   2.732   0.307   1.786
 4094TIP3    H112288   2.824   0.287   1.771
 4094TIP3    H212289   2.733   0.384   1.843
 4095TIP3   OH212290   5.122   0.871   4.744
 4095TIP3    H112291   5.114   0.830   4.658
 4095TIP3    H212292   5.146   0.962   4.726
 4096TIP3   OH212293   3.086   3.327   1.465
 4096TIP3    H112294   3.149   3.302   1.533
 4096TIP3    H212295   3.015   3.369   1.513
 4097TIP3   OH212296   5.705   1.075   0.948
 4097TIP3    H112297   5.613   1.060   0.925
 4097TIP3    H212298   5.728   0.999   1.002
 4098TIP3   OH212299   2.980   3.911   3.986
 4098TIP3    H112300   2.972   3.816   3.995
 4098TIP3    H212301   3.070   3.926   3.959
 4099TIP3   OH212302   2.133   0.822   3.281
 4099TIP3    H112303   2.100   0.818   3.371
 4099TIP3    H212304   2.205   0.759   3.280
 4100TIP3   OH212305   3.824   3.644   3.570
 4100TIP3    H112306   3.842   3.626   3.477
 4100TIP3    H212307   3.896   3.700   3.598
 4101TIP3   OH212308   5.678   1.461   1.871
 4101TIP3    H112309   5.678   1.368   1.847
 4101TIP3    H212310   5.760   1.473   1.920
 4102TIP3   OH212311   4.878   1.931   1.544
 4102TIP3    H112312   4.936   1.864   1.509
 4102TIP3    H212313   4.932   1.977   1.609
 4103TIP3   OH212314   5.673   2.363   0.119
 4103TIP3    H112315   5.578   2.351   0.110
 4103TIP3    H212316   5.709   2.331   0.037
 4104TIP3   OH212317   2.966   3.804   2.238
 4104TIP3    H112318   2.870   3.797   2.244
 4104TIP3    H212319   2.983   3.821   2.145
 4105TIP3   OH212320   1.931   4.363   0.164
 4105TIP3    H112321   1.992   4.331   0.231
 4105TIP3    H212322   1.911   4.286   0.111
 4106TIP3   OH212323   1.513   3.995   1.655
 4106TIP3    H112324   1.419   3.982   1.669
 4106TIP3    H212325   1.552   3.981   1.740
 4107TIP3   OH212326   2.057   0.449   1.803
 4107TIP3    H112327   1.990   0.514   1.822
 4107TIP3    H212328   2.097   0.428   1.887
 4108TIP3   OH212329   6.305   1.487   1.767
 4108TIP3    H112330   6.247   1.529   1.703
 4108TIP3    H212331   6.276   1.396   1.769
 4109TIP3   OH212332   1.919   2.073   2.024
 4109TIP3    H112333   1.945   1.983   2.046
 4109TIP3    H212334   1.949   2.086   1.934
 4110TIP3   OH212335   5.507   2.731   3.363
 4110TIP3    H112336   5.483   2.823   3.371
 4110TIP3    H212337   5.464   2.688   3.437
 4111TIP3   OH212338   1.172   3.330   2.609
 4111TIP3    H112339   1.102   3.394   2.600
 4111TIP3    H212340   1.233   3.369   2.672
 4112TIP3   OH212341   2.045   0.529   3.400
 4112TIP3    H112342   2.033   0.524   3.305
 4112TIP3    H212343   2.119   0.471   3.417
 4113TIP3   OH212344   1.899   1.999   4.309
 4113TIP3    H112345   1.889   1.907   4.282
 4113TIP3    H212346   1.989   2.004   4.342
 4114TIP3   OH212347   0.653   2.310   4.168
 4114TIP3    H112348   0.581   2.253   4.140
 4114TIP3    H212349   0.611   2.375   4.225
 4115TIP3   OH212350   3.252   2.382   2.990
 4115TIP3    H112351   3.238   2.411   2.900
 4115TIP3    H212352   3.241   2.462   3.043
 4116TIP3   OH212353   1.726   4.196   0.800
 4116TIP3    H112354   1.742   4.229   0.712
 4116TIP3    H212355   1.738   4.272   0.857
 4117TIP3   OH212356   0.412   5.068   1.710
 4117TIP3    H112357   0.323   5.044   1.682
 4117TIP3    H212358   0.400   5.103   1.799
 4118TIP3   OH212359   0.969   3.548   2.898
 4118TIP3    H112360   0.936   3.635   2.877
 4118TIP3    H212361   0.971   3.545   2.994
 4119TIP3   OH212362   1.928   5.471   0.220
 4119TIP3    H112363   1.913   5.509   0.134
 4119TIP3    H212364   1.975   5.389   0.202
 4120TIP3   OH212365   1.274   4.775   1.367
 4120TIP3    H112366   1.309   4.847   1.419
 4120TIP3    H212367   1.325   4.777   1.286
 4121TIP3   OH212368   3.451   2.891   3.512
 4121TIP3    H112369   3.474   2.983   3.502
 4121TIP3    H212370   3.420   2.884   3.602
 4122TIP3   OH212371   3.284   2.267   3.277
 4122TIP3    H112372   3.366   2.247   3.323
 4122TIP3    H212373   3.311   2.318   3.201
 4123TIP3   OH212374   1.214   1.768   3.831
 4123TIP3    H112375   1.245   1.721   3.909
 4123TIP3    H212376   1.285   1.756   3.767
 4124TIP3   OH212377   5.233   4.277   2.265
 4124TIP3    H112378   5.279   4.357   2.290
 4124TIP3    H212379   5.262   4.212   2.330
 4125TIP3   OH212380   5.252   2.881   0.606
 4125TIP3    H112381   5.301   2.878   0.524
 4125TIP3    H212382   5.222   2.971   0.613
 4126TIP3   OH212383   4.391   1.078   2.573
 4126TIP3    H112384   4.484   1.085   2.552
 4126TIP3    H212385   4.387   1.098   2.667
 4127TIP3   OH212386   5.285   5.616   0.958
 4127TIP3    H112387   5.330   5.684   0.908
 4127TIP3    H212388   5.297   5.536   0.906
 4128TIP3   OH212389   4.244   2.996   2.644
 4128TIP3    H112390   4.164   3.048   2.656
 4128TIP3    H212391   4.295   3.013   2.724
 4129TIP3   OH212392   3.708   4.514   2.674
 4129TIP3    H112393   3.735   4.494   2.584
 4129TIP3    H212394   3.629   4.566   2.664
 4130TIP3   OH212395   4.334   4.122   2.888
 4130TIP3    H112396   4.392   4.161   2.823
 4130TIP3    H212397   4.248   4.119   2.846
 4131TIP3   OH212398   3.893   1.123   1.321
 4131TIP3    H112399   3.822   1.068   1.352
 4131TIP3    H212400   3.867   1.212   1.345
 4132TIP3   OH212401   4.728   2.871   2.687
 4132TIP3    H112402   4.729   2.910   2.600
 4132TIP3    H212403   4.684   2.937   2.742
 4133TIP3   OH212404   3.357   4.659   1.349
 4133TIP3    H112405   3.300   4.603   1.295
 4133TIP3    H212406   3.302   4.686   1.422
 4134TIP3   OH212407   2.633   2.669   0.857
 4134TIP3    H112408   2.678   2.749   0.884
 4134TIP3    H212409   2.593   2.691   0.773
 4135TIP3   OH212410   6.185   1.979   4.794
 4135TIP3    H112411   6.244   1.904   4.794
 4135TIP3    H212412   6.110   1.951   4.741
 4136TIP3   OH212413   0.870   2.128   4.728
 4136TIP3    H112414   0.818   2.048   4.730
 4136TIP3    H212415   0.835   2.180   4.800
 4137TIP3   OH212416   2.147   0.145   3.926
 4137TIP3    H112417   2.129   0.133   4.019
 4137TIP3    H212418   2.126   0.237   3.910
 4138TIP3   OH212419   3.531   3.886   0.556
 4138TIP3    H112420   3.536   3.972   0.599
 4138TIP3    H212421   3.467   3.837   0.606
 4139TIP3   OH212422   4.444   3.047   3.804
 4139TIP3    H112423   4.450   3.142   3.797
 4139TIP3    H212424   4.354   3.025   3.779
 4140TIP3   OH212425   5.543   1.603   0.941
 4140TIP3    H112426   5.472   1.597   0.876
 4140TIP3    H212427   5.515   1.671   1.001
 4141TIP3   OH212428   2.562   5.512   2.881
 4141TIP3    H112429   2.570   5.569   2.804
 4141TIP3    H212430   2.491   5.551   2.932
 4142TIP3   OH212431   2.257  -0.010   0.064
 4142TIP3    H112432   2.165  -0.010   0.038
 4142TIP3    H212433   2.255  -0.020   0.159
 4143TIP3   OH212434   4.628   2.679   4.054
 4143TIP3    H112435   4.714   2.701   4.090
 4143TIP3    H212436   4.576   2.654   4.130
 4144TIP3   OH212437   3.752   2.693   0.148
 4144TIP3    H112438   3.826   2.703   0.207
 4144TIP3    H212439   3.697   2.770   0.163
 4145TIP3   OH212440   2.176   3.744   4.204
 4145TIP3    H112441   2.100   3.697   4.239
 4145TIP3    H212442   2.240   3.741   4.275
 4146TIP3   OH212443   4.505   4.607   4.372
 4146TIP3    H112444   4.555   4.527   4.385
 4146TIP3    H212445   4.457   4.620   4.454
 4147TIP3   OH212446   2.100   3.780   3.935
 4147TIP3    H112447   2.068   3.870   3.947
 4147TIP3    H212448   2.128   3.753   4.022
 4148TIP3   OH212449   3.787   5.442   3.373
 4148TIP3    H112450   3.858   5.506   3.377
 4148TIP3    H212451   3.822   5.364   3.416
 4149TIP3   OH212452   4.497   1.895   4.728
 4149TIP3    H112453   4.537   1.949   4.660
 4149TIP3    H212454   4.442   1.955   4.778
 4150TIP3   OH212455   2.574   5.327   2.311
 4150TIP3    H112456   2.668   5.334   2.328
 4150TIP3    H212457   2.534   5.393   2.368
 4151TIP3   OH212458   4.483   1.007   0.481
 4151TIP3    H112459   4.488   0.915   0.453
 4151TIP3    H212460   4.555   1.016   0.544
 4152TIP3   OH212461   3.968   3.649   3.037
 4152TIP3    H112462   4.054   3.608   3.050
 4152TIP3    H212463   3.964   3.667   2.943
 4153TIP3   OH212464   0.263   5.404   1.349
 4153TIP3    H112465   0.327   5.334   1.359
 4153TIP3    H212466   0.308   5.471   1.298
 4154TIP3   OH212467   2.426   1.900   2.918
 4154TIP3    H112468   2.463   1.890   2.831
 4154TIP3    H212469   2.334   1.878   2.908
 4155TIP3   OH212470   0.522   5.246   3.917
 4155TIP3    H112471   0.603   5.256   3.967
 4155TIP3    H212472   0.460   5.209   3.980
 4156TIP3   OH212473   0.422   1.972   2.025
 4156TIP3    H112474   0.466   1.900   2.070
 4156TIP3    H212475   0.492   2.020   1.981
 4157TIP3   OH212476   0.905   0.168   3.041
 4157TIP3    H112477   0.908   0.153   2.947
 4157TIP3    H212478   0.974   0.232   3.058
 4158TIP3   OH212479   1.420   3.482   4.588
 4158TIP3    H112480   1.439   3.519   4.674
 4158TIP3    H212481   1.355   3.413   4.606
 4159TIP3   OH212482   3.180   0.377   1.611
 4159TIP3    H112483   3.240   0.424   1.554
 4159TIP3    H212484   3.093   0.409   1.585
 4160TIP3   OH212485   0.956   4.158   2.962
 4160TIP3    H112486   0.957   4.127   3.052
 4160TIP3    H212487   1.046   4.147   2.931
 4161TIP3   OH212488   6.335   5.718   1.548
 4161TIP3    H112489   6.373   5.728   1.635
 4161TIP3    H212490   6.344   5.625   1.529
 4162TIP3   OH212491   0.063   1.799   0.150
 4162TIP3    H112492   0.127   1.732   0.126
 4162TIP3    H212493   0.112   1.881   0.151
 4163TIP3   OH212494   1.243   3.505   2.045
 4163TIP3    H112495   1.176   3.572   2.030
 4163TIP3    H212496   1.233   3.445   1.971
 4164TIP3   OH212497   2.384   2.371   0.002
 4164TIP3    H112498   2.289   2.379   0.007
 4164TIP3    H212499   2.416   2.413   0.082
 4165TIP3   OH212500   5.360   4.553   1.314
 4165TIP3    H112501   5.283   4.541   1.259
 4165TIP3    H212502   5.396   4.638   1.289
 4166TIP3   OH212503   0.170   4.469   0.570
 4166TIP3    H112504   0.134   4.481   0.482
 4166TIP3    H212505   0.134   4.541   0.621
 4167TIP3   OH212506   2.398   0.304   4.016
 4167TIP3    H112507   2.424   0.376   4.074
 4167TIP3    H212508   2.309   0.282   4.043
 4168TIP3   OH212509   1.920   3.637   4.313
 4168TIP3    H112510   1.879   3.702   4.371
 4168TIP3    H212511   1.852   3.572   4.297
 4169TIP3   OH212512   0.503   3.865   4.320
 4169TIP3    H112513   0.419   3.876   4.274
 4169TIP3    H212514   0.479   3.851   4.411
 4170TIP3   OH212515   5.809   1.503   4.228
 4170TIP3    H112516   5.851   1.585   4.202
 4170TIP3    H212517   5.742   1.488   4.161
 4171TIP3   OH212518   2.133   1.611   4.315
 4171TIP3    H112519   2.212   1.657   4.346
 4171TIP3    H212520   2.164   1.557   4.243
 4172TIP3   OH212521   1.349   0.907   3.811
 4172TIP3    H112522   1.312   0.884   3.896
 4172TIP3    H212523   1.273   0.911   3.752
 4173TIP3   OH212524   4.238   2.303   1.469
 4173TIP3    H112525   4.329   2.324   1.447
 4173TIP3    H212526   4.218   2.225   1.418
 4174TIP3   OH212527   2.199   3.431   2.593
 4174TIP3    H112528   2.272   3.382   2.554
 4174TIP3    H212529   2.212   3.422   2.688
 4175TIP3   OH212530   1.373   1.558   4.983
 4175TIP3    H112531   1.368   1.612   4.904
 4175TIP3    H212532   1.313   1.486   4.966
 4176TIP3   OH212533   1.676   1.353   5.058
 4176TIP3    H112534   1.596   1.305   5.035
 4176TIP3    H212535   1.695   1.406   4.980
 4177TIP3   OH212536   3.257   3.589   1.524
 4177TIP3    H112537   3.308   3.660   1.563
 4177TIP3    H212538   3.225   3.538   1.598
 4178TIP3   OH212539   1.735   0.361   0.186
 4178TIP3    H112540   1.795   0.388   0.116
 4178TIP3    H212541   1.648   0.381   0.152
 4179TIP3   OH212542   0.023   0.773   0.753
 4179TIP3    H112543   0.033   0.839   0.821
 4179TIP3    H212544   0.107   0.726   0.752
 4180TIP3   OH212545   3.205   0.697   4.729
 4180TIP3    H112546   3.143   0.702   4.657
 4180TIP3    H212547   3.270   0.632   4.702
 4181TIP3   OH212548   1.005   5.454   2.229
 4181TIP3    H112549   1.056   5.383   2.191
 4181TIP3    H212550   1.021   5.447   2.323
 4182TIP3   OH212551   2.041   4.330   4.479
 4182TIP3    H112552   1.999   4.304   4.561
 4182TIP3    H212553   2.133   4.343   4.502
 4183TIP3   OH212554   4.575   3.508   3.244
 4183TIP3    H112555   4.558   3.498   3.151
 4183TIP3    H212556   4.569   3.602   3.260
 4184TIP3   OH212557   2.496   3.262   1.749
 4184TIP3    H112558   2.432   3.306   1.693
 4184TIP3    H212559   2.533   3.332   1.802
 4185TIP3   OH212560   4.894   3.747   1.302
 4185TIP3    H112561   4.905   3.662   1.259
 4185TIP3    H212562   4.842   3.798   1.241
 4186TIP3   OH212563   1.255   1.787   0.614
 4186TIP3    H112564   1.268   1.873   0.654
 4186TIP3    H212565   1.343   1.749   0.610
 4187TIP3   OH212566   1.581   2.765   3.004
 4187TIP3    H112567   1.664   2.722   3.022
 4187TIP3    H212568   1.523   2.737   3.075
 4188TIP3   OH212569   3.663   1.499   0.320
 4188TIP3    H112570   3.711   1.418   0.303
 4188TIP3    H212571   3.709   1.566   0.269
 4189TIP3   OH212572   3.722   1.187   4.214
 4189TIP3    H112573   3.689   1.128   4.147
 4189TIP3    H212574   3.704   1.142   4.297
 4190TIP3   OH212575   0.874   0.680   2.246
 4190TIP3    H112576   0.847   0.759   2.198
 4190TIP3    H212577   0.969   0.677   2.235
 4191TIP3   OH212578   2.442   5.382   4.741
 4191TIP3    H112579   2.462   5.289   4.749
 4191TIP3    H212580   2.427   5.412   4.831
 4192TIP3   OH212581   2.327   4.353   4.563
 4192TIP3    H112582   2.406   4.406   4.571
 4192TIP3    H212583   2.358   4.270   4.527
 4193TIP3   OH212584   0.413   3.709   2.443
 4193TIP3    H112585   0.464   3.760   2.380
 4193TIP3    H212586   0.420   3.758   2.525
 4194TIP3   OH212587   5.288   3.398   1.468
 4194TIP3    H112588   5.197   3.372   1.453
 4194TIP3    H212589   5.338   3.352   1.400
 4195TIP3   OH212590   2.214   0.380   0.844
 4195TIP3    H112591   2.271   0.457   0.833
 4195TIP3    H212592   2.273   0.305   0.833
 4196TIP3   OH212593   2.941   0.840   4.130
 4196TIP3    H112594   2.982   0.853   4.216
 4196TIP3    H212595   3.015   0.820   4.072
 4197TIP3   OH212596   6.007   3.681   2.328
 4197TIP3    H112597   6.046   3.656   2.411
 4197TIP3    H212598   5.927   3.727   2.351
 4198TIP3   OH212599   3.938   0.887   4.008
 4198TIP3    H112600   3.855   0.933   3.993
 4198TIP3    H212601   3.925   0.801   3.969
 4199TIP3   OH212602   3.833   5.105   4.128
 4199TIP3    H112603   3.920   5.128   4.162
 4199TIP3    H212604   3.778   5.179   4.152
 4200TIP3   OH212605   0.223   0.479   0.508
 4200TIP3    H112606   0.142   0.428   0.502
 4200TIP3    H212607   0.225   0.531   0.427
 4201TIP3   OH212608   2.590   5.883   3.609
 4201TIP3    H112609   2.500   5.913   3.596
 4201TIP3    H212610   2.606   5.822   3.537
 4202TIP3   OH212611   3.913   4.715   3.185
 4202TIP3    H112612   3.884   4.800   3.217
 4202TIP3    H212613   3.840   4.683   3.132
 4203TIP3   OH212614   5.798   3.239   4.878
 4203TIP3    H112615   5.888   3.271   4.879
 4203TIP3    H212616   5.751   3.300   4.821
 4204TIP3   OH212617   4.317   0.331   1.048
 4204TIP3    H112618   4.224   0.309   1.053
 4204TIP3    H212619   4.345   0.340   1.139
 4205TIP3   OH212620   2.841   1.558   4.921
 4205TIP3    H112621   2.820   1.555   5.014
 4205TIP3    H212622   2.771   1.611   4.882
 4206TIP3   OH212623   4.377   1.228   4.835
 4206TIP3    H112624   4.326   1.286   4.780
 4206TIP3    H212625   4.435   1.286   4.885
 4207TIP3   OH212626   0.863   2.316   4.003
 4207TIP3    H112627   0.781   2.319   4.053
 4207TIP3    H212628   0.881   2.223   3.990
 4208TIP3   OH212629   1.313   4.397   4.689
 4208TIP3    H112630   1.237   4.404   4.747
 4208TIP3    H212631   1.277   4.366   4.606
 4209TIP3   OH212632   6.268   4.326   2.215
 4209TIP3    H112633   6.319   4.298   2.290
 4209TIP3    H212634   6.252   4.420   2.229
 4210TIP3   OH212635   2.935   5.411   4.932
 4210TIP3    H112636   2.953   5.474   4.863
 4210TIP3    H212637   2.888   5.460   4.999
 4211TIP3   OH212638   1.969   4.588   2.075
 4211TIP3    H112639   1.961   4.681   2.054
 4211TIP3    H212640   2.062   4.577   2.098
 4212TIP3   OH212641   1.107   0.667   2.910
 4212TIP3    H112642   1.031   0.631   2.864
 4212TIP3    H212643   1.164   0.699   2.840
 4213TIP3   OH212644   2.153   3.553   0.014
 4213TIP3    H112645   2.152   3.600   0.098
 4213TIP3    H212646   2.194   3.469   0.034
 4214TIP3   OH212647   6.028   1.384   2.623
 4214TIP3    H112648   6.101   1.324   2.632
 4214TIP3    H212649   6.015   1.420   2.711
 4215TIP3   OH212650   3.684   3.813   3.972
 4215TIP3    H112651   3.744   3.805   4.046
 4215TIP3    H212652   3.700   3.901   3.938
 4216TIP3   OH212653   3.714   3.424   1.995
 4216TIP3    H112654   3.694   3.339   1.957
 4216TIP3    H212655   3.809   3.431   1.992
 4217TIP3   OH212656   5.301   1.261   0.613
 4217TIP3    H112657   5.379   1.314   0.597
 4217TIP3    H212658   5.238   1.323   0.651
 4218TIP3   OH212659   1.030   2.520   3.060
 4218TIP3    H112660   1.030   2.427   3.037
 4218TIP3    H212661   1.078   2.562   2.988
 4219TIP3   OH212662   4.529   2.108   3.378
 4219TIP3    H112663   4.594   2.166   3.416
 4219TIP3    H212664   4.477   2.164   3.320
 4220TIP3   OH212665   6.088   0.018   5.095
 4220TIP3    H112666   6.112   0.012   5.003
 4220TIP3    H212667   6.090   0.112   5.115
 4221TIP3   OH212668   2.449   2.911   1.962
 4221TIP3    H112669   2.484   2.997   1.986
 4221TIP3    H212670   2.406   2.879   2.041
 4222TIP3   OH212671   6.074   1.343   3.614
 4222TIP3    H112672   6.155   1.361   3.663
 4222TIP3    H212673   6.081   1.251   3.590
 4223TIP3   OH212674   2.915   2.008   2.045
 4223TIP3    H112675   2.840   2.009   2.104
 4223TIP3    H212676   2.989   2.037   2.098
 4224TIP3   OH212677   6.075   5.781   1.151
 4224TIP3    H112678   6.018   5.772   1.227
 4224TIP3    H212679   6.102   5.872   1.151
 4225TIP3   OH212680   5.706   0.034   0.369
 4225TIP3    H112681   5.653   0.045   0.290
 4225TIP3    H212682   5.787   0.081   0.351
 4226TIP3   OH212683   1.939   3.341   1.086
 4226TIP3    H112684   1.857   3.306   1.122
 4226TIP3    H212685   1.994   3.357   1.162
 4227TIP3   OH212686   3.662   0.963   4.394
 4227TIP3    H112687   3.567   0.948   4.392
 4227TIP3    H212688   3.691   0.918   4.473
 4228TIP3   OH212689   1.144   5.266   1.043
 4228TIP3    H112690   1.211   5.231   1.101
 4228TIP3    H212691   1.097   5.190   1.010
 4229TIP3   OH212692   2.656   2.156   0.609
 4229TIP3    H112693   2.633   2.243   0.642
 4229TIP3    H212694   2.748   2.144   0.635
 4230TIP3   OH212695  -0.013   5.251   1.986
 4230TIP3    H112696  -0.013   5.345   2.002
 4230TIP3    H212697  -0.006   5.243   1.891
 4231TIP3   OH212698   2.701   0.012   2.488
 4231TIP3    H112699   2.741   0.054   2.413
 4231TIP3    H212700   2.652   0.082   2.532
 4232TIP3   OH212701   5.529   3.015   3.388
 4232TIP3    H112702   5.610   3.061   3.408
 4232TIP3    H212703   5.496   3.058   3.309
 4233TIP3   OH212704   4.064   0.120   5.064
 4233TIP3    H112705   4.133   0.059   5.035
 4233TIP3    H212706   4.112   0.194   5.101
 4234TIP3   OH212707   1.871   2.065   1.449
 4234TIP3    H112708   1.796   2.056   1.508
 4234TIP3    H212709   1.906   2.152   1.468
 4235TIP3   OH212710   1.554   1.259   3.088
 4235TIP3    H112711   1.469   1.228   3.118
 4235TIP3    H212712   1.600   1.180   3.062
 4236TIP3   OH212713   1.636   1.314   4.436
 4236TIP3    H112714   1.711   1.305   4.495
 4236TIP3    H212715   1.562   1.278   4.484
 4237TIP3   OH212716   5.004   1.665   3.823
 4237TIP3    H112717   4.969   1.724   3.890
 4237TIP3    H212718   4.947   1.589   3.826
 4238TIP3   OH212719   2.447   2.603   3.126
 4238TIP3    H112720   2.491   2.539   3.070
 4238TIP3    H212721   2.509   2.619   3.197
 4239TIP3   OH212722   5.802   1.614   2.727
 4239TIP3    H112723   5.858   1.574   2.794
 4239TIP3    H212724   5.859   1.621   2.650
 4240TIP3   OH212725   1.879   0.413   1.358
 4240TIP3    H112726   1.838   0.404   1.272
 4240TIP3    H212727   1.922   0.498   1.355
 4241TIP3   OH212728   0.663   3.462   2.331
 4241TIP3    H112729   0.685   3.520   2.404
 4241TIP3    H212730   0.575   3.489   2.304
 4242TIP3   OH212731   5.872   0.887   1.087
 4242TIP3    H112732   5.819   0.889   1.166
 4242TIP3    H212733   5.958   0.919   1.115
 4243TIP3   OH212734   2.741   6.022   1.911
 4243TIP3    H112735   2.801   6.020   1.836
 4243TIP3    H212736   2.654   6.010   1.872
 4244TIP3   OH212737   3.712   5.554   2.453
 4244TIP3    H112738   3.799   5.559   2.492
 4244TIP3    H212739   3.676   5.641   2.464
 4245TIP3   OH212740   4.187   1.683   2.874
 4245TIP3    H112741   4.240   1.613   2.911
 4245TIP3    H212742   4.246   1.730   2.815
 4246TIP3   OH212743   5.063   1.244  -0.033
 4246TIP3    H112744   5.038   1.277   0.054
 4246TIP3    H212745   5.029   1.154  -0.036
 4247TIP3   OH212746   1.366   5.568   2.924
 4247TIP3    H112747   1.367   5.644   2.982
 4247TIP3    H212748   1.375   5.492   2.982
 4248TIP3   OH212749   0.081   5.914   0.647
 4248TIP3    H112750   0.002   5.935   0.696
 4248TIP3    H212751   0.153   5.926   0.709
 4249TIP3   OH212752   0.053   0.219   2.747
 4249TIP3    H112753   0.069   0.196   2.655
 4249TIP3    H212754  -0.039   0.245   2.749
 4250TIP3   OH212755   1.957   0.158   1.958
 4250TIP3    H112756   1.878   0.142   1.906
 4250TIP3    H212757   1.970   0.076   2.007
 4251TIP3   OH212758   5.006   3.672   2.536
 4251TIP3    H112759   5.048   3.595   2.498
 4251TIP3    H212760   5.031   3.669   2.629
 4252TIP3   OH212761   4.276   1.863   1.532
 4252TIP3    H112762   4.359   1.816   1.526
 4252TIP3    H212763   4.209   1.794   1.537
 4253TIP3   OH212764   5.577   3.169   4.090
 4253TIP3    H112765   5.578   3.251   4.040
 4253TIP3    H212766   5.493   3.128   4.068
 4254TIP3   OH212767   1.771   4.194   4.584
 4254TIP3    H112768   1.697   4.173   4.641
 4254TIP3    H212769   1.731   4.229   4.504
 4255TIP3   OH212770   3.135   5.982   4.737
 4255TIP3    H112771   3.105   5.969   4.647
 4255TIP3    H212772   3.100   5.907   4.785
 4256TIP3   OH212773   0.143   0.512   0.245
 4256TIP3    H112774   0.070   0.450   0.252
 4256TIP3    H212775   0.173   0.503   0.154
 4257TIP3   OH212776   2.919   2.309   4.668
 4257TIP3    H112777   2.839   2.288   4.619
 4257TIP3    H212778   2.980   2.239   4.645
 4258TIP3   OH212779   2.839   3.707   0.809
 4258TIP3    H112780   2.803   3.768   0.873
 4258TIP3    H212781   2.799   3.735   0.726
 4259TIP3   OH212782   2.707   0.987   3.166
 4259TIP3    H112783   2.749   0.930   3.102
 4259TIP3    H212784   2.780   1.030   3.211
 4260TIP3   OH212785   2.463   2.400   4.625
 4260TIP3    H112786   2.432   2.386   4.536
 4260TIP3    H212787   2.404   2.467   4.660
 4261TIP3   OH212788   1.023   4.332   4.126
 4261TIP3    H112789   1.110   4.367   4.105
 4261TIP3    H212790   1.039   4.245   4.160
 4262TIP3   OH212791   1.544   1.214   1.036
 4262TIP3    H112792   1.485   1.241   1.107
 4262TIP3    H212793   1.531   1.120   1.028
 4263TIP3   OH212794   3.433   4.223   4.319
 4263TIP3    H112795   3.426   4.241   4.225
 4263TIP3    H212796   3.510   4.272   4.347
 4264TIP3   OH212797   4.935   5.414   0.779
 4264TIP3    H112798   4.870   5.471   0.737
 4264TIP3    H212799   5.005   5.406   0.714
 4265TIP3   OH212800   4.832   4.939   3.988
 4265TIP3    H112801   4.851   4.928   4.082
 4265TIP3    H212802   4.872   5.023   3.965
 4266TIP3   OH212803   1.302   3.894   1.108
 4266TIP3    H112804   1.350   3.977   1.109
 4266TIP3    H212805   1.248   3.896   1.188
 4267TIP3   OH212806   4.310   4.616   1.305
 4267TIP3    H112807   4.337   4.540   1.254
 4267TIP3    H212808   4.369   4.617   1.380
 4268TIP3   OH212809   4.775   5.334   3.413
 4268TIP3    H112810   4.739   5.325   3.502
 4268TIP3    H212811   4.806   5.247   3.390
 4269TIP3   OH212812   3.164   1.087   4.867
 4269TIP3    H112813   3.131   1.015   4.814
 4269TIP3    H212814   3.214   1.141   4.806
 4270TIP3   OH212815   6.190   2.244   3.274
 4270TIP3    H112816   6.185   2.269   3.181
 4270TIP3    H212817   6.284   2.237   3.292
 4271TIP3   OH212818   1.081   2.048   3.495
 4271TIP3    H112819   1.054   2.002   3.574
 4271TIP3    H212820   1.053   1.990   3.423
 4272TIP3   OH212821   3.944   4.090   0.675
 4272TIP3    H112822   3.929   4.037   0.753
 4272TIP3    H212823   3.867   4.147   0.669
 4273TIP3   OH212824   0.038   4.102   4.043
 4273TIP3    H112825   0.112   4.082   3.986
 4273TIP3    H212826   0.065   4.073   4.130
 4274TIP3   OH212827   6.168   3.949   1.639
 4274TIP3    H112828   6.077   3.969   1.616
 4274TIP3    H212829   6.192   3.876   1.581
 4275TIP3   OH212830   4.893   5.572   3.270
 4275TIP3    H112831   4.876   5.494   3.323
 4275TIP3    H212832   4.918   5.538   3.184
 4276TIP3   OH212833   5.697   1.970   0.047
 4276TIP3    H112834   5.686   2.050  -0.006
 4276TIP3    H212835   5.618   1.967   0.101
 4277TIP3   OH212836   4.343   2.783   1.816
 4277TIP3    H112837   4.429   2.825   1.813
 4277TIP3    H212838   4.291   2.831   1.751
 4278TIP3   OH212839   1.140   5.570   1.956
 4278TIP3    H112840   1.139   5.529   2.043
 4278TIP3    H212841   1.065   5.533   1.910
 4279TIP3   OH212842   2.001   4.877   0.975
 4279TIP3    H112843   1.909   4.895   0.993
 4279TIP3    H212844   2.048   4.942   1.027
 4280TIP3   OH212845   5.956   0.853   0.573
 4280TIP3    H112846   6.025   0.866   0.639
 4280TIP3    H212847   5.883   0.814   0.622
 4281TIP3   OH212848   1.599   0.608   2.486
 4281TIP3    H112849   1.657   0.532   2.498
 4281TIP3    H212850   1.659   0.680   2.466
 4282TIP3   OH212851   2.109   3.713   2.218
 4282TIP3    H112852   2.046   3.770   2.173
 4282TIP3    H212853   2.103   3.739   2.310
 4283TIP3   OH212854   5.377   3.543   4.719
 4283TIP3    H112855   5.282   3.534   4.728
 4283TIP3    H212856   5.394   3.637   4.730
 4284TIP3   OH212857   0.757   5.287   2.553
 4284TIP3    H112858   0.725   5.287   2.643
 4284TIP3    H212859   0.845   5.324   2.558
 4285TIP3   OH212860   3.451   1.927   5.057
 4285TIP3    H112861   3.525   1.962   5.007
 4285TIP3    H212862   3.374   1.971   5.022
 4286TIP3   OH212863   5.693  -0.026   1.859
 4286TIP3    H112864   5.731   0.062   1.860
 4286TIP3    H212865   5.619  -0.020   1.798
 4287TIP3   OH212866   5.725   5.071   1.117
 4287TIP3    H112867   5.750   5.153   1.160
 4287TIP3    H212868   5.630   5.074   1.111
 4288TIP3   OH212869   1.815   2.765   4.400
 4288TIP3    H112870   1.901   2.724   4.391
 4288TIP3    H212871   1.765   2.732   4.325
 4289TIP3   OH212872   4.626   0.223   1.224
 4289TIP3    H112873   4.627   0.148   1.165
 4289TIP3    H212874   4.541   0.265   1.207
 4290TIP3   OH212875   3.615   1.606   2.472
 4290TIP3    H112876   3.616   1.679   2.534
 4290TIP3    H212877   3.706   1.597   2.445
 4291TIP3   OH212878   3.157   1.981   3.503
 4291TIP3    H112879   3.180   2.051   3.564
 4291TIP3    H212880   3.121   2.027   3.427
 4292TIP3   OH212881   5.663   1.168   1.831
 4292TIP3    H112882   5.659   1.079   1.797
 4292TIP3    H212883   5.571   1.195   1.837
 4293TIP3   OH212884   0.635   2.554   0.503
 4293TIP3    H112885   0.632   2.549   0.598
 4293TIP3    H212886   0.574   2.487   0.473
 4294TIP3   OH212887   2.422   3.328   3.957
 4294TIP3    H112888   2.425   3.402   3.897
 4294TIP3    H212889   2.434   3.366   4.044
 4295TIP3   OH212890   1.064   0.178   0.272
 4295TIP3    H112891   1.030   0.190   0.183
 4295TIP3    H212892   1.030   0.094   0.300
 4296TIP3   OH212893   2.883   5.644   0.848
 4296TIP3    H112894   2.896   5.589   0.926
 4296TIP3    H212895   2.966   5.689   0.836
 4297TIP3   OH212896   4.057   3.302   0.569
 4297TIP3    H112897   3.987   3.366   0.557
 4297TIP3    H212898   4.062   3.289   0.664
 4298TIP3   OH212899   4.667   1.951   3.943
 4298TIP3    H112900   4.659   1.867   3.897
 4298TIP3    H212901   4.583   1.962   3.988
 4299TIP3   OH212902   0.073   4.314   2.710
 4299TIP3    H112903   0.156   4.362   2.719
 4299TIP3    H212904   0.065   4.297   2.616
 4300TIP3   OH212905   4.585   4.683   2.131
 4300TIP3    H112906   4.655   4.619   2.146
 4300TIP3    H212907   4.622   4.743   2.066
 4301TIP3   OH212908   5.650   3.406   2.123
 4301TIP3    H112909   5.600   3.441   2.050
 4301TIP3    H212910   5.641   3.472   2.192
 4302TIP3   OH212911   0.549   0.463   0.063
 4302TIP3    H112912   0.528   0.416   0.143
 4302TIP3    H212913   0.584   0.547   0.093
 4303TIP3   OH212914   5.003   0.217   2.130
 4303TIP3    H112915   4.948   0.186   2.201
 4303TIP3    H212916   4.964   0.180   2.051
 4304TIP3   OH212917   6.119   1.971   4.325
 4304TIP3    H112918   6.028   1.941   4.320
 4304TIP3    H212919   6.112   2.061   4.356
 4305TIP3   OH212920   4.735   3.745   2.468
 4305TIP3    H112921   4.755   3.784   2.383
 4305TIP3    H212922   4.819   3.740   2.513
 4306TIP3   OH212923   5.897   5.913   0.758
 4306TIP3    H112924   5.849   5.981   0.805
 4306TIP3    H212925   5.918   5.847   0.824
 4307TIP3   OH212926   3.512   5.344   2.565
 4307TIP3    H112927   3.513   5.436   2.591
 4307TIP3    H212928   3.599   5.327   2.530
 4308TIP3   OH212929   3.628   4.401   3.371
 4308TIP3    H112930   3.663   4.402   3.282
 4308TIP3    H212931   3.617   4.494   3.394
 4309TIP3   OH212932   3.270   5.329   0.227
 4309TIP3    H112933   3.237   5.239   0.222
 4309TIP3    H212934   3.261   5.363   0.138
 4310TIP3   OH212935   3.175   1.205   1.536
 4310TIP3    H112936   3.115   1.170   1.470
 4310TIP3    H212937   3.153   1.298   1.542
 4311TIP3   OH212938   5.510   5.192   0.081
 4311TIP3    H112939   5.552   5.106   0.082
 4311TIP3    H212940   5.416   5.173   0.082
 4312TIP3   OH212941   4.031   2.195   4.831
 4312TIP3    H112942   3.952   2.234   4.868
 4312TIP3    H212943   4.096   2.201   4.901
 4313TIP3   OH212944   3.794   4.370   2.175
 4313TIP3    H112945   3.874   4.396   2.129
 4313TIP3    H212946   3.785   4.436   2.244
 4314TIP3   OH212947   2.794   5.659   4.319
 4314TIP3    H112948   2.849   5.661   4.398
 4314TIP3    H212949   2.705   5.653   4.352
 4315TIP3   OH212950   1.691   1.086   4.803
 4315TIP3    H112951   1.629   1.034   4.853
 4315TIP3    H212952   1.728   1.025   4.738
 4316TIP3   OH212953   6.234   4.836   1.394
 4316TIP3    H112954   6.288   4.885   1.457
 4316TIP3    H212955   6.223   4.896   1.320
 4317TIP3   OH212956   3.380   0.825   0.814
 4317TIP3    H112957   3.377   0.908   0.860
 4317TIP3    H212958   3.362   0.848   0.723
 4318TIP3   OH212959   5.260   4.027   0.010
 4318TIP3    H112960   5.199   3.964  -0.028
 4318TIP3    H212961   5.342   4.012  -0.036
 4319TIP3   OH212962   2.417   5.180   3.363
 4319TIP3    H112963   2.395   5.273   3.356
 4319TIP3    H212964   2.345   5.142   3.413
 4320TIP3   OH212965   3.597   1.602   3.613
 4320TIP3    H112966   3.536   1.655   3.561
 4320TIP3    H212967   3.641   1.546   3.549
 4321TIP3   OH212968   4.220   5.414   5.162
 4321TIP3    H112969   4.172   5.492   5.134
 4321TIP3    H212970   4.153   5.356   5.198
 4322TIP3   OH212971   0.837   5.104   1.898
 4322TIP3    H112972   0.907   5.163   1.870
 4322TIP3    H212973   0.762   5.162   1.915
 4323TIP3   OH212974   3.691   3.359   0.075
 4323TIP3    H112975   3.713   3.266   0.073
 4323TIP3    H212976   3.607   3.363   0.120
 4324TIP3   OH212977   2.002   4.948   4.897
 4324TIP3    H112978   1.960   5.034   4.908
 4324TIP3    H212979   1.929   4.886   4.891
 4325TIP3   OH212980   6.133   0.260   1.273
 4325TIP3    H112981   6.170   0.272   1.186
 4325TIP3    H212982   6.044   0.230   1.257
 4326TIP3   OH212983   0.024   4.490   1.340
 4326TIP3    H112984   0.032   4.394   1.342
 4326TIP3    H212985  -0.019   4.508   1.256
 4327TIP3   OH212986   3.756   3.117   0.394
 4327TIP3    H112987   3.845   3.121   0.358
 4327TIP3    H212988   3.740   3.204   0.430
 4328TIP3   OH212989   6.332   0.770   1.283
 4328TIP3    H112990   6.392   0.844   1.291
 4328TIP3    H212991   6.388   0.696   1.256
 4329TIP3   OH212992   2.449   5.480   1.119
 4329TIP3    H112993   2.520   5.446   1.065
 4329TIP3    H212994   2.396   5.402   1.140
 4330TIP3   OH212995   3.374   0.720   2.316
 4330TIP3    H112996   3.376   0.724   2.220
 4330TIP3    H212997   3.289   0.681   2.336
 4331TIP3   OH212998   0.979   0.168   1.032
 4331TIP3    H112999   0.989   0.075   1.056
 4331TIP3    H213000   0.885   0.178   1.018
 4332TIP3   OH213001   5.847   5.751   2.878
 4332TIP3    H113002   5.775   5.688   2.880
 4332TIP3    H213003   5.876   5.757   2.970
 4333TIP3   OH213004   0.991   5.392   0.614
 4333TIP3    H113005   1.012   5.422   0.702
 4333TIP3    H213006   1.015   5.466   0.557
 4334TIP3   OH213007   3.009   2.597   0.075
 4334TIP3    H113008   2.956   2.539   0.019
 4334TIP3    H213009   2.953   2.674   0.089
 4335TIP3   OH213010   1.537   0.501   2.130
 4335TIP3    H113011   1.513   0.450   2.207
 4335TIP3    H213012   1.465   0.487   2.069
 4336TIP3   OH213013  -0.009   2.273   0.377
 4336TIP3    H113014   0.048   2.349   0.393
 4336TIP3    H213015   0.029   2.203   0.431
 4337TIP3   OH213016   5.845   3.228   2.465
 4337TIP3    H113017   5.766   3.174   2.474
 4337TIP3    H213018   5.867   3.252   2.555
 4338TIP3   OH213019   0.622   0.331   3.030
 4338TIP3    H113020   0.636   0.387   3.106
 4338TIP3    H213021   0.706   0.290   3.013
 4339TIP3   OH213022   2.325  -0.006   3.103
 4339TIP3    H113023   2.260  -0.054   3.051
 4339TIP3    H213024   2.285   0.080   3.118
 4340TIP3   OH213025   4.342   4.825   4.812
 4340TIP3    H113026   4.282   4.776   4.869
 4340TIP3    H213027   4.429   4.800   4.841
 4341TIP3   OH213028   6.026   5.849   1.805
 4341TIP3    H113029   5.939   5.843   1.764
 4341TIP3    H213030   6.059   5.934   1.777
 4342TIP3   OH213031   1.354   2.170   1.636
 4342TIP3    H113032   1.417   2.206   1.573
 4342TIP3    H213033   1.338   2.242   1.697
 4343TIP3   OH213034   5.990   3.960   4.535
 4343TIP3    H113035   6.023   4.029   4.478
 4343TIP3    H213036   6.069   3.914   4.565
 4344TIP3   OH213037   2.063   0.366   2.090
 4344TIP3    H113038   2.096   0.331   2.173
 4344TIP3    H213039   2.012   0.294   2.053
 4345TIP3   OH213040   5.310   2.601   3.667
 4345TIP3    H113041   5.295   2.677   3.724
 4345TIP3    H213042   5.405   2.595   3.659
 4346TIP3   OH213043   0.215   5.462   4.735
 4346TIP3    H113044   0.170   5.518   4.672
 4346TIP3    H213045   0.167   5.379   4.732
 4347TIP3   OH213046   5.936   3.154   0.023
 4347TIP3    H113047   5.958   3.078   0.077
 4347TIP3    H213048   6.005   3.157  -0.043
 4348TIP3   OH213049   5.965   1.574   3.784
 4348TIP3    H113050   5.901   1.619   3.729
 4348TIP3    H213051   5.983   1.492   3.740
 4349TIP3   OH213052   4.375   2.348   4.205
 4349TIP3    H113053   4.347   2.304   4.286
 4349TIP3    H213054   4.296   2.388   4.171
 4350TIP3   OH213055   2.876   1.559   2.924
 4350TIP3    H113056   2.863   1.478   2.973
 4350TIP3    H213057   2.805   1.560   2.860
 4351TIP3   OH213058   0.174   4.100   0.459
 4351TIP3    H113059   0.264   4.121   0.436
 4351TIP3    H213060   0.129   4.185   0.458
 4352TIP3   OH213061   0.962   2.285   1.664
 4352TIP3    H113062   1.032   2.288   1.598
 4352TIP3    H213063   0.882   2.276   1.612
 4353TIP3   OH213064   4.701   2.261   2.706
 4353TIP3    H113065   4.622   2.213   2.680
 4353TIP3    H213066   4.743   2.284   2.624
 4354TIP3   OH213067   1.167   0.311   0.901
 4354TIP3    H113068   1.097   0.258   0.938
 4354TIP3    H213069   1.196   0.366   0.973
 4355TIP3   OH213070   5.833   2.568   4.134
 4355TIP3    H113071   5.754   2.617   4.154
 4355TIP3    H213072   5.824   2.543   4.042
 4356TIP3   OH213073   4.175   3.614   2.335
 4356TIP3    H113074   4.232   3.576   2.402
 4356TIP3    H213075   4.187   3.558   2.259
 4357TIP3   OH213076   5.688   5.456   2.164
 4357TIP3    H113077   5.689   5.544   2.126
 4357TIP3    H213078   5.707   5.398   2.090
 4358TIP3   OH213079   0.742   5.541   3.098
 4358TIP3    H113080   0.703   5.578   3.019
 4358TIP3    H213081   0.776   5.616   3.146
 4359TIP3   OH213082   3.442   2.497   5.085
 4359TIP3    H113083   3.497   2.544   5.023
 4359TIP3    H213084   3.482   2.513   5.170
 4360TIP3   OH213085   0.733   4.027   4.117
 4360TIP3    H113086   0.643   4.002   4.099
 4360TIP3    H213087   0.729   4.121   4.135
 4361TIP3   OH213088   0.845   4.027   1.629
 4361TIP3    H113089   0.844   3.982   1.545
 4361TIP3    H213090   0.860   4.119   1.607
 4362TIP3   OH213091   1.377   2.623   2.458
 4362TIP3    H113092   1.405   2.624   2.367
 4362TIP3    H213093   1.397   2.535   2.489
 4363TIP3   OH213094   3.483   0.960   0.325
 4363TIP3    H113095   3.485   0.969   0.229
 4363TIP3    H213096   3.436   0.878   0.339
 4364TIP3   OH213097   1.911   5.696   2.880
 4364TIP3    H113098   1.912   5.791   2.886
 4364TIP3    H213099   1.833   5.669   2.929
 4365TIP3   OH213100   0.538   3.080   4.544
 4365TIP3    H113101   0.546   2.990   4.512
 4365TIP3    H213102   0.498   3.071   4.630
 4366TIP3   OH213103   2.654   1.110   0.757
 4366TIP3    H113104   2.623   1.200   0.766
 4366TIP3    H213105   2.582   1.056   0.789
 4367TIP3   OH213106   4.362   3.563   2.560
 4367TIP3    H113107   4.399   3.611   2.634
 4367TIP3    H213108   4.322   3.485   2.599
 4368TIP3   OH213109   0.369   1.372   1.075
 4368TIP3    H113110   0.328   1.385   0.990
 4368TIP3    H213111   0.429   1.446   1.086
 4369TIP3   OH213112   2.764   0.480   0.526
 4369TIP3    H113113   2.803   0.439   0.448
 4369TIP3    H213114   2.837   0.489   0.587
 4370TIP3   OH213115   2.137   5.302   0.166
 4370TIP3    H113116   2.140   5.311   0.261
 4370TIP3    H213117   2.148   5.208   0.150
 4371TIP3   OH213118   4.760   4.683   0.289
 4371TIP3    H113119   4.813   4.606   0.310
 4371TIP3    H213120   4.678   4.669   0.336
 4372TIP3   OH213121   1.956   4.876   0.185
 4372TIP3    H113122   1.969   4.809   0.118
 4372TIP3    H213123   2.001   4.953   0.150
 4373TIP3   OH213124   0.842   0.878   4.225
 4373TIP3    H113125   0.844   0.916   4.313
 4373TIP3    H213126   0.752   0.845   4.216
 4374TIP3   OH213127   2.364   5.417   0.041
 4374TIP3    H113128   2.415   5.396   0.119
 4374TIP3    H213129   2.273   5.399   0.066
 4375TIP3   OH213130   5.141   4.816   3.532
 4375TIP3    H113131   5.146   4.884   3.464
 4375TIP3    H213132   5.145   4.864   3.614
 4376TIP3   OH213133   4.352   2.044   4.892
 4376TIP3    H113134   4.352   1.996   4.975
 4376TIP3    H213135   4.407   2.120   4.909
 4377TIP3   OH213136   1.019   3.405   3.512
 4377TIP3    H113137   0.945   3.364   3.469
 4377TIP3    H213138   1.054   3.467   3.447
 4378TIP3   OH213139   1.324   4.762   0.431
 4378TIP3    H113140   1.363   4.834   0.381
 4378TIP3    H213141   1.348   4.684   0.382
 4379TIP3   OH213142   4.892   4.349   1.688
 4379TIP3    H113143   4.987   4.359   1.691
 4379TIP3    H213144   4.879   4.254   1.694
 4380TIP3   OH213145   2.248   3.742   5.167
 4380TIP3    H113146   2.203   3.777   5.090
 4380TIP3    H213147   2.230   3.648   5.164
 4381TIP3   OH213148   0.575   1.432   3.366
 4381TIP3    H113149   0.497   1.396   3.325
 4381TIP3    H213150   0.543   1.475   3.446
 4382TIP3   OH213151   5.291   5.353   2.847
 4382TIP3    H113152   5.260   5.437   2.814
 4382TIP3    H213153   5.351   5.320   2.780
 4383TIP3   OH213154   5.617   5.453   0.162
 4383TIP3    H113155   5.704   5.423   0.190
 4383TIP3    H213156   5.568   5.372   0.145
 4384TIP3   OH213157   1.137   4.157   1.303
 4384TIP3    H113158   1.155   4.207   1.223
 4384TIP3    H213159   1.042   4.157   1.310
 4385TIP3   OH213160   3.872   1.076   0.058
 4385TIP3    H113161   3.821   1.085  -0.023
 4385TIP3    H213162   3.908   1.163   0.074
 4386TIP3   OH213163   2.501   2.752   4.848
 4386TIP3    H113164   2.519   2.823   4.787
 4386TIP3    H213165   2.575   2.692   4.837
 4387TIP3   OH213166   0.067   4.988   1.967
 4387TIP3    H113167   0.026   5.075   1.969
 4387TIP3    H213168  -0.006   4.927   1.958
 4388TIP3   OH213169   0.167   3.525   2.277
 4388TIP3    H113170   0.166   3.615   2.243
 4388TIP3    H213171   0.164   3.536   2.373
 4389TIP3   OH213172   2.785   0.511   1.219
 4389TIP3    H113173   2.696   0.489   1.248
 4389TIP3    H213174   2.837   0.433   1.237
 4390TIP3   OH213175   2.611   2.259   2.562
 4390TIP3    H113176   2.528   2.265   2.610
 4390TIP3    H213177   2.601   2.319   2.488
 4391TIP3   OH213178   3.361   4.948   4.932
 4391TIP3    H113179   3.309   4.886   4.983
 4391TIP3    H213180   3.439   4.964   4.986
 4392TIP3   OH213181   2.790   0.358   3.535
 4392TIP3    H113182   2.747   0.317   3.459
 4392TIP3    H213183   2.841   0.430   3.497
 4393TIP3   OH213184   6.297   4.948   4.179
 4393TIP3    H113185   6.287   4.981   4.090
 4393TIP3    H213186   6.327   4.858   4.167
 4394TIP3   OH213187   2.897   0.197   1.509
 4394TIP3    H113188   2.825   0.255   1.485
 4394TIP3    H213189   2.856   0.127   1.559
 4395TIP3   OH213190   2.959   4.082   1.275
 4395TIP3    H113191   2.876   4.046   1.306
 4395TIP3    H213192   2.936   4.170   1.245
 4396TIP3   OH213193   0.046   3.762   1.741
 4396TIP3    H113194   0.132   3.794   1.768
 4396TIP3    H213195  -0.013   3.835   1.759
 4397TIP3   OH213196   4.667   1.375   1.958
 4397TIP3    H113197   4.716   1.306   1.914
 4397TIP3    H213198   4.665   1.447   1.895
 4398TIP3   OH213199   3.225   2.187   3.664
 4398TIP3    H113200   3.241   2.137   3.744
 4398TIP3    H213201   3.281   2.265   3.672
 4399TIP3   OH213202   3.065   2.984   1.202
 4399TIP3    H113203   3.019   2.914   1.248
 4399TIP3    H213204   2.996   3.047   1.180
 4400TIP3   OH213205   2.738   2.861   3.861
 4400TIP3    H113206   2.725   2.890   3.951
 4400TIP3    H213207   2.833   2.862   3.848
 4401TIP3   OH213208   6.172   1.477   3.155
 4401TIP3    H113209   6.186   1.383   3.153
 4401TIP3    H213210   6.258   1.514   3.174
 4402TIP3   OH213211   2.823   1.246   0.202
 4402TIP3    H113212   2.769   1.260   0.280
 4402TIP3    H213213   2.763   1.261   0.129
 4403TIP3   OH213214   2.985   3.476   0.721
 4403TIP3    H113215   3.046   3.512   0.656
 4403TIP3    H213216   2.948   3.553   0.765
 4404TIP3   OH213217   3.332   2.134   2.406
 4404TIP3    H113218   3.420   2.171   2.401
 4404TIP3    H213219   3.309   2.141   2.499
 4405TIP3   OH213220   2.883   3.066   2.967
 4405TIP3    H113221   2.890   2.975   2.996
 4405TIP3    H213222   2.833   3.061   2.885
 4406TIP3   OH213223   1.305   3.484   3.850
 4406TIP3    H113224   1.399   3.480   3.834
 4406TIP3    H213225   1.269   3.526   3.773
 4407TIP3   OH213226   3.585   5.889   2.156
 4407TIP3    H113227   3.602   5.977   2.189
 4407TIP3    H213228   3.623   5.888   2.068
 4408TIP3   OH213229   0.423   3.466   2.126
 4408TIP3    H113230   0.384   3.526   2.062
 4408TIP3    H213231   0.352   3.406   2.148
 4409TIP3   OH213232   2.916   0.843   2.018
 4409TIP3    H113233   2.907   0.851   1.923
 4409TIP3    H213234   2.843   0.787   2.045
 4410TIP3   OH213235   2.458   3.343   3.572
 4410TIP3    H113236   2.488   3.301   3.491
 4410TIP3    H213237   2.428   3.270   3.626
 4411TIP3   OH213238   1.199   4.915   1.754
 4411TIP3    H113239   1.280   4.871   1.779
 4411TIP3    H213240   1.217   4.951   1.667
 4412TIP3   OH213241   3.031   1.632   3.151
 4412TIP3    H113242   2.966   1.680   3.202
 4412TIP3    H213243   2.991   1.621   3.065
 4413TIP3   OH213244   0.822   3.030   4.281
 4413TIP3    H113245   0.752   3.066   4.226
 4413TIP3    H213246   0.875   3.106   4.306
 4414TIP3   OH213247   5.312   0.966   1.595
 4414TIP3    H113248   5.375   1.036   1.578
 4414TIP3    H213249   5.366   0.887   1.605
 4415TIP3   OH213250   2.261   2.451   3.735
 4415TIP3    H113251   2.173   2.457   3.696
 4415TIP3    H213252   2.245   2.456   3.829
 4416TIP3   OH213253   2.457   2.823   0.205
 4416TIP3    H113254   2.375   2.778   0.184
 4416TIP3    H213255   2.493   2.848   0.120
 4417TIP3   OH213256   4.414   2.615   2.986
 4417TIP3    H113257   4.327   2.640   3.018
 4417TIP3    H213258   4.396   2.552   2.915
 4418TIP3   OH213259   1.222   1.100   4.081
 4418TIP3    H113260   1.250   1.029   4.138
 4418TIP3    H213261   1.302   1.151   4.065
 4419TIP3   OH213262   3.661   3.035   0.976
 4419TIP3    H113263   3.702   3.053   0.892
 4419TIP3    H213264   3.612   3.114   0.997
 4420TIP3   OH213265   0.374   0.858   2.884
 4420TIP3    H113266   0.359   0.804   2.962
 4420TIP3    H213267   0.411   0.798   2.820
 4421TIP3   OH213268   4.805   2.435   5.155
 4421TIP3    H113269   4.878   2.495   5.171
 4421TIP3    H213270   4.825   2.396   5.070
 4422TIP3   OH213271   1.716   1.494   2.008
 4422TIP3    H113272   1.674   1.416   2.044
 4422TIP3    H213273   1.756   1.464   1.926
 4423TIP3   OH213274   0.184   2.681   3.243
 4423TIP3    H113275   0.151   2.676   3.333
 4423TIP3    H213276   0.106   2.687   3.189
 4424TIP3   OH213277   3.199   2.008   4.357
 4424TIP3    H113278   3.216   2.059   4.278
 4424TIP3    H213279   3.278   2.017   4.410
 4425TIP3   OH213280   4.298   4.004   2.271
 4425TIP3    H113281   4.215   3.964   2.296
 4425TIP3    H213282   4.279   4.047   2.188
 4426TIP3   OH213283   0.450   5.612   4.675
 4426TIP3    H113284   0.383   5.550   4.702
 4426TIP3    H213285   0.518   5.604   4.741
 4427TIP3   OH213286   1.834   4.282   2.986
 4427TIP3    H113287   1.850   4.369   3.023
 4427TIP3    H213288   1.810   4.299   2.895
 4428TIP3   OH213289   4.571   1.394   0.651
 4428TIP3    H113290   4.591   1.301   0.656
 4428TIP3    H213291   4.609   1.423   0.568
 4429TIP3   OH213292   4.439   5.087   0.803
 4429TIP3    H113293   4.495   5.105   0.879
 4429TIP3    H213294   4.393   5.006   0.825
 4430TIP3   OH213295   3.931   1.883   2.190
 4430TIP3    H113296   3.965   1.968   2.161
 4430TIP3    H213297   3.864   1.861   2.125
 4431TIP3   OH213298   3.262   2.519   0.183
 4431TIP3    H113299   3.308   2.600   0.202
 4431TIP3    H213300   3.188   2.545   0.128
 4432TIP3   OH213301   6.014   2.474   1.939
 4432TIP3    H113302   6.025   2.400   1.999
 4432TIP3    H213303   6.080   2.460   1.871
 4433TIP3   OH213304   2.689   3.116   4.357
 4433TIP3    H113305   2.601   3.112   4.318
 4433TIP3    H213306   2.737   3.177   4.301
 4434TIP3   OH213307   1.789   1.605   3.132
 4434TIP3    H113308   1.749   1.675   3.081
 4434TIP3    H213309   1.851   1.650   3.190
 4435TIP3   OH213310   2.443   0.856   1.628
 4435TIP3    H113311   2.365   0.884   1.581
 4435TIP3    H213312   2.409   0.809   1.704
 4436TIP3   OH213313   5.772   3.431   3.043
 4436TIP3    H113314   5.801   3.522   3.035
 4436TIP3    H213315   5.849   3.379   3.022
 4437TIP3   OH213316   1.363   3.336   3.481
 4437TIP3    H113317   1.355   3.314   3.388
 4437TIP3    H213318   1.329   3.425   3.488
 4438TIP3   OH213319   2.069   2.368   1.230
 4438TIP3    H113320   2.134   2.361   1.300
 4438TIP3    H213321   2.013   2.441   1.256
 4439TIP3   OH213322   3.662   0.025   4.916
 4439TIP3    H113323   3.686   0.118   4.906
 4439TIP3    H213324   3.632   0.018   5.007
 4440TIP3   OH213325   2.711   1.865   1.530
 4440TIP3    H113326   2.758   1.934   1.577
 4440TIP3    H213327   2.779   1.816   1.485
 4441TIP3   OH213328   4.466   4.256   3.846
 4441TIP3    H113329   4.461   4.351   3.833
 4441TIP3    H213330   4.464   4.245   3.941
 4442TIP3   OH213331   4.159   1.536   3.651
 4442TIP3    H113332   4.137   1.577   3.568
 4442TIP3    H213333   4.086   1.557   3.709
 4443TIP3   OH213334   3.503   3.972   2.600
 4443TIP3    H113335   3.437   4.041   2.589
 4443TIP3    H213336   3.517   3.937   2.512
 4444TIP3   OH213337   3.605   1.566   5.018
 4444TIP3    H113338   3.624   1.605   4.933
 4444TIP3    H213339   3.669   1.604   5.078
 4445TIP3   OH213340   5.342   4.045   3.432
 4445TIP3    H113341   5.437   4.048   3.420
 4445TIP3    H213342   5.309   4.008   3.350
 4446TIP3   OH213343   5.418   5.624   2.523
 4446TIP3    H113344   5.484   5.560   2.552
 4446TIP3    H213345   5.441   5.642   2.431
 4447TIP3   OH213346   4.778   2.678   1.636
 4447TIP3    H113347   4.727   2.598   1.622
 4447TIP3    H213348   4.725   2.730   1.695
 4448TIP3   OH213349   3.723   0.590   3.712
 4448TIP3    H113350   3.668   0.662   3.681
 4448TIP3    H213351   3.661   0.525   3.745
 4449TIP3   OH213352   4.206  -0.039   2.987
 4449TIP3    H113353   4.240   0.048   3.009
 4449TIP3    H213354   4.118  -0.023   2.955
 4450TIP3   OH213355   1.904   1.059   3.124
 4450TIP3    H113356   1.945   0.983   3.081
 4450TIP3    H213357   1.952   1.067   3.207
 4451TIP3   OH213358   0.699   4.101   4.840
 4451TIP3    H113359   0.689   4.191   4.872
 4451TIP3    H213360   0.734   4.052   4.915
 4452TIP3   OH213361   2.009   2.513   3.680
 4452TIP3    H113362   2.001   2.569   3.757
 4452TIP3    H213363   1.933   2.454   3.685
 4453TIP3   OH213364   6.307   0.374   0.382
 4453TIP3    H113365   6.285   0.282   0.369
 4453TIP3    H213366   6.224   0.415   0.408
 4454TIP3   OH213367   5.169   2.626   4.066
 4454TIP3    H113368   5.149   2.549   4.119
 4454TIP3    H213369   5.265   2.627   4.061
 4455TIP3   OH213370   4.967   5.458   2.247
 4455TIP3    H113371   4.947   5.550   2.264
 4455TIP3    H213372   5.011   5.428   2.327
 4456TIP3   OH213373   2.972   4.244   2.893
 4456TIP3    H113374   2.921   4.169   2.923
 4456TIP3    H213375   3.060   4.229   2.926
 4457TIP3   OH213376   6.015   3.398   5.019
 4457TIP3    H113377   6.072   3.407   5.095
 4457TIP3    H213378   5.927   3.387   5.056
 4458TIP3   OH213379   3.347   0.053   1.715
 4458TIP3    H113380   3.259   0.031   1.746
 4458TIP3    H213381   3.404  -0.009   1.760
 4459TIP3   OH213382   4.409   0.979   2.300
 4459TIP3    H113383   4.415   0.952   2.391
 4459TIP3    H213384   4.325   0.946   2.270
 4460TIP3   OH213385   4.641   5.558   3.021
 4460TIP3    H113386   4.724   5.511   3.012
 4460TIP3    H213387   4.642   5.624   2.952
 4461TIP3   OH213388   4.325   3.760   1.315
 4461TIP3    H113389   4.358   3.671   1.305
 4461TIP3    H213390   4.253   3.766   1.253
 4462TIP3   OH213391   2.048   2.217   3.497
 4462TIP3    H113392   2.084   2.153   3.435
 4462TIP3    H213393   2.050   2.300   3.449
 4463TIP3   OH213394   6.198   5.967   2.483
 4463TIP3    H113395   6.216   5.880   2.446
 4463TIP3    H213396   6.200   5.954   2.578
 4464TIP3   OH213397   1.002   5.461   2.528
 4464TIP3    H113398   1.055   5.435   2.604
 4464TIP3    H213399   0.985   5.554   2.541
 4465TIP3   OH213400   0.089   3.940   2.648
 4465TIP3    H113401   0.123   4.002   2.584
 4465TIP3    H213402   0.034   3.880   2.596
 4466TIP3   OH213403   4.684   2.188   2.974
 4466TIP3    H113404   4.669   2.270   3.021
 4466TIP3    H213405   4.730   2.213   2.895
 4467TIP3   OH213406   1.384   2.256   4.965
 4467TIP3    H113407   1.334   2.198   4.908
 4467TIP3    H213408   1.405   2.203   5.042
 4468TIP3   OH213409   0.244   3.824   0.730
 4468TIP3    H113410   0.281   3.750   0.680
 4468TIP3    H213411   0.279   3.812   0.818
 4469TIP3   OH213412   3.334   4.416   0.669
 4469TIP3    H113413   3.305   4.491   0.617
 4469TIP3    H213414   3.401   4.451   0.727
 4470TIP3   OH213415   2.471   1.147   0.460
 4470TIP3    H113416   2.555   1.186   0.483
 4470TIP3    H213417   2.406   1.215   0.481
 4471TIP3   OH213418   2.014   4.169   3.387
 4471TIP3    H113419   2.081   4.212   3.334
 4471TIP3    H213420   2.055   4.157   3.473
 4472TIP3   OH213421   2.429   5.067   2.517
 4472TIP3    H113422   2.443   4.997   2.454
 4472TIP3    H213423   2.362   5.123   2.477
 4473TIP3   OH213424   2.615   4.141   2.496
 4473TIP3    H113425   2.688   4.164   2.553
 4473TIP3    H213426   2.594   4.051   2.519
 4474TIP3   OH213427   6.291   5.649   4.984
 4474TIP3    H113428   6.249   5.709   5.046
 4474TIP3    H213429   6.359   5.702   4.943
 4475TIP3   OH213430   0.665   3.386   0.729
 4475TIP3    H113431   0.673   3.299   0.689
 4475TIP3    H213432   0.682   3.447   0.657
 4476TIP3   OH213433   3.024   5.321   4.592
 4476TIP3    H113434   2.944   5.289   4.634
 4476TIP3    H213435   2.993   5.389   4.532
 4477TIP3   OH213436   5.541   1.042   2.290
 4477TIP3    H113437   5.522   1.105   2.359
 4477TIP3    H213438   5.497   1.078   2.213
 4478TIP3   OH213439   2.722   1.373   4.177
 4478TIP3    H113440   2.689   1.423   4.252
 4478TIP3    H213441   2.669   1.294   4.177
 4479TIP3   OH213442   3.030   0.220   0.086
 4479TIP3    H113443   3.037   0.314   0.101
 4479TIP3    H213444   2.938   0.200   0.105
 4480TIP3   OH213445   5.142   1.584   0.405
 4480TIP3    H113446   5.234   1.564   0.384
 4480TIP3    H213447   5.116   1.514   0.465
 4481TIP3   OH213448   1.577   3.695   5.076
 4481TIP3    H113449   1.662   3.693   5.118
 4481TIP3    H213450   1.514   3.707   5.148
 4482TIP3   OH213451   0.405   4.894   3.624
 4482TIP3    H113452   0.481   4.837   3.626
 4482TIP3    H213453   0.355   4.864   3.548
 4483TIP3   OH213454   4.648   5.263   4.847
 4483TIP3    H113455   4.697   5.251   4.929
 4483TIP3    H213456   4.564   5.300   4.874
 4484TIP3   OH213457   5.866   5.502   3.943
 4484TIP3    H113458   5.828   5.427   3.988
 4484TIP3    H213459   5.820   5.578   3.978
 4485TIP3   OH213460   4.060   2.153   2.379
 4485TIP3    H113461   3.984   2.134   2.325
 4485TIP3    H213462   4.035   2.231   2.428
 4486TIP3   OH213463   4.488   0.948   0.196
 4486TIP3    H113464   4.521   0.972   0.282
 4486TIP3    H213465   4.405   0.905   0.213
 4487TIP3   OH213466   5.435   0.454   3.633
 4487TIP3    H113467   5.354   0.433   3.587
 4487TIP3    H213468   5.476   0.523   3.580
 4488TIP3   OH213469   0.678   5.050   0.498
 4488TIP3    H113470   0.705   5.138   0.473
 4488TIP3    H213471   0.753   5.015   0.547
 4489TIP3   OH213472   2.273   1.362   2.407
 4489TIP3    H113473   2.324   1.282   2.391
 4489TIP3    H213474   2.226   1.345   2.489
 4490TIP3   OH213475   3.965   3.193   3.600
 4490TIP3    H113476   3.884   3.163   3.559
 4490TIP3    H213477   3.949   3.284   3.623
 4491TIP3   OH213478   5.290   4.047   4.657
 4491TIP3    H113479   5.237   3.999   4.594
 4491TIP3    H213480   5.363   4.082   4.606
 4492TIP3   OH213481   6.323   3.989   0.247
 4492TIP3    H113482   6.416   3.967   0.239
 4492TIP3    H213483   6.302   3.972   0.339
 4493TIP3   OH213484   2.033   5.487   0.869
 4493TIP3    H113485   2.084   5.562   0.839
 4493TIP3    H213486   1.946   5.499   0.830
 4494TIP3   OH213487   2.315   0.672   0.483
 4494TIP3    H113488   2.378   0.617   0.530
 4494TIP3    H213489   2.355   0.759   0.484
 4495TIP3   OH213490   5.722   4.121   3.631
 4495TIP3    H113491   5.785   4.180   3.588
 4495TIP3    H213492   5.650   4.178   3.657
 4496TIP3   OH213493   2.049   5.187   0.921
 4496TIP3    H113494   2.132   5.183   0.969
 4496TIP3    H213495   2.039   5.279   0.897
 4497TIP3   OH213496   1.242   5.666   1.352
 4497TIP3    H113497   1.183   5.740   1.359
 4497TIP3    H213498   1.189   5.596   1.313
 4498TIP3   OH213499   0.277   4.190   1.811
 4498TIP3    H113500   0.282   4.230   1.898
 4498TIP3    H213501   0.184   4.185   1.792
 4499TIP3   OH213502   3.210   3.720   3.734
 4499TIP3    H113503   3.215   3.650   3.799
 4499TIP3    H213504   3.121   3.754   3.742
 4500TIP3   OH213505   5.629   3.390   1.538
 4500TIP3    H113506   5.551   3.352   1.578
 4500TIP3    H213507   5.696   3.322   1.545
 4501TIP3   OH213508   3.161   4.135   4.312
 4501TIP3    H113509   3.248   4.176   4.315
 4501TIP3    H213510   3.128   4.142   4.402
 4502TIP3   OH213511   3.383   2.886   4.901
 4502TIP3    H113512   3.403   2.979   4.916
 4502TIP3    H213513   3.348   2.855   4.984
 4503TIP3   OH213514   2.613   4.713   4.996
 4503TIP3    H113515   2.541   4.663   4.957
 4503TIP3    H213516   2.647   4.765   4.924
 4504TIP3   OH213517   4.247   0.994   4.824
 4504TIP3    H113518   4.249   0.963   4.915
 4504TIP3    H213519   4.280   1.083   4.829
 4505TIP3   OH213520   1.060   3.650   1.591
 4505TIP3    H113521   1.041   3.625   1.501
 4505TIP3    H213522   1.154   3.670   1.591
 4506TIP3   OH213523   2.023   4.569   3.693
 4506TIP3    H113524   2.008   4.564   3.787
 4506TIP3    H213525   1.936   4.569   3.654
 4507TIP3   OH213526   5.707   2.216   2.870
 4507TIP3    H113527   5.749   2.130   2.883
 4507TIP3    H213528   5.613   2.198   2.881
 4508TIP3   OH213529   4.002   2.468   3.643
 4508TIP3    H113530   3.969   2.474   3.733
 4508TIP3    H213531   3.925   2.442   3.591
 4509TIP3   OH213532   4.698   3.766   0.761
 4509TIP3    H113533   4.769   3.783   0.823
 4509TIP3    H213534   4.715   3.825   0.688
 4510TIP3   OH213535   1.832   3.448   0.249
 4510TIP3    H113536   1.903   3.506   0.223
 4510TIP3    H213537   1.813   3.471   0.339
 4511TIP3   OH213538   3.241   0.556   2.795
 4511TIP3    H113539   3.251   0.611   2.718
 4511TIP3    H213540   3.195   0.478   2.763
 4512TIP3   OH213541   1.558   5.294   3.845
 4512TIP3    H113542   1.641   5.247   3.835
 4512TIP3    H213543   1.524   5.264   3.930
 4513TIP3   OH213544   1.494   3.566   4.839
 4513TIP3    H113545   1.458   3.503   4.902
 4513TIP3    H213546   1.537   3.632   4.894
 4514TIP3   OH213547   2.964   1.482   4.227
 4514TIP3    H113548   2.882   1.438   4.248
 4514TIP3    H213549   2.937   1.567   4.192
 4515TIP3   OH213550   3.241   4.888   4.066
 4515TIP3    H113551   3.183   4.890   3.990
 4515TIP3    H213552   3.227   4.802   4.105
 4516TIP3   OH213553   5.359   5.811   4.380
 4516TIP3    H113554   5.377   5.747   4.449
 4516TIP3    H213555   5.432   5.802   4.319
 4517TIP3   OH213556   2.733   1.656   0.663
 4517TIP3    H113557   2.662   1.707   0.625
 4517TIP3    H213558   2.689   1.583   0.707
 4518TIP3   OH213559   2.705   0.235   3.303
 4518TIP3    H113560   2.613   0.236   3.275
 4518TIP3    H213561   2.730   0.143   3.295
 4519TIP3   OH213562   3.249   5.639   1.980
 4519TIP3    H113563   3.198   5.560   1.995
 4519TIP3    H213564   3.271   5.637   1.887
 4520TIP3   OH213565   1.261   2.163   4.747
 4520TIP3    H113566   1.350   2.167   4.714
 4520TIP3    H213567   1.206   2.182   4.671
 4521TIP3   OH213568   2.613   3.859   4.633
 4521TIP3    H113569   2.575   3.946   4.619
 4521TIP3    H213570   2.690   3.875   4.687
 4522TIP3   OH213571   4.781   0.376   0.465
 4522TIP3    H113572   4.858   0.322   0.481
 4522TIP3    H213573   4.783   0.396   0.371
 4523TIP3   OH213574   4.479   3.446   2.936
 4523TIP3    H113575   4.482   3.526   2.884
 4523TIP3    H213576   4.393   3.446   2.976
 4524TIP3   OH213577   0.076   0.976   2.641
 4524TIP3    H113578   0.054   0.956   2.549
 4524TIP3    H213579   0.155   1.030   2.636
 4525TIP3   OH213580   2.125   1.522   2.256
 4525TIP3    H113581   2.034   1.495   2.269
 4525TIP3    H213582   2.175   1.467   2.317
 4526TIP3   OH213583   0.602   2.988   4.020
 4526TIP3    H113584   0.543   2.915   4.005
 4526TIP3    H213585   0.569   3.028   4.101
 4527TIP3   OH213586   3.349   2.469   3.656
 4527TIP3    H113587   3.412   2.534   3.627
 4527TIP3    H213588   3.327   2.496   3.745
 4528TIP3   OH213589   5.515   4.216   4.885
 4528TIP3    H113590   5.460   4.195   4.809
 4528TIP3    H213591   5.579   4.145   4.889
 4529TIP3   OH213592   1.507   1.669   0.591
 4529TIP3    H113593   1.596   1.700   0.573
 4529TIP3    H213594   1.510   1.576   0.569
 4530TIP3   OH213595   0.185   5.237   0.588
 4530TIP3    H113596   0.120   5.230   0.518
 4530TIP3    H213597   0.270   5.234   0.542
 4531TIP3   OH213598   2.964   0.560   3.413
 4531TIP3    H113599   2.957   0.637   3.356
 4531TIP3    H213600   2.968   0.596   3.502
 4532TIP3   OH213601   3.160   4.169   0.913
 4532TIP3    H113602   3.162   4.141   0.821
 4532TIP3    H213603   3.082   4.127   0.949
 4533TIP3   OH213604   4.300   0.426   4.971
 4533TIP3    H113605   4.281   0.505   5.022
 4533TIP3    H213606   4.218   0.377   4.973
 4534TIP3   OH213607   3.116   2.863   4.472
 4534TIP3    H113608   3.152   2.868   4.560
 4534TIP3    H213609   3.164   2.793   4.429
 4535TIP3   OH213610   2.149   3.015   0.202
 4535TIP3    H113611   2.085   3.086   0.207
 4535TIP3    H213612   2.205   3.038   0.129
 4536TIP3   OH213613   2.795   3.972   4.158
 4536TIP3    H113614   2.878   3.938   4.126
 4536TIP3    H213615   2.762   3.905   4.218
 4537TIP3   OH213616   2.811   1.978   4.728
 4537TIP3    H113617   2.897   1.987   4.687
 4537TIP3    H213618   2.790   2.066   4.759
 4538TIP3   OH213619   1.642   3.744   1.448
 4538TIP3    H113620   1.698   3.747   1.525
 4538TIP3    H213621   1.646   3.653   1.419
 4539TIP3   OH213622   2.601   2.350   3.467
 4539TIP3    H113623   2.594   2.445   3.468
 4539TIP3    H213624   2.522   2.320   3.423
 4540TIP3   OH213625   2.168   3.998   0.016
 4540TIP3    H113626   2.135   4.063  -0.046
 4540TIP3    H213627   2.101   3.930   0.017
 4541TIP3   OH213628   2.124   5.558   0.387
 4541TIP3    H113629   2.051   5.561   0.325
 4541TIP3    H213630   2.179   5.632   0.363
 4542TIP3   OH213631   1.107   1.009   5.138
 4542TIP3    H113632   1.113   0.916   5.156
 4542TIP3    H213633   1.041   1.017   5.070
 4543TIP3   OH213634   5.362   3.990   0.635
 4543TIP3    H113635   5.434   3.964   0.692
 4543TIP3    H213636   5.365   3.927   0.562
 4544TIP3   OH213637   0.896   1.062   4.422
 4544TIP3    H113638   0.836   1.038   4.493
 4544TIP3    H213639   0.846   1.125   4.369
 4545TIP3   OH213640   6.310   2.735   1.951
 4545TIP3    H113641   6.354   2.651   1.964
 4545TIP3    H213642   6.380   2.797   1.932
 4546TIP3   OH213643   0.609   4.695   0.633
 4546TIP3    H113644   0.585   4.727   0.546
 4546TIP3    H213645   0.704   4.707   0.637
 4547TIP3   OH213646   1.386   1.442   2.105
 4547TIP3    H113647   1.406   1.388   2.181
 4547TIP3    H213648   1.333   1.514   2.139
 4548TIP3   OH213649   1.934   2.077   5.203
 4548TIP3    H113650   1.841   2.059   5.213
 4548TIP3    H213651   1.947   2.091   5.109
 4549TIP3   OH213652   3.155   3.827   4.254
 4549TIP3    H113653   3.156   3.918   4.225
 4549TIP3    H213654   3.244   3.795   4.241
 4550TIP3   OH213655   3.111   2.146   2.873
 4550TIP3    H113656   3.035   2.131   2.817
 4550TIP3    H213657   3.086   2.222   2.926
 4551TIP3   OH213658   2.701   4.034   1.429
 4551TIP3    H113659   2.650   3.998   1.502
 4551TIP3    H213660   2.638   4.082   1.377
 4552TIP3   OH213661   5.538   2.556   5.066
 4552TIP3    H113662   5.624   2.584   5.036
 4552TIP3    H213663   5.555   2.482   5.124
 4553TIP3   OH213664   5.785   0.165   2.649
 4553TIP3    H113665   5.794   0.238   2.710
 4553TIP3    H213666   5.846   0.186   2.577
 4554TIP3   OH213667   4.674   3.812   0.476
 4554TIP3    H113668   4.667   3.896   0.432
 4554TIP3    H213669   4.586   3.776   0.475
 4555TIP3   OH213670   4.952   4.688   1.845
 4555TIP3    H113671   4.913   4.763   1.890
 4555TIP3    H213672   4.900   4.613   1.874
 4556TIP3   OH213673   1.352   4.266   0.218
 4556TIP3    H113674   1.340   4.293   0.127
 4556TIP3    H213675   1.447   4.256   0.227
 4557TIP3   OH213676   4.920   3.618   4.557
 4557TIP3    H113677   4.966   3.662   4.485
 4557TIP3    H213678   4.910   3.528   4.528
 4558TIP3   OH213679   2.697   5.241   0.010
 4558TIP3    H113680   2.643   5.290   0.072
 4558TIP3    H213681   2.637   5.175  -0.026
 4559TIP3   OH213682   3.553   4.826   1.421
 4559TIP3    H113683   3.625   4.767   1.399
 4559TIP3    H213684   3.475   4.771   1.416
 4560TIP3   OH213685   5.367   3.026   4.002
 4560TIP3    H113686   5.360   2.976   3.921
 4560TIP3    H213687   5.282   3.067   4.013
 4561TIP3   OH213688   6.129   4.780   2.304
 4561TIP3    H113689   6.061   4.822   2.357
 4561TIP3    H213690   6.095   4.783   2.215
 4562TIP3   OH213691   2.963   2.754   1.839
 4562TIP3    H113692   2.873   2.765   1.870
 4562TIP3    H213693   2.966   2.665   1.804
 4563TIP3   OH213694   0.325   0.687   2.196
 4563TIP3    H113695   0.291   0.722   2.113
 4563TIP3    H213696   0.344   0.595   2.178
 4564TIP3   OH213697   3.176   4.798   5.072
 4564TIP3    H113698   3.154   4.857   5.145
 4564TIP3    H213699   3.091   4.766   5.042
 4565TIP3   OH213700   0.871   4.706   0.680
 4565TIP3    H113701   0.958   4.739   0.656
 4565TIP3    H213702   0.876   4.612   0.664
 4566TIP3   OH213703   5.764   5.281   1.955
 4566TIP3    H113704   5.850   5.242   1.936
 4566TIP3    H213705   5.708   5.207   1.977
 4567TIP3   OH213706   4.418   4.640   2.980
 4567TIP3    H113707   4.396   4.551   3.007
 4567TIP3    H213708   4.483   4.669   3.044
 4568TIP3   OH213709   3.646   4.286   2.486
 4568TIP3    H113710   3.594   4.253   2.413
 4568TIP3    H213711   3.595   4.264   2.564
 4569TIP3   OH213712   3.981   3.144   0.921
 4569TIP3    H113713   4.003   3.218   0.978
 4569TIP3    H213714   3.888   3.156   0.902
 4570TIP3   OH213715   2.768   4.423   5.008
 4570TIP3    H113716   2.798   4.474   4.933
 4570TIP3    H213717   2.673   4.435   5.007
 4571TIP3   OH213718   3.187   1.337   3.417
 4571TIP3    H113719   3.173   1.272   3.486
 4571TIP3    H213720   3.237   1.407   3.459
 4572TIP3   OH213721   5.066   0.961   2.747
 4572TIP3    H113722   5.022   1.037   2.709
 4572TIP3    H213723   5.077   0.901   2.673
 4573TIP3   OH213724   2.907   2.583   1.461
 4573TIP3    H113725   2.950   2.498   1.471
 4573TIP3    H213726   2.817   2.567   1.489
 4574TIP3   OH213727   3.969   1.482   1.133
 4574TIP3    H113728   3.976   1.577   1.127
 4574TIP3    H213729   4.044   1.449   1.083
 4575TIP3   OH213730   3.183   5.882   3.482
 4575TIP3    H113731   3.221   5.821   3.420
 4575TIP3    H213732   3.229   5.965   3.467
 4576TIP3   OH213733   5.208   4.052   2.721
 4576TIP3    H113734   5.191   4.111   2.794
 4576TIP3    H213735   5.173   3.968   2.751
 4577TIP3   OH213736   0.591   1.508   0.394
 4577TIP3    H113737   0.672   1.521   0.443
 4577TIP3    H213738   0.529   1.570   0.432
 4578TIP3   OH213739   3.871   0.638   3.924
 4578TIP3    H113740   3.836   0.587   3.997
 4578TIP3    H213741   3.810   0.622   3.852
 4579TIP3   OH213742   0.184   0.325   4.557
 4579TIP3    H113743   0.134   0.268   4.616
 4579TIP3    H213744   0.273   0.322   4.591
 4580TIP3   OH213745   4.477   3.784   4.450
 4580TIP3    H113746   4.496   3.873   4.479
 4580TIP3    H213747   4.513   3.780   4.361
 4581TIP3   OH213748   4.116   2.773   0.043
 4581TIP3    H113749   4.069   2.835   0.098
 4581TIP3    H213750   4.205   2.772   0.077
 4582TIP3   OH213751   2.744   2.885   3.409
 4582TIP3    H113752   2.689   2.914   3.482
 4582TIP3    H213753   2.706   2.927   3.332
 4583TIP3   OH213754   5.061   4.548   1.391
 4583TIP3    H113755   5.127   4.505   1.445
 4583TIP3    H213756   5.002   4.591   1.453
 4584TIP3   OH213757   4.320   3.167   0.085
 4584TIP3    H113758   4.255   3.237   0.091
 4584TIP3    H213759   4.379   3.182   0.159
 4585TIP3   OH213760   6.201   0.033   0.986
 4585TIP3    H113761   6.230   0.104   1.042
 4585TIP3    H213762   6.136  -0.014   1.038
 4586TIP3   OH213763   3.552   2.638   3.584
 4586TIP3    H113764   3.590   2.580   3.518
 4586TIP3    H213765   3.549   2.724   3.541
 4587TIP3   OH213766   1.614   4.515   1.673
 4587TIP3    H113767   1.623   4.564   1.591
 4587TIP3    H213768   1.623   4.423   1.647
 4588TIP3   OH213769   1.131   3.850   1.346
 4588TIP3    H113770   1.036   3.836   1.339
 4588TIP3    H213771   1.140   3.944   1.362
 4589TIP3   OH213772   3.736   1.113   3.180
 4589TIP3    H113773   3.811   1.059   3.204
 4589TIP3    H213774   3.706   1.151   3.263
 4590TIP3   OH213775   3.984   4.463   2.028
 4590TIP3    H113776   4.001   4.556   2.036
 4590TIP3    H213777   3.975   4.447   1.934
 4591TIP3   OH213778   0.236   1.129   0.771
 4591TIP3    H113779   0.268   1.064   0.834
 4591TIP3    H213780   0.315   1.175   0.742
 4592TIP3   OH213781   2.820   4.512   2.365
 4592TIP3    H113782   2.869   4.439   2.328
 4592TIP3    H213783   2.887   4.568   2.405
 4593TIP3   OH213784   3.024   0.440   0.623
 4593TIP3    H113785   3.081   0.363   0.634
 4593TIP3    H213786   3.083   0.515   0.632
 4594TIP3   OH213787   4.444   5.647   4.489
 4594TIP3    H113788   4.530   5.684   4.468
 4594TIP3    H213789   4.387   5.678   4.419
 4595TIP3   OH213790   2.671   0.036   1.595
 4595TIP3    H113791   2.677   0.117   1.646
 4595TIP3    H213792   2.610  -0.019   1.645
 4596TIP3   OH213793   5.163   2.924   1.887
 4596TIP3    H113794   5.092   2.887   1.835
 4596TIP3    H213795   5.128   3.006   1.922
 4597TIP3   OH213796   2.455   4.494   0.441
 4597TIP3    H113797   2.474   4.580   0.477
 4597TIP3    H213798   2.362   4.497   0.421
 4598TIP3   OH213799   2.108   3.515   0.528
 4598TIP3    H113800   2.026   3.547   0.567
 4598TIP3    H213801   2.177   3.549   0.585
 4599TIP3   OH213802   5.386   0.219   4.630
 4599TIP3    H113803   5.336   0.297   4.607
 4599TIP3    H213804   5.320   0.152   4.647
 4600TIP3   OH213805   3.602   2.021   2.114
 4600TIP3    H113806   3.635   2.106   2.085
 4600TIP3    H213807   3.667   1.958   2.082
 4601TIP3   OH213808   1.062   4.729   3.286
 4601TIP3    H113809   0.992   4.741   3.350
 4601TIP3    H213810   1.030   4.660   3.228
 4602TIP3   OH213811   5.829   3.664   3.865
 4602TIP3    H113812   5.892   3.735   3.867
 4602TIP3    H213813   5.858   3.604   3.934
 4603TIP3   OH213814   5.047   0.536   0.896
 4603TIP3    H113815   4.968   0.503   0.852
 4603TIP3    H213816   5.021   0.622   0.929
 4604TIP3   OH213817   4.849   1.012   0.469
 4604TIP3    H113818   4.928   0.965   0.493
 4604TIP3    H213819   4.839   0.996   0.375
 4605TIP3   OH213820   4.488   1.628   2.090
 4605TIP3    H113821   4.469   1.698   2.028
 4605TIP3    H213822   4.539   1.670   2.159
 4606TIP3   OH213823   2.542   2.735   2.473
 4606TIP3    H113824   2.506   2.816   2.510
 4606TIP3    H213825   2.479   2.667   2.496
 4607TIP3   OH213826   2.255   4.143   3.950
 4607TIP3    H113827   2.249   4.238   3.952
 4607TIP3    H213828   2.297   4.120   4.033
 4608TIP3   OH213829   5.673   5.915   4.654
 4608TIP3    H113830   5.692   5.972   4.729
 4608TIP3    H213831   5.671   5.975   4.579
 4609TIP3   OH213832   2.006   2.944   4.161
 4609TIP3    H113833   2.011   2.861   4.114
 4609TIP3    H213834   2.080   2.995   4.127
 4610TIP3   OH213835   1.479   0.062   3.666
 4610TIP3    H113836   1.396   0.016   3.660
 4610TIP3    H213837   1.456   0.150   3.698
 4611TIP3   OH213838   3.433   3.533   0.429
 4611TIP3    H113839   3.395   3.571   0.508
 4611TIP3    H213840   3.528   3.537   0.443
 4612TIP3   OH213841   0.103   0.755   3.556
 4612TIP3    H113842   0.014   0.787   3.568
 4612TIP3    H213843   0.092   0.667   3.519
 4613TIP3   OH213844   5.010   4.703   4.043
 4613TIP3    H113845   5.092   4.681   3.999
 4613TIP3    H213846   5.024   4.792   4.077
 4614TIP3   OH213847   0.272   0.019   1.515
 4614TIP3    H113848   0.223  -0.041   1.572
 4614TIP3    H213849   0.236   0.004   1.428
 4615TIP3   OH213850   2.310   4.670   2.887
 4615TIP3    H113851   2.245   4.599   2.890
 4615TIP3    H213852   2.365   4.655   2.964
 4616TIP3   OH213853   1.332   1.898   1.572
 4616TIP3    H113854   1.416   1.920   1.531
 4616TIP3    H213855   1.320   1.967   1.638
 4617TIP3   OH213856   4.407   5.719   1.895
 4617TIP3    H113857   4.380   5.719   1.803
 4617TIP3    H213858   4.470   5.791   1.902
 4618TIP3   OH213859   1.760   3.179   3.739
 4618TIP3    H113860   1.694   3.222   3.794
 4618TIP3    H213861   1.749   3.086   3.757
 4619TIP3   OH213862   3.338   3.295   3.272
 4619TIP3    H113863   3.386   3.348   3.209
 4619TIP3    H213864   3.309   3.219   3.222
 4620TIP3   OH213865   1.888   5.391   1.382
 4620TIP3    H113866   1.905   5.419   1.472
 4620TIP3    H213867   1.830   5.459   1.347
 4621TIP3   OH213868   0.299   5.179   0.164
 4621TIP3    H113869   0.381   5.226   0.177
 4621TIP3    H213870   0.233   5.247   0.155
 4622TIP3   OH213871   0.010   2.643   4.948
 4622TIP3    H113872   0.054   2.603   4.874
 4622TIP3    H213873  -0.081   2.651   4.921
 4623TIP3   OH213874   3.216   3.425   1.790
 4623TIP3    H113875   3.160   3.350   1.770
 4623TIP3    H213876   3.164   3.478   1.850
 4624TIP3   OH213877   5.713   5.718   2.069
 4624TIP3    H113878   5.803   5.747   2.050
 4624TIP3    H213879   5.668   5.721   1.985
 4625TIP3   OH213880   5.864   5.655   1.397
 4625TIP3    H113881   5.934   5.704   1.440
 4625TIP3    H213882   5.866   5.569   1.438
 4626TIP3   OH213883   2.152   4.605   3.449
 4626TIP3    H113884   2.194   4.540   3.393
 4626TIP3    H213885   2.070   4.564   3.477
 4627TIP3   OH213886   4.948   5.393   3.066
 4627TIP3    H113887   5.031   5.346   3.061
 4627TIP3    H213888   4.907   5.380   2.981
 4628TIP3   OH213889   1.744   5.260   0.615
 4628TIP3    H113890   1.671   5.315   0.644
 4628TIP3    H213891   1.822   5.312   0.637
 4629TIP3   OH213892   2.398   4.909   0.191
 4629TIP3    H113893   2.481   4.862   0.201
 4629TIP3    H213894   2.337   4.843   0.158
 4630TIP3   OH213895   1.317   2.706   5.120
 4630TIP3    H113896   1.282   2.742   5.202
 4630TIP3    H213897   1.356   2.622   5.146
 4631TIP3   OH213898   6.042   4.459   0.137
 4631TIP3    H113899   5.956   4.502   0.147
 4631TIP3    H213900   6.076   4.453   0.226
 4632TIP3   OH213901   4.407   3.720   0.474
 4632TIP3    H113902   4.362   3.793   0.431
 4632TIP3    H213903   4.388   3.644   0.419
 4633TIP3   OH213904   6.123   5.063   2.165
 4633TIP3    H113905   6.126   5.158   2.153
 4633TIP3    H213906   6.044   5.047   2.216
 4634TIP3   OH213907   4.695   0.986   4.679
 4634TIP3    H113908   4.744   0.971   4.598
 4634TIP3    H213909   4.700   0.903   4.726
 4635TIP3   OH213910   3.051   2.384   4.301
 4635TIP3    H113911   3.039   2.457   4.240
 4635TIP3    H213912   3.033   2.306   4.249
 4636TIP3   OH213913   2.799   0.369   5.077
 4636TIP3    H113914   2.885   0.411   5.074
 4636TIP3    H213915   2.788   0.342   5.168
 4637TIP3   OH213916   0.060   1.052   4.399
 4637TIP3    H113917   0.063   1.123   4.464
 4637TIP3    H213918   0.142   1.004   4.414
 4638TIP3   OH213919   1.322   5.197   3.460
 4638TIP3    H113920   1.358   5.238   3.538
 4638TIP3    H213921   1.396   5.152   3.420
 4639TIP3   OH213922   2.806   2.776   0.085
 4639TIP3    H113923   2.783   2.777   0.178
 4639TIP3    H213924   2.728   2.739   0.042
 4640TIP3   OH213925   1.725   4.277   1.881
 4640TIP3    H113926   1.786   4.273   1.808
 4640TIP3    H213927   1.696   4.186   1.893
 4641TIP3   OH213928   5.515   5.859   2.821
 4641TIP3    H113929   5.553   5.901   2.898
 4641TIP3    H213930   5.552   5.770   2.822
 4642TIP3   OH213931   6.083   4.978   3.332
 4642TIP3    H113932   6.127   4.928   3.263
 4642TIP3    H213933   6.130   5.061   3.336
 4643TIP3   OH213934   1.054   1.821   3.318
 4643TIP3    H113935   1.073   1.743   3.369
 4643TIP3    H213936   1.140   1.859   3.298
 4644TIP3   OH213937   2.676   3.608   4.199
 4644TIP3    H113938   2.643   3.656   4.123
 4644TIP3    H213939   2.765   3.641   4.211
 4645TIP3   OH213940   3.332   5.076   3.038
 4645TIP3    H113941   3.325   5.114   3.125
 4645TIP3    H213942   3.400   5.009   3.046
 4646TIP3   OH213943   3.808   4.757   4.690
 4646TIP3    H113944   3.781   4.740   4.780
 4646TIP3    H213945   3.727   4.785   4.646
 4647TIP3   OH213946   5.701   4.995   0.220
 4647TIP3    H113947   5.690   5.046   0.300
 4647TIP3    H213948   5.692   4.904   0.249
 4648TIP3   OH213949   1.376   4.980   4.239
 4648TIP3    H113950   1.353   4.988   4.331
 4648TIP3    H213951   1.317   4.912   4.205
 4649TIP3   OH213952   0.863   0.822   1.317
 4649TIP3    H113953   0.827   0.739   1.350
 4649TIP3    H213954   0.812   0.890   1.362
 4650TIP3   OH213955   4.215   3.550   3.453
 4650TIP3    H113956   4.205   3.615   3.383
 4650TIP3    H213957   4.287   3.584   3.507
 4651TIP3   OH213958   3.055   5.681   4.812
 4651TIP3    H113959   2.996   5.713   4.879
 4651TIP3    H213960   3.128   5.643   4.860
 4652TIP3   OH213961   5.917   0.673   2.069
 4652TIP3    H113962   5.823   0.662   2.073
 4652TIP3    H213963   5.950   0.590   2.035
 4653TIP3   OH213964   6.262   4.990   5.140
 4653TIP3    H113965   6.195   5.058   5.133
 4653TIP3    H213966   6.316   5.001   5.062
 4654TIP3   OH213967   4.576   4.226   2.761
 4654TIP3    H113968   4.579   4.319   2.784
 4654TIP3    H213969   4.666   4.206   2.734
 4655TIP3   OH213970   4.034   5.383   2.388
 4655TIP3    H113971   3.993   5.305   2.349
 4655TIP3    H213972   4.001   5.385   2.478
 4656TIP3   OH213973   2.382   1.637   2.219
 4656TIP3    H113974   2.432   1.607   2.295
 4656TIP3    H213975   2.303   1.583   2.220
 4657TIP3   OH213976   4.770   3.709   1.745
 4657TIP3    H113977   4.816   3.777   1.794
 4657TIP3    H213978   4.772   3.739   1.654
 4658TIP3   OH213979   5.082   2.321   4.804
 4658TIP3    H113980   5.075   2.337   4.898
 4658TIP3    H213981   5.093   2.408   4.765
 4659TIP3   OH213982   2.487   2.698   1.202
 4659TIP3    H113983   2.500   2.603   1.203
 4659TIP3    H213984   2.419   2.712   1.136
 4660TIP3   OH213985   4.371   0.588   0.596
 4660TIP3    H113986   4.290   0.637   0.613
 4660TIP3    H213987   4.355   0.503   0.636
 4661TIP3   OH213988   0.471   2.601   1.848
 4661TIP3    H113989   0.566   2.589   1.854
 4661TIP3    H213990   0.451   2.671   1.910
 4662TIP3   OH213991   0.951   2.540   1.454
 4662TIP3    H113992   1.027   2.484   1.472
 4662TIP3    H213993   0.942   2.594   1.532
 4663TIP3   OH213994   5.659   3.738   4.993
 4663TIP3    H113995   5.680   3.753   5.086
 4663TIP3    H213996   5.607   3.658   4.993
 4664TIP3   OH213997   1.915   0.022   3.821
 4664TIP3    H113998   1.953  -0.036   3.887
 4664TIP3    H213999   1.972   0.099   3.821
 4665TIP3   OH214000   4.225   0.918   1.058
 4665TIP3    H114001   4.280   0.975   1.005
 4665TIP3    H214002   4.275   0.905   1.139
 4666TIP3   OH214003   4.684   5.831   4.313
 4666TIP3    H114004   4.627   5.771   4.264
 4666TIP3    H214005   4.768   5.826   4.268
 4667TIP3   OH214006   4.768   5.816   3.268
 4667TIP3    H114007   4.812   5.731   3.261
 4667TIP3    H214008   4.756   5.845   3.178
 4668TIP3   OH214009   4.831   4.942   0.605
 4668TIP3    H114010   4.743   4.940   0.568
 4668TIP3    H214011   4.868   5.025   0.575
 4669TIP3   OH214012   3.949   1.716   3.941
 4669TIP3    H114013   3.973   1.777   3.871
 4669TIP3    H214014   3.860   1.741   3.966
 4670TIP3   OH214015   1.336   0.617   3.597
 4670TIP3    H114016   1.258   0.629   3.652
 4670TIP3    H214017   1.300   0.602   3.509
 4671TIP3   OH214018   5.404   4.533   0.588
 4671TIP3    H114019   5.355   4.552   0.508
 4671TIP3    H214020   5.374   4.446   0.615
 4672TIP3   OH214021   0.905   2.541   0.967
 4672TIP3    H114022   0.989   2.562   0.926
 4672TIP3    H214023   0.896   2.447   0.958
 4673TIP3   OH214024   1.734   1.051   3.404
 4673TIP3    H114025   1.829   1.048   3.415
 4673TIP3    H214026   1.701   1.093   3.483
 4674TIP3   OH214027   4.125   0.339   1.502
 4674TIP3    H114028   4.073   0.289   1.565
 4674TIP3    H214029   4.084   0.426   1.501
 4675TIP3   OH214030   3.934   3.027   2.934
 4675TIP3    H114031   3.945   3.003   3.026
 4675TIP3    H214032   3.862   2.972   2.904
 4676TIP3   OH214033   2.686   3.562   2.940
 4676TIP3    H114034   2.695   3.513   3.022
 4676TIP3    H214035   2.680   3.653   2.968
 4677TIP3   OH214036   2.743   5.796   4.854
 4677TIP3    H114037   2.744   5.846   4.772
 4677TIP3    H214038   2.805   5.842   4.911
 4678TIP3   OH214039   1.385   2.981   3.161
 4678TIP3    H114040   1.309   3.014   3.208
 4678TIP3    H214041   1.389   2.888   3.183
 4679TIP3   OH214042   2.357   4.101   4.411
 4679TIP3    H114043   2.294   4.030   4.418
 4679TIP3    H214044   2.389   4.098   4.321
 4680TIP3   OH214045   2.023   1.857   0.794
 4680TIP3    H114046   2.046   1.868   0.702
 4680TIP3    H214047   2.015   1.762   0.805
 4681TIP3   OH214048   4.923   5.867   4.602
 4681TIP3    H114049   4.962   5.793   4.554
 4681TIP3    H214050   4.933   5.941   4.543
 4682TIP3   OH214051   2.193   1.879   1.647
 4682TIP3    H114052   2.130   1.833   1.592
 4682TIP3    H214053   2.273   1.883   1.595
 4683TIP3   OH214054   5.252   5.690   4.946
 4683TIP3    H114055   5.211   5.741   5.015
 4683TIP3    H214056   5.183   5.632   4.915
 4684TIP3   OH214057   2.520   5.967   3.343
 4684TIP3    H114058   2.511   6.027   3.269
 4684TIP3    H214059   2.560   5.889   3.305
 4685TIP3   OH214060   2.486   3.858   0.766
 4685TIP3    H114061   2.507   3.896   0.680
 4685TIP3    H214062   2.555   3.891   0.824
 4686TIP3   OH214063   6.245   3.285   4.402
 4686TIP3    H114064   6.305   3.251   4.336
 4686TIP3    H214065   6.266   3.379   4.408
 4687TIP3   OH214066   6.256   3.944   4.596
 4687TIP3    H114067   6.261   3.892   4.677
 4687TIP3    H214068   6.276   4.033   4.625
 4688TIP3   OH214069   0.918   4.477   1.428
 4688TIP3    H114070   0.897   4.541   1.360
 4688TIP3    H214071   1.013   4.480   1.436
 4689TIP3   OH214072   1.583   0.620   1.287
 4689TIP3    H114073   1.566   0.549   1.225
 4689TIP3    H214074   1.549   0.587   1.371
 4690TIP3   OH214075   3.496  -0.001   0.057
 4690TIP3    H114076   3.450   0.056  -0.004
 4690TIP3    H214077   3.465   0.027   0.144
 4691TIP3   OH214078   5.469   0.191   4.895
 4691TIP3    H114079   5.456   0.196   4.800
 4691TIP3    H214080   5.403   0.249   4.931
 4692TIP3   OH214081   0.203   1.595   1.740
 4692TIP3    H114082   0.234   1.575   1.652
 4692TIP3    H214083   0.112   1.565   1.741
 4693TIP3   OH214084   1.319   1.003   2.868
 4693TIP3    H114085   1.318   0.908   2.877
 4693TIP3    H214086   1.249   1.022   2.806
 4694TIP3   OH214087   5.250   4.167   2.020
 4694TIP3    H114088   5.235   4.194   2.110
 4694TIP3    H214089   5.336   4.125   2.021
 4695TIP3   OH214090   1.153   2.286   3.261
 4695TIP3    H114091   1.197   2.202   3.268
 4695TIP3    H214092   1.212   2.340   3.209
 4696TIP3   OH214093   5.165   1.929   1.853
 4696TIP3    H114094   5.150   1.840   1.822
 4696TIP3    H214095   5.100   1.982   1.808
 4697TIP3   OH214096   3.912   3.335   0.288
 4697TIP3    H114097   4.002   3.323   0.257
 4697TIP3    H214098   3.858   3.312   0.212
 4698TIP3   OH214099   1.757   4.566   0.155
 4698TIP3    H114100   1.744   4.577   0.061
 4698TIP3    H214101   1.833   4.508   0.162
 4699TIP3   OH214102   1.493   5.056   2.979
 4699TIP3    H114103   1.582   5.075   3.009
 4699TIP3    H214104   1.437   5.099   3.043
 4700TIP3   OH214105   4.756   5.795   4.820
 4700TIP3    H114106   4.821   5.825   4.757
 4700TIP3    H214107   4.800   5.727   4.871
 4701TIP3   OH214108   5.839   0.884   1.517
 4701TIP3    H114109   5.820   0.969   1.476
 4701TIP3    H214110   5.932   0.869   1.500
 4702TIP3   OH214111   1.895   1.399   2.281
 4702TIP3    H114112   1.925   1.331   2.221
 4702TIP3    H214113   1.865   1.351   2.358
 4703TIP3   OH214114   5.707   1.283   1.118
 4703TIP3    H114115   5.749   1.359   1.077
 4703TIP3    H214116   5.705   1.216   1.049
 4704TIP3   OH214117   1.911   4.130   0.040
 4704TIP3    H114118   1.850   4.067   0.079
 4704TIP3    H214119   1.904   4.115  -0.054
 4705TIP3   OH214120   5.605   0.757   2.869
 4705TIP3    H114121   5.516   0.766   2.903
 4705TIP3    H214122   5.612   0.822   2.799
 4706TIP3   OH214123   0.079   5.002   3.804
 4706TIP3    H114124   0.163   5.043   3.824
 4706TIP3    H214125   0.098   4.908   3.799
 4707TIP3   OH214126   4.724   5.377   0.182
 4707TIP3    H114127   4.655   5.433   0.147
 4707TIP3    H214128   4.679   5.297   0.209
 4708TIP3   OH214129   4.592   2.434   3.099
 4708TIP3    H114130   4.531   2.500   3.066
 4708TIP3    H214131   4.677   2.477   3.100
 4709TIP3   OH214132   1.009  -0.005   1.815
 4709TIP3    H114133   0.936  -0.051   1.858
 4709TIP3    H214134   0.971   0.026   1.732
 4710TIP3   OH214135   2.916   2.129   4.245
 4710TIP3    H114136   2.885   2.073   4.174
 4710TIP3    H214137   2.856   2.112   4.317
 4711TIP3   OH214138   5.094   2.234   1.230
 4711TIP3    H114139   5.088   2.140   1.250
 4711TIP3    H214140   5.044   2.277   1.299
 4712TIP3   OH214141   4.546   4.337   4.173
 4712TIP3    H114142   4.631   4.359   4.137
 4712TIP3    H214143   4.545   4.376   4.260
 4713TIP3   OH214144   2.090   3.668   0.258
 4713TIP3    H114145   2.050   3.742   0.304
 4713TIP3    H214146   2.139   3.622   0.326
 4714TIP3   OH214147   6.188   2.423   3.025
 4714TIP3    H114148   6.270   2.421   2.975
 4714TIP3    H214149   6.121   2.396   2.962
 4715TIP3   OH214150   5.938   5.087   4.719
 4715TIP3    H114151   5.981   5.126   4.642
 4715TIP3    H214152   5.889   5.013   4.684
 4716TIP3   OH214153   5.779   5.247   2.322
 4716TIP3    H114154   5.699   5.206   2.355
 4716TIP3    H214155   5.750   5.327   2.279
 4717TIP3   OH214156   0.797   2.177   3.717
 4717TIP3    H114157   0.748   2.138   3.644
 4717TIP3    H214158   0.748   2.151   3.795
 4718TIP3   OH214159   0.848   1.324   3.292
 4718TIP3    H114160   0.851   1.403   3.237
 4718TIP3    H214161   0.931   1.279   3.273
 4719TIP3   OH214162   4.646   1.086   0.016
 4719TIP3    H114163   4.580   1.153   0.000
 4719TIP3    H214164   4.609   1.031   0.085
 4720TIP3   OH214165   3.554   5.168   4.489
 4720TIP3    H114166   3.640   5.127   4.485
 4720TIP3    H214167   3.505   5.116   4.553
 4721TIP3   OH214168   5.421   0.257   3.030
 4721TIP3    H114169   5.435   0.325   2.963
 4721TIP3    H214170   5.351   0.203   2.995
 4722TIP3   OH214171   3.540   5.845   5.093
 4722TIP3    H114172   3.512   5.860   5.003
 4722TIP3    H214173   3.493   5.765   5.120
 4723TIP3   OH214174   0.262   4.038   1.566
 4723TIP3    H114175   0.272   4.110   1.628
 4723TIP3    H214176   0.168   4.034   1.548
 4724TIP3   OH214177   0.795   0.113   4.499
 4724TIP3    H114178   0.791   0.194   4.551
 4724TIP3    H214179   0.888   0.089   4.500
 4725TIP3   OH214180   2.263   1.286   1.315
 4725TIP3    H114181   2.168   1.294   1.309
 4725TIP3    H214182   2.295   1.376   1.319
 4726TIP3   OH214183   5.992   5.123   4.454
 4726TIP3    H114184   5.921   5.069   4.420
 4726TIP3    H214185   6.020   5.176   4.380
 4727TIP3   OH214186   0.021   1.781   4.618
 4727TIP3    H114187   0.046   1.778   4.525
 4727TIP3    H214188   0.067   1.707   4.657
 4728TIP3   OH214189   3.977   1.886   3.680
 4728TIP3    H114190   3.998   1.973   3.647
 4728TIP3    H214191   3.882   1.886   3.691
 4729TIP3   OH214192   3.528   0.821   3.695
 4729TIP3    H114193   3.586   0.856   3.628
 4729TIP3    H214194   3.488   0.898   3.736
 4730TIP3   OH214195   4.108   0.771   1.994
 4730TIP3    H114196   4.073   0.689   2.029
 4730TIP3    H214197   4.053   0.840   2.032
 4731TIP3   OH214198   3.016   2.573   1.034
 4731TIP3    H114199   3.055   2.620   1.107
 4731TIP3    H214200   2.922   2.575   1.050
 4732TIP3   OH214201   4.104   0.924   1.367
 4732TIP3    H114202   4.121   0.973   1.448
 4732TIP3    H214203   4.038   0.976   1.322
 4733TIP3   OH214204   4.558   2.268   3.927
 4733TIP3    H114205   4.541   2.212   3.851
 4733TIP3    H214206   4.480   2.325   3.932
 4734TIP3   OH214207   5.153   0.262   0.203
 4734TIP3    H114208   5.151   0.342   0.257
 4734TIP3    H214209   5.069   0.262   0.157
 4735TIP3   OH214210   0.263   4.043   4.223
 4735TIP3    H114211   0.255   3.953   4.193
 4735TIP3    H214212   0.213   4.045   4.305
 4736TIP3   OH214213   5.172   3.886   1.330
 4736TIP3    H114214   5.098   3.826   1.332
 4736TIP3    H214215   5.150   3.950   1.262
 4737TIP3   OH214216   2.317   0.899   4.030
 4737TIP3    H114217   2.248   0.842   3.996
 4737TIP3    H214218   2.390   0.887   3.970
 4738TIP3   OH214219   5.707   3.880   3.508
 4738TIP3    H114220   5.690   3.970   3.534
 4738TIP3    H214221   5.640   3.829   3.554
 4739TIP3   OH214222   2.475   2.448   2.387
 4739TIP3    H114223   2.387   2.483   2.400
 4739TIP3    H214224   2.490   2.457   2.293
 4740TIP3   OH214225   3.263   3.826   2.746
 4740TIP3    H114226   3.306   3.871   2.819
 4740TIP3    H214227   3.329   3.765   2.713
 4741TIP3   OH214228   6.337   5.955   2.102
 4741TIP3    H114229   6.431   5.938   2.096
 4741TIP3    H214230   6.323   5.981   2.193
 4742TIP3   OH214231   1.103   5.180   4.943
 4742TIP3    H114232   1.074   5.148   4.858
 4742TIP3    H214233   1.132   5.270   4.927
 4743TIP3   OH214234   2.010   4.790   0.444
 4743TIP3    H114235   1.990   4.871   0.489
 4743TIP3    H214236   1.996   4.809   0.351
 4744TIP3   OH214237   0.580   1.246   0.049
 4744TIP3    H114238   0.636   1.306   0.000
 4744TIP3    H214239   0.538   1.192  -0.017
 4745TIP3   OH214240   5.483   5.886   3.583
 4745TIP3    H114241   5.466   5.888   3.677
 4745TIP3    H214242   5.400   5.858   3.544
 4746TIP3   OH214243   0.149   1.688   3.483
 4746TIP3    H114244   0.200   1.727   3.412
 4746TIP3    H214245   0.077   1.750   3.498
 4747TIP3   OH214246   0.454   2.474   3.064
 4747TIP3    H114247   0.481   2.505   2.978
 4747TIP3    H214248   0.373   2.425   3.048
 4748TIP3   OH214249   5.130   3.767   2.777
 4748TIP3    H114250   5.209   3.741   2.731
 4748TIP3    H214251   5.128   3.712   2.855
 4749TIP3   OH214252   3.357   2.693   1.464
 4749TIP3    H114253   3.322   2.763   1.518
 4749TIP3    H214254   3.327   2.612   1.507
 4750TIP3   OH214255   3.474   1.242   4.045
 4750TIP3    H114256   3.473   1.279   4.133
 4750TIP3    H214257   3.491   1.317   3.988
 4751TIP3   OH214258   2.614   0.489   3.233
 4751TIP3    H114259   2.572   0.541   3.301
 4751TIP3    H214260   2.673   0.550   3.189
 4752TIP3   OH214261   4.321   3.362   0.512
 4752TIP3    H114262   4.226   3.362   0.529
 4752TIP3    H214263   4.357   3.420   0.579
 4753TIP3   OH214264   3.697   0.079   0.836
 4753TIP3    H114265   3.689   0.175   0.835
 4753TIP3    H214266   3.738   0.059   0.920
 4754TIP3   OH214267   0.200   5.232   1.072
 4754TIP3    H114268   0.157   5.278   1.144
 4754TIP3    H214269   0.136   5.232   1.001
 4755TIP3   OH214270   4.892   2.903   2.165
 4755TIP3    H114271   4.984   2.890   2.185
 4755TIP3    H214272   4.858   2.815   2.149
 4756TIP3   OH214273   4.791   3.310   1.493
 4756TIP3    H114274   4.785   3.288   1.586
 4756TIP3    H214275   4.884   3.325   1.477
 4757TIP3   OH214276   5.366   1.991   2.205
 4757TIP3    H114277   5.341   1.952   2.288
 4757TIP3    H214278   5.390   1.917   2.150
 4758TIP3   OH214279   5.270   5.103   0.760
 4758TIP3    H114280   5.200   5.080   0.821
 4758TIP3    H214281   5.339   5.039   0.778
 4759TIP3   OH214282   5.065   4.098   0.817
 4759TIP3    H114283   4.970   4.088   0.819
 4759TIP3    H214284   5.097   4.009   0.802
 4760TIP3   OH214285   6.035   1.735   4.467
 4760TIP3    H114286   6.076   1.654   4.497
 4760TIP3    H214287   6.104   1.779   4.417
 4761TIP3   OH214288   5.494   1.563   2.615
 4761TIP3    H114289   5.525   1.634   2.672
 4761TIP3    H214290   5.398   1.573   2.615
 4762TIP3   OH214291   2.157   1.290   1.026
 4762TIP3    H114292   2.107   1.371   1.029
 4762TIP3    H214293   2.243   1.313   1.062
 4763TIP3   OH214294   2.163   1.109   2.882
 4763TIP3    H114295   2.142   1.028   2.836
 4763TIP3    H214296   2.085   1.163   2.872
 4764TIP3   OH214297   2.655   4.849   0.765
 4764TIP3    H114298   2.636   4.935   0.802
 4764TIP3    H214299   2.743   4.828   0.798
 4765TIP3   OH214300   2.038   3.242   3.662
 4765TIP3    H114301   2.097   3.256   3.736
 4765TIP3    H214302   1.950   3.258   3.698
 4766TIP3   OH214303   1.260   0.391   3.997
 4766TIP3    H114304   1.340   0.429   3.961
 4766TIP3    H214305   1.230   0.330   3.929
 4767TIP3   OH214306   5.511   4.169   1.402
 4767TIP3    H114307   5.451   4.194   1.332
 4767TIP3    H214308   5.465   4.102   1.452
 4768TIP3   OH214309   3.069   2.406   1.327
 4768TIP3    H114310   3.162   2.385   1.333
 4768TIP3    H214311   3.067   2.501   1.313
 4769TIP3   OH214312   4.359   4.923   2.140
 4769TIP3    H114313   4.362   4.932   2.044
 4769TIP3    H214314   4.280   4.871   2.156
 4770TIP3   OH214315   4.620   3.936   3.741
 4770TIP3    H114316   4.538   3.958   3.696
 4770TIP3    H214317   4.670   3.886   3.676
 4771TIP3   OH214318   2.217   4.422   1.888
 4771TIP3    H114319   2.243   4.432   1.980
 4771TIP3    H214320   2.217   4.511   1.853
 4772TIP3   OH214321   1.342   5.212   0.248
 4772TIP3    H114322   1.388   5.130   0.233
 4772TIP3    H214323   1.258   5.186   0.285
 4773TIP3   OH214324   5.713   5.826   2.517
 4773TIP3    H114325   5.752   5.866   2.595
 4773TIP3    H214326   5.779   5.765   2.485
 4774TIP3   OH214327   6.219   5.844   4.384
 4774TIP3    H114328   6.185   5.904   4.450
 4774TIP3    H214329   6.308   5.825   4.413
 4775TIP3   OH214330   4.413   4.132   4.095
 4775TIP3    H114331   4.382   4.110   4.183
 4775TIP3    H214332   4.465   4.212   4.107
 4776TIP3   OH214333   0.687   2.710   5.177
 4776TIP3    H114334   0.726   2.629   5.210
 4776TIP3    H214335   0.762   2.768   5.160
 4777TIP3   OH214336   3.411   5.016   0.843
 4777TIP3    H114337   3.499   4.980   0.837
 4777TIP3    H214338   3.386   5.036   0.753
 4778TIP3   OH214339   5.790   2.424   3.633
 4778TIP3    H114340   5.770   2.385   3.548
 4778TIP3    H214341   5.832   2.353   3.682
 4779TIP3   OH214342   1.601   3.542   3.875
 4779TIP3    H114343   1.686   3.577   3.846
 4779TIP3    H214344   1.561   3.614   3.924
 4780TIP3   OH214345   2.430   3.351   2.454
 4780TIP3    H114346   2.447   3.264   2.417
 4780TIP3    H214347   2.489   3.409   2.405
 4781TIP3   OH214348   4.919   5.684   4.330
 4781TIP3    H114349   4.972   5.667   4.251
 4781TIP3    H214350   4.979   5.665   4.403
 4782TIP3   OH214351   2.680   0.834   0.955
 4782TIP3    H114352   2.736   0.901   0.994
 4782TIP3    H214353   2.612   0.883   0.909
 4783TIP3   OH214354   5.826   0.655   2.701
 4783TIP3    H114355   5.734   0.653   2.729
 4783TIP3    H214356   5.873   0.608   2.769
 4784TIP3   OH214357   1.579   5.587   1.579
 4784TIP3    H114358   1.635   5.656   1.544
 4784TIP3    H214359   1.495   5.631   1.596
 4785TIP3   OH214360   4.346   4.138   1.477
 4785TIP3    H114361   4.290   4.208   1.508
 4785TIP3    H214362   4.358   4.156   1.383
 4786TIP3   OH214363   5.746   2.894   2.513
 4786TIP3    H114364   5.676   2.831   2.497
 4786TIP3    H214365   5.701   2.975   2.539
 4787TIP3   OH214366   2.711   4.443   1.404
 4787TIP3    H114367   2.652   4.516   1.386
 4787TIP3    H214368   2.679   4.404   1.485
 4788TIP3   OH214369   6.069   2.163   0.712
 4788TIP3    H114370   6.066   2.119   0.627
 4788TIP3    H214371   5.977   2.185   0.731
 4789TIP3   OH214372   3.763   0.064   0.398
 4789TIP3    H114373   3.848   0.107   0.398
 4789TIP3    H214374   3.772  -0.005   0.332
 4790TIP3   OH214375   5.295   1.036   3.216
 4790TIP3    H114376   5.293   1.094   3.292
 4790TIP3    H214377   5.384   1.044   3.182
 4791TIP3   OH214378   2.421   3.517   1.229
 4791TIP3    H114379   2.501   3.508   1.178
 4791TIP3    H214380   2.418   3.610   1.253
 4792TIP3   OH214381   3.158   1.343   3.785
 4792TIP3    H114382   3.128   1.349   3.876
 4792TIP3    H214383   3.195   1.429   3.767
 4793TIP3   OH214384   4.030   1.999   4.428
 4793TIP3    H114385   4.085   1.925   4.399
 4793TIP3    H214386   4.023   2.055   4.351
 4794TIP3   OH214387   4.545   6.010   0.386
 4794TIP3    H114388   4.468   5.982   0.337
 4794TIP3    H214389   4.520   6.001   0.478
 4795TIP3   OH214390   1.496   0.977   4.970
 4795TIP3    H114391   1.454   1.051   5.014
 4795TIP3    H214392   1.523   0.918   5.041
 4796TIP3   OH214393   1.358   2.917   2.876
 4796TIP3    H114394   1.293   2.849   2.863
 4796TIP3    H214395   1.436   2.871   2.906
 4797TIP3   OH214396   6.341   4.666   4.128
 4797TIP3    H114397   6.347   4.638   4.037
 4797TIP3    H214398   6.249   4.651   4.151
 4798TIP3   OH214399   0.378   1.396   0.216
 4798TIP3    H114400   0.398   1.320   0.162
 4798TIP3    H214401   0.443   1.394   0.286
 4799TIP3   OH214402   0.712   5.129   0.899
 4799TIP3    H114403   0.636   5.076   0.873
 4799TIP3    H214404   0.742   5.168   0.817
 4800TIP3   OH214405   4.574   0.137   2.089
 4800TIP3    H114406   4.528   0.092   2.018
 4800TIP3    H214407   4.548   0.090   2.168
 4801TIP3   OH214408   5.976   5.326   3.592
 4801TIP3    H114409   5.950   5.335   3.500
 4801TIP3    H214410   5.936   5.402   3.635
 4802TIP3   OH214411   0.684   2.908   3.457
 4802TIP3    H114412   0.657   2.892   3.366
 4802TIP3    H214413   0.779   2.919   3.452
 4803TIP3   OH214414   1.973   5.804   5.162
 4803TIP3    H114415   2.064   5.822   5.187
 4803TIP3    H214416   1.975   5.717   5.123
 4804TIP3   OH214417   3.321   4.911   2.571
 4804TIP3    H114418   3.228   4.931   2.576
 4804TIP3    H214419   3.364   4.985   2.615
 4805TIP3   OH214420   3.379   1.429   1.671
 4805TIP3    H114421   3.386   1.477   1.753
 4805TIP3    H214422   3.355   1.340   1.698
 4806TIP3   OH214423   5.716   3.926   4.534
 4806TIP3    H114424   5.740   3.858   4.471
 4806TIP3    H214425   5.793   3.984   4.536
 4807TIP3   OH214426   4.289   4.370   5.155
 4807TIP3    H114427   4.345   4.336   5.225
 4807TIP3    H214428   4.204   4.385   5.197
 4808TIP3   OH214429   1.627   2.367   1.887
 4808TIP3    H114430   1.613   2.356   1.793
 4808TIP3    H214431   1.573   2.298   1.927
 4809TIP3   OH214432   1.877   5.432   4.744
 4809TIP3    H114433   1.959   5.467   4.780
 4809TIP3    H214434   1.897   5.341   4.724
 4810TIP3   OH214435   5.113   5.769   3.215
 4810TIP3    H114436   5.178   5.699   3.223
 4810TIP3    H214437   5.029   5.723   3.211
 4811TIP3   OH214438   4.664   2.982   0.826
 4811TIP3    H114439   4.590   3.017   0.776
 4811TIP3    H214440   4.699   3.057   0.873
 4812TIP3   OH214441   3.380   1.167   1.718
 4812TIP3    H114442   3.419   1.082   1.736
 4812TIP3    H214443   3.301   1.147   1.668
 4813TIP3   OH214444   3.679   3.354   2.563
 4813TIP3    H114445   3.650   3.436   2.523
 4813TIP3    H214446   3.709   3.379   2.650
 4814TIP3   OH214447   3.762   3.583   1.778
 4814TIP3    H114448   3.838   3.640   1.786
 4814TIP3    H214449   3.749   3.546   1.865
 4815TIP3   OH214450   4.201   1.431   0.981
 4815TIP3    H114451   4.275   1.472   0.935
 4815TIP3    H214452   4.196   1.343   0.944
 4816TIP3   OH214453   4.209   3.389   4.646
 4816TIP3    H114454   4.156   3.348   4.578
 4816TIP3    H214455   4.238   3.472   4.607
 4817TIP3   OH214456   2.277   5.357   2.057
 4817TIP3    H114457   2.208   5.420   2.075
 4817TIP3    H214458   2.328   5.397   1.986
 4818TIP3   OH214459   0.742   2.256   1.512
 4818TIP3    H114460   0.769   2.207   1.435
 4818TIP3    H214461   0.706   2.338   1.477
 4819TIP3   OH214462   4.392   0.255   1.533
 4819TIP3    H114463   4.426   0.327   1.585
 4819TIP3    H214464   4.308   0.288   1.500
 4820TIP3   OH214465   3.159   4.724   3.359
 4820TIP3    H114466   3.216   4.653   3.388
 4820TIP3    H214467   3.156   4.785   3.432
 4821TIP3   OH214468   3.676   4.125   2.123
 4821TIP3    H114469   3.601   4.141   2.180
 4821TIP3    H214470   3.725   4.207   2.125
 4822TIP3   OH214471   3.191   3.917   3.048
 4822TIP3    H114472   3.218   3.987   2.989
 4822TIP3    H214473   3.227   3.942   3.133
 4823TIP3   OH214474   1.108   0.280   3.619
 4823TIP3    H114475   1.124   0.251   3.529
 4823TIP3    H214476   1.053   0.358   3.609
 4824TIP3   OH214477   1.723   0.838   2.425
 4824TIP3    H114478   1.637   0.866   2.456
 4824TIP3    H214479   1.784   0.864   2.494
 4825TIP3   OH214480   0.167   3.682   0.409
 4825TIP3    H114481   0.077   3.652   0.422
 4825TIP3    H214482   0.213   3.657   0.489
 4826TIP3   OH214483   6.207   0.023   2.588
 4826TIP3    H114484   6.295   0.021   2.551
 4826TIP3    H214485   6.150   0.004   2.513
 4827TIP3   OH214486   2.137   0.575   2.440
 4827TIP3    H114487   2.094   0.646   2.392
 4827TIP3    H214488   2.102   0.583   2.529
 4828TIP3   OH214489   3.804   5.616   1.180
 4828TIP3    H114490   3.738   5.653   1.121
 4828TIP3    H214491   3.817   5.527   1.149
 4829TIP3   OH214492   0.227   2.351   0.663
 4829TIP3    H114493   0.200   2.346   0.755
 4829TIP3    H214494   0.299   2.289   0.656
 4830TIP3   OH214495   5.394   3.416   3.179
 4830TIP3    H114496   5.407   3.366   3.099
 4830TIP3    H214497   5.375   3.349   3.246
 4831TIP3   OH214498   1.479   0.070   0.522
 4831TIP3    H114499   1.556   0.040   0.570
 4831TIP3    H214500   1.449  -0.007   0.474
 4832TIP3   OH214501   3.466   3.798   1.199
 4832TIP3    H114502   3.408   3.872   1.219
 4832TIP3    H214503   3.426   3.757   1.122
 4833TIP3   OH214504   4.482   5.721   4.168
 4833TIP3    H114505   4.433   5.801   4.150
 4833TIP3    H214506   4.415   5.656   4.187
 4834TIP3   OH214507   1.970   0.991   2.517
 4834TIP3    H114508   2.030   1.052   2.473
 4834TIP3    H214509   1.929   1.043   2.586
 4835TIP3   OH214510   4.030   0.346   1.158
 4835TIP3    H114511   4.018   0.265   1.209
 4835TIP3    H214512   3.966   0.407   1.194
 4836TIP3   OH214513   3.999   0.718   3.186
 4836TIP3    H114514   4.016   0.660   3.112
 4836TIP3    H214515   3.984   0.659   3.260
 4837TIP3   OH214516   3.638   1.430   0.015
 4837TIP3    H114517   3.579   1.445   0.089
 4837TIP3    H214518   3.714   1.387   0.054
 4838TIP3   OH214519   1.423   1.653   0.949
 4838TIP3    H114520   1.388   1.684   1.033
 4838TIP3    H214521   1.456   1.566   0.968
 4839TIP3   OH214522   6.089   2.367  -0.013
 4839TIP3    H114523   6.184   2.358  -0.008
 4839TIP3    H214524   6.059   2.344   0.075
 4840TIP3   OH214525   4.734   2.129   4.713
 4840TIP3    H114526   4.710   2.219   4.733
 4840TIP3    H214527   4.684   2.107   4.635
 4841TIP3   OH214528   1.631   2.345   4.761
 4841TIP3    H114529   1.714   2.305   4.785
 4841TIP3    H214530   1.576   2.334   4.838
 4842TIP3   OH214531   3.844   5.062   4.995
 4842TIP3    H114532   3.815   5.060   4.904
 4842TIP3    H214533   3.770   5.028   5.045
 4843TIP3   OH214534   4.822   3.939   3.011
 4843TIP3    H114535   4.869   3.931   3.094
 4843TIP3    H214536   4.731   3.953   3.036
 4844TIP3   OH214537   1.869   4.251   1.668
 4844TIP3    H114538   1.853   4.158   1.649
 4844TIP3    H214539   1.900   4.287   1.585
 4845TIP3   OH214540   1.619   5.606   0.541
 4845TIP3    H114541   1.645   5.698   0.542
 4845TIP3    H214542   1.561   5.597   0.617
 4846TIP3   OH214543   4.791   5.905   2.999
 4846TIP3    H114544   4.770   5.977   2.940
 4846TIP3    H214545   4.883   5.885   2.982
 4847TIP3   OH214546   4.291   4.604   2.492
 4847TIP3    H114547   4.275   4.523   2.444
 4847TIP3    H214548   4.285   4.579   2.584
 4848TIP3   OH214549   5.825   1.185   4.360
 4848TIP3    H114550   5.788   1.100   4.384
 4848TIP3    H214551   5.751   1.246   4.367
 4849TIP3   OH214552   0.523   4.988   1.481
 4849TIP3    H114553   0.484   5.023   1.561
 4849TIP3    H214554   0.551   5.066   1.432
 4850TIP3   OH214555   2.769   1.767   3.243
 4850TIP3    H114556   2.738   1.781   3.333
 4850TIP3    H214557   2.690   1.746   3.194
 4851TIP3   OH214558   0.552   0.232   5.025
 4851TIP3    H114559   0.522   0.246   5.114
 4851TIP3    H214560   0.561   0.321   4.989
 4852TIP3   OH214561   2.614   3.623   2.115
 4852TIP3    H114562   2.602   3.586   2.028
 4852TIP3    H214563   2.530   3.662   2.136
 4853TIP3   OH214564   2.024   1.500   5.013
 4853TIP3    H114565   2.092   1.455   4.964
 4853TIP3    H214566   2.051   1.592   5.013
 4854TIP3   OH214567   2.655   5.729   2.439
 4854TIP3    H114568   2.740   5.687   2.453
 4854TIP3    H214569   2.594   5.657   2.426
 4855TIP3   OH214570   3.524   5.016   0.579
 4855TIP3    H114571   3.552   4.971   0.499
 4855TIP3    H214572   3.595   5.001   0.641
 4856TIP3   OH214573   4.679   1.109   2.426
 4856TIP3    H114574   4.764   1.133   2.390
 4856TIP3    H214575   4.617   1.127   2.355
 4857TIP3   OH214576   6.222   2.100   1.385
 4857TIP3    H114577   6.249   2.014   1.417
 4857TIP3    H214578   6.144   2.122   1.435
 4858TIP3   OH214579   4.636   3.458   2.495
 4858TIP3    H114580   4.705   3.522   2.509
 4858TIP3    H214581   4.572   3.477   2.563
 4859TIP3   OH214582   5.762   3.646   0.286
 4859TIP3    H114583   5.766   3.557   0.320
 4859TIP3    H214584   5.825   3.648   0.214
 4860TIP3   OH214585   0.447   4.960   2.937
 4860TIP3    H114586   0.387   5.033   2.923
 4860TIP3    H214587   0.532   4.994   2.909
 4861TIP3   OH214588   4.624   5.025   2.763
 4861TIP3    H114589   4.550   5.044   2.821
 4861TIP3    H214590   4.585   4.992   2.683
 4862TIP3   OH214591   2.247   2.624   2.459
 4862TIP3    H114592   2.210   2.712   2.450
 4862TIP3    H214593   2.173   2.565   2.441
 4863TIP3   OH214594   2.511   5.933   5.104
 4863TIP3    H114595   2.565   5.855   5.089
 4863TIP3    H214596   2.536   5.993   5.034
 4864TIP3   OH214597   1.601   5.806   4.533
 4864TIP3    H114598   1.558   5.823   4.617
 4864TIP3    H214599   1.664   5.737   4.552
 4865TIP3   OH214600   2.618   0.067   0.613
 4865TIP3    H114601   2.581   0.000   0.670
 4865TIP3    H214602   2.708   0.038   0.597
 4866TIP3   OH214603   5.349   4.982   2.729
 4866TIP3    H114604   5.318   4.916   2.667
 4866TIP3    H214605   5.269   5.018   2.767
 4867TIP3   OH214606   3.954   0.965   5.112
 4867TIP3    H114607   4.000   1.045   5.089
 4867TIP3    H214608   4.003   0.930   5.186
 4868TIP3   OH214609   3.170   5.664   0.898
 4868TIP3    H114610   3.238   5.673   0.831
 4868TIP3    H214611   3.185   5.577   0.935
 4869TIP3   OH214612   3.695   5.296   4.282
 4869TIP3    H114613   3.643   5.263   4.355
 4869TIP3    H214614   3.779   5.321   4.321
 4870TIP3   OH214615   4.597   4.641   1.205
 4870TIP3    H114616   4.679   4.591   1.206
 4870TIP3    H214617   4.608   4.706   1.274
 4871TIP3   OH214618   5.640   4.454   3.508
 4871TIP3    H114619   5.630   4.548   3.525
 4871TIP3    H214620   5.579   4.412   3.569
 4872TIP3   OH214621   1.279   4.299   1.553
 4872TIP3    H114622   1.239   4.253   1.479
 4872TIP3    H214623   1.228   4.273   1.629
 4873TIP3   OH214624   2.209   3.065   3.068
 4873TIP3    H114625   2.250   2.982   3.044
 4873TIP3    H214626   2.141   3.041   3.130
 4874TIP3   OH214627   0.150   5.827   2.518
 4874TIP3    H114628   0.161   5.915   2.484
 4874TIP3    H214629   0.222   5.776   2.480
 4875TIP3   OH214630   3.623   5.684   1.761
 4875TIP3    H114631   3.638   5.778   1.747
 4875TIP3    H214632   3.696   5.656   1.816
 4876TIP3   OH214633   1.071   1.038   3.051
 4876TIP3    H114634   1.040   1.037   2.960
 4876TIP3    H214635   1.069   1.130   3.076
 4877TIP3   OH214636   0.755   2.028   1.673
 4877TIP3    H114637   0.843   1.992   1.664
 4877TIP3    H214638   0.753   2.101   1.611
 4878TIP3   OH214639   0.488   4.001   2.409
 4878TIP3    H114640   0.498   4.085   2.364
 4878TIP3    H214641   0.519   3.936   2.346
 4879TIP3   OH214642   2.227   5.677   2.396
 4879TIP3    H114643   2.197   5.711   2.312
 4879TIP3    H214644   2.150   5.685   2.453
 4880TIP3   OH214645   6.126   3.687   2.069
 4880TIP3    H114646   6.079   3.692   2.153
 4880TIP3    H214647   6.122   3.777   2.035
 4881TIP3   OH214648   6.232   4.414   3.750
 4881TIP3    H114649   6.139   4.395   3.765
 4881TIP3    H214650   6.261   4.345   3.691
 4882TIP3   OH214651   1.627   4.628   2.648
 4882TIP3    H114652   1.556   4.635   2.584
 4882TIP3    H214653   1.673   4.712   2.641
 4883TIP3   OH214654   1.875   3.745   5.161
 4883TIP3    H114655   1.877   3.828   5.209
 4883TIP3    H214656   1.927   3.763   5.081
 4884TIP3   OH214657   2.231   0.765   2.844
 4884TIP3    H114658   2.262   0.804   2.926
 4884TIP3    H214659   2.294   0.795   2.778
 4885TIP3   OH214660   6.017   1.414   2.131
 4885TIP3    H114661   5.977   1.459   2.057
 4885TIP3    H214662   5.982   1.458   2.209
 4886TIP3   OH214663   1.808   3.004   3.085
 4886TIP3    H114664   1.797   2.909   3.074
 4886TIP3    H214665   1.870   3.012   3.158
 4887TIP3   OH214666   3.187   3.089   3.168
 4887TIP3    H114667   3.135   3.058   3.242
 4887TIP3    H214668   3.128   3.146   3.119
 4888TIP3   OH214669   4.401   2.331   2.051
 4888TIP3    H114670   4.354   2.392   2.107
 4888TIP3    H214671   4.334   2.291   1.996
 4889TIP3   OH214672   2.412   2.892   3.044
 4889TIP3    H114673   2.429   2.948   3.120
 4889TIP3    H214674   2.421   2.803   3.076
 4890TIP3   OH214675   1.065   5.050   2.169
 4890TIP3    H114676   0.985   5.065   2.219
 4890TIP3    H214677   1.094   4.963   2.196
 4891TIP3   OH214678   3.194   4.686   0.729
 4891TIP3    H114679   3.165   4.736   0.805
 4891TIP3    H214680   3.289   4.684   0.736
 4892TIP3   OH214681   1.397   4.526   0.300
 4892TIP3    H114682   1.425   4.561   0.216
 4892TIP3    H214683   1.393   4.431   0.286
 4893TIP3   OH214684   4.869   2.740   1.333
 4893TIP3    H114685   4.874   2.658   1.283
 4893TIP3    H214686   4.829   2.716   1.416
 4894TIP3   OH214687   4.986   0.560   4.123
 4894TIP3    H114688   4.918   0.621   4.152
 4894TIP3    H214689   4.941   0.478   4.107
 4895TIP3   OH214690   2.121   4.111   0.387
 4895TIP3    H114691   2.096   4.199   0.415
 4895TIP3    H214692   2.179   4.125   0.313
 4896TIP3   OH214693   1.563   4.500   4.686
 4896TIP3    H114694   1.630   4.438   4.716
 4896TIP3    H214695   1.485   4.447   4.675
 4897TIP3   OH214696   1.230   0.393   0.263
 4897TIP3    H114697   1.165   0.323   0.274
 4897TIP3    H214698   1.189   0.455   0.203
 4898TIP3   OH214699   5.141   3.545   0.024
 4898TIP3    H114700   5.143   3.639   0.041
 4898TIP3    H214701   5.206   3.532  -0.045
 4899TIP3   OH214702   3.739   1.320   3.674
 4899TIP3    H114703   3.788   1.402   3.682
 4899TIP3    H214704   3.773   1.265   3.745
 4900TIP3   OH214705   1.572   0.465   1.046
 4900TIP3    H114706   1.491   0.427   1.013
 4900TIP3    H214707   1.572   0.554   1.011
 4901TIP3   OH214708   3.490   1.111   2.723
 4901TIP3    H114709   3.507   1.143   2.812
 4901TIP3    H214710   3.446   1.185   2.680
 4902TIP3   OH214711   5.563   4.233   1.675
 4902TIP3    H114712   5.561   4.175   1.752
 4902TIP3    H214713   5.565   4.174   1.600
 4903TIP3   OH214714   1.149   1.344   3.815
 4903TIP3    H114715   1.158   1.426   3.864
 4903TIP3    H214716   1.238   1.326   3.784
 4904TIP3   OH214717   0.055   3.213   3.966
 4904TIP3    H114718   0.064   3.252   3.879
 4904TIP3    H214719   0.124   3.253   4.018
 4905TIP3   OH214720   3.932   0.719   1.164
 4905TIP3    H114721   3.853   0.731   1.216
 4905TIP3    H214722   3.932   0.792   1.102
 4906TIP3   OH214723   2.322   0.474   4.728
 4906TIP3    H114724   2.407   0.463   4.771
 4906TIP3    H214725   2.283   0.551   4.769
 4907TIP3   OH214726   5.812   0.784   2.459
 4907TIP3    H114727   5.830   0.751   2.547
 4907TIP3    H214728   5.737   0.732   2.429
 4908TIP3   OH214729   4.090   3.881   4.115
 4908TIP3    H114730   4.094   3.966   4.160
 4908TIP3    H214731   4.152   3.889   4.043
 4909TIP3   OH214732   0.673   0.305   1.986
 4909TIP3    H114733   0.690   0.213   1.966
 4909TIP3    H214734   0.679   0.310   2.081
 4910TIP3   OH214735   5.361   3.092   4.450
 4910TIP3    H114736   5.354   3.051   4.364
 4910TIP3    H214737   5.326   3.027   4.511
 4911TIP3   OH214738   4.983   5.047   1.782
 4911TIP3    H114739   5.073   5.029   1.755
 4911TIP3    H214740   4.991   5.123   1.840
 4912TIP3   OH214741   1.437   5.056   2.080
 4912TIP3    H114742   1.490   5.095   2.149
 4912TIP3    H214743   1.430   4.963   2.104
 4913TIP3   OH214744   5.929   4.561   1.085
 4913TIP3    H114745   5.931   4.646   1.128
 4913TIP3    H214746   5.930   4.581   0.992
 4914TIP3   OH214747   0.513   5.300   2.158
 4914TIP3    H114748   0.571   5.305   2.234
 4914TIP3    H214749   0.429   5.333   2.189
 4915TIP3   OH214750   1.298   1.624   0.003
 4915TIP3    H114751   1.226   1.669   0.049
 4915TIP3    H214752   1.259   1.596  -0.080
 4916TIP3   OH214753   5.827   0.448   2.301
 4916TIP3    H114754   5.908   0.410   2.336
 4916TIP3    H214755   5.856   0.503   2.229
 4917TIP3   OH214756   4.323   1.656   4.737
 4917TIP3    H114757   4.329   1.606   4.818
 4917TIP3    H214758   4.376   1.734   4.753
 4918TIP3   OH214759   1.112   5.207   0.421
 4918TIP3    H114760   1.040   5.237   0.365
 4918TIP3    H214761   1.092   5.245   0.507
 4919TIP3   OH214762   1.230   5.644   3.848
 4919TIP3    H114763   1.187   5.602   3.773
 4919TIP3    H214764   1.188   5.729   3.856
 4920TIP3   OH214765   6.061   2.614   3.209
 4920TIP3    H114766   6.107   2.563   3.142
 4920TIP3    H214767   5.991   2.659   3.163
 4921TIP3   OH214768   4.277   0.400   4.681
 4921TIP3    H114769   4.183   0.384   4.681
 4921TIP3    H214770   4.314   0.325   4.727
 4922TIP3   OH214771   3.794   4.730   1.679
 4922TIP3    H114772   3.812   4.735   1.585
 4922TIP3    H214773   3.699   4.713   1.683
 4923TIP3   OH214774  -0.030   2.554   0.144
 4923TIP3    H114775   0.003   2.485   0.202
 4923TIP3    H214776  -0.006   2.526   0.056
 4924TIP3   OH214777   1.605   2.355   2.367
 4924TIP3    H114778   1.664   2.422   2.400
 4924TIP3    H214779   1.589   2.297   2.442
 4925TIP3   OH214780   5.292   0.554   1.575
 4925TIP3    H114781   5.295   0.470   1.620
 4925TIP3    H214782   5.199   0.577   1.574
 4926TIP3   OH214783   2.676   5.434   0.954
 4926TIP3    H114784   2.708   5.387   0.877
 4926TIP3    H214785   2.748   5.428   1.017
 4927TIP3   OH214786  -0.035   2.701   1.315
 4927TIP3    H114787  -0.072   2.618   1.343
 4927TIP3    H214788   0.055   2.679   1.288
 4928TIP3   OH214789   5.653   2.231   4.459
 4928TIP3    H114790   5.642   2.312   4.510
 4928TIP3    H214791   5.567   2.190   4.460
 4929TIP3   OH214792   1.799   1.377   1.779
 4929TIP3    H114793   1.727   1.338   1.730
 4929TIP3    H214794   1.875   1.321   1.760
 4930TIP3   OH214795   2.551   0.594   0.939
 4930TIP3    H114796   2.549   0.542   0.858
 4930TIP3    H214797   2.616   0.662   0.922
 4931TIP3   OH214798   6.235   1.722   2.874
 4931TIP3    H114799   6.323   1.695   2.851
 4931TIP3    H214800   6.241   1.747   2.967
 4932TIP3   OH214801   2.935   4.114   3.153
 4932TIP3    H114802   2.957   4.021   3.145
 4932TIP3    H214803   2.981   4.142   3.232
 4933TIP3   OH214804   4.103   4.016   4.820
 4933TIP3    H114805   4.164   4.024   4.746
 4933TIP3    H214806   4.158   4.028   4.897
 4934TIP3   OH214807   4.900   3.461   3.849
 4934TIP3    H114808   4.816   3.430   3.815
 4934TIP3    H214809   4.904   3.553   3.825
 4935TIP3   OH214810   5.071   1.879   4.993
 4935TIP3    H114811   4.994   1.878   5.051
 4935TIP3    H214812   5.129   1.812   5.029
 4936TIP3   OH214813   3.783   5.972   4.124
 4936TIP3    H114814   3.854   5.982   4.187
 4936TIP3    H214815   3.748   5.884   4.140
 4937TIP3   OH214816   2.130   5.333   3.105
 4937TIP3    H114817   2.048   5.295   3.137
 4937TIP3    H214818   2.189   5.258   3.096
 4938TIP3   OH214819   2.491   1.874   2.159
 4938TIP3    H114820   2.453   1.806   2.214
 4938TIP3    H214821   2.498   1.834   2.072
 4939TIP3   OH214822   5.548   4.975   1.706
 4939TIP3    H114823   5.578   4.906   1.646
 4939TIP3    H214824   5.602   5.050   1.684
 4940TIP3   OH214825   4.096   4.407   2.373
 4940TIP3    H114826   4.118   4.407   2.280
 4940TIP3    H214827   4.019   4.463   2.379
 4941TIP3   OH214828   4.745   2.735   3.805
 4941TIP3    H114829   4.828   2.689   3.796
 4941TIP3    H214830   4.719   2.719   3.896
 4942TIP3   OH214831   0.550   4.255   2.297
 4942TIP3    H114832   0.609   4.272   2.371
 4942TIP3    H214833   0.575   4.320   2.232
 4943TIP3   OH214834   4.134   2.739   1.278
 4943TIP3    H114835   4.181   2.738   1.195
 4943TIP3    H214836   4.118   2.831   1.296
 4944TIP3   OH214837   1.533   4.413   2.180
 4944TIP3    H114838   1.496   4.474   2.243
 4944TIP3    H214839   1.623   4.400   2.209
 4945TIP3   OH214840   0.771   4.060   3.450
 4945TIP3    H114841   0.707   4.132   3.443
 4945TIP3    H214842   0.856   4.104   3.446
 4946TIP3   OH214843   5.475   0.382   3.956
 4946TIP3    H114844   5.464   0.445   3.885
 4946TIP3    H214845   5.401   0.400   4.014
 4947TIP3   OH214846   2.422   2.090   3.139
 4947TIP3    H114847   2.423   2.023   3.071
 4947TIP3    H214848   2.514   2.100   3.164
 4948TIP3   OH214849   3.560   3.785   4.502
 4948TIP3    H114850   3.586   3.703   4.544
 4948TIP3    H214851   3.549   3.846   4.575
 4949TIP3   OH214852   3.077   2.957   1.485
 4949TIP3    H114853   3.070   3.008   1.404
 4949TIP3    H214854   2.989   2.960   1.522
 4950TIP3   OH214855   3.144   0.540   0.980
 4950TIP3    H114856   3.202   0.500   0.914
 4950TIP3    H214857   3.198   0.544   1.059
 4951TIP3   OH214858   2.863   4.153   0.939
 4951TIP3    H114859   2.844   4.204   1.017
 4951TIP3    H214860   2.863   4.216   0.868
 4952TIP3   OH214861   3.344   1.933   2.012
 4952TIP3    H114862   3.429   1.964   2.044
 4952TIP3    H214863   3.322   1.860   2.069
 4953TIP3   OH214864   4.564   1.428   3.608
 4953TIP3    H114865   4.490   1.455   3.662
 4953TIP3    H214866   4.562   1.332   3.611
 4954TIP3   OH214867   3.754   5.050   2.115
 4954TIP3    H114868   3.736   4.961   2.083
 4954TIP3    H214869   3.671   5.081   2.150
 4955TIP3   OH214870   4.018   1.664   0.034
 4955TIP3    H114871   3.948   1.693   0.093
 4955TIP3    H214872   3.974   1.652  -0.050
 4956TIP3   OH214873   2.945   1.605   2.198
 4956TIP3    H114874   3.003   1.543   2.241
 4956TIP3    H214875   2.919   1.666   2.267
 4957TIP3   OH214876   4.706   4.808   4.348
 4957TIP3    H114877   4.667   4.896   4.346
 4957TIP3    H214878   4.636   4.753   4.385
 4958TIP3   OH214879   1.898   4.851   3.191
 4958TIP3    H114880   1.971   4.788   3.190
 4958TIP3    H214881   1.832   4.809   3.246
 4959TIP3   OH214882   5.151   3.295   3.053
 4959TIP3    H114883   5.153   3.382   3.013
 4959TIP3    H214884   5.138   3.312   3.147
 4960TIP3   OH214885   2.996   2.954   3.820
 4960TIP3    H114886   3.023   2.956   3.912
 4960TIP3    H214887   3.023   2.867   3.789
 4961TIP3   OH214888   0.864   2.927   5.122
 4961TIP3    H114889   0.830   2.957   5.038
 4961TIP3    H214890   0.942   2.981   5.138
 4962TIP3   OH214891   1.306   5.305   3.719
 4962TIP3    H114892   1.263   5.294   3.804
 4962TIP3    H214893   1.398   5.282   3.735
 4963TIP3   OH214894   1.781   2.929   2.086
 4963TIP3    H114895   1.875   2.940   2.071
 4963TIP3    H214896   1.750   2.880   2.010
 4964TIP3   OH214897   0.745   3.940   2.969
 4964TIP3    H114898   0.810   4.010   2.959
 4964TIP3    H214899   0.671   3.970   2.916
 4965TIP3   OH214900   3.197   2.445   5.166
 4965TIP3    H114901   3.292   2.447   5.155
 4965TIP3    H214902   3.171   2.359   5.132
 4966TIP3   OH214903   5.310   0.661   2.933
 4966TIP3    H114904   5.280   0.732   2.876
 4966TIP3    H214905   5.254   0.666   3.011
 4967TIP3   OH214906   4.156   2.080   3.156
 4967TIP3    H114907   4.146   2.174   3.143
 4967TIP3    H214908   4.145   2.042   3.069
 4968TIP3   OH214909   3.738   3.430   1.555
 4968TIP3    H114910   3.648   3.429   1.522
 4968TIP3    H214911   3.735   3.489   1.630
 4969TIP3   OH214912   1.237   2.360   0.923
 4969TIP3    H114913   1.257   2.321   1.008
 4969TIP3    H214914   1.323   2.372   0.881
 4970TIP3   OH214915   1.694   3.635   0.825
 4970TIP3    H114916   1.696   3.541   0.809
 4970TIP3    H214917   1.609   3.651   0.865
 4971TIP3   OH214918   3.869   1.421   4.206
 4971TIP3    H114919   3.955   1.398   4.240
 4971TIP3    H214920   3.820   1.339   4.206
 4972TIP3   OH214921   2.180   4.499   1.223
 4972TIP3    H114922   2.122   4.548   1.280
 4972TIP3    H214923   2.122   4.452   1.163
 4973TIP3   OH214924   1.822   1.600   4.615
 4973TIP3    H114925   1.759   1.667   4.589
 4973TIP3    H214926   1.908   1.638   4.593
 4974TIP3   OH214927   5.985   1.886   0.251
 4974TIP3    H114928   5.901   1.879   0.204
 4974TIP3    H214929   6.019   1.797   0.253
 4975TIP3   OH214930   4.918   3.723   3.826
 4975TIP3    H114931   4.923   3.795   3.763
 4975TIP3    H214932   4.857   3.754   3.893
 4976TIP3   OH214933   4.547   3.599   3.974
 4976TIP3    H114934   4.489   3.599   3.897
 4976TIP3    H214935   4.533   3.514   4.015
 4977TIP3   OH214936   1.180   4.063   3.278
 4977TIP3    H114937   1.273   4.045   3.295
 4977TIP3    H214938   1.143   3.979   3.252
 4978TIP3   OH214939   4.670   1.952   0.917
 4978TIP3    H114940   4.588   1.968   0.870
 4978TIP3    H214941   4.662   1.864   0.952
 4979TIP3   OH214942   0.290   1.363   2.682
 4979TIP3    H114943   0.279   1.269   2.695
 4979TIP3    H214944   0.275   1.375   2.588
 4980TIP3   OH214945   6.169   3.035   4.523
 4980TIP3    H114946   6.169   2.975   4.448
 4980TIP3    H214947   6.179   3.122   4.485
 4981TIP3   OH214948   1.791   5.084   4.457
 4981TIP3    H114949   1.741   5.155   4.419
 4981TIP3    H214950   1.725   5.023   4.489
 4982TIP3   OH214951   6.361   2.972   4.742
 4982TIP3    H114952   6.355   2.885   4.783
 4982TIP3    H214953   6.305   2.965   4.664
 4983TIP3   OH214954   1.039   3.466   2.323
 4983TIP3    H114955   1.006   3.480   2.411
 4983TIP3    H214956   1.098   3.540   2.308
 4984TIP3   OH214957   0.348   3.297   3.643
 4984TIP3    H114958   0.393   3.275   3.725
 4984TIP3    H214959   0.377   3.229   3.581
 4985TIP3   OH214960   2.669   1.872   0.130
 4985TIP3    H114961   2.746   1.908   0.086
 4985TIP3    H214962   2.664   1.919   0.213
 4986TIP3   OH214963   6.075   3.114   1.601
 4986TIP3    H114964   6.097   3.062   1.524
 4986TIP3    H214965   6.147   3.098   1.662
 4987TIP3   OH214966   4.696   4.265   4.962
 4987TIP3    H114967   4.719   4.264   4.869
 4987TIP3    H214968   4.712   4.175   4.991
 4988TIP3   OH214969   3.003   1.043   3.149
 4988TIP3    H114970   3.099   1.044   3.150
 4988TIP3    H214971   2.981   1.072   3.060
 4989TIP3   OH214972   4.192   4.852   1.905
 4989TIP3    H114973   4.105   4.854   1.865
 4989TIP3    H214974   4.232   4.936   1.879
 4990TIP3   OH214975   4.615   0.597   0.722
 4990TIP3    H114976   4.537   0.568   0.676
 4990TIP3    H214977   4.666   0.645   0.656
 4991TIP3   OH214978   4.171   2.047   4.150
 4991TIP3    H114979   4.201   2.073   4.238
 4991TIP3    H214980   4.128   1.963   4.163
 4992TIP3   OH214981   0.379   2.557   0.140
 4992TIP3    H114982   0.464   2.593   0.117
 4992TIP3    H214983   0.322   2.634   0.150
 4993TIP3   OH214984   5.203   1.880   0.143
 4993TIP3    H114985   5.237   1.798   0.107
 4993TIP3    H214986   5.210   1.943   0.072
 4994TIP3   OH214987   1.474   4.961   0.294
 4994TIP3    H114988   1.546   4.926   0.242
 4994TIP3    H214989   1.514   4.983   0.379
 4995TIP3   OH214990   3.535   3.881   0.867
 4995TIP3    H114991   3.576   3.952   0.915
 4995TIP3    H214992   3.441   3.892   0.884
 4996TIP3   OH214993   0.059   5.188   2.935
 4996TIP3    H114994   0.118   5.169   2.861
 4996TIP3    H214995  -0.018   5.133   2.919
 4997TIP3   OH214996   5.563   1.760   0.473
 4997TIP3    H114997   5.553   1.808   0.391
 4997TIP3    H214998   5.649   1.788   0.506
 4998TIP3   OH214999   3.077   1.508   1.657
 4998TIP3    H115000   3.082   1.604   1.661
 4998TIP3    H215001   3.161   1.478   1.692
 4999TIP3   OH215002   3.424   1.535   4.231
 4999TIP3    H115003   3.517   1.559   4.238
 4999TIP3    H215004   3.392   1.539   4.321
 5000TIP3   OH215005   3.341   3.046   0.328
 5000TIP3    H115006   3.299   2.962   0.313
 5000TIP3    H215007   3.269   3.109   0.331
 5001TIP3   OH215008   2.788   4.143   0.027
 5001TIP3    H115009   2.877   4.170   0.052
 5001TIP3    H215010   2.761   4.208  -0.037
 5002TIP3   OH215011   3.613   0.410   3.928
 5002TIP3    H115012   3.557   0.464   3.984
 5002TIP3    H215013   3.677   0.371   3.988
 5003TIP3   OH215014   4.897   2.768   4.087
 5003TIP3    H115015   4.926   2.858   4.102
 5003TIP3    H215016   4.978   2.718   4.076
 5004TIP3   OH215017   0.386   1.495   3.026
 5004TIP3    H115018   0.456   1.504   2.962
 5004TIP3    H215019   0.314   1.455   2.978
 5005TIP3   OH215020   0.873   5.303   1.632
 5005TIP3    H115021   0.925   5.232   1.671
 5005TIP3    H215022   0.818   5.259   1.568
 5006TIP3   OH215023   1.554   2.970   1.613
 5006TIP3    H115024   1.474   2.922   1.632
 5006TIP3    H215025   1.553   2.982   1.518
 5007TIP3   OH215026   1.057   3.324   1.909
 5007TIP3    H115027   1.013   3.278   1.837
 5007TIP3    H215028   1.012   3.294   1.987
 5008TIP3   OH215029   2.877   2.416   3.402
 5008TIP3    H115030   2.935   2.409   3.478
 5008TIP3    H215031   2.804   2.357   3.423
 5009TIP3   OH215032   4.253   3.339   1.838
 5009TIP3    H115033   4.256   3.292   1.921
 5009TIP3    H215034   4.291   3.279   1.774
 5010TIP3   OH215035   4.077   2.515   1.466
 5010TIP3    H115036   4.117   2.563   1.394
 5010TIP3    H215037   4.140   2.447   1.488
 5011TIP3   OH215038   1.285   5.006   4.502
 5011TIP3    H115039   1.246   4.922   4.524
 5011TIP3    H215040   1.233   5.070   4.552
 5012TIP3   OH215041   5.123   0.306   3.819
 5012TIP3    H115042   5.148   0.227   3.771
 5012TIP3    H215043   5.027   0.309   3.812
 5013TIP3   OH215044   3.280   4.216   4.869
 5013TIP3    H115045   3.323   4.211   4.783
 5013TIP3    H215046   3.284   4.127   4.902
 5014TIP3   OH215047   3.928   2.857   4.826
 5014TIP3    H115048   4.021   2.878   4.837
 5014TIP3    H215049   3.927   2.783   4.765
 5015TIP3   OH215050   5.802   1.368   3.601
 5015TIP3    H115051   5.806   1.306   3.674
 5015TIP3    H215052   5.893   1.378   3.574
 5016TIP3   OH215053   3.692   5.852   0.870
 5016TIP3    H115054   3.649   5.846   0.785
 5016TIP3    H215055   3.723   5.763   0.888
 5017TIP3   OH215056   4.209   1.812   0.847
 5017TIP3    H115057   4.165   1.822   0.763
 5017TIP3    H215058   4.280   1.750   0.830
 5018TIP3   OH215059   1.381   2.756   3.486
 5018TIP3    H115060   1.442   2.765   3.559
 5018TIP3    H215061   1.328   2.836   3.489
 5019TIP3   OH215062   2.220   5.680   0.775
 5019TIP3    H115063   2.277   5.606   0.754
 5019TIP3    H215064   2.235   5.743   0.704
 5020TIP3   OH215065   2.304   5.264   2.315
 5020TIP3    H115066   2.399   5.271   2.306
 5020TIP3    H215067   2.269   5.300   2.234
 5021TIP3   OH215068   2.054   4.362   0.469
 5021TIP3    H115069   2.098   4.442   0.439
 5021TIP3    H215070   1.976   4.393   0.515
 5022TIP3   OH215071   3.753   3.785   4.304
 5022TIP3    H115072   3.701   3.766   4.382
 5022TIP3    H215073   3.738   3.878   4.288
 5023TIP3   OH215074   3.199   5.233   2.870
 5023TIP3    H115075   3.119   5.258   2.917
 5023TIP3    H215076   3.260   5.206   2.938
 5024TIP3   OH215077   5.948   3.695   1.809
 5024TIP3    H115078   5.949   3.693   1.714
 5024TIP3    H215079   5.959   3.604   1.836
 5025TIP3   OH215080   4.417   4.616   1.889
 5025TIP3    H115081   4.442   4.632   1.980
 5025TIP3    H215082   4.411   4.704   1.851
 5026TIP3   OH215083   2.594   4.072   5.055
 5026TIP3    H115084   2.653   4.087   4.981
 5026TIP3    H215085   2.563   3.982   5.044
 5027TIP3   OH215086   4.031   3.864   1.517
 5027TIP3    H115087   4.046   3.910   1.435
 5027TIP3    H215088   4.088   3.907   1.580
 5028TIP3   OH215089   1.419   4.888   4.944
 5028TIP3    H115090   1.330   4.857   4.962
 5028TIP3    H215091   1.437   4.951   5.015
 5029TIP3   OH215092   4.868   1.290   2.303
 5029TIP3    H115093   4.932   1.341   2.353
 5029TIP3    H215094   4.911   1.270   2.221
 5030TIP3   OH215095   0.724   2.089   1.981
 5030TIP3    H115096   0.747   2.013   2.035
 5030TIP3    H215097   0.758   2.067   1.894
 5031TIP3   OH215098   5.990   0.491   4.411
 5031TIP3    H115099   5.996   0.586   4.399
 5031TIP3    H215100   5.909   0.478   4.460
 5032TIP3   OH215101   4.057   5.012   2.529
 5032TIP3    H115102   4.049   5.068   2.452
 5032TIP3    H215103   4.087   4.928   2.494
 5033TIP3   OH215104   1.094   4.154   0.243
 5033TIP3    H115105   1.103   4.124   0.152
 5033TIP3    H215106   1.170   4.210   0.258
 5034TIP3   OH215107   0.379   0.572   3.315
 5034TIP3    H115108   0.345   0.611   3.234
 5034TIP3    H215109   0.302   0.535   3.358
 5035TIP3   OH215110   2.710   0.559   2.550
 5035TIP3    H115111   2.622   0.529   2.573
 5035TIP3    H215112   2.736   0.617   2.622
 5036TIP3   OH215113   4.938   1.838   4.641
 5036TIP3    H115114   4.866   1.851   4.703
 5036TIP3    H215115   4.960   1.926   4.611
 5037TIP3   OH215116   4.472   1.763   0.760
 5037TIP3    H115117   4.459   1.857   0.751
 5037TIP3    H215118   4.493   1.733   0.672
 5038TIP3   OH215119   5.768   2.845   4.385
 5038TIP3    H115120   5.786   2.839   4.479
 5038TIP3    H215121   5.760   2.939   4.369
 5039TIP3   OH215122   3.039   3.413   4.438
 5039TIP3    H115123   3.121   3.458   4.452
 5039TIP3    H215124   3.053   3.325   4.475
 5040TIP3   OH215125   2.676   3.350   1.549
 5040TIP3    H115126   2.639   3.262   1.554
 5040TIP3    H215127   2.756   3.345   1.602
 5041TIP3   OH215128   1.123   3.226   0.187
 5041TIP3    H115129   1.187   3.156   0.204
 5041TIP3    H215130   1.165   3.305   0.220
 5042TIP3   OH215131   0.461   2.003   0.127
 5042TIP3    H115132   0.495   1.919   0.098
 5042TIP3    H215133   0.531   2.041   0.180
 5043TIP3   OH215134   3.685   4.108   3.945
 5043TIP3    H115135   3.759   4.095   3.885
 5043TIP3    H215136   3.708   4.186   3.995
 5044TIP3   OH215137   1.907   3.244   2.959
 5044TIP3    H115138   1.987   3.238   2.906
 5044TIP3    H215139   1.886   3.154   2.982
 5045TIP3   OH215140   5.184   5.495   3.477
 5045TIP3    H115141   5.165   5.494   3.384
 5045TIP3    H215142   5.279   5.495   3.483
 5046TIP3   OH215143   5.297   3.677   4.481
 5046TIP3    H115144   5.379   3.697   4.527
 5046TIP3    H215145   5.286   3.583   4.493
 5047TIP3   OH215146   5.042   5.850   2.903
 5047TIP3    H115147   5.097   5.929   2.908
 5047TIP3    H215148   5.096   5.781   2.942
 5048TIP3   OH215149   1.565   1.253   3.939
 5048TIP3    H115150   1.503   1.227   3.871
 5048TIP3    H215151   1.516   1.246   4.021
 5049TIP3   OH215152   1.442   4.194   0.690
 5049TIP3    H115153   1.512   4.140   0.726
 5049TIP3    H215154   1.406   4.241   0.765
 5050TIP3   OH215155   0.997   2.704   1.732
 5050TIP3    H115156   1.008   2.620   1.777
 5050TIP3    H215157   1.071   2.757   1.760
 5051TIP3   OH215158   0.433   0.505   1.479
 5051TIP3    H115159   0.337   0.510   1.481
 5051TIP3    H215160   0.461   0.585   1.437
 5052TIP3   OH215161   1.549   5.161   4.845
 5052TIP3    H115162   1.571   5.236   4.791
 5052TIP3    H215163   1.529   5.091   4.782
 5053TIP3   OH215164   5.026   4.164   0.293
 5053TIP3    H115165   5.083   4.148   0.369
 5053TIP3    H215166   5.081   4.143   0.218
 5054TIP3   OH215167   4.722   0.898   0.813
 5054TIP3    H115168   4.782   0.826   0.830
 5054TIP3    H215169   4.658   0.892   0.885
 5055TIP3   OH215170   0.534   4.738   3.870
 5055TIP3    H115171   0.512   4.811   3.929
 5055TIP3    H215172   0.467   4.672   3.887
 5056TIP3   OH215173   2.902   5.969   1.704
 5056TIP3    H115174   2.872   5.908   1.636
 5056TIP3    H215175   2.987   5.934   1.731
 5057TIP3   OH215176   2.460   5.458   5.009
 5057TIP3    H115177   2.497   5.539   5.044
 5057TIP3    H215178   2.497   5.389   5.065
 5058TIP3   OH215179   4.092   5.011   3.476
 5058TIP3    H115180   4.118   5.056   3.396
 5058TIP3    H215181   4.174   4.989   3.519
 5059TIP3   OH215182   4.479   2.485   3.435
 5059TIP3    H115183   4.470   2.445   3.348
 5059TIP3    H215184   4.389   2.507   3.460
 5060TIP3   OH215185   4.527   3.386   1.427
 5060TIP3    H115186   4.619   3.389   1.452
 5060TIP3    H215187   4.524   3.430   1.342
 5061TIP3   OH215188   2.904   3.011   0.422
 5061TIP3    H115189   2.871   3.010   0.512
 5061TIP3    H215190   2.830   3.041   0.369
 5062TIP3   OH215191   6.032   2.039   0.481
 5062TIP3    H115192   5.979   2.000   0.412
 5062TIP3    H215193   6.122   2.031   0.449
 5063TIP3   OH215194   0.516   3.136   3.516
 5063TIP3    H115195   0.539   3.044   3.504
 5063TIP3    H215196   0.469   3.159   3.436
 5064TIP3   OH215197   0.674   2.245   3.363
 5064TIP3    H115198   0.678   2.252   3.268
 5064TIP3    H215199   0.762   2.266   3.393
 5065TIP3   OH215200   2.869   2.125   3.942
 5065TIP3    H115201   2.836   2.037   3.924
 5065TIP3    H215202   2.825   2.181   3.878
 5066TIP3   OH215203   0.755   4.839   4.834
 5066TIP3    H115204   0.775   4.929   4.808
 5066TIP3    H215205   0.659   4.834   4.832
 5067TIP3   OH215206   0.456   3.964   0.228
 5067TIP3    H115207   0.448   3.921   0.313
 5067TIP3    H215208   0.538   4.013   0.234
 5068TIP3   OH215209   0.717   1.460   1.352
 5068TIP3    H115210   0.695   1.539   1.401
 5068TIP3    H215211   0.777   1.490   1.284
 5069TIP3   OH215212   3.523   1.909   3.573
 5069TIP3    H115213   3.522   1.955   3.489
 5069TIP3    H215214   3.485   1.971   3.635
 5070TIP3   OH215215   2.444   4.119   3.568
 5070TIP3    H115216   2.424   4.163   3.485
 5070TIP3    H215217   2.516   4.171   3.605
 5071TIP3   OH215218   2.114   5.102   0.658
 5071TIP3    H115219   2.073   5.114   0.744
 5071TIP3    H215220   2.156   5.016   0.664
 5072TIP3   OH215221   2.515   3.653   0.981
 5072TIP3    H115222   2.582   3.694   1.035
 5072TIP3    H215223   2.482   3.723   0.924
 5073TIP3   OH215224   2.811   4.277   0.349
 5073TIP3    H115225   2.790   4.204   0.290
 5073TIP3    H215226   2.845   4.345   0.291
 5074TIP3   OH215227   0.355   1.145   0.410
 5074TIP3    H115228   0.264   1.126   0.434
 5074TIP3    H215229   0.353   1.157   0.316
 5075TIP3   OH215230   1.584   4.495   1.064
 5075TIP3    H115231   1.546   4.578   1.093
 5075TIP3    H215232   1.596   4.446   1.145
 5076TIP3   OH215233   2.932   0.964   3.858
 5076TIP3    H115234   2.918   1.043   3.805
 5076TIP3    H215235   3.026   0.948   3.853
 5077TIP3   OH215236   3.464   0.589   2.957
 5077TIP3    H115237   3.391   0.586   2.895
 5077TIP3    H215238   3.537   0.626   2.906
 5078TIP3   OH215239   1.398   0.124   2.520
 5078TIP3    H115240   1.406   0.030   2.505
 5078TIP3    H215241   1.322   0.132   2.579
 5079TIP3   OH215242   4.909   3.519   3.535
 5079TIP3    H115243   4.973   3.519   3.607
 5079TIP3    H215244   4.825   3.504   3.578
 5080TIP3   OH215245   3.617   4.982   3.106
 5080TIP3    H115246   3.573   4.939   3.033
 5080TIP3    H215247   3.695   5.022   3.068
 5081TIP3   OH215248   4.187   3.514   2.055
 5081TIP3    H115249   4.248   3.459   2.007
 5081TIP3    H215250   4.199   3.602   2.017
 5082TIP3   OH215251   5.142   5.271   0.577
 5082TIP3    H115252   5.150   5.202   0.644
 5082TIP3    H215253   5.191   5.237   0.502
 5083TIP3   OH215254   4.083   1.577   4.111
 5083TIP3    H115255   4.001   1.556   4.155
 5083TIP3    H215256   4.057   1.618   4.029
 5084TIP3   OH215257   5.174   1.503   4.670
 5084TIP3    H115258   5.172   1.550   4.587
 5084TIP3    H215259   5.140   1.565   4.734
 5085TIP3   OH215260   3.382   0.961   4.068
 5085TIP3    H115261   3.415   1.051   4.068
 5085TIP3    H215262   3.287   0.970   4.063
 5086TIP3   OH215263   4.207   1.238   1.310
 5086TIP3    H115264   4.272   1.169   1.296
 5086TIP3    H215265   4.162   1.215   1.391
 5087TIP3   OH215266   4.555   3.302   3.835
 5087TIP3    H115267   4.622   3.276   3.772
 5087TIP3    H215268   4.587   3.270   3.919
 5088TIP3   OH215269   5.253   1.633   1.155
 5088TIP3    H115270   5.299   1.618   1.238
 5088TIP3    H215271   5.279   1.559   1.100
 5089TIP3   OH215272   0.731   4.725   0.921
 5089TIP3    H115273   0.783   4.709   0.842
 5089TIP3    H215274   0.640   4.726   0.889
 5090TIP3   OH215275   2.181   3.830   3.048
 5090TIP3    H115276   2.224   3.839   3.133
 5090TIP3    H215277   2.091   3.808   3.069
 5091TIP3   OH215278   3.656   2.748   4.915
 5091TIP3    H115279   3.728   2.781   4.861
 5091TIP3    H215280   3.580   2.799   4.887
 5092TIP3   OH215281   4.127   4.782   4.127
 5092TIP3    H115282   4.183   4.848   4.167
 5092TIP3    H215283   4.138   4.705   4.182
 5093TIP3   OH215284   3.264   4.780   1.579
 5093TIP3    H115285   3.175   4.809   1.559
 5093TIP3    H215286   3.288   4.830   1.658
 5094TIP3   OH215287  -0.025   3.851   0.800
 5094TIP3    H115288   0.061   3.832   0.761
 5094TIP3    H215289  -0.006   3.919   0.865
 5095TIP3   OH215290   2.366   2.937   4.461
 5095TIP3    H115291   2.391   2.872   4.395
 5095TIP3    H215292   2.449   2.969   4.496
 5096TIP3   OH215293   3.241   0.467   2.320
 5096TIP3    H115294   3.216   0.540   2.264
 5096TIP3    H215295   3.190   0.393   2.288
 5097TIP3   OH215296   2.734   3.664   1.705
 5097TIP3    H115297   2.720   3.681   1.611
 5097TIP3    H215298   2.748   3.751   1.743
 5098TIP3   OH215299   6.349   1.214   1.106
 5098TIP3    H115300   6.262   1.254   1.104
 5098TIP3    H215301   6.405   1.282   1.144
 5099TIP3   OH215302   5.545   4.028   2.903
 5099TIP3    H115303   5.476   4.071   2.852
 5099TIP3    H215304   5.624   4.078   2.883
 5100TIP3   OH215305   3.968   5.135   2.295
 5100TIP3    H115306   3.918   5.067   2.251
 5100TIP3    H215307   4.034   5.162   2.231
 5101TIP3   OH215308   0.797   4.576   2.315
 5101TIP3    H115309   0.880   4.541   2.349
 5101TIP3    H215310   0.808   4.576   2.220
 5102TIP3   OH215311   1.921   3.898   0.874
 5102TIP3    H115312   1.962   3.968   0.823
 5102TIP3    H215313   1.863   3.943   0.935
 5103TIP3   OH215314   1.337   2.562   0.652
 5103TIP3    H115315   1.294   2.621   0.714
 5103TIP3    H215316   1.405   2.518   0.704
 5104TIP3   OH215317   0.988   0.273   0.566
 5104TIP3    H115318   1.025   0.285   0.478
 5104TIP3    H215319   0.899   0.242   0.549
 5105TIP3   OH215320   5.890   1.340   5.126
 5105TIP3    H115321   5.832   1.349   5.050
 5105TIP3    H215322   5.936   1.424   5.132
 5106TIP3   OH215323   2.646   0.997   1.531
 5106TIP3    H115324   2.651   1.062   1.602
 5106TIP3    H215325   2.565   0.949   1.549
 5107TIP3   OH215326   2.107   3.754   1.083
 5107TIP3    H115327   2.128   3.664   1.059
 5107TIP3    H215328   2.015   3.764   1.059
 5108TIP3   OH215329   4.597   0.381   2.374
 5108TIP3    H115330   4.511   0.397   2.335
 5108TIP3    H215331   4.580   0.318   2.444
 5109TIP3   OH215332   6.227   1.021   4.964
 5109TIP3    H115333   6.172   0.950   4.930
 5109TIP3    H215334   6.220   1.090   4.898
 5110TIP3   OH215335   5.796   2.820   2.247
 5110TIP3    H115336   5.799   2.836   2.342
 5110TIP3    H215337   5.830   2.731   2.237
 5111TIP3   OH215338   4.003   2.139   0.220
 5111TIP3    H115339   4.081   2.172   0.176
 5111TIP3    H215340   3.937   2.133   0.151
 5112TIP3   OH215341   5.289   1.183   3.740
 5112TIP3    H115342   5.270   1.096   3.705
 5112TIP3    H215343   5.327   1.167   3.826
 5113TIP3   OH215344   4.057   3.531   0.964
 5113TIP3    H115345   3.996   3.547   0.892
 5113TIP3    H215346   4.061   3.614   1.011
 5114TIP3   OH215347   4.388   6.003   5.132
 5114TIP3    H115348   4.333   5.925   5.123
 5114TIP3    H215349   4.346   6.068   5.075
 5115TIP3   OH215350   3.460   4.140   0.349
 5115TIP3    H115351   3.500   4.224   0.328
 5115TIP3    H215352   3.460   4.137   0.445
 5116TIP3   OH215353   3.236   4.178   2.013
 5116TIP3    H115354   3.264   4.245   1.950
 5116TIP3    H215355   3.186   4.226   2.079
 5117TIP3   OH215356   5.913   4.032   1.675
 5117TIP3    H115357   5.861   3.999   1.602
 5117TIP3    H215358   5.935   4.122   1.650
 5118TIP3   OH215359   3.519   3.544   4.658
 5118TIP3    H115360   3.463   3.541   4.736
 5118TIP3    H215361   3.591   3.484   4.678
 5119TIP3   OH215362   4.836   1.740   2.047
 5119TIP3    H115363   4.783   1.796   2.103
 5119TIP3    H215364   4.802   1.652   2.062
 5120TIP3   OH215365   2.431   2.603   1.970
 5120TIP3    H115366   2.363   2.670   1.969
 5120TIP3    H215367   2.475   2.614   2.055
 5121TIP3   OH215368   5.138   4.373   2.597
 5121TIP3    H115369   5.052   4.397   2.632
 5121TIP3    H215370   5.133   4.278   2.588
 5122TIP3   OH215371   5.968   2.368   3.357
 5122TIP3    H115372   5.952   2.442   3.299
 5122TIP3    H215373   6.060   2.345   3.343
 5123TIP3   OH215374   1.938   4.403   5.082
 5123TIP3    H115375   1.846   4.379   5.077
 5123TIP3    H215376   1.956   4.448   4.999
 5124TIP3   OH215377   1.870   2.360   1.998
 5124TIP3    H115378   1.792   2.354   1.943
 5124TIP3    H215379   1.898   2.269   2.010
 5125TIP3   OH215380   5.796   4.045   5.068
 5125TIP3    H115381   5.872   4.066   5.014
 5125TIP3    H215382   5.751   3.975   5.020
 5126TIP3   OH215383   3.067   3.100   1.838
 5126TIP3    H115384   2.997   3.036   1.825
 5126TIP3    H215385   3.081   3.101   1.932
 5127TIP3   OH215386   5.072   3.843   0.326
 5127TIP3    H115387   5.034   3.813   0.409
 5127TIP3    H215388   5.010   3.906   0.292
 5128TIP3   OH215389   5.070   5.173   4.947
 5128TIP3    H115390   5.160   5.147   4.969
 5128TIP3    H215391   5.078   5.263   4.915
 5129TIP3   OH215392   4.683   4.420   4.428
 5129TIP3    H115393   4.682   4.396   4.521
 5129TIP3    H215394   4.774   4.409   4.401
 5130TIP3   OH215395   5.317   4.228   4.345
 5130TIP3    H115396   5.311   4.181   4.261
 5130TIP3    H215397   5.409   4.222   4.369
 5131TIP3   OH215398   0.875   2.304   0.397
 5131TIP3    H115399   0.953   2.305   0.342
 5131TIP3    H215400   0.808   2.347   0.344
 5132TIP3   OH215401   3.193   0.910   3.443
 5132TIP3    H115402   3.214   0.899   3.350
 5132TIP3    H215403   3.222   0.999   3.464
 5133TIP3   OH215404   2.711   1.336   3.463
 5133TIP3    H115405   2.775   1.350   3.392
 5133TIP3    H215406   2.735   1.401   3.529
 5134TIP3   OH215407   3.819   1.744   5.128
 5134TIP3    H115408   3.817   1.801   5.051
 5134TIP3    H215409   3.911   1.737   5.151
 5135TIP3   OH215410   4.867   1.173   2.665
 5135TIP3    H115411   4.871   1.269   2.662
 5135TIP3    H215412   4.789   1.154   2.716
 5136TIP3   OH215413   0.893   1.725   0.730
 5136TIP3    H115414   0.979   1.697   0.761
 5136TIP3    H215415   0.835   1.651   0.747
 5137TIP3   OH215416   1.753   4.737   3.379
 5137TIP3    H115417   1.763   4.653   3.422
 5137TIP3    H215418   1.667   4.733   3.337
 5138TIP3   OH215419   1.862   5.179   4.943
 5138TIP3    H115420   1.830   5.197   5.032
 5138TIP3    H215421   1.787   5.195   4.887
 5139TIP3   OH215422   4.898   1.753   3.153
 5139TIP3    H115423   4.906   1.849   3.159
 5139TIP3    H215424   4.836   1.739   3.081
 5140TIP3   OH215425   5.063   3.032   0.330
 5140TIP3    H115426   5.029   2.944   0.314
 5140TIP3    H215427   5.158   3.023   0.324
 5141TIP3   OH215428   3.591   1.303   0.779
 5141TIP3    H115429   3.676   1.288   0.819
 5141TIP3    H215430   3.594   1.255   0.696
 5142TIP3   OH215431   2.292   2.866   1.730
 5142TIP3    H115432   2.318   2.929   1.662
 5142TIP3    H215433   2.342   2.892   1.807
 5143TIP3   OH215434   0.170   0.254   3.042
 5143TIP3    H115435   0.154   0.266   2.949
 5143TIP3    H215436   0.099   0.303   3.085
 5144TIP3   OH215437   5.583   0.592   0.482
 5144TIP3    H115438   5.510   0.543   0.519
 5144TIP3    H215439   5.545   0.638   0.407
 5145TIP3   OH215440   4.793   2.432   4.010
 5145TIP3    H115441   4.826   2.503   3.956
 5145TIP3    H215442   4.733   2.383   3.953
 5146TIP3   OH215443   1.151   2.714   2.859
 5146TIP3    H115444   1.225   2.664   2.893
 5146TIP3    H215445   1.148   2.691   2.766
 5147TIP3   OH215446   2.448   1.322   2.713
 5147TIP3    H115447   2.447   1.308   2.618
 5147TIP3    H215448   2.465   1.235   2.750
 5148TIP3   OH215449   0.212   5.448   1.989
 5148TIP3    H115450   0.189   5.539   2.005
 5148TIP3    H215451   0.278   5.451   1.920
 5149TIP3   OH215452   1.067   4.476   0.905
 5149TIP3    H115453   1.007   4.495   0.833
 5149TIP3    H215454   1.010   4.442   0.975
 5150TIP3   OH215455   5.409   3.706   0.058
 5150TIP3    H115456   5.426   3.660  -0.024
 5150TIP3    H215457   5.423   3.799   0.038
 5151TIP3   OH215458   3.690   5.933   3.799
 5151TIP3    H115459   3.697   5.993   3.725
 5151TIP3    H215460   3.622   5.972   3.855
 5152TIP3   OH215461   4.534   2.539   4.279
 5152TIP3    H115462   4.500   2.462   4.234
 5152TIP3    H215463   4.473   2.554   4.350
 5153TIP3   OH215464   2.464   1.289   3.795
 5153TIP3    H115465   2.375   1.255   3.789
 5153TIP3    H215466   2.518   1.221   3.753
 5154TIP3   OH215467   5.383   1.199   1.906
 5154TIP3    H115468   5.381   1.119   1.958
 5154TIP3    H215469   5.414   1.266   1.967
 5155TIP3   OH215470   2.577   5.090   2.155
 5155TIP3    H115471   2.571   5.171   2.206
 5155TIP3    H215472   2.616   5.117   2.072
 5156TIP3   OH215473   3.932   5.665   1.731
 5156TIP3    H115474   3.900   5.751   1.758
 5156TIP3    H215475   3.923   5.665   1.636
 5157TIP3   OH215476   6.293   2.061   2.879
 5157TIP3    H115477   6.327   2.029   2.963
 5157TIP3    H215478   6.320   1.995   2.815
 5158TIP3   OH215479   2.509   6.005   1.057
 5158TIP3    H115480   2.584   5.945   1.063
 5158TIP3    H215481   2.433   5.947   1.052
 5159TIP3   OH215482   2.655   0.757   2.093
 5159TIP3    H115483   2.575   0.720   2.130
 5159TIP3    H215484   2.628   0.841   2.055
 5160TIP3   OH215485   5.915   5.880   3.727
 5160TIP3    H115486   5.982   5.927   3.777
 5160TIP3    H215487   5.845   5.944   3.713
 5161TIP3   OH215488   4.756   3.000   2.435
 5161TIP3    H115489   4.790   3.089   2.438
 5161TIP3    H215490   4.801   2.958   2.362
 5162TIP3   OH215491   3.606   1.766   4.007
 5162TIP3    H115492   3.573   1.855   4.019
 5162TIP3    H215493   3.634   1.738   4.094
 5163TIP3   OH215494   0.222   4.695   1.729
 5163TIP3    H115495   0.167   4.639   1.675
 5163TIP3    H215496   0.196   4.676   1.819
 5164TIP3   OH215497   2.478   0.994   1.891
 5164TIP3    H115498   2.534   1.021   1.964
 5164TIP3    H215499   2.515   1.039   1.815
 5165TIP3   OH215500   0.729   4.782   3.283
 5165TIP3    H115501   0.775   4.829   3.214
 5165TIP3    H215502   0.637   4.781   3.256
 5166TIP3   OH215503   4.440   0.643   1.112
 5166TIP3    H115504   4.508   0.613   1.173
 5166TIP3    H215505   4.358   0.618   1.153
 5167TIP3   OH215506   4.058   4.076   0.427
 5167TIP3    H115507   3.989   4.025   0.385
 5167TIP3    H215508   4.032   4.081   0.518
 5168TIP3   OH215509   1.848   4.526   3.143
 5168TIP3    H115510   1.788   4.579   3.091
 5168TIP3    H215511   1.928   4.578   3.148
 5169TIP3   OH215512   3.147   5.601   0.579
 5169TIP3    H115513   3.106   5.681   0.546
 5169TIP3    H215514   3.104   5.530   0.531
 5170TIP3   OH215515   0.018   0.196   3.417
 5170TIP3    H115516   0.101   0.173   3.459
 5170TIP3    H215517  -0.025   0.254   3.480
 5171TIP3   OH215518   3.587   5.699   3.644
 5171TIP3    H115519   3.617   5.726   3.558
 5171TIP3    H215520   3.638   5.752   3.705
 5172TIP3   OH215521   3.111   5.853   3.094
 5172TIP3    H115522   3.053   5.782   3.069
 5172TIP3    H215523   3.119   5.845   3.189
 5173TIP3   OH215524   2.092   0.691   0.812
 5173TIP3    H115525   2.077   0.604   0.774
 5173TIP3    H215526   2.108   0.674   0.905
 5174TIP3   OH215527   3.692   0.282   4.876
 5174TIP3    H115528   3.753   0.345   4.913
 5174TIP3    H215529   3.688   0.303   4.783
 5175TIP3   OH215530   6.300   1.399   3.743
 5175TIP3    H115531   6.386   1.439   3.731
 5175TIP3    H215532   6.266   1.440   3.822
 5176TIP3   OH215533   2.054   4.145   0.869
 5176TIP3    H115534   2.066   4.182   0.782
 5176TIP3    H215535   2.114   4.071   0.873
 5177TIP3   OH215536   5.388   2.188   1.545
 5177TIP3    H115537   5.377   2.148   1.632
 5177TIP3    H215538   5.390   2.282   1.562
 5178TIP3   OH215539   4.645   1.595   4.074
 5178TIP3    H115540   4.734   1.561   4.082
 5178TIP3    H215541   4.636   1.618   3.982
 5179TIP3   OH215542   4.438   1.514   0.874
 5179TIP3    H115543   4.451   1.604   0.842
 5179TIP3    H215544   4.465   1.458   0.801
 5180TIP3   OH215545   3.157   4.577   2.600
 5180TIP3    H115546   3.091   4.626   2.650
 5180TIP3    H215547   3.123   4.578   2.510
 5181TIP3   OH215548   0.700   5.431   5.121
 5181TIP3    H115549   0.770   5.460   5.180
 5181TIP3    H215550   0.739   5.361   5.069
 5182TIP3   OH215551   2.052   3.174   1.527
 5182TIP3    H115552   2.042   3.085   1.561
 5182TIP3    H215553   1.963   3.201   1.504
 5183TIP3   OH215554   1.635   4.254   0.193
 5183TIP3    H115555   1.706   4.194   0.216
 5183TIP3    H215556   1.641   4.265   0.099
 5184TIP3   OH215557   6.295   5.614   1.089
 5184TIP3    H115558   6.241   5.692   1.100
 5184TIP3    H215559   6.372   5.630   1.144
 5185TIP3   OH215560   0.873   2.980   1.737
 5185TIP3    H115561   0.790   2.976   1.785
 5185TIP3    H215562   0.875   2.899   1.686
 5186TIP3   OH215563   4.244   1.940   0.191
 5186TIP3    H115564   4.155   1.912   0.216
 5186TIP3    H215565   4.232   1.985   0.107
 5187TIP3   OH215566   3.955   2.127   1.194
 5187TIP3    H115567   4.046   2.112   1.220
 5187TIP3    H215568   3.952   2.221   1.173
 5188TIP3   OH215569   3.088   0.121   3.592
 5188TIP3    H115570   3.074   0.158   3.506
 5188TIP3    H215571   3.162   0.170   3.628
 5189TIP3   OH215572   5.168   3.973   3.609
 5189TIP3    H115573   5.200   3.999   3.523
 5189TIP3    H215574   5.242   3.987   3.668
 5190TIP3   OH215575   4.202   4.461   3.293
 5190TIP3    H115576   4.112   4.461   3.324
 5190TIP3    H215577   4.210   4.543   3.243
 5191TIP3   OH215578   2.740   0.551   3.961
 5191TIP3    H115579   2.825   0.510   3.980
 5191TIP3    H215580   2.756   0.607   3.886
 5192TIP3   OH215581   3.602   1.384   4.473
 5192TIP3    H115582   3.660   1.333   4.416
 5192TIP3    H215583   3.653   1.399   4.552
 5193TIP3   OH215584   0.536   1.598   4.426
 5193TIP3    H115585   0.442   1.588   4.415
 5193TIP3    H215586   0.564   1.650   4.351
 5194TIP3   OH215587   4.359   5.967   4.180
 5194TIP3    H115588   4.382   6.057   4.156
 5194TIP3    H215589   4.274   5.952   4.139
 5195TIP3   OH215590   3.042   0.936   2.842
 5195TIP3    H115591   3.083   1.020   2.824
 5195TIP3    H215592   3.101   0.892   2.902
 5196TIP3   OH215593   4.551   3.912   2.774
 5196TIP3    H115594   4.523   3.974   2.843
 5196TIP3    H215595   4.642   3.891   2.797
 5197TIP3   OH215596   5.151   5.050   2.910
 5197TIP3    H115597   5.117   4.978   2.962
 5197TIP3    H215598   5.076   5.081   2.859
 5198TIP3   OH215599   3.861   3.355   5.066
 5198TIP3    H115600   3.814   3.412   5.006
 5198TIP3    H215601   3.931   3.316   5.013
 5199TIP3   OH215602   1.914   5.562   2.321
 5199TIP3    H115603   1.941   5.619   2.393
 5199TIP3    H215604   1.909   5.475   2.360
 5200TIP3   OH215605   0.615   2.692   0.123
 5200TIP3    H115606   0.710   2.681   0.114
 5200TIP3    H215607   0.604   2.735   0.208
 5201TIP3   OH215608   3.636   5.441   3.126
 5201TIP3    H115609   3.684   5.406   3.202
 5201TIP3    H215610   3.705   5.474   3.069
 5202TIP3   OH215611   2.113   0.827   2.313
 5202TIP3    H115612   2.154   0.891   2.255
 5202TIP3    H215613   2.036   0.871   2.348
 5203TIP3   OH215614   3.299   5.779   3.979
 5203TIP3    H115615   3.240   5.854   3.974
 5203TIP3    H215616   3.289   5.735   3.894
 5204TIP3   OH215617   4.641   5.892   4.569
 5204TIP3    H115618   4.714   5.850   4.614
 5204TIP3    H215619   4.664   5.886   4.476
 5205TIP3   OH215620   5.177   3.638   5.052
 5205TIP3    H115621   5.188   3.702   4.981
 5205TIP3    H215622   5.178   3.553   5.008
 5206TIP3   OH215623   5.684   5.481   1.765
 5206TIP3    H115624   5.694   5.420   1.692
 5206TIP3    H215625   5.719   5.435   1.841
 5207TIP3   OH215626   2.552   1.205   1.719
 5207TIP3    H115627   2.584   1.289   1.686
 5207TIP3    H215628   2.463   1.199   1.683
 5208TIP3   OH215629   1.803   2.305   0.829
 5208TIP3    H115630   1.765   2.232   0.879
 5208TIP3    H215631   1.878   2.266   0.783
 5209TIP3   OH215632   1.319   5.631   0.242
 5209TIP3    H115633   1.391   5.587   0.198
 5209TIP3    H215634   1.260   5.658   0.172
 5210TIP3   OH215635   3.206   0.933   3.780
 5210TIP3    H115636   3.236   0.845   3.803
 5210TIP3    H215637   3.286   0.984   3.769
 5211TIP3   OH215638   0.001   5.364   4.497
 5211TIP3    H115639  -0.006   5.447   4.451
 5211TIP3    H215640   0.005   5.298   4.427
 5212TIP3   OH215641   0.580   4.739   0.351
 5212TIP3    H115642   0.579   4.662   0.294
 5212TIP3    H215643   0.629   4.805   0.302
 5213TIP3   OH215644   5.627   4.485   2.143
 5213TIP3    H115645   5.567   4.471   2.069
 5213TIP3    H215646   5.574   4.472   2.221
 5214TIP3   OH215647   0.063   2.856   4.225
 5214TIP3    H115648   0.125   2.803   4.276
 5214TIP3    H215649   0.077   2.827   4.135
 5215TIP3   OH215650   2.606   0.065   1.109
 5215TIP3    H115651   2.646   0.152   1.111
 5215TIP3    H215652   2.623   0.030   1.197
 5216TIP3   OH215653   4.715   2.661   0.330
 5216TIP3    H115654   4.746   2.581   0.287
 5216TIP3    H215655   4.727   2.644   0.423
 5217TIP3   OH215656   0.657   5.808   4.800
 5217TIP3    H115657   0.697   5.879   4.749
 5217TIP3    H215658   0.706   5.730   4.773
 5218TIP3   OH215659   2.251   4.714   0.988
 5218TIP3    H115660   2.297   4.787   1.030
 5218TIP3    H215661   2.319   4.668   0.938
 5219TIP3   OH215662   0.502   4.769   3.142
 5219TIP3    H115663   0.486   4.827   3.068
 5219TIP3    H215664   0.501   4.681   3.104
 5220TIP3   OH215665   2.928   0.115   2.079
 5220TIP3    H115666   2.929   0.019   2.069
 5220TIP3    H215667   2.957   0.149   1.995
 5221TIP3   OH215668   3.063   5.786   2.233
 5221TIP3    H115669   3.010   5.753   2.161
 5221TIP3    H215670   3.006   5.848   2.279
 5222TIP3   OH215671   2.152   4.928   1.550
 5222TIP3    H115672   2.228   4.877   1.521
 5222TIP3    H215673   2.189   4.997   1.605
 5223TIP3   OH215674   2.699   0.693   4.465
 5223TIP3    H115675   2.681   0.721   4.375
 5223TIP3    H215676   2.764   0.623   4.455
 5224TIP3   OH215677   5.528   2.374   3.930
 5224TIP3    H115678   5.474   2.380   3.851
 5224TIP3    H215679   5.466   2.387   4.002
 5225TIP3   OH215680   0.550   1.836   0.755
 5225TIP3    H115681   0.595   1.902   0.702
 5225TIP3    H215682   0.529   1.766   0.694
 5226TIP3   OH215683   3.147   0.404   2.580
 5226TIP3    H115684   3.185   0.399   2.492
 5226TIP3    H215685   3.053   0.399   2.566
 5227TIP3   OH215686   0.146   1.086   4.066
 5227TIP3    H115687   0.062   1.060   4.104
 5227TIP3    H215688   0.128   1.093   3.972
 5228TIP3   OH215689   1.293   0.664   0.474
 5228TIP3    H115690   1.308   0.588   0.530
 5228TIP3    H215691   1.293   0.739   0.534
 5229TIP3   OH215692   3.104   0.695   2.211
 5229TIP3    H115693   3.038   0.700   2.280
 5229TIP3    H215694   3.053   0.682   2.131
 5230TIP3   OH215695   4.650   0.584   2.027
 5230TIP3    H115696   4.705   0.597   2.105
 5230TIP3    H215697   4.566   0.622   2.050
 5231TIP3   OH215698   5.900   5.025   0.865
 5231TIP3    H115699   5.856   5.007   0.948
 5231TIP3    H215700   5.977   5.077   0.890
 5232TIP3   OH215701   5.530   4.695   1.080
 5232TIP3    H115702   5.594   4.685   1.151
 5232TIP3    H215703   5.541   4.616   1.027
 5233TIP3   OH215704   6.249   0.283   2.399
 5233TIP3    H115705   6.303   0.207   2.423
 5233TIP3    H215706   6.312   0.352   2.380
 5234TIP3   OH215707   1.143   2.034   4.336
 5234TIP3    H115708   1.159   1.961   4.276
 5234TIP3    H215709   1.229   2.055   4.372
 5235TIP3   OH215710   2.531   2.988   0.879
 5235TIP3    H115711   2.479   3.055   0.924
 5235TIP3    H215712   2.467   2.925   0.846
 5236TIP3   OH215713   3.861   2.971   2.034
 5236TIP3    H115714   3.845   2.913   2.108
 5236TIP3    H215715   3.901   2.915   1.967
 5237TIP3   OH215716   4.160   5.473   1.635
 5237TIP3    H115717   4.211   5.395   1.615
 5237TIP3    H215718   4.191   5.499   1.722
 5238TIP3   OH215719   0.139   5.087   3.187
 5238TIP3    H115720   0.085   5.127   3.254
 5238TIP3    H215721   0.101   5.116   3.104
 5239TIP3   OH215722   2.226   3.315   4.518
 5239TIP3    H115723   2.319   3.327   4.538
 5239TIP3    H215724   2.189   3.273   4.596
 5240TIP3   OH215725   4.783   0.697   1.317
 5240TIP3    H115726   4.764   0.618   1.267
 5240TIP3    H215727   4.734   0.685   1.399
 5241TIP3   OH215728   5.461   0.275   1.889
 5241TIP3    H115729   5.473   0.369   1.876
 5241TIP3    H215730   5.550   0.241   1.900
 5242TIP3   OH215731   0.565   4.583   4.603
 5242TIP3    H115732   0.513   4.660   4.581
 5242TIP3    H215733   0.617   4.566   4.525
 5243TIP3   OH215734   3.741   1.759   0.866
 5243TIP3    H115735   3.803   1.821   0.905
 5243TIP3    H215736   3.655   1.799   0.880
 5244TIP3   OH215737   1.677   3.435   4.243
 5244TIP3    H115738   1.665   3.400   4.332
 5244TIP3    H215739   1.764   3.404   4.217
 5245TIP3   OH215740   1.966   5.211   4.613
 5245TIP3    H115741   1.905   5.164   4.556
 5245TIP3    H215742   2.026   5.256   4.553
 5246TIP3   OH215743   2.425   3.534   3.761
 5246TIP3    H115744   2.362   3.594   3.722
 5246TIP3    H215745   2.448   3.474   3.691
 5247TIP3   OH215746   4.862   2.720   4.792
 5247TIP3    H115747   4.807   2.703   4.716
 5247TIP3    H215748   4.947   2.682   4.769
 5248TIP3   OH215749   1.511   1.784   4.253
 5248TIP3    H115750   1.450   1.803   4.325
 5248TIP3    H215751   1.498   1.856   4.191
 5249TIP3   OH215752   5.665   3.219   0.304
 5249TIP3    H115753   5.705   3.133   0.320
 5249TIP3    H215754   5.696   3.273   0.376
 5250TIP3   OH215755   4.058   5.417   1.053
 5250TIP3    H115756   4.147   5.415   1.018
 5250TIP3    H215757   4.068   5.397   1.146
 5251TIP3   OH215758   4.006   1.532   4.699
 5251TIP3    H115759   4.056   1.569   4.772
 5251TIP3    H215760   4.010   1.599   4.631
 5252TIP3   OH215761   5.230   3.387   4.498
 5252TIP3    H115762   5.292   3.314   4.502
 5252TIP3    H215763   5.214   3.409   4.590
 5253TIP3   OH215764   0.872   0.066   3.296
 5253TIP3    H115765   0.849  -0.027   3.288
 5253TIP3    H215766   0.873   0.098   3.205
 5254TIP3   OH215767   3.151   3.790   4.782
 5254TIP3    H115768   3.105   3.713   4.812
 5254TIP3    H215769   3.157   3.779   4.687
 5255TIP3   OH215770   3.142   4.549   1.218
 5255TIP3    H115771   3.115   4.640   1.209
 5255TIP3    H215772   3.076   4.499   1.169
 5256TIP3   OH215773   0.963   4.145   1.969
 5256TIP3    H115774   1.002   4.147   2.056
 5256TIP3    H215775   0.971   4.054   1.941
 5257TIP3   OH215776   4.287   4.615   0.715
 5257TIP3    H115777   4.337   4.535   0.703
 5257TIP3    H215778   4.280   4.653   0.627
 5258TIP3   OH215779   3.336   1.300   2.006
 5258TIP3    H115780   3.310   1.241   1.935
 5258TIP3    H215781   3.265   1.294   2.070
 5259TIP3   OH215782   2.466   5.115   3.748
 5259TIP3    H115783   2.515   5.196   3.758
 5259TIP3    H215784   2.531   5.046   3.756
 5260TIP3   OH215785   2.751   4.676   0.402
 5260TIP3    H115786   2.722   4.624   0.327
 5260TIP3    H215787   2.833   4.635   0.429
 5261TIP3   OH215788   4.484   5.961   1.018
 5261TIP3    H115789   4.451   5.914   1.095
 5261TIP3    H215790   4.578   5.941   1.016
 5262TIP3   OH215791   1.125   1.621   0.826
 5262TIP3    H115792   1.200   1.677   0.808
 5262TIP3    H215793   1.156   1.560   0.893
 5263TIP3   OH215794   3.406   0.817   4.549
 5263TIP3    H115795   3.482   0.840   4.602
 5263TIP3    H215796   3.334   0.810   4.611
 5264TIP3   OH215797   6.104   0.478   0.082
 5264TIP3    H115798   6.095   0.572   0.065
 5264TIP3    H215799   6.048   0.462   0.158
 5265TIP3   OH215800   0.403   0.044   3.855
 5265TIP3    H115801   0.393   0.132   3.819
 5265TIP3    H215802   0.398   0.057   3.950
 5266TIP3   OH215803   4.884   3.822   0.968
 5266TIP3    H115804   4.979   3.823   0.958
 5266TIP3    H215805   4.863   3.905   1.011
 5267TIP3   OH215806   2.685   0.730   4.201
 5267TIP3    H115807   2.772   0.750   4.166
 5267TIP3    H215808   2.629   0.800   4.168
 5268TIP3   OH215809   2.160   0.066   2.703
 5268TIP3    H115810   2.093   0.006   2.734
 5268TIP3    H215811   2.233   0.010   2.678
 5269TIP3   OH215812   5.215   4.772   1.544
 5269TIP3    H115813   5.154   4.725   1.487
 5269TIP3    H215814   5.223   4.859   1.505
 5270TIP3   OH215815   4.248   5.751   2.445
 5270TIP3    H115816   4.328   5.731   2.397
 5270TIP3    H215817   4.178   5.735   2.381
 5271TIP3   OH215818   3.909   0.998   2.055
 5271TIP3    H115819   3.981   1.061   2.052
 5271TIP3    H215820   3.830   1.052   2.058
 5272TIP3   OH215821   2.439   0.022   4.290
 5272TIP3    H115822   2.513   0.033   4.231
 5272TIP3    H215823   2.472   0.048   4.376
 5273TIP3   OH215824   0.212   4.046   3.858
 5273TIP3    H115825   0.164   4.007   3.785
 5273TIP3    H215826   0.290   4.085   3.817
 5274TIP3   OH215827   0.077   1.492   3.263
 5274TIP3    H115828   0.144   1.429   3.236
 5274TIP3    H215829   0.119   1.544   3.331
 5275TIP3   OH215830   5.040   0.805   1.202
 5275TIP3    H115831   4.958   0.775   1.239
 5275TIP3    H215832   5.086   0.725   1.176
 5276TIP3   OH215833   2.195   4.583   0.406
 5276TIP3    H115834   2.200   4.594   0.311
 5276TIP3    H215835   2.146   4.660   0.436
 5277TIP3   OH215836   5.343   1.799   2.865
 5277TIP3    H115837   5.435   1.807   2.841
 5277TIP3    H215838   5.341   1.723   2.924
 5278TIP3   OH215839   1.340   4.776   0.915
 5278TIP3    H115840   1.347   4.724   0.835
 5278TIP3    H215841   1.290   4.854   0.890
 5279TIP3   OH215842   6.130   1.182   1.340
 5279TIP3    H115843   6.196   1.156   1.404
 5279TIP3    H215844   6.148   1.275   1.324
 5280TIP3   OH215845   0.353   4.756   0.774
 5280TIP3    H115846   0.439   4.727   0.744
 5280TIP3    H215847   0.314   4.799   0.697
 5281TIP3   OH215848   2.663  -0.035   1.340
 5281TIP3    H115849   2.570  -0.051   1.352
 5281TIP3    H215850   2.697  -0.023   1.429
 5282TIP3   OH215851   1.165   2.770   4.509
 5282TIP3    H115852   1.103   2.723   4.565
 5282TIP3    H215853   1.184   2.709   4.438
 5283TIP3   OH215854   6.045   0.240   3.399
 5283TIP3    H115855   6.120   0.180   3.406
 5283TIP3    H215856   6.007   0.220   3.313
 5284TIP3   OH215857   0.548   0.267   1.420
 5284TIP3    H115858   0.467   0.215   1.414
 5284TIP3    H215859   0.519   0.353   1.451
 5285TIP3   OH215860   5.559   2.762   0.931
 5285TIP3    H115861   5.494   2.813   0.883
 5285TIP3    H215862   5.620   2.731   0.864
 5286TIP3   OH215863   4.734   4.516   1.874
 5286TIP3    H115864   4.762   4.464   1.799
 5286TIP3    H215865   4.647   4.482   1.896
 5287TIP3   OH215866   3.041   1.246   2.029
 5287TIP3    H115867   3.017   1.173   2.086
 5287TIP3    H215868   3.000   1.224   1.945
 5288TIP3   OH215869   2.545   3.570   0.116
 5288TIP3    H115870   2.573   3.644   0.170
 5288TIP3    H215871   2.511   3.610   0.036
 5289TIP3   OH215872   5.859   4.317   0.444
 5289TIP3    H115873   5.923   4.247   0.453
 5289TIP3    H215874   5.776   4.278   0.473
 5290TIP3   OH215875   6.178   3.488   3.132
 5290TIP3    H115876   6.105   3.479   3.193
 5290TIP3    H215877   6.202   3.581   3.138
 5291TIP3   OH215878   4.108   1.078   2.560
 5291TIP3    H115879   4.201   1.076   2.583
 5291TIP3    H215880   4.084   0.987   2.544
 5292TIP3   OH215881   0.509   0.796   2.610
 5292TIP3    H115882   0.585   0.824   2.661
 5292TIP3    H215883   0.490   0.868   2.551
 5293TIP3   OH215884   3.697   5.300   2.790
 5293TIP3    H115885   3.709   5.246   2.868
 5293TIP3    H215886   3.607   5.284   2.763
 5294TIP3   OH215887   5.359   5.407   1.150
 5294TIP3    H115888   5.270   5.370   1.156
 5294TIP3    H215889   5.346   5.493   1.110
 5295TIP3   OH215890   2.474   5.486   4.096
 5295TIP3    H115891   2.453   5.408   4.147
 5295TIP3    H215892   2.390   5.529   4.081
 5296TIP3   OH215893   5.256   4.686   3.149
 5296TIP3    H115894   5.239   4.595   3.123
 5296TIP3    H215895   5.314   4.720   3.081
 5297TIP3   OH215896   2.675   5.539   1.418
 5297TIP3    H115897   2.581   5.526   1.403
 5297TIP3    H215898   2.714   5.526   1.331
 5298TIP3   OH215899   2.787   2.923   2.531
 5298TIP3    H115900   2.693   2.915   2.545
 5298TIP3    H215901   2.806   2.860   2.462
 5299TIP3   OH215902   2.310   0.640   3.177
 5299TIP3    H115903   2.355   0.707   3.125
 5299TIP3    H215904   2.334   0.557   3.135
 5300TIP3   OH215905   1.784   3.462   3.306
 5300TIP3    H115906   1.731   3.429   3.379
 5300TIP3    H215907   1.740   3.429   3.228
 5301TIP3   OH215908   5.228   4.828   2.538
 5301TIP3    H115909   5.137   4.827   2.567
 5301TIP3    H215910   5.223   4.812   2.444
 5302TIP3   OH215911   3.382   0.067   4.831
 5302TIP3    H115912   3.474   0.041   4.826
 5302TIP3    H215913   3.358   0.059   4.923
 5303TIP3   OH215914   2.540   0.518   4.130
 5303TIP3    H115915   2.601   0.520   4.056
 5303TIP3    H215916   2.558   0.600   4.177
 5304TIP3   OH215917   6.073   1.413   4.223
 5304TIP3    H115918   5.984   1.445   4.236
 5304TIP3    H215919   6.119   1.436   4.303
 5305TIP3   OH215920   2.865   2.806   3.059
 5305TIP3    H115921   2.796   2.786   2.995
 5305TIP3    H215922   2.866   2.731   3.118
 5306TIP3   OH215923   2.598   4.273   0.520
 5306TIP3    H115924   2.561   4.361   0.511
 5306TIP3    H215925   2.665   4.268   0.452
 5307TIP3   OH215926   5.512   0.063   4.209
 5307TIP3    H115927   5.568   0.125   4.256
 5307TIP3    H215928   5.570   0.023   4.144
 5308TIP3   OH215929   1.601   2.579   4.283
 5308TIP3    H115930   1.642   2.530   4.212
 5308TIP3    H215931   1.513   2.601   4.251
 5309TIP3   OH215932   0.428   3.048   0.244
 5309TIP3    H115933   0.483   3.012   0.314
 5309TIP3    H215934   0.430   3.143   0.259
 5310TIP3   OH215935   1.857   4.620   0.984
 5310TIP3    H115936   1.824   4.665   1.062
 5310TIP3    H215937   1.822   4.531   0.992
 5311TIP3   OH215938   6.144   1.035   0.443
 5311TIP3    H115939   6.105   1.121   0.458
 5311TIP3    H215940   6.101   0.977   0.505
 5312TIP3   OH215941   1.077   0.613   3.406
 5312TIP3    H115942   1.020   0.639   3.334
 5312TIP3    H215943   1.121   0.695   3.432
 5313TIP3   OH215944   1.738   0.451   3.449
 5313TIP3    H115945   1.671   0.442   3.381
 5313TIP3    H215946   1.733   0.370   3.499
 5314TIP3   OH215947   6.270   0.315   1.053
 5314TIP3    H115948   6.268   0.409   1.036
 5314TIP3    H215949   6.363   0.294   1.060
 5315TIP3   OH215950   1.104   4.901   2.980
 5315TIP3    H115951   1.193   4.885   2.951
 5315TIP3    H215952   1.068   4.962   2.916
 5316TIP3   OH215953   2.377   4.572   1.410
 5316TIP3    H115954   2.408   4.662   1.402
 5316TIP3    H215955   2.344   4.551   1.323
 5317TIP3   OH215956   0.882   0.651   2.717
 5317TIP3    H115957   0.808   0.709   2.705
 5317TIP3    H215958   0.946   0.679   2.652
 5318TIP3   OH215959   4.191   0.238   3.547
 5318TIP3    H115960   4.159   0.191   3.624
 5318TIP3    H215961   4.200   0.329   3.576
 5319TIP3   OH215962   1.496   2.432   3.208
 5319TIP3    H115963   1.490   2.368   3.279
 5319TIP3    H215964   1.443   2.395   3.138
 5320TIP3   OH215965   6.013   1.216   0.190
 5320TIP3    H115966   6.054   1.185   0.271
 5320TIP3    H215967   6.052   1.302   0.174
 5321TIP3   OH215968   1.990   1.077   0.082
 5321TIP3    H115969   2.055   1.033   0.138
 5321TIP3    H215970   2.036   1.091   0.000
 5322TIP3   OH215971   4.071   3.237   3.027
 5322TIP3    H115972   4.010   3.170   2.996
 5322TIP3    H215973   4.036   3.265   3.111
 5323TIP3   OH215974   1.398   1.162   1.670
 5323TIP3    H115975   1.415   1.199   1.756
 5323TIP3    H215976   1.336   1.223   1.629
 5324TIP3   OH215977   2.508   5.737   2.734
 5324TIP3    H115978   2.512   5.818   2.785
 5324TIP3    H215979   2.421   5.737   2.695
 5325TIP3   OH215980   1.545   4.260   1.576
 5325TIP3    H115981   1.541   4.169   1.607
 5325TIP3    H215982   1.461   4.297   1.602
 5326TIP3   OH215983   1.202   4.508   1.396
 5326TIP3    H115984   1.275   4.470   1.446
 5326TIP3    H215985   1.224   4.601   1.389
 5327TIP3   OH215986   5.987   4.958   3.599
 5327TIP3    H115987   6.026   4.979   3.514
 5327TIP3    H215988   6.010   4.866   3.613
 5328TIP3   OH215989   1.937   0.614   3.677
 5328TIP3    H115990   1.904   0.585   3.762
 5328TIP3    H215991   2.000   0.683   3.698
 5329TIP3   OH215992   0.555   4.771   5.139
 5329TIP3    H115993   0.535   4.736   5.052
 5329TIP3    H215994   0.606   4.702   5.182
 5330TIP3   OH215995   2.263   3.683   0.750
 5330TIP3    H115996   2.271   3.631   0.831
 5330TIP3    H215997   2.343   3.735   0.748
 5331TIP3   OH215998   2.766   2.570   3.795
 5331TIP3    H115999   2.710   2.517   3.738
 5331TIP3    H216000   2.718   2.652   3.807
 5332TIP3   OH216001   1.696   2.010   1.669
 5332TIP3    H116002   1.683   1.918   1.646
 5332TIP3    H216003   1.659   2.018   1.757
 5333TIP3   OH216004   3.478   3.974   4.146
 5333TIP3    H116005   3.531   3.973   4.067
 5333TIP3    H216006   3.429   4.056   4.140
 5334TIP3   OH216007   3.825   1.969   4.622
 5334TIP3    H116008   3.794   2.053   4.656
 5334TIP3    H216009   3.913   1.988   4.589
 5335TIP3   OH216010   1.343   3.624   1.556
 5335TIP3    H116011   1.410   3.691   1.570
 5335TIP3    H216012   1.362   3.558   1.623
 5336TIP3   OH216013   4.158   4.242   3.591
 5336TIP3    H116014   4.063   4.250   3.579
 5336TIP3    H216015   4.191   4.332   3.584
 5337TIP3   OH216016   3.041   3.221   0.554
 5337TIP3    H116017   3.005   3.157   0.492
 5337TIP3    H216018   3.038   3.304   0.507
 5338TIP3   OH216019   4.438   4.581   1.535
 5338TIP3    H116020   4.422   4.526   1.611
 5338TIP3    H216021   4.531   4.602   1.540
 5339TIP3   OH216022   0.779   5.076   3.611
 5339TIP3    H116023   0.822   5.087   3.527
 5339TIP3    H216024   0.687   5.092   3.593
 5340TIP3   OH216025   5.826   5.967   2.710
 5340TIP3    H116026   5.767   6.039   2.732
 5340TIP3    H216027   5.820   5.907   2.785
 5341TIP3   OH216028   3.088   5.438   3.279
 5341TIP3    H116029   3.169   5.488   3.288
 5341TIP3    H216030   3.068   5.407   3.367
 5342TIP3   OH216031   6.371   0.330   0.708
 5342TIP3    H116032   6.311   0.261   0.678
 5342TIP3    H216033   6.314   0.400   0.738
 5343TIP3   OH216034   4.007   5.628   4.747
 5343TIP3    H116035   3.931   5.649   4.802
 5343TIP3    H216036   4.082   5.666   4.793
 5344TIP3   OH216037   1.237   5.927   3.910
 5344TIP3    H116038   1.141   5.924   3.907
 5344TIP3    H216039   1.259   6.016   3.883
 5345TIP3   OH216040   2.420   3.948   0.183
 5345TIP3    H116041   2.442   4.041   0.172
 5345TIP3    H216042   2.346   3.934   0.125
 5346TIP3   OH216043   2.647   1.405   2.158
 5346TIP3    H116044   2.677   1.454   2.082
 5346TIP3    H216045   2.575   1.457   2.193
 5347TIP3   OH216046   0.962   1.035   3.994
 5347TIP3    H116047   1.042   1.036   4.047
 5347TIP3    H216048   0.894   1.003   4.054
 5348TIP3   OH216049   5.269   1.403   5.094
 5348TIP3    H116050   5.263   1.438   5.183
 5348TIP3    H216051   5.288   1.479   5.040
 5349TIP3   OH216052   6.163   2.701   4.740
 5349TIP3    H116053   6.195   2.707   4.650
 5349TIP3    H216054   6.083   2.648   4.733
 5350TIP3   OH216055   1.658   2.228   3.070
 5350TIP3    H116056   1.612   2.212   2.988
 5350TIP3    H216057   1.664   2.323   3.076
 5351TIP3   OH216058   4.675   0.523   3.784
 5351TIP3    H116059   4.696   0.610   3.751
 5351TIP3    H216060   4.609   0.489   3.723
 5352TIP3   OH216061   1.062   4.063   0.619
 5352TIP3    H116062   1.092   4.005   0.688
 5352TIP3    H216063   0.967   4.056   0.621
 5353TIP3   OH216064   5.498   3.740   3.580
 5353TIP3    H116065   5.417   3.713   3.536
 5353TIP3    H216066   5.469   3.766   3.668
 5354TIP3   OH216067   0.499   3.985   4.635
 5354TIP3    H116068   0.579   3.986   4.688
 5354TIP3    H216069   0.430   3.964   4.697
 5355TIP3   OH216070   5.607   3.961   1.185
 5355TIP3    H116071   5.523   3.984   1.224
 5355TIP3    H216072   5.626   4.033   1.125
 5356TIP3   OH216073   2.085   1.295   1.781
 5356TIP3    H116074   2.114   1.335   1.699
 5356TIP3    H216075   2.146   1.222   1.795
 5357TIP3   OH216076   3.549   4.895   4.069
 5357TIP3    H116077   3.551   4.852   3.984
 5357TIP3    H216078   3.640   4.917   4.087
 5358TIP3   OH216079   1.189  -0.005   0.597
 5358TIP3    H116080   1.238  -0.019   0.515
 5358TIP3    H216081   1.114   0.049   0.571
 5359TIP3   OH216082   4.632   3.211   1.851
 5359TIP3    H116083   4.680   3.283   1.809
 5359TIP3    H216084   4.696   3.169   1.908
 5360TIP3   OH216085   3.862   1.974   0.979
 5360TIP3    H116086   3.884   2.037   1.047
 5360TIP3    H216087   3.812   2.024   0.915
 5361TIP3   OH216088   2.877   2.565   3.161
 5361TIP3    H116089   2.804   2.515   3.127
 5361TIP3    H216090   2.904   2.519   3.241
 5362TIP3   OH216091   4.447   0.633   4.847
 5362TIP3    H116092   4.372   0.574   4.855
 5362TIP3    H216093   4.490   0.629   4.932
 5363TIP3   OH216094   4.343   5.838   0.337
 5363TIP3    H116095   4.261   5.837   0.387
 5363TIP3    H216096   4.376   5.748   0.344
 5364TIP3   OH216097   1.600   3.435   1.413
 5364TIP3    H116098   1.624   3.456   1.323
 5364TIP3    H216099   1.515   3.391   1.406
 5365TIP3   OH216100   4.628   0.602   1.529
 5365TIP3    H116101   4.664   0.643   1.607
 5365TIP3    H216102   4.670   0.516   1.524
 5366TIP3   OH216103   3.860   2.367   4.340
 5366TIP3    H116104   3.766   2.355   4.330
 5366TIP3    H216105   3.877   2.349   4.433
 5367TIP3   OH216106   2.876   0.670   1.435
 5367TIP3    H116107   2.900   0.758   1.405
 5367TIP3    H216108   2.853   0.623   1.355
 5368TIP3   OH216109   2.745   5.844   4.063
 5368TIP3    H116110   2.741   5.766   4.119
 5368TIP3    H216111   2.749   5.809   3.974
 5369TIP3   OH216112   1.852   3.364   4.025
 5369TIP3    H116113   1.922   3.305   4.053
 5369TIP3    H216114   1.778   3.306   4.005
 5370TIP3   OH216115   1.764   4.769   1.201
 5370TIP3    H116116   1.826   4.726   1.259
 5370TIP3    H216117   1.744   4.852   1.245
 5371TIP3   OH216118   1.137   2.104   1.441
 5371TIP3    H116119   1.202   2.103   1.511
 5371TIP3    H216120   1.184   2.138   1.365
 5372TIP3   OH216121   5.279   0.398   4.996
 5372TIP3    H116122   5.279   0.488   4.963
 5372TIP3    H216123   5.186   0.375   5.000
 5373TIP3   OH216124   3.701   1.917   2.553
 5373TIP3    H116125   3.645   1.945   2.626
 5373TIP3    H216126   3.639   1.896   2.483
 5374TIP3   OH216127   0.918   5.319   3.104
 5374TIP3    H116128   0.868   5.400   3.098
 5374TIP3    H216129   0.975   5.331   3.179
 5375TIP3   OH216130   6.050   3.173   0.719
 5375TIP3    H116131   6.086   3.093   0.756
 5375TIP3    H216132   6.024   3.225   0.795
 5376TIP3   OH216133   6.195   3.199   1.054
 5376TIP3    H116134   6.128   3.228   0.992
 5376TIP3    H216135   6.153   3.205   1.139
 5377TIP3   OH216136   2.489   0.781   3.021
 5377TIP3    H116137   2.582   0.800   3.033
 5377TIP3    H216138   2.444   0.862   3.045
 5378TIP3   OH216139   4.268   5.172   4.008
 5378TIP3    H116140   4.192   5.196   3.954
 5378TIP3    H216141   4.243   5.196   4.097
 5379TIP3   OH216142   3.368   5.093   4.283
 5379TIP3    H116143   3.286   5.135   4.309
 5379TIP3    H216144   3.429   5.114   4.354
 5380TIP3   OH216145   3.343   3.664   3.332
 5380TIP3    H116146   3.307   3.729   3.392
 5380TIP3    H216147   3.364   3.589   3.388
 5381TIP3   OH216148   4.281   3.211   2.062
 5381TIP3    H116149   4.320   3.125   2.078
 5381TIP3    H216150   4.230   3.230   2.141
 5382TIP3   OH216151   2.985   0.871   2.455
 5382TIP3    H116152   2.938   0.952   2.476
 5382TIP3    H216153   2.941   0.804   2.507
 5383TIP3   OH216154   1.053   3.716   4.697
 5383TIP3    H116155   1.128   3.724   4.756
 5383TIP3    H216156   1.006   3.799   4.706
 5384TIP3   OH216157   5.281   2.873   3.794
 5384TIP3    H116158   5.199   2.884   3.746
 5384TIP3    H216159   5.343   2.928   3.748
 5385TIP3   OH216160   2.345   4.475   2.431
 5385TIP3    H116161   2.323   4.567   2.444
 5385TIP3    H216162   2.279   4.427   2.481
 5386TIP3   OH216163   5.108   5.898   2.445
 5386TIP3    H116164   5.083   5.990   2.450
 5386TIP3    H216165   5.177   5.889   2.510
 5387TIP3   OH216166   3.867   0.460   3.088
 5387TIP3    H116167   3.871   0.429   2.998
 5387TIP3    H216168   3.835   0.550   3.081
 5388TIP3   OH216169   5.321   4.275   0.304
 5388TIP3    H116170   5.355   4.223   0.376
 5388TIP3    H216171   5.318   4.365   0.339
 5389TIP3   OH216172   2.528   5.686   0.916
 5389TIP3    H116173   2.547   5.593   0.904
 5389TIP3    H216174   2.437   5.688   0.948
 5390TIP3   OH216175   1.388   1.185   4.523
 5390TIP3    H116176   1.298   1.182   4.491
 5390TIP3    H216177   1.407   1.095   4.549
 5391TIP3   OH216178   5.701   5.643   1.109
 5391TIP3    H116179   5.635   5.711   1.125
 5391TIP3    H216180   5.699   5.588   1.187
 5392TIP3   OH216181   3.578   4.054   3.278
 5392TIP3    H116182   3.535   4.083   3.358
 5392TIP3    H216183   3.659   4.105   3.275
 5393TIP3   OH216184   0.880   2.494   2.470
 5393TIP3    H116185   0.823   2.424   2.501
 5393TIP3    H216186   0.821   2.566   2.450
 5394TIP3   OH216187   1.818   1.728   5.124
 5394TIP3    H116188   1.891   1.787   5.103
 5394TIP3    H216189   1.803   1.680   5.043
 5395TIP3   OH216190   0.421   4.045   2.924
 5395TIP3    H116191   0.424   4.121   2.866
 5395TIP3    H216192   0.362   3.984   2.881
 5396TIP3   OH216193   4.530   0.746   0.431
 5396TIP3    H116194   4.489   0.684   0.491
 5396TIP3    H216195   4.624   0.730   0.441
 5397TIP3   OH216196   4.144   3.031   1.311
 5397TIP3    H116197   4.159   3.122   1.287
 5397TIP3    H216198   4.218   3.009   1.368
 5398TIP3   OH216199   0.468   1.972   3.201
 5398TIP3    H116200   0.556   1.944   3.224
 5398TIP3    H216201   0.480   2.033   3.128
 5399TIP3   OH216202   2.447   1.851   1.501
 5399TIP3    H116203   2.447   1.799   1.421
 5399TIP3    H216204   2.538   1.878   1.513
 5400TIP3   OH216205   2.937   3.670   4.210
 5400TIP3    H116206   2.939   3.659   4.115
 5400TIP3    H216207   3.014   3.724   4.229
 5401TIP3   OH216208   5.733   5.038   2.758
 5401TIP3    H116209   5.701   5.008   2.843
 5401TIP3    H216210   5.827   5.051   2.770
 5402TIP3   OH216211   5.707   4.651   1.876
 5402TIP3    H116212   5.613   4.669   1.885
 5402TIP3    H216213   5.718   4.563   1.912
 5403TIP3   OH216214   5.246   5.050   3.395
 5403TIP3    H116215   5.313   4.983   3.397
 5403TIP3    H216216   5.208   5.043   3.307
 5404TIP3   OH216217   4.768   5.511   1.017
 5404TIP3    H116218   4.841   5.566   0.989
 5404TIP3    H216219   4.749   5.455   0.941
 5405TIP3   OH216220   1.480   3.994   3.292
 5405TIP3    H116221   1.531   4.074   3.291
 5405TIP3    H216222   1.541   3.927   3.323
 5406TIP3   OH216223   5.518   0.541   1.825
 5406TIP3    H116224   5.444   0.576   1.875
 5406TIP3    H216225   5.540   0.611   1.764
 5407TIP3   OH216226   4.962   2.744   2.641
 5407TIP3    H116227   4.880   2.788   2.664
 5407TIP3    H216228   4.935   2.668   2.590
 5408TIP3   OH216229   2.698   2.020   2.263
 5408TIP3    H116230   2.642   1.967   2.206
 5408TIP3    H216231   2.652   2.021   2.347
 5409TIP3   OH216232   5.545   5.494   1.314
 5409TIP3    H116233   5.483   5.500   1.241
 5409TIP3    H216234   5.500   5.536   1.387
 5410TIP3   OH216235   0.173   1.926   2.733
 5410TIP3    H116236   0.156   1.992   2.666
 5410TIP3    H216237   0.243   1.872   2.696
 5411TIP3   OH216238   1.103   0.493   1.490
 5411TIP3    H116239   1.149   0.562   1.538
 5411TIP3    H216240   1.020   0.482   1.536
 5412TIP3   OH216241   4.475   1.163   3.608
 5412TIP3    H116242   4.478   1.128   3.698
 5412TIP3    H216243   4.485   1.085   3.553
 5413TIP3   OH216244   3.871   3.569   4.874
 5413TIP3    H116245   3.961   3.554   4.902
 5413TIP3    H216246   3.857   3.663   4.889
 5414TIP3   OH216247   1.400   3.409   2.745
 5414TIP3    H116248   1.441   3.326   2.721
 5414TIP3    H216249   1.472   3.465   2.772
 5415TIP3   OH216250   5.933   4.064   1.033
 5415TIP3    H116251   5.951   4.043   1.125
 5415TIP3    H216252   5.979   4.147   1.018
 5416TIP3   OH216253   5.191   2.315   5.096
 5416TIP3    H116254   5.238   2.233   5.085
 5416TIP3    H216255   5.250   2.369   5.149
 5417TIP3   OH216256   5.939   4.454   1.504
 5417TIP3    H116257   5.844   4.448   1.514
 5417TIP3    H216258   5.955   4.428   1.414
 5418TIP3   OH216259   4.594   5.373   0.829
 5418TIP3    H116260   4.597   5.282   0.860
 5418TIP3    H216261   4.617   5.367   0.736
 5419TIP3   OH216262   5.226   4.585   3.863
 5419TIP3    H116263   5.233   4.507   3.807
 5419TIP3    H216264   5.315   4.621   3.864
 5420TIP3   OH216265   5.885   4.827   1.820
 5420TIP3    H116266   5.819   4.767   1.854
 5420TIP3    H216267   5.933   4.777   1.754
 5421TIP3   OH216268   2.383   5.386   4.402
 5421TIP3    H116269   2.455   5.340   4.446
 5421TIP3    H216270   2.335   5.429   4.473
 5422TIP3   OH216271   2.367   4.124   2.924
 5422TIP3    H116272   2.401   4.036   2.910
 5422TIP3    H216273   2.277   4.111   2.955
 5423TIP3   OH216274   3.071   5.929   4.044
 5423TIP3    H116275   3.081   5.980   3.963
 5423TIP3    H216276   3.114   5.982   4.111
 5424TIP3   OH216277   5.935   0.359   4.138
 5424TIP3    H116278   5.948   0.388   4.228
 5424TIP3    H216279   5.965   0.432   4.084
 5425TIP3   OH216280   4.291   0.996   0.678
 5425TIP3    H116281   4.336   0.931   0.732
 5425TIP3    H216282   4.358   1.028   0.618
 5426TIP3   OH216283   1.238   1.057   1.354
 5426TIP3    H116284   1.311   0.997   1.370
 5426TIP3    H216285   1.186   1.053   1.434
 5427TIP3   OH216286   1.416   2.873   4.483
 5427TIP3    H116287   1.335   2.830   4.513
 5427TIP3    H216288   1.486   2.822   4.523
 5428TIP3   OH216289   1.289   3.806   3.227
 5428TIP3    H116290   1.373   3.852   3.228
 5428TIP3    H216291   1.313   3.713   3.233
 5429TIP3   OH216292   1.115   1.397   4.879
 5429TIP3    H116293   1.164   1.408   4.798
 5429TIP3    H216294   1.032   1.358   4.852
 5430TIP3   OH216295   2.351   0.028   3.541
 5430TIP3    H116296   2.363   0.068   3.627
 5430TIP3    H216297   2.376   0.096   3.479
 5431TIP3   OH216298   1.883   2.226   4.735
 5431TIP3    H116299   1.950   2.290   4.712
 5431TIP3    H216300   1.851   2.194   4.650
 5432TIP3   OH216301   0.328   3.372   5.019
 5432TIP3    H116302   0.306   3.294   4.968
 5432TIP3    H216303   0.401   3.412   4.971
 5433TIP3   OH216304   4.942   5.017   0.068
 5433TIP3    H116305   4.977   5.094   0.113
 5433TIP3    H216306   4.876   4.982   0.129
 5434TIP3   OH216307   0.370   3.076   1.043
 5434TIP3    H116308   0.353   3.054   1.134
 5434TIP3    H216309   0.356   3.170   1.037
 5435TIP3   OH216310   0.408   2.177   4.140
 5435TIP3    H116311   0.373   2.096   4.176
 5435TIP3    H216312   0.363   2.247   4.187
 5436TIP3   OH216313   3.123   1.732   0.001
 5436TIP3    H116314   3.206   1.690  -0.017
 5436TIP3    H216315   3.086   1.683   0.075
 5437TIP3   OH216316   0.481   4.251   2.734
 5437TIP3    H116317   0.410   4.310   2.710
 5437TIP3    H216318   0.550   4.309   2.768
 5438TIP3   OH216319   0.789   5.131   4.771
 5438TIP3    H116320   0.804   5.156   4.862
 5438TIP3    H216321   0.693   5.136   4.761
 5439TIP3   OH216322   4.861   2.249   1.052
 5439TIP3    H116323   4.921   2.213   0.986
 5439TIP3    H216324   4.882   2.199   1.131
 5440TIP3   OH216325   6.266   0.245   0.050
 5440TIP3    H116326   6.204   0.178   0.021
 5440TIP3    H216327   6.213   0.321   0.070
 5441TIP3   OH216328   5.969   3.649   1.526
 5441TIP3    H116329   6.053   3.689   1.503
 5441TIP3    H216330   5.987   3.555   1.526
 5442TIP3   OH216331   5.377   3.330   0.252
 5442TIP3    H116332   5.419   3.287   0.327
 5442TIP3    H216333   5.331   3.404   0.289
 5443TIP3   OH216334   1.326   2.957   4.018
 5443TIP3    H116335   1.245   2.922   3.981
 5443TIP3    H216336   1.374   2.992   3.943
 5444TIP3   OH216337   2.323   1.844   0.524
 5444TIP3    H116338   2.318   1.842   0.428
 5444TIP3    H216339   2.361   1.759   0.548
 5445TIP3   OH216340   3.350   3.105   4.317
 5445TIP3    H116341   3.366   3.163   4.391
 5445TIP3    H216342   3.412   3.033   4.329
 5446TIP3   OH216343   5.770   3.646   4.750
 5446TIP3    H116344   5.735   3.557   4.747
 5446TIP3    H216345   5.713   3.691   4.813
 5447TIP3   OH216346   3.105   5.136   4.415
 5447TIP3    H116347   3.068   5.207   4.467
 5447TIP3    H216348   3.091   5.162   4.325
 5448TIP3   OH216349   0.747   0.059   4.937
 5448TIP3    H116350   0.688   0.126   4.972
 5448TIP3    H216351   0.739   0.066   4.842
 5449TIP3   OH216352   3.549   0.055   2.344
 5449TIP3    H116353   3.513   0.049   2.433
 5449TIP3    H216354   3.546   0.148   2.322
 5450TIP3   OH216355   3.552   3.257   1.141
 5450TIP3    H116356   3.554   3.313   1.219
 5450TIP3    H216357   3.461   3.232   1.131
 5451TIP3   OH216358   4.727   4.852   2.465
 5451TIP3    H116359   4.641   4.833   2.428
 5451TIP3    H216360   4.763   4.767   2.487
 5452TIP3   OH216361   3.692   5.052   4.757
 5452TIP3    H116362   3.733   5.055   4.671
 5452TIP3    H216363   3.639   4.973   4.756
 5453TIP3   OH216364   3.369   4.433   2.748
 5453TIP3    H116365   3.420   4.482   2.812
 5453TIP3    H216366   3.303   4.496   2.717
 5454TIP3   OH216367   2.866   4.971   2.829
 5454TIP3    H116368   2.820   4.937   2.905
 5454TIP3    H216369   2.804   4.963   2.757
 5455TIP3   OH216370   1.370   5.145   0.671
 5455TIP3    H116371   1.432   5.076   0.647
 5455TIP3    H216372   1.373   5.205   0.596
 5456TIP3   OH216373   0.461   1.608   3.531
 5456TIP3    H116374   0.372   1.617   3.496
 5456TIP3    H216375   0.462   1.667   3.607
 5457TIP3   OH216376   1.812   4.358   3.912
 5457TIP3    H116377   1.848   4.330   3.827
 5457TIP3    H216378   1.756   4.285   3.938
 5458TIP3   OH216379   5.260   2.292   3.820
 5458TIP3    H116380   5.259   2.196   3.823
 5458TIP3    H216381   5.243   2.313   3.728
 5459TIP3   OH216382   4.339   4.123   1.106
 5459TIP3    H116383   4.336   4.114   1.010
 5459TIP3    H216384   4.405   4.060   1.134
 5460TIP3   OH216385   3.750   3.187   0.769
 5460TIP3    H116386   3.660   3.176   0.737
 5460TIP3    H216387   3.767   3.280   0.762
 5461TIP3   OH216388   5.636   3.084  -0.006
 5461TIP3    H116389   5.723   3.092   0.034
 5461TIP3    H216390   5.611   2.993   0.009
 5462TIP3   OH216391   4.761   4.402   1.036
 5462TIP3    H116392   4.794   4.467   1.098
 5462TIP3    H216393   4.781   4.439   0.950
 5463TIP3   OH216394   0.144   1.007   1.811
 5463TIP3    H116395   0.171   1.096   1.787
 5463TIP3    H216396   0.067   0.990   1.757
 5464TIP3   OH216397   5.301   0.121  -0.030
 5464TIP3    H116398   5.363   0.188  -0.059
 5464TIP3    H216399   5.258   0.160   0.046
 5465TIP3   OH216400   1.971   4.026   3.948
 5465TIP3    H116401   2.049   4.065   3.908
 5465TIP3    H216402   1.956   4.079   4.026
 5466TIP3   OH216403   2.608   2.354   4.163
 5466TIP3    H116404   2.568   2.276   4.124
 5466TIP3    H216405   2.644   2.324   4.246
 5467TIP3   OH216406   0.149   4.737   3.784
 5467TIP3    H116407   0.202   4.685   3.845
 5467TIP3    H216408   0.060   4.703   3.794
 5468TIP3   OH216409   1.802   5.095   0.867
 5468TIP3    H116410   1.878   5.133   0.912
 5468TIP3    H216411   1.799   5.140   0.783
 5469TIP3   OH216412   5.645   0.117   4.544
 5469TIP3    H116413   5.669   0.146   4.456
 5469TIP3    H216414   5.567   0.168   4.565
 5470TIP3   OH216415   0.958   5.770   2.508
 5470TIP3    H116416   0.884   5.764   2.569
 5470TIP3    H216417   0.988   5.861   2.515
 5471TIP3   OH216418   5.789   3.185   1.581
 5471TIP3    H116419   5.731   3.110   1.597
 5471TIP3    H216420   5.877   3.150   1.592
 5472TIP3   OH216421   5.127   1.676   2.162
 5472TIP3    H116422   5.059   1.726   2.117
 5472TIP3    H216423   5.208   1.699   2.116
 5473TIP3   OH216424   4.562   5.257   3.277
 5473TIP3    H116425   4.504   5.326   3.246
 5473TIP3    H216426   4.635   5.303   3.318
 5474TIP3   OH216427   0.855   2.096   4.293
 5474TIP3    H116428   0.833   2.185   4.264
 5474TIP3    H216429   0.950   2.096   4.300
 5475TIP3   OH216430   0.456   0.073   2.597
 5475TIP3    H116431   0.443   0.111   2.684
 5475TIP3    H216432   0.408  -0.009   2.599
 5476TIP3   OH216433   4.284   1.475   3.175
 5476TIP3    H116434   4.370   1.441   3.201
 5476TIP3    H216435   4.293   1.570   3.180
 5477TIP3   OH216436   1.904   2.865   0.174
 5477TIP3    H116437   1.900   2.805   0.248
 5477TIP3    H216438   1.976   2.924   0.194
 5478TIP3   OH216439   2.659   4.462   0.123
 5478TIP3    H116440   2.641   4.556   0.123
 5478TIP3    H216441   2.722   4.450   0.051
 5479TIP3   OH216442   4.128   0.947   3.572
 5479TIP3    H116443   4.058   0.886   3.594
 5479TIP3    H216444   4.124   1.013   3.641
 5480TIP3   OH216445   1.850   3.654   4.792
 5480TIP3    H116446   1.772   3.710   4.784
 5480TIP3    H216447   1.823   3.586   4.854
 5481TIP3   OH216448   0.436   5.422   1.759
 5481TIP3    H116449   0.450   5.488   1.691
 5481TIP3    H216450   0.391   5.351   1.715
 5482TIP3   OH216451   1.817   0.769   3.424
 5482TIP3    H116452   1.756   0.812   3.484
 5482TIP3    H216453   1.797   0.805   3.338
 5483TIP3   OH216454   0.310   5.125   3.748
 5483TIP3    H116455   0.350   5.046   3.711
 5483TIP3    H216456   0.380   5.164   3.801
 5484TIP3   OH216457   0.351  -0.002   2.032
 5484TIP3    H116458   0.294   0.075   2.029
 5484TIP3    H216459   0.300  -0.068   2.079
 5485TIP3   OH216460   2.298   5.108   3.077
 5485TIP3    H116461   2.316   5.038   3.140
 5485TIP3    H216462   2.334   5.076   2.994
 5486TIP3   OH216463   3.410   3.478   2.367
 5486TIP3    H116464   3.345   3.537   2.330
 5486TIP3    H216465   3.462   3.532   2.426
 5487TIP3   OH216466   0.737   2.405   1.845
 5487TIP3    H116467   0.736   2.340   1.774
 5487TIP3    H216468   0.828   2.435   1.849
 5488TIP3   OH216469   0.702   3.543   0.506
 5488TIP3    H116470   0.613   3.547   0.471
 5488TIP3    H216471   0.758   3.572   0.434
 5489TIP3   OH216472   2.253   3.133   1.859
 5489TIP3    H116473   2.308   3.156   1.783
 5489TIP3    H216474   2.194   3.207   1.869
 5490TIP3   OH216475   4.121   1.483   0.597
 5490TIP3    H116476   4.148   1.459   0.508
 5490TIP3    H216477   4.177   1.557   0.620
 5491TIP3   OH216478   0.177   3.417   3.228
 5491TIP3    H116479   0.147   3.419   3.137
 5491TIP3    H216480   0.102   3.449   3.278
 5492TIP3   OH216481   4.755   4.637   3.990
 5492TIP3    H116482   4.690   4.691   4.036
 5492TIP3    H216483   4.839   4.679   4.010
 5493TIP3   OH216484   3.982   3.981   1.274
 5493TIP3    H116485   3.900   3.971   1.321
 5493TIP3    H216486   3.990   4.075   1.259
 5494TIP3   OH216487   0.107   5.905   4.526
 5494TIP3    H116488   0.193   5.871   4.551
 5494TIP3    H216489   0.111   5.998   4.546
 5495TIP3   OH216490   5.656   1.536   4.003
 5495TIP3    H116491   5.594   1.482   3.955
 5495TIP3    H216492   5.672   1.611   3.946
 5496TIP3   OH216493   1.166   5.854   3.406
 5496TIP3    H116494   1.132   5.874   3.319
 5496TIP3    H216495   1.202   5.937   3.438
 5497TIP3   OH216496   2.635   1.796   4.510
 5497TIP3    H116497   2.716   1.761   4.545
 5497TIP3    H216498   2.630   1.761   4.421
 5498TIP3   OH216499   0.668   1.882   4.271
 5498TIP3    H116500   0.694   1.813   4.209
 5498TIP3    H216501   0.730   1.953   4.256
 5499TIP3   OH216502   3.455   0.699   4.074
 5499TIP3    H116503   3.447   0.794   4.084
 5499TIP3    H216504   3.447   0.664   4.163
 5500TIP3   OH216505   5.969   0.365   0.902
 5500TIP3    H116506   6.047   0.415   0.876
 5500TIP3    H216507   5.917   0.427   0.953
 5501TIP3   OH216508   5.097   3.625   3.012
 5501TIP3    H116509   5.135   3.617   3.100
 5501TIP3    H216510   5.007   3.593   3.022
 5502TIP3   OH216511   5.059   0.150   1.369
 5502TIP3    H116512   5.030   0.060   1.355
 5502TIP3    H216513   5.034   0.169   1.459
 5503TIP3   OH216514  -0.033   4.617   4.720
 5503TIP3    H116515   0.040   4.664   4.762
 5503TIP3    H216516  -0.002   4.598   4.632
 5504TIP3   OH216517   5.920   2.307   4.901
 5504TIP3    H116518   5.969   2.331   4.980
 5504TIP3    H216519   5.986   2.306   4.831
 5505TIP3   OH216520   1.601   3.883   3.672
 5505TIP3    H116521   1.661   3.901   3.745
 5505TIP3    H216522   1.555   3.804   3.700
 5506TIP3   OH216523   5.624   1.635   5.227
 5506TIP3    H116524   5.609   1.565   5.164
 5506TIP3    H216525   5.617   1.716   5.176
 5507TIP3   OH216526   3.356   2.049   3.003
 5507TIP3    H116527   3.307   2.116   2.956
 5507TIP3    H216528   3.298   2.023   3.074
 5508TIP3   OH216529   5.972   3.643   0.535
 5508TIP3    H116530   5.885   3.675   0.510
 5508TIP3    H216531   5.969   3.549   0.519
 5509TIP3   OH216532   4.462   5.277   4.486
 5509TIP3    H116533   4.545   5.324   4.493
 5509TIP3    H216534   4.421   5.289   4.572
 5510TIP3   OH216535   2.960   5.511   1.810
 5510TIP3    H116536   3.035   5.475   1.762
 5510TIP3    H216537   2.984   5.504   1.902
 5511TIP3   OH216538   2.221   1.470   1.562
 5511TIP3    H116539   2.241   1.529   1.635
 5511TIP3    H216540   2.127   1.477   1.551
 5512TIP3   OH216541   0.767   5.583   4.680
 5512TIP3    H116542   0.838   5.537   4.724
 5512TIP3    H216543   0.759   5.538   4.595
 5513TIP3   OH216544   1.775   2.868   3.494
 5513TIP3    H116545   1.861   2.909   3.507
 5513TIP3    H216546   1.796   2.784   3.451
 5514TIP3   OH216547   3.968   2.744   1.036
 5514TIP3    H116548   3.936   2.832   1.015
 5514TIP3    H216549   3.901   2.708   1.095
 5515TIP3   OH216550   5.204   0.988   1.310
 5515TIP3    H116551   5.159   0.988   1.395
 5515TIP3    H216552   5.159   0.921   1.259
 5516TIP3   OH216553   0.233   1.960   1.225
 5516TIP3    H116554   0.320   1.921   1.218
 5516TIP3    H216555   0.245   2.050   1.194
 5517TIP3   OH216556   2.932   2.726   0.739
 5517TIP3    H116557   2.943   2.643   0.785
 5517TIP3    H216558   2.873   2.776   0.795
 5518TIP3   OH216559   5.219   5.110   4.118
 5518TIP3    H116560   5.237   5.201   4.144
 5518TIP3    H216561   5.305   5.074   4.098
 5519TIP3   OH216562   4.575   0.654   5.076
 5519TIP3    H116563   4.615   0.741   5.083
 5519TIP3    H216564   4.531   0.642   5.160
 5520TIP3   OH216565   2.351   0.069   2.440
 5520TIP3    H116566   2.331   0.140   2.500
 5520TIP3    H216567   2.372   0.113   2.358
 5521TIP3   OH216568   1.209   1.614   3.165
 5521TIP3    H116569   1.184   1.686   3.108
 5521TIP3    H216570   1.295   1.587   3.134
 5522TIP3   OH216571   1.483   5.984   2.820
 5522TIP3    H116572   1.523   6.018   2.899
 5522TIP3    H216573   1.422   5.917   2.851
 5523TIP3   OH216574   3.315   0.420   3.529
 5523TIP3    H116575   3.302   0.357   3.458
 5523TIP3    H216576   3.399   0.396   3.567
 5524TIP3   OH216577   3.938   4.637   5.019
 5524TIP3    H116578   3.851   4.631   4.981
 5524TIP3    H216579   3.998   4.623   4.946
 5525TIP3   OH216580   0.284   5.093   2.392
 5525TIP3    H116581   0.198   5.066   2.358
 5525TIP3    H216582   0.304   5.174   2.345
 5526TIP3   OH216583   4.058   5.552   3.412
 5526TIP3    H116584   4.120   5.553   3.486
 5526TIP3    H216585   4.083   5.628   3.359
 5527TIP3   OH216586   0.559   5.763   3.261
 5527TIP3    H116587   0.548   5.836   3.322
 5527TIP3    H216588   0.533   5.798   3.176
 5528TIP3   OH216589   2.292   0.751   4.803
 5528TIP3    H116590   2.339   0.735   4.885
 5528TIP3    H216591   2.361   0.772   4.740
 5529TIP3   OH216592   0.548   0.164   0.041
 5529TIP3    H116593   0.482   0.163  -0.028
 5529TIP3    H216594   0.525   0.239   0.095
 5530TIP3   OH216595   0.726   5.891   2.699
 5530TIP3    H116596   0.673   5.937   2.634
 5530TIP3    H216597   0.732   5.952   2.772
 5531TIP3   OH216598   2.100   0.153   2.300
 5531TIP3    H116599   2.138   0.218   2.359
 5531TIP3    H216600   2.071   0.082   2.357
 5532TIP3   OH216601   4.862   0.326   3.778
 5532TIP3    H116602   4.813   0.407   3.788
 5532TIP3    H216603   4.818   0.264   3.837
 5533TIP3   OH216604   0.296   2.265   2.989
 5533TIP3    H116605   0.254   2.277   2.904
 5533TIP3    H216606   0.225   2.236   3.047
 5534TIP3   OH216607   1.617   4.011   1.906
 5534TIP3    H116608   1.581   4.022   1.993
 5534TIP3    H216609   1.708   3.984   1.921
 5535TIP3   OH216610   2.631   5.189   0.434
 5535TIP3    H116611   2.544   5.184   0.395
 5535TIP3    H216612   2.673   5.107   0.407
 5536TIP3   OH216613   4.903   3.518   1.150
 5536TIP3    H116614   4.914   3.441   1.206
 5536TIP3    H216615   4.981   3.518   1.094
 5537TIP3   OH216616   2.974   5.232   0.073
 5537TIP3    H116617   2.882   5.245   0.048
 5537TIP3    H216618   2.970   5.188   0.158
 5538TIP3   OH216619   6.280   0.954   2.847
 5538TIP3    H116620   6.326   0.943   2.764
 5538TIP3    H216621   6.345   0.993   2.905
 5539TIP3   OH216622   5.431   5.154   4.538
 5539TIP3    H116623   5.344   5.115   4.543
 5539TIP3    H216624   5.489   5.081   4.517
 5540TIP3   OH216625   5.875   4.330   3.554
 5540TIP3    H116626   5.802   4.379   3.517
 5540TIP3    H216627   5.948   4.346   3.493
 5541TIP3   OH216628   1.004   0.072   2.136
 5541TIP3    H116629   1.050   0.094   2.055
 5541TIP3    H216630   1.072   0.071   2.203
 5542TIP3   OH216631   6.037   1.777   0.660
 5542TIP3    H116632   6.075   1.779   0.748
 5542TIP3    H216633   6.057   1.862   0.623
 5543TIP3   OH216634   5.011   3.265   0.160
 5543TIP3    H116635   5.009   3.185   0.212
 5543TIP3    H216636   4.927   3.307   0.177
 5544TIP3   OH216637   4.658   0.127   0.558
 5544TIP3    H116638   4.564   0.130   0.575
 5544TIP3    H216639   4.678   0.211   0.517
 5545TIP3   OH216640   2.811   1.301   4.555
 5545TIP3    H116641   2.884   1.335   4.606
 5545TIP3    H216642   2.836   1.211   4.534
 5546TIP3   OH216643   1.369   1.715   3.595
 5546TIP3    H116644   1.428   1.642   3.577
 5546TIP3    H216645   1.417   1.771   3.656
 5547TIP3   OH216646   5.222   2.068   4.807
 5547TIP3    H116647   5.194   1.999   4.868
 5547TIP3    H216648   5.159   2.139   4.822
 5548TIP3   OH216649   6.163   3.908   1.936
 5548TIP3    H116650   6.134   3.987   1.981
 5548TIP3    H216651   6.119   3.910   1.851
 5549TIP3   OH216652   3.833   1.550   0.614
 5549TIP3    H116653   3.928   1.552   0.600
 5549TIP3    H216654   3.801   1.487   0.550
 5550TIP3   OH216655   1.399   2.472   1.591
 5550TIP3    H116656   1.406   2.540   1.524
 5550TIP3    H216657   1.489   2.445   1.608
 5551TIP3   OH216658   2.253   3.554   3.282
 5551TIP3    H116659   2.198   3.562   3.360
 5551TIP3    H216660   2.221   3.475   3.238
 5552TIP3   OH216661   4.913   1.591   4.249
 5552TIP3    H116662   4.966   1.568   4.173
 5552TIP3    H216663   4.978   1.608   4.318
 5553TIP3   OH216664   4.140   5.786   0.848
 5553TIP3    H116665   4.130   5.737   0.930
 5553TIP3    H216666   4.138   5.878   0.875
 5554TIP3   OH216667   1.277   1.418   3.406
 5554TIP3    H116668   1.243   1.508   3.402
 5554TIP3    H216669   1.371   1.430   3.424
 5555TIP3   OH216670   3.233   5.046   1.372
 5555TIP3    H116671   3.296   5.055   1.443
 5555TIP3    H216672   3.158   5.098   1.401
 5556TIP3   OH216673   6.252   3.887   4.040
 5556TIP3    H116674   6.283   3.977   4.049
 5556TIP3    H216675   6.313   3.835   4.093
 5557TIP3   OH216676   3.192   2.533   1.928
 5557TIP3    H116677   3.122   2.524   1.864
 5557TIP3    H216678   3.205   2.445   1.962
 5558TIP3   OH216679   4.104   4.712   2.136
 5558TIP3    H116680   4.155   4.632   2.147
 5558TIP3    H216681   4.130   4.745   2.050
 5559TIP3   OH216682   2.162   0.952   4.973
 5559TIP3    H116683   2.071   0.973   4.951
 5559TIP3    H216684   2.189   0.889   4.906
 5560TIP3   OH216685   4.002   0.014   4.793
 5560TIP3    H116686   3.976   0.051   4.877
 5560TIP3    H216687   3.947   0.058   4.729
 5561TIP3   OH216688   2.932   1.388   1.223
 5561TIP3    H116689   3.021   1.387   1.188
 5561TIP3    H216690   2.931   1.461   1.285
 5562TIP3   OH216691   1.909   5.092   4.055
 5562TIP3    H116692   1.999   5.058   4.057
 5562TIP3    H216693   1.856   5.022   4.092
 5563TIP3   OH216694   0.498   0.392   0.714
 5563TIP3    H116695   0.523   0.356   0.629
 5563TIP3    H216696   0.566   0.361   0.774
 5564TIP3   OH216697   2.295   2.452   1.766
 5564TIP3    H116698   2.361   2.492   1.823
 5564TIP3    H216699   2.215   2.502   1.783
 5565TIP3   OH216700   3.599   4.394   4.027
 5565TIP3    H116701   3.641   4.465   3.978
 5565TIP3    H216702   3.600   4.424   4.118
 5566TIP3   OH216703   2.651   5.705   3.825
 5566TIP3    H116704   2.689   5.768   3.763
 5566TIP3    H216705   2.576   5.668   3.779
 5567TIP3   OH216706   0.901   5.095   3.376
 5567TIP3    H116707   0.887   5.075   3.283
 5567TIP3    H216708   0.961   5.170   3.376
 5568TIP3   OH216709   0.669   1.479   3.972
 5568TIP3    H116710   0.616   1.401   3.954
 5568TIP3    H216711   0.745   1.470   3.914
 5569TIP3   OH216712   0.822   5.182   5.036
 5569TIP3    H116713   0.870   5.200   5.116
 5569TIP3    H216714   0.748   5.126   5.064
 5570TIP3   OH216715   3.054   4.324   2.210
 5570TIP3    H116716   3.066   4.390   2.142
 5570TIP3    H216717   2.966   4.289   2.194
 5571TIP3   OH216718   1.282   3.060   4.293
 5571TIP3    H116719   1.308   2.989   4.351
 5571TIP3    H216720   1.282   3.021   4.205
 5572TIP3   OH216721   0.305   4.812   0.428
 5572TIP3    H116722   0.346   4.874   0.488
 5572TIP3    H216723   0.372   4.746   0.412
 5573TIP3   OH216724   5.111   1.450   0.675
 5573TIP3    H116725   5.034   1.438   0.620
 5573TIP3    H216726   5.079   1.503   0.749
 5574TIP3   OH216727   2.215   4.746   2.408
 5574TIP3    H116728   2.136   4.799   2.411
 5574TIP3    H216729   2.285   4.808   2.385
 5575TIP3   OH216730   3.272   4.435   0.087
 5575TIP3    H116731   3.308   4.369   0.028
 5575TIP3    H216732   3.347   4.462   0.142
 5576TIP3   OH216733   2.244   4.624   0.134
 5576TIP3    H116734   2.171   4.646   0.076
 5576TIP3    H216735   2.319   4.614   0.075
 5577TIP3   OH216736   0.740   2.286   4.505
 5577TIP3    H116737   0.811   2.260   4.564
 5577TIP3    H216738   0.709   2.204   4.468
 5578TIP3   OH216739   2.054   2.521   1.853
 5578TIP3    H116740   2.023   2.519   1.762
 5578TIP3    H216741   1.981   2.485   1.904
 5579TIP3   OH216742   1.294   3.253   4.782
 5579TIP3    H116743   1.237   3.198   4.729
 5579TIP3    H216744   1.370   3.198   4.801
 5580TIP3   OH216745   0.785   2.670   2.968
 5580TIP3    H116746   0.771   2.639   3.058
 5580TIP3    H216747   0.854   2.613   2.933
 5581TIP3   OH216748   0.398   3.237   2.632
 5581TIP3    H116749   0.479   3.189   2.612
 5581TIP3    H216750   0.419   3.328   2.615
 5582TIP3   OH216751   2.090   2.653   0.918
 5582TIP3    H116752   1.995   2.651   0.917
 5582TIP3    H216753   2.115   2.678   0.829
 5583TIP3   OH216754   3.948   0.161   4.234
 5583TIP3    H116755   3.928   0.123   4.319
 5583TIP3    H216756   4.030   0.209   4.247
 5584TIP3   OH216757   0.511   3.104   4.834
 5584TIP3    H116758   0.537   3.027   4.886
 5584TIP3    H216759   0.419   3.117   4.855
 5585TIP3   OH216760   2.123   3.715   2.519
 5585TIP3    H116761   2.061   3.718   2.593
 5585TIP3    H216762   2.149   3.623   2.514
 5586TIP3   OH216763   2.571   0.171   0.359
 5586TIP3    H116764   2.515   0.247   0.376
 5586TIP3    H216765   2.580   0.129   0.445
 5587TIP3   OH216766   3.695   4.029   1.076
 5587TIP3    H116767   3.710   4.010   1.169
 5587TIP3    H216768   3.672   4.122   1.074
 5588TIP3   OH216769   5.795   2.372   3.940
 5588TIP3    H116770   5.700   2.363   3.937
 5588TIP3    H216771   5.826   2.317   3.868
 5589TIP3   OH216772   2.547   3.864   3.298
 5589TIP3    H116773   2.613   3.864   3.229
 5589TIP3    H216774   2.597   3.856   3.379
 5590TIP3   OH216775   2.730   3.038   0.644
 5590TIP3    H116776   2.644   3.020   0.682
 5590TIP3    H216777   2.754   3.124   0.678
 5591TIP3   OH216778   0.245   3.784   4.177
 5591TIP3    H116779   0.236   3.716   4.244
 5591TIP3    H216780   0.226   3.739   4.095
 5592TIP3   OH216781   2.141   5.201   2.526
 5592TIP3    H116782   2.200   5.246   2.465
 5592TIP3    H216783   2.165   5.236   2.612
 5593TIP3   OH216784   5.446   1.233   4.137
 5593TIP3    H116785   5.408   1.249   4.223
 5593TIP3    H216786   5.541   1.234   4.152
 5594TIP3   OH216787   0.649   2.340   1.162
 5594TIP3    H116788   0.586   2.272   1.187
 5594TIP3    H216789   0.653   2.335   1.066
 5595TIP3   OH216790   0.263   4.829   2.082
 5595TIP3    H116791   0.212   4.870   2.012
 5595TIP3    H216792   0.219   4.746   2.098
 5596TIP3   OH216793   5.037   1.850   2.563
 5596TIP3    H116794   5.044   1.892   2.648
 5596TIP3    H216795   5.102   1.896   2.509
 5597TIP3   OH216796   3.192   3.286   0.271
 5597TIP3    H116797   3.174   3.256   0.182
 5597TIP3    H216798   3.162   3.377   0.272
 5598TIP3   OH216799   3.945   2.845   3.423
 5598TIP3    H116800   4.016   2.881   3.476
 5598TIP3    H216801   3.870   2.840   3.483
 5599TIP3   OH216802   3.801   2.119   3.456
 5599TIP3    H116803   3.878   2.108   3.511
 5599TIP3    H216804   3.829   2.091   3.369
 5600TIP3   OH216805   1.478   3.508   2.156
 5600TIP3    H116806   1.459   3.457   2.235
 5600TIP3    H216807   1.396   3.506   2.107
 5601TIP3   OH216808   4.450   3.205   0.318
 5601TIP3    H116809   4.426   3.250   0.400
 5601TIP3    H216810   4.434   3.113   0.336
 5602TIP3   OH216811   3.710   2.232   4.760
 5602TIP3    H116812   3.691   2.171   4.832
 5602TIP3    H216813   3.627   2.278   4.746
 5603TIP3   OH216814   2.587   5.050   2.991
 5603TIP3    H116815   2.610   5.142   2.981
 5603TIP3    H216816   2.563   5.021   2.903
 5604TIP3   OH216817   3.658   0.701   2.751
 5604TIP3    H116818   3.723   0.766   2.724
 5604TIP3    H216819   3.574   0.747   2.742
 5605TIP3   OH216820   3.259   5.855   2.430
 5605TIP3    H116821   3.218   5.829   2.348
 5605TIP3    H216822   3.222   5.941   2.449
 5606TIP3   OH216823   4.510   5.646   4.764
 5606TIP3    H116824   4.575   5.716   4.759
 5606TIP3    H216825   4.471   5.644   4.677
 5607TIP3   OH216826   4.614   1.700   5.056
 5607TIP3    H116827   4.607   1.704   5.152
 5607TIP3    H216828   4.699   1.740   5.037
 5608TIP3   OH216829   3.476   1.367   2.894
 5608TIP3    H116830   3.482   1.461   2.911
 5608TIP3    H216831   3.547   1.350   2.832
 5609TIP3   OH216832   4.759   1.912   0.539
 5609TIP3    H116833   4.689   1.847   0.549
 5609TIP3    H216834   4.838   1.867   0.568
 5610TIP3   OH216835   6.070   1.155   2.211
 5610TIP3    H116836   6.164   1.172   2.210
 5610TIP3    H216837   6.030   1.242   2.210
 5611TIP3   OH216838   4.810   4.652   3.488
 5611TIP3    H116839   4.821   4.743   3.461
 5611TIP3    H216840   4.820   4.653   3.583
 5612TIP3   OH216841   0.079   2.800   5.193
 5612TIP3    H116842   0.064   2.758   5.108
 5612TIP3    H216843   0.172   2.784   5.211
 5613TIP3   OH216844   1.070   4.671   5.204
 5613TIP3    H116845   1.157   4.636   5.183
 5613TIP3    H216846   1.009   4.614   5.156
 5614TIP3   OH216847   1.894   3.031   4.976
 5614TIP3    H116848   1.816   3.033   4.921
 5614TIP3    H216849   1.907   2.937   4.994
 5615TIP3   OH216850   0.737   3.838   3.606
 5615TIP3    H116851   0.716   3.922   3.566
 5615TIP3    H216852   0.659   3.814   3.655
 5616TIP3   OH216853   5.255   1.566   1.567
 5616TIP3    H116854   5.334   1.559   1.513
 5616TIP3    H216855   5.247   1.480   1.609
 5617TIP3   OH216856   5.441   1.194   1.561
 5617TIP3    H116857   5.508   1.261   1.576
 5617TIP3    H216858   5.466   1.154   1.478
 5618TIP3   OH216859   6.116   2.715   0.857
 5618TIP3    H116860   6.051   2.714   0.787
 5618TIP3    H216861   6.154   2.627   0.856
 5619TIP3   OH216862   4.738   2.369   0.523
 5619TIP3    H116863   4.822   2.371   0.478
 5619TIP3    H216864   4.739   2.286   0.571
 5620TIP3   OH216865   5.962   0.424   0.305
 5620TIP3    H116866   5.867   0.424   0.301
 5620TIP3    H216867   5.983   0.487   0.374
 5621TIP3   OH216868   4.589   3.484   4.741
 5621TIP3    H116869   4.530   3.440   4.802
 5621TIP3    H216870   4.548   3.570   4.726
 5622TIP3   OH216871   0.668   4.118   0.281
 5622TIP3    H116872   0.653   4.173   0.358
 5622TIP3    H216873   0.725   4.172   0.225
 5623TIP3   OH216874   2.074   1.440   2.667
 5623TIP3    H116875   2.033   1.356   2.687
 5623TIP3    H216876   2.129   1.459   2.743
 5624TIP3   OH216877   0.690   5.213   4.268
 5624TIP3    H116878   0.748   5.181   4.337
 5624TIP3    H216879   0.602   5.191   4.298
 5625TIP3   OH216880   0.584   5.059   5.091
 5625TIP3    H116881   0.520   5.075   5.160
 5625TIP3    H216882   0.598   4.964   5.094
 5626TIP3   OH216883   1.254   3.474   0.182
 5626TIP3    H116884   1.284   3.543   0.241
 5626TIP3    H216885   1.217   3.521   0.107
 5627TIP3   OH216886   2.210   1.054   1.828
 5627TIP3    H116887   2.298   1.023   1.850
 5627TIP3    H216888   2.203   1.043   1.733
 5628TIP3   OH216889   1.324   2.820   1.605
 5628TIP3    H116890   1.328   2.812   1.509
 5628TIP3    H216891   1.282   2.740   1.634
 5629TIP3   OH216892   3.381   2.306   1.002
 5629TIP3    H116893   3.352   2.335   1.088
 5629TIP3    H216894   3.460   2.356   0.984
 5630TIP3   OH216895   0.786   3.424   0.985
 5630TIP3    H116896   0.717   3.416   1.051
 5630TIP3    H216897   0.740   3.437   0.903
 5631TIP3   OH216898   3.700   1.245   3.430
 5631TIP3    H116899   3.678   1.327   3.385
 5631TIP3    H216900   3.718   1.272   3.520
 5632TIP3   OH216901   5.936   3.228   0.482
 5632TIP3    H116902   5.981   3.208   0.564
 5632TIP3    H216903   6.000   3.207   0.413
 5633TIP3   OH216904   3.808   5.225   0.103
 5633TIP3    H116905   3.863   5.181   0.167
 5633TIP3    H216906   3.737   5.163   0.084
 5634TIP3   OH216907   5.407   2.692   4.708
 5634TIP3    H116908   5.426   2.784   4.727
 5634TIP3    H216909   5.408   2.686   4.612
 5635TIP3   OH216910   6.228   4.103   3.246
 5635TIP3    H116911   6.312   4.084   3.203
 5635TIP3    H216912   6.163   4.059   3.192
 5636TIP3   OH216913   5.065   3.854   1.601
 5636TIP3    H116914   5.093   3.931   1.649
 5636TIP3    H216915   4.977   3.875   1.570
 5637TIP3   OH216916   0.334   0.855   4.204
 5637TIP3    H116917   0.277   0.781   4.181
 5637TIP3    H216918   0.279   0.932   4.197
 5638TIP3   OH216919   4.627   0.349   5.107
 5638TIP3    H116920   4.626   0.442   5.086
 5638TIP3    H216921   4.639   0.306   5.022
 5639TIP3   OH216922   2.340   3.272   0.855
 5639TIP3    H116923   2.293   3.233   0.781
 5639TIP3    H216924   2.294   3.239   0.933
 5640TIP3   OH216925   5.382   2.465   2.046
 5640TIP3    H116926   5.349   2.550   2.077
 5640TIP3    H216927   5.448   2.440   2.110
 5641TIP3   OH216928   0.198   2.475   0.424
 5641TIP3    H116929   0.257   2.550   0.424
 5641TIP3    H216930   0.205   2.439   0.513
 5642TIP3   OH216931   1.742   1.425   0.650
 5642TIP3    H116932   1.739   1.416   0.745
 5642TIP3    H216933   1.692   1.350   0.616
 5643TIP3   OH216934   1.544   5.384   0.779
 5643TIP3    H116935   1.503   5.351   0.859
 5643TIP3    H216936   1.481   5.365   0.709
 5644TIP3   OH216937   5.384   4.360   4.015
 5644TIP3    H116938   5.415   4.447   3.992
 5644TIP3    H216939   5.291   4.372   4.035
 5645TIP3   OH216940   2.987   3.611   3.953
 5645TIP3    H116941   3.064   3.556   3.937
 5645TIP3    H216942   2.919   3.574   3.896
 5646TIP3   OH216943   4.791   0.150   2.307
 5646TIP3    H116944   4.747   0.233   2.289
 5646TIP3    H216945   4.833   0.163   2.392
 5647TIP3   OH216946   2.125   2.974   4.604
 5647TIP3    H116947   2.062   2.964   4.532
 5647TIP3    H216948   2.210   2.961   4.563
 5648TIP3   OH216949   5.763   2.444   1.057
 5648TIP3    H116950   5.833   2.423   0.995
 5648TIP3    H216951   5.718   2.361   1.071
 5649TIP3   OH216952   0.143   3.519   2.561
 5649TIP3    H116953   0.216   3.526   2.622
 5649TIP3    H216954   0.078   3.466   2.606
 5650TIP3   OH216955   1.135   1.170   4.459
 5650TIP3    H116956   1.046   1.148   4.433
 5650TIP3    H216957   1.135   1.265   4.467
 5651TIP3   OH216958   5.564   0.739   4.308
 5651TIP3    H116959   5.584   0.710   4.219
 5651TIP3    H216960   5.550   0.658   4.356
 5652TIP3   OH216961   2.040   3.026   2.005
 5652TIP3    H116962   2.053   3.072   2.088
 5652TIP3    H216963   2.127   3.025   1.965
 5653TIP3   OH216964   4.164   0.571   2.858
 5653TIP3    H116965   4.069   0.578   2.849
 5653TIP3    H216966   4.199   0.636   2.797
 5654TIP3   OH216967   1.171   2.958   1.806
 5654TIP3    H116968   1.222   2.924   1.733
 5654TIP3    H216969   1.100   3.007   1.766
 5655TIP3   OH216970   3.375   1.083   3.507
 5655TIP3    H116971   3.460   1.075   3.464
 5655TIP3    H216972   3.369   1.175   3.532
 5656TIP3   OH216973   2.059   2.716   5.064
 5656TIP3    H116974   2.110   2.780   5.114
 5656TIP3    H216975   2.011   2.668   5.131
 5657TIP3   OH216976   5.985   3.369   4.418
 5657TIP3    H116977   5.963   3.306   4.349
 5657TIP3    H216978   6.080   3.364   4.425
 5658TIP3   OH216979   1.901   4.244   3.680
 5658TIP3    H116980   1.828   4.191   3.647
 5658TIP3    H216981   1.978   4.188   3.669
 5659TIP3   OH216982   4.150   2.446   4.469
 5659TIP3    H116983   4.059   2.418   4.470
 5659TIP3    H216984   4.161   2.489   4.384
 5660TIP3   OH216985   5.002   0.166   2.497
 5660TIP3    H116986   5.097   0.161   2.491
 5660TIP3    H216987   4.978   0.095   2.557
 5661TIP3   OH216988   0.749   0.433   2.232
 5661TIP3    H116989   0.830   0.401   2.272
 5661TIP3    H216990   0.753   0.528   2.244
 5662TIP3   OH216991   5.925   2.579   4.408
 5662TIP3    H116992   5.879   2.552   4.328
 5662TIP3    H216993   5.920   2.675   4.406
 5663TIP3   OH216994   1.592   4.706   5.051
 5663TIP3    H116995   1.532   4.743   4.986
 5663TIP3    H216996   1.588   4.767   5.125
 5664TIP3   OH216997   2.556   3.515   1.879
 5664TIP3    H116998   2.598   3.579   1.822
 5664TIP3    H216999   2.463   3.538   1.878
 5665TIP3   OH217000   1.284   4.114   4.816
 5665TIP3    H117001   1.227   4.187   4.789
 5665TIP3    H217002   1.279   4.052   4.744
 5666TIP3   OH217003   4.316   3.961   0.046
 5666TIP3    H117004   4.245   4.014   0.083
 5666TIP3    H217005   4.295   3.956  -0.048
 5667TIP3   OH217006   4.078   5.681   1.136
 5667TIP3    H117007   3.989   5.700   1.166
 5667TIP3    H217008   4.074   5.589   1.109
 5668TIP3   OH217009   0.204   3.176   0.543
 5668TIP3    H117010   0.187   3.082   0.554
 5668TIP3    H217011   0.146   3.218   0.606
 5669TIP3   OH217012   3.861   1.269   2.994
 5669TIP3    H117013   3.799   1.250   2.923
 5669TIP3    H217014   3.830   1.217   3.068
 5670TIP3   OH217015   5.719   0.520   1.611
 5670TIP3    H117016   5.783   0.488   1.546
 5670TIP3    H217017   5.769   0.528   1.692
 5671TIP3   OH217018   2.940   4.124   1.545
 5671TIP3    H117019   2.999   4.102   1.473
 5671TIP3    H217020   2.853   4.108   1.510
 5672TIP3   OH217021   3.869   5.933   1.135
 5672TIP3    H117022   3.799   5.997   1.149
 5672TIP3    H217023   3.858   5.905   1.044
 5673TIP3   OH217024   0.797   5.631   2.826
 5673TIP3    H117025   0.780   5.717   2.788
 5673TIP3    H217026   0.891   5.619   2.820
 5674TIP3   OH217027   1.668   3.720   2.306
 5674TIP3    H117028   1.742   3.777   2.289
 5674TIP3    H217029   1.693   3.636   2.267
 5675TIP3   OH217030   0.277   5.181   4.053
 5675TIP3    H117031   0.186   5.191   4.026
 5675TIP3    H217032   0.305   5.270   4.075
 5676TIP3   OH217033   4.373   0.536   1.585
 5676TIP3    H117034   4.458   0.569   1.558
 5676TIP3    H217035   4.318   0.615   1.594
 5677TIP3   OH217036   6.113   0.483   3.183
 5677TIP3    H117037   6.087   0.525   3.265
 5677TIP3    H217038   6.179   0.542   3.146
 5678TIP3   OH217039   2.397   5.970   4.403
 5678TIP3    H117040   2.313   6.009   4.426
 5678TIP3    H217041   2.377   5.878   4.385
 5679TIP3   OH217042   4.270   2.734   2.695
 5679TIP3    H117043   4.236   2.728   2.785
 5679TIP3    H217044   4.266   2.827   2.674
 5680TIP3   OH217045   0.709   5.831   5.215
 5680TIP3    H117046   0.616   5.844   5.233
 5680TIP3    H217047   0.713   5.815   5.120
 5681TIP3   OH217048   3.369   5.209   3.681
 5681TIP3    H117049   3.283   5.194   3.642
 5681TIP3    H217050   3.391   5.299   3.658
 5682TIP3   OH217051   1.324   3.297   3.151
 5682TIP3    H117052   1.303   3.222   3.096
 5682TIP3    H217053   1.414   3.321   3.126
 5683TIP3   OH217054   2.053   4.971   4.256
 5683TIP3    H117055   2.005   4.989   4.337
 5683TIP3    H217056   2.106   5.049   4.241
 5684TIP3   OH217057   0.884   3.672   0.691
 5684TIP3    H117058   0.826   3.628   0.629
 5684TIP3    H217059   0.940   3.728   0.637
 5685TIP3   OH217060   5.208   3.852   4.874
 5685TIP3    H117061   5.215   3.927   4.815
 5685TIP3    H217062   5.165   3.886   4.952
 5686TIP3   OH217063   0.859   1.011   3.463
 5686TIP3    H117064   0.914   1.074   3.511
 5686TIP3    H217065   0.817   0.959   3.531
 5687TIP3   OH217066   5.087   2.303   4.423
 5687TIP3    H117067   5.047   2.350   4.350
 5687TIP3    H217068   5.106   2.216   4.389
 5688TIP3   OH217069   0.869   5.988   1.224
 5688TIP3    H117070   0.942   5.955   1.277
 5688TIP3    H217071   0.899   5.977   1.133
 5689TIP3   OH217072   1.711   5.585   4.133
 5689TIP3    H117073   1.780   5.549   4.189
 5689TIP3    H217074   1.746   5.575   4.044
 5690TIP3   OH217075   5.410   3.909   5.150
 5690TIP3    H117076   5.320   3.888   5.127
 5690TIP3    H217077   5.463   3.847   5.100
 5691TIP3   OH217078   4.489   0.992   2.920
 5691TIP3    H117079   4.474   0.980   3.013
 5691TIP3    H217080   4.445   1.074   2.899
 5692TIP3   OH217081   3.331   4.208   4.576
 5692TIP3    H117082   3.372   4.172   4.497
 5692TIP3    H217083   3.403   4.248   4.625
 5693TIP3   OH217084   6.339   3.301   0.015
 5693TIP3    H117085   6.389   3.286   0.095
 5693TIP3    H217086   6.296   3.385   0.029
 5694TIP3   OH217087   1.065   1.871   2.160
 5694TIP3    H117088   1.086   1.953   2.204
 5694TIP3    H217089   1.124   1.807   2.200
 5695TIP3   OH217090   5.481   1.091   1.303
 5695TIP3    H117091   5.396   1.052   1.286
 5695TIP3    H217092   5.543   1.018   1.300
 5696TIP3   OH217093   1.903   5.500   3.433
 5696TIP3    H117094   1.950   5.583   3.431
 5696TIP3    H217095   1.813   5.523   3.458
 5697TIP3   OH217096   5.450   0.156   3.664
 5697TIP3    H117097   5.393   0.229   3.642
 5697TIP3    H217098   5.523   0.163   3.602
 5698TIP3   OH217099   4.673   2.133   3.668
 5698TIP3    H117100   4.726   2.106   3.594
 5698TIP3    H217101   4.733   2.134   3.743
 5699TIP3   OH217102   3.802   0.117   3.002
 5699TIP3    H117103   3.784   0.191   3.060
 5699TIP3    H217104   3.809   0.041   3.060
 5700TIP3   OH217105   2.687   4.842   4.616
 5700TIP3    H117106   2.648   4.912   4.564
 5700TIP3    H217107   2.706   4.882   4.701
 5701TIP3   OH217108   1.780   1.896   1.263
 5701TIP3    H117109   1.817   1.870   1.179
 5701TIP3    H217110   1.825   1.977   1.286
 5702TIP3   OH217111   0.774   4.093   0.669
 5702TIP3    H117112   0.784   4.164   0.732
 5702TIP3    H217113   0.753   4.016   0.722
 5703TIP3   OH217114   4.057   2.120   3.562
 5703TIP3    H117115   4.132   2.087   3.514
 5703TIP3    H217116   4.093   2.183   3.624
 5704TIP3   OH217117   6.171   3.586   2.824
 5704TIP3    H117118   6.092   3.544   2.857
 5704TIP3    H217119   6.243   3.545   2.873
 5705TIP3   OH217120   5.803   0.434   0.556
 5705TIP3    H117121   5.749   0.512   0.545
 5705TIP3    H217122   5.749   0.362   0.525
 5706TIP3   OH217123   5.494   2.486   1.310
 5706TIP3    H117124   5.565   2.428   1.339
 5706TIP3    H217125   5.463   2.446   1.229
 5707TIP3   OH217126   0.427   2.175   0.768
 5707TIP3    H117127   0.494   2.145   0.707
 5707TIP3    H217128   0.476   2.206   0.844
 5708TIP3   OH217129   3.648   2.535   4.653
 5708TIP3    H117130   3.612   2.585   4.579
 5708TIP3    H217131   3.615   2.446   4.639
 5709TIP3   OH217132   1.914   4.884   3.527
 5709TIP3    H117133   1.945   4.944   3.459
 5709TIP3    H217134   1.905   4.800   3.483
 5710TIP3   OH217135   2.695   4.932   3.788
 5710TIP3    H117136   2.771   4.900   3.739
 5710TIP3    H217137   2.729   4.950   3.875
 5711TIP3   OH217138   2.446   1.674   4.024
 5711TIP3    H117139   2.473   1.668   3.933
 5711TIP3    H217140   2.400   1.758   4.031
 5712TIP3   OH217141   4.724   3.112   5.203
 5712TIP3    H117142   4.729   3.049   5.131
 5712TIP3    H217143   4.662   3.072   5.265
 5713TIP3   OH217144   0.952   0.594   4.369
 5713TIP3    H117145   0.857   0.600   4.379
 5713TIP3    H217146   0.981   0.546   4.447
 5714TIP3   OH217147   2.576   4.256   0.803
 5714TIP3    H117148   2.541   4.258   0.714
 5714TIP3    H217149   2.662   4.298   0.795
 5715TIP3   OH217150   6.272   3.145   3.004
 5715TIP3    H117151   6.261   3.086   3.078
 5715TIP3    H217152   6.306   3.088   2.934
 5716TIP3   OH217153   3.886   2.844   5.119
 5716TIP3    H117154   3.872   2.866   5.027
 5716TIP3    H217155   3.842   2.915   5.167
 5717TIP3   OH217156   3.834   5.104   1.487
 5717TIP3    H117157   3.770   5.046   1.445
 5717TIP3    H217158   3.857   5.167   1.419
 5718TIP3   OH217159   1.013   0.658   0.433
 5718TIP3    H117160   1.011   0.597   0.360
 5718TIP3    H217161   1.103   0.653   0.466
 5719TIP3   OH217162   4.179   1.493   2.595
 5719TIP3    H117163   4.158   1.515   2.686
 5719TIP3    H217164   4.119   1.422   2.573
 5720TIP3   OH217165   6.202   0.164   1.633
 5720TIP3    H117166   6.219   0.254   1.609
 5720TIP3    H217167   6.194   0.117   1.550
 5721TIP3   OH217168   1.143   5.051   2.511
 5721TIP3    H117169   1.226   5.036   2.466
 5721TIP3    H217170   1.084   5.083   2.443
 5722TIP3   OH217171   4.772   3.075   4.547
 5722TIP3    H117172   4.807   3.160   4.521
 5722TIP3    H217173   4.755   3.029   4.465
 5723TIP3   OH217174   2.829   5.242   3.976
 5723TIP3    H117175   2.750   5.188   3.967
 5723TIP3    H217176   2.796   5.332   3.975
 5724TIP3   OH217177   6.273   5.695   2.450
 5724TIP3    H117178   6.276   5.605   2.417
 5724TIP3    H217179   6.362   5.713   2.479
 5725TIP3   OH217180   6.198   3.771   1.422
 5725TIP3    H117181   6.289   3.792   1.402
 5725TIP3    H217182   6.158   3.755   1.336
 5726TIP3   OH217183   3.869   4.801   0.905
 5726TIP3    H117184   3.925   4.816   0.829
 5726TIP3    H217185   3.898   4.865   0.970
 5727TIP3   OH217186   4.057   3.168   4.091
 5727TIP3    H117187   4.117   3.094   4.099
 5727TIP3    H217188   4.055   3.207   4.179
 5728TIP3   OH217189   2.391   4.930   1.097
 5728TIP3    H117190   2.453   4.950   1.027
 5728TIP3    H217191   2.341   5.010   1.109
 5729TIP3   OH217192   4.148   4.221   1.999
 5729TIP3    H117193   4.094   4.142   2.004
 5729TIP3    H217194   4.087   4.291   1.977
 5730TIP3   OH217195   4.296   4.866   0.852
 5730TIP3    H117196   4.282   4.783   0.806
 5730TIP3    H217197   4.315   4.841   0.942
 5731TIP3   OH217198   5.629   2.207   1.127
 5731TIP3    H117199   5.546   2.189   1.084
 5731TIP3    H217200   5.633   2.143   1.199
 5732TIP3   OH217201   1.531   3.681   4.216
 5732TIP3    H117202   1.609   3.627   4.231
 5732TIP3    H217203   1.474   3.626   4.162
 5733TIP3   OH217204   0.996   2.062   4.024
 5733TIP3    H117205   0.916   2.010   4.023
 5733TIP3    H217206   1.034   2.051   3.937
 5734TIP3   OH217207   2.306   0.647   1.789
 5734TIP3    H117208   2.274   0.671   1.876
 5734TIP3    H217209   2.227   0.627   1.740
 5735TIP3   OH217210   5.852   1.344   4.618
 5735TIP3    H117211   5.829   1.285   4.546
 5735TIP3    H217212   5.789   1.416   4.612
 5736TIP3   OH217213   0.529   3.991   1.443
 5736TIP3    H117214   0.472   4.035   1.505
 5736TIP3    H217215   0.564   4.062   1.389
 5737TIP3   OH217216   0.747   4.324   4.004
 5737TIP3    H117217   0.705   4.321   4.089
 5737TIP3    H217218   0.836   4.292   4.019
 5738TIP3   OH217219   3.245   2.496   3.907
 5738TIP3    H117220   3.175   2.436   3.934
 5738TIP3    H217221   3.314   2.483   3.971
 5739TIP3   OH217222   0.304   4.538   3.920
 5739TIP3    H117223   0.282   4.464   3.862
 5739TIP3    H217224   0.316   4.497   4.006
 5740TIP3   OH217225   0.361   4.568   3.554
 5740TIP3    H117226   0.446   4.530   3.530
 5740TIP3    H217227   0.382   4.642   3.610
 5741TIP3   OH217228   3.217   3.472   3.878
 5741TIP3    H117229   3.286   3.495   3.941
 5741TIP3    H217230   3.233   3.380   3.858
 5742TIP3   OH217231   1.446   0.907   1.407
 5742TIP3    H117232   1.495   0.900   1.325
 5742TIP3    H217233   1.478   0.834   1.460
 5743TIP3   OH217234   3.482   2.703   4.488
 5743TIP3    H117235   3.491   2.765   4.561
 5743TIP3    H217236   3.388   2.700   4.471
 5744TIP3   OH217237   2.404   0.400   0.424
 5744TIP3    H117238   2.439   0.455   0.354
 5744TIP3    H217239   2.440   0.439   0.504
 5745TIP3   OH217240   4.659   4.468   2.882
 5745TIP3    H117241   4.658   4.440   2.974
 5745TIP3    H217242   4.673   4.563   2.886
 5746TIP3   OH217243   5.818   4.630   4.847
 5746TIP3    H117244   5.769   4.548   4.857
 5746TIP3    H217245   5.813   4.671   4.933
 5747TIP3   OH217246   4.213   5.320   0.051
 5747TIP3    H117247   4.170   5.236   0.038
 5747TIP3    H217248   4.251   5.315   0.139
 5748TIP3   OH217249   0.814   2.721   2.075
 5748TIP3    H117250   0.901   2.681   2.086
 5748TIP3    H217251   0.770   2.705   2.158
 5749TIP3   OH217252   0.223   2.492   3.591
 5749TIP3    H117253   0.280   2.529   3.659
 5749TIP3    H217254   0.282   2.469   3.520
 5750TIP3   OH217255   0.725   3.254   4.944
 5750TIP3    H117256   0.806   3.204   4.929
 5750TIP3    H217257   0.658   3.206   4.896
 5751TIP3   OH217258   0.066   0.730   4.271
 5751TIP3    H117259   0.008   0.655   4.288
 5751TIP3    H217260   0.122   0.736   4.348
 5752TIP3   OH217261   2.499   3.807   5.064
 5752TIP3    H117262   2.411   3.782   5.093
 5752TIP3    H217263   2.530   3.732   5.014
 5753TIP3   OH217264   5.314   1.620   0.794
 5753TIP3    H117265   5.320   1.581   0.707
 5753TIP3    H217266   5.281   1.549   0.849
 5754TIP3   OH217267   0.224   0.793   1.071
 5754TIP3    H117268   0.234   0.699   1.057
 5754TIP3    H217269   0.248   0.807   1.163
 5755TIP3   OH217270   0.966   4.064   4.690
 5755TIP3    H117271   0.916   4.084   4.769
 5755TIP3    H217272   0.901   4.035   4.626
 5756TIP3   OH217273   0.689   3.210   2.224
 5756TIP3    H117274   0.677   3.300   2.252
 5756TIP3    H217275   0.678   3.212   2.129
 5757TIP3   OH217276   5.607   0.995   2.736
 5757TIP3    H117277   5.552   1.073   2.737
 5757TIP3    H217278   5.690   1.024   2.699
 5758TIP3   OH217279   3.211   5.780   4.268
 5758TIP3    H117280   3.252   5.694   4.260
 5758TIP3    H217281   3.187   5.804   4.178
 5759TIP3   OH217282   1.913   5.448   1.652
 5759TIP3    H117283   1.844   5.383   1.636
 5759TIP3    H217284   1.966   5.409   1.722
 5760TIP3   OH217285   4.743   3.447   2.796
 5760TIP3    H117286   4.817   3.447   2.735
 5760TIP3    H217287   4.745   3.361   2.836
 5761TIP3   OH217288   2.729   0.333   2.828
 5761TIP3    H117289   2.662   0.275   2.792
 5761TIP3    H217290   2.760   0.287   2.906
 5762TIP3   OH217291   0.946   3.920   3.998
 5762TIP3    H117292   0.951   3.827   4.017
 5762TIP3    H217293   0.874   3.953   4.053
 5763TIP3   OH217294   2.662   0.366   1.523
 5763TIP3    H117295   2.695   0.366   1.613
 5763TIP3    H217296   2.623   0.453   1.512
 5764TIP3   OH217297   0.899   1.121   4.977
 5764TIP3    H117298   0.822   1.178   4.986
 5764TIP3    H217299   0.886   1.076   4.894
 5765TIP3   OH217300   3.088   0.968   0.171
 5765TIP3    H117301   3.035   0.966   0.090
 5765TIP3    H217302   3.034   0.921   0.235
 5766TIP3   OH217303   4.269   4.102   5.040
 5766TIP3    H117304   4.274   4.198   5.038
 5766TIP3    H217305   4.347   4.076   5.089
 5767TIP3   OH217306   3.312   4.217   4.037
 5767TIP3    H117307   3.221   4.237   4.014
 5767TIP3    H217308   3.364   4.280   3.987
 5768TIP3   OH217309   1.220   3.929   1.738
 5768TIP3    H117310   1.188   3.892   1.656
 5768TIP3    H217311   1.162   4.003   1.756
 5769TIP3   OH217312   4.692   1.141   4.060
 5769TIP3    H117313   4.653   1.116   4.143
 5769TIP3    H217314   4.781   1.167   4.082
 5770TIP3   OH217315   0.088   2.697   3.485
 5770TIP3    H117316  -0.005   2.677   3.474
 5770TIP3    H217317   0.117   2.637   3.553
 5771TIP3   OH217318   5.410   0.857   4.512
 5771TIP3    H117319   5.453   0.836   4.429
 5771TIP3    H217320   5.448   0.941   4.539
 5772TIP3   OH217321   4.754   5.697   4.044
 5772TIP3    H117322   4.735   5.705   3.951
 5772TIP3    H217323   4.669   5.689   4.086
 5773TIP3   OH217324   5.125   0.265   2.747
 5773TIP3    H117325   5.186   0.228   2.812
 5773TIP3    H217326   5.049   0.207   2.751
 5774TIP3   OH217327   1.833   3.277   1.996
 5774TIP3    H117328   1.899   3.210   1.980
 5774TIP3    H217329   1.774   3.272   1.921
 5775TIP3   OH217330   5.342   2.249   0.775
 5775TIP3    H117331   5.328   2.156   0.790
 5775TIP3    H217332   5.362   2.285   0.861
 5776TIP3   OH217333   2.778   3.248   4.968
 5776TIP3    H117334   2.688   3.280   4.957
 5776TIP3    H217335   2.781   3.216   5.058
 5777TIP3   OH217336   5.491   3.215   5.138
 5777TIP3    H117337   5.439   3.228   5.059
 5777TIP3    H217338   5.463   3.284   5.198
 5778TIP3   OH217339   0.976   2.072   5.079
 5778TIP3    H117340   0.939   2.122   5.152
 5778TIP3    H217341   0.987   2.137   5.009
 5779TIP3   OH217342   6.013   1.486   2.894
 5779TIP3    H117343   6.097   1.529   2.912
 5779TIP3    H217344   6.003   1.422   2.965
 5780TIP3   OH217345   3.584   0.067   3.458
 5780TIP3    H117346   3.678   0.086   3.458
 5780TIP3    H217347   3.571   0.010   3.533
 5781TIP3   OH217348   3.914   3.000   3.195
 5781TIP3    H117349   3.879   3.085   3.222
 5781TIP3    H217350   3.929   2.953   3.277
 5782TIP3   OH217351   1.389   1.422   2.709
 5782TIP3    H117352   1.439   1.348   2.744
 5782TIP3    H217353   1.452   1.472   2.658
 5783TIP3   OH217354   0.320   5.813   1.942
 5783TIP3    H117355   0.410   5.783   1.953
 5783TIP3    H217356   0.326   5.891   1.888
 5784TIP3   OH217357   3.502   4.857   2.243
 5784TIP3    H117358   3.418   4.903   2.249
 5784TIP3    H217359   3.542   4.869   2.330
 5785TIP3   OH217360   6.103   5.667   2.763
 5785TIP3    H117361   6.014   5.697   2.778
 5785TIP3    H217362   6.094   5.573   2.748
 5786TIP3   OH217363   0.538   1.131   1.169
 5786TIP3    H117364   0.597   1.172   1.106
 5786TIP3    H217365   0.466   1.096   1.116
 5787TIP3   OH217366   1.668   2.478   2.806
 5787TIP3    H117367   1.750   2.446   2.843
 5787TIP3    H217368   1.607   2.405   2.818
 5788TIP3   OH217369   4.967   0.201   4.970
 5788TIP3    H117370   5.053   0.160   4.983
 5788TIP3    H217371   4.909   0.154   5.029
 5789TIP3   OH217372   1.404   5.664   2.650
 5789TIP3    H117373   1.390   5.620   2.733
 5789TIP3    H217374   1.387   5.597   2.584
 5790TIP3   OH217375   2.929   3.434   1.647
 5790TIP3    H117376   2.938   3.460   1.739
 5790TIP3    H217377   2.877   3.503   1.607
 5791TIP3   OH217378   2.752   5.521   4.002
 5791TIP3    H117379   2.729   5.579   3.929
 5791TIP3    H217380   2.671   5.514   4.053
 5792TIP3   OH217381   5.670   2.321   3.217
 5792TIP3    H117382   5.654   2.234   3.255
 5792TIP3    H217383   5.696   2.375   3.292
 5793TIP3   OH217384   4.758   4.462   1.474
 5793TIP3    H117385   4.772   4.556   1.484
 5793TIP3    H217386   4.780   4.425   1.560
 5794TIP3   OH217387   1.665   1.782   0.324
 5794TIP3    H117388   1.619   1.720   0.267
 5794TIP3    H217389   1.755   1.748   0.328
 5795TIP3   OH217390   3.942   1.500   1.416
 5795TIP3    H117391   4.015   1.539   1.463
 5795TIP3    H217392   3.978   1.474   1.331
 5796TIP3   OH217393   4.150   2.860   2.435
 5796TIP3    H117394   4.219   2.901   2.488
 5796TIP3    H217395   4.157   2.767   2.455
 5797TIP3   OH217396   1.378   5.801   3.055
 5797TIP3    H117397   1.443   5.815   3.124
 5797TIP3    H217398   1.294   5.808   3.100
 5798TIP3   OH217399   1.517   5.037   1.693
 5798TIP3    H117400   1.485   5.063   1.779
 5798TIP3    H217401   1.503   4.942   1.690
 5799TIP3   OH217402   3.111   1.547   0.208
 5799TIP3    H117403   3.089   1.519   0.297
 5799TIP3    H217404   3.119   1.465   0.159
 5800TIP3   OH217405   1.983  -0.012   3.297
 5800TIP3    H117406   1.890  -0.036   3.291
 5800TIP3    H217407   1.984   0.083   3.288
 5801TIP3   OH217408   4.435   3.087   3.444
 5801TIP3    H117409   4.510   3.121   3.395
 5801TIP3    H217410   4.419   3.152   3.512
 5802TIP3   OH217411   3.736   1.488   3.110
 5802TIP3    H117412   3.796   1.432   3.061
 5802TIP3    H217413   3.792   1.541   3.166
 5803TIP3   OH217414   1.767   0.115   0.288
 5803TIP3    H117415   1.808   0.104   0.374
 5803TIP3    H217416   1.768   0.209   0.272
 5804TIP3   OH217417   3.495   5.429   0.688
 5804TIP3    H117418   3.557   5.406   0.757
 5804TIP3    H217419   3.539   5.403   0.607
 5805TIP3   OH217420   4.702   5.215   3.661
 5805TIP3    H117421   4.663   5.138   3.703
 5805TIP3    H217422   4.667   5.290   3.710
 5806TIP3   OH217423   1.935   3.669   1.866
 5806TIP3    H117424   1.873   3.661   1.793
 5806TIP3    H217425   2.017   3.697   1.825
 5807TIP3   OH217426   3.798   2.032   0.531
 5807TIP3    H117427   3.772   2.117   0.496
 5807TIP3    H217428   3.809   2.047   0.625
 5808TIP3   OH217429   4.262   1.295   3.502
 5808TIP3    H117430   4.276   1.364   3.566
 5808TIP3    H217431   4.327   1.228   3.524
 5809TIP3   OH217432   4.922   4.658   5.097
 5809TIP3    H117433   4.972   4.675   5.176
 5809TIP3    H217434   4.974   4.594   5.049
 5810TIP3   OH217435   4.567   5.489   2.388
 5810TIP3    H117436   4.614   5.413   2.422
 5810TIP3    H217437   4.476   5.473   2.413
 5811TIP3   OH217438   1.598   2.171   2.640
 5811TIP3    H117439   1.556   2.203   2.721
 5811TIP3    H217440   1.682   2.136   2.669
 5812TIP3   OH217441   3.577   3.837   2.117
 5812TIP3    H117442   3.627   3.916   2.096
 5812TIP3    H217443   3.543   3.807   2.033
 5813TIP3   OH217444   2.120   1.754   4.973
 5813TIP3    H117445   2.090   1.823   4.914
 5813TIP3    H217446   2.216   1.757   4.967
 5814TIP3   OH217447   0.558   1.652   3.183
 5814TIP3    H117448   0.583   1.589   3.251
 5814TIP3    H217449   0.476   1.617   3.147
 5815TIP3   OH217450   2.069   4.999   1.276
 5815TIP3    H117451   2.141   5.043   1.230
 5815TIP3    H217452   2.095   5.000   1.368
 5816TIP3   OH217453   0.764   1.672   1.060
 5816TIP3    H117454   0.816   1.752   1.071
 5816TIP3    H217455   0.787   1.640   0.973
 5817TIP3   OH217456   4.366   4.188   4.713
 5817TIP3    H117457   4.422   4.111   4.722
 5817TIP3    H217458   4.428   4.261   4.700
 5818TIP3   OH217459   0.889   0.786   1.030
 5818TIP3    H117460   0.808   0.830   1.007
 5818TIP3    H217461   0.916   0.826   1.113
 5819TIP3   OH217462   5.080   3.008   4.242
 5819TIP3    H117463   5.076   3.092   4.287
 5819TIP3    H217464   5.160   2.967   4.275
 5820TIP3   OH217465   4.166   1.554   4.946
 5820TIP3    H117466   4.182   1.638   4.990
 5820TIP3    H217467   4.121   1.501   5.011
 5821TIP3   OH217468   4.890   5.139   3.231
 5821TIP3    H117469   4.842   5.169   3.154
 5821TIP3    H217470   4.970   5.192   3.231
 5822TIP3   OH217471   6.279   2.156   3.512
 5822TIP3    H117472   6.205   2.214   3.527
 5822TIP3    H217473   6.340   2.176   3.583
 5823TIP3   OH217474   6.220   3.312   2.618
 5823TIP3    H117475   6.204   3.362   2.538
 5823TIP3    H217476   6.142   3.256   2.627
 5824TIP3   OH217477   1.454   5.514   4.901
 5824TIP3    H117478   1.529   5.492   4.956
 5824TIP3    H217479   1.488   5.580   4.840
 5825TIP3   OH217480   5.329   0.773   3.332
 5825TIP3    H117481   5.293   0.718   3.262
 5825TIP3    H217482   5.297   0.861   3.312
 5826TIP3   OH217483   5.052  -0.006   0.393
 5826TIP3    H117484   4.982   0.004   0.328
 5826TIP3    H217485   5.122   0.052   0.361
 5827TIP3   OH217486   5.544   1.940   0.738
 5827TIP3    H117487   5.629   1.983   0.742
 5827TIP3    H217488   5.537   1.909   0.648
 5828TIP3   OH217489   1.084   3.909   4.405
 5828TIP3    H117490   1.070   3.819   4.375
 5828TIP3    H217491   1.011   3.926   4.464
 5829TIP3   OH217492   2.799   3.697   0.484
 5829TIP3    H117493   2.820   3.788   0.506
 5829TIP3    H217494   2.722   3.704   0.426
 5830TIP3   OH217495   5.083   0.574   0.519
 5830TIP3    H117496   5.037   0.495   0.547
 5830TIP3    H217497   5.144   0.544   0.452
 5831TIP3   OH217498   4.892   1.928   3.486
 5831TIP3    H117499   4.959   1.892   3.544
 5831TIP3    H217500   4.818   1.868   3.494
 5832TIP3   OH217501   2.196   1.202   4.499
 5832TIP3    H117502   2.265   1.261   4.471
 5832TIP3    H217503   2.120   1.225   4.445
 5833TIP3   OH217504   0.401   1.196   5.143
 5833TIP3    H117505   0.420   1.267   5.082
 5833TIP3    H217506   0.411   1.235   5.230
 5834TIP3   OH217507   2.723   2.762   0.367
 5834TIP3    H117508   2.691   2.700   0.433
 5834TIP3    H217509   2.647   2.818   0.348
 5835TIP3   OH217510   1.209   4.306   3.084
 5835TIP3    H117511   1.225   4.242   3.014
 5835TIP3    H217512   1.260   4.274   3.158
 5836TIP3   OH217513   4.979   1.349   0.201
 5836TIP3    H117514   5.049   1.345   0.266
 5836TIP3    H217515   4.944   1.438   0.209
 5837TIP3   OH217516   1.501   1.183   2.762
 5837TIP3    H117517   1.420   1.147   2.796
 5837TIP3    H217518   1.569   1.153   2.823
 5838TIP3   OH217519   0.046   4.203   4.845
 5838TIP3    H117520   0.050   4.280   4.902
 5838TIP3    H217521   0.019   4.132   4.904
 5839TIP3   OH217522   1.562   2.765   0.659
 5839TIP3    H117523   1.552   2.859   0.641
 5839TIP3    H217524   1.496   2.723   0.604
 5840TIP3   OH217525   2.038   4.958   2.563
 5840TIP3    H117526   2.075   5.039   2.527
 5840TIP3    H217527   2.107   4.923   2.620
 5841TIP3   OH217528   0.083   3.236   1.502
 5841TIP3    H117529   0.020   3.300   1.533
 5841TIP3    H217530   0.053   3.212   1.414
 5842TIP3   OH217531   3.543   5.780   2.514
 5842TIP3    H117532   3.524   5.826   2.596
 5842TIP3    H217533   3.459   5.774   2.470
 5843TIP3   OH217534   4.859   5.304   4.269
 5843TIP3    H117535   4.891   5.242   4.335
 5843TIP3    H217536   4.791   5.355   4.314
 5844TIP3   OH217537   2.463   5.743   0.007
 5844TIP3    H117538   2.492   5.700   0.088
 5844TIP3    H217539   2.486   5.682  -0.063
 5845TIP3   OH217540   4.279   1.924   1.097
 5845TIP3    H117541   4.237   1.923   1.011
 5845TIP3    H217542   4.323   1.839   1.104
 5846TIP3   OH217543   4.398   1.849   1.865
 5846TIP3    H117544   4.353   1.879   1.786
 5846TIP3    H217545   4.484   1.892   1.861
 5847TIP3   OH217546   4.414   5.811   2.178
 5847TIP3    H117547   4.362   5.797   2.099
 5847TIP3    H217548   4.487   5.749   2.169
 5848TIP3   OH217549   4.478   4.658   3.457
 5848TIP3    H117550   4.516   4.679   3.543
 5848TIP3    H217551   4.393   4.619   3.477
 5849TIP3   OH217552   2.749   3.934   3.826
 5849TIP3    H117553   2.835   3.929   3.867
 5849TIP3    H217554   2.709   4.013   3.864
 5850TIP3   OH217555   2.519   3.920   1.619
 5850TIP3    H117556   2.512   3.828   1.645
 5850TIP3    H217557   2.429   3.948   1.605
 5851TIP3   OH217558   3.392   5.715   0.723
 5851TIP3    H117559   3.335   5.665   0.664
 5851TIP3    H217560   3.466   5.656   0.739
 5852TIP3   OH217561   5.739   0.276   1.908
 5852TIP3    H117562   5.727   0.360   1.951
 5852TIP3    H217563   5.812   0.289   1.847
 5853TIP3   OH217564   3.349   0.972   2.011
 5853TIP3    H117565   3.345   0.887   2.055
 5853TIP3    H217566   3.276   0.971   1.950
 5854TIP3   OH217567   4.156   3.031   3.469
 5854TIP3    H117568   4.103   3.098   3.512
 5854TIP3    H217569   4.244   3.069   3.464
 5855TIP3   OH217570   3.309   2.666   2.270
 5855TIP3    H117571   3.359   2.747   2.269
 5855TIP3    H217572   3.217   2.694   2.266
 5856TIP3   OH217573   3.367   1.814   1.517
 5856TIP3    H117574   3.382   1.774   1.603
 5856TIP3    H217575   3.417   1.895   1.519
 5857TIP3   OH217576   1.172   5.505   4.985
 5857TIP3    H117577   1.170   5.485   5.079
 5857TIP3    H217578   1.262   5.533   4.969
 5858TIP3   OH217579   0.620   3.745   3.126
 5858TIP3    H117580   0.650   3.815   3.069
 5858TIP3    H217581   0.594   3.789   3.207
 5859TIP3   OH217582   0.460   5.254   0.529
 5859TIP3    H117583   0.497   5.283   0.446
 5859TIP3    H217584   0.463   5.331   0.586
 5860TIP3   OH217585   4.315   3.474   5.185
 5860TIP3    H117586   4.399   3.437   5.160
 5860TIP3    H217587   4.266   3.400   5.220
 5861TIP3   OH217588   2.100   5.359   4.436
 5861TIP3    H117589   2.070   5.450   4.436
 5861TIP3    H217590   2.178   5.360   4.380
 5862TIP3   OH217591   5.106   3.477   0.956
 5862TIP3    H117592   5.165   3.407   0.929
 5862TIP3    H217593   5.157   3.557   0.940
 5863TIP3   OH217594   0.266   2.839   0.242
 5863TIP3    H117595   0.261   2.819   0.336
 5863TIP3    H217596   0.337   2.903   0.236
 5864TIP3   OH217597   5.950   4.967   4.985
 5864TIP3    H117598   5.864   4.925   4.974
 5864TIP3    H217599   5.954   5.032   4.915
 5865TIP3   OH217600   1.944   3.800   0.052
 5865TIP3    H117601   1.881   3.849   0.106
 5865TIP3    H217602   1.987   3.740   0.113
 5866TIP3   OH217603   6.205   5.297   0.174
 5866TIP3    H117604   6.196   5.303   0.079
 5866TIP3    H217605   6.150   5.367   0.208
 5867TIP3   OH217606   5.239   5.415   2.237
 5867TIP3    H117607   5.150   5.449   2.225
 5867TIP3    H217608   5.296   5.489   2.215
 5868TIP3   OH217609   1.051   1.154   0.353
 5868TIP3    H117610   1.096   1.194   0.279
 5868TIP3    H217611   0.960   1.182   0.344
 5869TIP3   OH217612   4.840   2.318   1.842
 5869TIP3    H117613   4.749   2.345   1.857
 5869TIP3    H217614   4.889   2.400   1.841
 5870TIP3   OH217615   1.617   1.633   2.878
 5870TIP3    H117616   1.659   1.710   2.916
 5870TIP3    H217617   1.631   1.641   2.784
 5871TIP3   OH217618   1.462   1.233   4.199
 5871TIP3    H117619   1.522   1.219   4.272
 5871TIP3    H217620   1.414   1.312   4.222
 5872TIP3   OH217621   5.915   4.543   0.804
 5872TIP3    H117622   5.938   4.453   0.781
 5872TIP3    H217623   5.824   4.552   0.775
 5873TIP3   OH217624   1.676   2.248   0.383
 5873TIP3    H117625   1.747   2.266   0.321
 5873TIP3    H217626   1.629   2.331   0.391
 5874TIP3   OH217627   3.703   1.559   1.805
 5874TIP3    H117628   3.779   1.570   1.862
 5874TIP3    H217629   3.727   1.486   1.747
 5875TIP3   OH217630   6.101   0.002   1.428
 5875TIP3    H117631   6.086   0.069   1.360
 5875TIP3    H217632   6.095  -0.081   1.381
 5876TIP3   OH217633   0.696   2.758   4.757
 5876TIP3    H117634   0.787   2.771   4.731
 5876TIP3    H217635   0.673   2.672   4.720
 5877TIP3   OH217636   3.388   4.555   3.627
 5877TIP3    H117637   3.349   4.484   3.677
 5877TIP3    H217638   3.374   4.530   3.535
 5878TIP3   OH217639   3.322   3.468   4.167
 5878TIP3    H117640   3.373   3.431   4.239
 5878TIP3    H217641   3.336   3.563   4.175
 5879TIP3   OH217642   0.891   5.456   1.882
 5879TIP3    H117643   0.901   5.408   1.799
 5879TIP3    H217644   0.815   5.415   1.923
 5880TIP3   OH217645   5.232   0.039   3.784
 5880TIP3    H117646   5.227  -0.053   3.758
 5880TIP3    H217647   5.307   0.073   3.734
 5881TIP3   OH217648   4.841   4.189   2.687
 5881TIP3    H117649   4.860   4.095   2.688
 5881TIP3    H217650   4.895   4.226   2.757
 5882TIP3   OH217651   4.735   5.502   4.638
 5882TIP3    H117652   4.657   5.541   4.678
 5882TIP3    H217653   4.767   5.440   4.704
 5883TIP3   OH217654   3.458   3.356   0.213
 5883TIP3    H117655   3.443   3.422   0.280
 5883TIP3    H217656   3.393   3.288   0.232
 5884TIP3   OH217657   5.990   2.571   1.195
 5884TIP3    H117658   5.941   2.651   1.175
 5884TIP3    H217659   6.076   2.602   1.224
 5885TIP3   OH217660   1.386   0.161   0.809
 5885TIP3    H117661   1.406   0.186   0.719
 5885TIP3    H217662   1.308   0.211   0.831
 5886TIP3   OH217663   5.412   2.485   0.930
 5886TIP3    H117664   5.468   2.557   0.958
 5886TIP3    H217665   5.349   2.475   1.001
 5887TIP3   OH217666   5.603   3.420   3.977
 5887TIP3    H117667   5.675   3.433   4.039
 5887TIP3    H217668   5.615   3.489   3.912
 5888TIP3   OH217669   3.087   5.432   3.550
 5888TIP3    H117670   3.151   5.446   3.620
 5888TIP3    H217671   3.002   5.438   3.594
 5889TIP3   OH217672   3.207   3.661   3.079
 5889TIP3    H117673   3.240   3.683   3.166
 5889TIP3    H217674   3.208   3.745   3.031
 5890TIP3   OH217675   2.364   1.287   3.226
 5890TIP3    H117676   2.317   1.228   3.285
 5890TIP3    H217677   2.298   1.315   3.162
 5891TIP3   OH217678   0.524   1.136   3.050
 5891TIP3    H117679   0.526   1.150   2.955
 5891TIP3    H217680   0.548   1.044   3.061
 5892TIP3   OH217681   5.885   2.590   1.704
 5892TIP3    H117682   5.910   2.677   1.733
 5892TIP3    H217683   5.850   2.603   1.616
 5893TIP3   OH217684   1.838   3.275  -0.021
 5893TIP3    H117685   1.818   3.348  -0.079
 5893TIP3    H217686   1.851   3.316   0.065
 5894TIP3   OH217687   5.306   1.878   2.506
 5894TIP3    H117688   5.366   1.823   2.557
 5894TIP3    H217689   5.299   1.959   2.556
 5895TIP3   OH217690   4.793   1.703   2.600
 5895TIP3    H117691   4.788   1.608   2.592
 5895TIP3    H217692   4.879   1.726   2.564
 5896TIP3   OH217693   4.758   0.135   3.959
 5896TIP3    H117694   4.698   0.090   4.019
 5896TIP3    H217695   4.841   0.088   3.969
 5897TIP3   OH217696   4.699   2.528   3.584
 5897TIP3    H117697   4.621   2.488   3.546
 5897TIP3    H217698   4.679   2.621   3.590
 5898TIP3   OH217699   0.497   4.713   4.884
 5898TIP3    H117700   0.404   4.723   4.899
 5898TIP3    H217701   0.506   4.624   4.849
 5899TIP3   OH217702   5.972   3.057   2.222
 5899TIP3    H117703   6.052   3.029   2.177
 5899TIP3    H217704   5.961   3.148   2.196
 5900TIP3   OH217705   5.479   4.449   1.894
 5900TIP3    H117706   5.466   4.513   1.824
 5900TIP3    H217707   5.474   4.364   1.850
 5901TIP3   OH217708   5.356   5.865   0.329
 5901TIP3    H117709   5.440   5.866   0.373
 5901TIP3    H217710   5.372   5.816   0.248
 5902TIP3   OH217711   6.163   2.456   4.508
 5902TIP3    H117712   6.113   2.533   4.481
 5902TIP3    H217713   6.244   2.492   4.543
 5903TIP3   OH217714   0.434   2.405   3.399
 5903TIP3    H117715   0.471   2.343   3.336
 5903TIP3    H217716   0.465   2.491   3.369
 5904TIP3   OH217717   1.661   1.007   0.913
 5904TIP3    H117718   1.701   1.087   0.947
 5904TIP3    H217719   1.735   0.950   0.894
 5905TIP3   OH217720   0.117   1.797   4.328
 5905TIP3    H117721   0.150   1.718   4.370
 5905TIP3    H217722   0.066   1.764   4.253
 5906TIP3   OH217723   5.115   0.879   3.975
 5906TIP3    H117724   5.161   0.822   4.036
 5906TIP3    H217725   5.040   0.912   4.024
 5907TIP3   OH217726   2.772   5.284   3.444
 5907TIP3    H117727   2.687   5.309   3.480
 5907TIP3    H217728   2.751   5.237   3.364
 5908TIP3   OH217729   5.216   0.531   4.368
 5908TIP3    H117730   5.130   0.491   4.364
 5908TIP3    H217731   5.236   0.537   4.461
 5909TIP3   OH217732   1.575   3.065   3.479
 5909TIP3    H117733   1.622   2.984   3.498
 5909TIP3    H217734   1.513   3.040   3.410
 5910TIP3   OH217735   1.529   2.472   0.432
 5910TIP3    H117736   1.536   2.534   0.360
 5910TIP3    H217737   1.486   2.521   0.502
 5911TIP3   OH217738   0.696   1.456   4.637
 5911TIP3    H117739   0.662   1.371   4.664
 5911TIP3    H217740   0.645   1.478   4.559
 5912TIP3   OH217741   2.425   1.241   1.042
 5912TIP3    H117742   2.478   1.296   1.100
 5912TIP3    H217743   2.442   1.152   1.072
 5913TIP3   OH217744   0.250   2.630   2.835
 5913TIP3    H117745   0.334   2.615   2.791
 5913TIP3    H217746   0.255   2.720   2.865
 5914TIP3   OH217747   3.863   5.463   3.748
 5914TIP3    H117748   3.808   5.393   3.712
 5914TIP3    H217749   3.800   5.525   3.785
 5915TIP3   OH217750   3.482   4.524   0.870
 5915TIP3    H117751   3.547   4.485   0.929
 5915TIP3    H217752   3.492   4.618   0.884
 5916TIP3   OH217753   5.922   4.343   4.784
 5916TIP3    H117754   5.980   4.411   4.819
 5916TIP3    H217755   5.942   4.265   4.837
 5917TIP3   OH217756   2.237   3.448   4.852
 5917TIP3    H117757   2.189   3.512   4.799
 5917TIP3    H217758   2.217   3.364   4.811
 5918TIP3   OH217759   2.101   2.113   4.494
 5918TIP3    H117760   2.181   2.132   4.543
 5918TIP3    H217761   2.053   2.196   4.493
 5919TIP3   OH217762   5.431   2.997   1.083
 5919TIP3    H117763   5.365   2.943   1.127
 5919TIP3    H217764   5.514   2.965   1.116
 5920TIP3   OH217765   4.037   0.057   1.537
 5920TIP3    H117766   4.120   0.037   1.581
 5920TIP3    H217767   4.060   0.066   1.445
 5921TIP3   OH217768   3.410   4.147   0.628
 5921TIP3    H117769   3.447   4.133   0.716
 5921TIP3    H217770   3.400   4.241   0.621
 5922TIP3   OH217771   0.502   4.919   4.629
 5922TIP3    H117772   0.431   4.868   4.589
 5922TIP3    H217773   0.459   4.998   4.662
 5923TIP3   OH217774   5.617   1.538   4.618
 5923TIP3    H117775   5.553   1.591   4.664
 5923TIP3    H217776   5.648   1.593   4.546
 5924TIP3   OH217777   2.162   2.672   0.617
 5924TIP3    H117778   2.158   2.768   0.614
 5924TIP3    H217779   2.072   2.645   0.632
 5925TIP3   OH217780   0.565   4.489   3.064
 5925TIP3    H117781   0.485   4.436   3.071
 5925TIP3    H217782   0.617   4.463   3.139
 5926TIP3   OH217783   5.722   2.598   3.284
 5926TIP3    H117784   5.638   2.630   3.317
 5926TIP3    H217785   5.764   2.675   3.248
 5927TIP3   OH217786   5.992   2.831   1.288
 5927TIP3    H117787   6.050   2.869   1.354
 5927TIP3    H217788   5.935   2.773   1.338
 5928TIP3   OH217789   0.300   4.540   0.148
 5928TIP3    H117790   0.276   4.469   0.089
 5928TIP3    H217791   0.343   4.497   0.222
 5929TIP3   OH217792   0.113   4.267   2.393
 5929TIP3    H117793   0.137   4.178   2.365
 5929TIP3    H217794   0.166   4.325   2.338
 5930TIP3   OH217795   0.573   3.113   1.482
 5930TIP3    H117796   0.540   3.203   1.482
 5930TIP3    H217797   0.599   3.096   1.573
 5931TIP3   OH217798   3.596   4.164   2.813
 5931TIP3    H117799   3.615   4.088   2.759
 5931TIP3    H217800   3.558   4.228   2.752
 5932TIP3   OH217801   3.651   0.815   0.784
 5932TIP3    H117802   3.640   0.782   0.695
 5932TIP3    H217803   3.563   0.817   0.820
 5933TIP3   OH217804   5.263   0.154   0.490
 5933TIP3    H117805   5.297   0.066   0.471
 5933TIP3    H217806   5.280   0.166   0.583
 5934TIP3   OH217807   0.394   5.388   4.917
 5934TIP3    H117808   0.426   5.476   4.937
 5934TIP3    H217809   0.336   5.399   4.842
 5935TIP3   OH217810   1.934   0.320   4.491
 5935TIP3    H117811   1.919   0.314   4.397
 5935TIP3    H217812   1.931   0.230   4.522
 5936TIP3   OH217813   1.006   0.113   4.097
 5936TIP3    H117814   0.928   0.100   4.043
 5936TIP3    H217815   0.977   0.173   4.166
 5937TIP3   OH217816   5.244   1.408   0.969
 5937TIP3    H117817   5.175   1.371   1.024
 5937TIP3    H217818   5.317   1.346   0.977
 5938TIP3   OH217819   1.159   1.457   4.430
 5938TIP3    H117820   1.150   1.442   4.336
 5938TIP3    H217821   1.082   1.509   4.453
 5939TIP3   OH217822   5.944   2.109   1.458
 5939TIP3    H117823   5.950   2.165   1.381
 5939TIP3    H217824   5.916   2.167   1.529
 5940TIP3   OH217825   0.112   5.255   3.570
 5940TIP3    H117826   0.133   5.214   3.653
 5940TIP3    H217827   0.166   5.209   3.506
 5941TIP3   OH217828   4.851   4.872   1.275
 5941TIP3    H117829   4.921   4.818   1.312
 5941TIP3    H217830   4.862   4.958   1.315
 5942TIP3   OH217831   5.012   2.508   1.873
 5942TIP3    H117832   5.039   2.480   1.960
 5942TIP3    H217833   5.069   2.459   1.813
 5943TIP3   OH217834   5.989   4.310   3.826
 5943TIP3    H117835   5.922   4.272   3.883
 5943TIP3    H217836   5.984   4.258   3.746
 5944TIP3   OH217837   2.681   4.924   1.698
 5944TIP3    H117838   2.704   4.996   1.640
 5944TIP3    H217839   2.764   4.898   1.738
 5945TIP3   OH217840   1.863   2.567   2.174
 5945TIP3    H117841   1.878   2.491   2.118
 5945TIP3    H217842   1.774   2.595   2.154
 5946TIP3   OH217843   2.019   3.466   2.186
 5946TIP3    H117844   2.056   3.552   2.205
 5946TIP3    H217845   1.927   3.483   2.166
 5947TIP3   OH217846   4.854   4.963   1.553
 5947TIP3    H117847   4.830   5.042   1.505
 5947TIP3    H217848   4.901   4.995   1.630
 5948TIP3   OH217849   3.624   2.657   1.985
 5948TIP3    H117850   3.584   2.744   1.982
 5948TIP3    H217851   3.683   2.656   1.910
 5949TIP3   OH217852   6.079   2.269   4.666
 5949TIP3    H117853   6.078   2.347   4.610
 5949TIP3    H217854   6.171   2.240   4.664
 5950TIP3   OH217855   4.948   1.922   0.246
 5950TIP3    H117856   4.938   2.016   0.258
 5950TIP3    H217857   5.038   1.910   0.215
 5951TIP3   OH217858   4.982   3.911   3.255
 5951TIP3    H117859   4.956   3.857   3.330
 5951TIP3    H217860   5.065   3.873   3.225
 5952TIP3   OH217861   1.293   5.017   1.485
 5952TIP3    H117862   1.340   5.097   1.462
 5952TIP3    H217863   1.209   5.024   1.441
 5953TIP3   OH217864   1.138   3.833   2.846
 5953TIP3    H117865   1.159   3.740   2.850
 5953TIP3    H217866   1.101   3.846   2.759
 5954TIP3   OH217867   2.517   1.541   0.448
 5954TIP3    H117868   2.495   1.554   0.540
 5954TIP3    H217869   2.434   1.518   0.406
 5955TIP3   OH217870   1.918   2.028   4.937
 5955TIP3    H117871   1.860   2.095   4.901
 5955TIP3    H217872   1.962   1.990   4.861
 5956TIP3   OH217873   0.717   5.931   4.084
 5956TIP3    H117874   0.630   5.971   4.082
 5956TIP3    H217875   0.755   5.953   3.999
 5957TIP3   OH217876   1.333   2.522   4.591
 5957TIP3    H117877   1.300   2.545   4.677
 5957TIP3    H217878   1.417   2.566   4.584
 5958TIP3   OH217879   5.351   5.731   4.670
 5958TIP3    H117880   5.328   5.689   4.753
 5958TIP3    H217881   5.336   5.824   4.685
 5959TIP3   OH217882   3.525   5.218   0.305
 5959TIP3    H117883   3.516   5.177   0.391
 5959TIP3    H217884   3.462   5.290   0.307
 5960TIP3   OH217885   4.931   1.817   4.032
 5960TIP3    H117886   4.843   1.856   4.029
 5960TIP3    H217887   4.981   1.878   4.087
 5961TIP3   OH217888   1.622   2.645   1.384
 5961TIP3    H117889   1.649   2.618   1.297
 5961TIP3    H217890   1.702   2.639   1.437
 5962TIP3   OH217891   5.512   4.285   3.690
 5962TIP3    H117892   5.427   4.329   3.688
 5962TIP3    H217893   5.519   4.254   3.780
 5963TIP3   OH217894   0.959   4.359   1.116
 5963TIP3    H117895   0.974   4.448   1.147
 5963TIP3    H217896   0.895   4.323   1.177
 5964TIP3   OH217897   5.288   4.103   2.475
 5964TIP3    H117898   5.369   4.151   2.493
 5964TIP3    H217899   5.253   4.083   2.562
 5965TIP3   OH217900   5.040   2.731   1.696
 5965TIP3    H117901   5.045   2.669   1.768
 5965TIP3    H217902   4.951   2.721   1.661
 5966TIP3   OH217903   3.382   2.772   0.086
 5966TIP3    H117904   3.323   2.844   0.066
 5966TIP3    H217905   3.445   2.771   0.013
 5967TIP3   OH217906   1.885   3.597   3.893
 5967TIP3    H117907   1.893   3.517   3.946
 5967TIP3    H217908   1.957   3.653   3.923
 5968TIP3   OH217909   1.201   4.524   3.498
 5968TIP3    H117910   1.148   4.554   3.423
 5968TIP3    H217911   1.287   4.562   3.483
 5969TIP3   OH217912   4.345   2.113   4.359
 5969TIP3    H117913   4.285   2.108   4.434
 5969TIP3    H217914   4.429   2.082   4.394
 5970TIP3   OH217915   4.532   5.425   2.737
 5970TIP3    H117916   4.573   5.511   2.747
 5970TIP3    H217917   4.441   5.439   2.760
 5971TIP3   OH217918   0.035   1.466   0.491
 5971TIP3    H117919   0.047   1.395   0.554
 5971TIP3    H217920   0.051   1.425   0.405
 5972TIP3   OH217921   5.466   5.685   3.299
 5972TIP3    H117922   5.551   5.641   3.310
 5972TIP3    H217923   5.410   5.618   3.260
 5973TIP3   OH217924   0.163   3.659   3.957
 5973TIP3    H117925   0.136   3.678   3.867
 5973TIP3    H217926   0.104   3.590   3.986
 5974TIP3   OH217927   1.952   1.595   0.731
 5974TIP3    H117928   1.869   1.549   0.723
 5974TIP3    H217929   1.990   1.590   0.644
 5975TIP3   OH217930   4.568   4.055   0.016
 5975TIP3    H117931   4.554   4.105  -0.065
 5975TIP3    H217932   4.483   4.017   0.036
 5976TIP3   OH217933   1.033   4.942   1.368
 5976TIP3    H117934   1.105   4.879   1.371
 5976TIP3    H217935   0.961   4.895   1.325
 5977TIP3   OH217936   4.985   2.471   4.220
 5977TIP3    H117937   4.945   2.461   4.134
 5977TIP3    H217938   4.925   2.526   4.269
 5978TIP3   OH217939   1.514   3.264   5.066
 5978TIP3    H117940   1.556   3.198   5.121
 5978TIP3    H217941   1.580   3.287   5.000
 5979TIP3   OH217942   2.766   5.548   4.743
 5979TIP3    H117943   2.690   5.503   4.778
 5979TIP3    H217944   2.752   5.640   4.765
 5980TIP3   OH217945   0.921   3.968   0.347
 5980TIP3    H117946   0.828   3.981   0.330
 5980TIP3    H217947   0.962   4.051   0.323
 5981TIP3   OH217948   0.059   4.301   3.334
 5981TIP3    H117949  -0.019   4.281   3.282
 5981TIP3    H217950   0.076   4.393   3.317
 5982TIP3   OH217951   4.281   5.461   2.813
 5982TIP3    H117952   4.249   5.400   2.746
 5982TIP3    H217953   4.235   5.543   2.795
 5983TIP3   OH217954   5.868   4.669   5.122
 5983TIP3    H117955   5.807   4.738   5.149
 5983TIP3    H217956   5.827   4.588   5.149
 5984TIP3   OH217957   5.231   3.710   4.109
 5984TIP3    H117958   5.285   3.636   4.137
 5984TIP3    H217959   5.231   3.704   4.013
 5985TIP3   OH217960   0.464   3.514   3.255
 5985TIP3    H117961   0.406   3.577   3.297
 5985TIP3    H217962   0.484   3.449   3.323
 5986TIP3   OH217963   6.330   5.624   0.019
 5986TIP3    H117964   6.263   5.636   0.087
 5986TIP3    H217965   6.287   5.570  -0.047
 5987TIP3   OH217966   0.339   4.869   3.357
 5987TIP3    H117967   0.379   4.850   3.272
 5987TIP3    H217968   0.364   4.959   3.376
 5988TIP3   OH217969   2.392   0.134   3.793
 5988TIP3    H117970   2.415   0.217   3.835
 5988TIP3    H217971   2.300   0.120   3.818
 5989TIP3   OH217972   4.329   3.637   3.742
 5989TIP3    H117973   4.294   3.711   3.693
 5989TIP3    H217974   4.410   3.614   3.697
 5990TIP3   OH217975   0.312   1.120   0.113
 5990TIP3    H117976   0.385   1.110   0.052
 5990TIP3    H217977   0.234   1.106   0.060
 5991TIP3   OH217978   2.292   0.692   0.166
 5991TIP3    H117979   2.251   0.614   0.129
 5991TIP3    H217980   2.341   0.659   0.242
 5992TIP3   OH217981   5.139   1.265   3.397
 5992TIP3    H117982   5.081   1.261   3.321
 5992TIP3    H217983   5.080   1.275   3.471
 5993TIP3   OH217984   1.647   0.477   1.818
 5993TIP3    H117985   1.645   0.411   1.888
 5993TIP3    H217986   1.670   0.428   1.739
 5994TIP3   OH217987   2.052   5.025   2.942
 5994TIP3    H117988   2.120   5.043   3.008
 5994TIP3    H217989   2.071   4.936   2.912
 5995TIP3   OH217990   4.536   5.164   0.166
 5995TIP3    H117991   4.511   5.072   0.153
 5995TIP3    H217992   4.519   5.180   0.259
 5996TIP3   OH217993   4.755   5.508   1.959
 5996TIP3    H117994   4.714   5.421   1.950
 5996TIP3    H217995   4.729   5.538   2.046
 5997TIP3   OH217996   3.402   0.688   3.447
 5997TIP3    H117997   3.330   0.747   3.470
 5997TIP3    H217998   3.376   0.603   3.483
 5998TIP3   OH217999   5.429   0.866   0.891
 5998TIP3    H118000   5.398   0.820   0.969
 5998TIP3    H218001   5.371   0.836   0.821
 5999TIP3   OH218002   2.479   2.740   5.181
 5999TIP3    H118003   2.476   2.678   5.108
 5999TIP3    H218004   2.403   2.797   5.167
 6000TIP3   OH218005   0.498   4.745   1.642
 6000TIP3    H118006   0.411   4.706   1.657
 6000TIP3    H218007   0.483   4.812   1.576
 6001TIP3   OH218008   2.481   2.428   1.172
 6001TIP3    H118009   2.406   2.425   1.113
 6001TIP3    H218010   2.480   2.343   1.217
 6002TIP3   OH218011   2.295   6.033   1.857
 6002TIP3    H118012   2.290   6.078   1.773
 6002TIP3    H218013   2.271   5.943   1.838
 6003TIP3   OH218014   1.164   3.492   3.248
 6003TIP3    H118015   1.213   3.421   3.208
 6003TIP3    H218016   1.097   3.514   3.184
 6004TIP3   OH218017   5.755   0.706   4.082
 6004TIP3    H118018   5.846   0.732   4.095
 6004TIP3    H218019   5.729   0.751   4.001
 6005TIP3   OH218020   1.683   0.409   3.056
 6005TIP3    H118021   1.642   0.408   2.970
 6005TIP3    H218022   1.610   0.420   3.117
 6006TIP3   OH218023   2.236   3.952   0.938
 6006TIP3    H118024   2.175   3.904   0.994
 6006TIP3    H218025   2.265   3.888   0.873
 6007TIP3   OH218026   5.491   1.754   3.762
 6007TIP3    H118027   5.471   1.787   3.675
 6007TIP3    H218028   5.584   1.775   3.775
 6008TIP3   OH218029   5.595   3.132   2.501
 6008TIP3    H118030   5.555   3.143   2.588
 6008TIP3    H218031   5.523   3.145   2.440
 6009TIP3   OH218032   0.395   5.400   3.557
 6009TIP3    H118033   0.399   5.468   3.490
 6009TIP3    H218034   0.395   5.318   3.508
 6010TIP3   OH218035   3.459   3.919   1.619
 6010TIP3    H118036   3.467   3.970   1.699
 6010TIP3    H218037   3.438   3.983   1.551
 6011TIP3   OH218038   0.921   2.997   0.318
 6011TIP3    H118039   0.964   3.075   0.282
 6011TIP3    H218040   0.966   2.981   0.401
 6012TIP3   OH218041   1.486   0.467   0.137
 6012TIP3    H118042   1.415   0.458   0.199
 6012TIP3    H218043   1.444   0.472   0.051
 6013TIP3   OH218044   4.211   1.867   2.369
 6013TIP3    H118045   4.203   1.815   2.289
 6013TIP3    H218046   4.122   1.898   2.386
 6014TIP3   OH218047   1.815   5.152   1.275
 6014TIP3    H118048   1.897   5.117   1.239
 6014TIP3    H218049   1.840   5.234   1.318
 6015TIP3   OH218050   3.570   4.635   1.811
 6015TIP3    H118051   3.592   4.579   1.886
 6015TIP3    H218052   3.521   4.578   1.752
 6016TIP3   OH218053   4.695   1.877   1.781
 6016TIP3    H118054   4.718   1.929   1.858
 6016TIP3    H218055   4.770   1.887   1.722
 6017TIP3   OH218056   0.208   3.303   2.147
 6017TIP3    H118057   0.142   3.320   2.079
 6017TIP3    H218058   0.190   3.368   2.214
 6018TIP3   OH218059   4.916   5.061   4.740
 6018TIP3    H118060   4.946   5.086   4.828
 6018TIP3    H218061   4.825   5.091   4.738
 6019TIP3   OH218062   1.059   5.716   1.645
 6019TIP3    H118063   1.155   5.724   1.653
 6019TIP3    H218064   1.046   5.635   1.596
 6020TIP3   OH218065   2.432   1.986   5.132
 6020TIP3    H118066   2.423   1.892   5.117
 6020TIP3    H218067   2.376   2.026   5.065
 6021TIP3   OH218068   2.901   4.534   1.027
 6021TIP3    H118069   2.977   4.499   0.980
 6021TIP3    H218070   2.849   4.578   0.959
 6022TIP3   OH218071   2.256   1.404   0.426
 6022TIP3    H118072   2.182   1.463   0.442
 6022TIP3    H218073   2.243   1.333   0.489
 6023TIP3   OH218074   6.007   4.697   0.548
 6023TIP3    H118075   5.963   4.782   0.554
 6023TIP3    H218076   5.944   4.635   0.587
 6024TIP3   OH218077   1.017   0.235   5.188
 6024TIP3    H118078   1.071   0.293   5.134
 6024TIP3    H218079   0.928   0.266   5.174
 6025TIP3   OH218080   3.482   5.474   4.680
 6025TIP3    H118081   3.562   5.425   4.700
 6025TIP3    H218082   3.421   5.408   4.647
 6026TIP3   OH218083   0.159   2.914   0.580
 6026TIP3    H118084   0.250   2.905   0.607
 6026TIP3    H218085   0.111   2.860   0.642
 6027TIP3   OH218086   2.962   5.624   4.555
 6027TIP3    H118087   2.898   5.569   4.600
 6027TIP3    H218088   3.018   5.658   4.625
 6028TIP3   OH218089   5.719   1.859   5.080
 6028TIP3    H118090   5.727   1.951   5.108
 6028TIP3    H218091   5.802   1.840   5.037
 6029TIP3   OH218092   0.994   0.177   2.777
 6029TIP3    H118093   0.922   0.163   2.715
 6029TIP3    H218094   1.064   0.216   2.725
 6030TIP3   OH218095   0.960   2.229   1.094
 6030TIP3    H118096   1.037   2.264   1.139
 6030TIP3    H218097   0.895   2.217   1.164
 6031TIP3   OH218098   5.737   2.824   0.030
 6031TIP3    H118099   5.790   2.787  -0.041
 6031TIP3    H218100   5.759   2.771   0.106
 6032TIP3   OH218101   3.382   3.199   2.993
 6032TIP3    H118102   3.315   3.132   3.005
 6032TIP3    H218103   3.333   3.281   2.984
 6033TIP3   OH218104   5.805   1.595   1.460
 6033TIP3    H118105   5.850   1.669   1.501
 6033TIP3    H218106   5.861   1.570   1.386
 6034TIP3   OH218107   0.221   0.784   4.500
 6034TIP3    H118108   0.182   0.803   4.586
 6034TIP3    H218109   0.282   0.712   4.517
 6035TIP3   OH218110   0.144   3.038   3.354
 6035TIP3    H118111   0.232   3.000   3.356
 6035TIP3    H218112   0.159   3.130   3.333
 6036TIP3   OH218113   4.703   1.752   1.353
 6036TIP3    H118114   4.780   1.782   1.304
 6036TIP3    H218115   4.732   1.672   1.397
 6037TIP3   OH218116   2.431   1.409   3.486
 6037TIP3    H118117   2.388   1.339   3.436
 6037TIP3    H218118   2.523   1.403   3.460
 6038TIP3   OH218119   0.899   3.253   2.860
 6038TIP3    H118120   0.907   3.348   2.869
 6038TIP3    H218121   0.874   3.222   2.947
 6039TIP3   OH218122   3.153   5.176   0.811
 6039TIP3    H118123   3.223   5.121   0.846
 6039TIP3    H218124   3.192   5.264   0.805
 6040TIP3   OH218125   2.220   0.581   4.385
 6040TIP3    H118126   2.234   0.552   4.475
 6040TIP3    H218127   2.238   0.504   4.331
 6041TIP3   OH218128   1.293   4.173   3.979
 6041TIP3    H118129   1.250   4.144   4.060
 6041TIP3    H218130   1.318   4.264   3.997
 6042TIP3   OH218131   2.221   5.576   4.038
 6042TIP3    H118132   2.198   5.545   3.950
 6042TIP3    H218133   2.166   5.653   4.052
 6043TIP3   OH218134   6.013   4.303   0.731
 6043TIP3    H118135   6.087   4.283   0.789
 6043TIP3    H218136   5.972   4.219   0.714
 6044TIP3   OH218137   2.327   5.140   1.629
 6044TIP3    H118138   2.259   5.198   1.595
 6044TIP3    H218139   2.408   5.192   1.625
 6045TIP3   OH218140   3.195   4.816   0.455
 6045TIP3    H118141   3.119   4.870   0.477
 6045TIP3    H218142   3.209   4.761   0.532
 6046TIP3   OH218143   1.700   5.521   5.026
 6046TIP3    H118144   1.745   5.481   5.101
 6046TIP3    H218145   1.770   5.565   4.977
 6047TIP3   OH218146   1.547   3.207   2.130
 6047TIP3    H118147   1.541   3.203   2.226
 6047TIP3    H218148   1.634   3.174   2.111
 6048TIP3   OH218149   3.077   3.238   2.481
 6048TIP3    H118150   3.011   3.271   2.419
 6048TIP3    H218151   3.155   3.224   2.428
 6049TIP3   OH218152   0.524   2.775   3.042
 6049TIP3    H118153   0.527   2.776   3.138
 6049TIP3    H218154   0.603   2.727   3.017
 6050TIP3   OH218155   2.480   3.630   4.680
 6050TIP3    H118156   2.480   3.625   4.776
 6050TIP3    H218157   2.535   3.706   4.660
 6051TIP3   OH218158   2.780   1.091   2.479
 6051TIP3    H118159   2.828   1.133   2.408
 6051TIP3    H218160   2.816   1.130   2.559
 6052TIP3   OH218161   3.108   4.833   1.241
 6052TIP3    H118162   3.030   4.849   1.294
 6052TIP3    H218163   3.176   4.886   1.282
 6053TIP3   OH218164   5.662   2.775   4.151
 6053TIP3    H118165   5.683   2.803   4.240
 6053TIP3    H218166   5.715   2.831   4.095
 6054TIP3   OH218167   1.505   3.713   2.547
 6054TIP3    H118168   1.558   3.689   2.470
 6054TIP3    H218169   1.497   3.808   2.542
 6055TIP3   OH218170   1.432   0.496   4.300
 6055TIP3    H118171   1.359   0.534   4.252
 6055TIP3    H218172   1.392   0.428   4.355
 6056TIP3   OH218173   2.866   3.799   4.750
 6056TIP3    H118174   2.939   3.838   4.799
 6056TIP3    H218175   2.858   3.710   4.784
 6057TIP3   OH218176   6.213   2.686   2.888
 6057TIP3    H118177   6.124   2.673   2.923
 6057TIP3    H218178   6.199   2.726   2.802
 6058TIP3   OH218179   4.217   1.860   3.838
 6058TIP3    H118180   4.124   1.871   3.820
 6058TIP3    H218181   4.224   1.774   3.879
 6059TIP3   OH218182   4.988   4.129   2.283
 6059TIP3    H118183   4.993   4.035   2.299
 6059TIP3    H218184   5.075   4.152   2.249
 6060TIP3   OH218185   0.576   5.048   3.339
 6060TIP3    H118186   0.588   5.096   3.257
 6060TIP3    H218187   0.655   4.994   3.346
 6061TIP3   OH218188   2.710   5.881   0.835
 6061TIP3    H118189   2.782   5.818   0.831
 6061TIP3    H218190   2.634   5.828   0.861
 6062TIP3   OH218191   0.061   0.976   2.108
 6062TIP3    H118192   0.104   0.903   2.152
 6062TIP3    H218193   0.055   0.949   2.016
 6063TIP3   OH218194   0.837   5.679   4.203
 6063TIP3    H118195   0.769   5.633   4.154
 6063TIP3    H218196   0.855   5.621   4.277
 6064TIP3   OH218197   5.303   5.842   4.074
 6064TIP3    H118198   5.257   5.926   4.073
 6064TIP3    H218199   5.373   5.855   4.138
 6065TIP3   OH218200   2.703   3.869   2.277
 6065TIP3    H118201   2.670   3.866   2.366
 6065TIP3    H218202   2.639   3.818   2.226
 6066TIP3   OH218203   2.123   2.500   3.068
 6066TIP3    H118204   2.154   2.586   3.096
 6066TIP3    H218205   2.159   2.489   2.980
 6067TIP3   OH218206   6.252   5.742   1.925
 6067TIP3    H118207   6.161   5.757   1.898
 6067TIP3    H218208   6.273   5.817   1.981
 6068TIP3   OH218209   6.182   2.711   4.053
 6068TIP3    H118210   6.182   2.776   3.983
 6068TIP3    H218211   6.138   2.635   4.015
 6069TIP3   OH218212   5.814   2.847   3.542
 6069TIP3    H118213   5.792   2.939   3.524
 6069TIP3    H218214   5.753   2.796   3.489
 6070TIP3   OH218215   3.855   3.844   4.861
 6070TIP3    H118216   3.880   3.896   4.937
 6070TIP3    H218217   3.906   3.881   4.788
 6071TIP3   OH218218   1.479   1.364   0.035
 6071TIP3    H118219   1.477   1.273   0.004
 6071TIP3    H218220   1.436   1.413  -0.034
 6072TIP3   OH218221   1.568   3.278   3.899
 6072TIP3    H118222   1.597   3.368   3.914
 6072TIP3    H218223   1.524   3.253   3.980
 6073TIP3   OH218224   4.306   3.379   1.003
 6073TIP3    H118225   4.301   3.334   1.088
 6073TIP3    H218226   4.218   3.413   0.988
 6074TIP3   OH218227   2.731   3.500   1.145
 6074TIP3    H118228   2.815   3.497   1.100
 6074TIP3    H218229   2.686   3.420   1.117
 6075TIP3   OH218230   3.282   4.125   2.861
 6075TIP3    H118231   3.316   4.121   2.771
 6075TIP3    H218232   3.316   4.208   2.895
 6076TIP3   OH218233   0.524   1.310   3.821
 6076TIP3    H118234   0.518   1.231   3.875
 6076TIP3    H218235   0.460   1.370   3.860
 6077TIP3   OH218236   3.478   5.043   1.568
 6077TIP3    H118237   3.519   4.964   1.532
 6077TIP3    H218238   3.491   5.037   1.663
 6078TIP3   OH218239   5.338   3.069   2.079
 6078TIP3    H118240   5.293   2.994   2.040
 6078TIP3    H218241   5.318   3.142   2.020
 6079TIP3   OH218242   4.483   2.360   1.326
 6079TIP3    H118243   4.476   2.427   1.258
 6079TIP3    H218244   4.494   2.278   1.278
 6080TIP3   OH218245   5.113   2.482   0.132
 6080TIP3    H118246   5.182   2.547   0.146
 6080TIP3    H218247   5.125   2.419   0.203
 6081TIP3   OH218248   0.161   4.565   3.318
 6081TIP3    H118249   0.118   4.646   3.344
 6081TIP3    H218250   0.242   4.564   3.368
 6082TIP3   OH218251   4.277   2.434   0.317
 6082TIP3    H118252   4.205   2.383   0.354
 6082TIP3    H218253   4.354   2.407   0.368
 6083TIP3   OH218254   5.533   0.792   4.940
 6083TIP3    H118255   5.590   0.868   4.954
 6083TIP3    H218256   5.593   0.724   4.908
 6084TIP3   OH218257   3.614   4.090   5.112
 6084TIP3    H118258   3.693   4.037   5.119
 6084TIP3    H218259   3.546   4.028   5.085
 6085TIP3   OH218260   1.255   0.757   4.025
 6085TIP3    H118261   1.166   0.740   4.057
 6085TIP3    H218262   1.296   0.807   4.095
 6086TIP3   OH218263   4.286   4.716   3.274
 6086TIP3    H118264   4.375   4.706   3.309
 6086TIP3    H218265   4.236   4.757   3.344
 6087TIP3   OH218266   1.841   4.330   2.723
 6087TIP3    H118267   1.912   4.394   2.718
 6087TIP3    H218268   1.827   4.301   2.633
 6088TIP3   OH218269   2.668   2.532   0.529
 6088TIP3    H118270   2.607   2.578   0.587
 6088TIP3    H218271   2.688   2.450   0.574
 6089TIP3   OH218272   5.562   5.618   4.510
 6089TIP3    H118273   5.484   5.633   4.563
 6089TIP3    H218274   5.629   5.672   4.552
 6090TIP3   OH218275   3.071   5.008   2.667
 6090TIP3    H118276   2.992   4.982   2.713
 6090TIP3    H218277   3.112   5.073   2.724
 6091TIP3   OH218278   4.877   0.130   4.489
 6091TIP3    H118279   4.907   0.088   4.409
 6091TIP3    H218280   4.865   0.222   4.465
 6092TIP3   OH218281   3.478   1.267   2.280
 6092TIP3    H118282   3.414   1.202   2.310
 6092TIP3    H218283   3.449   1.288   2.191
 6093TIP3   OH218284   5.615   2.618   2.524
 6093TIP3    H118285   5.640   2.589   2.436
 6093TIP3    H218286   5.650   2.550   2.582
 6094TIP3   OH218287   5.262   3.997   4.157
 6094TIP3    H118288   5.259   3.902   4.147
 6094TIP3    H218289   5.173   4.026   4.139
 6095TIP3   OH218290   4.113   0.475   3.846
 6095TIP3    H118291   4.200   0.498   3.878
 6095TIP3    H218292   4.055   0.540   3.886
 6096TIP3   OH218293   5.534   2.059   1.337
 6096TIP3    H118294   5.502   1.969   1.335
 6096TIP3    H218295   5.478   2.102   1.403
 6097TIP3   OH218296   3.308   4.981   0.080
 6097TIP3    H118297   3.296   4.906   0.139
 6097TIP3    H218298   3.228   4.982   0.027
 6098TIP3   OH218299   0.886   0.433   1.305
 6098TIP3    H118300   0.966   0.439   1.358
 6098TIP3    H218301   0.817   0.466   1.362
 6099TIP3   OH218302   4.787   4.353   4.036
 6099TIP3    H118303   4.768   4.440   4.000
 6099TIP3    H218304   4.808   4.300   3.959
 6100TIP3   OH218305   2.165   0.952   1.587
 6100TIP3    H118306   2.081   0.980   1.551
 6100TIP3    H218307   2.162   0.857   1.587
 6101TIP3   OH218308   4.629   0.467   3.000
 6101TIP3    H118309   4.576   0.436   2.926
 6101TIP3    H218310   4.709   0.500   2.961
 6102TIP3   OH218311   2.745   0.911   2.857
 6102TIP3    H118312   2.838   0.933   2.847
 6102TIP3    H218313   2.737   0.824   2.817
 6103TIP3   OH218314   3.723   0.144   4.545
 6103TIP3    H118315   3.678   0.078   4.493
 6103TIP3    H218316   3.714   0.225   4.493
 6104TIP3   OH218317   0.815   3.861   1.392
 6104TIP3    H118318   0.720   3.856   1.404
 6104TIP3    H218319   0.835   3.787   1.334
 6105TIP3   OH218320   2.942   1.343   3.290
 6105TIP3    H118321   2.994   1.406   3.241
 6105TIP3    H218322   3.007   1.293   3.340
 6106TIP3   OH218323   0.300   3.029   1.302
 6106TIP3    H118324   0.301   2.945   1.348
 6106TIP3    H218325   0.352   3.087   1.357
 6107TIP3   OH218326   5.584   2.929   4.725
 6107TIP3    H118327   5.588   2.983   4.647
 6107TIP3    H218328   5.675   2.925   4.756
 6108TIP3   OH218329   0.723   2.598   3.268
 6108TIP3    H118330   0.632   2.626   3.272
 6108TIP3    H218331   0.753   2.602   3.359
 6109TIP3   OH218332   5.627   5.050   2.040
 6109TIP3    H118333   5.585   4.971   2.073
 6109TIP3    H218334   5.562   5.119   2.053
 6110TIP3   OH218335   3.853   0.950   4.828
 6110TIP3    H118336   3.901   0.948   4.911
 6110TIP3    H218337   3.901   1.013   4.774
 6111TIP3   OH218338   3.800   5.105   3.786
 6111TIP3    H118339   3.766   5.129   3.872
 6111TIP3    H218340   3.768   5.175   3.728
 6112TIP3   OH218341   0.811   4.554   5.161
 6112TIP3    H118342   0.797   4.460   5.176
 6112TIP3    H218343   0.782   4.596   5.242
 6113TIP3   OH218344   2.257   2.234   0.551
 6113TIP3    H118345   2.221   2.146   0.555
 6113TIP3    H218346   2.301   2.246   0.635
 6114TIP3   OH218347   1.075   2.276   2.935
 6114TIP3    H118348   1.026   2.195   2.953
 6114TIP3    H218349   1.154   2.269   2.987
 6115TIP3   OH218350   0.080   3.709   3.697
 6115TIP3    H118351  -0.016   3.717   3.701
 6115TIP3    H218352   0.108   3.783   3.643
 6116TIP3   OH218353   4.727   5.820   3.706
 6116TIP3    H118354   4.677   5.885   3.756
 6116TIP3    H218355   4.734   5.857   3.619
 6117TIP3   OH218356   0.424   2.632   3.738
 6117TIP3    H118357   0.432   2.607   3.830
 6117TIP3    H218358   0.513   2.656   3.712
 6118TIP3   OH218359   2.685   2.563   4.761
 6118TIP3    H118360   2.717   2.608   4.682
 6118TIP3    H218361   2.626   2.495   4.729
 6119TIP3   OH218362   2.140   4.122   3.624
 6119TIP3    H118363   2.209   4.057   3.617
 6119TIP3    H218364   2.179   4.194   3.674
 6120TIP3   OH218365   4.823   4.399   5.147
 6120TIP3    H118366   4.757   4.387   5.079
 6120TIP3    H218367   4.830   4.494   5.157
 6121TIP3   OH218368   2.494   2.982   3.302
 6121TIP3    H118369   2.474   3.075   3.288
 6121TIP3    H218370   2.420   2.950   3.353
 6122TIP3   OH218371   2.665   5.335   4.524
 6122TIP3    H118372   2.708   5.304   4.604
 6122TIP3    H218373   2.655   5.430   4.537
 6123TIP3   OH218374   2.631   2.181   2.930
 6123TIP3    H118375   2.585   2.104   2.898
 6123TIP3    H218376   2.716   2.147   2.960
 6124TIP3   OH218377   3.607   2.908   0.224
 6124TIP3    H118378   3.650   2.990   0.198
 6124TIP3    H218379   3.515   2.932   0.237
 6125TIP3   OH218380   1.715   1.587   2.259
 6125TIP3    H118381   1.711   1.573   2.164
 6125TIP3    H218382   1.758   1.508   2.293
 6126TIP3   OH218383   5.057   3.153   3.473
 6126TIP3    H118384   5.004   3.233   3.474
 6126TIP3    H218385   5.068   3.130   3.566
 6127TIP3   OH218386   5.716   0.438   0.227
 6127TIP3    H118387   5.704   0.519   0.178
 6127TIP3    H218388   5.628   0.413   0.255
 6128TIP3   OH218389   4.288   4.820   0.074
 6128TIP3    H118390   4.309   4.747   0.132
 6128TIP3    H218391   4.326   4.796  -0.010
 6129TIP3   OH218392   3.036   0.780   3.619
 6129TIP3    H118393   3.098   0.800   3.689
 6129TIP3    H218394   3.078   0.813   3.540
 6130TIP3   OH218395   2.578   3.390   0.944
 6130TIP3    H118396   2.569   3.485   0.938
 6130TIP3    H218397   2.494   3.356   0.914
 6131TIP3   OH218398   0.892   3.874   2.335
 6131TIP3    H118399   0.934   3.881   2.250
 6131TIP3    H218400   0.856   3.962   2.351
 6132TIP3   OH218401   4.309   2.063   1.726
 6132TIP3    H118402   4.394   2.106   1.728
 6132TIP3    H218403   4.302   2.029   1.637
 6133TIP3   OH218404   4.911   4.687   1.558
 6133TIP3    H118405   4.861   4.768   1.560
 6133TIP3    H218406   4.947   4.679   1.646
 6134TIP3   OH218407   3.016   2.082   2.508
 6134TIP3    H118408   3.070   2.014   2.469
 6134TIP3    H218409   2.986   2.135   2.434
 6135TIP3   OH218410   1.162   2.930   1.147
 6135TIP3    H118411   1.188   3.014   1.185
 6135TIP3    H218412   1.108   2.889   1.215
 6136TIP3   OH218413   5.137   0.819   4.452
 6136TIP3    H118414   5.228   0.838   4.475
 6136TIP3    H218415   5.143   0.749   4.387
 6137TIP3   OH218416   3.709   0.745   1.312
 6137TIP3    H118417   3.622   0.705   1.309
 6137TIP3    H218418   3.699   0.818   1.374
 6138TIP3   OH218419   2.332   4.509   0.807
 6138TIP3    H118420   2.290   4.453   0.742
 6138TIP3    H218421   2.426   4.494   0.795
 6139TIP3   OH218422   0.479   5.675   0.872
 6139TIP3    H118423   0.498   5.760   0.912
 6139TIP3    H218424   0.390   5.654   0.902
 6140TIP3   OH218425   5.764   3.911   3.249
 6140TIP3    H118426   5.750   3.879   3.338
 6140TIP3    H218427   5.737   4.002   3.251
 6141TIP3   OH218428   3.804   2.858   3.822
 6141TIP3    H118429   3.794   2.918   3.897
 6141TIP3    H218430   3.896   2.832   3.825
 6142TIP3   OH218431   3.427   5.888   0.983
 6142TIP3    H118432   3.486   5.812   0.989
 6142TIP3    H218433   3.380   5.874   0.901
 6143TIP3   OH218434   2.440   4.183   3.286
 6143TIP3    H118435   2.531   4.209   3.270
 6143TIP3    H218436   2.437   4.090   3.266
 6144TIP3   OH218437   5.774   1.806   0.917
 6144TIP3    H118438   5.726   1.725   0.933
 6144TIP3    H218439   5.706   1.874   0.915
 6145TIP3   OH218440   5.627   1.472   2.982
 6145TIP3    H118441   5.620   1.393   3.037
 6145TIP3    H218442   5.661   1.440   2.898
 6146TIP3   OH218443   6.062   3.381   1.474
 6146TIP3    H118444   6.152   3.397   1.502
 6146TIP3    H218445   6.047   3.288   1.492
 6147TIP3   OH218446   2.455   3.991   4.177
 6147TIP3    H118447   2.405   3.921   4.135
 6147TIP3    H218448   2.543   3.955   4.189
 6148TIP3   OH218449   5.742   4.296   4.557
 6148TIP3    H118450   5.775   4.299   4.646
 6148TIP3    H218451   5.819   4.281   4.502
 6149TIP3   OH218452   4.447   5.380   1.292
 6149TIP3    H118453   4.404   5.308   1.339
 6149TIP3    H218454   4.401   5.458   1.322
 6150TIP3   OH218455   6.272   2.975   3.240
 6150TIP3    H118456   6.304   2.905   3.183
 6150TIP3    H218457   6.348   3.000   3.293
 6151TIP3   OH218458   5.952   0.588   2.954
 6151TIP3    H118459   5.917   0.560   3.039
 6151TIP3    H218460   6.022   0.650   2.976
 6152TIP3   OH218461   2.480   2.282   1.630
 6152TIP3    H118462   2.409   2.318   1.683
 6152TIP3    H218463   2.541   2.244   1.694
 6153TIP3   OH218464   1.703   1.857   2.994
 6153TIP3    H118465   1.749   1.913   3.057
 6153TIP3    H218466   1.707   1.906   2.912
 6154TIP3   OH218467   0.917   1.316   4.732
 6154TIP3    H118468   0.877   1.389   4.684
 6154TIP3    H218469   0.854   1.245   4.724
 6155TIP3   OH218470   3.957   5.187   4.606
 6155TIP3    H118471   3.943   5.281   4.599
 6155TIP3    H218472   4.051   5.177   4.619
 6156TIP3   OH218473   2.972   2.289   1.953
 6156TIP3    H118474   2.972   2.193   1.948
 6156TIP3    H218475   2.997   2.309   2.043
 6157TIP3   OH218476   3.246   1.736   2.210
 6157TIP3    H118477   3.333   1.699   2.199
 6157TIP3    H218478   3.198   1.670   2.260
 6158TIP3   OH218479   4.525   3.382   4.151
 6158TIP3    H118480   4.568   3.395   4.236
 6158TIP3    H218481   4.432   3.386   4.170
 6159TIP3   OH218482   5.395   3.350   1.728
 6159TIP3    H118483   5.370   3.378   1.640
 6159TIP3    H218484   5.389   3.255   1.726
 6160TIP3   OH218485   1.480   2.661   0.245
 6160TIP3    H118486   1.413   2.625   0.186
 6160TIP3    H218487   1.431   2.712   0.308
 6161TIP3   OH218488   0.198   1.084   3.018
 6161TIP3    H118489   0.201   1.115   3.108
 6161TIP3    H218490   0.207   0.989   3.025
 6162TIP3   OH218491   3.039   4.957   2.378
 6162TIP3    H118492   3.014   4.952   2.470
 6162TIP3    H218493   2.989   5.030   2.343
 6163TIP3   OH218494   4.894   2.070   3.137
 6163TIP3    H118495   4.984   2.048   3.159
 6163TIP3    H218496   4.898   2.162   3.110
 6164TIP3   OH218497   0.936   5.322   2.834
 6164TIP3    H118498   0.951   5.301   2.926
 6164TIP3    H218499   1.010   5.377   2.810
 6165TIP3   OH218500   0.960   3.644   4.083
 6165TIP3    H118501   0.887   3.647   4.144
 6165TIP3    H218502   0.955   3.557   4.043
 6166TIP3   OH218503   4.719   0.077   2.686
 6166TIP3    H118504   4.692   0.000   2.636
 6166TIP3    H218505   4.649   0.141   2.670
 6167TIP3   OH218506   4.832   3.669   3.315
 6167TIP3    H118507   4.874   3.607   3.375
 6167TIP3    H218508   4.814   3.617   3.236
 6168TIP3   OH218509   3.970   2.920   0.222
 6168TIP3    H118510   3.962   2.841   0.276
 6168TIP3    H218511   4.020   2.981   0.277
 6169TIP3   OH218512   6.297   5.862   4.039
 6169TIP3    H118513   6.337   5.938   4.081
 6169TIP3    H218514   6.368   5.798   4.031
 6170TIP3   OH218515   2.548   5.059   0.905
 6170TIP3    H118516   2.586   5.125   0.963
 6170TIP3    H218517   2.501   5.110   0.839
 6171TIP3   OH218518   3.412   5.143   3.966
 6171TIP3    H118519   3.417   5.164   3.873
 6171TIP3    H218520   3.381   5.223   4.008
 6172TIP3   OH218521   3.534   5.947   2.749
 6172TIP3    H118522   3.556   6.032   2.710
 6172TIP3    H218523   3.609   5.927   2.806
 6173TIP3   OH218524   0.120   2.224   1.354
 6173TIP3    H118525   0.063   2.286   1.307
 6173TIP3    H218526   0.059   2.162   1.393
 6174TIP3   OH218527   5.020   1.020   3.010
 6174TIP3    H118528   5.040   1.001   2.918
 6174TIP3    H218529   5.026   0.936   3.054
 6175TIP3   OH218530   3.914   1.214   1.777
 6175TIP3    H118531   3.901   1.120   1.784
 6175TIP3    H218532   3.963   1.238   1.856
 6176TIP3   OH218533   1.563   5.163   4.106
 6176TIP3    H118534   1.630   5.096   4.090
 6176TIP3    H218535   1.495   5.118   4.157
 6177TIP3   OH218536   0.043   4.250   0.144
 6177TIP3    H118537   0.008   4.284   0.226
 6177TIP3    H218538   0.048   4.155   0.157
 6178TIP3   OH218539   5.739   1.717   4.450
 6178TIP3    H118540   5.825   1.744   4.419
 6178TIP3    H218541   5.690   1.799   4.457
 6179TIP3   OH218542   3.107   2.498   4.575
 6179TIP3    H118543   3.031   2.440   4.569
 6179TIP3    H218544   3.093   2.547   4.656
 6180TIP3   OH218545   4.238   1.367   4.644
 6180TIP3    H118546   4.159   1.323   4.675
 6180TIP3    H218547   4.213   1.460   4.637
 6181TIP3   OH218548   2.500   1.554   5.082
 6181TIP3    H118549   2.523   1.470   5.042
 6181TIP3    H218550   2.550   1.556   5.163
 6182TIP3   OH218551   1.605   4.520   0.778
 6182TIP3    H118552   1.592   4.541   0.870
 6182TIP3    H218553   1.518   4.532   0.738
 6183TIP3   OH218554   0.319   0.857   0.286
 6183TIP3    H118555   0.325   0.941   0.239
 6183TIP3    H218556   0.294   0.794   0.218
 6184TIP3   OH218557   3.275   4.343   3.758
 6184TIP3    H118558   3.212   4.348   3.830
 6184TIP3    H218559   3.270   4.252   3.728
 6185TIP3   OH218560   3.977   1.949   2.562
 6185TIP3    H118561   3.988   2.018   2.496
 6185TIP3    H218562   3.886   1.920   2.551
 6186TIP3   OH218563   4.906   5.227   0.978
 6186TIP3    H118564   4.900   5.305   0.924
 6186TIP3    H218565   4.815   5.199   0.991
 6187TIP3   OH218566   1.612   3.374   0.798
 6187TIP3    H118567   1.606   3.279   0.810
 6187TIP3    H218568   1.594   3.387   0.704
 6188TIP3   OH218569   1.527   0.285   2.322
 6188TIP3    H118570   1.595   0.326   2.374
 6188TIP3    H218571   1.490   0.217   2.379
 6189TIP3   OH218572   3.475   1.582   1.215
 6189TIP3    H118573   3.534   1.518   1.173
 6189TIP3    H218574   3.514   1.596   1.301
 6190TIP3   OH218575   2.672   5.801   3.153
 6190TIP3    H118576   2.617   5.761   3.085
 6190TIP3    H218577   2.756   5.756   3.146
 6191TIP3   OH218578   1.950   1.512   3.673
 6191TIP3    H118579   1.979   1.565   3.748
 6191TIP3    H218580   1.866   1.475   3.700
 6192TIP3   OH218581   0.893   2.772   0.124
 6192TIP3    H118582   0.980   2.753   0.088
 6192TIP3    H218583   0.909   2.842   0.188
 6193TIP3   OH218584   5.896   2.104   4.455
 6193TIP3    H118585   5.803   2.124   4.466
 6193TIP3    H218586   5.938   2.140   4.534
 6194TIP3   OH218587   4.140   4.892   5.021
 6194TIP3    H118588   4.074   4.886   5.091
 6194TIP3    H218589   4.114   4.969   4.971
 6195TIP3   OH218590   0.976   0.741   5.113
 6195TIP3    H118591   0.948   0.659   5.153
 6195TIP3    H218592   1.058   0.721   5.069
 6196TIP3   OH218593   1.977   1.302   2.022
 6196TIP3    H118594   1.897   1.330   1.979
 6196TIP3    H218595   2.040   1.291   1.951
 6197TIP3   OH218596   1.191   5.489   4.119
 6197TIP3    H118597   1.134   5.440   4.060
 6197TIP3    H218598   1.226   5.560   4.064
 6198TIP3   OH218599   4.358   0.714   1.932
 6198TIP3    H118600   4.377   0.678   2.018
 6198TIP3    H218601   4.266   0.739   1.936
 6199TIP3   OH218602   4.534   4.465   4.693
 6199TIP3    H118603   4.627   4.470   4.671
 6199TIP3    H218604   4.528   4.504   4.780
 6200TIP3   OH218605   5.428   5.387   3.467
 6200TIP3    H118606   5.477   5.306   3.470
 6200TIP3    H218607   5.483   5.448   3.418
 6201TIP3   OH218608   1.031   4.781   2.541
 6201TIP3    H118609   1.002   4.866   2.509
 6201TIP3    H218610   0.960   4.752   2.600
 6202TIP3   OH218611   3.013   0.042   3.291
 6202TIP3    H118612   3.026   0.136   3.289
 6202TIP3    H218613   2.980   0.024   3.379
 6203TIP3   OH218614   5.473   2.282   0.556
 6203TIP3    H118615   5.430   2.356   0.512
 6203TIP3    H218616   5.421   2.268   0.635
 6204TIP3   OH218617   4.737   4.746   2.888
 6204TIP3    H118618   4.675   4.815   2.864
 6204TIP3    H218619   4.773   4.774   2.972
 6205TIP3   OH218620   1.817   4.395   2.438
 6205TIP3    H118621   1.850   4.401   2.349
 6205TIP3    H218622   1.777   4.481   2.455
 6206TIP3   OH218623   1.958   2.222   2.360
 6206TIP3    H118624   1.990   2.133   2.344
 6206TIP3    H218625   1.874   2.226   2.314
 6207TIP3   OH218626   4.631   4.073   1.494
 6207TIP3    H118627   4.642   4.135   1.423
 6207TIP3    H218628   4.538   4.078   1.516
 6208TIP3   OH218629   6.167   1.662   0.342
 6208TIP3    H118630   6.212   1.746   0.347
 6208TIP3    H218631   6.235   1.599   0.320
 6209TIP3   OH218632   1.763   0.148   4.972
 6209TIP3    H118633   1.677   0.111   4.955
 6209TIP3    H218634   1.820   0.106   4.908
 6210TIP3   OH218635   5.766   1.452   0.085
 6210TIP3    H118636   5.746   1.486  -0.002
 6210TIP3    H218637   5.835   1.388   0.072
 6211TIP3   OH218638   2.953   2.572   5.103
 6211TIP3    H118639   2.878   2.513   5.116
 6211TIP3    H218640   3.029   2.518   5.125
 6212TIP3   OH218641   6.003   5.288   4.218
 6212TIP3    H118642   5.970   5.213   4.169
 6212TIP3    H218643   6.080   5.317   4.169
 6213TIP3   OH218644   0.325   0.690   5.094
 6213TIP3    H118645   0.338   0.785   5.101
 6213TIP3    H218646   0.253   0.681   5.032
 6214TIP3   OH218647   2.025   1.979   0.510
 6214TIP3    H118648   1.933   1.955   0.519
 6214TIP3    H218649   2.048   1.955   0.420
 6215TIP3   OH218650   4.435   2.423   2.801
 6215TIP3    H118651   4.512   2.368   2.790
 6215TIP3    H218652   4.362   2.368   2.775
 6216TIP3   OH218653   0.854   4.627   3.903
 6216TIP3    H118654   0.858   4.579   3.821
 6216TIP3    H218655   0.793   4.578   3.958
 6217TIP3   OH218656   0.700   4.449   0.752
 6217TIP3    H118657   0.684   4.417   0.841
 6217TIP3    H218658   0.637   4.519   0.740
 6218TIP3   OH218659   5.038   1.495   1.349
 6218TIP3    H118660   4.959   1.456   1.310
 6218TIP3    H218661   5.098   1.422   1.360
 6219TIP3   OH218662   5.391   3.081   1.750
 6219TIP3    H118663   5.470   3.039   1.717
 6219TIP3    H218664   5.321   3.020   1.730
 6220TIP3   OH218665   6.060   3.844   0.728
 6220TIP3    H118666   6.044   3.764   0.677
 6220TIP3    H218667   6.151   3.836   0.756
 6221TIP3   OH218668   4.256   2.934   4.545
 6221TIP3    H118669   4.305   2.990   4.485
 6221TIP3    H218670   4.247   2.851   4.498
 6222TIP3   OH218671   2.216   4.721   3.958
 6222TIP3    H118672   2.174   4.807   3.959
 6222TIP3    H218673   2.146   4.660   3.978
 6223TIP3   OH218674   5.421   3.925   1.428
 6223TIP3    H118675   5.409   3.896   1.519
 6223TIP3    H218676   5.333   3.924   1.390
 6224TIP3   OH218677   0.500   2.087   1.488
 6224TIP3    H118678   0.572   2.143   1.517
 6224TIP3    H218679   0.427   2.110   1.546
 6225TIP3   OH218680   3.226   4.490   4.998
 6225TIP3    H118681   3.191   4.406   4.967
 6225TIP3    H218682   3.151   4.533   5.039
 6226TIP3   OH218683   3.242   5.830   5.190
 6226TIP3    H118684   3.242   5.845   5.095
 6226TIP3    H218685   3.285   5.746   5.202
 6227TIP3   OH218686   5.247   0.166   4.212
 6227TIP3    H118687   5.337   0.137   4.198
 6227TIP3    H218688   5.234   0.235   4.147
 6228TIP3   OH218689   5.211   4.351   1.797
 6228TIP3    H118690   5.231   4.273   1.848
 6228TIP3    H218691   5.279   4.414   1.820
 6229TIP3   OH218692   5.469   2.813   2.320
 6229TIP3    H118693   5.528   2.742   2.296
 6229TIP3    H218694   5.443   2.793   2.410
 6230TIP3   OH218695   4.971   2.250   2.716
 6230TIP3    H118696   4.885   2.214   2.738
 6230TIP3    H218697   5.009   2.274   2.801
 6231TIP3   OH218698   5.176   3.824   0.863
 6231TIP3    H118699   5.257   3.819   0.914
 6231TIP3    H218700   5.189   3.764   0.790
 6232TIP3   OH218701   2.673   5.617   1.881
 6232TIP3    H118702   2.670   5.689   1.944
 6232TIP3    H218703   2.592   5.569   1.894
 6233TIP3   OH218704   0.953   1.195   2.336
 6233TIP3    H118705   0.977   1.209   2.244
 6233TIP3    H218706   0.883   1.258   2.352
 6234TIP3   OH218707   1.130   3.047   4.691
 6234TIP3    H118708   1.163   2.963   4.660
 6234TIP3    H218709   1.041   3.052   4.656
 6235TIP3   OH218710   5.839   2.943   1.950
 6235TIP3    H118711   5.894   2.877   1.908
 6235TIP3    H218712   5.870   3.026   1.914
 6236TIP3   OH218713   4.008   5.627   5.154
 6236TIP3    H118714   3.931   5.657   5.106
 6236TIP3    H218715   3.975   5.605   5.241
 6237TIP3   OH218716   2.874   1.290   1.552
 6237TIP3    H118717   2.915   1.263   1.470
 6237TIP3    H218718   2.930   1.361   1.584
 6238TIP3   OH218719   0.414   2.218   4.477
 6238TIP3    H118720   0.409   2.304   4.434
 6238TIP3    H218721   0.498   2.220   4.522
 6239TIP3   OH218722   2.802   4.209   2.282
 6239TIP3    H118723   2.746   4.248   2.349
 6239TIP3    H218724   2.785   4.115   2.288
 6240TIP3   OH218725   5.128   1.981   0.473
 6240TIP3    H118726   5.094   1.928   0.545
 6240TIP3    H218727   5.110   1.930   0.395
 6241TIP3   OH218728   6.258   1.199   4.751
 6241TIP3    H118729   6.353   1.201   4.736
 6241TIP3    H218730   6.219   1.206   4.664
 6242TIP3   OH218731   1.464   4.113   1.153
 6242TIP3    H118732   1.470   4.078   1.242
 6242TIP3    H218733   1.391   4.174   1.156
 6243TIP3   OH218734   2.935   0.510   2.886
 6243TIP3    H118735   2.981   0.447   2.941
 6243TIP3    H218736   2.859   0.463   2.854
 6244TIP3   OH218737   2.922   4.809   0.848
 6244TIP3    H118738   2.960   4.756   0.778
 6244TIP3    H218739   2.996   4.859   0.882
 6245TIP3   OH218740   1.190   2.823   4.914
 6245TIP3    H118741   1.243   2.773   4.976
 6245TIP3    H218742   1.196   2.914   4.944
 6246TIP3   OH218743   3.764   3.361   0.505
 6246TIP3    H118744   3.718   3.443   0.517
 6246TIP3    H218745   3.824   3.377   0.431
 6247TIP3   OH218746   0.768   1.265   4.212
 6247TIP3    H118747   0.782   1.304   4.126
 6247TIP3    H218748   0.681   1.225   4.207
 6248TIP3   OH218749   2.256   2.421   2.133
 6248TIP3    H118750   2.259   2.490   2.067
 6248TIP3    H218751   2.223   2.464   2.212
 6249TIP3   OH218752   2.645   2.033   3.329
 6249TIP3    H118753   2.724   2.048   3.277
 6249TIP3    H218754   2.677   2.023   3.419
 6250TIP3   OH218755   4.778   5.911   0.354
 6250TIP3    H118756   4.691   5.950   0.352
 6250TIP3    H218757   4.809   5.925   0.443
 6251TIP3   OH218758   6.290   0.420   3.620
 6251TIP3    H118759   6.288   0.511   3.648
 6251TIP3    H218760   6.242   0.372   3.688
 6252TIP3   OH218761   0.530   0.372   1.142
 6252TIP3    H118762   0.578   0.452   1.118
 6252TIP3    H218763   0.574   0.339   1.220
 6253TIP3   OH218764   5.876   0.241   1.144
 6253TIP3    H118765   5.804   0.193   1.105
 6253TIP3    H218766   5.926   0.274   1.069
 6254TIP3   OH218767   5.627   5.665   3.857
 6254TIP3    H118768   5.569   5.739   3.842
 6254TIP3    H218769   5.654   5.673   3.948
 6255TIP3   OH218770   5.178   3.141   0.666
 6255TIP3    H118771   5.086   3.156   0.647
 6255TIP3    H218772   5.208   3.222   0.708
 6256TIP3   OH218773   5.824   1.743   3.590
 6256TIP3    H118774   5.762   1.758   3.519
 6256TIP3    H218775   5.898   1.801   3.570
 6257TIP3   OH218776   1.659   5.871   0.681
 6257TIP3    H118777   1.614   5.933   0.737
 6257TIP3    H218778   1.748   5.906   0.673
 6258TIP3   OH218779   1.308   0.615   4.641
 6258TIP3    H118780   1.291   0.708   4.656
 6258TIP3    H218781   1.309   0.607   4.545
 6259TIP3   OH218782   3.254   2.773   4.693
 6259TIP3    H118783   3.317   2.813   4.753
 6259TIP3    H218784   3.195   2.725   4.750
 6260TIP3   OH218785   5.328   4.828   0.596
 6260TIP3    H118786   5.357   4.741   0.624
 6260TIP3    H218787   5.233   4.825   0.604
 6261TIP3   OH218788   4.123   2.753   4.319
 6261TIP3    H118789   4.130   2.807   4.240
 6261TIP3    H218790   4.034   2.719   4.316
 6262TIP3   OH218791   1.791   2.718   2.414
 6262TIP3    H118792   1.738   2.789   2.377
 6262TIP3    H218793   1.818   2.666   2.339
 6263TIP3   OH218794   4.162   4.160   0.164
 6263TIP3    H118795   4.139   4.165   0.257
 6263TIP3    H218796   4.097   4.216   0.120
 6264TIP3   OH218797   5.232   5.975   4.757
 6264TIP3    H118798   5.204   6.066   4.751
 6264TIP3    H218799   5.177   5.937   4.825
 6265TIP3   OH218800   2.629   1.107   3.619
 6265TIP3    H118801   2.712   1.112   3.571
 6265TIP3    H218802   2.574   1.174   3.577
 6266TIP3   OH218803   3.268   2.701   0.514
 6266TIP3    H118804   3.259   2.757   0.592
 6266TIP3    H218805   3.223   2.750   0.445
 6267TIP3   OH218806   0.910   4.435   0.327
 6267TIP3    H118807   0.902   4.345   0.293
 6267TIP3    H218808   0.988   4.470   0.283
 6268TIP3   OH218809   6.038   1.081   2.730
 6268TIP3    H118810   6.003   1.126   2.808
 6268TIP3    H218811   6.114   1.032   2.762
 6269TIP3   OH218812   4.412   5.969   4.731
 6269TIP3    H118813   4.475   6.014   4.788
 6269TIP3    H218814   4.465   5.934   4.659
 6270TIP3   OH218815   1.367   0.338   1.753
 6270TIP3    H118816   1.381   0.405   1.686
 6270TIP3    H218817   1.334   0.386   1.829
 6271TIP3   OH218818   2.587   5.918   4.585
 6271TIP3    H118819   2.647   5.981   4.547
 6271TIP3    H218820   2.507   5.928   4.533
 6272TIP3   OH218821   5.157   2.680   3.316
 6272TIP3    H118822   5.169   2.744   3.386
 6272TIP3    H218823   5.072   2.641   3.334
 6273TIP3   OH218824   4.958   0.569   4.977
 6273TIP3    H118825   4.980   0.659   5.002
 6273TIP3    H218826   4.950   0.523   5.061
 6274TIP3   OH218827   0.039   4.268   2.986
 6274TIP3    H118828   0.051   4.269   2.891
 6274TIP3    H218829   0.033   4.176   3.008
 6275TIP3   OH218830   0.418   1.604   1.362
 6275TIP3    H118831   0.475   1.557   1.423
 6275TIP3    H218832   0.452   1.581   1.276
 6276TIP3   OH218833   0.308   3.669   4.431
 6276TIP3    H118834   0.290   3.599   4.494
 6276TIP3    H218835   0.262   3.746   4.465
 6277TIP3   OH218836   6.248   5.324   3.721
 6277TIP3    H118837   6.193   5.344   3.645
 6277TIP3    H218838   6.338   5.323   3.686
 6278TIP3   OH218839   6.065   5.271   2.414
 6278TIP3    H118840   6.070   5.180   2.441
 6278TIP3    H218841   5.976   5.282   2.381
 6279TIP3   OH218842   5.172   5.522   0.256
 6279TIP3    H118843   5.198   5.431   0.267
 6279TIP3    H218844   5.240   5.560   0.201
 6280TIP3   OH218845   3.097   4.554   2.923
 6280TIP3    H118846   3.048   4.578   2.844
 6280TIP3    H218847   3.095   4.634   2.977
 6281TIP3   OH218848   6.305   5.692   0.499
 6281TIP3    H118849   6.266   5.652   0.577
 6281TIP3    H218850   6.364   5.759   0.534
 6282TIP3   OH218851   0.505   3.214   0.560
 6282TIP3    H118852   0.415   3.185   0.544
 6282TIP3    H218853   0.544   3.145   0.614
 6283TIP3   OH218854   3.615   2.571   1.446
 6283TIP3    H118855   3.553   2.639   1.474
 6283TIP3    H218856   3.680   2.618   1.394
 6284TIP3   OH218857   3.000   3.157   4.577
 6284TIP3    H118858   2.961   3.114   4.653
 6284TIP3    H218859   3.014   3.087   4.514
 6285TIP3   OH218860   3.071   2.166   0.538
 6285TIP3    H118861   3.104   2.186   0.625
 6285TIP3    H218862   3.086   2.246   0.488
 6286TIP3   OH218863   5.089   4.016   0.546
 6286TIP3    H118864   5.180   4.007   0.573
 6286TIP3    H218865   5.052   3.928   0.555
 6287TIP3   OH218866   6.402   4.935   0.788
 6287TIP3    H118867   6.399   5.031   0.780
 6287TIP3    H218868   6.311   4.907   0.775
 6288TIP3   OH218869   0.163   1.987   2.133
 6288TIP3    H118870   0.257   1.995   2.115
 6288TIP3    H218871   0.134   1.914   2.077
 6289TIP3   OH218872   4.526   2.578   2.537
 6289TIP3    H118873   4.534   2.494   2.491
 6289TIP3    H218874   4.435   2.580   2.566
 6290TIP3   OH218875   6.041   0.600   5.097
 6290TIP3    H118876   5.959   0.576   5.140
 6290TIP3    H218877   6.076   0.671   5.150
 6291TIP3   OH218878   5.719   0.748   0.668
 6291TIP3    H118879   5.661   0.705   0.731
 6291TIP3    H218880   5.697   0.708   0.584
 6292TIP3   OH218881   1.760   0.237   1.093
 6292TIP3    H118882   1.696   0.302   1.065
 6292TIP3    H218883   1.842   0.264   1.051
 6293TIP3   OH218884   3.062   4.566   4.679
 6293TIP3    H118885   3.023   4.614   4.606
 6293TIP3    H218886   3.057   4.474   4.652
 6294TIP3   OH218887   2.977   4.733   3.881
 6294TIP3    H118888   2.945   4.769   3.799
 6294TIP3    H218889   3.070   4.717   3.866
 6295TIP3   OH218890   1.288   5.409   4.715
 6295TIP3    H118891   1.322   5.463   4.644
 6295TIP3    H218892   1.349   5.423   4.788
 6296TIP3   OH218893   5.358   2.301   3.217
 6296TIP3    H118894   5.401   2.380   3.186
 6296TIP3    H218895   5.417   2.265   3.283
 6297TIP3   OH218896   4.444   2.538   1.117
 6297TIP3    H118897   4.429   2.630   1.096
 6297TIP3    H218898   4.530   2.518   1.080
 6298TIP3   OH218899   1.406   2.581   2.191
 6298TIP3    H118900   1.481   2.617   2.145
 6298TIP3    H218901   1.400   2.491   2.160
 6299TIP3   OH218902   3.156   2.215   0.790
 6299TIP3    H118903   3.250   2.209   0.778
 6299TIP3    H218904   3.141   2.186   0.881
 6300TIP3   OH218905   2.633   0.842   0.007
 6300TIP3    H118906   2.695   0.863   0.076
 6300TIP3    H218907   2.659   0.755  -0.023
 6301TIP3   OH218908   4.342   5.849   1.655
 6301TIP3    H118909   4.289   5.899   1.718
 6301TIP3    H218910   4.280   5.789   1.614
 6302TIP3   OH218911   4.192   5.852   4.823
 6302TIP3    H118912   4.137   5.863   4.746
 6302TIP3    H218913   4.278   5.883   4.795
 6303TIP3   OH218914   1.905   1.173   2.796
 6303TIP3    H118915   1.870   1.086   2.819
 6303TIP3    H218916   1.841   1.234   2.833
 6304TIP3   OH218917   5.681   4.980   3.880
 6304TIP3    H118918   5.706   5.068   3.908
 6304TIP3    H218919   5.594   4.967   3.918
 6305TIP3   OH218920   5.174   0.583   3.192
 6305TIP3    H118921   5.143   0.579   3.282
 6305TIP3    H218922   5.166   0.492   3.161
 6306TIP3   OH218923   5.512   3.696   1.680
 6306TIP3    H118924   5.517   3.611   1.723
 6306TIP3    H218925   5.596   3.706   1.636
 6307TIP3   OH218926   0.993   4.077   2.550
 6307TIP3    H118927   1.085   4.095   2.566
 6307TIP3    H218928   0.986   3.981   2.551
 6308TIP3   OH218929   3.912   4.527   0.943
 6308TIP3    H118930   3.896   4.621   0.937
 6308TIP3    H218931   4.007   4.518   0.945
 6309TIP3   OH218932   3.085   5.493   2.341
 6309TIP3    H118933   3.079   5.589   2.346
 6309TIP3    H218934   3.018   5.462   2.402
 6310TIP3   OH218935   2.729   2.393   0.772
 6310TIP3    H118936   2.821   2.417   0.765
 6310TIP3    H218937   2.694   2.450   0.840
 6311TIP3   OH218938   1.684   5.273   0.095
 6311TIP3    H118939   1.679   5.313   0.182
 6311TIP3    H218940   1.778   5.263   0.080
 6312TIP3   OH218941   3.727   4.606   3.907
 6312TIP3    H118942   3.798   4.670   3.906
 6312TIP3    H218943   3.657   4.647   3.856
 6313TIP3   OH218944   3.700   0.506   4.707
 6313TIP3    H118945   3.780   0.492   4.757
 6313TIP3    H218946   3.727   0.497   4.615
 6314TIP3   OH218947   2.798   0.995   4.926
 6314TIP3    H118948   2.832   0.968   5.011
 6314TIP3    H218949   2.872   0.983   4.866
 6315TIP3   OH218950   4.304   3.885   3.952
 6315TIP3    H118951   4.355   3.816   3.908
 6315TIP3    H218952   4.370   3.949   3.979
 6316TIP3   OH218953   5.847   3.776   0.053
 6316TIP3    H118954   5.792   3.837   0.101
 6316TIP3    H218955   5.907   3.831   0.003
 6317TIP3   OH218956   5.839   1.216   3.837
 6317TIP3    H118957   5.838   1.181   3.926
 6317TIP3    H218958   5.915   1.174   3.796
 6318TIP3   OH218959   0.989   5.072   2.770
 6318TIP3    H118960   1.031   5.061   2.685
 6318TIP3    H218961   0.977   5.166   2.778
 6319TIP3   OH218962   5.686   0.698   3.122
 6319TIP3    H118963   5.687   0.603   3.117
 6319TIP3    H218964   5.660   0.727   3.035
 6320TIP3   OH218965   4.462   5.003   2.542
 6320TIP3    H118966   4.474   5.016   2.448
 6320TIP3    H218967   4.416   4.920   2.549
 6321TIP3   OH218968   5.120   5.645   4.510
 6321TIP3    H118969   5.154   5.556   4.504
 6321TIP3    H218970   5.191   5.695   4.549
 6322TIP3   OH218971   2.780   4.226   1.839
 6322TIP3    H118972   2.861   4.175   1.847
 6322TIP3    H218973   2.716   4.177   1.892
 6323TIP3   OH218974   3.406   0.679   2.029
 6323TIP3    H118975   3.354   0.667   1.949
 6323TIP3    H218976   3.497   0.668   2.001
 6324TIP3   OH218977   2.627   3.852   1.182
 6324TIP3    H118978   2.537   3.832   1.210
 6324TIP3    H218979   2.675   3.864   1.264
 6325TIP3   OH218980   1.437   2.313   0.188
 6325TIP3    H118981   1.375   2.300   0.259
 6325TIP3    H218982   1.395   2.377   0.131
 6326TIP3   OH218983   1.114   0.885   3.415
 6326TIP3    H118984   1.178   0.956   3.409
 6326TIP3    H218985   1.031   0.924   3.386
 6327TIP3   OH218986   0.363   5.184   3.401
 6327TIP3    H118987   0.315   5.188   3.318
 6327TIP3    H218988   0.443   5.136   3.379
 6328TIP3   OH218989   0.201   3.056   1.676
 6328TIP3    H118990   0.245   2.987   1.626
 6328TIP3    H218991   0.174   3.120   1.611
 6329TIP3   OH218992   4.704   2.188   2.405
 6329TIP3    H118993   4.705   2.103   2.362
 6329TIP3    H218994   4.795   2.219   2.400
 6330TIP3   OH218995   1.223   1.201   0.635
 6330TIP3    H118996   1.278   1.166   0.705
 6330TIP3    H218997   1.136   1.207   0.673
 6331TIP3   OH218998   5.714   0.603   4.892
 6331TIP3    H118999   5.672   0.518   4.904
 6331TIP3    H219000   5.794   0.598   4.944
 6332TIP3   OH219001   1.916   0.086   0.544
 6332TIP3    H119002   1.947   0.072   0.633
 6332TIP3    H219003   1.971   0.030   0.489
 6333TIP3   OH219004   2.886   2.250   0.123
 6333TIP3    H119005   2.879   2.317   0.054
 6333TIP3    H219006   2.856   2.294   0.202
 6334TIP3   OH219007   0.155   1.776   1.944
 6334TIP3    H119008   0.195   1.723   2.013
 6334TIP3    H219009   0.170   1.727   1.863
 6335TIP3   OH219010   5.683   2.917   0.670
 6335TIP3    H119011   5.759   2.954   0.624
 6335TIP3    H219012   5.718   2.840   0.715
 6336TIP3   OH219013   5.110   2.737   2.876
 6336TIP3    H119014   5.163   2.661   2.851
 6336TIP3    H219015   5.064   2.761   2.795
 6337TIP3   OH219016   5.619   3.783   2.800
 6337TIP3    H119017   5.607   3.726   2.876
 6337TIP3    H219018   5.610   3.871   2.834
 6338TIP3   OH219019   0.229   2.633   1.283
 6338TIP3    H119020   0.304   2.646   1.225
 6338TIP3    H219021   0.258   2.567   1.346
 6339TIP3   OH219022   5.338   4.361   5.079
 6339TIP3    H119023   5.369   4.288   5.025
 6339TIP3    H219024   5.312   4.320   5.162
 6340TIP3   OH219025   3.554   5.182   3.350
 6340TIP3    H119026   3.581   5.248   3.287
 6340TIP3    H219027   3.557   5.099   3.301
 6341TIP3   OH219028   4.597   3.723   0.144
 6341TIP3    H119029   4.597   3.797   0.205
 6341TIP3    H219030   4.651   3.657   0.186
 6342TIP3   OH219031   4.361   3.170   4.729
 6342TIP3    H119032   4.363   3.156   4.824
 6342TIP3    H219033   4.330   3.259   4.718
 6343TIP3   OH219034   4.550   2.457   5.054
 6343TIP3    H119035   4.538   2.548   5.028
 6343TIP3    H219036   4.635   2.454   5.097
 6344TIP3   OH219037   1.224   2.034   0.160
 6344TIP3    H119038   1.216   1.963   0.224
 6344TIP3    H219039   1.288   2.001   0.096
 6345TIP3   OH219040   4.746   3.995   1.230
 6345TIP3    H119041   4.741   4.079   1.277
 6345TIP3    H219042   4.658   3.957   1.239
 6346TIP3   OH219043   5.197   3.181   1.075
 6346TIP3    H119044   5.238   3.267   1.085
 6346TIP3    H219045   5.270   3.119   1.076
 6347TIP3   OH219046   3.481   1.730   1.762
 6347TIP3    H119047   3.548   1.665   1.782
 6347TIP3    H219048   3.421   1.727   1.837
 6348TIP3   OH219049   2.955   0.337   0.942
 6348TIP3    H119050   3.025   0.401   0.954
 6348TIP3    H219051   2.938   0.304   1.030
 6349TIP3   OH219052   0.057   2.523   4.553
 6349TIP3    H119053   0.138   2.530   4.603
 6349TIP3    H219054   0.063   2.438   4.509
 6350TIP3   OH219055   0.092   0.095   2.479
 6350TIP3    H119056   0.140   0.155   2.422
 6350TIP3    H219057   0.155   0.025   2.498
 6351TIP3   OH219058   0.451   5.781   2.529
 6351TIP3    H119059   0.505   5.852   2.492
 6351TIP3    H219060   0.469   5.706   2.473
 6352TIP3   OH219061   2.323   1.642   0.951
 6352TIP3    H119062   2.298   1.735   0.947
 6352TIP3    H219063   2.264   1.605   1.016
 6353TIP3   OH219064   1.414   3.772   1.922
 6353TIP3    H119065   1.479   3.726   1.869
 6353TIP3    H219066   1.343   3.791   1.861
 6354TIP3   OH219067   1.847   5.267   3.545
 6354TIP3    H119068   1.753   5.272   3.558
 6354TIP3    H219069   1.869   5.346   3.496
 6355TIP3   OH219070   3.502   2.657   0.372
 6355TIP3    H119071   3.422   2.703   0.397
 6355TIP3    H219072   3.535   2.704   0.296
 6356TIP3   OH219073   4.943   5.575   0.371
 6356TIP3    H119074   5.027   5.550   0.331
 6356TIP3    H219075   4.897   5.621   0.302
 6357TIP3   OH219076   5.389   5.300   4.762
 6357TIP3    H119077   5.472   5.339   4.789
 6357TIP3    H219078   5.411   5.249   4.684
 6358TIP3   OH219079   5.584   3.421   4.299
 6358TIP3    H119080   5.619   3.468   4.374
 6358TIP3    H219081   5.632   3.339   4.297
 6359TIP3   OH219082   0.937   2.457   4.669
 6359TIP3    H119083   0.920   2.477   4.576
 6359TIP3    H219084   1.004   2.388   4.667
 6360TIP3   OH219085   4.869   4.083   1.673
 6360TIP3    H119086   4.801   4.076   1.606
 6360TIP3    H219087   4.852   4.011   1.733
 6361TIP3   OH219088   3.633   5.407   0.909
 6361TIP3    H119089   3.723   5.385   0.885
 6361TIP3    H219090   3.609   5.341   0.974
 6362TIP3   OH219091   2.908   3.937   5.029
 6362TIP3    H119092   2.842   3.967   4.966
 6362TIP3    H219093   2.914   4.007   5.093
 6363TIP3   OH219094   4.122   4.325   2.882
 6363TIP3    H119095   4.032   4.334   2.851
 6363TIP3    H219096   4.116   4.264   2.956
 6364TIP3   OH219097   5.526  -0.017   3.077
 6364TIP3    H119098   5.600   0.007   3.132
 6364TIP3    H219099   5.498   0.065   3.037
 6365TIP3   OH219100   3.406   3.561   3.578
 6365TIP3    H119101   3.323   3.596   3.609
 6365TIP3    H219102   3.461   3.556   3.656
 6366TIP3   OH219103   1.319   3.676   0.343
 6366TIP3    H119104   1.414   3.662   0.339
 6366TIP3    H219105   1.307   3.767   0.314
 6367TIP3   OH219106   2.066   5.527   2.094
 6367TIP3    H119107   2.013   5.534   2.173
 6367TIP3    H219108   2.033   5.596   2.037
 6368TIP3   OH219109   3.496   1.124   0.560
 6368TIP3    H119110   3.473   1.206   0.518
 6368TIP3    H219111   3.461   1.056   0.502
 6369TIP3   OH219112   2.138   5.596   3.159
 6369TIP3    H119113   2.134   5.514   3.110
 6369TIP3    H219114   2.051   5.634   3.150
 6370TIP3   OH219115   3.421   5.265   1.798
 6370TIP3    H119116   3.468   5.328   1.743
 6370TIP3    H219117   3.472   5.262   1.879
 6371TIP3   OH219118   3.681   3.643   0.456
 6371TIP3    H119119   3.703   3.663   0.365
 6371TIP3    H219120   3.634   3.720   0.487
 6372TIP3   OH219121   6.022   1.819   2.711
 6372TIP3    H119122   6.072   1.866   2.644
 6372TIP3    H219123   6.089   1.786   2.771
 6373TIP3   OH219124   5.855   4.817   4.657
 6373TIP3    H119125   5.936   4.781   4.621
 6373TIP3    H219126   5.838   4.764   4.735
 6374TIP3   OH219127   1.909   1.043   4.985
 6374TIP3    H119128   1.838   1.059   4.924
 6374TIP3    H219129   1.930   1.128   5.022
 6375TIP3   OH219130   0.839   3.319   4.181
 6375TIP3    H119131   0.881   3.353   4.102
 6375TIP3    H219132   0.911   3.296   4.239
 6376TIP3   OH219133   0.377   3.354   1.567
 6376TIP3    H119134   0.413   3.395   1.645
 6376TIP3    H219135   0.288   3.329   1.592
 6377TIP3   OH219136   6.319   2.973   2.792
 6377TIP3    H119137   6.240   2.932   2.758
 6377TIP3    H219138   6.351   3.028   2.720
 6378TIP3   OH219139   1.623   3.342   4.490
 6378TIP3    H119140   1.549   3.402   4.504
 6378TIP3    H219141   1.608   3.270   4.550
 6379TIP3   OH219142   5.340   0.229   0.743
 6379TIP3    H119143   5.286   0.163   0.788
 6379TIP3    H219144   5.413   0.245   0.803
 6380TIP3   OH219145   2.504   0.913   3.345
 6380TIP3    H119146   2.534   0.824   3.364
 6380TIP3    H219147   2.566   0.946   3.279
 6381TIP3   OH219148   0.508   5.654   2.188
 6381TIP3    H119149   0.565   5.600   2.244
 6381TIP3    H219150   0.519   5.618   2.100
 6382TIP3   OH219151   1.847   2.948   0.926
 6382TIP3    H119152   1.849   2.872   0.868
 6382TIP3    H219153   1.920   3.003   0.897
 6383TIP3   OH219154   0.832   5.393   3.532
 6383TIP3    H119155   0.808   5.428   3.617
 6383TIP3    H219156   0.926   5.412   3.524
 6384TIP3   OH219157   0.020   2.461   2.824
 6384TIP3    H119158   0.098   2.505   2.855
 6384TIP3    H219159  -0.044   2.531   2.809
 6385TIP3   OH219160   4.057   1.775   3.444
 6385TIP3    H119161   4.006   1.807   3.518
 6385TIP3    H219162   4.125   1.841   3.430
 6386TIP3   OH219163   5.599   3.786   3.980
 6386TIP3    H119164   5.667   3.743   3.928
 6386TIP3    H219165   5.642   3.804   4.064
 6387TIP3   OH219166   3.845   1.909   1.750
 6387TIP3    H119167   3.897   1.840   1.708
 6387TIP3    H219168   3.889   1.990   1.727
 6388TIP3   OH219169   3.953   2.969   4.459
 6388TIP3    H119170   4.004   3.019   4.396
 6388TIP3    H219171   4.013   2.902   4.492
 6389TIP3   OH219172   6.157   0.166   2.137
 6389TIP3    H119173   6.105   0.107   2.081
 6389TIP3    H219174   6.142   0.133   2.226
 6390TIP3   OH219175   1.343   3.602   1.249
 6390TIP3    H119176   1.308   3.611   1.338
 6390TIP3    H219177   1.384   3.687   1.230
 6391TIP3   OH219178   3.163   2.847   0.310
 6391TIP3    H119179   3.169   2.849   0.214
 6391TIP3    H219180   3.080   2.891   0.329
 6392TIP3   OH219181   2.990   1.140   1.329
 6392TIP3    H119182   3.059   1.161   1.266
 6392TIP3    H219183   2.913   1.184   1.294
 6393TIP3   OH219184   5.254   1.336   0.339
 6393TIP3    H119185   5.251   1.316   0.432
 6393TIP3    H219186   5.347   1.346   0.319
 6394TIP3   OH219187   2.927   1.756   2.442
 6394TIP3    H119188   2.879   1.823   2.490
 6394TIP3    H219189   3.016   1.791   2.433
 6395TIP3   OH219190   2.124   5.701   2.703
 6395TIP3    H119191   2.159   5.787   2.681
 6395TIP3    H219192   2.079   5.714   2.786
 6396TIP3   OH219193   5.695   1.317   2.740
 6396TIP3    H119194   5.731   1.249   2.684
 6396TIP3    H219195   5.685   1.393   2.683
 6397TIP3   OH219196   3.325   1.578   4.512
 6397TIP3    H119197   3.244   1.552   4.555
 6397TIP3    H219198   3.394   1.539   4.565
 6398TIP3   OH219199   4.379   5.846   3.609
 6398TIP3    H119200   4.415   5.757   3.602
 6398TIP3    H219201   4.330   5.845   3.691
 6399TIP3   OH219202   1.779   1.902   0.614
 6399TIP3    H119203   1.769   1.822   0.665
 6399TIP3    H219204   1.690   1.930   0.596
 6400TIP3   OH219205   0.432   5.389   1.046
 6400TIP3    H119206   0.425   5.416   0.955
 6400TIP3    H219207   0.353   5.337   1.062
 6401TIP3   OH219208   0.808   1.822   3.652
 6401TIP3    H119209   0.796   1.876   3.574
 6401TIP3    H219210   0.729   1.838   3.704
 6402TIP3   OH219211   5.147   5.317   4.527
 6402TIP3    H119212   5.147   5.224   4.549
 6402TIP3    H219213   5.094   5.323   4.447
 6403TIP3   OH219214   1.717   3.929   3.920
 6403TIP3    H119215   1.811   3.946   3.931
 6403TIP3    H219216   1.688   3.895   4.005
 6404TIP3   OH219217   2.968   4.223   0.575
 6404TIP3    H119218   3.052   4.267   0.558
 6404TIP3    H219219   2.917   4.237   0.495
 6405TIP3   OH219220   3.950   3.206   4.674
 6405TIP3    H119221   3.984   3.245   4.594
 6405TIP3    H219222   3.955   3.111   4.659
 6406TIP3   OH219223   1.846   2.682   3.074
 6406TIP3    H119224   1.862   2.693   3.167
 6406TIP3    H219225   1.852   2.588   3.059
 6407TIP3   OH219226   6.085   5.664   0.159
 6407TIP3    H119227   6.060   5.713   0.237
 6407TIP3    H219228   6.068   5.725   0.087
 6408TIP3   OH219229   3.507   2.999   0.521
 6408TIP3    H119230   3.592   3.012   0.478
 6408TIP3    H219231   3.443   3.020   0.453
 6409TIP3   OH219232   3.236   0.293   4.763
 6409TIP3    H119233   3.284   0.318   4.684
 6409TIP3    H219234   3.280   0.214   4.794
 6410TIP3   OH219235   4.471   5.504   3.216
 6410TIP3    H119236   4.467   5.587   3.263
 6410TIP3    H219237   4.531   5.520   3.143
 6411TIP3   OH219238   3.764   0.849   3.492
 6411TIP3    H119239   3.819   0.901   3.434
 6411TIP3    H219240   3.818   0.772   3.512
 6412TIP3   OH219241   0.393   4.999   0.626
 6412TIP3    H119242   0.460   5.057   0.591
 6412TIP3    H219243   0.316   5.055   0.638
 6413TIP3   OH219244   5.101   2.057   2.081
 6413TIP3    H119245   5.185   2.028   2.116
 6413TIP3    H219246   5.102   2.028   1.990
 6414TIP3   OH219247   1.992   2.169   1.040
 6414TIP3    H119248   1.994   2.212   0.954
 6414TIP3    H219249   2.019   2.237   1.101
 6415TIP3   OH219250   1.814   2.618   4.679
 6415TIP3    H119251   1.873   2.689   4.706
 6415TIP3    H219252   1.759   2.603   4.756
 6416TIP3   OH219253   6.174   3.350   2.061
 6416TIP3    H119254   6.093   3.400   2.074
 6416TIP3    H219255   6.223   3.400   1.995
 6417TIP3   OH219256   1.125   0.049   2.375
 6417TIP3    H119257   1.209   0.019   2.339
 6417TIP3    H219258   1.108  -0.010   2.448
 6418TIP3   OH219259   4.641   2.924   2.065
 6418TIP3    H119260   4.670   2.833   2.066
 6418TIP3    H219261   4.721   2.975   2.076
 6419TIP3   OH219262   2.695   5.987   0.053
 6419TIP3    H119263   2.733   5.910   0.011
 6419TIP3    H219264   2.682   5.961   0.144
 6420TIP3   OH219265   1.295   5.369   1.725
 6420TIP3    H119266   1.358   5.320   1.776
 6420TIP3    H219267   1.325   5.460   1.729
 6421TIP3   OH219268   1.223   3.578   2.871
 6421TIP3    H119269   1.265   3.502   2.912
 6421TIP3    H219270   1.130   3.553   2.865
 6422TIP3   OH219271   5.492   2.544   3.094
 6422TIP3    H119272   5.507   2.623   3.146
 6422TIP3    H219273   5.574   2.495   3.101
 6423TIP3   OH219274   2.895   3.516   1.909
 6423TIP3    H119275   2.965   3.561   1.957
 6423TIP3    H219276   2.819   3.574   1.916
 6424TIP3   OH219277   5.762   3.876   2.288
 6424TIP3    H119278   5.751   3.960   2.331
 6424TIP3    H219279   5.755   3.896   2.194
 6425TIP3   OH219280   6.147   2.062   4.039
 6425TIP3    H119281   6.173   2.061   4.131
 6425TIP3    H219282   6.096   1.982   4.027
 6426TIP3   OH219283   1.298   4.718   2.585
 6426TIP3    H119284   1.203   4.717   2.590
 6426TIP3    H219285   1.326   4.752   2.670
 6427TIP3   OH219286   2.794   2.913   0.915
 6427TIP3    H119287   2.861   2.981   0.920
 6427TIP3    H219288   2.711   2.958   0.932
 6428TIP3   OH219289   1.733   4.876   4.092
 6428TIP3    H119290   1.720   4.833   4.008
 6428TIP3    H219291   1.742   4.805   4.155
 6429TIP3   OH219292   2.058   1.595   1.943
 6429TIP3    H119293   2.068   1.545   2.024
 6429TIP3    H219294   1.963   1.606   1.934
 6430TIP3   OH219295   0.223   3.654   0.981
 6430TIP3    H119296   0.147   3.638   0.924
 6430TIP3    H219297   0.222   3.582   1.043
 6431TIP3   OH219298   2.913   0.256   1.200
 6431TIP3    H119299   2.910   0.175   1.250
 6431TIP3    H219300   2.979   0.309   1.244
 6432TIP3   OH219301   2.407   4.891   1.380
 6432TIP3    H119302   2.423   4.984   1.400
 6432TIP3    H219303   2.424   4.883   1.286
 6433TIP3   OH219304   5.904   0.722   4.702
 6433TIP3    H119305   5.825   0.668   4.706
 6433TIP3    H219306   5.934   0.713   4.611
 6434TIP3   OH219307   5.344   3.832   0.421
 6434TIP3    H119308   5.275   3.865   0.365
 6434TIP3    H219309   5.395   3.774   0.365
 6435TIP3   OH219310   4.817   2.791   0.672
 6435TIP3    H119311   4.800   2.860   0.736
 6435TIP3    H219312   4.774   2.820   0.592
 6436TIP3   OH219313   0.029   5.453   2.698
 6436TIP3    H119314  -0.060   5.478   2.674
 6436TIP3    H219315   0.040   5.365   2.663
 6437TIP3   OH219316   0.299   4.356   1.483
 6437TIP3    H119317   0.269   4.440   1.518
 6437TIP3    H219318   0.218   4.312   1.456
 6438TIP3   OH219319   1.544   0.984   2.150
 6438TIP3    H119320   1.599   0.911   2.180
 6438TIP3    H219321   1.468   0.982   2.208
 6439TIP3   OH219322   5.302   4.553   2.102
 6439TIP3    H119323   5.350   4.506   2.034
 6439TIP3    H219324   5.320   4.646   2.084
 6440TIP3   OH219325   4.569   2.801   3.168
 6440TIP3    H119326   4.514   2.801   3.247
 6440TIP3    H219327   4.527   2.738   3.110
 6441TIP3   OH219328   4.171   5.028   4.710
 6441TIP3    H119329   4.210   4.946   4.741
 6441TIP3    H219330   4.097   4.999   4.657
 6442TIP3   OH219331   4.261   1.540   0.081
 6442TIP3    H119332   4.180   1.591   0.086
 6442TIP3    H219333   4.263   1.507  -0.009
 6443TIP3   OH219334   2.985   2.646   0.465
 6443TIP3    H119335   2.970   2.674   0.555
 6443TIP3    H219336   2.929   2.702   0.412
 6444TIP3   OH219337   2.933   4.692   2.754
 6444TIP3    H119338   2.932   4.758   2.823
 6444TIP3    H219339   2.897   4.736   2.677
 6445TIP3   OH219340   2.534   4.976   4.421
 6445TIP3    H119341   2.522   4.913   4.350
 6445TIP3    H219342   2.446   5.007   4.442
 6446TIP3   OH219343   2.470   4.244   2.291
 6446TIP3    H119344   2.449   4.313   2.354
 6446TIP3    H219345   2.530   4.186   2.339
 6447TIP3   OH219346   2.306   1.183   1.575
 6447TIP3    H119347   2.270   1.102   1.539
 6447TIP3    H219348   2.268   1.252   1.521
 6448TIP3   OH219349   4.646   0.166   3.092
 6448TIP3    H119350   4.618   0.251   3.127
 6448TIP3    H219351   4.717   0.187   3.032
 6449TIP3   OH219352   5.932   3.442   2.160
 6449TIP3    H119353   5.838   3.426   2.170
 6449TIP3    H219354   5.945   3.531   2.195
 6450TIP3   OH219355   3.255   1.230   0.359
 6450TIP3    H119356   3.324   1.295   0.374
 6450TIP3    H219357   3.273   1.197   0.271
 6451TIP3   OH219358   2.665   4.445   3.388
 6451TIP3    H119359   2.663   4.391   3.310
 6451TIP3    H219360   2.748   4.494   3.382
 6452TIP3   OH219361   2.442   2.010   4.480
 6452TIP3    H119362   2.493   1.947   4.530
 6452TIP3    H219363   2.387   2.054   4.545
 6453TIP3   OH219364   5.771   0.155   1.532
 6453TIP3    H119365   5.730   0.079   1.491
 6453TIP3    H219366   5.708   0.226   1.519
 6454TIP3   OH219367   1.359   1.104   3.141
 6454TIP3    H119368   1.371   1.009   3.144
 6454TIP3    H219369   1.317   1.120   3.056
 6455TIP3   OH219370   5.993   3.985   1.294
 6455TIP3    H119371   6.016   3.900   1.255
 6455TIP3    H219372   5.901   3.977   1.317
 6456TIP3   OH219373   5.483   1.874   4.901
 6456TIP3    H119374   5.548   1.850   4.968
 6456TIP3    H219375   5.531   1.932   4.841
 6457TIP3   OH219376   0.004   2.831   3.035
 6457TIP3    H119377  -0.046   2.760   2.996
 6457TIP3    H219378   0.043   2.877   2.961
 6458TIP3   OH219379   3.935   0.831   0.164
 6458TIP3    H119380   3.926   0.893   0.091
 6458TIP3    H219381   3.958   0.886   0.239
 6459TIP3   OH219382   2.547   1.532   4.792
 6459TIP3    H119383   2.587   1.470   4.852
 6459TIP3    H219384   2.576   1.618   4.823
 6460TIP3   OH219385   4.603   0.877   3.514
 6460TIP3    H119386   4.517   0.861   3.553
 6460TIP3    H219387   4.596   0.842   3.426
 6461TIP3   OH219388   2.149   3.965   2.748
 6461TIP3    H119389   2.070   4.016   2.768
 6461TIP3    H219390   2.127   3.875   2.774
 6462TIP3   OH219391   0.906   0.514   3.596
 6462TIP3    H119392   0.851   0.582   3.635
 6462TIP3    H219393   0.953   0.560   3.526
 6463TIP3   OH219394   5.119   4.783   2.258
 6463TIP3    H119395   5.170   4.849   2.211
 6463TIP3    H219396   5.030   4.793   2.225
 6464TIP3   OH219397   2.410   0.420   3.038
 6464TIP3    H119398   2.412   0.384   2.949
 6464TIP3    H219399   2.496   0.460   3.049
 6465TIP3   OH219400   1.706   1.700   1.614
 6465TIP3    H119401   1.663   1.683   1.697
 6465TIP3    H219402   1.648   1.663   1.548
 6466TIP3   OH219403   0.883   4.331   2.763
 6466TIP3    H119404   0.880   4.247   2.809
 6466TIP3    H219405   0.959   4.376   2.799
 6467TIP3   OH219406   0.482   4.061   0.606
 6467TIP3    H119407   0.422   4.130   0.579
 6467TIP3    H219408   0.554   4.107   0.649
 6468TIP3   OH219409   3.372   2.294   1.323
 6468TIP3    H119410   3.332   2.213   1.291
 6468TIP3    H219411   3.464   2.272   1.338
 6469TIP3   OH219412   3.432   2.221   1.729
 6469TIP3    H119413   3.483   2.302   1.736
 6469TIP3    H219414   3.482   2.156   1.777
 6470TIP3   OH219415   2.301   4.710   4.214
 6470TIP3    H119416   2.394   4.705   4.235
 6470TIP3    H219417   2.299   4.747   4.125
 6471TIP3   OH219418   4.125   5.390   1.325
 6471TIP3    H119419   4.167   5.372   1.409
 6471TIP3    H219420   4.039   5.349   1.333
 6472TIP3   OH219421   3.360   0.505   0.083
 6472TIP3    H119422   3.309   0.580   0.112
 6472TIP3    H219423   3.377   0.522  -0.009
 6473TIP3   OH219424   4.838   1.579   1.535
 6473TIP3    H119425   4.917   1.634   1.533
 6473TIP3    H219426   4.854   1.512   1.469
 6474TIP3   OH219427   5.980   0.268   2.450
 6474TIP3    H119428   6.072   0.286   2.431
 6474TIP3    H219429   5.957   0.195   2.392
 6475TIP3   OH219430   2.247   1.749   3.245
 6475TIP3    H119431   2.319   1.793   3.290
 6475TIP3    H219432   2.245   1.661   3.284
 6476TIP3   OH219433   0.221   1.807   2.978
 6476TIP3    H119434   0.217   1.861   2.899
 6476TIP3    H219435   0.228   1.717   2.946
 6477TIP3   OH219436   6.243   4.451   3.125
 6477TIP3    H119437   6.253   4.536   3.081
 6477TIP3    H219438   6.291   4.390   3.070
 6478TIP3   OH219439   1.905   3.356   2.417
 6478TIP3    H119440   1.947   3.354   2.503
 6478TIP3    H219441   1.964   3.410   2.363
 6479TIP3   OH219442   1.098   4.221   1.747
 6479TIP3    H119443   1.073   4.199   1.837
 6479TIP3    H219444   1.016   4.219   1.699
 6480TIP3   OH219445   4.570   4.095   3.085
 6480TIP3    H119446   4.523   4.152   3.024
 6480TIP3    H219447   4.651   4.142   3.104
 6481TIP3   OH219448   2.575   3.869   3.589
 6481TIP3    H119449   2.618   3.872   3.675
 6481TIP3    H219450   2.533   3.955   3.580
 6482TIP3   OH219451   1.146   3.251   3.690
 6482TIP3    H119452   1.240   3.265   3.687
 6482TIP3    H219453   1.112   3.300   3.615
 6483TIP3   OH219454   4.641   1.721   3.794
 6483TIP3    H119455   4.560   1.762   3.763
 6483TIP3    H219456   4.688   1.697   3.714
 6484TIP3   OH219457   4.046   0.332   0.055
 6484TIP3    H119458   4.122   0.275   0.063
 6484TIP3    H219459   3.983   0.298   0.118
 6485TIP3   OH219460   1.740   1.446   3.829
 6485TIP3    H119461   1.720   1.525   3.880
 6485TIP3    H219462   1.676   1.381   3.859
 6486TIP3   OH219463   5.288   3.092   1.416
 6486TIP3    H119464   5.367   3.094   1.362
 6486TIP3    H219465   5.283   3.002   1.447
 6487TIP3   OH219466   5.439   2.142   2.845
 6487TIP3    H119467   5.360   2.126   2.793
 6487TIP3    H219468   5.436   2.075   2.913
 6488TIP3   OH219469   4.177   3.649   0.134
 6488TIP3    H119470   4.268   3.642   0.162
 6488TIP3    H219471   4.132   3.691   0.208
 6489TIP3   OH219472   5.133   2.339   2.046
 6489TIP3    H119473   5.125   2.243   2.044
 6489TIP3    H219474   5.227   2.355   2.033
 6490TIP3   OH219475   2.166   3.788   1.776
 6490TIP3    H119476   2.162   3.872   1.730
 6490TIP3    H219477   2.256   3.758   1.763
 6491TIP3   OH219478   5.129   1.667   4.426
 6491TIP3    H119479   5.066   1.718   4.476
 6491TIP3    H219480   5.198   1.730   4.404
 6492TIP3   OH219481   0.696   0.930   0.909
 6492TIP3    H119482   0.719   0.936   0.816
 6492TIP3    H219483   0.718   1.015   0.945
 6493TIP3   OH219484   1.065   3.379   4.931
 6493TIP3    H119485   1.104   3.298   4.897
 6493TIP3    H219486   1.132   3.445   4.918
 6494TIP3   OH219487   0.131   0.173   2.008
 6494TIP3    H119488   0.084   0.121   1.943
 6494TIP3    H219489   0.066   0.192   2.075
 6495TIP3   OH219490   5.780   1.895   0.529
 6495TIP3    H119491   5.854   1.848   0.568
 6495TIP3    H219492   5.802   1.987   0.539
 6496TIP3   OH219493   3.085   3.965   0.417
 6496TIP3    H119494   3.082   4.038   0.356
 6496TIP3    H219495   3.148   3.904   0.379
 6497TIP3   OH219496   0.712   1.977   2.683
 6497TIP3    H119497   0.634   1.938   2.723
 6497TIP3    H219498   0.697   1.969   2.588
 6498TIP3   OH219499   3.753   4.629   2.920
 6498TIP3    H119500   3.798   4.713   2.914
 6498TIP3    H219501   3.747   4.598   2.829
 6499TIP3   OH219502   2.000   1.361   1.340
 6499TIP3    H119503   1.943   1.414   1.396
 6499TIP3    H219504   1.993   1.402   1.253
 6500TIP3   OH219505   5.601   2.148   3.710
 6500TIP3    H119506   5.600   2.154   3.805
 6500TIP3    H219507   5.622   2.056   3.691
 6501TIP3   OH219508   4.039   4.423   3.854
 6501TIP3    H119509   4.092   4.358   3.807
 6501TIP3    H219510   4.028   4.387   3.942
 6502TIP3   OH219511   5.591   1.393   0.280
 6502TIP3    H119512   5.616   1.446   0.204
 6502TIP3    H219513   5.621   1.305   0.259
 6503TIP3   OH219514   1.388   1.709   2.689
 6503TIP3    H119515   1.388   1.726   2.783
 6503TIP3    H219516   1.296   1.692   2.667
 6504TIP3   OH219517   1.779   5.958   1.903
 6504TIP3    H119518   1.866   5.998   1.891
 6504TIP3    H219519   1.789   5.869   1.869
 6505TIP3   OH219520   6.168   2.606   2.208
 6505TIP3    H119521   6.203   2.680   2.259
 6505TIP3    H219522   6.168   2.639   2.117
 6506TIP3   OH219523   3.645   0.259   3.223
 6506TIP3    H119524   3.688   0.339   3.253
 6506TIP3    H219525   3.639   0.204   3.300
 6507TIP3   OH219526   1.859   0.974   3.886
 6507TIP3    H119527   1.816   0.915   3.948
 6507TIP3    H219528   1.819   0.952   3.801
 6508TIP3   OH219529   3.036   2.191   3.348
 6508TIP3    H119530   3.001   2.280   3.349
 6508TIP3    H219531   3.126   2.201   3.315
 6509TIP3   OH219532   0.724   1.850   3.193
 6509TIP3    H119533   0.814   1.820   3.210
 6509TIP3    H219534   0.672   1.770   3.193
 6510TIP3   OH219535   6.282   4.063   5.050
 6510TIP3    H119536   6.284   4.120   5.127
 6510TIP3    H219537   6.315   3.979   5.081
 6511TIP3   OH219538   1.944   3.502   2.948
 6511TIP3    H119539   1.968   3.534   3.034
 6511TIP3    H219540   1.898   3.419   2.965
 6512TIP3   OH219541   1.296   3.407   1.041
 6512TIP3    H119542   1.313   3.471   1.110
 6512TIP3    H219543   1.204   3.422   1.017
 6513TIP3   OH219544   3.383   4.743   1.982
 6513TIP3    H119545   3.420   4.783   2.061
 6513TIP3    H219546   3.453   4.748   1.917
 6514TIP3   OH219547   0.275   3.096   4.090
 6514TIP3    H119548   0.316   3.020   4.050
 6514TIP3    H219549   0.194   3.063   4.129
 6515TIP3   OH219550   3.405   3.537   2.035
 6515TIP3    H119551   3.455   3.475   2.088
 6515TIP3    H219552   3.464   3.560   1.964
 6516TIP3   OH219553   3.588   4.752   3.275
 6516TIP3    H119554   3.620   4.834   3.237
 6516TIP3    H219555   3.629   4.747   3.361
 6517TIP3   OH219556   3.485   5.112   2.016
 6517TIP3    H119557   3.497   5.134   2.108
 6517TIP3    H219558   3.392   5.091   2.008
 6518TIP3   OH219559   1.605   2.862   5.131
 6518TIP3    H119560   1.510   2.852   5.125
 6518TIP3    H219561   1.618   2.951   5.164
 6519TIP3   OH219562   5.599   3.424   1.116
 6519TIP3    H119563   5.675   3.474   1.146
 6519TIP3    H219564   5.625   3.390   1.030
 6520TIP3   OH219565   3.128   1.762   3.884
 6520TIP3    H119566   3.050   1.782   3.937
 6520TIP3    H219567   3.188   1.721   3.945
 6521TIP3   OH219568   3.585   2.356   2.692
 6521TIP3    H119569   3.507   2.406   2.669
 6521TIP3    H219570   3.559   2.264   2.679
 6522TIP3   OH219571   5.781   5.684   4.121
 6522TIP3    H119572   5.813   5.612   4.175
 6522TIP3    H219573   5.837   5.758   4.144
 6523TIP3   OH219574   0.602   1.111   3.393
 6523TIP3    H119575   0.589   1.060   3.313
 6523TIP3    H219576   0.591   1.048   3.464
 6524TIP3   OH219577   3.063   0.156   2.721
 6524TIP3    H119578   3.011   0.212   2.664
 6524TIP3    H219579   3.124   0.216   2.764
 6525TIP3   OH219580   6.118   2.317   5.080
 6525TIP3    H119581   6.206   2.311   5.042
 6525TIP3    H219582   6.101   2.410   5.087
 6526TIP3   OH219583   4.836   0.215   2.894
 6526TIP3    H119584   4.790   0.194   2.812
 6526TIP3    H219585   4.895   0.142   2.908
 6527TIP3   OH219586   6.287   0.712   0.312
 6527TIP3    H119587   6.328   0.760   0.384
 6527TIP3    H219588   6.358   0.658   0.276
 6528TIP3   OH219589   6.323   0.567   4.817
 6528TIP3    H119590   6.245   0.511   4.817
 6528TIP3    H219591   6.329   0.600   4.907
 6529TIP3   OH219592   5.469   1.487   0.494
 6529TIP3    H119593   5.498   1.576   0.515
 6529TIP3    H219594   5.513   1.466   0.412
 6530TIP3   OH219595   1.211   2.621   4.293
 6530TIP3    H119596   1.218   2.641   4.200
 6530TIP3    H219597   1.203   2.526   4.297
 6531TIP3   OH219598   4.997   1.414   4.038
 6531TIP3    H119599   5.088   1.412   4.006
 6531TIP3    H219600   4.944   1.398   3.960
 6532TIP3   OH219601   5.573   0.103   5.136
 6532TIP3    H119602   5.532   0.104   5.049
 6532TIP3    H219603   5.617   0.018   5.141
 6533TIP3   OH219604   0.283   5.575   2.327
 6533TIP3    H119605   0.309   5.543   2.413
 6533TIP3    H219606   0.365   5.578   2.277
 6534TIP3   OH219607   0.520   1.813   1.537
 6534TIP3    H119608   0.515   1.906   1.516
 6534TIP3    H219609   0.466   1.770   1.470
 6535TIP3   OH219610   0.369   5.691   4.196
 6535TIP3    H119611   0.428   5.697   4.272
 6535TIP3    H219612   0.347   5.782   4.176
 6536TIP3   OH219613   1.690   4.321   5.038
 6536TIP3    H119614   1.597   4.301   5.029
 6536TIP3    H219615   1.716   4.353   4.952
 6537TIP3   OH219616   1.039   2.284   3.779
 6537TIP3    H119617   0.985   2.337   3.838
 6537TIP3    H219618   0.983   2.208   3.758
 6538TIP3   OH219619   1.369   2.828   0.458
 6538TIP3    H119620   1.343   2.876   0.537
 6538TIP3    H219621   1.286   2.809   0.414
 6539TIP3   OH219622   2.274   3.519   1.935
 6539TIP3    H119623   2.247   3.455   1.869
 6539TIP3    H219624   2.197   3.574   1.948
 6540TIP3   OH219625   4.771   1.403   1.304
 6540TIP3    H119626   4.787   1.310   1.293
 6540TIP3    H219627   4.712   1.426   1.232
 6541TIP3   OH219628   4.206   3.930   4.539
 6541TIP3    H119629   4.217   3.835   4.543
 6541TIP3    H219630   4.111   3.943   4.545
 6542TIP3   OH219631   6.256   3.768   4.806
 6542TIP3    H119632   6.172   3.729   4.832
 6542TIP3    H219633   6.295   3.798   4.888
 6543TIP3   OH219634   4.769   3.855   1.514
 6543TIP3    H119635   4.731   3.939   1.488
 6543TIP3    H219636   4.792   3.813   1.432
 6544TIP3   OH219637   0.591   1.538   1.587
 6544TIP3    H119638   0.621   1.458   1.631
 6544TIP3    H219639   0.541   1.585   1.654
 6545TIP3   OH219640   3.766   5.297   1.964
 6545TIP3    H119641   3.765   5.218   2.018
 6545TIP3    H219642   3.720   5.362   2.016
 6546TIP3   OH219643   4.858   3.873   4.392
 6546TIP3    H119644   4.841   3.951   4.340
 6546TIP3    H219645   4.896   3.810   4.330
 6547TIP3   OH219646   5.857   2.360   0.693
 6547TIP3    H119647   5.808   2.397   0.619
 6547TIP3    H219648   5.808   2.281   0.716
 6548TIP3   OH219649   1.596   1.178   0.230
 6548TIP3    H119650   1.691   1.195   0.232
 6548TIP3    H219651   1.563   1.237   0.162
 6549TIP3   OH219652   5.317   0.145   1.462
 6549TIP3    H119653   5.332   0.221   1.518
 6549TIP3    H219654   5.231   0.159   1.423
 6550TIP3   OH219655   2.764   3.989   2.046
 6550TIP3    H119656   2.694   4.053   2.059
 6550TIP3    H219657   2.753   3.927   2.119
 6551TIP3   OH219658   1.213   3.689   2.326
 6551TIP3    H119659   1.263   3.745   2.266
 6551TIP3    H219660   1.280   3.640   2.373
 6552TIP3   OH219661   1.618   2.982   4.236
 6552TIP3    H119662   1.686   2.953   4.297
 6552TIP3    H219663   1.540   2.933   4.260
 6553TIP3   OH219664   4.531   2.111   1.121
 6553TIP3    H119665   4.443   2.077   1.109
 6553TIP3    H219666   4.561   2.135   1.033
 6554TIP3   OH219667   3.117   2.880   4.100
 6554TIP3    H119668   3.086   2.920   4.182
 6554TIP3    H219669   3.213   2.884   4.107
 6555TIP3   OH219670   3.161   4.770   3.076
 6555TIP3    H119671   3.123   4.855   3.095
 6555TIP3    H219672   3.169   4.727   3.161
 6556TIP3   OH219673   3.560   2.285   2.354
 6556TIP3    H119674   3.522   2.336   2.282
 6556TIP3    H219675   3.615   2.347   2.401
 6557TIP3   OH219676   0.313   2.314   2.694
 6557TIP3    H119677   0.392   2.352   2.656
 6557TIP3    H219678   0.273   2.264   2.622
 6558TIP3   OH219679   4.089   5.936   3.119
 6558TIP3    H119680   4.075   5.936   3.024
 6558TIP3    H219681   4.144   6.013   3.135
 6559TIP3   OH219682   6.294   0.627   2.153
 6559TIP3    H119683   6.369   0.582   2.191
 6559TIP3    H219684   6.221   0.567   2.166
 6560TIP3   OH219685   0.433   0.708   3.785
 6560TIP3    H119686   0.436   0.653   3.864
 6560TIP3    H219687   0.370   0.777   3.807
 6561TIP3   OH219688   4.878   4.247   0.621
 6561TIP3    H119689   4.944   4.179   0.630
 6561TIP3    H219690   4.925   4.320   0.581
 6562TIP3   OH219691   2.208   0.357   1.190
 6562TIP3    H119692   2.295   0.374   1.226
 6562TIP3    H219693   2.213   0.387   1.099
 6563TIP3   OH219694   5.563   4.268   4.225
 6563TIP3    H119695   5.507   4.269   4.148
 6563TIP3    H219696   5.596   4.358   4.232
 6564TIP3   OH219697   1.112   5.459   3.605
 6564TIP3    H119698   1.170   5.391   3.638
 6564TIP3    H219699   1.167   5.512   3.547
 6565TIP3   OH219700   5.192   2.527   3.076
 6565TIP3    H119701   5.284   2.555   3.072
 6565TIP3    H219702   5.154   2.580   3.146
 6566TIP3   OH219703   5.931   5.096   4.061
 6566TIP3    H119704   5.918   5.001   4.061
 6566TIP3    H219705   5.953   5.118   3.971
 6567TIP3   OH219706   3.149   0.515   4.388
 6567TIP3    H119707   3.219   0.544   4.330
 6567TIP3    H219708   3.157   0.420   4.391
 6568TIP3   OH219709   0.164   0.461   1.539
 6568TIP3    H119710   0.150   0.406   1.616
 6568TIP3    H219711   0.117   0.542   1.560
 6569TIP3   OH219712   2.967   4.223   5.019
 6569TIP3    H119713   2.895   4.285   5.009
 6569TIP3    H219714   2.994   4.203   4.930
 6570TIP3   OH219715   3.003   0.468   1.982
 6570TIP3    H119716   2.913   0.492   2.007
 6570TIP3    H219717   3.004   0.372   1.987
 6571TIP3   OH219718   3.222   4.742   0.190
 6571TIP3    H119719   3.200   4.748   0.283
 6571TIP3    H219720   3.141   4.716   0.147
 6572TIP3   OH219721   1.217   1.872   2.443
 6572TIP3    H119722   1.298   1.905   2.482
 6572TIP3    H219723   1.169   1.835   2.516
 6573TIP3   OH219724   5.991   1.943   3.498
 6573TIP3    H119725   5.947   2.021   3.463
 6573TIP3    H219726   6.076   1.942   3.453
 6574TIP3   OH219727   2.749   3.561   2.617
 6574TIP3    H119728   2.833   3.591   2.582
 6574TIP3    H219729   2.699   3.535   2.540
 6575TIP3   OH219730   2.305   2.921   3.496
 6575TIP3    H119731   2.211   2.931   3.508
 6575TIP3    H219732   2.330   2.855   3.560
 6576TIP3   OH219733   3.998   1.074   1.059
 6576TIP3    H119734   4.075   1.022   1.081
 6576TIP3    H219735   3.970   1.112   1.143
 6577TIP3   OH219736   1.112   3.497   0.525
 6577TIP3    H119737   1.138   3.466   0.439
 6577TIP3    H219738   1.107   3.592   0.516
 6578TIP3   OH219739   5.140   1.316   4.870
 6578TIP3    H119740   5.169   1.369   4.944
 6578TIP3    H219741   5.135   1.377   4.797
 6579TIP3   OH219742   0.089   2.261   4.464
 6579TIP3    H119743   0.094   2.218   4.549
 6579TIP3    H219744   0.036   2.202   4.410
 6580TIP3   OH219745   0.688   5.770   1.240
 6580TIP3    H119746   0.769   5.769   1.190
 6580TIP3    H219747   0.665   5.862   1.247
 6581TIP3   OH219748   4.309   1.912   5.149
 6581TIP3    H119749   4.324   1.877   5.237
 6581TIP3    H219750   4.269   1.998   5.165
 6582TIP3   OH219751   0.580   3.480   2.995
 6582TIP3    H119752   0.502   3.462   3.047
 6582TIP3    H219753   0.633   3.538   3.050
 6583TIP3   OH219754   0.877   1.573   3.715
 6583TIP3    H119755   0.852   1.660   3.682
 6583TIP3    H219756   0.937   1.591   3.787
 6584TIP3   OH219757   6.135   4.614   2.790
 6584TIP3    H119758   6.191   4.642   2.717
 6584TIP3    H219759   6.134   4.518   2.784
 6585TIP3   OH219760   3.887   5.205   3.459
 6585TIP3    H119761   3.969   5.179   3.501
 6585TIP3    H219762   3.819   5.184   3.523
 6586TIP3   OH219763   4.119   5.757   4.500
 6586TIP3    H119764   4.106   5.675   4.453
 6586TIP3    H219765   4.109   5.734   4.593
 6587TIP3   OH219766   6.015   2.368   4.118
 6587TIP3    H119767   6.026   2.347   4.025
 6587TIP3    H219768   5.939   2.427   4.120
 6588TIP3   OH219769   5.687   2.525   0.462
 6588TIP3    H119770   5.706   2.439   0.424
 6588TIP3    H219771   5.595   2.540   0.441
 6589TIP3   OH219772   2.278   2.915   4.852
 6589TIP3    H119773   2.265   2.950   4.764
 6589TIP3    H219774   2.359   2.863   4.845
 6590TIP3   OH219775   5.866   3.903   2.782
 6590TIP3    H119776   5.818   3.842   2.727
 6590TIP3    H219777   5.943   3.927   2.731
 6591TIP3   OH219778   1.991   2.793   4.799
 6591TIP3    H119779   2.050   2.867   4.785
 6591TIP3    H219780   2.004   2.770   4.891
 6592TIP3   OH219781   5.807   0.337   3.757
 6592TIP3    H119782   5.848   0.272   3.814
 6592TIP3    H219783   5.811   0.419   3.806
 6593TIP3   OH219784   5.184   0.326   1.663
 6593TIP3    H119785   5.199   0.339   1.757
 6593TIP3    H219786   5.091   0.304   1.657
 6594TIP3   OH219787   4.095   0.196   2.165
 6594TIP3    H119788   4.021   0.257   2.171
 6594TIP3    H219789   4.074   0.127   2.229
 6595TIP3   OH219790   2.031   2.472   3.391
 6595TIP3    H119791   2.103   2.498   3.335
 6595TIP3    H219792   2.057   2.500   3.479
 6596TIP3   OH219793   5.026   5.677   4.074
 6596TIP3    H119794   4.935   5.707   4.077
 6596TIP3    H219795   5.071   5.744   4.023
 6597TIP3   OH219796   5.421   0.770   0.257
 6597TIP3    H119797   5.386   0.825   0.187
 6597TIP3    H219798   5.502   0.815   0.284
 6598TIP3   OH219799   0.999   1.572   5.054
 6598TIP3    H119800   1.044   1.536   4.977
 6598TIP3    H219801   1.047   1.536   5.129
 6599TIP3   OH219802   2.202   2.860   3.809
 6599TIP3    H119803   2.133   2.803   3.843
 6599TIP3    H219804   2.252   2.885   3.886
 6600TIP3   OH219805  -0.022   5.676   4.647
 6600TIP3    H119806   0.025   5.738   4.591
 6600TIP3    H219807  -0.028   5.720   4.732
 6601TIP3   OH219808   4.196   4.137   3.881
 6601TIP3    H119809   4.277   4.092   3.857
 6601TIP3    H219810   4.222   4.200   3.948
 6602TIP3   OH219811   6.325   3.874   3.342
 6602TIP3    H119812   6.271   3.953   3.343
 6602TIP3    H219813   6.310   3.837   3.255
 6603TIP3   OH219814   3.909   1.886   4.893
 6603TIP3    H119815   3.956   1.878   4.810
 6603TIP3    H219816   3.972   1.929   4.951
 6604TIP3   OH219817   3.593   4.268   1.484
 6604TIP3    H119818   3.561   4.358   1.478
 6604TIP3    H219819   3.518   4.218   1.516
 6605TIP3   OH219820   2.542   1.259   3.020
 6605TIP3    H119821   2.499   1.261   3.105
 6605TIP3    H219822   2.480   1.211   2.964
 6606TIP3   OH219823   1.728   2.111   4.528
 6606TIP3    H119824   1.767   2.110   4.441
 6606TIP3    H219825   1.700   2.202   4.541
 6607TIP3   OH219826   1.422   1.255   1.284
 6607TIP3    H119827   1.356   1.191   1.311
 6607TIP3    H219828   1.372   1.332   1.256
 6608TIP3   OH219829   5.287   3.772   1.823
 6608TIP3    H119830   5.356   3.759   1.758
 6608TIP3    H219831   5.211   3.798   1.772
 6609TIP3   OH219832   2.063   1.143   4.730
 6609TIP3    H119833   2.022   1.059   4.710
 6609TIP3    H219834   2.104   1.169   4.648
 6610TIP3   OH219835   5.009   4.077   4.108
 6610TIP3    H119836   4.934   4.036   4.152
 6610TIP3    H219837   4.976   4.098   4.021
 6611TIP3   OH219838   2.362   2.216   2.670
 6611TIP3    H119839   2.284   2.175   2.633
 6611TIP3    H219840   2.339   2.233   2.761
 6612TIP3   OH219841   4.691   0.319   1.919
 6612TIP3    H119842   4.646   0.255   1.974
 6612TIP3    H219843   4.669   0.403   1.957
 6613TIP3   OH219844   2.930   0.006   4.681
 6613TIP3    H119845   2.903   0.087   4.725
 6613TIP3    H219846   3.020  -0.008   4.710
 6614TIP3   OH219847   0.656   0.609   4.493
 6614TIP3    H119848   0.628   0.580   4.406
 6614TIP3    H219849   0.581   0.590   4.550
 6615TIP3   OH219850   1.686   0.726   2.168
 6615TIP3    H119851   1.653   0.637   2.155
 6615TIP3    H219852   1.685   0.739   2.263
 6616TIP3   OH219853   3.663   0.400   1.565
 6616TIP3    H119854   3.692   0.310   1.550
 6616TIP3    H219855   3.624   0.398   1.653
 6617TIP3   OH219856   4.374   3.129   4.997
 6617TIP3    H119857   4.440   3.194   5.022
 6617TIP3    H219858   4.394   3.053   5.050
 6618TIP3   OH219859   5.065   0.947   3.404
 6618TIP3    H119860   5.040   0.913   3.318
 6618TIP3    H219861   4.985   0.989   3.437
 6619TIP3   OH219862   2.147   4.147   2.041
 6619TIP3    H119863   2.094   4.169   2.118
 6619TIP3    H219864   2.163   4.231   1.998
 6620TIP3   OH219865   0.984   0.457   4.072
 6620TIP3    H119866   1.074   0.425   4.077
 6620TIP3    H219867   0.943   0.403   4.005
 6621TIP3   OH219868   6.219   0.714   3.722
 6621TIP3    H119869   6.132   0.710   3.683
 6621TIP3    H219870   6.211   0.778   3.793
 6622TIP3   OH219871   5.290   5.378   4.148
 6622TIP3    H119872   5.283   5.434   4.071
 6622TIP3    H219873   5.320   5.436   4.218
 6623TIP3   OH219874   4.756   1.896   4.839
 6623TIP3    H119875   4.663   1.872   4.831
 6623TIP3    H219876   4.759   1.987   4.809
 6624TIP3   OH219877   6.130   3.141   0.307
 6624TIP3    H119878   6.098   3.078   0.242
 6624TIP3    H219879   6.216   3.107   0.332
 6625TIP3   OH219880   0.499   3.714   0.993
 6625TIP3    H119881   0.404   3.712   0.981
 6625TIP3    H219882   0.521   3.806   1.001
 6626TIP3   OH219883   1.148   4.184   3.729
 6626TIP3    H119884   1.204   4.169   3.805
 6626TIP3    H219885   1.062   4.154   3.757
 6627TIP3   OH219886   2.487   0.601   3.723
 6627TIP3    H119887   2.518   0.667   3.784
 6627TIP3    H219888   2.549   0.529   3.732
 6628TIP3   OH219889   2.273   2.501   5.053
 6628TIP3    H119890   2.204   2.564   5.071
 6628TIP3    H219891   2.233   2.416   5.068
 6629TIP3   OH219892   3.453   5.609   4.250
 6629TIP3    H119893   3.514   5.584   4.320
 6629TIP3    H219894   3.433   5.527   4.205
 6630TIP3   OH219895   6.150   0.728   1.062
 6630TIP3    H119896   6.160   0.816   1.098
 6630TIP3    H219897   6.090   0.685   1.123
 6631TIP3   OH219898   2.762   3.467   4.761
 6631TIP3    H119899   2.827   3.398   4.773
 6631TIP3    H219900   2.774   3.496   4.670
 6632TIP3   OH219901   4.279   0.124   4.752
 6632TIP3    H119902   4.332   0.103   4.829
 6632TIP3    H219903   4.189   0.124   4.784
 6633TIP3   OH219904   3.146   1.023   0.516
 6633TIP3    H119905   3.108   1.088   0.574
 6633TIP3    H219906   3.196   1.073   0.452
 6634TIP3   OH219907   6.166   5.153   3.084
 6634TIP3    H119908   6.230   5.179   3.150
 6634TIP3    H219909   6.107   5.228   3.077
 6635TIP3   OH219910   0.986   5.440   4.788
 6635TIP3    H119911   1.057   5.464   4.847
 6635TIP3    H219912   1.016   5.359   4.747
 6636TIP3   OH219913   1.479   4.778   3.290
 6636TIP3    H119914   1.458   4.684   3.291
 6636TIP3    H219915   1.405   4.819   3.333
 6637TIP3   OH219916   3.162   4.434   0.396
 6637TIP3    H119917   3.150   4.453   0.303
 6637TIP3    H219918   3.244   4.385   0.401
 6638TIP3   OH219919   6.234   1.419   0.161
 6638TIP3    H119920   6.239   1.407   0.066
 6638TIP3    H219921   6.322   1.396   0.192
 6639TIP3   OH219922   2.901   5.852   1.340
 6639TIP3    H119923   2.814   5.813   1.350
 6639TIP3    H219924   2.938   5.809   1.263
 6640TIP3   OH219925   5.788   4.347   1.780
 6640TIP3    H119926   5.795   4.297   1.861
 6640TIP3    H219927   5.714   4.308   1.733
 6641TIP3   OH219928   0.271   5.517   2.825
 6641TIP3    H119929   0.273   5.606   2.860
 6641TIP3    H219930   0.178   5.497   2.816
 6642TIP3   OH219931   3.042   1.716   1.966
 6642TIP3    H119932   3.019   1.680   2.052
 6642TIP3    H219933   3.027   1.810   1.975
 6643TIP3   OH219934   3.319   2.325   4.361
 6643TIP3    H119935   3.344   2.281   4.280
 6643TIP3    H219936   3.225   2.338   4.353
 6644TIP3   OH219937   4.062   2.510   5.006
 6644TIP3    H119938   4.071   2.601   4.977
 6644TIP3    H219939   3.986   2.477   4.957
 6645TIP3   OH219940   3.457   0.922   1.160
 6645TIP3    H119941   3.488   0.834   1.178
 6645TIP3    H219942   3.511   0.979   1.214
   6.35908   5.99540   5.19217   0.00000   0.00000  -2.11970   0.00000  -2.11970  -2.99770
