Title
19942
    1ASP      N    1   1.847   1.971   3.289  0.4150 -0.9713  0.5915
    1ASP    HT1    2   1.849   2.073   3.311 -0.9236 -1.3286  2.5475
    1ASP    HT2    3   1.946   1.939   3.283  0.4211 -0.7543 -1.3645
    1ASP    HT3    4   1.797   1.916   3.361  2.1876  0.1285  2.8025
    1ASP     CA    5   1.773   1.951   3.169 -0.1402  0.0021  0.6141
    1ASP     HA    6   1.687   2.012   3.190 -0.4195 -0.6459  1.4044
    1ASP     CB    7   1.870   1.993   3.046  0.4164  0.0687 -0.5876
    1ASP    HB1    8   1.824   1.968   2.948 -3.4079  1.9040  0.5586
    1ASP    HB2    9   1.971   1.945   3.052 -0.4968 -2.0291 -1.0008
    1ASP     CG   10   1.900   2.140   3.044 -0.3472  0.3146  0.0311
    1ASP    OD1   11   1.980   2.188   2.961  0.8330  0.4074 -0.0676
    1ASP    OD2   12   1.843   2.210   3.131 -0.0769  0.0472  0.1004
    1ASP      C   13   1.723   1.804   3.159 -0.2722 -0.6297  1.1059
    1ASP      O   14   1.770   1.713   3.229 -0.7564  0.6120 -0.0682
    2ALA      N   15   1.637   1.782   3.057 -0.0298 -0.1023  0.7664
    2ALA     HN   16   1.610   1.854   2.995  0.0899 -0.1046  0.7106
    2ALA     CA   17   1.594   1.645   3.025  0.1063  0.4135 -0.4463
    2ALA     HA   18   1.690   1.596   3.018  0.4959  1.1522 -0.3814
    2ALA     CB   19   1.503   1.582   3.134  0.3963  0.5048  0.1677
    2ALA    HB1   20   1.553   1.577   3.233  0.6596  3.7870  0.3070
    2ALA    HB2   21   1.464   1.481   3.107 -0.2755 -0.0067  2.8070
    2ALA    HB3   22   1.415   1.648   3.144  0.7743  0.7365  2.5128
    2ALA      C   23   1.525   1.624   2.883  0.0571  0.2638 -0.4233
    2ALA      O   24   1.478   1.720   2.827 -0.2944  0.8105  0.3478
    3ASP      N   25   1.520   1.494   2.834  0.0200 -0.5424 -0.3845
    3ASP     HN   26   1.548   1.423   2.897 -1.5080 -1.7990 -1.0367
    3ASP     CA   27   1.456   1.449   2.709 -0.4169 -0.0851  0.9712
    3ASP     HA   28   1.491   1.348   2.696  1.1329  0.5882 -0.3564
    3ASP     CB   29   1.302   1.432   2.739  0.3495 -0.3214 -0.3543
    3ASP    HB1   30   1.257   1.405   2.641 -1.9389  1.3600  0.1594
    3ASP    HB2   31   1.259   1.525   2.781  1.4351 -0.0652  0.2310
    3ASP     CG   32   1.275   1.314   2.828 -0.0572 -0.3872 -0.1274
    3ASP    OD1   33   1.174   1.326   2.909  0.1355  0.2093 -0.3082
    3ASP    OD2   34   1.345   1.208   2.820 -0.4124 -0.1069  0.2830
    3ASP      C   35   1.483   1.522   2.578  0.2035 -0.0231 -0.3098
    3ASP      O   36   1.590   1.578   2.567 -0.4789 -0.1039  0.0101
    4GLY      N   37   1.392   1.525   2.481  0.2595  0.4012 -0.5383
    4GLY     HN   38   1.303   1.480   2.485  0.2946  0.1823 -1.7432
    4GLY     CA   39   1.411   1.585   2.354  0.1913 -0.1669 -0.0448
    4GLY    HA1   40   1.423   1.526   2.265 -0.6560  0.1658 -0.3812
    4GLY    HA2   41   1.502   1.642   2.366  0.0820 -0.1470  0.7413
    4GLY      C   42   1.300   1.688   2.324 -0.2413  0.0094  0.4970
    4GLY      O   43   1.223   1.715   2.418  0.5282 -0.2602  0.1865
    5PRO      N   44   1.294   1.749   2.205  0.2234 -0.2346 -0.6572
    5PRO     CD   45   1.386   1.739   2.097  0.2585 -0.1104 -0.1099
    5PRO    HD1   46   1.424   1.636   2.083  0.3429 -0.5579  2.8248
    5PRO    HD2   47   1.473   1.808   2.095 -0.3413  0.6582 -2.4305
    5PRO     CA   48   1.186   1.848   2.173  1.0510  0.1018 -0.0135
    5PRO     HA   49   1.195   1.923   2.250 -3.2419  0.5070  0.3611
    5PRO     CB   50   1.208   1.888   2.028  0.6266  0.1164 -0.5732
    5PRO    HB1   51   1.262   1.985   2.020  0.3453  0.1805 -1.9685
    5PRO    HB2   52   1.124   1.885   1.956  1.2077  1.1082 -1.3329
    5PRO     CG   53   1.303   1.782   1.977 -0.7642  0.2462 -0.4216
    5PRO    HG1   54   1.254   1.685   1.952  0.1264 -0.0525 -1.0705
    5PRO    HG2   55   1.366   1.828   1.898  0.5475  0.5644  0.7685
    5PRO      C   56   1.044   1.797   2.198 -0.6262  0.2104 -0.0704
    5PRO      O   57   1.014   1.676   2.205 -0.3326 -0.2234  0.0572
    6GLY      N   58   0.956   1.896   2.217 -0.1981 -0.4209  0.3546
    6GLY     HN   59   0.990   1.989   2.216 -1.4627  0.0872 -1.7604
    6GLY     CA   60   0.821   1.885   2.271 -0.1870 -0.1964  0.1991
    6GLY    HA1   61   0.803   1.979   2.322  1.1708  1.2225 -1.8107
    6GLY    HA2   62   0.812   1.807   2.345  0.6756 -0.0621  0.4483
    6GLY      C   63   0.715   1.856   2.156 -0.0436 -0.9280  0.0276
    6GLY      O   64   0.733   1.804   2.045 -0.1515  0.1522  0.3126
    7ASP      N   65   0.590   1.898   2.190  0.2024 -0.5192 -0.6529
    7ASP     HN   66   0.574   1.937   2.280 -3.6606 -1.2588 -0.8733
    7ASP     CA   67   0.473   1.878   2.108  0.3574 -0.1167  0.3723
    7ASP     HA   68   0.473   1.772   2.091  2.0790  0.1995 -2.1292
    7ASP     CB   69   0.344   1.930   2.186 -0.1889  0.2703 -0.1989
    7ASP    HB1   70   0.349   2.038   2.210 -0.8965  0.6120 -1.4669
    7ASP    HB2   71   0.339   1.869   2.279 -0.1019 -0.0819 -0.4219
    7ASP     CG   72   0.207   1.907   2.124 -0.2905 -0.8247 -0.2639
    7ASP    OD1   73   0.154   1.986   2.038  0.2698 -0.2355 -0.3549
    7ASP    OD2   74   0.143   1.799   2.148  0.0047 -0.3441  0.0502
    7ASP      C   75   0.471   1.944   1.969 -0.4949 -0.3176  0.2850
    7ASP      O   76   0.515   2.061   1.956 -0.4122 -0.0059  0.6693
    8PRO      N   77   0.415   1.882   1.864 -0.4709 -0.0651 -0.2426
    8PRO     CD   78   0.403   1.737   1.848  0.1708 -0.1849  0.8384
    8PRO    HD1   79   0.319   1.696   1.907  0.9164 -0.2089  1.9067
    8PRO    HD2   80   0.492   1.687   1.892  0.1160  0.9754  2.3330
    8PRO     CA   81   0.409   1.946   1.733  0.3657 -0.2066  0.6914
    8PRO     HA   82   0.506   1.989   1.716 -1.0770  2.1812 -2.5483
    8PRO     CB   83   0.360   1.839   1.632 -0.6270 -0.0806 -0.0169
    8PRO    HB1   84   0.409   1.855   1.533 -0.9434  1.8493  0.0894
    8PRO    HB2   85   0.250   1.837   1.617 -0.5246  0.4938 -0.9810
    8PRO     CG   86   0.402   1.706   1.699  0.0710 -0.3876  0.1864
    8PRO    HG1   87   0.329   1.628   1.668 -0.3636 -0.1495  0.5873
    8PRO    HG2   88   0.505   1.676   1.670 -0.2564 -1.0058 -0.3568
    8PRO      C   89   0.332   2.073   1.716  0.4221  0.4269  0.2600
    8PRO      O   90   0.365   2.151   1.627 -0.3180 -0.3343  0.7511
    9ASP      N   91   0.223   2.108   1.793 -0.4705 -0.2452  0.0955
    9ASP     HN   92   0.195   2.045   1.866  0.8536 -0.0329  0.8143
    9ASP     CA   93   0.153   2.225   1.761  0.0931 -0.8657  0.9032
    9ASP     HA   94   0.157   2.256   1.658  2.6648 -0.7667  0.9759
    9ASP     CB   95   0.005   2.199   1.796  0.3223 -0.7978 -0.0482
    9ASP    HB1   96  -0.048   2.296   1.787  0.9485 -0.3260  1.1248
    9ASP    HB2   97  -0.010   2.180   1.905  0.6100 -1.3352 -0.0986
    9ASP     CG   98  -0.059   2.090   1.720 -0.3064  0.1352  0.0688
    9ASP    OD1   99  -0.178   2.065   1.759  0.1212 -0.1246 -0.1544
    9ASP    OD2  100  -0.003   2.018   1.631 -0.5237 -0.0666  0.1384
    9ASP      C  101   0.199   2.349   1.840 -0.8523 -0.7612 -0.4333
    9ASP      O  102   0.139   2.453   1.827  0.5495 -0.2698 -0.4590
   10ALA      N  103   0.298   2.330   1.935 -0.3064 -0.2716  0.5635
   10ALA     HN  104   0.342   2.242   1.953 -1.0713 -0.8226 -0.1943
   10ALA     CA  105   0.370   2.438   2.011  0.1462  0.6748 -0.0299
   10ALA     HA  106   0.304   2.484   2.082 -0.7707 -0.2729 -0.2357
   10ALA     CB  107   0.478   2.375   2.100 -0.5433 -0.0805 -0.0574
   10ALA    HB1  108   0.528   2.447   2.169 -1.4038  2.1535 -1.6535
   10ALA    HB2  109   0.544   2.307   2.043  0.9756  0.8767  0.4975
   10ALA    HB3  110   0.414   2.311   2.165 -0.9216  0.9455  0.6155
   10ALA      C  111   0.439   2.547   1.926  0.1664  0.5271  0.8165
   10ALA      O  112   0.470   2.527   1.809  0.1814 -0.5533  0.1624
   11GLY      N  113   0.471   2.665   1.983 -0.8389 -0.4132 -0.5050
   11GLY     HN  114   0.441   2.676   2.077  2.2574  1.0109  0.4484
   11GLY     CA  115   0.519   2.787   1.912 -0.2415  0.0864 -0.2947
   11GLY    HA1  116   0.456   2.868   1.947 -1.8268 -1.3464  0.3350
   11GLY    HA2  117   0.517   2.763   1.807  0.1831  2.0930 -0.8071
   11GLY      C  118   0.663   2.811   1.955  0.1482  0.0115 -0.1689
   11GLY    OT1  119   0.706   2.915   2.008 -0.6239 -0.4921  0.5076
   11GLY    OT2  120   0.742   2.713   1.942  0.3434  0.2435 -0.0794
   12LIT    LIT  121   3.457   2.110   0.261  0.0998  1.3376 -0.2157
   13LIT    LIT  122   6.119   4.863   2.222  0.5855  0.8365 -0.7568
   14LIT    LIT  123   2.619   1.314   2.606  0.3792  0.2347  0.3440
   15LIT    LIT  124   4.242   2.063   2.816  0.7731 -0.0278 -0.3721
   16LIT    LIT  125   4.665   0.612   1.689  0.0569  0.1592 -0.4196
   17LIT    LIT  126   4.695   3.455   0.108  0.7240 -1.0026  0.0278
   18LIT    LIT  127   3.552   4.759   0.734  0.5647 -0.5041 -0.5015
   19LIT    LIT  128   6.043   1.939   1.727  0.0713 -0.9776  0.9649
   20LIT    LIT  129   0.526   0.170   3.200  0.1167  0.0104  0.0692
   21LIT    LIT  130   4.367   5.030   2.550 -0.3870 -1.0852 -0.1248
   22LIT    LIT  131   4.097   0.223   4.840 -0.5440  0.0604 -0.2019
   23LIT    LIT  132   0.008   1.863   2.003  0.1404 -0.1785  0.0637
   24LIT    LIT  133   3.064   4.587   4.162 -0.2693 -0.1334  0.3270
   25LIT    LIT  134   6.157   4.343   1.084  0.5559  0.5501  0.2136
   26LIT    LIT  135   3.349   3.277   4.808 -0.9536 -0.8280 -0.6813
   27LIT    LIT  136   0.244   0.834   1.677 -0.0351 -0.1911  0.1809
   28LIT    LIT  137   1.929   2.380   3.081  0.3887 -1.2378  0.2404
   29LIT    LIT  138   5.685   2.564   3.085  1.0029 -0.6418 -1.4680
   30LIT    LIT  139   3.284   1.907   1.755  0.6349 -0.5400 -0.9619
   31LIT    LIT  140   5.021   1.037   0.778  0.3284  0.6818 -0.8557
   32LIT    LIT  141   3.533   3.630   0.839  0.4009  0.4444  0.4351
   33LIT    LIT  142   3.102   1.733   4.961  0.3862  0.4205  0.5577
   34CLA    CLA  143   4.529   1.387   1.505 -0.0579  0.3982 -0.4114
   35CLA    CLA  144   5.814   4.323   3.532  0.0511 -0.4775 -0.4640
   36CLA    CLA  145   3.823   1.308   2.713 -0.0493 -0.1560 -0.1829
   37CLA    CLA  146   1.458   5.128   0.326 -0.5021 -0.0123 -0.1464
   38CLA    CLA  147   3.673   3.375   1.385  0.1804 -0.4063 -0.3123
   39CLA    CLA  148   5.636   2.654   4.050  0.1573 -0.2317 -0.2430
   40CLA    CLA  149   5.226   5.748   2.511  0.3291 -0.1641  0.0254
   41CLA    CLA  150   4.831   3.733   1.909 -0.3676  0.4050 -0.0797
   42CLA    CLA  151   6.244   5.123   3.084  0.2492 -0.0345  0.1664
   43CLA    CLA  152   2.295   4.706   1.118  0.5453 -0.0631 -0.5568
   44CLA    CLA  153   5.400   0.108   3.923  0.2672  0.0912  0.0905
   45CLA    CLA  154   2.704   1.128   2.170  0.2075  0.1763 -0.1632
   46CLA    CLA  155   1.601   2.309   3.731 -0.0366 -0.1012 -0.4330
   47CLA    CLA  156   0.012   4.887   1.854 -0.5694 -0.2158  0.2894
   48CLA    CLA  157   2.052   5.528   1.276 -0.2994 -0.0908 -0.3388
   49CLA    CLA  158   1.073   5.482   0.650  0.2804  0.3110  0.2112
   50CLA    CLA  159   6.014   4.280   0.660  0.1002 -0.0325  0.6626
   51CLA    CLA  160   4.196   4.618   4.415  0.1222 -0.2475  0.5125
   52TIP3   OH2  161   3.029   0.985   3.802  0.1221 -0.2684 -0.0062
   52TIP3    H1  162   2.991   1.030   3.726  0.3641 -0.1734 -0.0725
   52TIP3    H2  163   2.958   0.930   3.836 -0.8476  1.7071  1.3312
   53TIP3   OH2  164   0.870   4.604   4.574 -0.0403  0.3330 -0.5756
   53TIP3    H1  165   0.914   4.523   4.600 -2.3983 -0.4296  1.3468
   53TIP3    H2  166   0.812   4.577   4.502  0.1862  0.6340 -0.8740
   54TIP3   OH2  167   2.181   2.405   3.619  0.1156 -0.4989  0.2574
   54TIP3    H1  168   2.230   2.372   3.544  2.3318  1.2410  0.7952
   54TIP3    H2  169   2.248   2.443   3.676 -1.6116 -0.6928  2.5567
   55TIP3   OH2  170   4.632   0.422   4.757  0.3706  0.4349  0.4131
   55TIP3    H1  171   4.547   0.389   4.728 -0.0351  0.1442  1.8457
   55TIP3    H2  172   4.619   0.516   4.770  0.7591  0.7007 -1.0092
   56TIP3   OH2  173   4.589   3.733   4.765  0.0434  0.0057 -0.5698
   56TIP3    H1  174   4.672   3.767   4.800 -0.7678  2.5047 -0.8892
   56TIP3    H2  175   4.586   3.766   4.676 -1.1355 -0.3965 -0.6884
   57TIP3   OH2  176   0.074   0.795   2.363  0.2013  0.2541  0.0404
   57TIP3    H1  177   0.100   0.877   2.404 -0.8735  1.7577 -2.0831
   57TIP3    H2  178  -0.013   0.777   2.398  0.0461  0.5389 -0.1973
   58TIP3   OH2  179   5.874   0.188   0.662  0.6420 -0.0557 -0.5113
   58TIP3    H1  180   5.945   0.243   0.630  1.2017  0.5058  1.5883
   58TIP3    H2  181   5.917   0.112   0.700  0.3096  0.9774  2.1388
   59TIP3   OH2  182   3.956   0.160   4.450 -0.0563 -0.2431  0.0998
   59TIP3    H1  183   3.964   0.127   4.360  0.7619  0.4311 -0.0862
   59TIP3    H2  184   3.890   0.104   4.490  1.3154 -2.1764 -0.1781
   60TIP3   OH2  185   1.257   3.246   0.394  0.2765  0.1505  0.0394
   60TIP3    H1  186   1.277   3.251   0.487 -1.0674 -0.6043  0.4033
   60TIP3    H2  187   1.318   3.180   0.360  2.1745  1.8942 -0.0745
   61TIP3   OH2  188   5.025   0.687   3.847  0.0615 -0.3492 -0.1615
   61TIP3    H1  189   5.052   0.759   3.791  2.1031 -0.9922 -0.1086
   61TIP3    H2  190   5.055   0.608   3.801  1.2783 -0.9292  1.5033
   62TIP3   OH2  191   2.610   2.848   0.618  0.2119  0.1803  0.0257
   62TIP3    H1  192   2.613   2.909   0.692  1.0125  1.5485 -1.0815
   62TIP3    H2  193   2.583   2.902   0.543  1.9396 -0.5520 -1.2055
   63TIP3   OH2  194   3.547   0.490   1.731  0.0405  0.1881 -0.6865
   63TIP3    H1  195   3.459   0.453   1.743 -0.1938  0.6200 -1.0353
   63TIP3    H2  196   3.606   0.424   1.766 -0.3518 -0.7151 -1.6667
   64TIP3   OH2  197   0.617   3.175   2.969  0.0424 -0.3513  0.1436
   64TIP3    H1  198   0.571   3.211   2.893 -1.1012  0.3769  1.1604
   64TIP3    H2  199   0.568   3.096   2.991 -0.5958  0.2986  1.0867
   65TIP3   OH2  200   3.019   0.451   1.740  0.2420 -0.2487  0.3702
   65TIP3    H1  201   2.926   0.435   1.725  0.5018 -2.3023  0.6398
   65TIP3    H2  202   3.060   0.434   1.655  0.3540  0.9963  0.1612
   66TIP3   OH2  203   5.865   5.053   1.870 -0.1110 -0.1031 -0.7830
   66TIP3    H1  204   5.780   5.023   1.901  1.3778 -2.1966  1.6632
   66TIP3    H2  205   5.866   5.147   1.892 -1.4444 -0.2372 -0.0296
   67TIP3   OH2  206   6.198   0.168   2.974 -0.2686  0.0238 -0.2779
   67TIP3    H1  207   6.207   0.245   2.918 -0.7741 -1.0222 -1.8948
   67TIP3    H2  208   6.122   0.121   2.938 -0.6553 -0.6744  1.3512
   68TIP3   OH2  209   5.002   0.566   1.372 -0.4187 -0.2002 -0.1948
   68TIP3    H1  210   4.962   0.533   1.292 -1.6663 -0.3109  0.4393
   68TIP3    H2  211   5.096   0.550   1.361 -0.6625 -1.0250 -1.2542
   69TIP3   OH2  212   0.210   0.663   2.169  0.2419 -0.2100 -0.1962
   69TIP3    H1  213   0.292   0.713   2.167 -0.4400  0.9848  0.4183
   69TIP3    H2  214   0.168   0.690   2.250 -0.5339 -1.2073 -0.2495
   70TIP3   OH2  215   2.099   4.425   3.767  0.6738 -0.1221 -0.4697
   70TIP3    H1  216   2.027   4.453   3.822  1.9848  1.6456  0.4479
   70TIP3    H2  217   2.057   4.388   3.689 -1.2097 -2.2383  1.4270
   71TIP3   OH2  218   1.715   4.823   2.373  0.3227  0.2312 -0.4523
   71TIP3    H1  219   1.784   4.788   2.429  0.5910 -0.8560 -1.4321
   71TIP3    H2  220   1.710   4.762   2.299 -1.0402  0.8051 -0.8719
   72TIP3   OH2  221   3.171   4.236   4.427 -0.1825  0.6229 -0.5850
   72TIP3    H1  222   3.255   4.196   4.406 -0.2301 -0.0597  0.4368
   72TIP3    H2  223   3.108   4.165   4.419 -0.4494  0.7800  0.0419
   73TIP3   OH2  224   4.956   5.223   1.114  0.3176  0.2199  0.0642
   73TIP3    H1  225   4.924   5.310   1.140  3.5488  1.5893 -0.0995
   73TIP3    H2  226   4.989   5.185   1.196  1.4894  0.3795 -0.3185
   74TIP3   OH2  227   2.118   2.614   2.039 -0.4988  0.1786 -0.0717
   74TIP3    H1  228   2.125   2.677   1.967 -0.2019 -0.3556 -0.5157
   74TIP3    H2  229   2.027   2.587   2.040 -0.6958  0.8166  0.3043
   75TIP3   OH2  230   0.170   5.589   1.835  0.3632  0.0301 -0.0097
   75TIP3    H1  231   0.096   5.642   1.804 -0.1222  0.3863  1.6318
   75TIP3    H2  232   0.129   5.507   1.864  0.7411 -0.1226  0.0885
   76TIP3   OH2  233   3.894   3.223   2.314 -0.3083  0.3401  0.5181
   76TIP3    H1  234   3.902   3.228   2.410 -0.8126  0.7484  0.5457
   76TIP3    H2  235   3.800   3.221   2.299 -0.2646  1.6141 -0.0254
   77TIP3   OH2  236   5.580   0.951   4.456  0.4107 -0.3082  0.2932
   77TIP3    H1  237   5.587   0.948   4.360  2.3061 -3.1409  0.3936
   77TIP3    H2  238   5.532   0.871   4.479 -1.6199  1.2292  1.6917
   78TIP3   OH2  239   1.549   2.821   2.054  0.0249  0.2393  0.3395
   78TIP3    H1  240   1.524   2.880   2.125 -0.8812  0.6678 -0.3145
   78TIP3    H2  241   1.466   2.796   2.014  0.5723  1.1036 -1.4230
   79TIP3   OH2  242   0.195   1.586   2.985 -0.1992 -0.1296  0.1869
   79TIP3    H1  243   0.161   1.546   3.065 -0.1673  0.2645  0.4013
   79TIP3    H2  244   0.123   1.641   2.953 -0.1353 -0.1177  0.0610
   80TIP3   OH2  245   5.584   2.440   3.220 -0.7465  0.5228  0.5561
   80TIP3    H1  246   5.530   2.361   3.231  2.0273 -1.4628  0.9648
   80TIP3    H2  247   5.557   2.497   3.293 -2.9249  0.1100  0.1536
   81TIP3   OH2  248   2.402   0.513   1.515  0.9566 -0.2739 -0.6981
   81TIP3    H1  249   2.394   0.544   1.424 -0.9264 -2.0612 -1.2143
   81TIP3    H2  250   2.473   0.449   1.512  1.3632  0.1725 -0.7480
   82TIP3   OH2  251   1.782   4.080   4.559  0.3632  0.3635  0.2746
   82TIP3    H1  252   1.818   4.122   4.637 -1.0227  3.2878 -0.4910
   82TIP3    H2  253   1.855   4.077   4.497  0.8995  0.1542  0.9160
   83TIP3   OH2  254   5.873   1.461   0.564  0.1274 -0.4319  0.3361
   83TIP3    H1  255   5.877   1.378   0.516 -3.0538 -0.7311  0.3306
   83TIP3    H2  256   5.933   1.449   0.638  2.6556 -1.1854 -1.7133
   84TIP3   OH2  257   6.207   4.343   4.652 -0.2230  0.0023 -0.1736
   84TIP3    H1  258   6.254   4.275   4.604 -0.5463 -0.3414 -0.0060
   84TIP3    H2  259   6.186   4.409   4.586  1.2091  0.5550 -0.0958
   85TIP3   OH2  260   0.633   5.737   2.947 -0.0497  0.1134  0.5366
   85TIP3    H1  261   0.705   5.786   2.907 -1.2398  0.8536 -0.7694
   85TIP3    H2  262   0.611   5.788   3.026 -1.4294  1.9218 -0.9320
   86TIP3   OH2  263   1.918   1.890   0.536  0.4516 -0.0552 -0.1993
   86TIP3    H1  264   1.823   1.879   0.539  0.4090  0.4125  0.3584
   86TIP3    H2  265   1.951   1.808   0.498 -0.0204 -1.0781  1.4932
   87TIP3   OH2  266   5.639   4.727   1.734 -0.1204  0.1676 -0.3718
   87TIP3    H1  267   5.616   4.817   1.712 -2.9791 -0.3887 -0.0357
   87TIP3    H2  268   5.676   4.690   1.654  5.0716  2.6066  0.4814
   88TIP3   OH2  269   2.052   5.029   0.422  0.2081 -0.2818 -0.1611
   88TIP3    H1  270   2.094   5.068   0.499  1.4083 -2.8648  0.6219
   88TIP3    H2  271   1.959   5.028   0.443  0.1566  1.7870 -0.1123
   89TIP3   OH2  272   2.364   2.104   1.077 -0.2354  0.1693 -0.2567
   89TIP3    H1  273   2.394   2.022   1.117 -0.9488 -1.0133 -2.0472
   89TIP3    H2  274   2.282   2.123   1.122 -1.8252 -1.9702 -2.0541
   90TIP3   OH2  275   4.531   1.939   3.890 -0.1505  0.2568  0.5557
   90TIP3    H1  276   4.437   1.922   3.880  0.0973 -0.8398 -0.0915
   90TIP3    H2  277   4.562   1.955   3.800  0.3857  0.0011  0.6929
   91TIP3   OH2  278   2.821   1.434   2.087 -0.7003 -0.1875  0.2015
   91TIP3    H1  279   2.809   1.346   2.121  0.3874  0.3015  1.9451
   91TIP3    H2  280   2.768   1.489   2.144 -1.4234  0.3175 -0.9093
   92TIP3   OH2  281   3.953   5.109   3.499  0.3171 -0.4217  0.4935
   92TIP3    H1  282   3.879   5.168   3.513 -0.3587 -1.7231  3.0582
   92TIP3    H2  283   3.915   5.033   3.454  0.3565 -0.4960  0.5830
   93TIP3   OH2  284   0.015   4.849   1.162  0.0031 -0.3917 -0.4495
   93TIP3    H1  285  -0.048   4.813   1.224 -1.1393  0.3575 -1.1354
   93TIP3    H2  286   0.066   4.774   1.134  0.0736 -0.8541  0.8595
   94TIP3   OH2  287   6.017   3.598   2.770 -0.6008 -0.4253 -0.2895
   94TIP3    H1  288   6.086   3.642   2.819 -0.3331  1.1060 -1.9167
   94TIP3    H2  289   5.940   3.603   2.826  0.2903 -1.0380  1.0265
   95TIP3   OH2  290   4.988   0.107   3.362  0.1166  0.3566  0.0763
   95TIP3    H1  291   4.926   0.146   3.299  1.7459  0.8845 -1.2779
   95TIP3    H2  292   5.059   0.172   3.368  0.1288  0.2091  2.3235
   96TIP3   OH2  293   0.515   0.178   1.250 -0.3318  0.3880 -0.0651
   96TIP3    H1  294   0.564   0.135   1.180  0.8994  1.4981  0.0487
   96TIP3    H2  295   0.522   0.272   1.229 -0.1204  0.7225  1.4094
   97TIP3   OH2  296   5.977   2.059   3.550  0.0941  0.2030 -0.0662
   97TIP3    H1  297   5.950   2.091   3.636 -0.8765 -1.1561  0.1722
   97TIP3    H2  298   5.900   2.071   3.495  0.9895  1.8895 -1.0159
   98TIP3   OH2  299   4.369   0.276   0.458 -0.1849 -0.7092  0.0278
   98TIP3    H1  300   4.308   0.298   0.529  0.2812 -1.0811  0.5544
   98TIP3    H2  301   4.415   0.358   0.440 -0.4769 -0.5520 -0.0249
   99TIP3   OH2  302   0.885   0.332   2.909 -0.3795 -0.5406 -0.0299
   99TIP3    H1  303   0.836   0.253   2.930 -0.0712 -0.8242 -0.3546
   99TIP3    H2  304   0.818   0.397   2.885 -0.5576 -1.4770 -2.3643
  100TIP3   OH2  305   0.892   2.501   0.862 -0.2757 -0.3705 -0.2853
  100TIP3    H1  306   0.888   2.553   0.781 -1.2901  0.7921  0.4765
  100TIP3    H2  307   0.805   2.510   0.900  1.1420  2.2254  2.7999
  101TIP3   OH2  308   3.605   3.879   4.983  0.2280  0.4319 -0.1312
  101TIP3    H1  309   3.606   3.798   5.033  0.3741  0.7067  0.3085
  101TIP3    H2  310   3.514   3.907   4.984  0.2245  0.4168 -0.0593
  102TIP3   OH2  311   4.501   2.404   4.935  0.5231 -0.2734 -0.1570
  102TIP3    H1  312   4.524   2.312   4.922 -1.7339 -0.7269 -1.6043
  102TIP3    H2  313   4.477   2.435   4.848 -0.2171  1.2545  0.5495
  103TIP3   OH2  314   1.268   1.838   3.746 -0.5219 -0.8000 -0.5276
  103TIP3    H1  315   1.262   1.746   3.720 -0.1281 -0.9089 -0.2259
  103TIP3    H2  316   1.202   1.848   3.815 -0.4193 -0.9026 -0.4155
  104TIP3   OH2  317   5.611   0.176   1.845 -0.4747 -0.3550  0.4795
  104TIP3    H1  318   5.530   0.127   1.861 -1.9424  0.3034 -3.7016
  104TIP3    H2  319   5.674   0.110   1.815 -1.3349 -0.3020 -1.6529
  105TIP3   OH2  320   6.238   1.644   3.091  0.3665  0.2778  0.2467
  105TIP3    H1  321   6.145   1.655   3.072  0.6744  0.5153 -1.3226
  105TIP3    H2  322   6.257   1.707   3.161 -0.7524 -0.1771  0.9758
  106TIP3   OH2  323   4.772   4.373   4.010 -0.1359 -0.2503 -0.2577
  106TIP3    H1  324   4.793   4.330   4.093  0.4098  0.4827 -0.0115
  106TIP3    H2  325   4.715   4.446   4.035  2.0518  1.5496 -0.1813
  107TIP3   OH2  326   3.233   3.067   1.480  0.4579 -0.5744  0.2582
  107TIP3    H1  327   3.227   3.163   1.479 -0.7692 -0.6378 -1.0513
  107TIP3    H2  328   3.197   3.043   1.566 -0.6512  0.0807  0.0019
  108TIP3   OH2  329   1.523   5.080   2.229 -0.2298 -0.0335  0.0032
  108TIP3    H1  330   1.614   5.079   2.258  0.2409  0.5714 -1.3722
  108TIP3    H2  331   1.513   4.997   2.182  0.1085  0.5814 -1.2063
  109TIP3   OH2  332   3.870   4.390   2.145 -0.1773  0.3746  0.1250
  109TIP3    H1  333   3.931   4.438   2.089 -1.4473  1.2447 -0.5613
  109TIP3    H2  334   3.836   4.456   2.205 -0.0723 -0.2125  0.8392
  110TIP3   OH2  335   4.347   5.358   4.790  0.6733 -0.1221 -0.0407
  110TIP3    H1  336   4.434   5.362   4.828  0.4591 -1.0331  0.5834
  110TIP3    H2  337   4.341   5.271   4.752 -0.4769 -0.6412  1.2475
  111TIP3   OH2  338   3.338   3.846   0.162 -0.1121  0.2105 -0.0183
  111TIP3    H1  339   3.265   3.854   0.223  1.4180 -0.6901  2.0714
  111TIP3    H2  340   3.310   3.780   0.099 -1.9515  1.5616 -0.6932
  112TIP3   OH2  341   0.943   5.879   5.194  0.6230  0.2946  0.3650
  112TIP3    H1  342   0.905   5.795   5.219  0.9675 -0.1328 -0.4851
  112TIP3    H2  343   0.894   5.903   5.115  2.2799 -0.4176 -0.9366
  113TIP3   OH2  344   5.979   4.292   2.957  0.4089  0.4948 -0.5986
  113TIP3    H1  345   5.980   4.335   3.043  0.7190  0.6549 -0.6808
  113TIP3    H2  346   5.927   4.351   2.902 -1.6240 -0.6274 -0.0112
  114TIP3   OH2  347   5.025   2.975   1.521  0.2384  0.5618 -0.2150
  114TIP3    H1  348   4.944   2.989   1.571 -0.3201 -1.2969 -0.5288
  114TIP3    H2  349   5.062   3.062   1.511 -1.1170  1.3203  0.9621
  115TIP3   OH2  350   5.217   4.734   4.984  0.0323 -0.3270 -0.6363
  115TIP3    H1  351   5.222   4.792   4.909 -0.7253 -0.2537 -0.6325
  115TIP3    H2  352   5.291   4.674   4.973  1.0669  0.8603 -0.4345
  116TIP3   OH2  353   1.195   5.720   4.200  0.0042  0.1275 -0.0415
  116TIP3    H1  354   1.124   5.744   4.260  0.1833 -0.3861  0.3859
  116TIP3    H2  355   1.169   5.634   4.166  0.5169 -0.1533  0.2738
  117TIP3   OH2  356   4.614   1.575   4.781 -0.2482 -0.1006  0.5344
  117TIP3    H1  357   4.590   1.600   4.870 -2.2391 -0.2431  0.0864
  117TIP3    H2  358   4.661   1.493   4.791  0.1616  0.2354  1.4946
  118TIP3   OH2  359   2.414   1.075   3.942 -0.4593 -0.3164 -0.2138
  118TIP3    H1  360   2.409   1.168   3.963  0.4591 -0.9864  4.0280
  118TIP3    H2  361   2.504   1.061   3.914 -0.2931 -0.0414  0.1694
  119TIP3   OH2  362   0.813   1.004   2.377  0.0077 -0.1953 -0.3751
  119TIP3    H1  363   0.889   1.030   2.429  0.0378  0.5556 -0.7734
  119TIP3    H2  364   0.809   1.069   2.307 -0.1062 -1.1199 -1.2422
  120TIP3   OH2  365   3.424   5.761   0.496  0.3369 -0.0033 -0.0985
  120TIP3    H1  366   3.389   5.821   0.562 -0.2311 -0.9731  0.5157
  120TIP3    H2  367   3.347   5.732   0.448  0.5895 -0.3284 -0.3068
  121TIP3   OH2  368   3.316   1.521  -0.014  0.4477  0.0832  0.0782
  121TIP3    H1  369   3.301   1.605   0.030 -2.4481 -0.6539  0.7129
  121TIP3    H2  370   3.370   1.471   0.048  0.2246  0.6462  0.7393
  122TIP3   OH2  371   0.583   1.011   3.091  0.0894  0.0807 -0.0382
  122TIP3    H1  372   0.658   0.956   3.070 -0.1134  0.2786 -1.3244
  122TIP3    H2  373   0.527   1.007   3.013 -0.7767  0.7035  0.5285
  123TIP3   OH2  374   5.365   3.226   4.990  0.2383  0.0737 -0.0401
  123TIP3    H1  375   5.273   3.224   5.016  0.0051  1.4504 -0.6343
  123TIP3    H2  376   5.366   3.280   4.910  1.6430  0.7803  0.4145
  124TIP3   OH2  377   5.790   5.092   0.114 -0.4258 -0.1393  0.1549
  124TIP3    H1  378   5.795   5.030   0.188 -0.3999 -1.4084 -0.8706
  124TIP3    H2  379   5.846   5.053   0.047 -2.4477 -0.3684 -1.4920
  125TIP3   OH2  380   0.354   0.575   3.658 -0.1250 -1.0490  0.1124
  125TIP3    H1  381   0.412   0.645   3.687  0.0422  0.0250 -2.4934
  125TIP3    H2  382   0.275   0.620   3.629 -1.4058 -2.2962  1.5535
  126TIP3   OH2  383   3.913   0.663   0.157 -0.4302 -0.4101 -0.2101
  126TIP3    H1  384   3.976   0.602   0.196  0.5979  0.5732 -0.2893
  126TIP3    H2  385   3.857   0.607   0.102  0.4930 -1.2850 -0.3009
  127TIP3   OH2  386   4.322   2.498   2.784 -0.3638  0.2698  0.4966
  127TIP3    H1  387   4.368   2.477   2.703 -0.7706  3.8276 -0.8064
  127TIP3    H2  388   4.391   2.501   2.851  0.5692  0.7736 -0.4547
  128TIP3   OH2  389   3.572   0.273   2.718 -0.4493  0.3004 -0.0170
  128TIP3    H1  390   3.489   0.274   2.671 -1.2614 -1.0364  1.2971
  128TIP3    H2  391   3.556   0.218   2.795  1.6559  0.0203  0.2902
  129TIP3   OH2  392   1.515   3.686   4.292 -0.6176  0.0277  0.1265
  129TIP3    H1  393   1.502   3.780   4.306  1.6698  0.0356  3.2831
  129TIP3    H2  394   1.601   3.680   4.249 -0.6451 -0.6463  0.1635
  130TIP3   OH2  395   5.965   6.002   3.338 -0.0966 -0.2398  0.1133
  130TIP3    H1  396   5.949   5.908   3.346 -0.7612 -0.1257  0.1792
  130TIP3    H2  397   5.889   6.043   3.381  1.6304  0.3213  2.8726
  131TIP3   OH2  398   3.637   1.662   1.905  0.4796  0.0998 -0.2349
  131TIP3    H1  399   3.567   1.656   1.969  0.4122  2.1104 -0.0612
  131TIP3    H2  400   3.611   1.604   1.834 -0.8110 -0.0184  0.3234
  132TIP3   OH2  401   0.346   5.568   0.720 -0.7223  0.1307  0.5773
  132TIP3    H1  402   0.421   5.627   0.728  0.0125 -0.4144 -1.4822
  132TIP3    H2  403   0.383   5.480   0.733 -0.9599 -0.1421 -0.4990
  133TIP3   OH2  404   2.729   4.793   1.094 -0.3484  0.3763 -0.2479
  133TIP3    H1  405   2.789   4.861   1.124 -0.2829  0.7869 -1.2522
  133TIP3    H2  406   2.652   4.803   1.149 -0.1702  0.9942 -0.0973
  134TIP3   OH2  407   3.379   3.009   3.764  0.3024  0.6784 -0.1639
  134TIP3    H1  408   3.432   2.989   3.687  2.2947  0.3135  1.2311
  134TIP3    H2  409   3.353   2.924   3.798  1.4988  0.7075  0.9016
  135TIP3   OH2  410   1.795   2.576   0.120 -0.4401  0.3307  0.4214
  135TIP3    H1  411   1.828   2.584   0.210 -0.7751 -0.0942  0.5864
  135TIP3    H2  412   1.738   2.651   0.109  1.2719  1.5951 -0.1819
  136TIP3   OH2  413   3.940   3.890   0.350  0.2394 -0.3611 -0.1781
  136TIP3    H1  414   4.018   3.835   0.342  1.1240  0.7939  0.2912
  136TIP3    H2  415   3.970   3.978   0.328 -0.9005  0.1270  0.1488
  137TIP3   OH2  416   2.199   2.839   3.186  0.2055  0.1746 -0.1994
  137TIP3    H1  417   2.146   2.811   3.112 -2.0039  0.0939  1.3354
  137TIP3    H2  418   2.139   2.839   3.260  2.2074  0.7558  1.5138
  138TIP3   OH2  419   1.043   4.184   2.848  0.3283 -0.1600 -0.0779
  138TIP3    H1  420   1.049   4.092   2.822 -0.5314  0.2083 -1.7173
  138TIP3    H2  421   1.026   4.231   2.767 -0.7050  1.2878  0.9143
  139TIP3   OH2  422   0.247   4.084   3.287 -0.0140 -0.3987  0.3990
  139TIP3    H1  423   0.211   4.148   3.348  0.1616  0.8148 -0.7150
  139TIP3    H2  424   0.315   4.039   3.337  1.9576  2.3666  0.4167
  140TIP3   OH2  425   1.834   0.979   0.224 -0.1132  0.2032 -0.3396
  140TIP3    H1  426   1.808   1.027   0.145 -2.0881  0.3062  0.3309
  140TIP3    H2  427   1.782   0.899   0.222  1.8301 -1.1376 -0.5031
  141TIP3   OH2  428   4.968   3.365   1.099  0.3716  0.2746  0.3531
  141TIP3    H1  429   4.925   3.440   1.058  0.4434 -0.4320 -1.0727
  141TIP3    H2  430   4.932   3.289   1.053  0.6455 -0.5460  1.4498
  142TIP3   OH2  431   0.968   2.526   4.781 -0.0785 -0.2721 -0.3954
  142TIP3    H1  432   1.039   2.522   4.717  1.2696 -2.6110  1.0949
  142TIP3    H2  433   0.924   2.442   4.773 -0.0853 -0.4878  1.4790
  143TIP3   OH2  434   3.635   2.006   0.218  0.2628  0.2351 -0.0409
  143TIP3    H1  435   3.717   2.030   0.174  0.6755 -1.7107 -0.4385
  143TIP3    H2  436   3.661   1.988   0.308  0.0398  0.8024  0.1408
  144TIP3   OH2  437   4.615   5.843   3.584  0.1255 -0.0080  0.1843
  144TIP3    H1  438   4.530   5.887   3.578  0.9347  1.5176 -0.7162
  144TIP3    H2  439   4.666   5.897   3.644  0.2059 -1.4052  1.4188
  145TIP3   OH2  440   5.707   5.970   3.080  0.4287  0.3168 -0.1512
  145TIP3    H1  441   5.660   5.958   2.997 -0.7142  2.6551  0.0946
  145TIP3    H2  442   5.796   5.940   3.061 -0.2239 -0.7798 -1.7027
  146TIP3   OH2  443   6.006   4.356   4.859  0.0727  0.4303  0.3424
  146TIP3    H1  444   6.068   4.352   4.785  0.7143  0.5051  0.8621
  146TIP3    H2  445   5.920   4.342   4.819  0.5500 -1.1473 -0.2215
  147TIP3   OH2  446   3.973   0.602   1.401  0.3032 -0.5417  0.3031
  147TIP3    H1  447   3.900   0.616   1.341  0.9897 -1.7972 -0.8662
  147TIP3    H2  448   3.933   0.603   1.488 -1.2929 -2.2632 -0.3603
  148TIP3   OH2  449   2.673   4.560   1.762 -0.1034 -0.6555  0.1690
  148TIP3    H1  450   2.747   4.508   1.793 -0.1687 -0.5792  0.4594
  148TIP3    H2  451   2.658   4.529   1.673 -0.4794 -1.5226  0.5165
  149TIP3   OH2  452   4.205   1.562   5.110  0.9118  0.7829  0.2148
  149TIP3    H1  453   4.112   1.571   5.087  0.6910 -1.8532 -0.3228
  149TIP3    H2  454   4.218   1.622   5.183 -2.1778 -1.2256  2.7122
  150TIP3   OH2  455   0.797   1.228   2.210  0.5725 -0.2837  0.6043
  150TIP3    H1  456   0.836   1.297   2.264  0.8717 -0.6849  0.9133
  150TIP3    H2  457   0.812   1.256   2.120 -0.5415  0.7345  0.7106
  151TIP3   OH2  458   3.139   5.617   3.427 -0.5929 -0.7149  0.3410
  151TIP3    H1  459   3.089   5.698   3.429  0.6844  0.1386 -0.5814
  151TIP3    H2  460   3.184   5.615   3.512  1.5130  1.0015 -0.6539
  152TIP3   OH2  461   5.566   3.483   0.933 -0.0804 -0.5249 -0.0601
  152TIP3    H1  462   5.655   3.504   0.903 -0.6295  2.9498  0.3370
  152TIP3    H2  463   5.577   3.406   0.987  2.4091 -1.2442 -1.4260
  153TIP3   OH2  464   0.052   5.696   2.999 -0.1787 -0.1010  0.3803
  153TIP3    H1  465  -0.012   5.727   2.935  1.7827  0.0650 -1.6015
  153TIP3    H2  466  -0.002   5.663   3.071 -2.5053 -0.0247 -1.1895
  154TIP3   OH2  467   0.091   1.293   1.705 -0.4992  0.1615 -0.5251
  154TIP3    H1  468   0.156   1.261   1.642  0.4639  0.8509  0.0752
  154TIP3    H2  469   0.108   1.243   1.785 -1.0150  0.0271 -0.4978
  155TIP3   OH2  470   4.624   3.142   3.359 -0.3896 -0.3421 -0.0715
  155TIP3    H1  471   4.647   3.167   3.448  1.7071 -0.0582 -0.6379
  155TIP3    H2  472   4.602   3.049   3.365  0.5885 -0.5448  0.6313
  156TIP3   OH2  473   4.024   0.473   3.143  0.2393  0.5977  0.0290
  156TIP3    H1  474   4.066   0.469   3.057  0.1175 -1.6392  0.0348
  156TIP3    H2  475   4.093   0.451   3.205 -0.5786 -1.9377  0.1293
  157TIP3   OH2  476   4.893   0.115   0.541  0.0981 -0.0820 -0.1197
  157TIP3    H1  477   4.868   0.182   0.604 -0.8449 -1.7978  1.4510
  157TIP3    H2  478   4.817   0.057   0.537  2.0919 -3.0408  1.3887
  158TIP3   OH2  479   0.959   0.688   0.713 -0.7839  0.0214  0.5311
  158TIP3    H1  480   1.043   0.659   0.746 -0.3658  1.0756  0.4488
  158TIP3    H2  481   0.901   0.686   0.789 -0.1854  1.1055  1.0431
  159TIP3   OH2  482   3.982   2.574   5.066  0.2002  0.1345  0.3856
  159TIP3    H1  483   4.013   2.660   5.038 -1.5182  1.3876  2.1270
  159TIP3    H2  484   3.925   2.545   4.994  1.6036 -0.0609 -0.6804
  160TIP3   OH2  485   0.703   4.657   3.538  0.1795 -0.5964 -0.1332
  160TIP3    H1  486   0.749   4.714   3.477 -1.6418  0.5107 -0.5551
  160TIP3    H2  487   0.611   4.663   3.513 -0.2157 -3.0301  0.4065
  161TIP3   OH2  488   2.086   2.483   5.149 -0.2515 -0.1974  0.1284
  161TIP3    H1  489   2.021   2.550   5.169  0.9299  1.3070 -0.8563
  161TIP3    H2  490   2.116   2.453   5.235 -0.2105  1.1451  0.6064
  162TIP3   OH2  491   3.371   5.769   3.208 -0.4976 -0.1854  0.2919
  162TIP3    H1  492   3.462   5.767   3.177 -0.2440  1.4488  0.7993
  162TIP3    H2  493   3.379   5.790   3.301 -1.4023  2.5849 -0.1543
  163TIP3   OH2  494   0.593   3.141   3.765  0.6181 -0.3040  0.3899
  163TIP3    H1  495   0.648   3.143   3.687  0.8383  0.5201  0.5627
  163TIP3    H2  496   0.655   3.138   3.838  0.4569  1.1895  0.6036
  164TIP3   OH2  497   1.745   3.093   2.836  0.0522 -0.5393 -0.8292
  164TIP3    H1  498   1.698   3.166   2.875 -1.0812 -2.2597  1.2764
  164TIP3    H2  499   1.681   3.051   2.779 -0.2464 -1.4601  0.1446
  165TIP3   OH2  500   6.113   1.920   5.033 -0.1684  0.2801 -0.1894
  165TIP3    H1  501   6.067   1.945   4.953  0.9186  1.4828 -0.4697
  165TIP3    H2  502   6.180   1.858   5.004 -0.2851  0.1013 -0.0826
  166TIP3   OH2  503   3.904   2.965   4.289  0.1594  0.0173  0.3409
  166TIP3    H1  504   3.816   3.000   4.278  0.8903  1.3153 -2.4090
  166TIP3    H2  505   3.946   3.026   4.350 -0.2695  0.6205  0.0522
  167TIP3   OH2  506   4.583   3.800   2.872  0.0381 -0.1521 -0.1674
  167TIP3    H1  507   4.551   3.837   2.954 -1.8520  0.6816 -1.2164
  167TIP3    H2  508   4.597   3.876   2.815  0.2625 -0.7738 -0.9652
  168TIP3   OH2  509   1.177   5.618   4.529  0.0884  0.0387 -0.1463
  168TIP3    H1  510   1.140   5.599   4.616 -0.2266 -0.6901 -0.4270
  168TIP3    H2  511   1.258   5.664   4.548 -2.5185  5.0639  0.4788
  169TIP3   OH2  512   5.799   5.103   2.303 -0.0414  0.1606  0.0729
  169TIP3    H1  513   5.769   5.186   2.264  0.9996  0.5560  0.0733
  169TIP3    H2  514   5.763   5.035   2.246 -0.5326  0.6337 -0.1892
  170TIP3   OH2  515   0.282   5.895   0.125  0.4892  0.0556 -0.0286
  170TIP3    H1  516   0.368   5.862   0.151 -0.3033 -1.8163  0.3421
  170TIP3    H2  517   0.263   5.964   0.189  0.8255 -0.9649  1.2116
  171TIP3   OH2  518   2.815   4.318   2.577 -0.1212  0.4005  0.4342
  171TIP3    H1  519   2.830   4.237   2.529  0.3076 -0.3625  1.8262
  171TIP3    H2  520   2.727   4.345   2.550 -0.1408 -0.3293 -0.2936
  172TIP3   OH2  521   2.407   5.387   4.469  0.2944 -0.0931  0.0704
  172TIP3    H1  522   2.461   5.309   4.482  0.5664 -0.0801 -0.9165
  172TIP3    H2  523   2.365   5.373   4.384  1.1028  1.2637 -0.5784
  173TIP3   OH2  524   0.538   2.800   3.380 -0.6883 -0.1755 -0.3066
  173TIP3    H1  525   0.625   2.795   3.340  0.6219  0.8479  2.1886
  173TIP3    H2  526   0.505   2.710   3.378  1.6337 -1.1408  1.0649
  174TIP3   OH2  527   1.898   1.236   1.410 -0.5272  0.0612  0.2225
  174TIP3    H1  528   1.979   1.188   1.397 -0.2723  0.0551  1.6825
  174TIP3    H2  529   1.846   1.217   1.332  0.4940 -0.6783 -0.3025
  175TIP3   OH2  530   0.576   2.447   4.903  0.1756 -0.1509 -0.2297
  175TIP3    H1  531   0.629   2.504   4.959  0.9134 -0.4363 -0.6147
  175TIP3    H2  532   0.551   2.374   4.959 -1.5489  0.9532  0.5358
  176TIP3   OH2  533   5.980   5.049   2.957 -0.2744 -0.3226 -0.0734
  176TIP3    H1  534   5.976   4.953   2.960 -0.4209 -0.3145  0.0741
  176TIP3    H2  535   6.060   5.071   3.004 -0.3524 -0.3661  0.0823
  177TIP3   OH2  536   1.475   2.613   4.350 -0.3381  0.2968 -0.3295
  177TIP3    H1  537   1.516   2.559   4.282  0.9247  1.0102 -0.1772
  177TIP3    H2  538   1.400   2.654   4.307 -0.6941 -0.7541 -0.7348
  178TIP3   OH2  539   6.265   1.895   1.202  0.0442 -0.0334  0.3540
  178TIP3    H1  540   6.279   1.986   1.228 -0.1304 -0.0482  0.5066
  178TIP3    H2  541   6.227   1.900   1.114  1.0100  0.0045 -0.0698
  179TIP3   OH2  542   5.549   5.790   0.822 -0.8606  0.6932 -0.7388
  179TIP3    H1  543   5.634   5.832   0.813 -0.7365  0.8095  0.7365
  179TIP3    H2  544   5.553   5.715   0.763  1.0465 -0.4730  0.7552
  180TIP3   OH2  545   1.904   1.726   0.831 -0.4157 -0.1333  0.1129
  180TIP3    H1  546   1.861   1.736   0.917 -0.6015 -1.0741  0.1337
  180TIP3    H2  547   1.910   1.816   0.798 -2.0222  0.0860  0.2958
  181TIP3   OH2  548   5.955   2.053   2.137 -0.0621  0.0543 -0.4016
  181TIP3    H1  549   5.965   1.990   2.208  0.5483  0.0171 -0.5155
  181TIP3    H2  550   5.891   2.014   2.078 -2.5898  1.2235  1.3828
  182TIP3   OH2  551   0.084   1.137   1.942 -0.0812 -0.3853  0.1481
  182TIP3    H1  552   0.078   1.200   2.014  1.5864 -0.1789  0.1559
  182TIP3    H2  553   0.022   1.068   1.966 -1.1928  0.7458  0.6491
  183TIP3   OH2  554   0.914   5.184   1.444  0.7439  0.3040 -0.4487
  183TIP3    H1  555   1.001   5.153   1.472 -0.4204 -0.4952  2.6928
  183TIP3    H2  556   0.896   5.134   1.364  2.2086 -1.3121  0.1555
  184TIP3   OH2  557   1.603   1.074   0.632 -0.4327 -0.1540 -0.0586
  184TIP3    H1  558   1.521   1.084   0.680 -1.4214  1.4042 -1.9410
  184TIP3    H2  559   1.615   1.157   0.587  2.3630 -0.2303  0.3640
  185TIP3   OH2  560   5.615   1.479   3.346  0.6438  0.1364 -0.3442
  185TIP3    H1  561   5.649   1.545   3.286  1.8282  0.6843  0.8866
  185TIP3    H2  562   5.525   1.507   3.365  0.4536  0.2694 -1.3643
  186TIP3   OH2  563   6.212   4.614   1.856  0.2035 -0.5148 -0.2392
  186TIP3    H1  564   6.121   4.635   1.878 -0.0850 -0.9210 -1.0169
  186TIP3    H2  565   6.261   4.692   1.881 -0.3892 -0.1972 -0.0371
  187TIP3   OH2  566   5.137   1.898   2.377 -0.3027 -0.0262  0.0888
  187TIP3    H1  567   5.151   1.804   2.365 -1.2035 -0.0748 -0.6160
  187TIP3    H2  568   5.053   1.904   2.422  1.4728  0.2947  3.7957
  188TIP3   OH2  569   0.830   2.451   2.949 -0.6290  0.0976 -0.9917
  188TIP3    H1  570   0.800   2.378   3.004 -0.5867  0.7874 -0.0213
  188TIP3    H2  571   0.848   2.411   2.864 -2.4555 -0.6806 -1.0504
  189TIP3   OH2  572   0.140   4.598   3.027 -0.3148  0.1332 -0.1268
  189TIP3    H1  573   0.092   4.676   3.000  0.9595  1.1420  0.4181
  189TIP3    H2  574   0.194   4.575   2.952  1.3255  1.4248  0.5950
  190TIP3   OH2  575   2.558   5.806   3.324 -0.1150  0.0553 -0.4230
  190TIP3    H1  576   2.570   5.885   3.270 -1.2843  0.4870 -0.0806
  190TIP3    H2  577   2.640   5.798   3.372  1.2971 -0.7817 -2.7793
  191TIP3   OH2  578   0.758   3.249   1.078 -0.1215  0.0656  0.1773
  191TIP3    H1  579   0.702   3.305   1.132  0.1192 -1.2338  1.8455
  191TIP3    H2  580   0.830   3.223   1.136  0.6808 -0.5996 -1.0714
  192TIP3   OH2  581   4.679   1.053   1.133 -0.4268 -0.2536 -0.2618
  192TIP3    H1  582   4.593   1.082   1.163  0.2169  0.9755  0.5155
  192TIP3    H2  583   4.679   1.069   1.039 -0.4575  1.4487 -0.0087
  193TIP3   OH2  584   4.042   5.536   3.734  0.3848 -0.0411 -0.2993
  193TIP3    H1  585   4.050   5.462   3.793 -0.0982 -0.3397 -0.6069
  193TIP3    H2  586   3.950   5.538   3.709  0.3707  0.7295 -0.2045
  194TIP3   OH2  587   3.641   2.331   3.099 -0.6724 -0.3227  0.4097
  194TIP3    H1  588   3.722   2.360   3.140 -0.3450 -1.2054  0.3923
  194TIP3    H2  589   3.594   2.413   3.080  1.4182  0.4067 -2.1270
  195TIP3   OH2  590   2.080   2.753   1.232  0.0943 -0.0458 -0.0535
  195TIP3    H1  591   2.010   2.688   1.241  0.9698 -1.0257 -0.0527
  195TIP3    H2  592   2.155   2.713   1.277  0.0911  1.9089  1.8580
  196TIP3   OH2  593   5.548   4.615   2.136  0.0151  0.2198 -0.2274
  196TIP3    H1  594   5.593   4.562   2.202  0.5742  0.1647 -0.6386
  196TIP3    H2  595   5.542   4.558   2.059  1.3252  0.9834 -0.9367
  197TIP3   OH2  596   3.368   3.063   3.466 -0.0654  0.7138  0.1767
  197TIP3    H1  597   3.313   3.022   3.399 -0.4619  1.2226  0.1922
  197TIP3    H2  598   3.440   3.000   3.478 -1.3610 -0.6420  1.1793
  198TIP3   OH2  599   0.882   3.738   0.427 -0.1232 -0.1441  0.4014
  198TIP3    H1  600   0.796   3.697   0.441  0.5796 -1.7758  0.1541
  198TIP3    H2  601   0.944   3.678   0.468  0.8925  1.2569  0.9960
  199TIP3   OH2  602   0.313   0.673   1.640 -0.0129 -0.1424 -0.1907
  199TIP3    H1  603   0.370   0.625   1.700  0.5930  0.5070 -0.2376
  199TIP3    H2  604   0.309   0.617   1.562  2.0517  0.6038 -0.9098
  200TIP3   OH2  605   1.563   2.753   4.053  0.4473  0.1558 -0.0942
  200TIP3    H1  606   1.500   2.824   4.056  0.4536  0.2180 -1.1445
  200TIP3    H2  607   1.520   2.684   4.002  1.0923  0.0697 -0.5345
  201TIP3   OH2  608   0.368   5.360   1.178  0.1517 -0.5220 -0.2609
  201TIP3    H1  609   0.427   5.361   1.254  0.4402  0.0446 -0.4793
  201TIP3    H2  610   0.362   5.268   1.153  3.2507 -0.4322 -1.9584
  202TIP3   OH2  611   3.403   3.554   3.581  0.7942 -0.3351 -0.1710
  202TIP3    H1  612   3.468   3.494   3.543  0.5703 -0.2936 -0.6331
  202TIP3    H2  613   3.445   3.589   3.659  1.2774 -0.4054 -0.3983
  203TIP3   OH2  614   3.765   3.356   3.803  0.4146  0.0624 -0.3576
  203TIP3    H1  615   3.671   3.338   3.800  0.5251 -1.1012  1.5441
  203TIP3    H2  616   3.771   3.452   3.813 -0.6066  0.0650  0.3409
  204TIP3   OH2  617   1.556   5.071   3.846  0.6141 -0.4300 -0.1401
  204TIP3    H1  618   1.554   5.079   3.750 -0.9544 -0.7162 -0.1552
  204TIP3    H2  619   1.599   5.151   3.875 -0.8837  0.7574 -1.0139
  205TIP3   OH2  620   4.449   0.299   3.526  0.6876  0.0183  0.3788
  205TIP3    H1  621   4.411   0.387   3.527  0.3647 -0.0638 -1.5274
  205TIP3    H2  622   4.385   0.246   3.479  2.4620 -0.4512 -1.6173
  206TIP3   OH2  623   4.091   1.891   0.252 -0.1601  0.0212  0.0913
  206TIP3    H1  624   4.150   1.867   0.324 -1.5110 -1.4756  0.7778
  206TIP3    H2  625   4.062   1.979   0.273 -0.2618 -0.2642  1.2133
  207TIP3   OH2  626   5.744   2.646   2.210 -0.6840 -0.2407  0.4972
  207TIP3    H1  627   5.735   2.566   2.158 -1.3200  0.2631 -0.1874
  207TIP3    H2  628   5.663   2.652   2.261 -0.7953  0.1371  0.2862
  208TIP3   OH2  629   3.969   1.867   1.360  0.1098 -0.5777  0.1817
  208TIP3    H1  630   3.988   1.956   1.390 -2.7862  0.2896 -0.1826
  208TIP3    H2  631   3.952   1.818   1.441 -0.0368 -0.3024  0.3210
  209TIP3   OH2  632   3.741   0.550   1.986  0.1802  0.2655  0.2940
  209TIP3    H1  633   3.795   0.557   2.065  0.5037  0.7142  0.0313
  209TIP3    H2  634   3.673   0.616   1.998 -0.0233  0.0419  0.3911
  210TIP3   OH2  635   3.705   2.053   2.902  0.4747  0.2009  0.4514
  210TIP3    H1  636   3.654   2.048   2.983  0.0614  0.4914  0.2119
  210TIP3    H2  637   3.789   2.092   2.929  1.3819 -2.0954  1.2129
  211TIP3   OH2  638   0.282   5.378   5.124  0.1571 -0.3446 -0.1883
  211TIP3    H1  639   0.267   5.447   5.189 -1.2383 -0.0065 -0.8256
  211TIP3    H2  640   0.364   5.337   5.151  0.8195  1.3013  0.4407
  212TIP3   OH2  641   0.064   2.206   2.692 -0.0663  0.0577  0.0006
  212TIP3    H1  642   0.135   2.178   2.749 -1.9908 -2.8318  1.2524
  212TIP3    H2  643   0.094   2.185   2.604  0.3586 -1.9678  0.5773
  213TIP3   OH2  644   6.295   1.425   4.399 -0.2995 -0.3192  0.1062
  213TIP3    H1  645   6.230   1.486   4.435  0.7252  0.5755  0.4863
  213TIP3    H2  646   6.315   1.460   4.312 -1.7709 -1.7204 -0.8541
  214TIP3   OH2  647   1.820   0.913   2.481  0.3418  0.1940 -0.0252
  214TIP3    H1  648   1.906   0.887   2.449 -0.3616 -1.0571 -0.9798
  214TIP3    H2  649   1.818   1.008   2.470  1.8479  0.3356  0.6786
  215TIP3   OH2  650   3.250   1.232   0.074  0.5207 -0.0930  0.0565
  215TIP3    H1  651   3.170   1.182   0.063  0.7328 -0.4926  0.3185
  215TIP3    H2  652   3.282   1.247  -0.016 -1.0424  2.0521 -0.2164
  216TIP3   OH2  653   2.463   5.939   3.719  0.6326 -0.1812  0.6870
  216TIP3    H1  654   2.541   5.951   3.664  2.4748  0.2187  3.2266
  216TIP3    H2  655   2.441   6.027   3.748  0.3928 -0.5065  1.5025
  217TIP3   OH2  656   4.191   2.207   1.602  0.2736  0.1268 -0.4145
  217TIP3    H1  657   4.214   2.129   1.653  0.3279 -0.6565 -1.6043
  217TIP3    H2  658   4.261   2.269   1.620  0.6093 -0.3631 -0.0159
  218TIP3   OH2  659   5.182   5.471   0.865 -0.4235 -0.4113  0.4625
  218TIP3    H1  660   5.259   5.427   0.901  1.1183  1.4620 -0.3872
  218TIP3    H2  661   5.165   5.544   0.924 -1.9073 -1.0453  0.8993
  219TIP3   OH2  662   2.697   5.943   1.460 -0.1375  0.2272  0.4107
  219TIP3    H1  663   2.783   5.933   1.501  0.4894  1.5525 -0.4968
  219TIP3    H2  664   2.715   5.938   1.366 -0.9354  1.2733  0.1868
  220TIP3   OH2  665   4.849   4.115   5.065 -0.5289 -0.0904  0.0360
  220TIP3    H1  666   4.788   4.086   5.132 -1.2204 -0.8583 -0.9055
  220TIP3    H2  667   4.901   4.036   5.044  1.0719  0.6261  1.0872
  221TIP3   OH2  668   1.688   3.619   4.079  0.4114 -0.1330  0.2092
  221TIP3    H1  669   1.769   3.592   4.123 -0.0619 -3.1997 -0.5797
  221TIP3    H2  670   1.711   3.624   3.986  0.1417  1.0194  0.1872
  222TIP3   OH2  671   1.185   4.086   1.435 -0.2107 -0.2329 -0.2933
  222TIP3    H1  672   1.100   4.128   1.424 -0.5357 -1.1143 -1.2408
  222TIP3    H2  673   1.166   4.005   1.481  0.4059  0.5574  1.4544
  223TIP3   OH2  674   6.195   2.201   3.421 -0.1474  0.2093 -0.0833
  223TIP3    H1  675   6.255   2.266   3.459  1.0992 -0.0187 -1.5312
  223TIP3    H2  676   6.124   2.194   3.484  0.6761  1.5175  1.0597
  224TIP3   OH2  677   2.326   5.003   2.194  0.1311  0.0491 -0.1788
  224TIP3    H1  678   2.319   5.013   2.100  0.7789 -0.0528 -0.2442
  224TIP3    H2  679   2.279   4.922   2.214  1.5338 -0.9152 -0.6578
  225TIP3   OH2  680   3.352   2.621   4.829 -0.2062 -0.5214  0.4276
  225TIP3    H1  681   3.313   2.708   4.820 -0.1982 -0.5238  0.3719
  225TIP3    H2  682   3.387   2.601   4.742 -1.4830 -1.2038  0.0606
  226TIP3   OH2  683   0.211   3.532   4.662 -0.5775  0.3781  0.4799
  226TIP3    H1  684   0.243   3.489   4.741 -1.0479  1.8872  1.5343
  226TIP3    H2  685   0.261   3.614   4.658 -2.1906  1.3995  0.5313
  227TIP3   OH2  686   5.481   4.448   1.037  0.7380  0.2011  0.1136
  227TIP3    H1  687   5.391   4.417   1.027  0.5399  0.9976 -0.6842
  227TIP3    H2  688   5.529   4.405   0.966  0.8005  0.4670 -0.0050
  228TIP3   OH2  689   3.444   3.932   2.519  0.0306 -0.1316  0.7655
  228TIP3    H1  690   3.379   3.874   2.559 -1.5615  0.6904 -0.5576
  228TIP3    H2  691   3.444   3.909   2.426 -1.3995  2.5866 -0.0108
  229TIP3   OH2  692   4.569   1.875   3.641 -0.2643  0.0240 -0.0119
  229TIP3    H1  693   4.646   1.867   3.585 -0.6619 -0.7038 -0.4639
  229TIP3    H2  694   4.573   1.800   3.699 -0.1791  0.4508  0.5415
  230TIP3   OH2  695   5.807   0.937   1.092  0.4124 -0.5380  0.1751
  230TIP3    H1  696   5.887   0.884   1.086  0.3159 -0.6117 -0.6494
  230TIP3    H2  697   5.738   0.880   1.058  0.3757  0.2316 -1.1037
  231TIP3   OH2  698   4.633   5.519   1.501  0.1781 -0.2277 -0.0680
  231TIP3    H1  699   4.575   5.472   1.441 -1.8678  1.7561  0.2017
  231TIP3    H2  700   4.573   5.558   1.566  1.8432  1.5954  0.4758
  232TIP3   OH2  701   2.917   3.048   4.374 -0.0368  0.1445  0.7259
  232TIP3    H1  702   2.837   3.100   4.372 -0.6818 -0.7952  1.3991
  232TIP3    H2  703   2.901   2.976   4.313 -0.1737 -0.6842  1.7144
  233TIP3   OH2  704   4.721   1.348   4.922  0.3509 -0.6372 -0.4556
  233TIP3    H1  705   4.766   1.337   4.838  0.1681  1.0003 -0.7875
  233TIP3    H2  706   4.778   1.405   4.973  1.1897 -2.7618  1.1452
  234TIP3   OH2  707   4.449   1.886   4.741 -0.6420 -0.6520 -0.4619
  234TIP3    H1  708   4.421   1.796   4.763 -0.3319 -0.8981 -1.0802
  234TIP3    H2  709   4.498   1.877   4.660  0.4108 -0.0754  0.1028
  235TIP3   OH2  710   5.058   3.767   4.450 -0.3416 -0.7223  0.6480
  235TIP3    H1  711   5.079   3.683   4.409 -4.3097 -1.4511 -0.2746
  235TIP3    H2  712   5.099   3.832   4.393  1.6305 -1.9402  0.5889
  236TIP3   OH2  713   0.154   0.061   4.071  0.4337  0.4582 -0.1557
  236TIP3    H1  714   0.167   0.072   4.165  0.4653  1.1550 -0.2314
  236TIP3    H2  715   0.114  -0.025   4.061 -0.7946  0.9253  0.6053
  237TIP3   OH2  716   3.440   5.453   3.829  0.7461  0.0267  0.1059
  237TIP3    H1  717   3.475   5.452   3.740  0.1604 -0.0737 -0.1271
  237TIP3    H2  718   3.436   5.361   3.855  1.0496  0.0642  0.2912
  238TIP3   OH2  719   5.164   1.881   3.716  0.4737 -0.2908  0.8643
  238TIP3    H1  720   5.107   1.805   3.732 -0.6210  0.5131  0.9219
  238TIP3    H2  721   5.249   1.843   3.696 -0.1623 -1.5560  0.4259
  239TIP3   OH2  722   1.469   1.455   1.863  0.0776 -0.3461  0.2288
  239TIP3    H1  723   1.392   1.508   1.888  1.0973  1.1701  0.3122
  239TIP3    H2  724   1.531   1.519   1.827  0.8378 -1.7118 -0.9733
  240TIP3   OH2  725   2.172   1.539   4.140  0.4457  0.9661  0.0501
  240TIP3    H1  726   2.102   1.555   4.203  0.6607  0.1442  0.5206
  240TIP3    H2  727   2.193   1.446   4.150 -0.7727  0.3102 -2.5560
  241TIP3   OH2  728   2.829   0.507   1.433 -0.2210  0.7391 -0.4058
  241TIP3    H1  729   2.788   0.492   1.348 -1.7093  0.5017  0.3073
  241TIP3    H2  730   2.801   0.596   1.457 -2.8347 -0.4444  1.3596
  242TIP3   OH2  731   2.405   3.122   2.873  0.3077  0.3366  0.0592
  242TIP3    H1  732   2.347   3.190   2.906  1.3201  1.3459 -0.2060
  242TIP3    H2  733   2.434   3.074   2.951  1.2165  1.5269  0.4771
  243TIP3   OH2  734   4.676   4.058   0.410  0.8523  0.2210  0.6156
  243TIP3    H1  735   4.660   4.152   0.409  1.7937  0.3959 -0.9683
  243TIP3    H2  736   4.713   4.041   0.497 -0.3500  1.0940  1.3308
  244TIP3   OH2  737   2.939   1.267   1.279  0.0342  0.4784  0.3703
  244TIP3    H1  738   2.898   1.349   1.254  0.4297  0.9125  1.0943
  244TIP3    H2  739   2.943   1.270   1.375  1.5014  0.3401  0.3392
  245TIP3   OH2  740   1.323   0.695   3.397 -0.1986  0.0332 -1.0591
  245TIP3    H1  741   1.366   0.770   3.356  0.8059  0.5267  0.8227
  245TIP3    H2  742   1.250   0.732   3.446  0.0588 -0.2480 -0.4516
  246TIP3   OH2  743   1.415   2.584   3.111 -0.2191  0.5284 -0.1772
  246TIP3    H1  744   1.354   2.631   3.054 -0.0302 -0.6936 -1.4510
  246TIP3    H2  745   1.463   2.653   3.157 -0.6446  1.5577 -1.2190
  247TIP3   OH2  746   1.788   1.867   3.731  0.6248  0.3752 -0.3169
  247TIP3    H1  747   1.814   1.793   3.676  0.1410  0.6683 -0.9455
  247TIP3    H2  748   1.701   1.844   3.763  0.2884  0.8664 -0.8716
  248TIP3   OH2  749   2.576   2.535   2.391 -0.4416  0.0352  0.8515
  248TIP3    H1  750   2.642   2.505   2.328  0.1746  1.6082  0.7190
  248TIP3    H2  751   2.552   2.455   2.439  0.0487 -0.9484 -0.4672
  249TIP3   OH2  752   0.525   1.328   2.986  0.0671  0.0142  0.0544
  249TIP3    H1  753   0.579   1.251   3.003 -0.3255 -0.3877 -0.4954
  249TIP3    H2  754   0.586   1.394   2.954  0.4431  0.0171  0.7533
  250TIP3   OH2  755   3.944   5.409   2.699  0.6267  0.1781 -0.3413
  250TIP3    H1  756   3.868   5.351   2.691  1.5801 -1.0222 -0.9396
  250TIP3    H2  757   3.931   5.476   2.632 -0.8743  1.1714  0.8633
  251TIP3   OH2  758   2.103   5.802   4.878  0.5917  0.3190 -0.4191
  251TIP3    H1  759   2.034   5.739   4.898  0.5310  0.5497  0.0948
  251TIP3    H2  760   2.127   5.782   4.787 -0.8510  0.9096 -0.9606
  252TIP3   OH2  761   1.493   5.445   4.921 -0.9036  0.0172 -0.3810
  252TIP3    H1  762   1.549   5.461   4.997  1.1177  2.0146 -2.1555
  252TIP3    H2  763   1.543   5.384   4.867 -1.5375 -0.0519 -0.8935
  253TIP3   OH2  764   4.197   5.340   2.962  0.4281 -0.1544 -0.1043
  253TIP3    H1  765   4.119   5.396   2.960  0.4886 -0.0958 -2.1840
  253TIP3    H2  766   4.267   5.397   2.993 -0.1854 -0.0128  1.0748
  254TIP3   OH2  767   4.503   1.130   4.923  0.2758 -0.1484  0.7633
  254TIP3    H1  768   4.447   1.208   4.923  0.6493  0.1242  0.5515
  254TIP3    H2  769   4.592   1.165   4.933  0.4497 -0.5433  0.6002
  255TIP3   OH2  770   5.254   3.881   5.041 -0.2361  0.0666 -0.4306
  255TIP3    H1  771   5.271   3.953   5.102 -0.6786 -0.2729  0.1076
  255TIP3    H2  772   5.293   3.804   5.084  0.1122 -0.0391 -0.9342
  256TIP3   OH2  773   0.591   4.231   2.367  0.3414 -0.3858  0.2932
  256TIP3    H1  774   0.578   4.138   2.347 -0.0221 -0.1734 -0.5226
  256TIP3    H2  775   0.597   4.273   2.281 -0.0284  0.4128  0.6457
  257TIP3   OH2  776   3.313   4.343   0.498  0.2239 -0.0740 -0.0913
  257TIP3    H1  777   3.247   4.397   0.455 -0.2232 -1.0393 -0.6663
  257TIP3    H2  778   3.344   4.396   0.571 -0.0623  1.0115 -0.7444
  258TIP3   OH2  779   0.469   4.515   0.898  0.7024 -0.3613 -0.4484
  258TIP3    H1  780   0.519   4.434   0.901  1.3199 -0.0450 -1.6918
  258TIP3    H2  781   0.500   4.560   0.820 -0.7943  0.3255 -0.6837
  259TIP3   OH2  782   6.245   1.316   3.367 -0.4731 -0.2110 -0.3699
  259TIP3    H1  783   6.282   1.349   3.285 -0.8436  0.5500 -0.2417
  259TIP3    H2  784   6.158   1.285   3.344 -1.2587  1.5729  0.0167
  260TIP3   OH2  785   0.880   1.993   1.887  0.7140 -0.0622 -0.0756
  260TIP3    H1  786   0.916   1.947   1.811 -1.0784 -0.3415 -0.8067
  260TIP3    H2  787   0.815   1.933   1.923  1.6854 -0.0310  1.8635
  261TIP3   OH2  788   5.834   2.928   2.235 -0.2385  0.2353 -0.1014
  261TIP3    H1  789   5.810   2.840   2.207 -0.6856  0.4613 -0.4325
  261TIP3    H2  790   5.928   2.933   2.218 -0.5718  0.5424 -2.0748
  262TIP3   OH2  791   4.296   2.653   3.205 -0.3202  0.2016  0.0090
  262TIP3    H1  792   4.237   2.599   3.152 -0.4999 -0.3649  0.7651
  262TIP3    H2  793   4.240   2.721   3.242 -0.1592  0.7132 -0.6588
  263TIP3   OH2  794   5.098   3.225   1.279 -0.5883  0.6140  0.5951
  263TIP3    H1  795   5.046   3.293   1.237  0.3733  0.9168 -0.1438
  263TIP3    H2  796   5.074   3.230   1.372 -1.3478  1.2024  0.3775
  264TIP3   OH2  797   5.956   3.347   3.968  0.1316  0.9470 -0.2845
  264TIP3    H1  798   6.015   3.285   4.011 -0.0334  1.7465  1.1523
  264TIP3    H2  799   5.868   3.316   3.990  0.0191  2.5740  1.9186
  265TIP3   OH2  800   5.171   5.185   0.061  0.0305 -0.1081 -0.7853
  265TIP3    H1  801   5.079   5.173   0.088 -0.5388  0.0879 -2.5176
  265TIP3    H2  802   5.220   5.126   0.117 -1.1093  0.0301  0.4168
  266TIP3   OH2  803   1.010   0.706   3.219  0.0023 -0.2405  0.5193
  266TIP3    H1  804   0.962   0.781   3.253 -1.3973 -0.7266 -0.3370
  266TIP3    H2  805   1.034   0.655   3.297 -2.4724 -0.9287  0.9133
  267TIP3   OH2  806   3.071   0.488   2.983 -0.0620  0.1783 -0.5534
  267TIP3    H1  807   3.041   0.416   2.928 -0.4900  0.0845 -0.2055
  267TIP3    H2  808   2.992   0.540   2.998  0.3251  0.9675 -1.1669
  268TIP3   OH2  809   3.651   3.014   4.178 -0.0752  0.1618  0.7818
  268TIP3    H1  810   3.583   3.081   4.171  1.8832  2.3414  1.5407
  268TIP3    H2  811   3.650   2.970   4.093 -1.3258  1.2606  0.2036
  269TIP3   OH2  812   3.738   0.238   5.097 -0.5468  0.2435 -0.4133
  269TIP3    H1  813   3.738   0.229   5.192 -0.5748 -0.6950 -0.4912
  269TIP3    H2  814   3.689   0.319   5.080 -0.6674  0.3352  0.3596
  270TIP3   OH2  815   5.131   3.235   0.398 -0.2632 -0.2523 -0.3358
  270TIP3    H1  816   5.099   3.147   0.380  0.0189 -0.1600 -1.3784
  270TIP3    H2  817   5.200   3.223   0.463 -0.8489 -0.6971  0.2048
  271TIP3   OH2  818   5.099   4.367   2.662  0.3114  0.2714 -0.1184
  271TIP3    H1  819   5.008   4.380   2.689  0.0888 -0.6557 -0.3963
  271TIP3    H2  820   5.150   4.420   2.723 -0.5441  2.7903 -1.4427
  272TIP3   OH2  821   6.210   4.159   1.039 -0.2656 -0.0622  0.8440
  272TIP3    H1  822   6.255   4.089   1.085  0.8451 -2.3754 -3.2897
  272TIP3    H2  823   6.140   4.115   0.990  0.4988  1.5460 -1.9566
  273TIP3   OH2  824   5.508   3.679   4.722 -0.0907  0.1162  0.1685
  273TIP3    H1  825   5.517   3.745   4.653 -0.7698 -1.7604 -1.8405
  273TIP3    H2  826   5.425   3.701   4.765 -0.4280  0.4502 -0.6202
  274TIP3   OH2  827   1.204   4.502   2.334 -0.5758 -0.0236 -0.2046
  274TIP3    H1  828   1.245   4.459   2.409 -0.5872  1.2846  0.5703
  274TIP3    H2  829   1.122   4.537   2.368 -0.1373  1.4219 -0.5607
  275TIP3   OH2  830   1.565   4.438   1.580  0.0539  0.7541 -0.0592
  275TIP3    H1  831   1.616   4.375   1.530 -0.3536  1.1626 -1.0058
  275TIP3    H2  832   1.522   4.386   1.647  3.1814  0.6043  2.0826
  276TIP3   OH2  833   3.088   1.534   2.148  0.0256 -0.3597  0.7514
  276TIP3    H1  834   3.021   1.497   2.205  0.4911  0.4019  1.8183
  276TIP3    H2  835   3.043   1.603   2.099 -0.1375 -0.3474  0.9204
  277TIP3   OH2  836   2.207   2.704   2.433 -0.4122  0.2512  0.0083
  277TIP3    H1  837   2.194   2.681   2.341  1.9622  0.3891 -0.4292
  277TIP3    H2  838   2.235   2.795   2.431  1.2589 -0.2067  0.6805
  278TIP3   OH2  839   1.040   1.842   3.520  0.4650  0.0477  0.3081
  278TIP3    H1  840   1.097   1.901   3.569  0.9950  0.3208 -0.6100
  278TIP3    H2  841   1.097   1.804   3.453 -0.4075  0.2637 -0.5804
  279TIP3   OH2  842   2.183   2.725   2.723  0.4022  0.0450 -0.4187
  279TIP3    H1  843   2.173   2.680   2.639 -2.4723  0.5330 -0.4557
  279TIP3    H2  844   2.220   2.810   2.701 -1.6797  0.7461 -1.4624
  280TIP3   OH2  845   3.296   0.993   4.628  1.1703 -0.1353  0.1451
  280TIP3    H1  846   3.283   1.079   4.668  1.2181  1.5144 -3.0989
  280TIP3    H2  847   3.213   0.947   4.642  0.3059  1.3170 -0.0094
  281TIP3   OH2  848   4.982   0.025   4.086 -0.6480  0.4547  0.3716
  281TIP3    H1  849   5.056   0.072   4.123  1.0335 -0.7025 -1.3126
  281TIP3    H2  850   4.927   0.094   4.048  0.6628  1.2285 -0.2015
  282TIP3   OH2  851   3.927   3.373   0.903  0.7547 -0.3947 -0.0886
  282TIP3    H1  852   3.924   3.377   0.998 -0.3544  1.6328 -0.1285
  282TIP3    H2  853   3.963   3.287   0.882  2.3554 -0.3252  2.1517
  283TIP3   OH2  854   5.014   0.830   1.544  0.2424  0.4506  0.3417
  283TIP3    H1  855   5.076   0.788   1.484  0.4272 -0.5770  1.2195
  283TIP3    H2  856   4.963   0.889   1.488  1.5345  0.7960 -0.5164
  284TIP3   OH2  857   4.356   4.522   0.555  0.1656  0.3047 -0.0383
  284TIP3    H1  858   4.343   4.614   0.578 -0.9863 -0.1683  1.3758
  284TIP3    H2  859   4.420   4.490   0.619  0.8321  0.1969 -0.7489
  285TIP3   OH2  860   6.330   3.261   1.849  0.1990 -0.2056  0.1618
  285TIP3    H1  861   6.425   3.248   1.839  0.1273 -0.1531 -0.6479
  285TIP3    H2  862   6.295   3.251   1.760 -0.7639 -1.8105  0.7005
  286TIP3   OH2  863   1.986   4.926   2.816 -0.3495 -0.0806 -0.2602
  286TIP3    H1  864   1.980   4.859   2.885  0.5378 -1.1948 -1.2140
  286TIP3    H2  865   2.076   4.921   2.786 -0.0661  2.0500  0.0706
  287TIP3   OH2  866   2.364   2.310   5.000 -0.1832 -0.0925  0.7761
  287TIP3    H1  867   2.269   2.309   4.993 -0.1719 -2.6668  0.1155
  287TIP3    H2  868   2.383   2.269   5.085  0.3653  2.6450  2.0904
  288TIP3   OH2  869   3.504   3.741   3.142 -0.2188  0.0743 -0.6290
  288TIP3    H1  870   3.584   3.793   3.131  0.5737 -1.2729 -1.7091
  288TIP3    H2  871   3.469   3.733   3.053 -1.0366 -0.1412 -0.2910
  289TIP3   OH2  872   5.602   2.048   4.021  0.1494  0.1087 -0.2680
  289TIP3    H1  873   5.560   1.981   4.074 -0.0373 -0.3462 -0.9806
  289TIP3    H2  874   5.690   2.056   4.057 -0.1193  0.1383  0.3975
  290TIP3   OH2  875   4.265   2.548   3.608  0.2432 -0.3079 -0.3944
  290TIP3    H1  876   4.258   2.640   3.583  1.1971 -0.0109  0.3548
  290TIP3    H2  877   4.202   2.537   3.678 -0.6122 -0.4984 -1.1780
  291TIP3   OH2  878   4.443   0.467   3.082 -0.0230 -0.2623  0.4182
  291TIP3    H1  879   4.361   0.472   3.034 -0.0899 -2.0219  0.2598
  291TIP3    H2  880   4.428   0.517   3.162 -0.3608  1.5811 -0.7578
  292TIP3   OH2  881   3.168   2.041   1.847  0.2152 -0.0149  0.4987
  292TIP3    H1  882   3.094   2.092   1.814 -0.1808 -1.2048 -0.5644
  292TIP3    H2  883   3.130   1.985   1.914  0.0991 -0.6929 -0.1126
  293TIP3   OH2  884   5.730   1.269   2.340 -0.2748 -0.3059 -0.2080
  293TIP3    H1  885   5.674   1.317   2.402 -1.5839 -1.7335 -0.2081
  293TIP3    H2  886   5.781   1.336   2.296 -1.8456  1.0760 -0.0308
  294TIP3   OH2  887   1.296   2.435   3.302  0.4031 -0.4585 -0.1555
  294TIP3    H1  888   1.333   2.442   3.389  0.8683  1.0367 -0.4446
  294TIP3    H2  889   1.356   2.484   3.246 -0.2419 -0.8202 -1.1999
  295TIP3   OH2  890   3.133   5.639   0.670  0.2111  0.3036 -0.3233
  295TIP3    H1  891   3.104   5.698   0.602 -3.2362 -2.0667 -1.1596
  295TIP3    H2  892   3.181   5.570   0.624 -0.7395 -0.4752 -0.1745
  296TIP3   OH2  893   1.840   0.119   5.013  0.1200 -0.0749 -0.1886
  296TIP3    H1  894   1.846   0.026   5.035 -2.2126 -0.1275  0.5721
  296TIP3    H2  895   1.807   0.121   4.923  0.0994  0.0015 -0.1795
  297TIP3   OH2  896   1.646   2.266   0.293 -0.2776 -0.0636 -0.4379
  297TIP3    H1  897   1.624   2.179   0.259  0.7514  0.1930 -1.8835
  297TIP3    H2  898   1.739   2.276   0.274  0.0085  0.7240  1.2078
  298TIP3   OH2  899   3.046   5.951   0.045  0.6710 -0.5020  0.2987
  298TIP3    H1  900   3.068   5.861   0.071  0.5899 -0.4403  0.5840
  298TIP3    H2  901   2.983   5.940  -0.027  0.0805 -0.6788  0.8281
  299TIP3   OH2  902   5.656   3.589   3.130 -0.3485 -0.0880 -0.0372
  299TIP3    H1  903   5.625   3.507   3.091 -0.0965  0.2630 -1.0176
  299TIP3    H2  904   5.577   3.632   3.161 -0.6902  0.0527 -1.0412
  300TIP3   OH2  905   3.388   4.887   3.711 -0.2797  0.4370  0.1459
  300TIP3    H1  906   3.311   4.861   3.660  0.8362 -0.3279 -1.1996
  300TIP3    H2  907   3.408   4.811   3.765  0.4328  0.0681 -0.6301
  301TIP3   OH2  908   4.394   2.459   4.705  0.0924 -0.0771 -0.1455
  301TIP3    H1  909   4.371   2.411   4.626 -2.9228 -0.9205  1.1052
  301TIP3    H2  910   4.326   2.527   4.712  1.4481  1.2536  0.7184
  302TIP3   OH2  911   5.863   4.519   2.842 -0.0255 -0.3533  0.3350
  302TIP3    H1  912   5.796   4.536   2.776 -1.8574  1.0583  2.4253
  302TIP3    H2  913   5.942   4.562   2.807 -0.3089 -1.4500 -1.8477
  303TIP3   OH2  914   5.631   3.987   0.053 -0.0185 -0.1086 -0.0157
  303TIP3    H1  915   5.680   4.026  -0.019  1.0778 -0.5688  0.4523
  303TIP3    H2  916   5.643   4.049   0.125 -1.9455  0.8610 -0.4695
  304TIP3   OH2  917   2.550   4.970   3.436 -0.4895  0.0631 -0.5784
  304TIP3    H1  918   2.530   5.020   3.357  1.0749  0.3763 -0.8026
  304TIP3    H2  919   2.607   5.028   3.487  1.0720 -1.3267 -0.6772
  305TIP3   OH2  920   2.419   2.212   3.435  0.0357  0.2806 -0.1563
  305TIP3    H1  921   2.353   2.196   3.367 -1.5623  1.6441  0.9664
  305TIP3    H2  922   2.418   2.133   3.488  1.2124 -0.7481 -1.5979
  306TIP3   OH2  923   3.672   0.918   1.189  0.2602  0.3440  0.4185
  306TIP3    H1  924   3.643   0.998   1.146 -3.2940 -1.5700 -1.1901
  306TIP3    H2  925   3.695   0.859   1.117 -0.1855 -1.0658  1.3773
  307TIP3   OH2  926   5.339   1.286   1.164 -0.1962  0.0991  0.3690
  307TIP3    H1  927   5.325   1.373   1.127 -1.1818  0.2790  1.1261
  307TIP3    H2  928   5.375   1.235   1.091 -0.8332  0.7914 -0.4513
  308TIP3   OH2  929   3.529   4.815   1.767  0.0222  0.6472  0.3146
  308TIP3    H1  930   3.501   4.864   1.844 -0.0148  0.9610  0.1033
  308TIP3    H2  931   3.527   4.723   1.795  1.1626  0.8350  1.0485
  309TIP3   OH2  932   6.140   5.609   4.303 -0.0892  0.3512 -0.3615
  309TIP3    H1  933   6.095   5.525   4.310 -1.1509  1.0249  1.9200
  309TIP3    H2  934   6.222   5.597   4.349 -0.0008  0.4293 -0.4970
  310TIP3   OH2  935   2.271   4.082   1.648 -0.1842  0.6006  0.0899
  310TIP3    H1  936   2.230   4.134   1.578  0.1842 -0.1830 -0.7217
  310TIP3    H2  937   2.208   4.012   1.665 -0.9042  1.5561  1.5239
  311TIP3   OH2  938   2.032   3.523   3.606  0.1523  0.8988  0.2845
  311TIP3    H1  939   2.034   3.474   3.523  0.9368  0.2263  0.6789
  311TIP3    H2  940   2.076   3.465   3.668  1.0662  2.1081  0.7853
  312TIP3   OH2  941   4.375   0.997   1.030 -0.5279  0.0333  0.1419
  312TIP3    H1  942   4.283   0.995   1.056 -0.5935  0.3480 -0.0578
  312TIP3    H2  943   4.423   0.992   1.113 -0.7466  1.8163  0.4144
  313TIP3   OH2  944   4.196   4.340   3.744 -0.4197  0.4425 -0.3725
  313TIP3    H1  945   4.187   4.435   3.748  0.6575  0.5898 -0.9016
  313TIP3    H2  946   4.162   4.316   3.658  1.7518  0.7101 -1.3722
  314TIP3   OH2  947   5.716   5.484   1.275  0.5829 -0.2803  0.5207
  314TIP3    H1  948   5.626   5.497   1.305 -0.4332 -0.2083 -2.2677
  314TIP3    H2  949   5.722   5.390   1.258  0.4300 -0.0783 -0.8315
  315TIP3   OH2  950   6.252   3.263   1.585  0.8986  0.3331  0.0545
  315TIP3    H1  951   6.235   3.337   1.527 -1.7644 -0.5524 -0.4290
  315TIP3    H2  952   6.314   3.209   1.537  0.9871  1.0390 -0.6561
  316TIP3   OH2  953   3.389   2.160   3.718  0.0714  0.2546  0.4752
  316TIP3    H1  954   3.373   2.068   3.700 -1.1423  0.6152 -0.4362
  316TIP3    H2  955   3.471   2.180   3.674 -0.2865 -0.1084 -0.3752
  317TIP3   OH2  956   2.543   5.964   0.523  0.3588  0.2935  0.2968
  317TIP3    H1  957   2.504   6.004   0.445  1.5098 -0.1392 -0.5369
  317TIP3    H2  958   2.515   5.873   0.520  1.3485 -0.0155 -0.2973
  318TIP3   OH2  959   2.405   3.097   2.146 -0.2149  0.0552  0.0147
  318TIP3    H1  960   2.430   3.142   2.226  1.5305 -1.5310  0.4414
  318TIP3    H2  961   2.360   3.163   2.094 -0.5192  1.3842  1.8805
  319TIP3   OH2  962   0.647   2.728   1.198  0.1698  0.7373  0.1014
  319TIP3    H1  963   0.727   2.781   1.199  1.7125 -1.4518  1.5326
  319TIP3    H2  964   0.659   2.666   1.270 -1.6535 -1.3554 -1.2876
  320TIP3   OH2  965   3.868   5.871   4.775 -0.1635  0.4621 -0.2563
  320TIP3    H1  966   3.953   5.874   4.731  0.1237  0.6352  0.2918
  320TIP3    H2  967   3.891   5.864   4.868 -0.7513  0.4378 -0.1140
  321TIP3   OH2  968   4.931   5.181   4.074  0.1523 -0.2661 -0.1915
  321TIP3    H1  969   4.952   5.239   4.001  1.4364 -0.8993 -0.3572
  321TIP3    H2  970   5.017   5.158   4.111 -0.4351 -0.5847  1.0255
  322TIP3   OH2  971   2.581   4.253   1.249 -0.1470  0.8231 -0.0036
  322TIP3    H1  972   2.600   4.201   1.327 -0.9263  0.4923 -0.0249
  322TIP3    H2  973   2.491   4.281   1.261 -0.1150  1.1751 -0.5623
  323TIP3   OH2  974   0.166   0.447   0.324 -0.1673  0.3567  0.1133
  323TIP3    H1  975   0.259   0.450   0.345 -0.3950 -0.6077  1.3475
  323TIP3    H2  976   0.149   0.530   0.280  1.1690  0.7577  0.3052
  324TIP3   OH2  977   0.695   3.484   2.914  0.1591  0.2890 -0.1462
  324TIP3    H1  978   0.668   3.532   2.836 -0.0982 -0.7602 -0.7243
  324TIP3    H2  979   0.664   3.395   2.900  0.5438 -0.0411  0.9370
  325TIP3   OH2  980   0.585   0.104   1.573  0.6280 -0.1200  0.1209
  325TIP3    H1  981   0.538   0.081   1.493  0.5553  1.1870 -0.2471
  325TIP3    H2  982   0.645   0.174   1.546 -1.1436  2.1422  1.6263
  326TIP3   OH2  983   3.282   2.203   4.547 -0.7000 -0.0197 -0.0370
  326TIP3    H1  984   3.316   2.137   4.608  2.3442  2.0881  0.7455
  326TIP3    H2  985   3.243   2.270   4.603  0.6415  1.1493 -0.4552
  327TIP3   OH2  986   2.936   0.110   2.084 -0.0105  0.0448  0.1514
  327TIP3    H1  987   2.841   0.108   2.069  0.0516 -0.3083 -0.1998
  327TIP3    H2  988   2.956   0.202   2.098 -0.4250  0.1085  0.3462
  328TIP3   OH2  989   1.741   0.298   1.214 -0.1319 -0.0576 -0.0408
  328TIP3    H1  990   1.815   0.267   1.163  0.7944  0.5009  0.9209
  328TIP3    H2  991   1.674   0.231   1.203  0.8126 -0.9966 -0.2496
  329TIP3   OH2  992   2.579   1.177   0.242  0.2881  1.0319  0.1788
  329TIP3    H1  993   2.639   1.120   0.292 -0.6626 -0.2073 -0.0486
  329TIP3    H2  994   2.619   1.264   0.248  1.8215  0.3517  0.4991
  330TIP3   OH2  995   2.426   1.040   0.444  0.7709  0.3483 -0.0170
  330TIP3    H1  996   2.460   0.954   0.423  0.8846 -0.1009  1.8013
  330TIP3    H2  997   2.463   1.098   0.377  0.2891 -1.0632 -1.5582
  331TIP3   OH2  998   6.149   4.518   2.496  0.1048  0.1338  0.3572
  331TIP3    H1  999   6.162   4.482   2.408 -0.4808  1.9611 -0.5202
  331TIP3    H2 1000   6.068   4.478   2.527  0.4890 -0.7707  0.2209
  332TIP3   OH2 1001   3.461   5.168   2.162 -0.4629 -0.1454 -0.5402
  332TIP3    H1 1002   3.396   5.109   2.201 -0.6812  0.4538  0.0166
  332TIP3    H2 1003   3.420   5.254   2.165  0.0551  0.1186 -0.8990
  333TIP3   OH2 1004   5.087   5.446   4.555  0.5903  0.3277 -0.9145
  333TIP3    H1 1005   5.148   5.508   4.595  1.5642 -0.8425 -0.5297
  333TIP3    H2 1006   5.040   5.497   4.489  0.2197  1.8680  0.4763
  334TIP3   OH2 1007   4.369   3.813   2.591  0.4799  0.8647 -0.1591
  334TIP3    H1 1008   4.400   3.733   2.634 -0.1957  0.6685 -0.0349
  334TIP3    H2 1009   4.422   3.819   2.511  1.2936  0.8847  0.3731
  335TIP3   OH2 1010   1.697   2.552   3.555 -0.3979 -0.1283 -0.6279
  335TIP3    H1 1011   1.607   2.565   3.523 -0.4740 -0.4120 -0.5348
  335TIP3    H2 1012   1.690   2.477   3.614 -0.2632  0.3987  0.0744
  336TIP3   OH2 1013   4.215   4.408   3.084  0.1994  0.3021  0.3214
  336TIP3    H1 1014   4.221   4.338   3.149  0.7566 -0.7320 -0.7982
  336TIP3    H2 1015   4.305   4.425   3.058 -0.0731 -0.0858 -0.9614
  337TIP3   OH2 1016   6.262   4.656   0.804  0.4420  0.0872 -0.1351
  337TIP3    H1 1017   6.209   4.722   0.848  0.3993  0.2119 -0.3727
  337TIP3    H2 1018   6.255   4.677   0.711  4.3778  2.7999 -0.0325
  338TIP3   OH2 1019   2.766   2.103   1.769  0.0197  0.1336 -0.2538
  338TIP3    H1 1020   2.767   2.052   1.850  1.9624  1.1253  0.4093
  338TIP3    H2 1021   2.683   2.080   1.728 -0.4376 -1.3950  1.3715
  339TIP3   OH2 1022   3.363   4.647   2.723  0.4291  0.0857  0.3635
  339TIP3    H1 1023   3.285   4.700   2.705 -0.7780 -1.3314  1.1000
  339TIP3    H2 1024   3.379   4.601   2.641  0.2336  0.0917  0.3196
  340TIP3   OH2 1025   6.147   0.561   3.242  0.3568 -0.0629  0.1396
  340TIP3    H1 1026   6.184   0.638   3.285  0.3561  0.4375 -0.7225
  340TIP3    H2 1027   6.184   0.486   3.289  0.1794  0.4599  1.1374
  341TIP3   OH2 1028   0.869   0.887   3.894  0.0545 -0.4482  0.0865
  341TIP3    H1 1029   0.861   0.941   3.816 -2.5878  0.0774  0.6241
  341TIP3    H2 1030   0.841   0.800   3.866 -3.9167  0.3624  0.9335
  342TIP3   OH2 1031  -0.001   0.391   0.540 -0.3208  0.0962 -0.1589
  342TIP3    H1 1032   0.033   0.321   0.595 -1.3847 -0.8155 -0.6038
  342TIP3    H2 1033   0.066   0.404   0.472 -0.3396 -0.8576 -0.3685
  343TIP3   OH2 1034   1.297   5.408   0.235  0.2068  0.1976  0.2405
  343TIP3    H1 1035   1.327   5.321   0.261  0.8302  0.5846  0.8661
  343TIP3    H2 1036   1.205   5.410   0.261  0.2114 -0.2421  0.3033
  344TIP3   OH2 1037   3.683   2.071   4.736 -0.1854  0.0129  0.5762
  344TIP3    H1 1038   3.734   2.079   4.816  0.9661 -0.7644 -0.0505
  344TIP3    H2 1039   3.703   1.983   4.703 -3.0419 -0.9145  1.0288
  345TIP3   OH2 1040   3.530   0.375   2.183 -0.1664  0.3184  0.1427
  345TIP3    H1 1041   3.567   0.308   2.241 -0.0044  1.0097  0.8528
  345TIP3    H2 1042   3.580   0.454   2.203 -0.6945  0.7746 -0.3246
  346TIP3   OH2 1043   1.429   0.429   2.979 -0.2913  0.1622 -0.5938
  346TIP3    H1 1044   1.411   0.457   3.068  1.7898  1.9516 -0.6473
  346TIP3    H2 1045   1.459   0.339   2.987  0.9452  0.6532  0.6815
  347TIP3   OH2 1046   3.156   4.792   2.637  0.1813 -0.0461 -0.3250
  347TIP3    H1 1047   3.119   4.829   2.557  0.7247  1.6930  0.1821
  347TIP3    H2 1048   3.085   4.739   2.674  0.1238 -1.3677 -2.2240
  348TIP3   OH2 1049   5.955   5.284   3.462  0.7746  0.0001  0.0706
  348TIP3    H1 1050   5.918   5.325   3.384  1.4120 -0.0317 -0.2579
  348TIP3    H2 1051   5.882   5.278   3.524 -0.1692 -1.4899 -1.1220
  349TIP3   OH2 1052   3.198   4.208   0.118 -0.2450 -0.5862  0.2894
  349TIP3    H1 1053   3.166   4.119   0.130 -1.1369 -0.0899  2.0950
  349TIP3    H2 1054   3.232   4.210   0.029 -0.6177 -2.5909  0.0504
  350TIP3   OH2 1055   5.017   4.769   1.517 -0.3125 -0.4832  0.4537
  350TIP3    H1 1056   5.110   4.779   1.537 -0.1826 -0.8464  0.0375
  350TIP3    H2 1057   4.974   4.778   1.602  0.1202 -0.5550  0.6843
  351TIP3   OH2 1058   1.525   3.118   2.009  0.0101  0.2149  0.2104
  351TIP3    H1 1059   1.436   3.084   2.009  0.4976 -1.1940  1.4306
  351TIP3    H2 1060   1.526   3.184   2.077 -0.2412  0.6571 -0.2115
  352TIP3   OH2 1061   0.185   0.906   3.837  0.4188 -0.4450 -0.0447
  352TIP3    H1 1062   0.159   0.849   3.765  1.0733 -0.3208 -0.3990
  352TIP3    H2 1063   0.269   0.871   3.866  0.1279 -0.5313  0.7088
  353TIP3   OH2 1064   4.974   5.403   2.270  0.5446  0.7063  0.0724
  353TIP3    H1 1065   4.927   5.365   2.195  1.0554 -3.2017  1.5165
  353TIP3    H2 1066   4.906   5.431   2.330  0.0730  0.1482 -0.1935
  354TIP3   OH2 1067   1.903   1.966   1.282  0.0306 -0.5493  0.4491
  354TIP3    H1 1068   1.849   1.900   1.325 -1.7434 -0.4000 -1.3828
  354TIP3    H2 1069   1.965   1.915   1.230 -0.4670 -0.7847  0.0708
  355TIP3   OH2 1070   5.290   1.709   3.071 -0.1093 -0.6074  0.1298
  355TIP3    H1 1071   5.322   1.619   3.065  0.8438 -0.2617 -0.1759
  355TIP3    H2 1072   5.282   1.738   2.981  1.0975  0.1151  0.2267
  356TIP3   OH2 1073   2.594   0.950   1.642 -0.1696 -0.6100 -0.2769
  356TIP3    H1 1074   2.625   1.017   1.703 -0.0001 -0.6011 -0.3720
  356TIP3    H2 1075   2.583   0.872   1.696 -2.0742 -0.0718  0.2073
  357TIP3   OH2 1076   1.368   3.100   2.790  0.0464  0.3624  0.1229
  357TIP3    H1 1077   1.379   3.054   2.873  0.4742  1.1630  0.5180
  357TIP3    H2 1078   1.273   3.112   2.781  0.0243  0.6591  0.7151
  358TIP3   OH2 1079   1.156   0.516   0.799  0.5649  0.0710 -0.3370
  358TIP3    H1 1080   1.116   0.459   0.865 -0.6924  1.8517  0.4978
  358TIP3    H2 1081   1.186   0.455   0.731 -2.1945 -1.4980 -0.3100
  359TIP3   OH2 1082   4.879   2.505   0.654 -0.0113  0.0498 -0.0500
  359TIP3    H1 1083   4.879   2.520   0.749  0.8921 -0.8521  0.1165
  359TIP3    H2 1084   4.857   2.412   0.645  1.6814 -0.3379 -0.5950
  360TIP3   OH2 1085   5.244   2.866   0.616  0.0592 -0.3921  0.0214
  360TIP3    H1 1086   5.167   2.810   0.624 -0.0107 -0.6241 -1.8923
  360TIP3    H2 1087   5.237   2.926   0.690 -1.3293 -1.1429  0.5501
  361TIP3   OH2 1088   2.245   2.372   4.608 -0.1087  0.8190 -0.7135
  361TIP3    H1 1089   2.269   2.412   4.691 -0.9220  0.0869 -0.1081
  361TIP3    H2 1090   2.149   2.368   4.609 -0.1442  0.9756 -1.7678
  362TIP3   OH2 1091   2.533   0.779   0.420  0.3315 -0.3031 -0.8360
  362TIP3    H1 1092   2.460   0.771   0.358  0.1084  0.9840 -0.7715
  362TIP3    H2 1093   2.502   0.737   0.500 -0.8957  1.3888 -0.3680
  363TIP3   OH2 1094   3.861   2.893   3.359 -0.3314 -0.5478 -0.2121
  363TIP3    H1 1095   3.851   2.981   3.322 -0.1006  0.2505  1.5254
  363TIP3    H2 1096   3.876   2.908   3.453 -2.4291 -2.5083  0.5187
  364TIP3   OH2 1097   2.291   0.496   1.784  0.8744  0.8256 -0.3744
  364TIP3    H1 1098   2.332   0.527   1.704  0.9612  0.2252 -0.5657
  364TIP3    H2 1099   2.362   0.496   1.849  0.7677  1.4622 -0.2514
  365TIP3   OH2 1100   4.043   2.420   2.761  0.2505 -0.5471 -0.0508
  365TIP3    H1 1101   4.128   2.463   2.771  0.4623 -0.8448 -0.5443
  365TIP3    H2 1102   4.065   2.328   2.744 -0.0567 -0.1777 -2.9279
  366TIP3   OH2 1103   5.431   3.003   5.167 -0.3401 -0.3872 -0.4226
  366TIP3    H1 1104   5.414   3.077   5.108  2.2561  0.0964 -0.7050
  366TIP3    H2 1105   5.447   3.044   5.253  2.0225 -0.4290 -0.7684
  367TIP3   OH2 1106   0.277   2.856   0.879 -0.4633  0.1994  0.7877
  367TIP3    H1 1107   0.321   2.785   0.834  1.0512  1.4367  0.2093
  367TIP3    H2 1108   0.224   2.899   0.811  0.2586  0.8586  0.6271
  368TIP3   OH2 1109   3.134   3.555   4.890  0.6173 -0.5309  0.8943
  368TIP3    H1 1110   3.219   3.584   4.921  0.6967 -0.8100  0.9452
  368TIP3    H2 1111   3.138   3.566   4.795 -0.2736  2.0324  1.0836
  369TIP3   OH2 1112   6.017   2.534   3.765 -0.1987  0.3103 -0.4579
  369TIP3    H1 1113   5.983   2.570   3.683 -0.1774  0.0972 -0.5617
  369TIP3    H2 1114   5.968   2.579   3.834 -0.2674  0.4370 -0.5887
  370TIP3   OH2 1115   4.557   3.352   4.979 -0.1810  0.8144  0.1045
  370TIP3    H1 1116   4.501   3.412   5.029 -0.4327 -0.1407  1.0041
  370TIP3    H2 1117   4.591   3.291   5.045  0.6570  0.4124 -0.6823
  371TIP3   OH2 1118   1.107   2.112   2.606  0.6525 -0.3802 -0.5460
  371TIP3    H1 1119   1.042   2.052   2.642  1.3040 -0.1304  1.1001
  371TIP3    H2 1120   1.175   2.055   2.570  0.2190 -0.6252 -0.9973
  372TIP3   OH2 1121   0.212   3.424   1.519 -0.1582  0.4938  0.1220
  372TIP3    H1 1122   0.210   3.373   1.600  1.0184 -0.7025 -0.5675
  372TIP3    H2 1123   0.187   3.512   1.546 -1.3707 -0.2198  1.5038
  373TIP3   OH2 1124   0.408   2.377   0.767  0.1862 -0.0595 -0.3162
  373TIP3    H1 1125   0.314   2.362   0.777 -0.1358  2.1010  0.4963
  373TIP3    H2 1126   0.428   2.345   0.679 -0.5293 -3.6734  0.6802
  374TIP3   OH2 1127   3.416   0.079   0.906  0.1468 -0.3935  0.1186
  374TIP3    H1 1128   3.451   0.111   0.989 -1.1722 -2.3002  1.4981
  374TIP3    H2 1129   3.475   0.009   0.880 -1.7332 -2.8025  1.8376
  375TIP3   OH2 1130   6.213   1.909   3.557  0.0693 -0.0778 -0.3725
  375TIP3    H1 1131   6.126   1.946   3.542 -0.0554  0.4642  1.4342
  375TIP3    H2 1132   6.266   1.983   3.587  0.7087 -0.7127  0.1173
  376TIP3   OH2 1133   0.102   2.658   0.261  0.2333 -0.0681  0.7070
  376TIP3    H1 1134   0.180   2.613   0.293  0.5951  0.2393  0.2705
  376TIP3    H2 1135   0.030   2.620   0.312  0.6857 -0.2175  1.2472
  377TIP3   OH2 1136   1.238   4.333   0.633 -0.1173 -0.2130  0.1541
  377TIP3    H1 1137   1.249   4.402   0.568 -0.8121 -0.6903 -0.4931
  377TIP3    H2 1138   1.261   4.252   0.587 -1.0046 -0.6023  0.3769
  378TIP3   OH2 1139   0.747   4.536   0.442 -0.0406  0.7424  0.4396
  378TIP3    H1 1140   0.747   4.501   0.353  0.1190  3.1755 -0.5928
  378TIP3    H2 1141   0.725   4.461   0.497 -0.2540 -0.8175 -1.6423
  379TIP3   OH2 1142   5.919   4.055   4.999 -0.6197  0.0037 -0.3672
  379TIP3    H1 1143   5.994   4.010   5.037 -0.6735 -1.4399 -1.8330
  379TIP3    H2 1144   5.957   4.126   4.947 -0.1640 -1.2566 -1.8095
  380TIP3   OH2 1145   2.118   3.336   0.823  0.3972  0.6169  1.0199
  380TIP3    H1 1146   2.098   3.264   0.883 -0.5979  0.8845  1.0168
  380TIP3    H2 1147   2.134   3.411   0.880  2.5025  0.1856  1.0829
  381TIP3   OH2 1148   2.907   0.956   1.317 -0.2875  0.1469 -0.0362
  381TIP3    H1 1149   2.940   1.038   1.280 -0.3327 -0.0932 -0.6131
  381TIP3    H2 1150   2.818   0.976   1.346 -0.5913  0.1013 -0.9033
  382TIP3   OH2 1151   0.490   5.119   3.713  0.5005  0.1844  0.4431
  382TIP3    H1 1152   0.523   5.149   3.797  0.4645  1.3674  0.0558
  382TIP3    H2 1153   0.491   5.024   3.719 -0.7173  0.2355  2.2452
  383TIP3   OH2 1154   5.776   5.156   1.198 -0.0109 -0.4121 -0.1729
  383TIP3    H1 1155   5.727   5.088   1.244  0.7759 -2.0821 -1.6997
  383TIP3    H2 1156   5.865   5.149   1.231 -0.5397  2.4543  2.4057
  384TIP3   OH2 1157   3.473   3.815   4.035  0.2111 -0.6131 -0.3776
  384TIP3    H1 1158   3.553   3.867   4.044  0.4325 -0.9637 -0.2786
  384TIP3    H2 1159   3.464   3.771   4.120 -1.2650  1.0628  0.4070
  385TIP3   OH2 1160   0.215   3.236   1.716 -0.5086  0.0850 -0.0574
  385TIP3    H1 1161   0.274   3.162   1.702  0.3428  0.9613 -1.2860
  385TIP3    H2 1162   0.272   3.307   1.746 -1.0643  0.7174 -0.4824
  386TIP3   OH2 1163   0.697   4.700   1.653 -0.4358 -0.0712 -0.0358
  386TIP3    H1 1164   0.685   4.763   1.581  0.2797  0.8774  0.6494
  386TIP3    H2 1165   0.662   4.617   1.618 -0.4981  0.4651 -1.3153
  387TIP3   OH2 1166   4.130   0.580   4.318  0.1707 -0.0491  0.4514
  387TIP3    H1 1167   4.121   0.595   4.412  0.8677  0.8098  0.4056
  387TIP3    H2 1168   4.185   0.502   4.311 -0.3397 -0.4390  0.7484
  388TIP3   OH2 1169   1.374   0.673   0.808 -0.3500  0.4214  0.4791
  388TIP3    H1 1170   1.386   0.601   0.745 -0.9656  0.3600  0.4275
  388TIP3    H2 1171   1.280   0.676   0.823 -0.1164 -0.3227  2.3070
  389TIP3   OH2 1172   1.319   2.785   2.714 -0.3028  0.5218 -0.0165
  389TIP3    H1 1173   1.244   2.844   2.706  0.5455  1.5818 -0.3897
  389TIP3    H2 1174   1.312   2.750   2.803 -2.6412 -1.4055 -0.8422
  390TIP3   OH2 1175   3.297   5.176   3.674  0.7065 -0.1095 -0.0722
  390TIP3    H1 1176   3.280   5.096   3.624  2.3732 -1.5752  1.5828
  390TIP3    H2 1177   3.368   5.220   3.626  0.4037 -0.0544 -0.4807
  391TIP3   OH2 1178   5.492   1.993   4.315 -0.4361 -0.1883  0.3429
  391TIP3    H1 1179   5.497   2.084   4.287 -2.0383  0.5478  2.2161
  391TIP3    H2 1180   5.579   1.975   4.352  1.3208 -0.8234 -3.5660
  392TIP3   OH2 1181   3.929   0.417   3.568 -0.0402  0.6674  0.1667
  392TIP3    H1 1182   3.859   0.354   3.553  0.4293  0.2468 -0.3378
  392TIP3    H2 1183   3.937   0.422   3.663  0.3619 -0.5591  0.2169
  393TIP3   OH2 1184   0.952   1.735   4.681  0.1430  0.0691 -0.6183
  393TIP3    H1 1185   0.911   1.654   4.712  0.5192  0.4289  0.9209
  393TIP3    H2 1186   0.961   1.724   4.586  0.6027 -1.8736 -0.3755
  394TIP3   OH2 1187   2.007   3.472   2.937  0.0166  0.4314 -0.1513
  394TIP3    H1 1188   1.997   3.516   2.852  0.0818  1.4338  0.3458
  394TIP3    H2 1189   2.098   3.488   2.961  0.3407 -0.8674 -0.4212
  395TIP3   OH2 1190   3.902   3.287   4.144  0.1649  0.4682 -0.3857
  395TIP3    H1 1191   3.967   3.260   4.209 -2.2694 -0.0274  2.0303
  395TIP3    H2 1192   3.922   3.234   4.066  1.3262 -1.2321  0.9983
  396TIP3   OH2 1193   4.048   1.642   1.072 -0.0229 -0.5407 -0.1790
  396TIP3    H1 1194   3.969   1.695   1.058  0.1667 -0.0851  0.3937
  396TIP3    H2 1195   4.105   1.665   0.999  0.5584  1.0289  0.7200
  397TIP3   OH2 1196   5.178   2.341   5.135 -0.1133 -0.8102  0.0790
  397TIP3    H1 1197   5.093   2.380   5.156  0.2701  0.5902 -0.8281
  397TIP3    H2 1198   5.214   2.315   5.220 -0.1141  1.4562  0.8514
  398TIP3   OH2 1199   5.237   3.791   4.789  0.2781 -0.2143  0.2234
  398TIP3    H1 1200   5.220   3.876   4.748 -1.6364 -0.9723 -0.6823
  398TIP3    H2 1201   5.231   3.808   4.883  0.0998  0.6993  0.0559
  399TIP3   OH2 1202   3.178   1.536   0.272 -0.0025 -0.1252  0.0441
  399TIP3    H1 1203   3.246   1.484   0.229 -1.6210 -1.5002 -0.9573
  399TIP3    H2 1204   3.126   1.473   0.321 -0.0275  1.0385  1.5953
  400TIP3   OH2 1205   1.661   2.128  -0.029  0.2363  0.0502 -0.3552
  400TIP3    H1 1206   1.618   2.072   0.036 -0.4261  1.2431  0.2688
  400TIP3    H2 1207   1.716   2.187   0.023  2.5872 -1.3113 -1.1192
  401TIP3   OH2 1208   5.956   3.113   4.679  0.0227  0.2538  0.2472
  401TIP3    H1 1209   5.922   3.199   4.704 -0.1770  0.1847  0.2146
  401TIP3    H2 1210   5.998   3.127   4.594 -0.2422  0.2639  0.1170
  402TIP3   OH2 1211   4.915   0.935   5.051 -0.1666  0.0221  0.1150
  402TIP3    H1 1212   4.920   1.008   5.113  0.6295  0.7467 -0.7793
  402TIP3    H2 1213   4.847   0.962   4.989  0.2101  0.0632 -0.2816
  403TIP3   OH2 1214   5.878   3.243   2.439 -0.7266  0.6670  0.5711
  403TIP3    H1 1215   5.928   3.161   2.443  0.9219  1.6420  0.9420
  403TIP3    H2 1216   5.933   3.307   2.485 -2.0148  1.9674  0.3769
  404TIP3   OH2 1217   5.662   0.974   4.181 -0.2601  0.2170 -0.4927
  404TIP3    H1 1218   5.705   0.920   4.115 -3.7455 -1.5524 -1.6057
  404TIP3    H2 1219   5.633   1.052   4.135  0.9884  1.0286  0.0549
  405TIP3   OH2 1220   1.218   2.742   2.955  0.1831  0.4087 -0.1704
  405TIP3    H1 1221   1.235   2.834   2.974 -0.0602  0.2716  0.7636
  405TIP3    H2 1222   1.124   2.731   2.969 -0.0626  0.3286 -1.6923
  406TIP3   OH2 1223   5.619   4.567   2.701  0.4515  0.0960  0.6211
  406TIP3    H1 1224   5.568   4.526   2.772  0.7823 -2.4734 -0.5382
  406TIP3    H2 1225   5.601   4.513   2.624 -1.2102  3.7021 -1.8322
  407TIP3   OH2 1226   6.215   0.718   0.345 -0.0050  0.5969  0.2034
  407TIP3    H1 1227   6.155   0.777   0.299 -0.6112  0.3196  0.6255
  407TIP3    H2 1228   6.193   0.631   0.310  0.1353  0.4922  0.3792
  408TIP3   OH2 1229   1.012   1.571   1.707  0.2452 -0.0243 -0.2934
  408TIP3    H1 1230   1.041   1.479   1.704  1.1183  0.1989  0.9245
  408TIP3    H2 1231   0.978   1.583   1.795  1.4535  1.1994  0.0450
  409TIP3   OH2 1232   4.499   3.627   3.272 -0.2829 -0.3231 -0.7960
  409TIP3    H1 1233   4.557   3.551   3.277 -0.0545 -0.0696  0.6957
  409TIP3    H2 1234   4.412   3.593   3.293 -0.1895 -0.1855 -0.1810
  410TIP3   OH2 1235   1.538   0.182   1.985 -0.5000 -0.4169 -0.1081
  410TIP3    H1 1236   1.584   0.234   1.920 -0.3119 -1.9591 -1.2641
  410TIP3    H2 1237   1.557   0.225   2.068 -1.1954  1.9186 -1.0808
  411TIP3   OH2 1238   5.718   3.755   5.165 -0.3011  0.4256 -0.4353
  411TIP3    H1 1239   5.684   3.776   5.078 -1.6438 -0.1101 -0.0772
  411TIP3    H2 1240   5.799   3.804   5.172 -0.7715  1.4058 -1.5394
  412TIP3   OH2 1241   2.376   5.360   2.209  0.4205 -0.1137  0.0199
  412TIP3    H1 1242   2.326   5.341   2.289  1.4902 -1.9009  0.3263
  412TIP3    H2 1243   2.325   5.318   2.139 -0.6015  1.5894 -0.3140
  413TIP3   OH2 1244   1.822   4.288   5.094  0.4113 -0.6381  0.1527
  413TIP3    H1 1245   1.809   4.380   5.071  0.6052 -0.0254  2.2843
  413TIP3    H2 1246   1.742   4.245   5.065  1.1774 -0.2819 -2.8527
  414TIP3   OH2 1247   5.886   1.201   1.464 -0.5953  0.2344  0.1886
  414TIP3    H1 1248   5.893   1.228   1.373  0.7135 -2.1322 -0.4980
  414TIP3    H2 1249   5.809   1.249   1.497 -0.5654  1.8498 -1.8418
  415TIP3   OH2 1250   5.336   2.902   4.245 -0.4807  0.2320 -0.3528
  415TIP3    H1 1251   5.266   2.892   4.310 -2.9134  0.2698 -2.7753
  415TIP3    H2 1252   5.290   2.929   4.165  2.1480 -1.2772 -2.5238
  416TIP3   OH2 1253   2.232   0.198   5.033  0.3950  0.2116  0.2429
  416TIP3    H1 1254   2.282   0.276   5.056  0.4210 -0.0294  1.0320
  416TIP3    H2 1255   2.187   0.222   4.952 -0.0784  1.2687  0.7949
  417TIP3   OH2 1256   4.298   0.361   2.453  0.2748 -0.5467 -0.0468
  417TIP3    H1 1257   4.228   0.296   2.438  0.1377 -0.2897 -0.5328
  417TIP3    H2 1258   4.251   0.443   2.470  0.4564 -0.4810  0.1409
  418TIP3   OH2 1259   4.823   2.315   3.989  0.4658  0.4936  0.1830
  418TIP3    H1 1260   4.861   2.238   4.033 -0.5813 -0.2506 -0.1508
  418TIP3    H2 1261   4.787   2.280   3.907  0.2906  1.4170 -0.1445
  419TIP3   OH2 1262   3.245   5.792   2.855  0.4244 -0.5592 -0.0955
  419TIP3    H1 1263   3.202   5.737   2.921 -1.3352 -0.8112 -1.3946
  419TIP3    H2 1264   3.278   5.730   2.790  1.6162 -0.2655  0.1929
  420TIP3   OH2 1265   0.432   0.031   3.330  0.3766 -0.3259  0.8791
  420TIP3    H1 1266   0.378  -0.020   3.270  0.5037  0.9601 -0.3786
  420TIP3    H2 1267   0.378   0.038   3.409  0.0961 -1.8146  0.8582
  421TIP3   OH2 1268   4.361   4.721   4.167 -0.3798 -0.1679  0.3753
  421TIP3    H1 1269   4.361   4.817   4.168 -2.3627 -0.1295  0.6338
  421TIP3    H2 1270   4.325   4.696   4.252 -2.8451 -1.0198 -0.8105
  422TIP3   OH2 1271   2.864   2.786   3.643  0.3219 -0.0910  0.0401
  422TIP3    H1 1272   2.836   2.847   3.575  0.3498 -0.8018 -0.6236
  422TIP3    H2 1273   2.959   2.798   3.649  0.2320  0.4520  0.4399
  423TIP3   OH2 1274   2.055   4.152   0.060  0.1790  0.1142 -0.0769
  423TIP3    H1 1275   2.107   4.072   0.054  0.8873  0.5721 -0.0787
  423TIP3    H2 1276   2.021   4.165  -0.028 -2.0202 -1.5393  0.4234
  424TIP3   OH2 1277   2.937   2.083   0.146  0.2344 -0.6077  0.0551
  424TIP3    H1 1278   3.004   2.040   0.094  0.2578 -0.3156 -0.1582
  424TIP3    H2 1279   2.902   2.013   0.202  0.4766 -0.8356 -0.0742
  425TIP3   OH2 1280   4.762   0.798   1.095 -0.5870  0.2220 -0.1670
  425TIP3    H1 1281   4.720   0.880   1.120 -0.7428  0.3411 -0.8082
  425TIP3    H2 1282   4.694   0.750   1.047 -0.5610 -0.3683  0.3720
  426TIP3   OH2 1283   4.858   5.001   2.930  0.7193  0.0481  0.3529
  426TIP3    H1 1284   4.942   5.043   2.946 -0.3303  2.6560 -0.3240
  426TIP3    H2 1285   4.793   5.068   2.953 -1.0648 -0.3198 -2.9735
  427TIP3   OH2 1286   5.722   3.754   3.505 -0.0346 -0.2770 -0.2445
  427TIP3    H1 1287   5.680   3.753   3.419 -0.7538  2.0269 -0.0037
  427TIP3    H2 1288   5.782   3.828   3.501 -0.9524  0.6377  1.5845
  428TIP3   OH2 1289   2.601   5.487   4.956 -0.6669 -0.5071  0.0246
  428TIP3    H1 1290   2.564   5.462   4.872 -2.1909  1.0274  0.1912
  428TIP3    H2 1291   2.651   5.410   4.984  0.0425 -0.9840 -2.3299
  429TIP3   OH2 1292   0.024   0.965   0.024  0.6054 -0.9050 -0.7033
  429TIP3    H1 1293   0.113   0.978   0.055  0.8993 -1.5170 -1.2824
  429TIP3    H2 1294  -0.031   0.987   0.100  1.0967  2.0993 -1.1192
  430TIP3   OH2 1295   5.107   2.415   1.489 -0.5707 -0.0672  0.4093
  430TIP3    H1 1296   5.196   2.389   1.463 -0.4684  2.1644 -1.8772
  430TIP3    H2 1297   5.111   2.422   1.585  0.7078 -3.2497  0.6918
  431TIP3   OH2 1298   5.299   4.196   4.481 -0.3930  0.2017 -0.4450
  431TIP3    H1 1299   5.257   4.256   4.541 -1.8565 -1.7008  0.5293
  431TIP3    H2 1300   5.286   4.109   4.519 -0.2100 -0.9668 -2.8179
  432TIP3   OH2 1301   4.050   0.914   1.551  0.5456 -0.0442 -0.4309
  432TIP3    H1 1302   4.032   0.820   1.560  1.6740 -0.2166  0.2105
  432TIP3    H2 1303   3.967   0.956   1.574  0.1722 -0.8646 -0.2140
  433TIP3   OH2 1304   1.804   0.585   3.103 -0.5448  0.6053  0.0581
  433TIP3    H1 1305   1.761   0.520   3.159 -1.5892  2.2409  1.2154
  433TIP3    H2 1306   1.770   0.566   3.015 -0.1751 -0.9174  0.2041
  434TIP3   OH2 1307   1.079   2.932   3.515 -0.2372  0.4054 -0.7686
  434TIP3    H1 1308   1.103   2.873   3.444  1.9624  0.6223 -0.2831
  434TIP3    H2 1309   1.116   3.017   3.488  0.4122  0.5416  0.4891
  435TIP3   OH2 1310   1.417   3.371   3.329  0.1918  0.0193  0.6891
  435TIP3    H1 1311   1.434   3.309   3.258 -0.1534  1.1385 -0.3908
  435TIP3    H2 1312   1.355   3.433   3.293  0.2852  0.8262  1.8629
  436TIP3   OH2 1313   5.990   3.207   3.462 -0.4265  0.3781  0.6190
  436TIP3    H1 1314   5.951   3.275   3.408 -0.3773  0.2737  0.4522
  436TIP3    H2 1315   6.012   3.251   3.544  1.9787  1.1886 -0.3798
  437TIP3   OH2 1316   1.959   0.920   5.003  0.6144 -0.3098  0.0144
  437TIP3    H1 1317   1.987   0.833   4.976  1.3924 -0.0685  0.0407
  437TIP3    H2 1318   1.890   0.903   5.068  0.5735 -0.9013 -0.1786
  438TIP3   OH2 1319   0.756   0.244   2.481 -0.2166  0.5464  0.7216
  438TIP3    H1 1320   0.711   0.184   2.541  0.3086 -1.4836 -0.7952
  438TIP3    H2 1321   0.848   0.218   2.487 -0.1119  0.5314 -0.6808
  439TIP3   OH2 1322   1.996   3.807   0.182  0.4654  0.1774 -0.1665
  439TIP3    H1 1323   1.915   3.781   0.137 -0.6264  2.7588  0.0941
  439TIP3    H2 1324   1.966   3.860   0.256  2.3677  1.9711 -0.5644
  440TIP3   OH2 1325   0.346   1.003   4.794  0.3926 -0.1505 -0.1888
  440TIP3    H1 1326   0.401   1.048   4.730 -0.1210 -1.0594 -1.3025
  440TIP3    H2 1327   0.257   1.009   4.758  0.0098 -0.1918  0.7240
  441TIP3   OH2 1328   2.318   5.853   3.457  0.3169  0.1696 -0.2418
  441TIP3    H1 1329   2.398   5.840   3.406 -0.0045 -1.5276 -0.3613
  441TIP3    H2 1330   2.346   5.902   3.534  1.1205  1.2076 -1.1566
  442TIP3   OH2 1331   0.090   4.000   0.883  0.2413 -0.0229 -0.1361
  442TIP3    H1 1332   0.026   3.998   0.812  0.0775  0.6731 -0.0171
  442TIP3    H2 1333   0.138   4.082   0.869  0.4072 -0.0294  0.3819
  443TIP3   OH2 1334   1.431   1.439   1.434 -0.2877 -0.3171  0.8756
  443TIP3    H1 1335   1.445   1.413   1.343 -0.0935 -0.6230  0.9882
  443TIP3    H2 1336   1.465   1.365   1.485  1.4394  0.6887  1.2380
  444TIP3   OH2 1337   5.958   0.512   2.003 -0.1517 -0.1453  0.5877
  444TIP3    H1 1338   5.894   0.441   2.013  0.5588 -1.0353 -0.8334
  444TIP3    H2 1339   5.954   0.560   2.086 -3.1194  0.2542  0.3392
  445TIP3   OH2 1340   5.215   5.635   1.504  0.3559  0.0504  0.1991
  445TIP3    H1 1341   5.237   5.567   1.440  0.5813  0.4002 -0.0998
  445TIP3    H2 1342   5.299   5.676   1.525  0.1385  0.6342 -0.0734
  446TIP3   OH2 1343   2.170   0.437   3.865 -0.0823 -0.0343  0.2182
  446TIP3    H1 1344   2.144   0.371   3.801 -2.9655  1.2144 -0.0437
  446TIP3    H2 1345   2.115   0.421   3.941  1.5587  0.0491  1.4787
  447TIP3   OH2 1346   4.639   1.989   0.847  0.5174  0.2400 -0.1222
  447TIP3    H1 1347   4.643   1.939   0.929 -0.1148  0.4537  0.0513
  447TIP3    H2 1348   4.560   2.043   0.857  1.0249  1.0538 -0.4305
  448TIP3   OH2 1349   5.402   2.231   0.310 -0.1232 -0.3423 -0.4270
  448TIP3    H1 1350   5.492   2.238   0.278  0.5305 -1.7363  0.9754
  448TIP3    H2 1351   5.387   2.312   0.358  0.7849 -0.5726  0.2647
  449TIP3   OH2 1352   3.089   2.619   4.536 -0.1986 -0.0868  0.2137
  449TIP3    H1 1353   3.021   2.552   4.530 -1.1283  0.8545 -0.0116
  449TIP3    H2 1354   3.106   2.628   4.630 -0.4374 -0.2697  0.2742
  450TIP3   OH2 1355   1.888   1.904   2.703 -0.1949 -0.2364 -0.0407
  450TIP3    H1 1356   1.797   1.920   2.677 -0.3469 -0.9572  0.0284
  450TIP3    H2 1357   1.906   1.816   2.671  0.3938 -0.2022  0.1969
  451TIP3   OH2 1358   1.475   5.528   4.261  0.1705  0.5662  0.1139
  451TIP3    H1 1359   1.411   5.485   4.318  2.0099 -1.4362  0.8316
  451TIP3    H2 1360   1.478   5.473   4.182 -0.8048  2.1108 -1.0588
  452TIP3   OH2 1361   4.340   4.294   2.350 -0.4310  0.2526  0.0504
  452TIP3    H1 1362   4.348   4.336   2.435 -0.2545 -0.9282  0.6247
  452TIP3    H2 1363   4.386   4.353   2.290  0.3146  0.5918  0.9445
  453TIP3   OH2 1364   4.204   1.052   0.023  0.6764  0.1471  0.1364
  453TIP3    H1 1365   4.205   1.098   0.107 -0.6875  1.8978 -0.7287
  453TIP3    H2 1366   4.174   1.118  -0.040  0.3358 -1.4744 -1.4927
  454TIP3   OH2 1367   4.935   5.867   1.781 -0.5507  0.4790 -0.0966
  454TIP3    H1 1368   4.933   5.889   1.688  1.2578  1.0893 -0.0366
  454TIP3    H2 1369   4.925   5.772   1.783 -0.0951  0.3977 -0.9725
  455TIP3   OH2 1370   2.514   2.067   4.856 -0.2565 -0.4192 -0.0808
  455TIP3    H1 1371   2.464   2.009   4.799 -0.9212  0.3862 -0.3347
  455TIP3    H2 1372   2.463   2.148   4.858 -0.3123 -0.4624  1.7537
  456TIP3   OH2 1373   4.767   1.136   3.998 -0.9015  0.6512 -0.0606
  456TIP3    H1 1374   4.853   1.123   3.957  0.2999 -0.0933  2.4302
  456TIP3    H2 1375   4.705   1.093   3.939  0.7338 -0.7136 -0.8809
  457TIP3   OH2 1376   3.614   2.777   2.482  0.0189  0.2184 -0.3745
  457TIP3    H1 1377   3.521   2.786   2.462  0.0555 -1.4496 -1.5895
  457TIP3    H2 1378   3.620   2.694   2.530  1.0001 -0.4011 -1.5026
  458TIP3   OH2 1379   5.610   2.438   4.677  0.0464  0.4849  0.6213
  458TIP3    H1 1380   5.587   2.452   4.769  1.5039 -3.1960  1.7439
  458TIP3    H2 1381   5.595   2.344   4.663 -0.6003  1.0013 -3.0935
  459TIP3   OH2 1382   5.809   3.280   0.417 -0.4611  0.4386 -0.4828
  459TIP3    H1 1383   5.864   3.292   0.495 -1.4353  0.7523  0.1804
  459TIP3    H2 1384   5.725   3.248   0.452 -0.9010  0.5583 -1.4077
  460TIP3   OH2 1385   5.661   4.179   1.370 -0.4804 -0.7522 -0.3772
  460TIP3    H1 1386   5.700   4.163   1.283  3.2920  3.5558  0.1538
  460TIP3    H2 1387   5.605   4.255   1.357  0.3040  0.0784  0.9210
  461TIP3   OH2 1388   1.218   5.512   3.972  0.0887  0.1450 -0.1293
  461TIP3    H1 1389   1.211   5.567   3.893 -1.1207 -1.0311 -0.8682
  461TIP3    H2 1390   1.312   5.494   3.980  0.3569  1.2509 -0.6026
  462TIP3   OH2 1391   1.664   4.957   4.082  1.0876 -0.0745  0.1023
  462TIP3    H1 1392   1.608   4.970   4.006  2.9124  0.4649 -1.2048
  462TIP3    H2 1393   1.745   5.002   4.060  2.1144 -0.9754  1.8614
  463TIP3   OH2 1394   2.062   5.140   2.253 -0.4913 -0.4541 -0.2040
  463TIP3    H1 1395   2.066   5.204   2.183 -1.4568 -0.2378 -0.0676
  463TIP3    H2 1396   2.150   5.102   2.256 -0.0142  0.6005 -0.5212
  464TIP3   OH2 1397   1.796   5.110   1.541 -0.1618  0.8075  0.2077
  464TIP3    H1 1398   1.753   5.179   1.591 -0.4854  0.8650 -0.1485
  464TIP3    H2 1399   1.745   5.103   1.460 -1.1474 -0.9558  0.9101
  465TIP3   OH2 1400   1.091   3.321   0.648  0.0967 -0.4977  0.0520
  465TIP3    H1 1401   1.171   3.319   0.701  0.3073 -1.0484 -0.2784
  465TIP3    H2 1402   1.021   3.340   0.710  0.4921  0.0736  0.3315
  466TIP3   OH2 1403   3.401   2.535   1.648  0.0362  0.2114 -0.0738
  466TIP3    H1 1404   3.430   2.521   1.557  1.7776  0.8996  0.3351
  466TIP3    H2 1405   3.310   2.562   1.639 -0.3508 -1.3648 -1.4951
  467TIP3   OH2 1406   4.642   0.676   4.824 -0.1273 -0.4681 -0.2659
  467TIP3    H1 1407   4.633   0.752   4.766 -1.5278 -2.3382 -2.6834
  467TIP3    H2 1408   4.599   0.702   4.905  1.1902  1.9840 -0.2640
  468TIP3   OH2 1409   1.761   5.984   3.451  0.8648  0.0939  0.1991
  468TIP3    H1 1410   1.727   5.920   3.513 -0.0065  0.6903  0.3483
  468TIP3    H2 1411   1.847   6.007   3.485  0.2942  0.6124  1.3425
  469TIP3   OH2 1412   6.261   5.746   1.502  0.0586 -0.0835 -0.3382
  469TIP3    H1 1413   6.328   5.796   1.548 -1.6354  1.3538  0.6581
  469TIP3    H2 1414   6.275   5.656   1.532  0.3125  0.4968  1.3852
  470TIP3   OH2 1415   4.224   2.224   1.196  0.6282 -0.6481  0.8713
  470TIP3    H1 1416   4.246   2.296   1.137 -0.9043 -1.4521 -0.7852
  470TIP3    H2 1417   4.309   2.194   1.229  1.6594 -0.6170 -1.5183
  471TIP3   OH2 1418   6.175   1.403   2.523  0.1395  0.2744 -0.9337
  471TIP3    H1 1419   6.146   1.457   2.449 -2.9847 -0.5647 -0.4829
  471TIP3    H2 1420   6.107   1.415   2.589  1.9827 -0.3085  1.1890
  472TIP3   OH2 1421   3.060   3.338   3.072 -0.1201 -0.1977 -0.1590
  472TIP3    H1 1422   3.052   3.365   3.163 -1.9509 -0.6199 -0.1686
  472TIP3    H2 1423   3.140   3.381   3.041 -0.1782  0.9909  1.2601
  473TIP3   OH2 1424   2.631   1.155   2.470  0.0976  0.5603  0.4672
  473TIP3    H1 1425   2.593   1.067   2.466  0.4233  0.4529 -0.5550
  473TIP3    H2 1426   2.677   1.165   2.386  0.3504  1.5759  0.7161
  474TIP3   OH2 1427   5.548   2.767   2.678 -0.2634 -0.0455 -0.6356
  474TIP3    H1 1428   5.557   2.832   2.748 -1.3964  1.1906 -1.5842
  474TIP3    H2 1429   5.461   2.784   2.641  0.0164 -1.1600 -1.8596
  475TIP3   OH2 1430   4.878   2.998   2.498  0.2076  0.5689 -0.3266
  475TIP3    H1 1431   4.875   2.910   2.536 -1.7107 -0.1272 -1.9014
  475TIP3    H2 1432   4.948   2.992   2.432  1.4993  0.8902  0.9710
  476TIP3   OH2 1433   2.699   2.250   0.138 -0.4896 -0.6849  0.1284
  476TIP3    H1 1434   2.663   2.288   0.058  1.1062 -0.1489 -0.3731
  476TIP3    H2 1435   2.724   2.161   0.113  0.7998 -0.2370 -0.2316
  477TIP3   OH2 1436   2.803   3.934   1.460  0.4669 -0.4670  0.5312
  477TIP3    H1 1437   2.854   3.978   1.391  0.1029 -1.0514 -0.1211
  477TIP3    H2 1438   2.814   3.990   1.537  0.7482  0.2841 -0.0414
  478TIP3   OH2 1439   1.352   5.632   4.784 -0.3448  0.2486  0.0999
  478TIP3    H1 1440   1.392   5.560   4.834  1.3810  1.9911  1.3829
  478TIP3    H2 1441   1.294   5.675   4.847 -1.5714 -0.1373 -0.7342
  479TIP3   OH2 1442   2.275   5.246   1.962  0.0508  0.2796 -0.2780
  479TIP3    H1 1443   2.194   5.245   1.911 -0.4566 -0.6864  0.5327
  479TIP3    H2 1444   2.328   5.176   1.925  1.0990  1.7087 -1.6571
  480TIP3   OH2 1445   5.934   0.759   0.805  0.0746 -0.3585 -0.3473
  480TIP3    H1 1446   5.870   0.793   0.742  1.1786  1.3695 -0.6100
  480TIP3    H2 1447   6.004   0.722   0.750  0.2157 -0.4317 -0.1179
  481TIP3   OH2 1448   0.355   5.941   2.262 -0.0423 -0.0301 -0.4502
  481TIP3    H1 1449   0.323   5.924   2.351  1.5100  1.0521  0.3433
  481TIP3    H2 1450   0.279   5.977   2.216 -0.9703 -0.9540  0.2916
  482TIP3   OH2 1451   3.341   5.902   0.794  0.4343 -0.0362 -0.1158
  482TIP3    H1 1452   3.341   5.808   0.816  4.9897 -0.1686  0.3553
  482TIP3    H2 1453   3.344   5.946   0.879  0.3594  0.4242 -0.3493
  483TIP3   OH2 1454   4.568   3.206   2.661  0.6300 -0.2728 -0.5988
  483TIP3    H1 1455   4.521   3.235   2.739  1.2592 -1.0171  0.0708
  483TIP3    H2 1456   4.509   3.227   2.588 -1.2345 -2.1220  0.2807
  484TIP3   OH2 1457   6.092   4.528   5.165 -0.1127  0.0153 -0.1631
  484TIP3    H1 1458   6.186   4.511   5.167 -0.2578 -0.9062 -0.8080
  484TIP3    H2 1459   6.083   4.613   5.209  1.2028  0.9569 -1.5852
  485TIP3   OH2 1460   1.152   0.189   2.746 -0.0806  0.8021  0.1318
  485TIP3    H1 1461   1.125   0.248   2.817 -0.0201 -0.8556  1.5932
  485TIP3    H2 1462   1.070   0.150   2.716 -0.1068  1.5144 -0.7488
  486TIP3   OH2 1463   4.208   5.448   2.540 -0.1627 -0.0043 -0.4252
  486TIP3    H1 1464   4.132   5.422   2.591  0.7290 -2.5336 -0.2751
  486TIP3    H2 1465   4.274   5.472   2.604 -0.1783  0.2227 -0.4932
  487TIP3   OH2 1466   5.545   4.934   4.416  0.0647 -0.6710  0.1378
  487TIP3    H1 1467   5.608   4.984   4.363 -0.6500 -1.2400 -1.2956
  487TIP3    H2 1468   5.566   4.958   4.506  0.6934  1.0871 -0.4355
  488TIP3   OH2 1469   3.299   0.385   1.767 -0.4643 -0.3426 -0.5617
  488TIP3    H1 1470   3.297   0.296   1.732 -1.0459 -0.3617 -0.4894
  488TIP3    H2 1471   3.207   0.412   1.768 -0.1320  0.9817 -2.4011
  489TIP3   OH2 1472   6.162   2.881   3.737  0.0384 -0.4450  0.3640
  489TIP3    H1 1473   6.094   2.947   3.733  0.3667 -0.1743 -1.5322
  489TIP3    H2 1474   6.118   2.799   3.712  0.1263 -0.5265  0.4718
  490TIP3   OH2 1475   4.474   4.192   2.007  0.1231 -0.0037 -0.5164
  490TIP3    H1 1476   4.448   4.144   2.086  1.7627 -1.7007 -0.9451
  490TIP3    H2 1477   4.429   4.147   1.936 -0.3417  0.7289 -0.6975
  491TIP3   OH2 1478   6.058   0.653   4.940 -0.0856  0.3646  0.0647
  491TIP3    H1 1479   5.998   0.652   5.015  0.1989  0.7086  0.3034
  491TIP3    H2 1480   6.004   0.681   4.866 -1.0775 -2.6997 -0.5154
  492TIP3   OH2 1481   3.155   2.996   0.540 -0.7095  0.1586  0.2035
  492TIP3    H1 1482   3.081   2.951   0.581 -0.7578 -1.5214 -1.5932
  492TIP3    H2 1483   3.232   2.960   0.582 -0.8160 -0.1668  0.1202
  493TIP3   OH2 1484   4.567   2.006   3.073  0.3135  0.3603 -0.1575
  493TIP3    H1 1485   4.603   1.930   3.027  1.1661  0.4663  0.3184
  493TIP3    H2 1486   4.561   1.978   3.164  1.1451  1.0461  0.1109
  494TIP3   OH2 1487   1.834   4.259   3.013  0.2097  0.2350 -0.9505
  494TIP3    H1 1488   1.797   4.199   3.077  0.5961 -0.6566 -1.5380
  494TIP3    H2 1489   1.855   4.204   2.937  0.2816  1.1633 -1.6296
  495TIP3   OH2 1490   2.476   3.525   2.661  0.0959 -0.1642 -0.4623
  495TIP3    H1 1491   2.519   3.551   2.580  1.8120  0.1427  0.5071
  495TIP3    H2 1492   2.497   3.433   2.672  0.7126  0.0406  0.1262
  496TIP3   OH2 1493   1.476   0.544   5.166  0.0706 -0.0644  0.3709
  496TIP3    H1 1494   1.442   0.478   5.106  0.1721 -0.6001  0.8946
  496TIP3    H2 1495   1.545   0.500   5.214  0.6543  0.6472  0.2067
  497TIP3   OH2 1496   2.109   5.605   4.219  0.2206  0.2206  0.2399
  497TIP3    H1 1497   2.081   5.559   4.298  1.2405 -3.2562 -1.2407
  497TIP3    H2 1498   2.197   5.635   4.238 -0.1465  0.8793  0.9465
  498TIP3   OH2 1499   5.922   4.883   0.720 -0.3267 -1.0849 -0.0450
  498TIP3    H1 1500   5.855   4.934   0.676  0.7176  0.5145  0.1566
  498TIP3    H2 1501   6.004   4.927   0.699  0.3749 -1.1926  2.1901
  499TIP3   OH2 1502   3.026   1.062   0.126  0.7953 -0.2625  0.3076
  499TIP3    H1 1503   3.089   1.008   0.174  0.0320 -1.6555 -0.2144
  499TIP3    H2 1504   2.948   1.007   0.119 -0.4735  1.3877  0.8550
  500TIP3   OH2 1505   3.159   2.891   2.893  0.5901  0.7757 -0.2922
  500TIP3    H1 1506   3.097   2.964   2.903 -0.9772 -0.5248 -0.2032
  500TIP3    H2 1507   3.131   2.826   2.957  1.9602  0.0637 -0.3746
  501TIP3   OH2 1508   3.988   2.417   1.367  0.2561 -0.5712  0.5284
  501TIP3    H1 1509   3.996   2.511   1.351  1.3649 -0.5907  0.8793
  501TIP3    H2 1510   4.068   2.393   1.414  0.2286 -1.7886  0.0074
  502TIP3   OH2 1511   0.295   3.702   1.190 -0.0980 -0.0798  0.2519
  502TIP3    H1 1512   0.348   3.782   1.193  0.9071 -0.5747 -1.9054
  502TIP3    H2 1513   0.345   3.642   1.135 -0.6936 -2.3454  2.0174
  503TIP3   OH2 1514   4.457   3.400   2.894 -0.3704  0.0474  0.0276
  503TIP3    H1 1515   4.427   3.490   2.899  0.6697  0.4572 -0.7743
  503TIP3    H2 1516   4.471   3.374   2.985 -0.7144  0.6841  0.2653
  504TIP3   OH2 1517   0.308   3.824   1.941  0.3235  0.1822  0.5689
  504TIP3    H1 1518   0.297   3.798   1.850 -1.4129 -0.0627  0.8084
  504TIP3    H2 1519   0.326   3.743   1.988 -1.3819 -0.1216  0.7785
  505TIP3   OH2 1520   3.771   5.456   5.044  0.2025 -0.6199  0.7089
  505TIP3    H1 1521   3.838   5.457   5.112 -0.5008 -4.3203  1.6668
  505TIP3    H2 1522   3.688   5.456   5.092 -0.3242 -2.1724 -0.1454
  506TIP3   OH2 1523   2.810   1.329   2.592  0.4120  0.0428  0.6581
  506TIP3    H1 1524   2.828   1.266   2.521  0.3817 -1.6063  2.0509
  506TIP3    H2 1525   2.897   1.361   2.618  0.3511  1.6480 -0.9203
  507TIP3   OH2 1526   3.948   3.877   3.805 -0.1044 -0.5417 -0.1312
  507TIP3    H1 1527   4.025   3.908   3.852 -0.6252  1.4623 -0.5308
  507TIP3    H2 1528   3.923   3.950   3.749 -2.9590 -0.7072  0.8039
  508TIP3   OH2 1529   3.866   3.151   3.239  0.1556  0.0761 -0.3524
  508TIP3    H1 1530   3.959   3.175   3.235  0.2205 -0.2639 -0.9710
  508TIP3    H2 1531   3.820   3.229   3.205  0.1960  0.3318  0.1706
  509TIP3   OH2 1532   3.239   4.186   1.110  0.5525  0.6035 -0.1382
  509TIP3    H1 1533   3.224   4.111   1.052 -2.5765 -1.7336  3.2092
  509TIP3    H2 1534   3.161   4.240   1.100  1.0622  1.4224  0.2045
  510TIP3   OH2 1535   1.649   4.790   1.681 -0.0557  0.0543  0.0449
  510TIP3    H1 1536   1.732   4.766   1.721 -0.0929 -0.1247  0.0130
  510TIP3    H2 1537   1.589   4.719   1.705  0.5890 -1.5014 -2.6060
  511TIP3   OH2 1538   6.241   3.022   3.412  0.0601 -0.8028 -0.2345
  511TIP3    H1 1539   6.278   3.106   3.386  0.5736 -0.8354  0.3617
  511TIP3    H2 1540   6.153   3.044   3.444  1.1416 -0.0173  2.5645
  512TIP3   OH2 1541   3.286   0.604   1.033  0.1150  0.7732  0.4162
  512TIP3    H1 1542   3.327   0.529   1.078 -0.0470  0.0330 -0.6425
  512TIP3    H2 1543   3.235   0.565   0.963 -1.6208  1.7579  1.0667
  513TIP3   OH2 1544   2.376   5.466   1.350  0.4948  0.3754 -0.1641
  513TIP3    H1 1545   2.408   5.553   1.328  0.1817  0.5418  0.0332
  513TIP3    H2 1546   2.281   5.477   1.359  0.5657  0.2478  0.9105
  514TIP3   OH2 1547   5.478   1.522   4.826 -0.4577  0.2031  0.1550
  514TIP3    H1 1548   5.567   1.488   4.832 -0.0816  1.0292 -0.4785
  514TIP3    H2 1549   5.439   1.476   4.752 -1.3145 -1.7430  1.7351
  515TIP3   OH2 1550   0.256   2.158   2.958 -0.2892 -0.2261 -0.1564
  515TIP3    H1 1551   0.285   2.140   3.048  0.1658 -2.6778 -0.7320
  515TIP3    H2 1552   0.336   2.149   2.906 -0.5043  1.4149 -0.8200
  516TIP3   OH2 1553   3.126   1.049   1.514 -0.2519 -0.0033 -0.1088
  516TIP3    H1 1554   3.209   1.011   1.484  0.3714  0.2382  1.2143
  516TIP3    H2 1555   3.060   1.011   1.457  0.2625 -3.5694  1.4012
  517TIP3   OH2 1556   0.496   0.104   3.029 -0.6414 -0.0488  0.0082
  517TIP3    H1 1557   0.441   0.131   2.955  0.0307 -0.4645 -0.6594
  517TIP3    H2 1558   0.518   0.012   3.010  1.0487  0.3728 -0.2456
  518TIP3   OH2 1559   1.137   5.921   4.903 -0.1757 -0.8492  0.1698
  518TIP3    H1 1560   1.098   5.994   4.951  0.0410 -0.8293  0.3136
  518TIP3    H2 1561   1.182   5.869   4.970 -1.5723 -1.9336  0.3026
  519TIP3   OH2 1562   1.193   4.026   4.169 -0.0869 -0.1491  0.0011
  519TIP3    H1 1563   1.285   4.051   4.179  0.2725 -1.1679 -0.6251
  519TIP3    H2 1564   1.147   4.110   4.163  0.6429  0.3994  1.4325
  520TIP3   OH2 1565   3.373   4.501   1.636  0.2588 -0.1918 -0.2165
  520TIP3    H1 1566   3.306   4.524   1.701 -1.7292 -1.0048 -1.8747
  520TIP3    H2 1567   3.392   4.583   1.591 -0.7067 -0.2106 -0.6782
  521TIP3   OH2 1568   3.679   3.463   4.097  0.7511 -0.1304  0.4002
  521TIP3    H1 1569   3.713   3.523   4.032  0.5280 -0.1344  0.2793
  521TIP3    H2 1570   3.753   3.406   4.119  1.5936  1.4692  2.0282
  522TIP3   OH2 1571   5.754   5.205   3.632  0.5465  0.0548 -0.3186
  522TIP3    H1 1572   5.730   5.123   3.590 -0.8119  0.0661  0.3928
  522TIP3    H2 1573   5.672   5.254   3.641  0.8904  0.3993  1.5552
  523TIP3   OH2 1574   2.175   1.249   3.879  0.0549  0.3193 -0.2227
  523TIP3    H1 1575   2.081   1.232   3.875 -0.0039  0.7507 -0.7386
  523TIP3    H2 1576   2.215   1.163   3.889 -0.3224  0.0107 -1.2774
  524TIP3   OH2 1577   2.299   1.206   0.897 -0.2450  0.2925  0.7824
  524TIP3    H1 1578   2.313   1.127   0.845  1.8218  0.6010  0.8136
  524TIP3    H2 1579   2.239   1.259   0.844 -0.3116 -0.5567 -0.0110
  525TIP3   OH2 1580   3.076   1.441   2.478  0.0043  0.5884  0.1727
  525TIP3    H1 1581   3.126   1.505   2.427 -0.2736  2.0433  1.6573
  525TIP3    H2 1582   3.039   1.382   2.412  2.0855  0.6027 -1.0931
  526TIP3   OH2 1583   3.461   5.631   0.146 -0.5541  0.2507 -0.0582
  526TIP3    H1 1584   3.473   5.686   0.069 -2.1576  1.4785  0.5213
  526TIP3    H2 1585   3.392   5.569   0.121  0.1573 -0.5070 -0.1846
  527TIP3   OH2 1586   2.288   5.262   3.503 -0.1214 -0.3582  0.0570
  527TIP3    H1 1587   2.348   5.328   3.470 -1.0432  0.9063  0.8288
  527TIP3    H2 1588   2.251   5.222   3.425  0.1919  0.2708 -0.4242
  528TIP3   OH2 1589   5.057   2.396   3.587  0.3320  0.7079 -0.4142
  528TIP3    H1 1590   4.995   2.420   3.656  1.7251  1.5476  0.5996
  528TIP3    H2 1591   5.105   2.321   3.623  2.0956  2.0833  0.2276
  529TIP3   OH2 1592   1.195   2.016   4.146 -0.1113 -0.9389 -0.4639
  529TIP3    H1 1593   1.170   2.106   4.127 -0.5119 -0.7995  0.6344
  529TIP3    H2 1594   1.112   1.971   4.164  0.2506 -0.8155  1.8132
  530TIP3   OH2 1595   3.741   4.398   1.826 -0.1908 -0.0702  0.1488
  530TIP3    H1 1596   3.734   4.487   1.859  0.6483  1.0064 -2.3467
  530TIP3    H2 1597   3.825   4.366   1.860 -0.1582  0.3589  0.4757
  531TIP3   OH2 1598   1.789   1.219   1.156 -0.4807  0.0379  0.4316
  531TIP3    H1 1599   1.696   1.239   1.153 -0.4795 -0.0791 -1.6390
  531TIP3    H2 1600   1.807   1.172   1.074  1.4050  0.0909  0.7572
  532TIP3   OH2 1601   0.346   4.925   5.090  0.9196  0.7278  0.8683
  532TIP3    H1 1602   0.261   4.884   5.102  1.4281 -0.1423  1.6594
  532TIP3    H2 1603   0.377   4.944   5.178  0.7241  2.8259  0.5191
  533TIP3   OH2 1604   0.834   0.633   3.801  0.3103  0.4238  0.4825
  533TIP3    H1 1605   0.767   0.574   3.834  0.0388 -0.9348 -2.2372
  533TIP3    H2 1606   0.912   0.578   3.793  1.4664  1.6744  2.4118
  534TIP3   OH2 1607   3.720   0.801   3.125 -0.4524  0.1480  0.0106
  534TIP3    H1 1608   3.654   0.808   3.194 -0.1116 -0.6831  0.4368
  534TIP3    H2 1609   3.800   0.776   3.171  0.1991  1.2269 -0.4901
  535TIP3   OH2 1610   0.509   0.097   2.086  0.8048 -0.3921 -0.2126
  535TIP3    H1 1611   0.514   0.100   1.991  2.0098 -1.7295 -0.2185
  535TIP3    H2 1612   0.500   0.005   2.107  0.8571 -0.1419  0.9842
  536TIP3   OH2 1613   0.939   1.673   4.423 -0.3936 -1.3612  0.0355
  536TIP3    H1 1614   0.859   1.711   4.387  0.0956 -1.7822 -1.5582
  536TIP3    H2 1615   0.946   1.587   4.381  1.0106 -1.2363 -0.0380
  537TIP3   OH2 1616   3.756   2.166   0.692 -0.2295 -0.0148  0.3296
  537TIP3    H1 1617   3.663   2.187   0.685 -0.4198 -0.5375  1.1014
  537TIP3    H2 1618   3.761   2.102   0.764  0.5425 -1.1092 -0.6641
  538TIP3   OH2 1619   5.006   5.723   2.751 -0.2235 -0.2635 -0.1425
  538TIP3    H1 1620   5.041   5.641   2.786  2.4755  1.8731  2.8498
  538TIP3    H2 1621   5.076   5.758   2.697 -0.0372  1.3381  1.0450
  539TIP3   OH2 1622   0.334   4.608   3.712 -0.1202  0.3204  0.3000
  539TIP3    H1 1623   0.306   4.661   3.637 -0.5672 -0.4122 -0.0638
  539TIP3    H2 1624   0.407   4.556   3.678 -0.2058  0.1183  0.4247
  540TIP3   OH2 1625   1.496   3.512   0.232 -0.7909  0.3369 -0.0181
  540TIP3    H1 1626   1.487   3.597   0.188 -0.3538  0.6110  0.4058
  540TIP3    H2 1627   1.575   3.522   0.285 -0.2866 -0.6116 -0.5701
  541TIP3   OH2 1628   0.563   5.385   3.039  0.8728  0.5767 -0.4899
  541TIP3    H1 1629   0.592   5.366   3.129  0.2403  1.5272 -0.0671
  541TIP3    H2 1630   0.493   5.449   3.050  1.2405  1.2136 -1.7048
  542TIP3   OH2 1631   1.225   1.419   0.628 -0.4490 -0.4648  0.0262
  542TIP3    H1 1632   1.159   1.402   0.561  0.1852  1.1024 -1.0564
  542TIP3    H2 1633   1.190   1.493   0.679  0.5210  0.5358 -0.7038
  543TIP3   OH2 1634   1.714   5.245   4.611 -0.1009 -0.5123 -0.0469
  543TIP3    H1 1635   1.700   5.157   4.646 -0.0274 -0.4175  0.2228
  543TIP3    H2 1636   1.627   5.284   4.610  0.1743  0.3475  2.3480
  544TIP3   OH2 1637   3.228   1.160   1.744  0.6608  0.1006 -0.0525
  544TIP3    H1 1638   3.181   1.124   1.669 -1.2788 -1.4054  1.7653
  544TIP3    H2 1639   3.202   1.105   1.817  0.1931  3.1784  2.3067
  545TIP3   OH2 1640   5.665   3.406   2.891 -0.2284  0.3062  0.3451
  545TIP3    H1 1641   5.586   3.362   2.922 -0.0430  0.9711  1.8594
  545TIP3    H2 1642   5.718   3.336   2.854 -1.5769 -0.1236 -0.8833
  546TIP3   OH2 1643   6.254   4.612   4.262  0.2257  0.4990  0.3036
  546TIP3    H1 1644   6.207   4.583   4.184  1.1861 -2.4183  0.6859
  546TIP3    H2 1645   6.186   4.623   4.329 -0.2367 -0.4979  0.0057
  547TIP3   OH2 1646   3.684   2.274   1.198  0.5268 -0.3236  0.2720
  547TIP3    H1 1647   3.606   2.239   1.154  0.5946 -0.2950  0.1273
  547TIP3    H2 1648   3.695   2.361   1.161 -0.5368  0.4761  1.7476
  548TIP3   OH2 1649   4.054   0.430   0.253 -0.0173 -0.1300  0.9590
  548TIP3    H1 1650   4.001   0.377   0.194 -1.0345  0.5451  1.2348
  548TIP3    H2 1651   4.130   0.376   0.273 -0.1736 -0.7757 -0.1411
  549TIP3   OH2 1652   2.824   2.927   2.487  0.0814 -0.7635  0.1920
  549TIP3    H1 1653   2.836   2.922   2.582  0.4239 -0.2907  0.1785
  549TIP3    H2 1654   2.735   2.893   2.473  0.5752 -2.2579  0.5142
  550TIP3   OH2 1655   6.149   0.855   3.887  0.5016  0.0671 -0.2217
  550TIP3    H1 1656   6.191   0.770   3.899  0.2945  0.1710  1.5911
  550TIP3    H2 1657   6.211   0.918   3.925  0.9432  0.8382 -2.1114
  551TIP3   OH2 1658   6.217   1.331   1.566 -0.1457  0.6228  0.3578
  551TIP3    H1 1659   6.156   1.272   1.611  0.7405 -2.4277 -2.0917
  551TIP3    H2 1660   6.294   1.334   1.622 -0.0787 -0.8815  0.3650
  552TIP3   OH2 1661   1.144   5.372   1.285 -0.0385  0.1651  0.2292
  552TIP3    H1 1662   1.189   5.289   1.303 -1.4405 -0.4378  1.2004
  552TIP3    H2 1663   1.105   5.360   1.198  0.0694 -0.0644  0.2131
  553TIP3   OH2 1664   0.377   1.549   3.926  0.1402  0.3843  0.5385
  553TIP3    H1 1665   0.354   1.640   3.942 -0.1221  0.1619  1.5293
  553TIP3    H2 1666   0.442   1.552   3.855 -1.3411  1.1739 -0.8429
  554TIP3   OH2 1667   3.852   1.286   0.766  0.3143  0.2699  0.7367
  554TIP3    H1 1668   3.850   1.296   0.861 -0.1634  2.8874  0.5278
  554TIP3    H2 1669   3.904   1.360   0.735  0.1097 -0.2864 -1.0648
  555TIP3   OH2 1670   2.551   5.977   2.753  0.5537  0.3841  0.7848
  555TIP3    H1 1671   2.550   5.901   2.811 -0.2939  0.1051  0.4180
  555TIP3    H2 1672   2.476   6.029   2.780 -1.6245 -1.1323 -1.7974
  556TIP3   OH2 1673   6.191   3.011   5.128  0.2913 -0.6820  0.2314
  556TIP3    H1 1674   6.241   2.943   5.082 -1.7468 -2.2646  0.2040
  556TIP3    H2 1675   6.127   2.962   5.181 -0.8034  1.2110  0.7593
  557TIP3   OH2 1676   2.682   0.016   1.072  0.2436  0.2643  0.3774
  557TIP3    H1 1677   2.679  -0.074   1.106  0.8926  0.2918  0.5055
  557TIP3    H2 1678   2.615   0.062   1.123 -0.8402 -0.3766 -0.3964
  558TIP3   OH2 1679   1.297   4.816   5.041 -0.3488  0.2542 -0.1231
  558TIP3    H1 1680   1.234   4.888   5.030  0.5102  0.9304 -0.8443
  558TIP3    H2 1681   1.346   4.839   5.119 -0.7751 -0.1100  0.2579
  559TIP3   OH2 1682   4.998   4.403  -0.003 -0.0773 -0.4040 -0.0676
  559TIP3    H1 1683   5.000   4.493   0.030  1.0401  0.2115 -1.6969
  559TIP3    H2 1684   4.906   4.377   0.006 -0.4255  0.8916  0.4472
  560TIP3   OH2 1685   0.923   2.704   4.288 -0.1627 -0.6495 -0.7579
  560TIP3    H1 1686   0.827   2.697   4.294 -0.2596  0.9334 -0.0771
  560TIP3    H2 1687   0.938   2.758   4.211  0.2328 -1.3441 -1.1822
  561TIP3   OH2 1688   2.112   3.544   0.992  0.0471 -1.0858  0.1515
  561TIP3    H1 1689   2.036   3.596   0.968  0.7899 -0.2347 -0.4255
  561TIP3    H2 1690   2.178   3.608   1.019  1.4462 -1.5712 -1.8705
  562TIP3   OH2 1691   4.218   4.652   2.925 -0.0285 -0.1209 -0.1761
  562TIP3    H1 1692   4.166   4.706   2.864  2.8374  0.6732 -2.1290
  562TIP3    H2 1693   4.181   4.564   2.916 -2.0846  0.6696 -0.1395
  563TIP3   OH2 1694   2.705   4.116   1.717  0.0913 -0.3422 -0.0921
  563TIP3    H1 1695   2.725   4.182   1.783 -2.6474  0.1006  0.4125
  563TIP3    H2 1696   2.651   4.052   1.762 -0.4040 -0.9487 -1.4792
  564TIP3   OH2 1697   3.156   2.238   3.273  0.1755 -0.0186  0.1495
  564TIP3    H1 1698   3.114   2.265   3.354 -0.8737  1.2010 -0.7670
  564TIP3    H2 1699   3.084   2.219   3.213  0.8648 -3.3819  0.1955
  565TIP3   OH2 1700   1.380   4.432   3.902  0.5295 -0.5005  0.2804
  565TIP3    H1 1701   1.446   4.457   3.837 -1.3128  1.0981 -1.1072
  565TIP3    H2 1702   1.324   4.369   3.857  1.0875 -1.8908  1.4589
  566TIP3   OH2 1703   3.416   4.228   4.124  0.1863 -0.0377 -0.3294
  566TIP3    H1 1704   3.492   4.230   4.066  0.2614 -0.3916 -0.2427
  566TIP3    H2 1705   3.343   4.258   4.069  0.4956  0.8794 -0.2473
  567TIP3   OH2 1706   3.734   0.993   4.081 -0.0841  0.1267  0.0676
  567TIP3    H1 1707   3.682   0.925   4.039  1.7301 -1.5600  0.4271
  567TIP3    H2 1708   3.801   1.016   4.015  0.3446  0.3452  0.5711
  568TIP3   OH2 1709   2.363   2.673   3.733 -0.0481  0.1380 -0.2071
  568TIP3    H1 1710   2.328   2.599   3.782 -0.2085  0.5200  0.2546
  568TIP3    H2 1711   2.454   2.648   3.714  0.1202  0.1407  0.5834
  569TIP3   OH2 1712   1.104   2.084   1.564  0.0498  0.3172  0.2089
  569TIP3    H1 1713   1.030   2.104   1.621  1.4272 -1.9982  3.0806
  569TIP3    H2 1714   1.163   2.158   1.575  0.8183 -0.5611  2.9807
  570TIP3   OH2 1715   6.197   1.252   4.599  0.1006 -0.2117  0.0420
  570TIP3    H1 1716   6.230   1.291   4.518 -1.1015  1.0422  0.1358
  570TIP3    H2 1717   6.207   1.157   4.586  1.7886  0.0421 -0.7380
  571TIP3   OH2 1718   3.011   0.397   5.036  0.3475  0.5945  0.3878
  571TIP3    H1 1719   2.972   0.353   5.111 -0.1695  1.6966  0.7857
  571TIP3    H2 1720   2.957   0.475   5.023  1.0275  0.9351 -0.5039
  572TIP3   OH2 1721   5.797   0.627   1.218 -0.4586 -0.5031 -0.4097
  572TIP3    H1 1722   5.881   0.653   1.179 -0.7861 -0.6825 -1.2695
  572TIP3    H2 1723   5.769   0.551   1.166 -2.5305  1.2640 -2.0778
  573TIP3   OH2 1724   5.002   4.539   1.688 -0.3792 -0.2048  0.0584
  573TIP3    H1 1725   4.912   4.513   1.672 -0.3385 -0.1763 -0.2240
  573TIP3    H2 1726   5.030   4.581   1.607 -0.7321  1.5426  0.8153
  574TIP3   OH2 1727   2.302   0.990   2.984 -0.0279  0.0995 -0.5545
  574TIP3    H1 1728   2.255   0.976   2.902 -1.3731  1.9302 -0.1797
  574TIP3    H2 1729   2.303   0.904   3.026  1.6052 -1.1247 -2.8650
  575TIP3   OH2 1730   5.097   4.644   3.210 -0.2020  0.0611  0.3366
  575TIP3    H1 1731   5.174   4.670   3.159 -0.8166  0.0682 -0.6109
  575TIP3    H2 1732   5.043   4.722   3.215 -0.6753 -0.2428  0.0274
  576TIP3   OH2 1733   4.535   4.708   4.921 -0.0346  0.2474 -0.0153
  576TIP3    H1 1734   4.489   4.791   4.906 -0.2690  0.2600  0.7648
  576TIP3    H2 1735   4.474   4.656   4.972 -0.4135 -0.9116 -1.5650
  577TIP3   OH2 1736   0.771   5.560   3.510  0.0221 -0.1279  0.0237
  577TIP3    H1 1737   0.778   5.580   3.417  0.1109 -1.2013 -0.2068
  577TIP3    H2 1738   0.679   5.539   3.524 -0.4400  2.0438  0.6160
  578TIP3   OH2 1739   3.647   1.290   1.363 -0.2269  0.2756  0.0567
  578TIP3    H1 1740   3.736   1.323   1.363 -0.5911  1.3032  0.2211
  578TIP3    H2 1741   3.633   1.259   1.452 -1.0116  2.9981  1.0019
  579TIP3   OH2 1742   4.299   4.760   0.695  0.1323  0.2290 -0.7049
  579TIP3    H1 1743   4.325   4.728   0.782  1.3070  0.7260 -0.8536
  579TIP3    H2 1744   4.212   4.799   0.709  1.2492  2.4362  0.8025
  580TIP3   OH2 1745   0.822   3.118   2.300  0.6009  0.0394 -0.2210
  580TIP3    H1 1746   0.872   3.169   2.236  0.2618 -0.3900 -0.8272
  580TIP3    H2 1747   0.751   3.078   2.250  0.0072  0.1364  0.5183
  581TIP3   OH2 1748   0.903   1.478   5.126 -0.3383 -0.0993 -0.6598
  581TIP3    H1 1749   0.860   1.397   5.156 -0.8314  0.4111  0.0555
  581TIP3    H2 1750   0.890   1.540   5.199  0.3988  0.4942 -1.0242
  582TIP3   OH2 1751   0.467   2.941   1.051  0.3139 -0.8756  0.1234
  582TIP3    H1 1752   0.517   2.861   1.039 -1.3366 -2.0319  0.5795
  582TIP3    H2 1753   0.384   2.925   1.005  0.2960  0.9463 -0.5844
  583TIP3   OH2 1754   2.450   4.168   2.575 -0.0924  0.3857  0.3184
  583TIP3    H1 1755   2.490   4.246   2.536 -0.3635  0.2400 -0.2552
  583TIP3    H2 1756   2.465   4.099   2.511 -3.2451  0.7890 -1.0337
  584TIP3   OH2 1757   3.401   5.246   4.787 -0.0785  0.7129  0.1745
  584TIP3    H1 1758   3.479   5.216   4.834  0.3540  0.3136 -0.7756
  584TIP3    H2 1759   3.374   5.325   4.834 -0.0052  0.0186  1.4396
  585TIP3   OH2 1760   2.381   1.469   5.000 -0.2468  0.1802 -0.5374
  585TIP3    H1 1761   2.407   1.379   4.983  3.5993  0.8253  0.9279
  585TIP3    H2 1762   2.407   1.518   4.922 -0.7444  0.2892 -0.6392
  586TIP3   OH2 1763   3.514   1.919   0.756 -0.9760  0.4280 -0.4117
  586TIP3    H1 1764   3.421   1.899   0.768 -1.0997  0.5441 -1.1169
  586TIP3    H2 1765   3.518   1.965   0.672 -0.3509  0.9374 -0.1115
  587TIP3   OH2 1766   1.470   3.809   0.508 -0.4934  0.2342 -0.4504
  587TIP3    H1 1767   1.378   3.808   0.533 -0.6884  1.7312 -0.9889
  587TIP3    H2 1768   1.486   3.898   0.476  0.8301 -0.3285 -1.5108
  588TIP3   OH2 1769   3.818   2.757   0.075 -0.4986  0.4775  0.0475
  588TIP3    H1 1770   3.841   2.825   0.138 -0.8405  0.4584  0.1991
  588TIP3    H2 1771   3.722   2.762   0.069 -0.3517  2.0453 -2.2021
  589TIP3   OH2 1772   3.508   3.127   4.780  0.5018  0.2658  0.0652
  589TIP3    H1 1773   3.589   3.109   4.732  1.7714  0.8901  1.8473
  589TIP3    H2 1774   3.503   3.056   4.845 -0.1551  0.4645  0.2364
  590TIP3   OH2 1775   2.966   0.850   2.599  0.3746 -0.3280  0.2833
  590TIP3    H1 1776   2.876   0.852   2.566  0.3622  0.8890  0.3653
  590TIP3    H2 1777   2.990   0.757   2.595 -1.2062 -0.8137  1.1458
  591TIP3   OH2 1778   1.955   2.781   4.958 -0.0288 -0.0013 -0.0582
  591TIP3    H1 1779   2.041   2.809   4.988  0.0356  0.9095 -1.0497
  591TIP3    H2 1780   1.964   2.686   4.945  0.7421  0.0413  0.1133
  592TIP3   OH2 1781   2.789   2.976   1.565  0.5614 -0.2101  0.0320
  592TIP3    H1 1782   2.849   3.048   1.583  0.6875 -0.7439  2.0160
  592TIP3    H2 1783   2.728   3.012   1.500 -0.0838  2.1556  1.7495
  593TIP3   OH2 1784   4.208   4.474   2.131  0.3990 -0.3155 -0.6041
  593TIP3    H1 1785   4.195   4.536   2.060 -0.0501  0.7546  0.3828
  593TIP3    H2 1786   4.146   4.403   2.112 -1.7207  1.2502  0.1134
  594TIP3   OH2 1787   2.882   0.645   5.021  0.1030 -0.2908  0.0425
  594TIP3    H1 1788   2.859   0.714   4.959  1.5269  1.2959  1.1700
  594TIP3    H2 1789   2.876   0.688   5.107 -0.2570 -1.9603  0.8959
  595TIP3   OH2 1790   0.857   3.636   1.670  0.0778  0.0138  0.4212
  595TIP3    H1 1791   0.904   3.557   1.642 -0.4796 -1.5246  3.4428
  595TIP3    H2 1792   0.791   3.649   1.602  0.6825 -1.6545 -0.5622
  596TIP3   OH2 1793   2.994   0.280   0.716  0.3584 -0.3031 -0.1171
  596TIP3    H1 1794   2.963   0.223   0.787  0.6606 -2.3258 -1.5295
  596TIP3    H2 1795   3.057   0.226   0.668  0.3206  1.0926 -1.8105
  597TIP3   OH2 1796   4.701   1.471   3.072  0.2586  0.1751  0.4689
  597TIP3    H1 1797   4.724   1.421   3.151  0.8189 -0.3439 -0.0169
  597TIP3    H2 1798   4.770   1.450   3.009  0.6067  1.7049  0.3001
  598TIP3   OH2 1799   4.477   1.141   1.274  0.0978 -0.3545  0.5128
  598TIP3    H1 1800   4.418   1.092   1.330 -0.3172  1.7834  2.0894
  598TIP3    H2 1801   4.496   1.221   1.324  2.3503  0.1536 -1.0093
  599TIP3   OH2 1802   0.458   1.648   5.008  0.8419 -0.4471 -0.3106
  599TIP3    H1 1803   0.492   1.689   4.928  0.1720  0.4989 -0.1240
  599TIP3    H2 1804   0.490   1.703   5.079  0.0794 -0.3201 -0.0466
  600TIP3   OH2 1805   4.010   0.080   0.308 -0.4668 -0.4114 -0.6726
  600TIP3    H1 1806   4.055  -0.003   0.324 -0.3964 -0.3064 -0.3298
  600TIP3    H2 1807   3.992   0.079   0.214 -1.9708 -1.5964 -0.4228
  601TIP3   OH2 1808   2.183   0.906   1.409 -0.4700  0.0852 -0.3280
  601TIP3    H1 1809   2.161   0.992   1.376  0.3705  0.0666 -0.9811
  601TIP3    H2 1810   2.198   0.919   1.502 -0.0182  0.7185 -0.4821
  602TIP3   OH2 1811   3.307   5.840   4.285  0.2443  0.1128 -0.1045
  602TIP3    H1 1812   3.348   5.778   4.345  2.4102 -0.7387 -2.2945
  602TIP3    H2 1813   3.290   5.788   4.206 -1.1714  1.5202 -0.7745
  603TIP3   OH2 1814   2.164   4.772   4.982 -0.2801 -0.1548  0.6921
  603TIP3    H1 1815   2.196   4.862   4.988 -0.3526 -0.1544  1.0695
  603TIP3    H2 1816   2.244   4.718   4.987 -0.0275 -0.0641 -1.4735
  604TIP3   OH2 1817   2.496   3.588   1.362 -0.2620  0.6781  0.1607
  604TIP3    H1 1818   2.512   3.677   1.393 -0.5471  0.1837  1.8540
  604TIP3    H2 1819   2.511   3.533   1.439 -1.9159 -0.5544 -0.3298
  605TIP3   OH2 1820   4.071   1.034   4.523  0.2626 -0.1781 -0.1353
  605TIP3    H1 1821   4.046   1.013   4.613  0.3163 -1.2910 -0.3769
  605TIP3    H2 1822   4.024   0.971   4.469 -0.7932  1.2893 -1.0113
  606TIP3   OH2 1823   2.013   5.996   2.904  0.5987 -0.1206 -0.1219
  606TIP3    H1 1824   1.919   5.985   2.916  0.6352 -0.3906 -0.0733
  606TIP3    H2 1825   2.027   5.982   2.810  0.3498  1.7195 -0.4740
  607TIP3   OH2 1826   1.413   1.006   1.043 -0.8558  0.4661 -0.4257
  607TIP3    H1 1827   1.462   0.943   0.991 -0.3405  1.2976 -0.9687
  607TIP3    H2 1828   1.329   0.963   1.061 -0.3116 -0.5626 -0.3461
  608TIP3   OH2 1829   0.354   1.520   1.146  0.0284 -0.3377 -0.0546
  608TIP3    H1 1830   0.331   1.508   1.054  0.4845  0.0799 -0.2236
  608TIP3    H2 1831   0.293   1.586   1.178  0.7078  0.4866 -0.4051
  609TIP3   OH2 1832   6.121   4.427   0.910  0.3828 -0.6852 -0.1191
  609TIP3    H1 1833   6.143   4.518   0.889  1.1189 -0.5160  1.2036
  609TIP3    H2 1834   6.097   4.387   0.827  0.1138  0.7045 -0.7294
  610TIP3   OH2 1835   5.716   1.418   0.059  0.1331 -0.3384  0.5188
  610TIP3    H1 1836   5.797   1.389   0.015  0.4742  2.1358 -0.6376
  610TIP3    H2 1837   5.655   1.434  -0.012 -0.1531  1.3215  1.1078
  611TIP3   OH2 1838   5.319   2.997   4.617 -0.2983 -0.2541  0.0347
  611TIP3    H1 1839   5.381   3.001   4.544  0.3837 -1.8039  0.5033
  611TIP3    H2 1840   5.373   3.011   4.695 -0.4766 -1.7839  0.4641
  612TIP3   OH2 1841   3.485   2.940   0.397  0.4205 -0.4690  0.4305
  612TIP3    H1 1842   3.495   3.015   0.338 -0.7214 -0.4451  0.2370
  612TIP3    H2 1843   3.509   2.973   0.483  1.8097 -0.4188  0.0481
  613TIP3   OH2 1844   2.212   1.486   0.367  0.2166 -0.6203  0.5066
  613TIP3    H1 1845   2.204   1.398   0.331  2.0744 -0.4176 -0.5436
  613TIP3    H2 1846   2.187   1.544   0.295 -1.5552 -0.2691  1.3699
  614TIP3   OH2 1847   2.329   4.984   5.060  0.5344  0.2329  0.0344
  614TIP3    H1 1848   2.292   5.071   5.080 -1.0189 -0.0512 -1.4254
  614TIP3    H2 1849   2.340   4.943   5.146 -0.3770  1.2256  0.6552
  615TIP3   OH2 1850   6.265   3.374   4.853 -0.1623  0.9395  0.8394
  615TIP3    H1 1851   6.319   3.384   4.932  2.2645  0.0990 -0.5966
  615TIP3    H2 1852   6.208   3.300   4.873 -0.9818  1.9424  2.4652
  616TIP3   OH2 1853   2.178   4.055   3.310 -0.1420 -0.0969  0.1440
  616TIP3    H1 1854   2.155   4.145   3.287 -1.0055 -0.7323 -1.6191
  616TIP3    H2 1855   2.108   4.002   3.273 -0.3553 -1.4287  2.3198
  617TIP3   OH2 1856   2.251   3.831   0.544 -0.0238  0.3983 -0.4753
  617TIP3    H1 1857   2.285   3.810   0.457  2.8314  0.0591  0.6036
  617TIP3    H2 1858   2.199   3.754   0.569  2.2287 -1.2174 -0.4618
  618TIP3   OH2 1859   5.619   3.346   3.585 -0.4501  0.7156 -0.5331
  618TIP3    H1 1860   5.662   3.373   3.666 -0.0620  1.2224 -0.9076
  618TIP3    H2 1861   5.671   3.272   3.554 -0.0616  1.0899 -0.7868
  619TIP3   OH2 1862   3.429   1.130   3.847 -0.6353  0.5519  0.7996
  619TIP3    H1 1863   3.522   1.120   3.826 -0.2268  1.1758  2.1980
  619TIP3    H2 1864   3.405   1.216   3.811 -0.5762  0.5559  0.7696
  620TIP3   OH2 1865   5.423   5.299   0.923 -0.2145  0.0281 -0.6956
  620TIP3    H1 1866   5.494   5.355   0.891 -0.1158  0.0094 -0.5115
  620TIP3    H2 1867   5.441   5.213   0.887  1.0815 -0.5119  1.1074
  621TIP3   OH2 1868   5.952   0.362   1.513  0.0049  0.8306  0.3288
  621TIP3    H1 1869   5.974   0.438   1.567 -1.5374  1.8688 -0.4103
  621TIP3    H2 1870   5.873   0.389   1.466  0.3468 -0.6411 -1.1865
  622TIP3   OH2 1871   1.835   3.376   2.231 -0.4385  0.0538 -0.0957
  622TIP3    H1 1872   1.797   3.384   2.318 -0.2803  0.6432 -0.0761
  622TIP3    H2 1873   1.781   3.433   2.176  1.7699  2.8166  0.3796
  623TIP3   OH2 1874   3.591   2.463   1.435  0.8015  0.0641 -0.1554
  623TIP3    H1 1875   3.640   2.381   1.446 -0.1440 -0.5527 -0.4801
  623TIP3    H2 1876   3.547   2.454   1.351 -2.5263 -0.8387  1.5049
  624TIP3   OH2 1877   3.714   1.625   2.302  0.0209 -0.2184  0.5231
  624TIP3    H1 1878   3.803   1.641   2.270  0.0524 -0.1114  0.6638
  624TIP3    H2 1879   3.721   1.545   2.353  0.2366  0.3243  1.3539
  625TIP3   OH2 1880   4.986   1.787   0.393  0.1637 -1.1215  0.0269
  625TIP3    H1 1881   5.062   1.817   0.342 -0.3899 -1.3848 -0.9783
  625TIP3    H2 1882   4.979   1.850   0.464  0.8895 -0.6766 -0.2770
  626TIP3   OH2 1883   1.654   2.652   5.088 -0.2907  0.9683  0.1718
  626TIP3    H1 1884   1.608   2.736   5.085 -1.5937  0.3265  1.4662
  626TIP3    H2 1885   1.636   2.611   5.004 -1.2617  1.1729  0.2723
  627TIP3   OH2 1886   4.940   2.932   4.951 -0.2695 -0.5685  0.0450
  627TIP3    H1 1887   4.929   2.842   4.982 -0.6966 -0.2253  0.9068
  627TIP3    H2 1888   4.853   2.958   4.921 -0.0044 -0.6626 -0.8542
  628TIP3   OH2 1889   4.709   4.775   3.416  0.5934 -0.0946 -0.5825
  628TIP3    H1 1890   4.777   4.739   3.473  0.0830 -1.0380 -0.5458
  628TIP3    H2 1891   4.641   4.805   3.475 -0.9776 -3.1527 -0.6524
  629TIP3   OH2 1892   1.143   5.705   2.083  0.3611  0.3443  0.7200
  629TIP3    H1 1893   1.174   5.723   1.994  0.8125 -0.1044  0.7858
  629TIP3    H2 1894   1.060   5.753   2.089  0.5045  0.6720  0.1809
  630TIP3   OH2 1895   4.077   4.897   4.399 -0.0715 -0.1705 -0.2053
  630TIP3    H1 1896   4.092   4.802   4.398  1.3423  0.0191  0.3851
  630TIP3    H2 1897   4.142   4.931   4.337 -1.3979  0.3323 -1.3732
  631TIP3   OH2 1898   6.333   3.278   3.391  0.7254  0.1024 -0.4253
  631TIP3    H1 1899   6.382   3.276   3.308  0.9260 -0.3176 -0.3023
  631TIP3    H2 1900   6.256   3.332   3.372  1.0495  0.4655 -0.7264
  632TIP3   OH2 1901   5.071   2.522   1.244 -0.4440 -0.7752 -0.2523
  632TIP3    H1 1902   5.104   2.546   1.330 -1.3454 -0.7142  0.0884
  632TIP3    H2 1903   4.996   2.465   1.262 -2.7240  1.8313 -0.8888
  633TIP3   OH2 1904   1.843   2.724   4.030 -0.3399  0.2953 -0.6427
  633TIP3    H1 1905   1.856   2.629   4.024  0.9375  0.4801 -0.9755
  633TIP3    H2 1906   1.748   2.735   4.019 -0.3535 -0.8400 -2.0269
  634TIP3   OH2 1907   2.763   1.334   1.792  0.3932  0.0231  0.2255
  634TIP3    H1 1908   2.828   1.356   1.859 -0.2520 -2.6702  1.8897
  634TIP3    H2 1909   2.679   1.357   1.831  0.1290  0.6735 -0.6880
  635TIP3   OH2 1910   5.287   2.541   2.931 -0.0154 -0.1604 -0.1635
  635TIP3    H1 1911   5.254   2.451   2.932 -0.0921 -0.1314  0.7484
  635TIP3    H2 1912   5.238   2.584   2.860  0.0464 -0.8389 -0.6268
  636TIP3   OH2 1913   4.772   5.155   3.611  0.0549  0.1537  0.0765
  636TIP3    H1 1914   4.823   5.090   3.660 -0.0522  0.6141  0.8031
  636TIP3    H2 1915   4.836   5.222   3.587 -0.3446  1.2508  1.8664
  637TIP3   OH2 1916   1.836   1.479   3.363  0.2206 -0.3246  0.3455
  637TIP3    H1 1917   1.841   1.545   3.432 -0.9793 -0.5849  0.7080
  637TIP3    H2 1918   1.836   1.528   3.282 -0.8972  0.1453  0.6178
  638TIP3   OH2 1919   5.780  -0.010   1.735 -0.1638 -0.0628 -0.4212
  638TIP3    H1 1920   5.866   0.022   1.708 -0.1687 -0.4059 -0.8512
  638TIP3    H2 1921   5.727  -0.009   1.655 -0.0246 -1.5887 -0.5642
  639TIP3   OH2 1922   4.566   1.012   3.060  0.1496 -0.3013  0.0507
  639TIP3    H1 1923   4.519   0.953   3.120 -0.3099  0.4735  0.4761
  639TIP3    H2 1924   4.654   1.020   3.098  0.3896 -1.1461 -0.3183
  640TIP3   OH2 1925   4.074   4.262   2.339 -0.0310 -0.2726  0.4510
  640TIP3    H1 1926   4.039   4.246   2.252  1.0052  0.5350 -0.1294
  640TIP3    H2 1927   4.169   4.269   2.327  0.2576 -1.2839  1.8125
  641TIP3   OH2 1928   4.815   0.305   3.199  0.3339  0.1625 -0.7899
  641TIP3    H1 1929   4.799   0.362   3.274  1.6225 -0.4659  0.0008
  641TIP3    H2 1930   4.734   0.308   3.148 -0.3348  1.0928  0.2978
  642TIP3   OH2 1931   2.483   3.316   1.830  0.3360 -0.3960 -0.2727
  642TIP3    H1 1932   2.398   3.275   1.847 -0.2961  0.4480 -1.2780
  642TIP3    H2 1933   2.546   3.246   1.845 -0.5266 -1.0411  0.5059
  643TIP3   OH2 1934   5.045   2.084   1.571  0.0606  0.1062  0.2305
  643TIP3    H1 1935   5.073   2.089   1.480 -1.2531  0.3467 -0.1765
  643TIP3    H2 1936   5.121   2.048   1.617  1.2658  1.3381 -0.7020
  644TIP3   OH2 1937   0.031   3.342   2.864 -0.3926 -0.2322  0.2287
  644TIP3    H1 1938   0.033   3.315   2.956 -3.4581  1.1528  0.8611
  644TIP3    H2 1939   0.022   3.438   2.868  0.0993 -0.0804 -1.5406
  645TIP3   OH2 1940   6.225   1.642   1.087 -0.3538  0.3157 -0.3525
  645TIP3    H1 1941   6.216   1.568   1.147  0.1468  0.1690 -0.4542
  645TIP3    H2 1942   6.223   1.719   1.143  3.2825  0.1263  0.3001
  646TIP3   OH2 1943   3.424   2.961   2.119  0.0408  0.4948 -0.0360
  646TIP3    H1 1944   3.490   3.024   2.090  2.4440 -1.7171  0.2737
  646TIP3    H2 1945   3.453   2.934   2.206 -1.1527 -0.7321  0.0232
  647TIP3   OH2 1946   1.907   3.716   2.776  0.4456  0.0166  0.0706
  647TIP3    H1 1947   1.840   3.675   2.722  1.5553 -0.9525 -0.6073
  647TIP3    H2 1948   1.981   3.728   2.717  0.9451  0.8937  0.8564
  648TIP3   OH2 1949   2.325   3.407   2.089 -0.3205 -0.0791 -0.6757
  648TIP3    H1 1950   2.280   3.430   2.008 -0.6290  1.6472 -0.0503
  648TIP3    H2 1951   2.277   3.455   2.157  1.0859 -0.0054  0.2926
  649TIP3   OH2 1952   1.532   5.762   1.550 -0.3362  0.4183 -0.7849
  649TIP3    H1 1953   1.497   5.677   1.578  1.4690 -0.2940 -0.5717
  649TIP3    H2 1954   1.616   5.741   1.509  0.1004  2.1041 -0.8303
  650TIP3   OH2 1955   1.526   4.095   2.818 -0.0986 -0.1418  0.3042
  650TIP3    H1 1956   1.451   4.150   2.796 -0.8401 -1.1631  0.2382
  650TIP3    H2 1957   1.578   4.091   2.738 -0.0272  0.4543  0.3119
  651TIP3   OH2 1958   1.069   4.763   1.697 -0.0749 -0.3036  0.5055
  651TIP3    H1 1959   1.109   4.733   1.778 -2.0810 -0.7228  1.4029
  651TIP3    H2 1960   1.082   4.858   1.698  0.7132 -0.4100  0.8515
  652TIP3   OH2 1961   1.672   1.524   2.185 -0.0225  0.3897  0.0269
  652TIP3    H1 1962   1.650   1.435   2.211  1.8330  0.2745  1.4263
  652TIP3    H2 1963   1.698   1.518   2.094  0.9886 -0.6843  0.3760
  653TIP3   OH2 1964   1.297   2.187   1.864  0.1766  0.2117 -0.4699
  653TIP3    H1 1965   1.208   2.153   1.873  0.5305 -1.3564 -2.2280
  653TIP3    H2 1966   1.300   2.222   1.775  1.3759  0.0447 -0.5121
  654TIP3   OH2 1967   1.334   0.986   4.307  0.0604  0.4344  0.6073
  654TIP3    H1 1968   1.313   0.893   4.300 -0.2640  0.4501  1.3039
  654TIP3    H2 1969   1.359   0.998   4.398  1.0828  0.8387  0.2951
  655TIP3   OH2 1970   5.811   4.432   5.140  1.0628  0.3876  0.1711
  655TIP3    H1 1971   5.900   4.464   5.123  0.6342  1.7115  0.3385
  655TIP3    H2 1972   5.755   4.485   5.084  0.3327 -0.1346  0.3909
  656TIP3   OH2 1973   1.417   1.824   0.426  1.0544  0.0071  0.1161
  656TIP3    H1 1974   1.442   1.773   0.348  0.7141  0.3864 -0.2424
  656TIP3    H2 1975   1.333   1.787   0.453  2.1642 -1.5993  1.6119
  657TIP3   OH2 1976   4.200   2.907   1.413 -0.1113 -0.8324  0.2376
  657TIP3    H1 1977   4.123   2.856   1.440 -0.8171 -0.6007 -1.2690
  657TIP3    H2 1978   4.194   2.988   1.465 -1.6374 -0.2396 -0.7933
  658TIP3   OH2 1979   5.331   0.948   3.802  0.0039  0.4843  0.2168
  658TIP3    H1 1980   5.313   1.025   3.748  0.0570 -0.8518 -1.8264
  658TIP3    H2 1981   5.299   0.874   3.750  1.7729 -1.0710  1.1928
  659TIP3   OH2 1982   0.825   1.193   3.298 -0.2039  0.6757  0.2180
  659TIP3    H1 1983   0.741   1.181   3.253  0.1654  1.2004 -0.6248
  659TIP3    H2 1984   0.882   1.233   3.233  1.2989 -1.3670  0.1802
  660TIP3   OH2 1985   6.025   3.828   5.125  0.0227  0.1603  0.1123
  660TIP3    H1 1986   6.118   3.827   5.102  0.1264  0.8173  0.4722
  660TIP3    H2 1987   6.018   3.766   5.198 -0.0395 -0.7690 -0.6547
  661TIP3   OH2 1988   5.486   1.095   2.940  1.0138  0.0477  0.0442
  661TIP3    H1 1989   5.582   1.101   2.939  1.1550 -0.7123  2.2526
  661TIP3    H2 1990   5.464   1.096   3.033 -1.0210 -1.3714 -0.3718
  662TIP3   OH2 1991   6.090   2.871   2.270  0.0539 -0.3660 -0.4445
  662TIP3    H1 1992   6.094   2.777   2.285  2.4310 -0.0506  1.4692
  662TIP3    H2 1993   6.166   2.891   2.216 -0.3187  0.4794 -0.6759
  663TIP3   OH2 1994   0.583   0.815   2.339 -0.6657 -0.5710  0.2657
  663TIP3    H1 1995   0.652   0.880   2.352 -2.3933  1.5002 -0.3313
  663TIP3    H2 1996   0.556   0.790   2.427 -2.0754  1.9613  0.6350
  664TIP3   OH2 1997   4.273   0.584   0.497  0.9149  0.3338  0.2300
  664TIP3    H1 1998   4.278   0.593   0.402 -0.1739 -2.4833 -0.1907
  664TIP3    H2 1999   4.192   0.628   0.522  0.9965  0.7269 -0.2037
  665TIP3   OH2 2000   1.063   3.123   1.785 -0.1086 -0.0065 -0.3310
  665TIP3    H1 2001   1.132   3.058   1.794 -0.0938  0.0047 -0.3674
  665TIP3    H2 2002   0.982   3.074   1.799 -0.1346 -0.1506 -0.9982
  666TIP3   OH2 2003   1.088   0.479   2.738  0.3536  0.0678 -0.4324
  666TIP3    H1 2004   1.045   0.441   2.815  1.2175  1.3873  0.7363
  666TIP3    H2 2005   1.020   0.477   2.669 -0.6310 -0.5489  0.5245
  667TIP3   OH2 2006   1.551   0.769   0.997 -0.4150  0.4174 -0.1377
  667TIP3    H1 2007   1.524   0.685   1.034 -0.5109  0.8777  0.8700
  667TIP3    H2 2008   1.531   0.761   0.904 -1.3907 -0.2959  0.1070
  668TIP3   OH2 2009   4.992   0.454   4.985 -0.2553  0.4624  0.0802
  668TIP3    H1 2010   4.960   0.530   4.936 -0.6156 -1.2107 -2.4880
  668TIP3    H2 2011   5.010   0.389   4.918  0.5029 -1.5836  2.1509
  669TIP3   OH2 2012   3.361   5.949   2.003  0.4374 -0.1675 -0.8191
  669TIP3    H1 2013   3.328   6.035   2.028 -0.1073 -1.0488  1.7906
  669TIP3    H2 2014   3.457   5.957   2.010  0.3194 -0.2473  1.2985
  670TIP3   OH2 2015   4.271   5.304   3.762 -0.5973  0.2817 -0.6673
  670TIP3    H1 2016   4.232   5.234   3.710  0.8051  0.1913 -1.6709
  670TIP3    H2 2017   4.364   5.301   3.740  0.0977  0.2087  1.9045
  671TIP3   OH2 2018   0.518   5.751   1.176 -0.3805 -0.2223  0.5895
  671TIP3    H1 2019   0.493   5.705   1.096 -0.3761 -1.5757  1.3199
  671TIP3    H2 2020   0.457   5.718   1.242 -0.4456  0.9444  1.1270
  672TIP3   OH2 2021   3.136   4.688   2.314 -0.7838  0.1676  0.5685
  672TIP3    H1 2022   3.119   4.593   2.320 -1.6508  0.3535  1.4575
  672TIP3    H2 2023   3.048   4.727   2.315 -0.4212  0.9886  0.4908
  673TIP3   OH2 2024   3.169   5.377   2.052  1.0800 -0.1225 -0.5393
  673TIP3    H1 2025   3.204   5.431   2.123  1.3707 -1.5014  0.4169
  673TIP3    H2 2026   3.084   5.349   2.084 -0.4355  2.1333 -2.2967
  674TIP3   OH2 2027   6.165   5.968   2.074 -0.3080 -0.5692 -0.6453
  674TIP3    H1 2028   6.156   6.019   2.154 -2.6807  0.5869 -1.5161
  674TIP3    H2 2029   6.187   5.880   2.103  0.1625  0.1147  1.1751
  675TIP3   OH2 2030   5.890   2.783   1.283  0.3737  0.4623  0.6363
  675TIP3    H1 2031   5.836   2.830   1.220 -0.2059 -1.5447 -0.4459
  675TIP3    H2 2032   5.976   2.776   1.241  0.5475  0.7909  0.9287
  676TIP3   OH2 2033   2.502   0.243   1.441  0.0684 -0.0642  0.3723
  676TIP3    H1 2034   2.475   0.212   1.355  1.5740 -0.7578  0.1135
  676TIP3    H2 2035   2.590   0.207   1.453  0.6877  1.6576  1.3661
  677TIP3   OH2 2036   1.815   3.207   3.714 -0.2945  0.1806 -0.4648
  677TIP3    H1 2037   1.793   3.145   3.783 -1.3095  0.5334 -0.4533
  677TIP3    H2 2038   1.732   3.225   3.670  0.1966  0.5808 -1.2667
  678TIP3   OH2 2039   3.099   2.793   3.880  0.2148  0.0244 -0.0054
  678TIP3    H1 2040   3.057   2.713   3.849 -1.0806  1.0376 -0.9764
  678TIP3    H2 2041   3.191   2.769   3.891 -0.1489 -1.5951 -0.2456
  679TIP3   OH2 2042   3.169   1.419   3.526  0.1275  0.0344  0.0053
  679TIP3    H1 2043   3.198   1.384   3.441 -0.3992 -1.6787  0.4872
  679TIP3    H2 2044   3.122   1.499   3.504  0.7849  0.1090 -1.2331
  680TIP3   OH2 2045   2.595   3.837   2.002 -0.4080  0.6473 -0.0061
  680TIP3    H1 2046   2.567   3.858   1.913 -1.0769  0.0865  0.0532
  680TIP3    H2 2047   2.576   3.743   2.011  0.5311  0.4866  0.4136
  681TIP3   OH2 2048   3.563   6.007   0.465 -0.4616  0.5314 -0.2495
  681TIP3    H1 2049   3.595   6.016   0.554  1.9287 -0.2986 -0.9577
  681TIP3    H2 2050   3.515   5.924   0.465 -1.1652  0.9225  0.4158
  682TIP3   OH2 2051   1.047   3.677   3.316  0.1979 -0.0088  0.8295
  682TIP3    H1 2052   1.121   3.645   3.265 -1.1166 -0.7887 -0.6837
  682TIP3    H2 2053   1.043   3.619   3.392  0.7568 -0.3563  0.5939
  683TIP3   OH2 2054   5.051   4.263   3.884  0.1895  0.3185 -0.2760
  683TIP3    H1 2055   4.956   4.271   3.889  0.1145 -1.2511  2.1583
  683TIP3    H2 2056   5.073   4.299   3.798 -2.6684  0.0075 -1.2456
  684TIP3   OH2 2057   5.691   5.551   3.907  0.7391  0.3295 -0.3958
  684TIP3    H1 2058   5.696   5.625   3.968 -1.2158 -0.2911  0.5896
  684TIP3    H2 2059   5.767   5.497   3.928  0.3702  0.3924  1.1799
  685TIP3   OH2 2060   3.775   1.035   2.104  0.2649  0.0134  0.2420
  685TIP3    H1 2061   3.847   0.998   2.052 -1.3283  2.6320 -4.4671
  685TIP3    H2 2062   3.800   1.127   2.117 -1.0137  0.2762  1.0024
  686TIP3   OH2 2063   4.477   3.042   5.052  0.1178  0.0934  0.4529
  686TIP3    H1 2064   4.482   2.963   5.105  1.9905  0.3767  0.7516
  686TIP3    H2 2065   4.489   3.114   5.114  1.8252  0.4470 -0.2190
  687TIP3   OH2 2066   4.674   0.556   1.876 -0.0949 -0.1824 -0.0759
  687TIP3    H1 2067   4.607   0.491   1.898  0.5597 -0.7715  0.2214
  687TIP3    H2 2068   4.707   0.585   1.960  0.5068 -0.4172 -0.2253
  688TIP3   OH2 2069   2.425   4.584   4.144  0.2890  0.1443  0.2981
  688TIP3    H1 2070   2.435   4.677   4.124  0.3955 -0.0854 -0.7934
  688TIP3    H2 2071   2.399   4.545   4.061 -1.2061 -0.5893  1.0842
  689TIP3   OH2 2072   2.239   1.334   1.138 -0.0305  0.0191 -0.1096
  689TIP3    H1 2073   2.315   1.374   1.181 -1.0445 -0.1109  1.8906
  689TIP3    H2 2074   2.274   1.300   1.056  2.1433 -0.2727  0.8701
  690TIP3   OH2 2075   5.316   3.207   0.612  0.0933  0.5724 -0.1225
  690TIP3    H1 2076   5.298   3.254   0.694 -0.9351 -0.3544  0.2084
  690TIP3    H2 2077   5.299   3.115   0.634 -0.5999  0.3584 -1.4845
  691TIP3   OH2 2078   4.709   1.682   2.269  0.0693 -0.5284  0.0856
  691TIP3    H1 2079   4.745   1.594   2.257  0.9510 -0.4566  1.9052
  691TIP3    H2 2080   4.624   1.668   2.310  0.7964 -0.5376  1.6657
  692TIP3   OH2 2081   4.920   5.598   0.608 -0.1721  0.1540  0.7024
  692TIP3    H1 2082   4.864   5.621   0.682 -0.6143 -1.5377  0.9345
  692TIP3    H2 2083   4.898   5.507   0.589  1.1017  0.0646 -0.4743
  693TIP3   OH2 2084   4.675   2.556   2.610  0.4380  0.4410 -0.2045
  693TIP3    H1 2085   4.767   2.565   2.583  0.9116  1.0806  1.4705
  693TIP3    H2 2086   4.675   2.580   2.703 -1.5528  1.1514 -0.3401
  694TIP3   OH2 2087   3.165   0.306   1.177 -0.6770 -0.0117  0.6728
  694TIP3    H1 2088   3.149   0.213   1.162 -0.8268  0.2209 -0.7996
  694TIP3    H2 2089   3.259   0.317   1.162 -0.8636  0.2620 -0.3943
  695TIP3   OH2 2090   3.493   2.221   0.649 -0.1530 -0.1630  0.2231
  695TIP3    H1 2091   3.415   2.240   0.701  0.0748 -0.3848  0.6457
  695TIP3    H2 2092   3.501   2.297   0.591  0.7946  1.1393  1.9546
  696TIP3   OH2 2093   3.275   0.511   2.426  0.1960 -0.2511 -0.0899
  696TIP3    H1 2094   3.302   0.442   2.364 -0.6739  0.3049 -1.1261
  696TIP3    H2 2095   3.309   0.592   2.388  0.3808  0.0140  0.6225
  697TIP3   OH2 2096   2.582   3.462   4.455 -0.1967 -0.8213  0.0889
  697TIP3    H1 2097   2.643   3.518   4.503  0.3058 -0.9993 -0.3352
  697TIP3    H2 2098   2.526   3.424   4.523  0.1186 -0.6026  0.4761
  698TIP3   OH2 2099   1.576   0.504   2.416  0.1129  0.4045  0.2024
  698TIP3    H1 2100   1.527   0.495   2.498  0.1733 -1.9870  0.0415
  698TIP3    H2 2101   1.534   0.577   2.372 -0.8325  0.8489  1.7486
  699TIP3   OH2 2102   0.044   1.492   3.529  0.8682 -0.0051  0.8959
  699TIP3    H1 2103  -0.030   1.476   3.471  0.5999  0.2644  1.1631
  699TIP3    H2 2104   0.119   1.498   3.470  0.6979 -0.4065  0.6370
  700TIP3   OH2 2105   4.403   4.952   3.657  0.6429  0.1498  0.1777
  700TIP3    H1 2106   4.322   4.912   3.691  1.1454 -0.5884  0.5154
  700TIP3    H2 2107   4.374   5.002   3.580 -0.5846  2.0538  1.7579
  701TIP3   OH2 2108   5.019   0.968   1.794  0.4263  0.0060  0.7570
  701TIP3    H1 2109   5.040   0.939   1.705 -0.8341  1.8293 -0.2067
  701TIP3    H2 2110   5.015   0.887   1.846  0.7517 -1.1417 -0.9295
  702TIP3   OH2 2111   1.981   3.363   1.997 -0.3132  0.0744  0.1693
  702TIP3    H1 2112   1.975   3.272   1.970 -0.6696  0.0814  0.2183
  702TIP3    H2 2113   1.922   3.371   2.072 -1.0704  0.5667 -0.4537
  703TIP3   OH2 2114   0.959   4.482   3.661 -0.0010  0.5981  0.0650
  703TIP3    H1 2115   1.045   4.447   3.684 -0.1547  0.5904  0.6496
  703TIP3    H2 2116   0.897   4.431   3.713 -0.4405 -0.0206 -1.0395
  704TIP3   OH2 2117   2.248   4.720   2.229 -0.1355 -0.0074  0.9556
  704TIP3    H1 2118   2.323   4.662   2.239 -0.0029  0.0089  0.1452
  704TIP3    H2 2119   2.190   4.697   2.301 -0.1486 -1.2443  0.5719
  705TIP3   OH2 2120   1.175   4.414   2.062  0.6356  0.4897 -0.1015
  705TIP3    H1 2121   1.149   4.395   2.152 -0.9482 -0.3722 -0.7025
  705TIP3    H2 2122   1.235   4.343   2.039  1.0756  0.7330  0.2655
  706TIP3   OH2 2123   5.284   2.050   0.469 -0.5617  0.0517  0.2708
  706TIP3    H1 2124   5.314   2.115   0.406 -0.9255  1.7536  1.7906
  706TIP3    H2 2125   5.227   1.992   0.418 -0.0200  0.7283 -1.1703
  707TIP3   OH2 2126   2.938   1.963   3.219  0.1203  0.2702  0.0202
  707TIP3    H1 2127   3.020   1.942   3.174 -0.3242 -0.0500 -0.6669
  707TIP3    H2 2128   2.906   2.042   3.174 -0.4474 -0.1905 -0.4075
  708TIP3   OH2 2129   4.647   4.331   0.382 -0.1842  0.1916 -0.5782
  708TIP3    H1 2130   4.646   4.426   0.395 -1.0717  0.4357 -2.1861
  708TIP3    H2 2131   4.557   4.309   0.360 -0.2483 -1.2356  0.9599
  709TIP3   OH2 2132   3.099   2.858   2.631  0.1041  0.1260  0.3031
  709TIP3    H1 2133   3.126   2.845   2.722  1.0911  0.2727  0.0382
  709TIP3    H2 2134   3.006   2.834   2.630 -0.4331  1.9188  1.7502
  710TIP3   OH2 2135   3.203   2.093   0.993 -0.1035  0.0409 -0.0624
  710TIP3    H1 2136   3.137   2.123   1.055 -1.8615 -0.9245 -1.3684
  710TIP3    H2 2137   3.191   1.998   0.990  2.2561 -0.3402  0.6182
  711TIP3   OH2 2138   3.586   1.484   4.314  0.0316  0.0284 -0.0114
  711TIP3    H1 2139   3.531   1.548   4.268 -1.3430 -1.5702 -0.6904
  711TIP3    H2 2140   3.604   1.417   4.248 -0.4408 -1.4029  1.2488
  712TIP3   OH2 2141   2.696   5.435   1.140 -0.1509 -0.1803  0.0563
  712TIP3    H1 2142   2.685   5.512   1.196 -0.6549  1.3527 -2.0292
  712TIP3    H2 2143   2.612   5.427   1.095  0.6639 -0.5456 -1.4364
  713TIP3   OH2 2144   3.038   3.198   4.020 -0.0792 -0.2709 -0.1444
  713TIP3    H1 2145   3.016   3.288   3.997  1.4385  0.5008  1.2736
  713TIP3    H2 2146   2.961   3.166   4.066  0.2713  1.1466  1.5088
  714TIP3   OH2 2147   5.738   1.669   1.815 -0.1289  0.8010 -0.3494
  714TIP3    H1 2148   5.674   1.660   1.745 -0.5734  2.5185 -0.2199
  714TIP3    H2 2149   5.687   1.661   1.896 -0.0297  1.2286 -0.2407
  715TIP3   OH2 2150   4.445   2.784   1.309 -0.3185  0.7316  0.0961
  715TIP3    H1 2151   4.475   2.867   1.272 -2.0569  1.2752 -0.2081
  715TIP3    H2 2152   4.375   2.808   1.369  0.0888 -0.4299  1.0909
  716TIP3   OH2 2153   4.163   1.558   1.338 -0.4751 -0.4829 -0.2748
  716TIP3    H1 2154   4.107   1.608   1.279  0.4467 -0.1681 -0.9043
  716TIP3    H2 2155   4.206   1.494   1.282 -1.5513 -1.9284  0.5070
  717TIP3   OH2 2156   5.147   5.098   2.974  0.1194  0.5426  0.5660
  717TIP3    H1 2157   5.223   5.053   3.012 -1.0821 -1.0656  1.1959
  717TIP3    H2 2158   5.181   5.138   2.894  0.8896 -3.6806 -1.5626
  718TIP3   OH2 2159   1.474   1.075   4.696  0.4384  0.2979  0.2672
  718TIP3    H1 2160   1.424   1.004   4.655  1.0026 -1.0432  1.7764
  718TIP3    H2 2161   1.408   1.128   4.741  0.1306 -0.0344  0.2112
  719TIP3   OH2 2162   2.077   3.019   0.557  0.0663  0.1740 -0.5695
  719TIP3    H1 2163   2.025   3.034   0.637  0.6902  3.5566 -0.6517
  719TIP3    H2 2164   2.035   3.075   0.491  1.8641  0.4516 -1.5254
  720TIP3   OH2 2165   1.873   1.518   1.470 -0.3420  0.5911 -0.2041
  720TIP3    H1 2166   1.952   1.511   1.417  1.0582  0.6155  1.7501
  720TIP3    H2 2167   1.834   1.431   1.468  1.1989 -0.1738  0.8574
  721TIP3   OH2 2168   5.459   1.070   2.629 -0.3629 -0.0466 -0.0472
  721TIP3    H1 2169   5.447   1.163   2.650 -0.0249 -0.3289  1.5116
  721TIP3    H2 2170   5.386   1.026   2.673 -1.1043 -0.4456 -1.6164
  722TIP3   OH2 2171   0.905   0.380   3.190  0.0867 -0.0007  0.2523
  722TIP3    H1 2172   0.906   0.384   3.095 -0.7793  0.4599  0.2527
  722TIP3    H2 2173   0.940   0.465   3.218 -0.0895  0.0419  0.3436
  723TIP3   OH2 2174   3.093   0.402   1.458 -0.0117 -0.4364  0.0521
  723TIP3    H1 2175   3.146   0.383   1.380  0.5244 -0.9896  0.5489
  723TIP3    H2 2176   3.014   0.443   1.422  0.6980  0.3237 -0.7014
  724TIP3   OH2 2177   3.044   0.254   3.309 -0.5117 -0.0039  0.1991
  724TIP3    H1 2178   3.038   0.231   3.217  1.3592 -0.6593  0.1980
  724TIP3    H2 2179   3.013   0.344   3.314 -0.9333 -0.0716 -1.0002
  725TIP3   OH2 2180   2.294   2.387   2.365 -0.0699 -0.0681 -0.0768
  725TIP3    H1 2181   2.349   2.329   2.418 -0.5304  1.7426  2.5232
  725TIP3    H2 2182   2.354   2.423   2.300  0.4014 -2.7037 -1.2598
  726TIP3   OH2 2183   2.742   1.388   0.251  0.2846 -0.4477 -0.3670
  726TIP3    H1 2184   2.778   1.477   0.262  0.9264 -0.8476  1.1327
  726TIP3    H2 2185   2.758   1.367   0.160  0.0389  1.0139 -0.7848
  727TIP3   OH2 2186   0.857   0.148   1.333  0.2447 -0.2487  0.0503
  727TIP3    H1 2187   0.809   0.081   1.383 -0.2025 -0.4250 -0.5971
  727TIP3    H2 2188   0.845   0.229   1.383  0.2580 -0.5275  0.5097
  728TIP3   OH2 2189   3.399   0.714   4.672 -0.2232  0.0990 -0.2585
  728TIP3    H1 2190   3.445   0.775   4.614 -1.5733  1.1107 -0.3056
  728TIP3    H2 2191   3.324   0.684   4.622  0.5969 -1.9042 -0.3506
  729TIP3   OH2 2192   5.491   2.922   2.888  0.5112 -0.0679  0.6173
  729TIP3    H1 2193   5.427   2.992   2.872  1.4861  0.5101 -1.0195
  729TIP3    H2 2194   5.562   2.965   2.935  1.3074  0.1907 -0.7669
  730TIP3   OH2 2195   3.678   0.571   3.847 -0.3486  0.3129  0.2189
  730TIP3    H1 2196   3.732   0.499   3.813  0.1238 -0.1419  1.8526
  730TIP3    H2 2197   3.595   0.562   3.800  1.2514  1.7130 -3.2135
  731TIP3   OH2 2198   2.988   0.869   3.253 -0.1275  0.0661  0.0570
  731TIP3    H1 2199   3.007   0.963   3.251  1.2342 -0.1945 -1.8661
  731TIP3    H2 2200   3.071   0.827   3.231 -0.5687 -1.6536  1.3871
  732TIP3   OH2 2201   1.009   1.613   2.596 -0.0248 -0.0185  0.0374
  732TIP3    H1 2202   1.023   1.695   2.644  1.3292 -0.4917  0.4935
  732TIP3    H2 2203   1.072   1.616   2.525  0.5432 -0.9878  0.4896
  733TIP3   OH2 2204   1.555   1.227   0.998 -0.1826  0.3568 -0.0251
  733TIP3    H1 2205   1.514   1.142   1.011  0.2473  0.2001  0.3139
  733TIP3    H2 2206   1.495   1.289   1.039  0.1321  0.0799  0.8816
  734TIP3   OH2 2207   4.208   2.695   4.723  0.1254  0.3373  0.2668
  734TIP3    H1 2208   4.219   2.758   4.652  0.2676 -1.1237 -1.0744
  734TIP3    H2 2209   4.288   2.705   4.776  0.8861  0.2203 -0.8190
  735TIP3   OH2 2210   5.142   1.915   3.194 -0.3936 -0.5854  0.1936
  735TIP3    H1 2211   5.210   1.864   3.149 -0.8543 -1.1616  0.1416
  735TIP3    H2 2212   5.172   1.921   3.285  0.1539 -0.0863 -0.0119
  736TIP3   OH2 2213   0.698   4.776   2.563 -0.5732  0.2406 -0.3239
  736TIP3    H1 2214   0.618   4.826   2.582 -0.7806 -0.6360  1.2069
  736TIP3    H2 2215   0.718   4.730   2.644 -0.9323 -2.9414 -1.9035
  737TIP3   OH2 2216   2.889   4.162   3.481 -0.1009  0.3773 -0.2557
  737TIP3    H1 2217   2.841   4.093   3.527 -0.7498 -0.8203 -2.5427
  737TIP3    H2 2218   2.830   4.237   3.480  0.3777  0.8221  1.7614
  738TIP3   OH2 2219   0.881   2.870   0.147 -0.0961  0.3455 -0.2463
  738TIP3    H1 2220   0.903   2.787   0.104 -0.1782 -1.2776  2.6231
  738TIP3    H2 2221   0.785   2.871   0.149 -0.0887 -0.3571  1.2119
  739TIP3   OH2 2222   1.548   4.846   2.106  0.2993  0.7987 -0.8862
  739TIP3    H1 2223   1.476   4.784   2.119  1.9679 -0.8721  1.1087
  739TIP3    H2 2224   1.624   4.792   2.087  1.2508  2.4741 -2.2046
  740TIP3   OH2 2225   3.407   4.812   0.850  0.2153  0.0461  0.2469
  740TIP3    H1 2226   3.360   4.738   0.888  0.9926  0.2222  1.6517
  740TIP3    H2 2227   3.343   4.883   0.848 -0.6467 -0.7260 -1.4685
  741TIP3   OH2 2228   6.109   1.907   0.984 -0.2759  0.2686  0.1769
  741TIP3    H1 2229   6.068   1.829   0.946  0.1537  0.7238 -1.2749
  741TIP3    H2 2230   6.053   1.979   0.955  1.7880  0.9838 -2.3693
  742TIP3   OH2 2231   1.602   5.929   4.427  0.2789 -0.9064 -0.0177
  742TIP3    H1 2232   1.572   5.879   4.503 -1.2154 -0.5199 -0.3240
  742TIP3    H2 2233   1.543   5.904   4.357 -1.1340  1.9362  0.0397
  743TIP3   OH2 2234   1.579   3.647   2.358 -0.3440 -0.2798 -0.4463
  743TIP3    H1 2235   1.490   3.679   2.372 -0.2573 -0.4726  0.5584
  743TIP3    H2 2236   1.569   3.579   2.291 -0.9081 -0.0865 -0.5615
  744TIP3   OH2 2237   3.966   3.566   2.129 -0.0412  0.0698  0.5811
  744TIP3    H1 2238   3.934   3.478   2.112 -0.4555  0.1954  0.6996
  744TIP3    H2 2239   4.056   3.565   2.097 -0.2331 -0.2174  0.0288
  745TIP3   OH2 2240   5.612   4.208   3.008  0.1776  0.1101 -0.2618
  745TIP3    H1 2241   5.678   4.165   2.954  1.1804  1.4764 -0.1955
  745TIP3    H2 2242   5.663   4.253   3.076 -0.8447  0.9452 -0.0233
  746TIP3   OH2 2243   3.861   4.423   1.128 -0.1541  0.6513  0.0970
  746TIP3    H1 2244   3.817   4.382   1.053  1.3455 -1.2548  0.1785
  746TIP3    H2 2245   3.884   4.349   1.185  0.3616  1.8925  1.5471
  747TIP3   OH2 2246   0.112   5.225   2.162 -0.1668  0.3230 -0.2138
  747TIP3    H1 2247   0.183   5.288   2.175 -0.4521  0.6305 -0.1211
  747TIP3    H2 2248   0.145   5.164   2.096  1.7071 -1.8300  2.4909
  748TIP3   OH2 2249   5.599   3.925   4.168  0.1018 -0.3833 -0.3418
  748TIP3    H1 2250   5.574   3.854   4.227  0.7877  1.1371  1.9459
  748TIP3    H2 2251   5.517   3.956   4.131 -0.1811 -2.5088 -1.6565
  749TIP3   OH2 2252   6.125   2.126   3.999  0.0106  0.3042 -0.4674
  749TIP3    H1 2253   6.096   2.052   3.947 -1.6594 -0.5688  1.5416
  749TIP3    H2 2254   6.050   2.185   4.001  0.6414  1.1221 -0.4283
  750TIP3   OH2 2255   1.160   1.742   0.542  0.3344 -0.0893  0.4555
  750TIP3    H1 2256   1.127   1.804   0.608  0.7433 -0.9590  1.5067
  750TIP3    H2 2257   1.113   1.765   0.462  0.8894  1.9501  0.6590
  751TIP3   OH2 2258   0.724   1.291   4.858 -0.1062  0.4634  0.5736
  751TIP3    H1 2259   0.709   1.281   4.952 -1.0122 -0.7946  0.3333
  751TIP3    H2 2260   0.636   1.290   4.820  0.2655  0.5542 -0.3151
  752TIP3   OH2 2261   2.124   3.158   4.687 -0.5974 -0.5376 -0.0186
  752TIP3    H1 2262   2.175   3.227   4.645 -0.1509  0.1367  1.5516
  752TIP3    H2 2263   2.156   3.077   4.649  2.3626 -0.2152  1.5139
  753TIP3   OH2 2264   3.904   1.729   1.600  0.0738 -0.2817  0.1347
  753TIP3    H1 2265   3.892   1.639   1.629  1.3426 -0.4162  0.2909
  753TIP3    H2 2266   3.816   1.768   1.605 -1.1125 -2.2528 -2.6378
  754TIP3   OH2 2267   0.326   2.226   4.863  0.2763 -0.5582  0.2311
  754TIP3    H1 2268   0.328   2.202   4.771  0.8841 -0.3300  0.1814
  754TIP3    H2 2269   0.269   2.303   4.867  0.1094 -0.6733  0.0759
  755TIP3   OH2 2270   1.316   2.277   4.672 -0.2465 -0.5434 -0.0242
  755TIP3    H1 2271   1.257   2.213   4.712 -0.0367 -1.7721 -1.5919
  755TIP3    H2 2272   1.399   2.266   4.719 -0.9488  0.5362  1.5504
  756TIP3   OH2 2273   0.612   2.872   3.951  0.3575 -0.6214 -0.6308
  756TIP3    H1 2274   0.613   2.968   3.952  0.3736 -0.6217 -0.6262
  756TIP3    H2 2275   0.568   2.849   3.869 -0.8737 -0.5918 -0.0078
  757TIP3   OH2 2276   6.036   1.788   4.647 -0.3032  0.2478 -0.5782
  757TIP3    H1 2277   6.097   1.824   4.582  1.2952 -0.2121  0.6317
  757TIP3    H2 2278   6.052   1.839   4.726 -0.5918 -0.7135  0.1168
  758TIP3   OH2 2279   5.925   1.061   1.701  0.0863  0.1741 -0.0520
  758TIP3    H1 2280   5.919   1.128   1.633 -1.1867  0.0857 -0.0492
  758TIP3    H2 2281   5.856   0.998   1.678 -0.6558  0.3691  1.5777
  759TIP3   OH2 2282   4.866   5.721   4.517 -0.1118 -0.3204  0.6531
  759TIP3    H1 2283   4.892   5.808   4.487  0.9020 -0.6235  0.5822
  759TIP3    H2 2284   4.892   5.662   4.446 -1.5352 -0.6120  0.3429
  760TIP3   OH2 2285   3.460   3.638   4.591  0.0329  0.0972 -0.5830
  760TIP3    H1 2286   3.435   3.703   4.526  0.2920 -0.4528 -1.2429
  760TIP3    H2 2287   3.538   3.596   4.555 -0.8099 -1.3987 -0.7662
  761TIP3   OH2 2288   4.720   4.345   0.059 -0.3021 -0.3860  0.1526
  761TIP3    H1 2289   4.635   4.308   0.084 -0.9269 -0.9980 -2.6056
  761TIP3    H2 2290   4.699   4.432   0.024  0.1800 -0.5643 -0.6062
  762TIP3   OH2 2291   2.756   3.209   0.012  0.8586 -0.7693  0.4543
  762TIP3    H1 2292   2.840   3.228   0.055 -0.1135 -0.2380  2.2062
  762TIP3    H2 2293   2.700   3.177   0.082 -0.2765 -1.6387 -0.7913
  763TIP3   OH2 2294   2.800   5.423   3.502 -0.3666 -0.4386 -0.4607
  763TIP3    H1 2295   2.772   5.512   3.480 -1.1679 -0.9197 -1.4827
  763TIP3    H2 2296   2.880   5.410   3.451 -1.4733 -1.0635 -2.1273
  764TIP3   OH2 2297   1.880   2.208   4.128 -0.0068  0.1576 -0.1882
  764TIP3    H1 2298   1.804   2.168   4.170  1.0599 -1.8074  0.0180
  764TIP3    H2 2299   1.882   2.170   4.040  0.7558  0.1319 -0.1709
  765TIP3   OH2 2300   1.143   2.626   0.300  0.4172  0.2756  0.1220
  765TIP3    H1 2301   1.197   2.553   0.270  0.2692 -0.1006  0.7555
  765TIP3    H2 2302   1.142   2.618   0.395 -2.5736 -1.0937  0.1038
  766TIP3   OH2 2303   5.783   2.979   1.140 -0.0655  0.0238  0.1145
  766TIP3    H1 2304   5.814   3.064   1.169 -0.1800 -0.2292  0.9941
  766TIP3    H2 2305   5.691   2.976   1.168 -0.1003 -0.3334 -0.0307
  767TIP3   OH2 2306   0.722   2.623   5.066 -0.2485 -0.2217  0.5790
  767TIP3    H1 2307   0.716   2.569   5.145 -4.2202 -0.9150 -0.0045
  767TIP3    H2 2308   0.705   2.712   5.097  1.2967  0.0309  0.8253
  768TIP3   OH2 2309   1.429   3.077   4.434 -1.0162  0.0929 -0.2483
  768TIP3    H1 2310   1.463   2.989   4.450 -1.1467  0.0835 -0.0256
  768TIP3    H2 2311   1.423   3.117   4.521  0.2895  0.7800 -0.4443
  769TIP3   OH2 2312   2.244   1.373   2.852  0.2851 -0.1450 -0.0860
  769TIP3    H1 2313   2.215   1.402   2.765 -1.9191 -0.5335  0.4553
  769TIP3    H2 2314   2.190   1.296   2.871  0.3513  0.2388  1.8431
  770TIP3   OH2 2315   3.909   3.833   0.626  0.4805  0.3341  0.2869
  770TIP3    H1 2316   3.915   3.836   0.531 -0.1322 -1.9293  0.1187
  770TIP3    H2 2317   3.833   3.887   0.647 -0.0178 -0.0034 -0.6087
  771TIP3   OH2 2318   5.259   5.942   0.692 -0.5190 -0.1300  0.0769
  771TIP3    H1 2319   5.278   5.859   0.736  0.3614  0.4871  0.8960
  771TIP3    H2 2320   5.313   5.941   0.613  0.4196  0.1810  0.7072
  772TIP3   OH2 2321   1.823   2.841   3.218 -0.3451 -0.2223  0.7658
  772TIP3    H1 2322   1.898   2.802   3.262 -0.6226  1.0256  2.4244
  772TIP3    H2 2323   1.801   2.919   3.270  0.1566  2.1754 -2.2937
  773TIP3   OH2 2324   2.342   4.322   3.377  0.7318  0.1106  0.1070
  773TIP3    H1 2325   2.390   4.404   3.384  2.1140 -0.6460 -0.1118
  773TIP3    H2 2326   2.271   4.340   3.316  2.7095  0.4273 -2.2735
  774TIP3   OH2 2327   6.039   4.473   4.106  0.2126  0.2106  0.0536
  774TIP3    H1 2328   6.068   4.382   4.107 -0.0582  0.1172  1.1687
  774TIP3    H2 2329   5.980   4.479   4.031  0.5756 -0.4143 -0.2908
  775TIP3   OH2 2330   5.438   5.064   1.143  0.0078  0.4528 -0.3352
  775TIP3    H1 2331   5.343   5.077   1.146  0.1380  1.1572  1.4477
  775TIP3    H2 2332   5.474   5.152   1.142  0.6915  0.2284  1.7414
  776TIP3   OH2 2333   5.541   3.846   0.669 -0.3049  0.1339 -0.1414
  776TIP3    H1 2334   5.508   3.760   0.643 -1.8529  0.6246  0.0735
  776TIP3    H2 2335   5.535   3.899   0.589 -0.3654  0.3185 -0.0148
  777TIP3   OH2 2336   2.476   5.115   4.153 -0.3478  0.5211 -0.3031
  777TIP3    H1 2337   2.411   5.179   4.183 -1.8697 -0.2385 -1.8053
  777TIP3    H2 2338   2.560   5.156   4.172 -1.2337  1.5448  1.7108
  778TIP3   OH2 2339   3.390   2.004   4.727  0.0027 -0.4868  0.0803
  778TIP3    H1 2340   3.389   2.036   4.817 -0.3054  1.8499 -0.7054
  778TIP3    H2 2341   3.479   2.022   4.696 -0.5626  0.9989 -0.7998
  779TIP3   OH2 2342   3.903   1.576   3.706 -0.1374  0.0860  0.3015
  779TIP3    H1 2343   3.834   1.516   3.733 -0.3884 -0.4265 -1.3648
  779TIP3    H2 2344   3.970   1.519   3.667 -0.6732  0.8765 -1.9172
  780TIP3   OH2 2345   2.772   0.520   2.104 -0.2205 -0.3586 -0.0288
  780TIP3    H1 2346   2.728   0.464   2.168  1.9527  0.7820  2.6343
  780TIP3    H2 2347   2.850   0.472   2.078  0.2081  0.2368  0.1297
  781TIP3   OH2 2348   2.811   3.202   3.608 -0.3649  0.3074 -0.0340
  781TIP3    H1 2349   2.867   3.133   3.644 -1.4913 -1.3384 -1.2635
  781TIP3    H2 2350   2.734   3.203   3.665 -0.6827 -0.0086 -0.4440
  782TIP3   OH2 2351   4.739   4.120   3.898  0.8022  0.1284  0.2469
  782TIP3    H1 2352   4.718   4.143   3.807  0.6026 -0.9217  0.0157
  782TIP3    H2 2353   4.734   4.203   3.945 -2.3277  0.2461 -0.0985
  783TIP3   OH2 2354   0.854   4.209   4.558 -0.0439 -0.7340 -0.4085
  783TIP3    H1 2355   0.772   4.243   4.593  0.4135  0.6293 -0.5883
  783TIP3    H2 2356   0.849   4.114   4.570 -1.3713 -0.6038  0.1373
  784TIP3   OH2 2357   3.109   0.015   1.869  0.2413  0.6718 -0.4521
  784TIP3    H1 2358   3.066  -0.070   1.879  0.6929  0.3044 -1.4867
  784TIP3    H2 2359   3.066   0.072   1.934  0.3984 -0.5103  0.7291
  785TIP3   OH2 2360   1.047   1.566   3.358  0.4423 -0.2703  0.4592
  785TIP3    H1 2361   0.973   1.533   3.307  0.4973  0.1888  0.0718
  785TIP3    H2 2362   1.009   1.588   3.443  0.7535 -3.0849  1.4175
  786TIP3   OH2 2363   3.316   2.919   0.730 -0.7750 -0.4227 -0.0260
  786TIP3    H1 2364   3.322   2.837   0.779  2.1624 -0.9429 -1.0579
  786TIP3    H2 2365   3.347   2.986   0.791  3.6919 -1.1778 -1.1294
  787TIP3   OH2 2366   5.338   0.233   1.128 -0.3630 -0.2803  0.9455
  787TIP3    H1 2367   5.272   0.173   1.095 -0.3774  0.3851 -0.2941
  787TIP3    H2 2368   5.314   0.318   1.090  1.3759 -0.0859  0.1945
  788TIP3   OH2 2369   0.329   0.217   1.751  0.0644 -0.1309  0.6210
  788TIP3    H1 2370   0.281   0.207   1.669  0.5611 -0.7988  0.4014
  788TIP3    H2 2371   0.303   0.141   1.803 -0.3315  0.3487  1.1283
  789TIP3   OH2 2372   5.470   1.826   1.205 -0.5752  0.3782 -0.6209
  789TIP3    H1 2373   5.563   1.816   1.184 -0.6334  1.2899 -1.3881
  789TIP3    H2 2374   5.462   1.916   1.236 -0.8395 -0.3636  1.6018
  790TIP3   OH2 2375   4.583   3.868   1.784  0.3427  0.0972 -0.2622
  790TIP3    H1 2376   4.551   3.777   1.781 -1.4168  0.5836  1.5367
  790TIP3    H2 2377   4.675   3.860   1.810  0.7302 -1.2118 -1.8773
  791TIP3   OH2 2378   4.253   4.876   0.175  0.1678 -0.0021 -0.5744
  791TIP3    H1 2379   4.213   4.811   0.233 -1.9173  0.2744 -1.6003
  791TIP3    H2 2380   4.232   4.845   0.087  0.8510  1.0550 -1.1337
  792TIP3   OH2 2381   0.319   2.660   2.587 -0.3844  0.2129  0.0219
  792TIP3    H1 2382   0.309   2.752   2.613  1.4855  0.2632  0.6921
  792TIP3    H2 2383   0.366   2.620   2.659  0.6112 -0.8082 -1.1555
  793TIP3   OH2 2384   1.185   0.581   1.261  0.3236 -0.4510  0.0792
  793TIP3    H1 2385   1.144   0.620   1.184  1.2927 -0.0825 -0.2605
  793TIP3    H2 2386   1.248   0.646   1.291 -1.2312  0.1676  2.2479
  794TIP3   OH2 2387   6.033   5.115   0.942 -0.2375 -0.4570  0.6483
  794TIP3    H1 2388   5.945   5.079   0.937 -1.0567  1.6142 -1.5119
  794TIP3    H2 2389   6.066   5.110   0.852  2.6293 -2.7765  1.6667
  795TIP3   OH2 2390   3.236   4.821   0.495 -0.3939  0.0441 -0.2671
  795TIP3    H1 2391   3.161   4.851   0.546 -0.7769  0.2273 -0.9263
  795TIP3    H2 2392   3.227   4.865   0.410 -0.7773 -1.6234 -1.1549
  796TIP3   OH2 2393   3.333   3.749   3.376 -0.2526  0.1733  0.0154
  796TIP3    H1 2394   3.364   3.696   3.449 -0.6926  1.5346  1.2473
  796TIP3    H2 2395   3.402   3.743   3.310  0.5451 -0.4044  0.8860
  797TIP3   OH2 2396   4.835   2.412   1.681  0.0109  0.0725  0.1258
  797TIP3    H1 2397   4.833   2.454   1.767  0.5533 -1.9512  1.1984
  797TIP3    H2 2398   4.897   2.465   1.631  0.4419  0.7344  1.2991
  798TIP3   OH2 2399   5.788   3.112   5.023  0.3361 -0.2657  0.2026
  798TIP3    H1 2400   5.735   3.033   5.008  0.4426 -0.2154 -0.4887
  798TIP3    H2 2401   5.731   3.184   4.995 -0.2520  0.0278  2.0525
  799TIP3   OH2 2402   3.319   1.369   3.253  0.1641 -0.0742  0.1505
  799TIP3    H1 2403   3.265   1.319   3.192  0.6466 -0.4882  0.0525
  799TIP3    H2 2404   3.403   1.379   3.207  1.0657 -1.7221  1.3342
  800TIP3   OH2 2405   3.560   1.931   3.871  0.5307  0.2343 -0.2353
  800TIP3    H1 2406   3.505   1.924   3.793  0.5940  0.0633 -0.2647
  800TIP3    H2 2407   3.583   1.840   3.892 -2.5486 -0.1783  2.1543
  801TIP3   OH2 2408   5.994   5.145   4.421  0.4156  0.3366 -0.1108
  801TIP3    H1 2409   5.967   5.057   4.399  1.7169 -0.4105  1.0700
  801TIP3    H2 2410   6.089   5.145   4.408  0.3020  1.9491 -1.2846
  802TIP3   OH2 2411   4.001   2.598   3.098  0.1775 -0.0368  0.5083
  802TIP3    H1 2412   4.003   2.528   3.164  0.5398 -1.8592 -1.3238
  802TIP3    H2 2413   3.919   2.583   3.050  1.2102 -0.5113 -1.1889
  803TIP3   OH2 2414   2.265   2.822   0.514  0.2923 -0.0898  0.3950
  803TIP3    H1 2415   2.286   2.831   0.421  0.5820  0.1294  0.4819
  803TIP3    H2 2416   2.196   2.886   0.529 -0.2459 -0.6102  0.1746
  804TIP3   OH2 2417   0.505   1.126   4.607  0.4819 -0.2476 -0.3936
  804TIP3    H1 2418   0.598   1.104   4.609  0.6984  0.5217 -1.1902
  804TIP3    H2 2419   0.494   1.177   4.527 -0.2279  1.4292  0.7114
  805TIP3   OH2 2420   2.765   2.272   4.085 -0.1536 -0.5422  0.3424
  805TIP3    H1 2421   2.769   2.184   4.122 -1.5968 -1.4644 -1.5382
  805TIP3    H2 2422   2.853   2.288   4.052 -0.2083 -1.8585 -0.5097
  806TIP3   OH2 2423   5.322   1.120   3.572 -0.3823  0.1517  0.3252
  806TIP3    H1 2424   5.266   1.109   3.495  1.6414  1.0739 -1.4068
  806TIP3    H2 2425   5.295   1.203   3.611  0.0177  0.7993 -0.7398
  807TIP3   OH2 2426   3.684   0.434   2.473 -0.5847 -0.3949  0.0742
  807TIP3    H1 2427   3.686   0.341   2.453  0.9334 -0.4131  0.2206
  807TIP3    H2 2428   3.760   0.448   2.529 -1.1298  0.8292  0.5418
  808TIP3   OH2 2429   3.414   2.345   3.332 -0.2640  0.4284  0.1629
  808TIP3    H1 2430   3.446   2.353   3.242  0.4716 -0.0585  0.3701
  808TIP3    H2 2431   3.335   2.291   3.325  0.6553 -0.9389 -0.0330
  809TIP3   OH2 2432   5.313   0.254   3.672  0.0696  0.2062  0.5229
  809TIP3    H1 2433   5.358   0.180   3.712  0.7334  0.3034 -0.0184
  809TIP3    H2 2434   5.238   0.271   3.729 -1.4696 -2.3553 -0.5837
  810TIP3   OH2 2435   0.877   3.521   4.535 -0.5745  0.2270 -0.2279
  810TIP3    H1 2436   0.858   3.428   4.545  0.1605  0.1207  0.2497
  810TIP3    H2 2437   0.822   3.563   4.602  0.9520 -0.0998  1.3077
  811TIP3   OH2 2438   5.824   5.729   1.765 -0.1389 -0.3084  0.1819
  811TIP3    H1 2439   5.805   5.799   1.827  1.5462 -0.0748  0.4941
  811TIP3    H2 2440   5.918   5.713   1.775 -0.3436 -2.1431 -0.3818
  812TIP3   OH2 2441   4.214   4.955   3.870  0.3408 -0.0307  0.1677
  812TIP3    H1 2442   4.190   4.864   3.853 -0.0055 -0.0191  0.5863
  812TIP3    H2 2443   4.151   5.006   3.819  2.2116 -0.0147 -2.3388
  813TIP3   OH2 2444   2.814   3.624   3.157  0.3798  0.2398 -0.1080
  813TIP3    H1 2445   2.774   3.538   3.166  1.1246  0.0901  3.4380
  813TIP3    H2 2446   2.902   3.614   3.194  1.2971  2.0673 -1.5978
  814TIP3   OH2 2447   5.169   1.747   2.032  0.0775 -1.0308 -0.3996
  814TIP3    H1 2448   5.104   1.817   2.042  0.2036 -0.9177 -0.3674
  814TIP3    H2 2449   5.200   1.756   1.942  0.1324 -1.0104 -0.3787
  815TIP3   OH2 2450   5.469   5.662   3.603 -0.1682 -0.3153 -0.4177
  815TIP3    H1 2451   5.444   5.715   3.527  3.4292  0.3385 -1.3360
  815TIP3    H2 2452   5.538   5.712   3.646 -0.7785 -1.5657  2.2350
  816TIP3   OH2 2453   1.655   3.065   1.769  0.3585 -0.7599  0.2564
  816TIP3    H1 2454   1.587   3.068   1.836  0.3267 -3.2752  0.4274
  816TIP3    H2 2455   1.721   3.006   1.804  1.6635 -0.0006 -0.8074
  817TIP3   OH2 2456   5.048   3.079   2.293 -0.1610  0.1929  0.4759
  817TIP3    H1 2457   5.056   3.174   2.283  0.7172  0.3366  2.2066
  817TIP3    H2 2458   5.138   3.048   2.301 -0.3723 -0.9617 -1.1579
  818TIP3   OH2 2459   4.577   5.609   0.052  0.4799  0.3195 -0.4718
  818TIP3    H1 2460   4.551   5.518   0.069 -0.8990  0.7240 -0.2876
  818TIP3    H2 2461   4.532   5.659   0.120  2.6459  0.9936  0.5537
  819TIP3   OH2 2462   1.583   4.204   5.006 -0.3765 -0.0614  0.1866
  819TIP3    H1 2463   1.575   4.271   4.938 -0.5094 -1.5968 -1.3562
  819TIP3    H2 2464   1.520   4.137   4.982 -0.8451 -0.3920  2.1764
  820TIP3   OH2 2465   2.799   2.800   3.918 -0.1065  0.2020  0.2738
  820TIP3    H1 2466   2.876   2.780   3.972 -0.8229 -0.8442  0.9376
  820TIP3    H2 2467   2.822   2.768   3.831 -0.6273 -2.2794  0.9689
  821TIP3   OH2 2468   3.704   4.044   1.586  0.3262  0.1806 -0.0387
  821TIP3    H1 2469   3.688   4.135   1.612 -0.0496  0.3983 -0.9980
  821TIP3    H2 2470   3.640   4.027   1.516  0.1531 -0.9334  0.3595
  822TIP3   OH2 2471   3.779   0.314   3.069  1.0312 -0.3039  0.0560
  822TIP3    H1 2472   3.765   0.343   2.979  2.0155 -0.1166 -0.0494
  822TIP3    H2 2473   3.846   0.373   3.103  0.7543 -0.4549  0.8704
  823TIP3   OH2 2474   4.221   1.453   0.529  0.6351  0.3007  0.0238
  823TIP3    H1 2475   4.313   1.481   0.532  1.1043 -1.1881  2.3221
  823TIP3    H2 2476   4.223   1.366   0.489  0.2410  0.2036  0.2077
  824TIP3   OH2 2477   0.644   1.045   5.114  0.0047 -0.0624 -0.3704
  824TIP3    H1 2478   0.549   1.054   5.105 -0.1002  1.1505  1.3393
  824TIP3    H2 2479   0.660   0.951   5.116 -1.2070 -0.2757 -0.3682
  825TIP3   OH2 2480   6.350   1.228   0.998  0.0181  0.6089 -0.0045
  825TIP3    H1 2481   6.348   1.201   1.090  0.0539  2.0141  0.4271
  825TIP3    H2 2482   6.343   1.146   0.949 -1.5476 -0.0590  1.2480
  826TIP3   OH2 2483   5.647   1.034   2.028 -0.2097 -0.1427  0.1595
  826TIP3    H1 2484   5.622   1.019   2.119 -1.1748 -0.2915 -0.1254
  826TIP3    H2 2485   5.571   1.008   1.976 -0.0402  0.8692 -0.6444
  827TIP3   OH2 2486   1.015   2.967   4.444 -0.7417 -0.2266 -0.3894
  827TIP3    H1 2487   1.088   3.001   4.393 -0.8892 -0.6985 -0.9233
  827TIP3    H2 2488   1.054   2.903   4.503 -0.9724 -2.1211 -2.1825
  828TIP3   OH2 2489   2.472   2.973   3.132 -0.7699 -0.3087  0.4407
  828TIP3    H1 2490   2.378   2.958   3.147 -0.8457 -0.0991  0.1770
  828TIP3    H2 2491   2.492   3.051   3.183 -0.4721 -1.0110  1.4517
  829TIP3   OH2 2492   4.529   0.218   2.184  0.2927  0.2501 -0.2581
  829TIP3    H1 2493   4.623   0.202   2.173  0.2405  0.3512 -0.8966
  829TIP3    H2 2494   4.497   0.231   2.095 -0.2755  0.5092 -0.0187
  830TIP3   OH2 2495   3.081   5.998   4.285  0.2613 -0.0587 -0.0296
  830TIP3    H1 2496   3.167   5.956   4.287 -0.0399 -0.6859  0.6276
  830TIP3    H2 2497   3.019   5.925   4.285 -0.2744  0.3857 -0.5879
  831TIP3   OH2 2498   0.560   5.296   2.731 -0.6142 -0.3930 -0.2153
  831TIP3    H1 2499   0.638   5.297   2.787 -0.2791  1.6683 -0.6526
  831TIP3    H2 2500   0.574   5.222   2.671 -0.1844 -1.5708  1.2815
  832TIP3   OH2 2501   4.151   2.517   0.188  0.5857  0.2643 -0.1688
  832TIP3    H1 2502   4.165   2.423   0.186 -0.9959 -0.0780  1.8080
  832TIP3    H2 2503   4.071   2.531   0.137 -0.7858  0.1108  1.8188
  833TIP3   OH2 2504   5.842   1.544   2.342  0.1335 -0.3091 -0.1252
  833TIP3    H1 2505   5.928   1.579   2.365 -0.2322  0.1597  0.5868
  833TIP3    H2 2506   5.781   1.613   2.367 -0.4431 -0.5921 -0.7312
  834TIP3   OH2 2507   4.525   5.636   0.390 -0.8341  0.2873 -0.4913
  834TIP3    H1 2508   4.505   5.687   0.468 -2.1655  0.6075 -1.0280
  834TIP3    H2 2509   4.488   5.550   0.408  0.0335 -0.0431 -0.2353
  835TIP3   OH2 2510   4.453   0.430   0.972 -0.5379 -0.4529 -0.0819
  835TIP3    H1 2511   4.414   0.463   0.892 -1.2471  1.5957  1.0563
  835TIP3    H2 2512   4.407   0.347   0.989 -1.1173 -0.3749 -1.2015
  836TIP3   OH2 2513   2.590   5.152   1.028  0.2592  0.2697  0.7009
  836TIP3    H1 2514   2.618   5.125   1.116 -0.0259  1.3707  1.1522
  836TIP3    H2 2515   2.530   5.224   1.044 -0.7768 -0.3285 -0.3602
  837TIP3   OH2 2516   3.950   4.499   4.270  0.0219 -0.6204  0.1995
  837TIP3    H1 2517   4.020   4.542   4.319 -0.6137 -1.3604  1.8281
  837TIP3    H2 2518   3.980   4.500   4.179  2.9809 -2.4087  1.0209
  838TIP3   OH2 2519   5.175   2.597   4.663 -0.2375  0.3143 -0.3207
  838TIP3    H1 2520   5.190   2.507   4.691 -0.2690  0.4046 -0.0074
  838TIP3    H2 2521   5.261   2.630   4.639  0.2895  1.1655  2.4530
  839TIP3   OH2 2522   5.132   2.358   4.437  0.2224 -0.6422  0.2129
  839TIP3    H1 2523   5.046   2.320   4.454  1.1693 -2.5435  1.0926
  839TIP3    H2 2524   5.182   2.339   4.516  0.8271  2.5279  0.7195
  840TIP3   OH2 2525   3.801   1.858   1.157 -0.1970  0.1807  0.0583
  840TIP3    H1 2526   3.871   1.860   1.222 -0.2356 -0.6126  0.1254
  840TIP3    H2 2527   3.728   1.816   1.201  0.2563 -1.7594 -0.9432
  841TIP3   OH2 2528   3.319   2.682   1.269  0.3256  0.1235  0.0708
  841TIP3    H1 2529   3.333   2.588   1.256 -3.0065 -0.5850  0.7210
  841TIP3    H2 2530   3.280   2.712   1.187  0.1695  0.6461  0.3326
  842TIP3   OH2 2531   5.656   4.590   4.973  0.5770 -0.0220 -0.2205
  842TIP3    H1 2532   5.663   4.601   4.879  0.1393  1.3878 -0.1177
  842TIP3    H2 2533   5.562   4.583   4.990  0.6805 -0.8009  0.0661
  843TIP3   OH2 2534   2.372   5.001   1.535 -0.4866 -0.3292  1.0295
  843TIP3    H1 2535   2.312   4.952   1.479  1.2892 -1.0198 -0.3821
  843TIP3    H2 2536   2.390   5.082   1.486 -2.9961  1.6395  3.1039
  844TIP3   OH2 2537   2.093   4.472   2.944  0.1216 -0.0539 -0.0816
  844TIP3    H1 2538   2.014   4.473   2.889 -0.8379 -0.2399  1.2567
  844TIP3    H2 2539   2.082   4.545   3.004  1.1747  0.1618 -0.1293
  845TIP3   OH2 2540   6.085   2.329   2.096  0.1601 -0.0707  0.5246
  845TIP3    H1 2541   6.086   2.350   2.003 -1.5236  1.4633  0.8057
  845TIP3    H2 2542   6.002   2.284   2.110 -0.0281  0.5313  1.4240
  846TIP3   OH2 2543   5.443   1.677   2.454 -0.7143  0.1212 -0.4337
  846TIP3    H1 2544   5.465   1.677   2.361  0.7409 -3.2876 -0.2090
  846TIP3    H2 2545   5.501   1.743   2.492  0.7213 -0.4330 -1.5814
  847TIP3   OH2 2546   3.891   1.346   2.058 -0.1231  0.4635  0.1410
  847TIP3    H1 2547   3.966   1.365   2.114  1.0817  0.0986 -1.2833
  847TIP3    H2 2548   3.906   1.398   1.980 -0.4116 -0.9714 -0.9041
  848TIP3   OH2 2549   0.761   1.583   0.172 -0.1661 -0.0059 -0.0711
  848TIP3    H1 2550   0.856   1.578   0.161 -0.2238 -1.3019 -0.0774
  848TIP3    H2 2551   0.737   1.666   0.131  0.9203  0.1880 -0.3526
  849TIP3   OH2 2552   3.900   2.816   4.030 -0.3481 -0.1044  0.6603
  849TIP3    H1 2553   3.818   2.826   3.980  0.4639 -1.2533 -1.0117
  849TIP3    H2 2554   3.904   2.894   4.085 -0.8788  1.7693 -1.7623
  850TIP3   OH2 2555   1.758   3.080   4.208  0.0996 -0.4451  0.1211
  850TIP3    H1 2556   1.743   3.164   4.251  1.2497  0.2494 -0.7746
  850TIP3    H2 2557   1.735   3.014   4.275 -2.9188  0.4976  0.1305
  851TIP3   OH2 2558   6.290   0.660   4.016 -1.0032 -0.0537 -0.0878
  851TIP3    H1 2559   6.352   0.601   3.974 -0.4274  0.2767  0.2838
  851TIP3    H2 2560   6.296   0.640   4.109  0.2538  1.5376  0.2174
  852TIP3   OH2 2561   2.740   5.711   5.055  0.2600 -0.5910  0.1154
  852TIP3    H1 2562   2.688   5.647   5.006  1.2998 -0.1825 -1.6391
  852TIP3    H2 2563   2.830   5.697   5.023  0.8056  0.4582  1.1313
  853TIP3   OH2 2564   5.458   5.660   1.183  0.3173 -0.0582 -0.3579
  853TIP3    H1 2565   5.429   5.715   1.256 -0.5717  0.5787 -1.1696
  853TIP3    H2 2566   5.550   5.683   1.171  1.0615 -1.5650  1.7779
  854TIP3   OH2 2567   0.549   0.443   4.837 -0.4500 -0.4768  0.2662
  854TIP3    H1 2568   0.524   0.388   4.762  1.2995 -2.7915  1.2387
  854TIP3    H2 2569   0.641   0.464   4.821 -0.6927  0.9912  0.6713
  855TIP3   OH2 2570   6.107   1.454   0.332  0.4773 -0.2394 -0.0197
  855TIP3    H1 2571   6.036   1.394   0.354  0.4585  0.2188  1.2294
  855TIP3    H2 2572   6.157   1.463   0.413  1.4920  0.0911 -0.6541
  856TIP3   OH2 2573   2.661   0.074   3.049 -0.0066  0.3442 -0.1195
  856TIP3    H1 2574   2.579   0.122   3.039 -0.2220 -0.0600 -0.3097
  856TIP3    H2 2575   2.697   0.069   2.961  0.5011  1.0049  0.0459
  857TIP3   OH2 2576   3.836   4.865   3.377 -0.3725 -0.4180  0.6333
  857TIP3    H1 2577   3.764   4.885   3.437  0.4713 -0.3999  1.6790
  857TIP3    H2 2578   3.821   4.774   3.351  0.2271 -1.0467  2.3531
  858TIP3   OH2 2579   1.172   4.227   5.145  0.1798 -0.0224  0.3937
  858TIP3    H1 2580   1.259   4.187   5.148  0.3184  0.3273  1.7499
  858TIP3    H2 2581   1.188   4.321   5.158 -0.2591  0.3140 -1.3024
  859TIP3   OH2 2582   6.159   4.406   2.247 -0.1865  0.0745 -0.3466
  859TIP3    H1 2583   6.162   4.449   2.162 -0.6681 -0.9866 -0.9226
  859TIP3    H2 2584   6.210   4.326   2.236 -0.8319 -0.4219  0.1461
  860TIP3   OH2 2585   0.501   5.526   0.977  0.2585 -0.3648 -0.0805
  860TIP3    H1 2586   0.532   5.467   0.907 -0.5169 -1.0510  0.1429
  860TIP3    H2 2587   0.440   5.473   1.027  0.3642  0.3128  0.7792
  861TIP3   OH2 2588   0.413   4.066   2.688  0.1459  0.2238  0.3943
  861TIP3    H1 2589   0.475   4.132   2.720  0.1697  0.0115  0.7888
  861TIP3    H2 2590   0.444   4.044   2.600  1.1301 -0.5181  0.9186
  862TIP3   OH2 2591   0.047   0.861   4.551 -0.0132 -0.3557  0.3876
  862TIP3    H1 2592   0.052   0.936   4.611 -0.7136  0.4154 -0.4866
  862TIP3    H2 2593   0.016   0.899   4.468  1.7493 -1.2420 -0.7303
  863TIP3   OH2 2594   3.063   5.470   4.123  0.1659  0.0517  0.4288
  863TIP3    H1 2595   3.120   5.442   4.195 -0.5856 -1.8143  0.3625
  863TIP3    H2 2596   3.052   5.564   4.136  0.0098 -0.2386  2.8004
  864TIP3   OH2 2597   3.568   5.906   2.306  0.0414 -0.2394 -0.2537
  864TIP3    H1 2598   3.646   5.880   2.355  0.5886  2.8464  0.7232
  864TIP3    H2 2599   3.503   5.927   2.373 -0.0823  1.5164 -0.8600
  865TIP3   OH2 2600   3.583   4.823   2.280  0.1875  0.0330  0.3951
  865TIP3    H1 2601   3.619   4.895   2.229  0.8302  0.0728  0.8885
  865TIP3    H2 2602   3.513   4.863   2.333 -0.4690 -0.0070 -0.4277
  866TIP3   OH2 2603   4.489   1.656   1.742  0.0879 -0.4562 -0.1089
  866TIP3    H1 2604   4.394   1.667   1.750  0.1003 -0.1592 -0.3348
  866TIP3    H2 2605   4.499   1.587   1.677  0.0275 -0.1614 -0.4365
  867TIP3   OH2 2606   2.426   1.110   4.547  0.0117 -0.2384 -0.0648
  867TIP3    H1 2607   2.517   1.141   4.541 -0.0594  0.0969  0.5033
  867TIP3    H2 2608   2.401   1.128   4.638 -1.2285  1.4264 -0.6794
  868TIP3   OH2 2609   2.976   0.719   0.188 -1.1002 -0.2715  0.6082
  868TIP3    H1 2610   2.975   0.644   0.247 -1.8639 -1.6735 -1.1173
  868TIP3    H2 2611   3.065   0.721   0.152 -0.9417 -0.0299  0.9961
  869TIP3   OH2 2612   5.788   4.284   4.684  0.1596  0.4203 -0.2285
  869TIP3    H1 2613   5.770   4.190   4.677 -0.7888  0.4264  1.5343
  869TIP3    H2 2614   5.811   4.310   4.595  1.7972 -1.7148 -0.5260
  870TIP3   OH2 2615   5.280   1.945   0.010 -0.2183 -0.3547  0.2082
  870TIP3    H1 2616   5.249   2.028   0.046 -0.3654 -1.0426  1.7786
  870TIP3    H2 2617   5.203   1.905  -0.030 -1.4075 -1.7467  3.4915
  871TIP3   OH2 2618   3.021   4.319   0.326 -0.0908  0.3329 -0.2357
  871TIP3    H1 2619   3.033   4.409   0.298  1.9663  0.7139  1.6117
  871TIP3    H2 2620   3.101   4.274   0.298 -1.5200 -1.2301 -2.0605
  872TIP3   OH2 2621   0.274   4.177   2.374  0.4459  0.2722  0.4791
  872TIP3    H1 2622   0.250   4.269   2.387 -1.3036 -0.1290  0.3183
  872TIP3    H2 2623   0.295   4.171   2.280  1.2027  0.6348  0.6207
  873TIP3   OH2 2624   1.362   5.064   1.969 -0.5843  0.3967  0.0422
  873TIP3    H1 2625   1.290   5.020   2.014 -0.1509 -1.6366 -1.1265
  873TIP3    H2 2626   1.435   5.059   2.031 -0.3683 -1.1759 -0.2945
  874TIP3   OH2 2627   2.543   5.285   4.779  0.2428  0.4633 -0.3134
  874TIP3    H1 2628   2.449   5.297   4.767  0.4395  1.6761 -0.7922
  874TIP3    H2 2629   2.574   5.254   4.694  0.5073  1.7501 -0.7202
  875TIP3   OH2 2630   5.093   4.332   1.468 -0.0711  0.0944 -0.0684
  875TIP3    H1 2631   5.087   4.239   1.445 -1.1214 -0.0323  0.6320
  875TIP3    H2 2632   5.003   4.364   1.458  0.5329  1.4318 -1.8356
  876TIP3   OH2 2633   4.403   4.221   4.092  1.3790  0.3025  0.5812
  876TIP3    H1 2634   4.392   4.299   4.147 -1.5886  0.5716 -0.2290
  876TIP3    H2 2635   4.433   4.153   4.153  2.2304  1.5844  1.6574
  877TIP3   OH2 2636   0.640   4.203   4.061 -0.5804 -0.3478 -0.7028
  877TIP3    H1 2637   0.703   4.229   4.128 -0.9253 -0.1921 -0.4372
  877TIP3    H2 2638   0.558   4.191   4.109 -0.6952 -0.7959 -1.0072
  878TIP3   OH2 2639   0.107   5.647   0.415 -0.3249 -0.3672  0.2146
  878TIP3    H1 2640   0.083   5.603   0.497  0.6999  0.0196  0.7429
  878TIP3    H2 2641   0.038   5.712   0.402 -1.6204 -1.8043 -0.3473
  879TIP3   OH2 2642   0.912   2.932   2.462  0.1190  0.2590  0.1889
  879TIP3    H1 2643   0.874   2.978   2.387  0.8760  0.5988  0.0076
  879TIP3    H2 2644   0.846   2.867   2.487 -0.3590  0.5020 -0.4362
  880TIP3   OH2 2645   2.181   1.816   1.785  0.0830 -0.0680 -0.9299
  880TIP3    H1 2646   2.119   1.750   1.754  0.0106  0.2163 -1.3913
  880TIP3    H2 2647   2.154   1.834   1.875 -1.8731  1.6250 -1.7703
  881TIP3   OH2 2648   5.608   4.510   3.180 -0.3855  0.4332  0.3108
  881TIP3    H1 2649   5.667   4.586   3.181  2.5264 -1.5185 -2.4953
  881TIP3    H2 2650   5.520   4.548   3.176  0.8887  3.6300 -0.6712
  882TIP3   OH2 2651   5.553   2.414   3.867  0.0183  0.2030 -0.1411
  882TIP3    H1 2652   5.553   2.465   3.948 -1.5126  0.0712 -0.0339
  882TIP3    H2 2653   5.480   2.352   3.878  0.1699 -0.2120 -1.3739
  883TIP3   OH2 2654   4.525   3.900   2.366  0.0155  0.5557  0.5614
  883TIP3    H1 2655   4.577   3.962   2.316  0.1071 -0.9405 -1.3056
  883TIP3    H2 2656   4.587   3.832   2.392 -0.3323  0.5608  1.4527
  884TIP3   OH2 2657   4.625   0.839   1.423 -0.8651  0.1892  0.6458
  884TIP3    H1 2658   4.531   0.848   1.437 -1.0085  2.9217 -1.2942
  884TIP3    H2 2659   4.633   0.784   1.344 -0.9292  1.0597  0.0195
  885TIP3   OH2 2660   2.810   3.701   0.448  0.0916  0.0162  0.6835
  885TIP3    H1 2661   2.721   3.732   0.467  0.2830  0.5528  0.7192
  885TIP3    H2 2662   2.866   3.778   0.463  0.4691 -0.0968 -0.1209
  886TIP3   OH2 2663   4.929   4.178   2.401 -0.5140 -0.2624 -0.3926
  886TIP3    H1 2664   4.840   4.182   2.435 -1.1557  0.5998 -2.0366
  886TIP3    H2 2665   4.975   4.251   2.442 -0.4601 -0.8500  0.6377
  887TIP3   OH2 2666   1.679   3.587   4.512  0.2118 -0.0723 -0.6120
  887TIP3    H1 2667   1.612   3.597   4.444  1.0508 -0.3312 -1.5010
  887TIP3    H2 2668   1.688   3.675   4.550 -0.2374  0.0874 -0.8660
  888TIP3   OH2 2669   5.765   1.183   2.876  0.1122 -0.3080  0.0903
  888TIP3    H1 2670   5.843   1.235   2.894  0.9773 -1.6278  0.3123
  888TIP3    H2 2671   5.795   1.117   2.813 -1.1253 -0.1128 -0.7292
  889TIP3   OH2 2672   3.334   2.372   1.176  0.9894  0.4636  0.0206
  889TIP3    H1 2673   3.357   2.374   1.083 -0.3518  0.4056 -0.3234
  889TIP3    H2 2674   3.314   2.281   1.194  2.2567  0.2832  0.6500
  890TIP3   OH2 2675   1.426   3.021   0.345 -0.3364  0.2044  0.1324
  890TIP3    H1 2676   1.440   3.003   0.438  2.2410  0.0270 -0.2319
  890TIP3    H2 2677   1.502   3.072   0.318 -1.1510  0.4759 -1.8545
  891TIP3   OH2 2678   1.328   2.985   3.040 -0.1632  0.0368 -0.2205
  891TIP3    H1 2679   1.325   3.073   3.077  0.4627  0.2321 -0.6389
  891TIP3    H2 2680   1.383   2.935   3.101 -1.1310 -0.2753  0.4340
  892TIP3   OH2 2681   1.663   3.949   1.952 -0.3205 -0.5719 -0.1285
  892TIP3    H1 2682   1.604   3.874   1.966 -0.0690 -0.8131 -0.3335
  892TIP3    H2 2683   1.744   3.909   1.918  0.1685 -0.3041  0.7141
  893TIP3   OH2 2684   3.099   5.303   2.822  0.9714  0.0261  0.2952
  893TIP3    H1 2685   3.099   5.320   2.728  1.8363 -1.1115  0.0549
  893TIP3    H2 2686   3.103   5.207   2.829 -0.3354  0.0203  1.5023
  894TIP3   OH2 2687   1.623   1.692   4.326  0.0140 -0.2273 -0.1018
  894TIP3    H1 2688   1.616   1.757   4.256 -0.6946  0.2684  0.4156
  894TIP3    H2 2689   1.569   1.618   4.296  0.6237 -0.4844 -0.5794
  895TIP3   OH2 2690   5.330   4.406   0.037  0.4966  0.0859  0.2831
  895TIP3    H1 2691   5.317   4.413   0.131 -2.5115  1.5058 -0.1221
  895TIP3    H2 2692   5.267   4.339   0.009  0.4245  0.5846 -0.8288
  896TIP3   OH2 2693   6.253   0.209   4.627  0.1329  0.5367  0.7074
  896TIP3    H1 2694   6.336   0.252   4.647  0.7496 -1.3695  2.7458
  896TIP3    H2 2695   6.188   0.279   4.630  1.4258  1.7674  1.0350
  897TIP3   OH2 2696   6.080   4.948   0.405  0.0055  0.2121 -0.0729
  897TIP3    H1 2697   6.136   4.908   0.338  0.2073 -1.2863  0.9451
  897TIP3    H2 2698   6.123   5.032   0.423  1.7158 -0.6890  0.3421
  898TIP3   OH2 2699   1.392   1.043   3.498  0.2036  0.3927  0.1248
  898TIP3    H1 2700   1.313   1.095   3.518  0.1716  0.3513  0.1071
  898TIP3    H2 2701   1.372   1.002   3.414 -0.2782 -0.6311  0.7134
  899TIP3   OH2 2702   0.586   2.651   4.124  0.4933 -0.5402  0.2130
  899TIP3    H1 2703   0.632   2.730   4.096 -0.0713  0.0603  0.9095
  899TIP3    H2 2704   0.509   2.646   4.067  0.1080 -0.1272  0.6832
  900TIP3   OH2 2705   0.409   4.668   3.167  0.7231  0.5303 -0.2421
  900TIP3    H1 2706   0.322   4.685   3.130  0.6020 -1.0796 -0.7723
  900TIP3    H2 2707   0.443   4.595   3.115  0.0527 -2.7666  3.4877
  901TIP3   OH2 2708   1.044   1.126   2.479 -0.2608 -0.2979  0.5453
  901TIP3    H1 2709   1.126   1.103   2.522 -0.1539 -1.0191 -0.0344
  901TIP3    H2 2710   1.069   1.148   2.389 -1.0671 -4.1531 -0.7909
  902TIP3   OH2 2711   4.859   4.965   3.781 -0.1487 -0.0316 -0.2833
  902TIP3    H1 2712   4.918   4.934   3.851 -0.6494 -1.9086 -0.6407
  902TIP3    H2 2713   4.778   4.986   3.827  0.3049  1.1549  0.0118
  903TIP3   OH2 2714   6.021   0.374   0.906 -0.7091  0.8433  0.3033
  903TIP3    H1 2715   6.002   0.281   0.899  1.9205  0.1834  0.8589
  903TIP3    H2 2716   5.966   0.404   0.979 -0.3742 -0.6637  1.2150
  904TIP3   OH2 2717   0.250   1.372   4.477 -0.2634 -0.0594  0.4205
  904TIP3    H1 2718   0.229   1.394   4.567 -1.7831  0.9697 -0.1361
  904TIP3    H2 2719   0.165   1.351   4.437  0.1621  0.9407 -1.1150
  905TIP3   OH2 2720   0.184   4.230   0.746  0.0661 -0.1795 -0.2276
  905TIP3    H1 2721   0.172   4.231   0.651 -2.9980  1.3192  0.0386
  905TIP3    H2 2722   0.154   4.316   0.775  0.8124 -0.6291  2.1476
  906TIP3   OH2 2723   4.896   5.488   1.239 -0.2362  0.8352 -0.2887
  906TIP3    H1 2724   4.898   5.486   1.335  0.4233  0.3780 -0.3078
  906TIP3    H2 2725   4.814   5.533   1.218  0.0629  1.7887  0.4955
  907TIP3   OH2 2726   4.961   4.711   5.129  0.1429  0.1543 -0.0310
  907TIP3    H1 2727   4.916   4.667   5.057  0.7090 -1.0985  0.3578
  907TIP3    H2 2728   5.045   4.738   5.092  0.4268 -0.4747  0.1462
  908TIP3   OH2 2729   1.607   5.373   0.499 -0.4158  0.0789 -1.0266
  908TIP3    H1 2730   1.616   5.435   0.426  0.2798 -0.6628 -1.5927
  908TIP3    H2 2731   1.558   5.299   0.461  1.0039 -0.8570 -1.1237
  909TIP3   OH2 2732   0.924   0.445   0.065 -0.5363  0.1313  0.2128
  909TIP3    H1 2733   0.959   0.534   0.066 -0.8745  0.2928  2.0777
  909TIP3    H2 2734   0.830   0.456   0.075 -0.6233 -0.4213  0.0098
  910TIP3   OH2 2735   4.702   3.529   3.510 -1.0323 -0.5946 -0.3836
  910TIP3    H1 2736   4.775   3.504   3.567 -0.6164  1.8284  0.2289
  910TIP3    H2 2737   4.730   3.502   3.423  0.5958  0.2611 -0.1513
  911TIP3   OH2 2738   1.240   3.097   2.310 -0.1813  0.1291  0.2016
  911TIP3    H1 2739   1.199   3.016   2.340  0.0353  0.0430  0.2609
  911TIP3    H2 2740   1.334   3.079   2.312 -0.0146  1.0567  2.1860
  912TIP3   OH2 2741   4.748   4.286   3.076 -0.1459  0.3003 -0.0286
  912TIP3    H1 2742   4.761   4.374   3.041  0.6262 -0.2985 -1.3518
  912TIP3    H2 2743   4.820   4.235   3.037  0.0301 -0.6857  1.5307
  913TIP3   OH2 2744   3.386   2.106   0.067 -0.0822  0.6033 -0.0260
  913TIP3    H1 2745   3.291   2.108   0.052 -0.5670 -0.0978  2.4904
  913TIP3    H2 2746   3.419   2.044   0.002 -2.0508 -2.5934  1.7548
  914TIP3   OH2 2747   2.431   1.176   1.882  0.1698  0.7388  0.0356
  914TIP3    H1 2748   2.415   1.247   1.944  0.9538 -0.4040  1.5951
  914TIP3    H2 2749   2.515   1.139   1.908  0.4746  0.1356 -1.6511
  915TIP3   OH2 2750   1.158   1.113   2.174 -0.1747 -0.1522  0.2157
  915TIP3    H1 2751   1.182   1.048   2.108 -1.4106  1.1306 -1.5849
  915TIP3    H2 2752   1.143   1.193   2.125 -1.2508  0.8516  2.0580
  916TIP3   OH2 2753   2.235   5.016   4.821  0.7671 -0.3982 -0.3354
  916TIP3    H1 2754   2.283   5.020   4.904  2.0515  0.0858 -1.0698
  916TIP3    H2 2755   2.236   5.107   4.789  0.9465 -0.7083 -1.2297
  917TIP3   OH2 2756   5.953   1.054   5.150 -0.1860 -0.2133 -0.1644
  917TIP3    H1 2757   5.889   1.007   5.097  0.1128 -0.6494 -0.1413
  917TIP3    H2 2758   6.014   1.091   5.086  0.2803 -0.8952 -0.1203
  918TIP3   OH2 2759   1.533   5.441   2.812  0.7116  0.0775  0.0670
  918TIP3    H1 2760   1.454   5.490   2.832  0.2973 -0.4712 -0.1759
  918TIP3    H2 2761   1.553   5.393   2.892  2.0867  1.9007  0.8715
  919TIP3   OH2 2762   5.589   3.662   0.349  0.9556  0.5434 -0.4132
  919TIP3    H1 2763   5.514   3.719   0.369  0.1731 -0.2259 -1.0409
  919TIP3    H2 2764   5.621   3.634   0.434  1.1146  1.6216 -0.1103
  920TIP3   OH2 2765   6.061   4.898   3.510  0.2247 -0.1921  0.4825
  920TIP3    H1 2766   6.128   4.942   3.458 -0.4270 -0.4674 -0.6132
  920TIP3    H2 2767   6.075   4.805   3.493 -0.9797 -0.2240 -0.4840
  921TIP3   OH2 2768   2.482   3.197   3.268  0.1397 -0.5045 -0.0378
  921TIP3    H1 2769   2.482   3.249   3.348 -0.5327  0.4798 -0.6524
  921TIP3    H2 2770   2.412   3.235   3.214  0.0823 -1.6115 -0.7972
  922TIP3   OH2 2771   2.646   5.429   2.498 -0.1289 -0.3878 -0.5290
  922TIP3    H1 2772   2.686   5.514   2.477 -0.3857 -0.1340 -0.0120
  922TIP3    H2 2773   2.658   5.377   2.419 -1.6022  0.7340 -1.5533
  923TIP3   OH2 2774   3.773   2.594   2.961 -0.6004  0.1016 -0.4734
  923TIP3    H1 2775   3.802   2.664   2.902  0.3228  0.6694  0.6222
  923TIP3    H2 2776   3.688   2.624   2.994  0.4269  1.4459  1.0988
  924TIP3   OH2 2777   4.948   1.865   1.842 -0.1910 -0.2535  0.1250
  924TIP3    H1 2778   4.869   1.819   1.815 -0.7694 -0.1324  1.5147
  924TIP3    H2 2779   4.933   1.886   1.934  1.9593 -1.3445  0.7954
  925TIP3   OH2 2780   4.335   0.923   3.577  0.3855  0.8991 -0.1677
  925TIP3    H1 2781   4.360   0.993   3.637  1.3542  1.5809 -1.3124
  925TIP3    H2 2782   4.409   0.917   3.515 -0.0074 -0.6331 -0.5314
  926TIP3   OH2 2783   1.364   5.000   1.116  0.7973  0.0309  0.5525
  926TIP3    H1 2784   1.424   5.033   1.183  0.4818  0.3969  0.6581
  926TIP3    H2 2785   1.306   4.940   1.163 -0.3072  1.3250  0.9096
  927TIP3   OH2 2786   5.837   4.373   4.422 -0.3149  0.2408 -0.1776
  927TIP3    H1 2787   5.742   4.373   4.430 -0.2317 -1.4903  1.2741
  927TIP3    H2 2788   5.858   4.462   4.394 -2.2395  1.1296  0.9883
  928TIP3   OH2 2789   5.352   5.211   0.580  0.3381 -0.0422  0.0149
  928TIP3    H1 2790   5.389   5.224   0.667  1.1823  1.8620 -0.5752
  928TIP3    H2 2791   5.421   5.163   0.532  0.2789 -0.2238  0.1105
  929TIP3   OH2 2792   2.620   4.686   0.755  0.1614 -0.7212  0.0990
  929TIP3    H1 2793   2.543   4.659   0.805  0.5635  0.2516  1.2872
  929TIP3    H2 2794   2.585   4.711   0.669 -0.8214 -0.5048  0.5492
  930TIP3   OH2 2795   1.191   4.783   4.256 -0.4638  0.3539 -0.1610
  930TIP3    H1 2796   1.228   4.730   4.186  0.3508 -0.1386  0.6249
  930TIP3    H2 2797   1.196   4.873   4.223 -2.0536 -0.0371 -1.5831
  931TIP3   OH2 2798   4.553   4.997   2.567 -0.4541  0.0547 -0.1530
  931TIP3    H1 2799   4.603   4.963   2.641  0.0545  2.1160  0.5078
  931TIP3    H2 2800   4.613   4.990   2.492  0.1827  0.8271  0.2715
  932TIP3   OH2 2801   4.518   0.695   2.713 -0.0501 -0.1064 -0.2952
  932TIP3    H1 2802   4.546   0.787   2.717 -0.4170  0.0351 -0.8416
  932TIP3    H2 2803   4.438   0.696   2.660 -1.0888 -0.5141  1.2066
  933TIP3   OH2 2804   6.073   0.649   2.237  0.0542  0.5449  0.0482
  933TIP3    H1 2805   6.123   0.678   2.313 -0.0022  1.1359 -0.1355
  933TIP3    H2 2806   6.015   0.722   2.216  0.5614  0.6834 -0.9765
  934TIP3   OH2 2807   5.837   3.604   3.982  0.0963 -0.6125 -0.3945
  934TIP3    H1 2808   5.900   3.532   3.987 -0.1848 -0.8350  0.0018
  934TIP3    H2 2809   5.874   3.664   3.916  1.2547 -0.2239  0.5634
  935TIP3   OH2 2810   3.651   1.080   5.036  0.1079  0.1758  0.0668
  935TIP3    H1 2811   3.702   1.155   5.005  0.2476 -0.5407 -1.5057
  935TIP3    H2 2812   3.590   1.061   4.965 -1.3346  0.0397  1.2786
  936TIP3   OH2 2813   5.240   1.996   4.547 -0.5207 -0.1909  0.5276
  936TIP3    H1 2814   5.327   1.959   4.534 -0.6057 -0.6206  1.1579
  936TIP3    H2 2815   5.204   1.949   4.622 -0.9392  0.6174  0.8528
  937TIP3   OH2 2816   0.088   5.300   4.324  0.7739  0.0752 -0.2748
  937TIP3    H1 2817   0.113   5.392   4.331  0.0984  0.2156  0.4754
  937TIP3    H2 2818   0.119   5.273   4.237  1.1487  0.9514 -0.4247
  938TIP3   OH2 2819   1.798   3.105   2.096  0.2290 -0.0770  0.1546
  938TIP3    H1 2820   1.800   3.181   2.153  2.0922  1.3097 -1.6335
  938TIP3    H2 2821   1.705   3.095   2.074 -0.3807  0.0390  2.4078
  939TIP3   OH2 2822   0.907   5.454   2.149 -0.0121  0.2103  0.5470
  939TIP3    H1 2823   0.922   5.486   2.237  1.4198 -0.9536  0.7684
  939TIP3    H2 2824   0.979   5.393   2.133 -1.1685 -0.8879 -0.7844
  940TIP3   OH2 2825   0.889   0.345   3.848 -0.0348  0.0800  0.1141
  940TIP3    H1 2826   0.796   0.367   3.848  0.3810  1.9407 -0.4135
  940TIP3    H2 2827   0.890   0.250   3.835 -1.8302  0.1195 -0.6953
  941TIP3   OH2 2828   2.545   1.921   3.309  0.5766  0.0955  0.0496
  941TIP3    H1 2829   2.465   1.966   3.336  1.1767  1.5087 -0.4534
  941TIP3    H2 2830   2.589   1.900   3.391  0.0817  0.0414  0.3070
  942TIP3   OH2 2831   1.333   0.182   0.625  0.2166 -0.3435  0.2308
  942TIP3    H1 2832   1.374   0.124   0.689  0.1314 -0.5987  0.0548
  942TIP3    H2 2833   1.374   0.160   0.542 -0.1557 -0.4819  0.0839
  943TIP3   OH2 2834   0.369   3.357   3.840 -0.4807  0.5750  0.1527
  943TIP3    H1 2835   0.283   3.329   3.872  0.1846 -0.1812  1.3507
  943TIP3    H2 2836   0.404   3.280   3.795  0.1012  0.4610  0.7930
  944TIP3   OH2 2837   5.690   4.667   4.711  0.1805  0.1636 -0.0102
  944TIP3    H1 2838   5.706   4.752   4.752  1.2067  0.3719 -0.8016
  944TIP3    H2 2839   5.768   4.651   4.658  0.1879 -1.4662  0.4419
  945TIP3   OH2 2840   4.792   4.228   3.345  0.1396 -0.0522  0.5325
  945TIP3    H1 2841   4.820   4.139   3.369  1.7465  0.7405  1.7266
  945TIP3    H2 2842   4.788   4.226   3.249  3.7812 -0.4597  0.2501
  946TIP3   OH2 2843   2.665   3.201   2.331  0.5052  0.7605 -0.0543
  946TIP3    H1 2844   2.600   3.229   2.395  0.8628  0.4824  0.4368
  946TIP3    H2 2845   2.749   3.225   2.370  0.6765  1.7941 -1.0191
  947TIP3   OH2 2846   5.671   3.395   3.850 -0.5725 -0.6632  0.2608
  947TIP3    H1 2847   5.673   3.337   3.926 -0.5646 -0.8821  0.0949
  947TIP3    H2 2848   5.740   3.459   3.866 -0.7505 -0.5465  0.5642
  948TIP3   OH2 2849   0.788   1.191   1.153  0.4919 -0.2521 -0.8621
  948TIP3    H1 2850   0.738   1.239   1.087 -0.2589 -0.4955 -0.4852
  948TIP3    H2 2851   0.879   1.212   1.135  0.3003 -0.3582 -2.0092
  949TIP3   OH2 2852   4.072   1.424   3.537 -0.1880  0.0252 -0.6244
  949TIP3    H1 2853   4.111   1.430   3.450  0.2613 -1.0090 -0.5169
  949TIP3    H2 2854   4.042   1.333   3.543  0.9948 -0.3141  0.7835
  950TIP3   OH2 2855   3.004   2.192   3.051  0.5613  0.0454  0.3610
  950TIP3    H1 2856   2.911   2.184   3.030  0.4992  2.5404 -0.7317
  950TIP3    H2 2857   3.047   2.188   2.966  1.1860  1.3158  0.5920
  951TIP3   OH2 2858   5.144   3.855   3.586  0.2742  0.1102 -0.3287
  951TIP3    H1 2859   5.073   3.906   3.626 -0.2318 -2.1011  1.8252
  951TIP3    H2 2860   5.210   3.920   3.564  0.0190  1.7139  3.0010
  952TIP3   OH2 2861   4.935   0.403   1.810  0.1804  0.6028  0.2866
  952TIP3    H1 2862   4.847   0.440   1.801  0.6144  1.6871  0.3295
  952TIP3    H2 2863   4.927   0.339   1.881 -0.5165  0.8867  0.4702
  953TIP3   OH2 2864   0.385   2.069   1.347 -0.1476 -0.0549  0.3070
  953TIP3    H1 2865   0.444   2.082   1.421  0.3414  1.6002 -0.3312
  953TIP3    H2 2866   0.443   2.056   1.272 -0.6207 -0.0424 -0.0674
  954TIP3   OH2 2867   2.661   0.727   1.480  0.0678  0.1497  0.0906
  954TIP3    H1 2868   2.651   0.811   1.525  1.5819 -0.0042  0.7994
  954TIP3    H2 2869   2.574   0.707   1.445 -0.4282  1.7669  0.3310
  955TIP3   OH2 2870   0.443   2.080   2.782 -0.5494  0.5876  0.1395
  955TIP3    H1 2871   0.495   2.140   2.729  0.6864 -0.5641 -0.0091
  955TIP3    H2 2872   0.397   2.026   2.718  0.3064 -0.2619  0.2142
  956TIP3   OH2 2873   4.611   2.300   4.171  0.1486 -0.5524 -0.0290
  956TIP3    H1 2874   4.562   2.260   4.099 -2.2498  0.7011  0.7757
  956TIP3    H2 2875   4.697   2.319   4.135 -0.6957 -0.7322 -2.3034
  957TIP3   OH2 2876   3.759   2.519   0.578 -0.2233 -0.2550  0.1227
  957TIP3    H1 2877   3.852   2.535   0.560 -0.3961  1.3312  0.4929
  957TIP3    H2 2878   3.713   2.564   0.508 -0.7670  1.6626  1.6493
  958TIP3   OH2 2879   5.297   0.028   1.691  0.1228 -0.8378 -0.0747
  958TIP3    H1 2880   5.271   0.068   1.774 -0.0269  0.9063 -0.9176
  958TIP3    H2 2881   5.361  -0.039   1.716 -0.3708 -0.7745  1.4860
  959TIP3   OH2 2882   0.834   5.622   0.826  0.4762  0.4634  0.6595
  959TIP3    H1 2883   0.903   5.596   0.766  0.0709 -1.6891  1.0374
  959TIP3    H2 2884   0.800   5.539   0.861 -0.3901  1.5624  2.6152
  960TIP3   OH2 2885   1.064   5.198   0.160 -0.1003  0.5965  0.4246
  960TIP3    H1 2886   1.052   5.240   0.246  0.0871  0.2794  0.6094
  960TIP3    H2 2887   1.108   5.115   0.180  1.5479  1.2930 -0.1300
  961TIP3   OH2 2888   2.741   3.388   3.419 -0.1678 -0.3000  0.0606
  961TIP3    H1 2889   2.649   3.412   3.433 -0.2592 -1.3403  1.4946
  961TIP3    H2 2890   2.764   3.336   3.496  1.4021 -0.7156 -0.6486
  962TIP3   OH2 2891   4.460   2.194   3.954  0.3745  0.0827 -0.2075
  962TIP3    H1 2892   4.379   2.143   3.942  1.2044 -1.2510 -0.2989
  962TIP3    H2 2893   4.528   2.139   3.916  1.1202  1.9335 -1.6669
  963TIP3   OH2 2894   4.343   2.483   1.459  0.3924  0.4329 -0.2926
  963TIP3    H1 2895   4.345   2.396   1.418 -1.7810  0.0719  0.2422
  963TIP3    H2 2896   4.429   2.492   1.499  1.3038 -0.7161 -1.8475
  964TIP3   OH2 2897   0.800   4.434   0.192 -0.3783 -0.0536  0.5275
  964TIP3    H1 2898   0.842   4.352   0.220 -1.4667 -1.5350 -1.8310
  964TIP3    H2 2899   0.848   4.460   0.114 -0.6078  1.0766  0.7562
  965TIP3   OH2 2900   2.519   5.447   3.957  0.1219  0.3914  0.9166
  965TIP3    H1 2901   2.505   5.518   3.896 -0.4235 -0.6390 -0.2044
  965TIP3    H2 2902   2.611   5.453   3.981  0.4164  0.6456 -0.2410
  966TIP3   OH2 2903   3.306   4.404   3.683 -0.7621 -0.3121  0.0656
  966TIP3    H1 2904   3.392   4.410   3.641 -0.8667 -0.7636 -0.2151
  966TIP3    H2 2905   3.267   4.325   3.646 -1.4035  0.0288  0.0006
  967TIP3   OH2 2906   3.974   1.908   3.204 -0.2739  0.0766  0.4497
  967TIP3    H1 2907   4.031   1.842   3.243  0.0983 -0.7048 -1.3447
  967TIP3    H2 2908   3.898   1.912   3.263  0.0039 -1.4636  0.9431
  968TIP3   OH2 2909   0.031   2.111   3.714 -0.0316  0.2470  0.1970
  968TIP3    H1 2910   0.100   2.170   3.742 -0.2010  0.3823  0.3341
  968TIP3    H2 2911  -0.050   2.154   3.742 -0.1309 -0.3145  0.7803
  969TIP3   OH2 2912   0.660   5.845   1.476 -0.2064  0.5997  0.4320
  969TIP3    H1 2913   0.723   5.813   1.410  3.6050  2.7277  2.6557
  969TIP3    H2 2914   0.623   5.924   1.438  1.7229  1.6346  0.5322
  970TIP3   OH2 2915   1.186   3.508   4.151  0.0046  0.2592 -0.0105
  970TIP3    H1 2916   1.105   3.474   4.189  0.0613  0.1413  0.0058
  970TIP3    H2 2917   1.178   3.603   4.159  0.8296  0.2298  2.0688
  971TIP3   OH2 2918   1.826   0.234   0.944 -0.0498 -0.7952  0.4290
  971TIP3    H1 2919   1.789   0.314   0.906 -0.6744 -0.8415  0.9415
  971TIP3    H2 2920   1.761   0.166   0.927  1.1638 -1.6022 -1.4615
  972TIP3   OH2 2921   0.219   5.512   3.655 -0.5365  0.3157 -0.1380
  972TIP3    H1 2922   0.199   5.488   3.746  1.3158 -0.6312  0.0469
  972TIP3    H2 2923   0.191   5.436   3.604  1.4421 -0.5550  0.0116
  973TIP3   OH2 2924   5.221   1.946   3.451  0.0655  0.4816 -0.1017
  973TIP3    H1 2925   5.268   2.020   3.490 -1.3884  0.8727  1.0387
  973TIP3    H2 2926   5.141   1.939   3.504 -0.7909 -0.6205 -1.4825
  974TIP3   OH2 2927   2.308   4.802   3.060  0.6209  0.3964 -0.5955
  974TIP3    H1 2928   2.347   4.789   3.147 -1.8874 -0.7684  0.4580
  974TIP3    H2 2929   2.260   4.884   3.068 -0.4165 -0.1976 -0.5146
  975TIP3   OH2 2930   3.114   3.926   1.670  0.1966 -0.0950  0.0047
  975TIP3    H1 2931   3.074   3.844   1.699 -2.2786  0.6181 -1.0667
  975TIP3    H2 2932   3.208   3.907   1.667 -0.1667 -2.4733  0.9895
  976TIP3   OH2 2933   6.114   2.516   1.800 -0.2485 -0.4078 -0.0716
  976TIP3    H1 2934   6.084   2.425   1.796 -3.1618  0.4867 -1.8243
  976TIP3    H2 2935   6.043   2.563   1.843  0.7688  1.2208 -0.0897
  977TIP3   OH2 2936   2.365   4.313   5.104  0.1369  0.1853 -0.7859
  977TIP3    H1 2937   2.316   4.258   5.043  0.1844 -1.4318  0.5599
  977TIP3    H2 2938   2.333   4.402   5.087 -0.6338 -0.3517 -2.3779
  978TIP3   OH2 2939   2.464   0.883   1.108  0.6399  0.2841  0.4218
  978TIP3    H1 2940   2.490   0.973   1.128 -0.3428  0.4837  0.8708
  978TIP3    H2 2941   2.540   0.845   1.065  2.1183  0.4879  2.6609
  979TIP3   OH2 2942   4.349   3.563   4.543 -0.0261 -0.3620  0.1205
  979TIP3    H1 2943   4.306   3.559   4.458  0.3551  0.5812 -0.1378
  979TIP3    H2 2944   4.383   3.475   4.557 -1.1705 -0.8521 -0.1195
  980TIP3   OH2 2945   3.240   1.703   2.410  0.3895 -0.3085  0.2491
  980TIP3    H1 2946   3.319   1.705   2.356  0.0172  0.3728 -0.2999
  980TIP3    H2 2947   3.189   1.778   2.379 -0.4007 -0.6501  0.7006
  981TIP3   OH2 2948   4.136   4.265   3.461  0.2578  0.0877 -0.4933
  981TIP3    H1 2949   4.219   4.252   3.415  0.1920 -1.1856 -0.2803
  981TIP3    H2 2950   4.069   4.239   3.398  0.1266 -0.8360  0.0064
  982TIP3   OH2 2951   1.778   2.992   3.461 -0.5978 -0.1810  0.4268
  982TIP3    H1 2952   1.863   3.028   3.487  0.1017 -1.0365 -0.5531
  982TIP3    H2 2953   1.732   2.976   3.543  1.1341 -1.8786  1.1549
  983TIP3   OH2 2954   0.250   4.476   4.698  0.2843 -0.8066  0.2910
  983TIP3    H1 2955   0.180   4.523   4.653  0.8803 -0.0737  0.1073
  983TIP3    H2 2956   0.301   4.545   4.741  1.5673 -1.2118 -0.5288
  984TIP3   OH2 2957   4.623   2.604   3.863  0.2717  0.8442  0.0169
  984TIP3    H1 2958   4.546   2.553   3.888  0.8569 -0.3947 -0.6266
  984TIP3    H2 2959   4.682   2.598   3.938  0.9300 -0.6591 -0.5865
  985TIP3   OH2 2960   3.402   1.793   0.122  0.7438  0.0813  0.4738
  985TIP3    H1 2961   3.477   1.852   0.112  0.7629 -0.1060 -0.5656
  985TIP3    H2 2962   3.418   1.747   0.204  1.6800  0.1602  0.3374
  986TIP3   OH2 2963   2.343   0.319   4.169 -0.3249 -0.1035 -0.0637
  986TIP3    H1 2964   2.252   0.294   4.150  0.2402 -1.0879 -1.7423
  986TIP3    H2 2965   2.356   0.401   4.121 -0.6054  0.6007  1.0328
  987TIP3   OH2 2966   4.764   5.307   0.864 -0.2218  0.3336  0.3821
  987TIP3    H1 2967   4.740   5.316   0.956  1.6218  0.0167  0.9372
  987TIP3    H2 2968   4.832   5.240   0.864  2.2657  2.6773 -0.7479
  988TIP3   OH2 2969   0.890   4.493   5.115  1.2796 -0.4780 -0.2265
  988TIP3    H1 2970   0.955   4.518   5.050  3.3622 -1.7851  1.2508
  988TIP3    H2 2971   0.932   4.507   5.199 -0.6249 -0.6824  0.8344
  989TIP3   OH2 2972   4.832   0.343   2.639 -0.4360  0.0108 -0.2362
  989TIP3    H1 2973   4.779   0.297   2.574 -1.8391 -1.6108  1.8861
  989TIP3    H2 2974   4.773   0.407   2.678 -0.3814 -0.6491  1.0020
  990TIP3   OH2 2975   1.961   0.887   1.136  0.3682  0.4765 -0.5369
  990TIP3    H1 2976   2.036   0.945   1.121 -1.2310  3.3348  1.6058
  990TIP3    H2 2977   1.922   0.875   1.049  0.7927  2.6571 -1.0826
  991TIP3   OH2 2978   3.004   4.296   1.008  0.2886 -0.1058 -0.1243
  991TIP3    H1 2979   3.022   4.390   1.017  1.1666 -0.1945 -0.8331
  991TIP3    H2 2980   2.922   4.292   0.958 -0.2989  0.2788  0.7725
  992TIP3   OH2 2981   5.537   3.266   3.104  0.0563  0.0479 -0.4468
  992TIP3    H1 2982   5.445   3.239   3.112 -0.1810  1.2694  1.5527
  992TIP3    H2 2983   5.580   3.190   3.064 -1.6543 -0.8999 -0.6100
  993TIP3   OH2 2984   0.513   5.246   5.159 -0.2726  0.4979  0.3080
  993TIP3    H1 2985   0.466   5.164   5.148  0.0200 -0.0057  2.4632
  993TIP3    H2 2986   0.606   5.220   5.159  0.1310  1.4113 -3.3670
  994TIP3   OH2 2987   3.443   5.455   2.234  0.3651  0.7523  0.3195
  994TIP3    H1 2988   3.501   5.453   2.310  1.3185  1.1549 -0.3803
  994TIP3    H2 2989   3.444   5.546   2.205 -1.2201  0.9174  0.7364
  995TIP3   OH2 2990   1.669   3.198   1.466  0.0789 -0.4302 -0.6691
  995TIP3    H1 2991   1.589   3.158   1.502  0.0648 -1.0421 -1.3515
  995TIP3    H2 2992   1.638   3.252   1.393  0.2804 -0.6201 -0.8964
  996TIP3   OH2 2993   3.356   0.065   0.244  0.3855 -0.0576 -0.6114
  996TIP3    H1 2994   3.370   0.011   0.322 -1.3822 -0.1367 -0.2872
  996TIP3    H2 2995   3.413   0.141   0.256 -0.1799  0.1556  1.0117
  997TIP3   OH2 2996   3.013   2.343   0.176 -0.2835  0.6400  0.2832
  997TIP3    H1 2997   2.972   2.266   0.135 -1.8474  1.6004 -0.0683
  997TIP3    H2 2998   2.953   2.367   0.246 -0.4776  2.2303 -0.3853
  998TIP3   OH2 2999   3.335   0.192   2.247  0.3512  0.0620  0.3485
  998TIP3    H1 3000   3.355   0.176   2.155  0.4315  0.9506  0.1945
  998TIP3    H2 3001   3.421   0.192   2.290  0.4005  0.5586  0.2589
  999TIP3   OH2 3002   5.232   2.632   3.534 -0.0778  0.1667  0.6813
  999TIP3    H1 3003   5.176   2.685   3.591 -1.0699  1.5015 -1.3992
  999TIP3    H2 3004   5.179   2.556   3.511  0.0152  0.0402  0.8807
 1000TIP3   OH2 3005   0.731   2.298   2.275  0.6306 -0.3391  0.1078
 1000TIP3    H1 3006   0.823   2.312   2.252  0.8383 -2.9898 -1.1512
 1000TIP3    H2 3007   0.684   2.311   2.193 -0.0925  0.5302  0.6412
 1001TIP3   OH2 3008   0.161   2.869   1.335 -0.2150 -0.0898 -0.0313
 1001TIP3    H1 3009   0.253   2.843   1.327 -0.8015 -2.1895 -0.6459
 1001TIP3    H2 3010   0.131   2.881   1.245 -0.7381 -0.2689  0.1096
 1002TIP3   OH2 3011   4.123   4.762   2.051  0.2982 -0.1810  0.3186
 1002TIP3    H1 3012   4.028   4.763   2.058  0.3250  1.7024  0.8555
 1002TIP3    H2 3013   4.140   4.757   1.957 -0.3269 -0.4862  0.2173
 1003TIP3   OH2 3014   2.429   1.862   1.713  0.1276 -0.2219  0.0297
 1003TIP3    H1 3015   2.453   1.953   1.731  0.0892 -0.0395 -0.8077
 1003TIP3    H2 3016   2.336   1.857   1.737  0.5943 -0.5507  1.8928
 1004TIP3   OH2 3017   1.453   0.457   2.662 -0.2890 -0.5377 -0.4470
 1004TIP3    H1 3018   1.359   0.475   2.670 -0.7486 -1.0364 -3.3204
 1004TIP3    H2 3019   1.464   0.369   2.697 -0.9975 -0.6640 -0.5278
 1005TIP3   OH2 3020   1.140   0.677   1.566 -0.2109 -0.0815 -0.4500
 1005TIP3    H1 3021   1.198   0.601   1.577  0.2768 -0.0536 -2.4202
 1005TIP3    H2 3022   1.122   0.680   1.472 -0.5846  1.9893 -0.3577
 1006TIP3   OH2 3023   6.036   5.760   0.848  0.1156  0.4927 -0.2647
 1006TIP3    H1 3024   6.030   5.760   0.943 -3.9794  0.2299 -0.3609
 1006TIP3    H2 3025   6.077   5.676   0.826 -1.0313 -0.5107  1.2618
 1007TIP3   OH2 3026   1.218   2.161   3.291  0.5856 -0.1371  0.0009
 1007TIP3    H1 3027   1.236   2.255   3.297  0.6043 -0.0833 -0.7821
 1007TIP3    H2 3028   1.274   2.121   3.358 -0.2690  0.5083  1.1277
 1008TIP3   OH2 3029   2.727   5.393   2.931 -0.6803 -0.2600  0.1428
 1008TIP3    H1 3030   2.800   5.417   2.873 -2.0197  2.1409 -0.6614
 1008TIP3    H2 3031   2.766   5.389   3.018  0.4020  1.1462 -0.2460
 1009TIP3   OH2 3032   5.857   2.705   5.098  0.4609 -0.2127  0.2936
 1009TIP3    H1 3033   5.791   2.773   5.109  0.6183  0.1249 -0.7141
 1009TIP3    H2 3034   5.815   2.626   5.131 -0.1851  0.1370  0.3405
 1010TIP3   OH2 3035   4.867   0.284   1.453 -0.3534 -0.4253  0.1567
 1010TIP3    H1 3036   4.917   0.357   1.488 -0.4833  0.1212 -0.7675
 1010TIP3    H2 3037   4.933   0.223   1.420 -0.2614  0.5760 -1.6279
 1011TIP3   OH2 3038   3.820   3.194   0.124  0.2916  0.5573 -0.3273
 1011TIP3    H1 3039   3.892   3.143   0.162 -2.0588 -1.1802  2.2005
 1011TIP3    H2 3040   3.854   3.283   0.116  2.2289  0.1592  2.3375
 1012TIP3   OH2 3041   2.143   1.649   0.578 -0.0033  0.6897 -0.5110
 1012TIP3    H1 3042   2.049   1.653   0.596  0.2935 -0.4548  1.6714
 1012TIP3    H2 3043   2.150   1.587   0.505 -0.9852  1.4459 -1.2689
 1013TIP3   OH2 3044   0.935   3.144   3.712 -0.3198 -0.5738  0.5031
 1013TIP3    H1 3045   0.897   3.086   3.646 -0.9239 -0.1657  0.4869
 1013TIP3    H2 3046   1.025   3.158   3.683 -1.1576  1.3401 -1.4529
 1014TIP3   OH2 3047   0.899   5.649   0.455  0.5741 -0.0373  0.0657
 1014TIP3    H1 3048   0.951   5.578   0.492  0.7796 -0.7372 -1.4534
 1014TIP3    H2 3049   0.849   5.607   0.384 -1.6411  0.7142  1.0930
 1015TIP3   OH2 3050   2.797   4.956   2.631 -0.4088 -0.1007  0.1131
 1015TIP3    H1 3051   2.880   4.922   2.664 -0.2110 -1.2840 -1.4865
 1015TIP3    H2 3052   2.819   5.042   2.595 -0.0469 -0.0608  0.4232
 1016TIP3   OH2 3053   3.702   4.572   2.266 -0.0557 -0.4127  0.0510
 1016TIP3    H1 3054   3.644   4.640   2.232 -0.5012 -1.3709 -1.1872
 1016TIP3    H2 3055   3.773   4.620   2.309 -1.5721  0.7887  1.3212
 1017TIP3   OH2 3056   4.198   0.364   2.719  0.0757  0.3605  0.3033
 1017TIP3    H1 3057   4.259   0.320   2.660  0.7802 -1.0978  2.0333
 1017TIP3    H2 3058   4.115   0.319   2.704  0.2931 -0.1283  0.5246
 1018TIP3   OH2 3059   0.441   5.557   1.791 -0.2116  0.1209  0.4153
 1018TIP3    H1 3060   0.347   5.542   1.791 -0.1542 -0.6764 -2.2208
 1018TIP3    H2 3061   0.451   5.647   1.823 -2.0203  0.8397 -0.8729
 1019TIP3   OH2 3062   0.704   5.467   3.956  0.4751  0.4868  0.1986
 1019TIP3    H1 3063   0.788   5.460   4.001  0.7470 -3.2808 -0.5668
 1019TIP3    H2 3064   0.720   5.431   3.869 -1.8000  0.2060 -0.1680
 1020TIP3   OH2 3065   4.291   3.520   0.138 -0.6000 -0.5880  0.0672
 1020TIP3    H1 3066   4.275   3.552   0.049  1.0761 -1.2170 -0.5013
 1020TIP3    H2 3067   4.281   3.425   0.132  4.2141 -1.3046 -0.7425
 1021TIP3   OH2 3068   0.874   4.968   0.777 -0.3488 -0.4711  0.1360
 1021TIP3    H1 3069   0.918   4.885   0.757  0.3921  0.5695 -3.1020
 1021TIP3    H2 3070   0.944   5.033   0.777 -1.0843  0.3653  1.4931
 1022TIP3   OH2 3071   0.649   2.292   0.879  0.5548  0.3079  0.3281
 1022TIP3    H1 3072   0.562   2.315   0.846  0.0787 -0.8332  0.7459
 1022TIP3    H2 3073   0.669   2.360   0.943 -0.7547 -0.3092  1.4353
 1023TIP3   OH2 3074   2.434   0.089   4.351 -0.0183 -0.3384  0.5529
 1023TIP3    H1 3075   2.409   0.096   4.259  2.2779 -1.4707 -0.2360
 1023TIP3    H2 3076   2.399   0.005   4.380 -0.9354  0.1207  0.7969
 1024TIP3   OH2 3077   6.229   3.974   3.453 -0.9313  0.0435  0.0843
 1024TIP3    H1 3078   6.318   3.958   3.483 -0.3430  0.3225 -1.4242
 1024TIP3    H2 3079   6.197   4.045   3.509 -0.9649 -1.3740  1.9623
 1025TIP3   OH2 3080   3.489   3.796   0.922 -0.0801 -0.3999 -0.3136
 1025TIP3    H1 3081   3.414   3.842   0.884  0.4279  0.9846  0.2935
 1025TIP3    H2 3082   3.506   3.842   1.004 -0.2400 -2.4083  0.9241
 1026TIP3   OH2 3083   0.621   2.485   4.341  0.1492  1.0425  0.4267
 1026TIP3    H1 3084   0.534   2.511   4.370 -1.8501 -3.2696 -1.0720
 1026TIP3    H2 3085   0.632   2.526   4.255 -1.6998 -0.5519 -0.6340
 1027TIP3   OH2 3086   4.814   2.989   3.766  0.0323 -0.5796  0.2540
 1027TIP3    H1 3087   4.776   2.903   3.749 -1.1956 -0.4405  2.0538
 1027TIP3    H2 3088   4.857   2.980   3.851  1.1136  0.2287 -0.1807
 1028TIP3   OH2 3089   6.172   3.256   2.692 -0.0989  0.0667 -0.3760
 1028TIP3    H1 3090   6.187   3.163   2.706 -1.3772  0.1074  1.7504
 1028TIP3    H2 3091   6.246   3.299   2.736 -0.9246  0.0573  1.1047
 1029TIP3   OH2 3092   3.961   0.122   0.579 -0.3966  0.3191 -0.0498
 1029TIP3    H1 3093   3.966   0.032   0.611 -0.3519  1.0041  2.0548
 1029TIP3    H2 3094   3.977   0.116   0.485  1.9164 -1.6431  0.3747
 1030TIP3   OH2 3095   6.331   0.440   2.489  0.1905 -0.0779  0.5837
 1030TIP3    H1 3096   6.279   0.406   2.417  0.8961 -0.6730  0.3447
 1030TIP3    H2 3097   6.415   0.463   2.450  0.4060  0.0729  1.1192
 1031TIP3   OH2 3098   4.837   3.212   2.650  0.0793  0.4133 -0.2782
 1031TIP3    H1 3099   4.742   3.203   2.653  0.1737 -0.4330  1.5534
 1031TIP3    H2 3100   4.866   3.140   2.593 -0.3667  0.9235 -1.1773
 1032TIP3   OH2 3101   0.933   5.950   4.098  0.0405  0.9322 -0.2923
 1032TIP3    H1 3102   0.893   5.936   4.184  2.7702  1.0032  1.0774
 1032TIP3    H2 3103   0.874   6.011   4.055 -1.9252  0.1584  1.1065
 1033TIP3   OH2 3104   6.182   4.448   0.230  0.0796  0.4194 -0.3379
 1033TIP3    H1 3105   6.239   4.525   0.223  0.7219 -0.1901 -3.1110
 1033TIP3    H2 3106   6.243   4.374   0.234 -0.5146 -0.0833 -0.3705
 1034TIP3   OH2 3107   0.405   2.278   0.526 -0.0148 -0.1921 -0.0437
 1034TIP3    H1 3108   0.451   2.250   0.447  0.9446 -0.8154  0.7104
 1034TIP3    H2 3109   0.335   2.215   0.537  1.2396 -1.4952  0.8323
 1035TIP3   OH2 3110   1.935  -0.029   4.131  0.4894  0.3623  0.0712
 1035TIP3    H1 3111   2.027  -0.010   4.111  0.3900  0.7941  0.0126
 1035TIP3    H2 3112   1.886   0.040   4.087  0.1663  0.4344  0.5329
 1036TIP3   OH2 3113   0.301   5.629   4.553 -0.1214 -0.3948  0.0271
 1036TIP3    H1 3114   0.355   5.649   4.630 -0.9009  0.7947  0.2802
 1036TIP3    H2 3115   0.311   5.534   4.542 -2.3605 -1.2059  3.4335
 1037TIP3   OH2 3116   2.419   2.898   1.915 -0.3223 -0.1578  0.2420
 1037TIP3    H1 3117   2.401   2.899   2.009 -0.0790 -0.0609  0.2879
 1037TIP3    H2 3118   2.479   2.971   1.902 -0.8342  0.2161 -0.0846
 1038TIP3   OH2 3119   4.493   1.167   0.203  0.5722  0.3694  0.4757
 1038TIP3    H1 3120   4.586   1.155   0.188 -0.0771 -1.4129 -3.7597
 1038TIP3    H2 3121   4.473   1.254   0.168  0.3981 -0.0742 -0.5619
 1039TIP3   OH2 3122   0.718   4.639   2.826  0.1987 -0.2678 -0.0800
 1039TIP3    H1 3123   0.637   4.646   2.776  1.1027  0.0829 -1.5876
 1039TIP3    H2 3124   0.708   4.559   2.877 -2.5237  1.5554  2.6135
 1040TIP3   OH2 3125  -0.024   1.878   4.635  0.3721  0.1708 -0.3923
 1040TIP3    H1 3126   0.068   1.866   4.614  0.9221  1.9772  0.7823
 1040TIP3    H2 3127  -0.028   1.961   4.681 -2.0038  0.6351 -1.2776
 1041TIP3   OH2 3128   0.752   3.525   0.064 -0.6116  0.1141  0.1969
 1041TIP3    H1 3129   0.681   3.579   0.028  0.9422  1.8926 -0.3742
 1041TIP3    H2 3130   0.792   3.484  -0.012  0.9579  1.7048  0.1038
 1042TIP3   OH2 3131   6.038   0.133   1.923 -0.1224  0.1169 -0.2922
 1042TIP3    H1 3132   6.045   0.122   2.018 -1.8424  1.0122 -0.0263
 1042TIP3    H2 3133   5.968   0.197   1.911  1.2172  1.3703 -2.1188
 1043TIP3   OH2 3134   0.725   5.035   1.001 -0.7558  0.1952 -0.9688
 1043TIP3    H1 3135   0.716   4.945   1.032  2.1271 -0.1297 -0.7561
 1043TIP3    H2 3136   0.766   5.027   0.915  1.5347  1.2423 -0.0700
 1044TIP3   OH2 3137   3.426   4.041   5.140 -0.9492 -0.2847  0.1254
 1044TIP3    H1 3138   3.435   4.102   5.067  0.6949 -1.3301 -0.5966
 1044TIP3    H2 3139   3.357   4.080   5.195  0.6167  2.6934  0.1828
 1045TIP3   OH2 3140   0.526   2.567   3.673  0.0677 -0.0431 -0.2407
 1045TIP3    H1 3141   0.606   2.608   3.705  0.1978  0.9552 -1.7215
 1045TIP3    H2 3142   0.538   2.473   3.689  0.8255  0.2437  0.9912
 1046TIP3   OH2 3143   2.275   0.541   0.963  0.4482 -0.0318 -0.1873
 1046TIP3    H1 3144   2.228   0.622   0.946  0.7091  0.0949 -0.3141
 1046TIP3    H2 3145   2.207   0.475   0.975  0.2102  0.4752  1.3393
 1047TIP3   OH2 3146   0.639   1.641   0.474  0.2498 -0.2985  0.2904
 1047TIP3    H1 3147   0.649   1.610   0.384  0.9689 -1.0278  0.6178
 1047TIP3    H2 3148   0.701   1.714   0.481 -0.8143  0.6964 -0.2113
 1048TIP3   OH2 3149   1.598   4.926   0.677 -0.3979  0.6650 -0.1945
 1048TIP3    H1 3150   1.538   4.959   0.744 -0.7442  0.2551 -0.2949
 1048TIP3    H2 3151   1.573   4.834   0.666  1.2292  0.0326  0.8558
 1049TIP3   OH2 3152   5.994   5.213   2.637  0.6761 -0.2001 -0.1770
 1049TIP3    H1 3153   6.052   5.141   2.664  0.7133 -0.5865 -1.2490
 1049TIP3    H2 3154   6.054   5.283   2.610  0.6472  0.4519  1.3336
 1050TIP3   OH2 3155   0.588   0.696   1.425  0.1480  0.3929 -0.0540
 1050TIP3    H1 3156   0.539   0.731   1.351 -0.1968  0.4545  0.2010
 1050TIP3    H2 3157   0.572   0.602   1.423  0.2995  0.3686 -0.1721
 1051TIP3   OH2 3158   3.800   5.505   1.262  0.4829  0.5079 -0.4351
 1051TIP3    H1 3159   3.853   5.460   1.197 -1.5810  0.0967 -1.9462
 1051TIP3    H2 3160   3.786   5.592   1.226 -0.7118  0.2647 -0.6173
 1052TIP3   OH2 3161   4.233   3.724   0.544 -0.0045 -0.3060  0.4989
 1052TIP3    H1 3162   4.168   3.713   0.474  0.1035 -1.0559  0.5123
 1052TIP3    H2 3163   4.261   3.815   0.536  0.3359 -0.4986 -0.7323
 1053TIP3   OH2 3164   5.158   5.504   2.879  0.4460 -0.7398 -0.1298
 1053TIP3    H1 3165   5.220   5.506   2.951  1.2662  1.2583 -0.8205
 1053TIP3    H2 3166   5.177   5.422   2.833  3.0366  0.0695 -0.6703
 1054TIP3   OH2 3167   6.147   4.069   3.205  0.1901  0.2886 -0.0109
 1054TIP3    H1 3168   6.171   4.049   3.295 -0.1009 -1.2641 -0.2465
 1054TIP3    H2 3169   6.057   4.037   3.196  0.7730 -1.1618 -1.2798
 1055TIP3   OH2 3170   3.339   5.603   2.680  0.1263 -0.4383  0.0614
 1055TIP3    H1 3171   3.427   5.625   2.651  0.5994  1.2224  2.4475
 1055TIP3    H2 3172   3.299   5.560   2.605  2.7166 -0.6225 -1.3275
 1056TIP3   OH2 3173   1.848   1.916   2.004  0.0565  0.2844 -0.1469
 1056TIP3    H1 3174   1.888   1.832   1.980  0.0782  0.5270 -1.0070
 1056TIP3    H2 3175   1.902   1.982   1.960 -0.5039  0.6891 -0.2446
 1057TIP3   OH2 3176   3.707   2.680   3.639 -0.0123 -0.2390  0.2485
 1057TIP3    H1 3177   3.657   2.600   3.628  0.4680 -0.4676 -0.3230
 1057TIP3    H2 3178   3.744   2.674   3.727 -0.1234 -0.5646  0.2724
 1058TIP3   OH2 3179   1.115   2.635   3.694 -0.9691  0.0959  0.1139
 1058TIP3    H1 3180   1.099   2.541   3.679 -1.5287  0.1630  0.2650
 1058TIP3    H2 3181   1.044   2.679   3.648 -0.9631  0.4294  0.4202
 1059TIP3   OH2 3182   5.114   5.010   3.610  0.5318 -0.1045  0.5348
 1059TIP3    H1 3183   5.128   5.075   3.541  0.4943 -0.0636  0.5650
 1059TIP3    H2 3184   5.020   5.016   3.630  0.0974 -1.5954 -0.8900
 1060TIP3   OH2 3185   4.763   3.363   3.298  0.0112  0.4934 -0.8448
 1060TIP3    H1 3186   4.711   3.286   3.320 -0.5230  0.7229 -1.2697
 1060TIP3    H2 3187   4.838   3.328   3.250  1.6803 -0.1115  1.9748
 1061TIP3   OH2 3188   3.917   4.213   2.915 -0.1361 -0.4354 -0.3247
 1061TIP3    H1 3189   3.901   4.135   2.968 -0.3980 -1.0121 -1.2250
 1061TIP3    H2 3190   3.926   4.179   2.825  1.0630  0.4238 -0.5563
 1062TIP3   OH2 3191   2.401   3.994   1.212 -0.5321  0.0600  0.5349
 1062TIP3    H1 3192   2.374   3.923   1.153  1.8102 -1.4135  1.0812
 1062TIP3    H2 3193   2.458   4.049   1.158  0.0596 -0.2061  0.8692
 1063TIP3   OH2 3194   1.183   3.481   2.645  0.2565 -0.6939 -0.0314
 1063TIP3    H1 3195   1.190   3.428   2.566 -0.2221 -0.9164  0.0733
 1063TIP3    H2 3196   1.234   3.560   2.625 -0.0920 -0.6241 -0.6663
 1064TIP3   OH2 3197   0.968   5.678   4.938 -0.4755 -0.2518 -0.4081
 1064TIP3    H1 3198   1.036   5.745   4.933 -0.0030 -0.7775 -1.2117
 1064TIP3    H2 3199   0.962   5.657   5.032 -0.0594  0.3295 -0.2457
 1065TIP3   OH2 3200   2.520   4.235   3.205 -0.0638  0.4404 -0.5438
 1065TIP3    H1 3201   2.441   4.230   3.259 -0.0232 -0.6163 -0.5666
 1065TIP3    H2 3202   2.487   4.251   3.116 -0.2301  0.3453 -0.5004
 1066TIP3   OH2 3203   5.526   4.935   3.861  0.0799  0.4997 -0.7089
 1066TIP3    H1 3204   5.472   5.003   3.820  0.3481  0.5962 -0.9066
 1066TIP3    H2 3205   5.520   4.861   3.801  0.1316  0.4940 -0.7065
 1067TIP3   OH2 3206   0.475   1.152   1.055  0.1445  0.4895 -0.2606
 1067TIP3    H1 3207   0.423   1.124   0.980  1.3985  1.1765 -1.4333
 1067TIP3    H2 3208   0.544   1.207   1.017  0.7430  0.9488  1.4130
 1068TIP3   OH2 3209   3.595   2.697   0.926  0.0074 -0.4448  0.2431
 1068TIP3    H1 3210   3.609   2.612   0.884 -0.7903  0.1317 -1.2494
 1068TIP3    H2 3211   3.626   2.760   0.862 -0.8645  0.4560  0.6851
 1069TIP3   OH2 3212   1.301   5.070   4.436  0.3250 -0.3743  0.2047
 1069TIP3    H1 3213   1.373   5.008   4.451  0.8788  0.0122 -0.7478
 1069TIP3    H2 3214   1.287   5.067   4.341  1.5389  2.1885 -0.1482
 1070TIP3   OH2 3215   3.004   4.495   1.227 -0.7981 -0.5197  0.0266
 1070TIP3    H1 3216   2.923   4.545   1.218 -0.2739  0.7896  1.9320
 1070TIP3    H2 3217   3.054   4.542   1.293  0.9660 -2.0355 -0.1409
 1071TIP3   OH2 3218   4.849   4.302   4.873 -0.5153 -0.6144  0.2724
 1071TIP3    H1 3219   4.862   4.264   4.786  0.1072 -0.4051  0.2686
 1071TIP3    H2 3220   4.852   4.227   4.932  0.9520 -0.5867  0.2874
 1072TIP3   OH2 3221   4.060   0.826   2.763  0.2320  0.2804 -0.1180
 1072TIP3    H1 3222   3.992   0.785   2.818  0.9795 -0.6751  0.1356
 1072TIP3    H2 3223   4.079   0.908   2.807 -1.9093  1.3858 -1.0970
 1073TIP3   OH2 3224   6.233   2.947   4.734 -0.3224 -0.4373  0.3827
 1073TIP3    H1 3225   6.291   3.019   4.711 -0.8842  0.2912  1.1829
 1073TIP3    H2 3226   6.151   2.989   4.758 -0.1506 -1.1830  2.5132
 1074TIP3   OH2 3227   1.788   1.237   5.094 -0.2188 -0.2032  0.3756
 1074TIP3    H1 3228   1.764   1.158   5.142  1.5277 -1.4427 -0.6457
 1074TIP3    H2 3229   1.718   1.247   5.029 -0.7894 -0.5381  0.9263
 1075TIP3   OH2 3230   1.817   2.752   4.712 -0.4285  0.5370 -0.6345
 1075TIP3    H1 3231   1.808   2.795   4.798  0.1534  1.8525 -1.2014
 1075TIP3    H2 3232   1.901   2.707   4.717 -1.5236 -1.5419  0.3502
 1076TIP3   OH2 3233   1.505   2.351   2.989 -0.1033  0.4169  0.0475
 1076TIP3    H1 3234   1.531   2.350   2.897  1.1289  0.2066  0.3874
 1076TIP3    H2 3235   1.482   2.442   3.007 -0.0325  0.5185 -0.3736
 1077TIP3   OH2 3236   3.717   5.051   4.408 -0.0834 -0.0253 -0.7191
 1077TIP3    H1 3237   3.631   5.080   4.380 -0.1450 -0.7701 -1.3251
 1077TIP3    H2 3238   3.778   5.115   4.371 -0.3174  0.1017 -0.8842
 1078TIP3   OH2 3239   3.550   1.351   4.060  0.4533  0.4187 -0.1694
 1078TIP3    H1 3240   3.530   1.258   4.069  2.8003 -0.1027  0.1416
 1078TIP3    H2 3241   3.615   1.354   3.990  0.7823  1.7780  0.1825
 1079TIP3   OH2 3242   2.029   2.837   3.397 -0.4886  0.6105  0.1017
 1079TIP3    H1 3243   2.006   2.891   3.473 -1.7373  0.5931 -0.2353
 1079TIP3    H2 3244   1.991   2.751   3.416  0.2873  0.2376  0.0117
 1080TIP3   OH2 3245   0.159   3.725   3.758  0.1598 -0.1347  0.2866
 1080TIP3    H1 3246   0.165   3.783   3.683  4.1897 -2.2448 -1.3167
 1080TIP3    H2 3247   0.232   3.751   3.815 -0.0169 -1.4741  1.1798
 1081TIP3   OH2 3248   5.395   0.602   1.209  0.1594 -0.4870  0.2685
 1081TIP3    H1 3249   5.355   0.578   1.125  0.2355 -0.7024  0.2922
 1081TIP3    H2 3250   5.358   0.540   1.272 -0.1694 -0.0972  0.4623
 1082TIP3   OH2 3251   0.469   4.759   2.198 -0.7960 -0.5033  0.0049
 1082TIP3    H1 3252   0.489   4.851   2.187 -1.1933 -0.2597  1.1753
 1082TIP3    H2 3253   0.465   4.724   2.109  0.9491  0.2465 -0.3973
 1083TIP3   OH2 3254   2.241   5.522   4.838  0.2735  0.0114 -0.1930
 1083TIP3    H1 3255   2.249   5.591   4.904 -2.7116  0.0444  0.2584
 1083TIP3    H2 3256   2.221   5.569   4.757  0.8505 -0.2036 -0.4648
 1084TIP3   OH2 3257   2.338   3.109   0.611 -0.0950  0.3723 -0.8042
 1084TIP3    H1 3258   2.246   3.089   0.592 -1.2161  2.7802  1.5018
 1084TIP3    H2 3259   2.359   3.055   0.687  0.4746 -0.2538 -1.3903
 1085TIP3   OH2 3260   4.066   5.695   1.613  0.1135 -0.6506 -0.1683
 1085TIP3    H1 3261   3.978   5.704   1.576  0.3701  1.4438 -0.3951
 1085TIP3    H2 3262   4.055   5.718   1.705  0.6730  1.4554 -0.5739
 1086TIP3   OH2 3263   1.452   2.286   4.407  0.1540  0.0006 -0.0848
 1086TIP3    H1 3264   1.485   2.372   4.381 -0.2793 -0.2235 -1.4307
 1086TIP3    H2 3265   1.400   2.304   4.485  1.9295  0.6113  1.0322
 1087TIP3   OH2 3266   2.589   2.734   4.498 -0.4364  0.4636  0.1236
 1087TIP3    H1 3267   2.542   2.762   4.420 -0.2115 -2.7078 -1.2919
 1087TIP3    H2 3268   2.653   2.803   4.513 -1.2320  1.7134 -1.8040
 1088TIP3   OH2 3269   0.812   3.950   0.973  0.5185 -0.5703 -0.0783
 1088TIP3    H1 3270   0.868   4.022   0.944 -0.8250  0.6168  0.1518
 1088TIP3    H2 3271   0.739   3.949   0.911 -1.2606  0.5835  1.8499
 1089TIP3   OH2 3272   2.353   1.890   4.739 -0.2817 -0.4653  0.4622
 1089TIP3    H1 3273   2.307   1.945   4.676 -0.0869 -0.3664  0.4067
 1089TIP3    H2 3274   2.343   1.801   4.706  1.0171 -0.2855 -0.4665
 1090TIP3   OH2 3275   3.915   5.088   3.150 -0.0607 -0.4854  0.1682
 1090TIP3    H1 3276   3.837   5.099   3.206  0.2965  1.3718  0.3682
 1090TIP3    H2 3277   3.988   5.088   3.212  0.2751  0.6430 -0.2159
 1091TIP3   OH2 3278   4.643   4.153   4.350  0.1537 -0.1148 -0.3395
 1091TIP3    H1 3279   4.558   4.114   4.330 -0.7821  1.6347 -0.0058
 1091TIP3    H2 3280   4.624   4.223   4.412  2.0995 -0.8293  1.1749
 1092TIP3   OH2 3281   1.668   1.072   3.530  0.3456 -0.3538 -0.4705
 1092TIP3    H1 3282   1.578   1.041   3.530  0.1991 -0.7805  4.3816
 1092TIP3    H2 3283   1.721   0.993   3.517  0.0456 -0.4509 -1.1279
 1093TIP3   OH2 3284   3.715   4.112   4.512  0.4098 -0.6731 -0.1039
 1093TIP3    H1 3285   3.730   4.153   4.427 -0.5799 -1.5828 -0.7431
 1093TIP3    H2 3286   3.750   4.023   4.503  3.2322  0.1452  1.5096
 1094TIP3   OH2 3287   1.726   0.159   4.759  0.4892  0.1757 -0.2149
 1094TIP3    H1 3288   1.734   0.195   4.670  3.3940  0.4674  0.0717
 1094TIP3    H2 3289   1.666   0.085   4.750  1.0496 -0.0640 -2.5017
 1095TIP3   OH2 3290   1.536   1.738   0.136 -0.1698 -0.3472  0.4129
 1095TIP3    H1 3291   1.609   1.745   0.075 -1.1368 -0.5948 -0.8289
 1095TIP3    H2 3292   1.545   1.651   0.175 -1.0813 -1.3996 -1.5402
 1096TIP3   OH2 3293   2.442   5.569   2.051 -0.0175 -0.0657 -0.1421
 1096TIP3    H1 3294   2.423   5.486   2.096  1.5234 -0.3256  0.0751
 1096TIP3    H2 3295   2.459   5.631   2.122  1.8185 -0.3293 -0.3030
 1097TIP3   OH2 3296   6.375   4.888   3.664  0.1116  0.0883  0.0537
 1097TIP3    H1 3297   6.316   4.953   3.626 -0.2616  1.4427  2.7008
 1097TIP3    H2 3298   6.321   4.840   3.727  1.0677 -0.8989  0.1501
 1098TIP3   OH2 3299   0.775   5.158   5.162  0.5749 -0.6294 -0.7397
 1098TIP3    H1 3300   0.798   5.199   5.079  0.3486  0.7509 -0.1588
 1098TIP3    H2 3301   0.856   5.163   5.214  0.3373 -0.2513 -0.4064
 1099TIP3   OH2 3302   4.584   0.369   1.404  0.6176  0.0400  0.1465
 1099TIP3    H1 3303   4.678   0.357   1.421  0.4616 -1.9906 -0.1480
 1099TIP3    H2 3304   4.550   0.280   1.394 -0.8685  0.7698 -2.2734
 1100TIP3   OH2 3305   1.821   3.784   1.399 -0.6021 -0.1330 -0.1098
 1100TIP3    H1 3306   1.837   3.757   1.308  0.7464 -1.4795  0.4694
 1100TIP3    H2 3307   1.893   3.844   1.419 -0.7248 -0.0750  0.1610
 1101TIP3   OH2 3308   4.494   1.395   3.285 -0.0520  0.0389 -0.0864
 1101TIP3    H1 3309   4.481   1.443   3.203  2.6224  0.8684 -0.1202
 1101TIP3    H2 3310   4.569   1.338   3.267  0.8968  0.5955  1.9198
 1102TIP3   OH2 3311   0.242   4.810   4.592  0.2149  0.3702  0.1124
 1102TIP3    H1 3312   0.159   4.788   4.636  0.5237 -0.5757  0.2486
 1102TIP3    H2 3313   0.309   4.788   4.657  0.5801  0.9404 -0.0723
 1103TIP3   OH2 3314   5.727   5.061   0.596  0.2533 -0.6534  0.5528
 1103TIP3    H1 3315   5.685   5.054   0.510  0.5955  0.9792  0.2143
 1103TIP3    H2 3316   5.655   5.072   0.657  0.0594 -0.7483  0.3429
 1104TIP3   OH2 3317   3.711   2.194   4.192 -0.0283 -0.0960  0.5960
 1104TIP3    H1 3318   3.632   2.244   4.212  0.6865  2.4053 -2.1144
 1104TIP3    H2 3319   3.777   2.227   4.254  0.2245  1.9057 -0.6408
 1105TIP3   OH2 3320   0.409   3.665   0.868 -0.2517 -0.5984  0.0470
 1105TIP3    H1 3321   0.321   3.644   0.898 -1.0433  2.6734  0.3141
 1105TIP3    H2 3322   0.400   3.679   0.774  0.0893 -0.7264 -0.0062
 1106TIP3   OH2 3323   4.005   3.158   3.550  0.4019 -0.4322 -0.6923
 1106TIP3    H1 3324   4.044   3.197   3.628 -2.7540  1.3323  0.2009
 1106TIP3    H2 3325   4.026   3.065   3.556  2.5548  0.0740  0.7381
 1107TIP3   OH2 3326   5.462   1.857   3.708 -0.1505  0.1779 -0.7205
 1107TIP3    H1 3327   5.525   1.786   3.697 -0.5047 -0.1369 -0.7699
 1107TIP3    H2 3328   5.497   1.909   3.781  0.9387  0.8811 -1.7157
 1108TIP3   OH2 3329   2.207   1.257   4.239 -0.6048 -0.1631 -0.8653
 1108TIP3    H1 3330   2.289   1.290   4.200 -1.7428  2.0271 -1.6091
 1108TIP3    H2 3331   2.201   1.167   4.209  0.6495  0.1825 -2.3216
 1109TIP3   OH2 3332   2.149   2.138   2.743 -0.0439  0.0769 -0.1586
 1109TIP3    H1 3333   2.143   2.206   2.676  0.3308  0.8105  0.5328
 1109TIP3    H2 3334   2.059   2.130   2.777 -0.6480 -1.6067 -1.9646
 1110TIP3   OH2 3335   2.491   3.042   4.474 -0.3830 -0.4301  0.4188
 1110TIP3    H1 3336   2.460   2.967   4.422 -2.0110 -0.0427  0.7739
 1110TIP3    H2 3337   2.417   3.064   4.530 -0.0084  1.5585  0.1987
 1111TIP3   OH2 3338   0.388   4.459   3.942 -0.6776  0.2693 -0.0853
 1111TIP3    H1 3339   0.348   4.501   3.866 -3.2446 -0.2562  0.8749
 1111TIP3    H2 3340   0.316   4.447   4.004  0.7577 -1.8039  1.3326
 1112TIP3   OH2 3341   5.952   3.471   4.295 -0.1545 -0.1825 -0.0832
 1112TIP3    H1 3342   5.938   3.564   4.278  0.6415 -0.2007 -0.9913
 1112TIP3    H2 3343   5.869   3.439   4.328 -0.6017  0.7456 -0.2803
 1113TIP3   OH2 3344   1.270   1.818   0.879  0.7851 -0.1114 -0.3686
 1113TIP3    H1 3345   1.227   1.878   0.819 -2.5020 -1.1506  0.6901
 1113TIP3    H2 3346   1.359   1.809   0.846 -0.0068  1.6261 -3.2911
 1114TIP3   OH2 3347   4.943   0.925   0.633 -0.2183  0.5216 -0.0071
 1114TIP3    H1 3348   4.866   0.955   0.584 -0.3326  2.0773  1.0543
 1114TIP3    H2 3349   4.970   0.845   0.588 -2.7168 -0.3401 -0.1506
 1115TIP3   OH2 3350   2.730   3.121   4.035  0.2203 -0.3981  0.2875
 1115TIP3    H1 3351   2.668   3.077   4.093 -0.6806 -0.6412 -0.8184
 1115TIP3    H2 3352   2.696   3.104   3.947  1.6701 -0.2393 -0.3342
 1116TIP3   OH2 3353   5.889   2.004   2.794 -0.1717 -0.0300  0.1025
 1116TIP3    H1 3354   5.898   2.095   2.765  0.5574  0.0217  0.4643
 1116TIP3    H2 3355   5.948   1.997   2.869  0.0760 -0.9015 -0.1597
 1117TIP3   OH2 3356   0.298   2.648   1.479 -0.1270 -0.2833  0.4479
 1117TIP3    H1 3357   0.276   2.673   1.390 -0.2221 -0.8284  0.3118
 1117TIP3    H2 3358   0.357   2.573   1.469  0.0995 -0.1597  0.8359
 1118TIP3   OH2 3359   3.850   2.005   0.935 -0.1448 -0.4832 -0.4927
 1118TIP3    H1 3360   3.934   1.981   0.898 -0.1490 -1.0624 -0.1441
 1118TIP3    H2 3361   3.843   1.953   1.016 -1.1227 -0.9692 -0.8620
 1119TIP3   OH2 3362   2.053   3.588   1.672  0.2912 -0.0480  0.1663
 1119TIP3    H1 3363   1.988   3.533   1.628 -1.5097  1.4342  0.8014
 1119TIP3    H2 3364   2.135   3.539   1.666 -0.8570 -1.9759 -0.7603
 1120TIP3   OH2 3365   1.119   0.804   3.611  0.1434 -0.0565 -0.2397
 1120TIP3    H1 3366   1.169   0.838   3.686 -2.1636 -1.2111  1.9697
 1120TIP3    H2 3367   1.061   0.876   3.587 -0.2584 -0.2302  0.1936
 1121TIP3   OH2 3368   2.781   2.361   0.387 -0.7733  0.6334  0.0242
 1121TIP3    H1 3369   2.824   2.293   0.438 -1.6937  1.1636  1.5500
 1121TIP3    H2 3370   2.738   2.315   0.315  1.8766  0.0280 -1.3222
 1122TIP3   OH2 3371   3.522   2.291   0.269 -0.0762  0.3033 -0.5616
 1122TIP3    H1 3372   3.498   2.336   0.350  4.4589  0.9765  0.7241
 1122TIP3    H2 3373   3.516   2.359   0.202 -2.3720  0.1461 -0.6044
 1123TIP3   OH2 3374   5.520   1.061   0.697  0.0796 -0.1179  0.1543
 1123TIP3    H1 3375   5.611   1.092   0.699 -0.0074  0.3665  3.5957
 1123TIP3    H2 3376   5.522   0.987   0.637  2.3101  1.0200 -1.3244
 1124TIP3   OH2 3377   3.484   1.179   1.579 -0.5386 -0.2033  0.0789
 1124TIP3    H1 3378   3.447   1.097   1.546  0.7646 -0.8586  0.1929
 1124TIP3    H2 3379   3.410   1.223   1.623 -0.8998 -2.1051  1.4994
 1125TIP3   OH2 3380   6.173   5.496   1.894  0.7195  0.1053 -0.3747
 1125TIP3    H1 3381   6.219   5.462   1.818  0.0681  0.4302 -0.9196
 1125TIP3    H2 3382   6.181   5.427   1.960  2.0669  0.2047 -0.4180
 1126TIP3   OH2 3383   5.554   1.851   0.847  0.3895 -0.3601  0.0346
 1126TIP3    H1 3384   5.649   1.837   0.842  0.6300  0.9806  0.3932
 1126TIP3    H2 3385   5.517   1.791   0.782  1.5959  0.1018 -1.1160
 1127TIP3   OH2 3386   3.288   4.145   3.617 -0.3577  0.0750  1.2861
 1127TIP3    H1 3387   3.345   4.108   3.684 -1.2795  0.0718  2.0985
 1127TIP3    H2 3388   3.321   4.110   3.535  1.1388  0.5087  1.6650
 1128TIP3   OH2 3389   4.824   4.977   5.120  0.3745  0.0275  0.0538
 1128TIP3    H1 3390   4.909   4.981   5.076  0.3728 -3.3466 -0.5216
 1128TIP3    H2 3391   4.828   4.896   5.172 -1.0395  1.8553  3.3700
 1129TIP3   OH2 3392   3.956   3.570   2.746 -0.4051  0.3644  0.4308
 1129TIP3    H1 3393   3.906   3.607   2.674 -0.4145  1.2802  0.9033
 1129TIP3    H2 3394   3.955   3.637   2.814 -1.7890 -1.1001  1.9599
 1130TIP3   OH2 3395   0.637   4.927   4.925 -0.0211 -0.3592  0.2047
 1130TIP3    H1 3396   0.548   4.905   4.953  0.0581 -0.7756  0.1312
 1130TIP3    H2 3397   0.625   4.972   4.841 -0.1296 -0.9029 -0.0749
 1131TIP3   OH2 3398   4.223   0.720   1.334  0.2078 -0.4384 -0.1982
 1131TIP3    H1 3399   4.136   0.689   1.359  0.3405  0.0997  0.9877
 1131TIP3    H2 3400   4.278   0.641   1.332  0.5536 -0.3766  2.7958
 1132TIP3   OH2 3401   0.981   5.373   4.062 -0.0903 -0.7109 -0.3539
 1132TIP3    H1 3402   1.042   5.443   4.037 -1.8475  1.3954  0.9831
 1132TIP3    H2 3403   0.966   5.326   3.980 -0.0992  1.4851 -1.7204
 1133TIP3   OH2 3404   0.546   1.751   3.429 -0.2706 -0.3824  0.5274
 1133TIP3    H1 3405   0.492   1.684   3.469  0.2140 -1.0403  0.0917
 1133TIP3    H2 3406   0.506   1.767   3.343 -1.6026  1.3786  1.3976
 1134TIP3   OH2 3407   4.440   3.454   3.560  0.7416  1.0273 -0.6396
 1134TIP3    H1 3408   4.405   3.521   3.619  0.1312 -1.5666  2.2085
 1134TIP3    H2 3409   4.533   3.477   3.551  0.2243  3.1620 -1.2158
 1135TIP3   OH2 3410   1.839   1.480   4.783 -0.1313  0.3061 -0.0096
 1135TIP3    H1 3411   1.772   1.414   4.801  0.2330 -0.0132  0.1842
 1135TIP3    H2 3412   1.905   1.434   4.732  0.4941  0.3136  0.7691
 1136TIP3   OH2 3413   3.738   0.587   4.713 -0.1153  0.5826  0.1321
 1136TIP3    H1 3414   3.764   0.526   4.645  2.1086  1.6754 -0.1063
 1136TIP3    H2 3415   3.681   0.537   4.770 -0.6626 -0.8506 -1.5957
 1137TIP3   OH2 3416   1.228   5.440   4.334  0.4701  0.5870  0.2495
 1137TIP3    H1 3417   1.211   5.515   4.391  1.2052  1.1251 -0.2224
 1137TIP3    H2 3418   1.147   5.388   4.337  0.1995  1.0424  1.1076
 1138TIP3   OH2 3419   5.018   4.058   1.475  0.3265  0.1623  0.0021
 1138TIP3    H1 3420   4.961   4.059   1.551 -0.1275  0.9325 -0.3369
 1138TIP3    H2 3421   5.022   3.966   1.448  0.3347 -0.0842  0.8283
 1139TIP3   OH2 3422   5.498   0.540   4.019 -0.2415 -0.1993  0.4775
 1139TIP3    H1 3423   5.536   0.500   4.097  0.5152  1.8773  1.2481
 1139TIP3    H2 3424   5.499   0.471   3.953  0.1096 -1.6876  1.9824
 1140TIP3   OH2 3425   1.315   3.861   0.782  0.1588 -0.2118 -0.4586
 1140TIP3    H1 3426   1.255   3.786   0.777 -0.1996  0.0043  0.3962
 1140TIP3    H2 3427   1.401   3.822   0.799  0.1630 -0.4877 -1.0873
 1141TIP3   OH2 3428   1.376   2.452   3.571 -0.5655 -0.3805  0.0022
 1141TIP3    H1 3429   1.308   2.476   3.634  1.3259  1.7956  1.4241
 1141TIP3    H2 3430   1.436   2.397   3.621 -0.1758 -0.4657 -0.5567
 1142TIP3   OH2 3431   4.847   0.976   3.164  0.1081 -0.1976 -0.2688
 1142TIP3    H1 3432   4.880   0.960   3.076  2.4500  0.0621  0.4934
 1142TIP3    H2 3433   4.879   0.902   3.215 -0.2924  0.2141  0.6008
 1143TIP3   OH2 3434   4.969   4.046   2.663  0.4984 -0.4353 -0.3971
 1143TIP3    H1 3435   5.051   4.018   2.704  0.3018  0.3096  0.5349
 1143TIP3    H2 3436   4.995   4.109   2.596  0.8090 -1.5444 -1.3633
 1144TIP3   OH2 3437   1.744   0.412   1.950  0.1761  0.5582  0.2927
 1144TIP3    H1 3438   1.702   0.498   1.949  1.1356  1.0521 -1.1376
 1144TIP3    H2 3439   1.759   0.392   1.858  0.2154 -1.0398  0.6170
 1145TIP3   OH2 3440   0.529   4.673   1.904  0.4830  0.5594 -0.3532
 1145TIP3    H1 3441   0.513   4.580   1.887 -0.3238  0.5408  0.4235
 1145TIP3    H2 3442   0.612   4.692   1.860 -0.3364 -0.0184 -2.2522
 1146TIP3   OH2 3443   1.989   2.531   0.917  0.2349 -0.1544 -0.4370
 1146TIP3    H1 3444   1.979   2.607   0.860 -0.0607 -0.4116 -0.7338
 1146TIP3    H2 3445   2.070   2.489   0.889 -0.7208 -1.1946 -1.7785
 1147TIP3   OH2 3446   4.484   3.966   4.573 -0.2446 -0.0531 -0.2253
 1147TIP3    H1 3447   4.551   3.992   4.636  0.2260  0.2617 -0.8376
 1147TIP3    H2 3448   4.427   4.043   4.565 -0.6105 -0.2728  0.1921
 1148TIP3   OH2 3449   2.744   0.525   1.168  0.6303  0.6187  0.4227
 1148TIP3    H1 3450   2.797   0.460   1.123  0.0885 -0.5826  1.4682
 1148TIP3    H2 3451   2.663   0.531   1.116  0.3732 -0.1044  0.7338
 1149TIP3   OH2 3452   4.406   2.544   0.118 -0.5049  0.1120  0.5302
 1149TIP3    H1 3453   4.312   2.558   0.131 -0.4153 -0.2574  1.6982
 1149TIP3    H2 3454   4.435   2.622   0.070 -1.7306 -0.6593 -1.6021
 1150TIP3   OH2 3455   1.984   0.385   3.275  0.1320  0.0962  0.4196
 1150TIP3    H1 3456   1.931   0.305   3.274 -0.4220  0.4500  0.7688
 1150TIP3    H2 3457   2.043   0.376   3.200  0.4290 -0.8715  0.7476
 1151TIP3   OH2 3458   5.448   4.707   4.030 -0.5172 -0.3321  0.1374
 1151TIP3    H1 3459   5.485   4.779   3.979  1.3386 -1.7145 -0.5924
 1151TIP3    H2 3460   5.414   4.646   3.964 -0.6184 -0.8576  0.6644
 1152TIP3   OH2 3461   4.639   2.668   0.594 -0.2596 -0.1290  0.5324
 1152TIP3    H1 3462   4.577   2.655   0.666 -2.4508 -2.2146 -1.5560
 1152TIP3    H2 3463   4.716   2.617   0.619 -1.2385 -1.3717  1.1405
 1153TIP3   OH2 3464   2.934   5.333   1.198  0.1753  0.3731 -0.4369
 1153TIP3    H1 3465   2.868   5.401   1.185  0.7046  0.8820 -0.4869
 1153TIP3    H2 3466   2.891   5.252   1.168 -0.0148  0.8889 -1.6034
 1154TIP3   OH2 3467   0.210   4.395   1.648  0.4483 -0.7341 -0.5717
 1154TIP3    H1 3468   0.226   4.482   1.686 -2.4152  1.6489 -4.1529
 1154TIP3    H2 3469   0.137   4.360   1.698  1.1831 -0.8426  0.4611
 1155TIP3   OH2 3470   4.290   1.448   2.411 -0.4085 -0.2078 -0.1660
 1155TIP3    H1 3471   4.378   1.429   2.445  0.0678 -2.6223 -2.4777
 1155TIP3    H2 3472   4.231   1.417   2.479  0.5021 -1.0074  0.2834
 1156TIP3   OH2 3473   0.675   1.763   4.465  0.7447  0.2225 -0.3136
 1156TIP3    H1 3474   0.734   1.814   4.519 -2.7552  2.4945  1.7769
 1156TIP3    H2 3475   0.641   1.695   4.523  0.1015 -0.0275 -0.9524
 1157TIP3   OH2 3476   1.994   4.214   4.166 -0.1045  0.2716  0.3077
 1157TIP3    H1 3477   2.057   4.274   4.205 -0.5470  0.2345  1.0892
 1157TIP3    H2 3478   2.001   4.134   4.218 -1.0539  0.3941  0.6366
 1158TIP3   OH2 3479   0.428   1.416   4.871 -0.5308 -0.2991 -0.1171
 1158TIP3    H1 3480   0.453   1.454   4.787 -1.6912  0.6542 -0.0703
 1158TIP3    H2 3481   0.403   1.492   4.925 -3.1525 -1.0748 -0.0829
 1159TIP3   OH2 3482   4.918   2.833   2.103  0.2790  0.0765  0.1543
 1159TIP3    H1 3483   4.901   2.928   2.100  1.5520  0.2789 -1.8368
 1159TIP3    H2 3484   4.986   2.823   2.170  0.0240  0.5221  0.4899
 1160TIP3   OH2 3485   5.319   5.761   4.249  0.6339  0.2487 -0.0657
 1160TIP3    H1 3486   5.386   5.693   4.247  0.0737 -0.3086 -0.2506
 1160TIP3    H2 3487   5.367   5.842   4.265  1.2633 -0.2493  0.6241
 1161TIP3   OH2 3488   6.261   5.737   0.573  0.6782 -0.5494 -0.2639
 1161TIP3    H1 3489   6.170   5.707   0.570 -0.4640  2.5252 -3.3899
 1161TIP3    H2 3490   6.309   5.662   0.609 -2.8910 -2.6428  0.7662
 1162TIP3   OH2 3491   3.145   5.643   3.098 -0.1726 -0.5229  0.5972
 1162TIP3    H1 3492   3.066   5.691   3.124  0.1221 -0.8565  2.2396
 1162TIP3    H2 3493   3.210   5.668   3.163  0.4736 -1.8410  0.4874
 1163TIP3   OH2 3494   0.356   5.073   4.549 -0.1060  0.1977 -0.3707
 1163TIP3    H1 3495   0.334   4.982   4.526 -1.2865  0.1965  0.6485
 1163TIP3    H2 3496   0.386   5.068   4.640  1.3458  0.6419 -0.7921
 1164TIP3   OH2 3497   2.139   4.087   3.598 -0.1370 -0.6340 -0.8015
 1164TIP3    H1 3498   2.208   4.085   3.531  2.1628  0.5201  1.3825
 1164TIP3    H2 3499   2.164   4.020   3.661 -2.6019 -2.1372 -1.2933
 1165TIP3   OH2 3500   0.959   3.350   3.288  0.6009  0.7072 -0.0129
 1165TIP3    H1 3501   0.868   3.370   3.309  0.3780  0.8254 -1.0576
 1165TIP3    H2 3502   0.955   3.289   3.214  1.3658  0.9332 -0.2596
 1166TIP3   OH2 3503   3.849   4.572   0.427 -0.0009  0.0784 -0.3115
 1166TIP3    H1 3504   3.939   4.557   0.456  0.2280  0.0472 -1.0245
 1166TIP3    H2 3505   3.836   4.512   0.353 -0.7634 -0.2530  0.0774
 1167TIP3   OH2 3506   2.546   2.421   4.142 -0.2545 -0.0994 -0.2749
 1167TIP3    H1 3507   2.494   2.391   4.217 -0.0494 -1.7705 -0.7429
 1167TIP3    H2 3508   2.616   2.355   4.135  0.6792  0.9290 -0.9515
 1168TIP3   OH2 3509   5.920   4.156   4.192 -0.2166 -0.4063  0.0758
 1168TIP3    H1 3510   5.977   4.084   4.165 -0.6831 -0.8143  0.1643
 1168TIP3    H2 3511   5.861   4.168   4.117  0.6718  0.7334 -0.4576
 1169TIP3   OH2 3512   4.094   5.791   5.129  0.1433  0.4528 -0.5801
 1169TIP3    H1 3513   4.109   5.729   5.200  0.1604 -0.8394 -1.6892
 1169TIP3    H2 3514   4.149   5.761   5.057 -0.0322  1.6114 -1.2345
 1170TIP3   OH2 3515   1.151   0.339   0.190 -0.8588 -0.1793 -0.4133
 1170TIP3    H1 3516   1.071   0.371   0.149 -1.1239  0.5033  0.5885
 1170TIP3    H2 3517   1.120   0.289   0.266 -0.3511 -0.1255 -0.1673
 1171TIP3   OH2 3518   1.340   0.874   0.174 -0.0951  0.2403  0.1429
 1171TIP3    H1 3519   1.334   0.928   0.095 -0.3665 -0.5688 -0.4060
 1171TIP3    H2 3520   1.434   0.870   0.193  0.1365 -0.7759 -1.0329
 1172TIP3   OH2 3521   1.808   0.333   1.694 -0.5301  0.2414 -0.4358
 1172TIP3    H1 3522   1.783   0.241   1.683 -0.9786  0.2534  0.3969
 1172TIP3    H2 3523   1.903   0.333   1.684 -0.6402 -0.0954 -1.7896
 1173TIP3   OH2 3524   4.125   2.789   0.256  0.1456  0.0067  0.6634
 1173TIP3    H1 3525   4.179   2.776   0.335  0.8575 -1.1902  0.0105
 1173TIP3    H2 3526   4.110   2.701   0.222  0.2518  0.5256 -0.8014
 1174TIP3   OH2 3527   4.944   5.837   1.249 -0.3740  0.0436  0.1648
 1174TIP3    H1 3528   4.918   5.817   1.339  0.9883 -2.7026  0.0479
 1174TIP3    H2 3529   4.864   5.828   1.199 -0.7011 -0.8244  0.8090
 1175TIP3   OH2 3530   4.968   5.965   3.186  0.2013 -0.8773  0.2426
 1175TIP3    H1 3531   4.905   5.909   3.140 -0.5126  0.5969 -0.6421
 1175TIP3    H2 3532   5.025   5.999   3.117 -1.4957  2.1620  0.1779
 1176TIP3   OH2 3533   2.637   1.479   0.504 -0.2353 -0.1201  0.0974
 1176TIP3    H1 3534   2.660   1.444   0.418 -1.5392 -0.3557 -0.1818
 1176TIP3    H2 3535   2.695   1.434   0.565 -0.2094 -0.9492 -0.5255
 1177TIP3   OH2 3536   3.220   1.779   0.995  0.1330  0.2932  0.0570
 1177TIP3    H1 3537   3.280   1.802   1.065 -0.1265 -0.9609  0.7241
 1177TIP3    H2 3538   3.273   1.730   0.932  0.1800  0.6817 -0.2094
 1178TIP3   OH2 3539   3.401   5.526   3.427 -0.4027 -0.1446  0.3896
 1178TIP3    H1 3540   3.477   5.583   3.441 -0.2082  0.4101 -2.3160
 1178TIP3    H2 3541   3.325   5.583   3.439 -0.3815 -0.3666  1.7304
 1179TIP3   OH2 3542   5.710   5.338   2.181  0.1167  0.2953 -0.1289
 1179TIP3    H1 3543   5.709   5.364   2.089  0.6363  0.2604 -0.1485
 1179TIP3    H2 3544   5.635   5.383   2.220 -0.4189 -0.0942 -0.6749
 1180TIP3   OH2 3545   6.262   1.515   0.553 -0.7328 -0.1132 -0.1846
 1180TIP3    H1 3546   6.297   1.585   0.498 -1.3294 -0.5047 -1.1091
 1180TIP3    H2 3547   6.307   1.524   0.637 -0.3888  1.0151 -0.4760
 1181TIP3   OH2 3548   5.995   0.533   4.149  0.9100  0.3554  0.2398
 1181TIP3    H1 3549   6.048   0.486   4.083  0.9028  1.7087 -0.7654
 1181TIP3    H2 3550   6.008   0.482   4.229  3.0811  0.1549 -0.1536
 1182TIP3   OH2 3551   4.028   2.003   4.381 -0.1798 -0.0184 -0.0061
 1182TIP3    H1 3552   4.110   1.954   4.371  0.8955  1.8322 -0.9614
 1182TIP3    H2 3553   3.973   1.973   4.308 -1.1085 -2.4975  1.5962
 1183TIP3   OH2 3554   1.041   1.561   0.152 -0.3205  0.3287 -0.1949
 1183TIP3    H1 3555   1.057   1.533   0.062 -0.1866  0.9815 -0.3822
 1183TIP3    H2 3556   1.128   1.567   0.191 -0.4367 -0.9831  0.3094
 1184TIP3   OH2 3557   5.067   3.265   2.781 -1.0400  0.1639  0.0353
 1184TIP3    H1 3558   5.072   3.339   2.719 -0.8639  1.1594  1.1995
 1184TIP3    H2 3559   4.991   3.216   2.752 -1.8797  1.4702 -0.0878
 1185TIP3   OH2 3560   2.595   4.735   2.127  0.2553  0.0014 -0.1299
 1185TIP3    H1 3561   2.579   4.763   2.037  0.2003  0.6937  0.0895
 1185TIP3    H2 3562   2.558   4.647   2.131  0.9403 -0.3439 -0.9943
 1186TIP3   OH2 3563   2.541   1.896   4.143 -0.1365 -0.1365 -0.1964
 1186TIP3    H1 3564   2.631   1.905   4.111  0.3668 -1.9118  0.6213
 1186TIP3    H2 3565   2.492   1.964   4.096  1.1917 -0.5387 -2.3100
 1187TIP3   OH2 3566   3.809   1.994   1.800  0.8435 -0.0432  0.3306
 1187TIP3    H1 3567   3.730   2.024   1.846  1.0390 -1.6829  1.8195
 1187TIP3    H2 3568   3.776   1.959   1.717  0.3265  1.6197 -0.2077
 1188TIP3   OH2 3569   3.796   1.500   3.366 -0.0944  0.7665 -0.3002
 1188TIP3    H1 3570   3.842   1.551   3.433  0.9512 -0.6308  0.0873
 1188TIP3    H2 3571   3.858   1.495   3.293  0.2194 -0.7531  0.0455
 1189TIP3   OH2 3572   0.824   5.381   4.933 -0.2769  0.0937 -0.2333
 1189TIP3    H1 3573   0.869   5.464   4.949 -1.0748  0.6247 -0.6858
 1189TIP3    H2 3574   0.895   5.318   4.920  0.4702  1.4457 -3.7756
 1190TIP3   OH2 3575   5.883   3.618   0.369  0.0479  0.5045 -0.5211
 1190TIP3    H1 3576   5.879   3.677   0.444 -0.0464 -2.1787  1.7587
 1190TIP3    H2 3577   5.796   3.624   0.329 -1.3697 -0.8837  2.0789
 1191TIP3   OH2 3578   1.820   4.059   2.316 -0.1206 -0.0616 -0.1235
 1191TIP3    H1 3579   1.783   4.104   2.240  2.7159 -1.4271 -2.5962
 1191TIP3    H2 3580   1.807   3.966   2.296  0.5674 -0.4422  1.1334
 1192TIP3   OH2 3581   5.552   5.902   4.401  0.2988  0.2010 -0.2364
 1192TIP3    H1 3582   5.534   5.913   4.495 -1.1853  2.9940 -0.7557
 1192TIP3    H2 3583   5.628   5.957   4.384  1.2491 -1.1542 -0.5304
 1193TIP3   OH2 3584   3.533   2.803   0.128 -0.0082 -0.3092 -0.8646
 1193TIP3    H1 3585   3.458   2.803   0.069 -0.0704  0.7356 -0.8102
 1193TIP3    H2 3586   3.499   2.839   0.210  0.5439  0.1654 -0.8369
 1194TIP3   OH2 3587   5.752   1.507   4.367 -0.3949 -0.0578 -0.2005
 1194TIP3    H1 3588   5.767   1.416   4.394 -0.6196 -0.9593 -2.8095
 1194TIP3    H2 3589   5.814   1.558   4.419  0.6775 -1.8655  0.3876
 1195TIP3   OH2 3590   0.662   5.550   4.583  0.2301 -0.3006  0.0683
 1195TIP3    H1 3591   0.635   5.491   4.513 -0.7711 -0.7916  0.8421
 1195TIP3    H2 3592   0.646   5.638   4.547  0.9105 -0.5122 -0.7662
 1196TIP3   OH2 3593   3.465   5.534   4.921  0.1739 -0.8840  0.5882
 1196TIP3    H1 3594   3.371   5.514   4.928 -0.0849 -0.0176 -0.1692
 1196TIP3    H2 3595   3.482   5.593   4.994  0.4813 -2.1718  1.6023
 1197TIP3   OH2 3596   3.536   4.444   0.084  0.2386 -0.0233 -0.1084
 1197TIP3    H1 3597   3.445   4.441   0.054 -0.1626 -1.0744  1.1334
 1197TIP3    H2 3598   3.588   4.435   0.004 -0.7126  1.4707 -0.9376
 1198TIP3   OH2 3599   3.790   5.339   3.512  0.3824 -0.0023 -0.0306
 1198TIP3    H1 3600   3.789   5.393   3.591 -0.3360  1.3166 -0.8965
 1198TIP3    H2 3601   3.863   5.373   3.460 -0.6732  0.8362 -1.0193
 1199TIP3   OH2 3602   4.067   1.691   2.740 -0.1948 -0.2177 -0.1364
 1199TIP3    H1 3603   4.007   1.735   2.800  0.0129 -0.1562  0.0255
 1199TIP3    H2 3604   4.015   1.676   2.661 -1.1213 -2.1850  0.7709
 1200TIP3   OH2 3605   3.053   0.572   0.898  0.6221  0.1808 -0.5604
 1200TIP3    H1 3606   2.992   0.504   0.926 -1.1463  1.3145 -1.4550
 1200TIP3    H2 3607   3.093   0.539   0.818 -0.0791  0.0975 -0.8801
 1201TIP3   OH2 3608   2.775   2.248   2.523  0.1475 -0.3431  0.2577
 1201TIP3    H1 3609   2.829   2.318   2.486 -0.6008  1.3595  2.1911
 1201TIP3    H2 3610   2.810   2.237   2.611 -0.7480 -1.3479  0.4911
 1202TIP3   OH2 3611   4.190   2.336   0.516  0.1999  0.3611  0.2305
 1202TIP3    H1 3612   4.267   2.377   0.477  0.0636 -0.8637 -1.4124
 1202TIP3    H2 3613   4.225   2.272   0.578  0.5123  0.0748 -0.2332
 1203TIP3   OH2 3614   3.297   0.921   3.723  0.1467 -0.3618 -0.3797
 1203TIP3    H1 3615   3.349   0.995   3.753  1.5060 -1.4246 -0.0317
 1203TIP3    H2 3616   3.216   0.926   3.774  2.0142 -1.6191  2.9662
 1204TIP3   OH2 3617   0.477   1.901   0.436 -0.3249 -0.2213  0.2699
 1204TIP3    H1 3618   0.485   1.907   0.341 -1.8984  0.0621  0.1356
 1204TIP3    H2 3619   0.501   1.810   0.456 -0.3553 -0.3870 -0.4259
 1205TIP3   OH2 3620   2.130   2.860   2.219  0.1260 -0.3595 -0.5950
 1205TIP3    H1 3621   2.149   2.820   2.134 -0.2683  0.3184 -1.0091
 1205TIP3    H2 3622   2.039   2.890   2.212  0.0526 -0.3925  0.1050
 1206TIP3   OH2 3623   0.139   2.392   1.452  0.3872 -0.0551  0.7333
 1206TIP3    H1 3624   0.149   2.483   1.478  2.5744  0.9298 -2.8168
 1206TIP3    H2 3625   0.216   2.348   1.487 -0.2320 -0.3803  1.7188
 1207TIP3   OH2 3626   1.565   5.582   1.136 -0.6218 -0.1823  0.4952
 1207TIP3    H1 3627   1.638   5.519   1.132  0.7947  1.3776  0.4775
 1207TIP3    H2 3628   1.566   5.624   1.050 -0.7667  0.6906  0.9205
 1208TIP3   OH2 3629   0.484   4.411   1.837 -0.4212 -0.2110  0.5954
 1208TIP3    H1 3630   0.474   4.316   1.838  1.6019 -0.5132 -0.8774
 1208TIP3    H2 3631   0.454   4.438   1.750 -1.2289  0.5508  1.0953
 1209TIP3   OH2 3632   3.133   4.889   1.500 -0.3023  0.4688 -0.0740
 1209TIP3    H1 3633   3.125   4.978   1.465 -1.5483 -0.0518 -1.1882
 1209TIP3    H2 3634   3.106   4.897   1.591  0.9155  1.4596  0.2326
 1210TIP3   OH2 3635   5.072   2.812   3.692 -0.3271  0.3332  0.1956
 1210TIP3    H1 3636   5.031   2.888   3.652 -0.4536  0.8968  1.3546
 1210TIP3    H2 3637   5.130   2.848   3.759 -0.4097 -0.5837  0.7777
 1211TIP3   OH2 3638   3.026   5.804   1.577  0.4971  0.4832 -0.1343
 1211TIP3    H1 3639   3.072   5.879   1.614 -1.2907  1.6545 -0.1898
 1211TIP3    H2 3640   2.992   5.757   1.653  3.4547 -1.6435  0.0646
 1212TIP3   OH2 3641   6.366   0.522   1.717 -0.3374 -0.4846  0.6399
 1212TIP3    H1 3642   6.405   0.539   1.803  0.6124  0.2677  0.0785
 1212TIP3    H2 3643   6.273   0.545   1.728  0.0510  0.9288  1.1018
 1213TIP3   OH2 3644   1.158   0.880   0.640  0.1637 -0.3347  0.5754
 1213TIP3    H1 3645   1.080   0.831   0.667  0.5351 -0.7204  0.9687
 1213TIP3    H2 3646   1.158   0.873   0.544 -0.1305 -0.5682  0.5906
 1214TIP3   OH2 3647   2.168   3.512   0.036  0.0969  0.7810  0.3645
 1214TIP3    H1 3648   2.247   3.535   0.085  0.8178 -0.3827 -0.2078
 1214TIP3    H2 3649   2.116   3.460   0.098 -0.2655  1.6008  0.7618
 1215TIP3   OH2 3650   1.427   2.396   0.805  0.0996 -0.2872  0.2142
 1215TIP3    H1 3651   1.449   2.303   0.806  1.3612 -0.0392 -1.1505
 1215TIP3    H2 3652   1.376   2.408   0.725 -1.0088  0.0212  0.9435
 1216TIP3   OH2 3653   3.972   2.786   1.511  0.0837  0.2512  0.5788
 1216TIP3    H1 3654   3.973   2.830   1.596  1.3405  1.8148 -0.1868
 1216TIP3    H2 3655   3.898   2.824   1.464  0.1234  0.2691  0.5309
 1217TIP3   OH2 3656   0.092   4.032   1.171  0.3253  0.4848  0.3795
 1217TIP3    H1 3657   0.083   4.015   1.077  0.1865  2.4330  0.0102
 1217TIP3    H2 3658   0.175   4.077   1.180  0.9445 -0.7849  1.3893
 1218TIP3   OH2 3659   2.243   4.537   4.365  0.1442  0.5446  0.0936
 1218TIP3    H1 3660   2.302   4.481   4.315 -2.3140 -0.8834 -1.3942
 1218TIP3    H2 3661   2.232   4.615   4.311 -0.3017  0.2407 -0.2638
 1219TIP3   OH2 3662   1.501   3.771   0.126 -0.3334 -0.6139  0.0315
 1219TIP3    H1 3663   1.463   3.855   0.097 -0.8116 -0.4115  1.1843
 1219TIP3    H2 3664   1.578   3.796   0.177  0.8750 -0.9942 -1.5167
 1220TIP3   OH2 3665   3.774   2.253   0.440 -0.2780 -1.0948 -0.4151
 1220TIP3    H1 3666   3.760   2.222   0.529  1.1680 -0.5317  0.0444
 1220TIP3    H2 3667   3.762   2.348   0.446  1.4969 -0.8267 -0.3983
 1221TIP3   OH2 3668   6.242   1.802   3.939 -0.5368  0.0191 -0.1125
 1221TIP3    H1 3669   6.266   1.765   3.853  1.5273  0.8207  0.0642
 1221TIP3    H2 3670   6.146   1.809   3.936 -0.5945 -0.9229 -1.9490
 1222TIP3   OH2 3671   4.887   2.249   2.682  0.5900 -0.4888  0.6219
 1222TIP3    H1 3672   4.797   2.239   2.713  1.0342  1.3738  2.7701
 1222TIP3    H2 3673   4.925   2.316   2.739  2.5911  0.6867 -1.8873
 1223TIP3   OH2 3674   2.295   1.336   1.479 -0.4179  0.5146 -0.0982
 1223TIP3    H1 3675   2.261   1.425   1.472 -0.5703  0.4203 -0.5574
 1223TIP3    H2 3676   2.363   1.330   1.412  1.6820  1.2133  1.8117
 1224TIP3   OH2 3677   4.032   4.701   4.865 -0.2368  0.2021 -0.3587
 1224TIP3    H1 3678   4.079   4.784   4.870  2.6070 -1.1273 -2.0269
 1224TIP3    H2 3679   4.098   4.635   4.888 -2.3211 -1.6510  0.7096
 1225TIP3   OH2 3680   4.399   1.971   2.460 -0.2034  0.1616  0.5737
 1225TIP3    H1 3681   4.426   1.956   2.370 -1.5262 -2.3449  0.4751
 1225TIP3    H2 3682   4.374   2.063   2.464 -1.4435  0.0216 -2.0393
 1226TIP3   OH2 3683   0.332   3.777   4.754  0.0990  0.3699 -0.2286
 1226TIP3    H1 3684   0.383   3.825   4.690  0.1261 -0.6017 -0.9644
 1226TIP3    H2 3685   0.251   3.827   4.764  1.1723  1.9848  1.0267
 1227TIP3   OH2 3686   3.847   2.359   3.274 -0.6130  0.4830 -0.5814
 1227TIP3    H1 3687   3.871   2.341   3.365  0.2349 -1.8588 -1.2062
 1227TIP3    H2 3688   3.831   2.454   3.272  0.6320  0.8123  1.6930
 1228TIP3   OH2 3689   0.849   4.322   2.360  0.1359  0.4991  0.6132
 1228TIP3    H1 3690   0.874   4.414   2.356  0.2358  0.4408 -0.9770
 1228TIP3    H2 3691   0.757   4.324   2.386 -0.8483  1.3138 -2.4832
 1229TIP3   OH2 3692   3.029   3.286   2.221 -0.2623 -0.0246 -0.0597
 1229TIP3    H1 3693   2.983   3.259   2.300  1.2482  1.5051  1.4242
 1229TIP3    H2 3694   3.121   3.267   2.239  0.0152 -0.7472 -1.9636
 1230TIP3   OH2 3695   2.231   0.777   3.735  0.1193 -0.2769  0.2279
 1230TIP3    H1 3696   2.218   0.840   3.664  0.5561 -0.9353 -0.4487
 1230TIP3    H2 3697   2.326   0.764   3.739  0.0540 -0.6945  0.5286
 1231TIP3   OH2 3698   4.644   5.254   1.113  0.0375 -0.1020  0.1608
 1231TIP3    H1 3699   4.660   5.163   1.137  1.5668  0.5203  1.7545
 1231TIP3    H2 3700   4.564   5.252   1.060 -0.3842 -2.2510  0.7991
 1232TIP3   OH2 3701   0.914   5.760   2.448  0.1473  0.1632  0.1035
 1232TIP3    H1 3702   0.915   5.761   2.544  0.7652 -0.8695  0.1191
 1232TIP3    H2 3703   0.890   5.670   2.425  0.7148  0.2097 -0.7140
 1233TIP3   OH2 3704   2.272   1.961   0.185 -0.4368  0.0062 -0.5428
 1233TIP3    H1 3705   2.250   1.881   0.136 -0.5534 -1.4830  1.8155
 1233TIP3    H2 3706   2.213   1.959   0.260  1.1086  1.1312  0.7472
 1234TIP3   OH2 3707   5.645   4.196   5.125 -0.1984 -0.3691 -0.8405
 1234TIP3    H1 3708   5.724   4.250   5.120 -0.1312 -0.2910  0.5143
 1234TIP3    H2 3709   5.677   4.106   5.116  0.4217 -0.5221  1.8197
 1235TIP3   OH2 3710   4.356   1.129   5.197 -0.5736  0.4607  0.3062
 1235TIP3    H1 3711   4.448   1.102   5.189 -0.5931  0.3156  0.5468
 1235TIP3    H2 3712   4.316   1.102   5.114 -0.2275  1.2298 -0.1166
 1236TIP3   OH2 3713   0.303   2.456   2.385  0.0324  0.0421 -0.0678
 1236TIP3    H1 3714   0.312   2.531   2.444  0.3835 -0.2713  0.2763
 1236TIP3    H2 3715   0.221   2.473   2.337 -0.9646 -0.3307  1.4246
 1237TIP3   OH2 3716   3.070   1.778   3.409  0.2567 -0.2354  0.9447
 1237TIP3    H1 3717   3.019   1.826   3.344 -0.3668 -0.1632  1.4737
 1237TIP3    H2 3718   3.144   1.742   3.360  1.1241  1.7975  0.6295
 1238TIP3   OH2 3719   6.167   4.229   5.071  0.0359 -0.1388  0.4145
 1238TIP3    H1 3720   6.103   4.291   5.036  1.2504  0.2014 -1.3107
 1238TIP3    H2 3721   6.220   4.282   5.131 -1.5398 -0.5395  2.2651
 1239TIP3   OH2 3722   3.369   0.170   1.983  0.4580  0.0217 -0.2758
 1239TIP3    H1 3723   3.357   0.083   1.946 -1.4659  0.4023 -0.6434
 1239TIP3    H2 3724   3.357   0.229   1.909 -2.1786  0.7313  0.6011
 1240TIP3   OH2 3725   1.153   1.223   5.037 -0.5240 -0.1153 -0.4267
 1240TIP3    H1 3726   1.236   1.229   4.988  0.8358 -1.7055  1.5464
 1240TIP3    H2 3727   1.092   1.181   4.976  1.1210 -2.0864 -0.8110
 1241TIP3   OH2 3728   1.744   0.536   4.538 -0.3028 -0.0499 -0.1860
 1241TIP3    H1 3729   1.701   0.506   4.618  3.2153  0.9650  2.3499
 1241TIP3    H2 3730   1.712   0.626   4.526  0.0587  0.2185  0.8215
 1242TIP3   OH2 3731   0.680   5.338   3.308  0.4379 -0.1271 -0.0937
 1242TIP3    H1 3732   0.714   5.277   3.373 -0.0782 -0.7788 -0.4170
 1242TIP3    H2 3733   0.625   5.398   3.358 -0.1863 -0.7977  0.0511
 1243TIP3   OH2 3734   3.424   2.906   4.929 -0.7482  0.4963  0.0437
 1243TIP3    H1 3735   3.508   2.862   4.919 -1.0815 -0.6768  1.7693
 1243TIP3    H2 3736   3.435   2.963   5.004 -0.9557  1.8095 -0.8966
 1244TIP3   OH2 3737   0.856   3.248   4.488  0.5387  0.3875 -0.0004
 1244TIP3    H1 3738   0.920   3.178   4.505 -2.0611 -1.9007  1.0682
 1244TIP3    H2 3739   0.819   3.226   4.403  0.7973  1.4627 -0.4139
 1245TIP3   OH2 3740   4.148   2.649   1.198 -0.3247  0.2118  0.1891
 1245TIP3    H1 3741   4.179   2.567   1.159 -2.4341 -0.6787  0.2519
 1245TIP3    H2 3742   4.219   2.676   1.256  0.1320 -2.0075  0.7778
 1246TIP3   OH2 3743   2.721   5.162   3.543 -0.1786  0.1917 -0.1395
 1246TIP3    H1 3744   2.765   5.242   3.513 -0.9739  0.6963  0.0060
 1246TIP3    H2 3745   2.727   5.167   3.639  1.2860 -0.8032 -0.1532
 1247TIP3   OH2 3746   3.242   3.243   4.651 -0.5144  0.1705  0.7345
 1247TIP3    H1 3747   3.157   3.199   4.659 -0.7344  0.2838 -0.7994
 1247TIP3    H2 3748   3.252   3.262   4.558  0.2337  2.0823  1.1431
 1248TIP3   OH2 3749   0.098   4.366   3.990  0.2546 -0.1512  0.2229
 1248TIP3    H1 3750   0.152   4.417   4.051  1.6293 -1.2268 -0.0368
 1248TIP3    H2 3751   0.020   4.345   4.040  0.4788  0.6689  0.9436
 1249TIP3   OH2 3752   1.176   5.090   1.493 -0.1405  0.0792 -0.5450
 1249TIP3    H1 3753   1.255   5.143   1.483 -0.5290  0.6660 -0.5849
 1249TIP3    H2 3754   1.179   5.061   1.584 -0.1339  0.5215 -0.4011
 1250TIP3   OH2 3755   0.399   5.812   4.227  0.2207 -0.9266 -0.0012
 1250TIP3    H1 3756   0.481   5.780   4.189 -0.0480  0.3590 -1.7928
 1250TIP3    H2 3757   0.416   5.904   4.248 -0.7151 -0.6899 -0.2444
 1251TIP3   OH2 3758   1.018   1.961   3.876 -0.3599 -0.0787  0.1720
 1251TIP3    H1 3759   0.995   1.951   3.969 -0.7175 -0.3824  0.0515
 1251TIP3    H2 3760   0.971   2.041   3.849  0.1332  0.2840  0.3742
 1252TIP3   OH2 3761   1.497   5.870   1.847  0.1923 -0.0288  0.3706
 1252TIP3    H1 3762   1.412   5.826   1.844  0.2560 -0.1091 -0.8915
 1252TIP3    H2 3763   1.550   5.823   1.782  1.8730 -1.2848  2.5049
 1253TIP3   OH2 3764   1.934   1.534   4.264  0.1331  0.0415  0.2311
 1253TIP3    H1 3765   1.887   1.554   4.183  0.2745 -0.0789  0.1211
 1253TIP3    H2 3766   1.879   1.469   4.308 -0.7390  1.2292  0.9644
 1254TIP3   OH2 3767   4.676   0.945   0.502 -0.6064  0.2966  0.3125
 1254TIP3    H1 3768   4.637   1.022   0.543 -1.5954  0.1226 -0.2768
 1254TIP3    H2 3769   4.633   0.871   0.545  0.5710  0.0329  1.1093
 1255TIP3   OH2 3770   3.838   3.502   2.395  0.5946  0.2813 -0.6134
 1255TIP3    H1 3771   3.762   3.559   2.410  1.3312  1.1410 -0.0540
 1255TIP3    H2 3772   3.834   3.481   2.302  1.1466  2.5369 -1.2265
 1256TIP3   OH2 3773   4.432   3.823   5.158 -0.1263  0.5598 -0.4994
 1256TIP3    H1 3774   4.500   3.883   5.188 -1.6568  2.1814 -0.1006
 1256TIP3    H2 3775   4.422   3.843   5.065 -0.9668  1.3240 -0.2656
 1257TIP3   OH2 3776   5.452   1.843   0.435  0.3159 -0.0917  0.1190
 1257TIP3    H1 3777   5.405   1.923   0.456  1.6309  0.3559  1.5698
 1257TIP3    H2 3778   5.536   1.873   0.400  0.1702 -0.8597 -0.9492
 1258TIP3   OH2 3779   4.781   5.535   3.659  0.1197 -0.0761  0.0319
 1258TIP3    H1 3780   4.704   5.569   3.705 -0.3801 -1.2556  0.1095
 1258TIP3    H2 3781   4.854   5.555   3.717 -0.3244 -0.2608  0.6659
 1259TIP3   OH2 3782   5.533   4.364   2.016  0.4181  0.6249  0.0584
 1259TIP3    H1 3783   5.591   4.294   2.043 -0.9277 -0.3220  0.6253
 1259TIP3    H2 3784   5.537   4.364   1.920  1.4620  0.6963  0.0992
 1260TIP3   OH2 3785   4.417   3.734   2.088 -0.2853  0.2582 -0.4831
 1260TIP3    H1 3786   4.445   3.823   2.065  1.2924  0.6205  2.2987
 1260TIP3    H2 3787   4.497   3.683   2.088  0.0351  0.3719  3.7986
 1261TIP3   OH2 3788   6.120   4.207   3.848 -0.6328  0.7822  0.2051
 1261TIP3    H1 3789   6.073   4.126   3.868 -0.5097  0.3327 -1.1841
 1261TIP3    H2 3790   6.122   4.210   3.752  0.5998  1.7100  0.2371
 1262TIP3   OH2 3791   3.966   4.891   1.029  0.1495  0.2085 -0.1238
 1262TIP3    H1 3792   3.987   4.908   1.120 -0.5122 -0.3397  0.1473
 1262TIP3    H2 3793   3.871   4.877   1.029  0.4761 -2.5274 -0.4217
 1263TIP3   OH2 3794   0.867   3.519   0.712 -0.4845 -0.3745  0.5798
 1263TIP3    H1 3795   0.792   3.462   0.730 -1.1263 -0.3515 -1.6971
 1263TIP3    H2 3796   0.829   3.607   0.706 -0.4835 -0.4488 -1.2996
 1264TIP3   OH2 3797   0.229   0.746   3.291  0.1300  0.3900 -0.3134
 1264TIP3    H1 3798   0.173   0.769   3.217  0.2510 -1.9209 -1.1977
 1264TIP3    H2 3799   0.168   0.713   3.358  0.2782 -0.5775 -0.6462
 1265TIP3   OH2 3800   5.623   1.281   0.279 -0.1352 -0.0830  0.7719
 1265TIP3    H1 3801   5.640   1.324   0.195  2.3356  2.1394  2.2499
 1265TIP3    H2 3802   5.640   1.189   0.263  1.3965  0.4381 -0.9379
 1266TIP3   OH2 3803   5.257   3.476   0.264  0.2120  0.4728  0.3850
 1266TIP3    H1 3804   5.285   3.477   0.356  1.0200 -0.7614  0.1846
 1266TIP3    H2 3805   5.232   3.385   0.248 -1.4937  1.0163 -0.1895
 1267TIP3   OH2 3806   0.541   5.819   3.184  0.4236  0.3849 -0.1811
 1267TIP3    H1 3807   0.528   5.911   3.163  0.0571  0.3175 -0.2565
 1267TIP3    H2 3808   0.462   5.776   3.152  1.4414 -0.2606 -1.9745
 1268TIP3   OH2 3809   1.053   0.959   1.543  0.6228  0.0938  0.6017
 1268TIP3    H1 3810   0.958   0.949   1.538  0.6736 -0.1050 -0.2901
 1268TIP3    H2 3811   1.085   0.871   1.565  0.5180  0.5402  2.7417
 1269TIP3   OH2 3812   1.393   0.314   5.010 -0.2437 -0.4793  0.2573
 1269TIP3    H1 3813   1.413   0.222   5.026 -0.4475 -0.4288  0.8226
 1269TIP3    H2 3814   1.317   0.312   4.952  0.3091 -0.6634 -0.4817
 1270TIP3   OH2 3815   3.643   3.851   2.702  0.4781 -0.2137  0.1809
 1270TIP3    H1 3816   3.714   3.802   2.659 -0.0589 -0.8423  0.0013
 1270TIP3    H2 3817   3.606   3.906   2.633  1.7924  1.3106  0.6258
 1271TIP3   OH2 3818   2.914   4.683   1.611  0.0128  0.5362 -0.3594
 1271TIP3    H1 3819   2.895   4.656   1.521 -0.0579  0.0146 -0.1921
 1271TIP3    H2 3820   2.828   4.699   1.650 -0.2252 -2.2032  0.5158
 1272TIP3   OH2 3821   3.501   5.333   3.581 -0.8224 -1.2433  0.3939
 1272TIP3    H1 3822   3.579   5.301   3.537 -0.4899 -1.0701  0.8440
 1272TIP3    H2 3823   3.465   5.399   3.522 -0.4273 -1.0676  0.3471
 1273TIP3   OH2 3824   0.059   4.396   1.397 -0.4651  0.2725  0.5964
 1273TIP3    H1 3825   0.110   4.391   1.478  0.4881  2.9682  0.2659
 1273TIP3    H2 3826   0.079   4.482   1.361 -1.1985 -0.6531 -2.3219
 1274TIP3   OH2 3827   6.145   4.456   3.799 -0.1293 -0.0733 -0.3174
 1274TIP3    H1 3828   6.165   4.364   3.785 -1.0485 -0.2739 -0.3695
 1274TIP3    H2 3829   6.062   4.456   3.847  0.2088  0.7145  0.3025
 1275TIP3   OH2 3830   2.955   4.439   4.062 -0.2652  0.7392  0.4593
 1275TIP3    H1 3831   2.969   4.345   4.053  1.6716  1.1613 -1.9072
 1275TIP3    H2 3832   2.880   4.458   4.005  2.0985  1.1269 -2.8067
 1276TIP3   OH2 3833   2.536   1.499   4.390 -0.5474 -0.3396 -0.2855
 1276TIP3    H1 3834   2.542   1.524   4.298  0.6790  0.1286 -0.0872
 1276TIP3    H2 3835   2.627   1.489   4.418 -0.8117  1.5234  1.4212
 1277TIP3   OH2 3836   4.457   1.221   0.822  0.0382 -0.3493  0.4809
 1277TIP3    H1 3837   4.491   1.141   0.861  0.5682 -1.0867 -1.3720
 1277TIP3    H2 3838   4.363   1.206   0.813  0.2318 -1.0668 -0.4692
 1278TIP3   OH2 3839   2.129   5.174   0.634  0.0321 -0.1520  0.2065
 1278TIP3    H1 3840   2.139   5.269   0.624 -2.0556  0.1997  0.8638
 1278TIP3    H2 3841   2.117   5.162   0.728 -2.4121 -0.7086 -0.1204
 1279TIP3   OH2 3842   1.882   4.229   0.254 -0.2348  0.4196  0.6359
 1279TIP3    H1 3843   1.899   4.322   0.271 -1.5767  1.2789 -2.1581
 1279TIP3    H2 3844   1.951   4.203   0.193  0.0861 -0.4452  1.3398
 1280TIP3   OH2 3845   3.011   4.859   0.662 -0.0760 -0.2009  0.2083
 1280TIP3    H1 3846   2.967   4.854   0.747 -0.4287  2.6480  0.2921
 1280TIP3    H2 3847   2.952   4.911   0.607  0.9180 -0.5576 -1.2627
 1281TIP3   OH2 3848   0.162   4.662   4.003 -0.4676 -0.4589  0.7126
 1281TIP3    H1 3849   0.213   4.601   4.057  0.5374 -0.0031  0.3031
 1281TIP3    H2 3850   0.206   4.746   4.014 -1.0753 -0.0748  0.2575
 1282TIP3   OH2 3851   3.096   1.422   0.674  0.0416 -0.0695  0.1660
 1282TIP3    H1 3852   3.143   1.455   0.597 -0.4509  0.3599  0.0406
 1282TIP3    H2 3853   3.164   1.381   0.728  0.9380  2.4244  1.0300
 1283TIP3   OH2 3854   6.361   0.292   3.328  0.0076  0.3553 -0.0348
 1283TIP3    H1 3855   6.406   0.303   3.245 -0.3757 -1.0740 -0.4654
 1283TIP3    H2 3856   6.290   0.231   3.309 -1.1968  1.3722  0.9532
 1284TIP3   OH2 3857   1.194   4.708   4.712 -0.4079  1.0735 -0.4525
 1284TIP3    H1 3858   1.156   4.709   4.624  1.1125 -0.3963 -1.1859
 1284TIP3    H2 3859   1.276   4.756   4.704  0.8359 -0.9127 -0.4630
 1285TIP3   OH2 3860   6.154   3.327   0.212  0.1725  0.4422 -0.4492
 1285TIP3    H1 3861   6.192   3.331   0.124  1.3545 -0.3463 -0.0009
 1285TIP3    H2 3862   6.228   3.303   0.269 -0.9223 -0.8477  0.4965
 1286TIP3   OH2 3863   5.028   0.645   0.524  1.1008  0.3228 -0.2664
 1286TIP3    H1 3864   5.111   0.628   0.569  0.0184 -1.1651  1.2837
 1286TIP3    H2 3865   5.052   0.653   0.432  2.8257 -1.2198 -0.0026
 1287TIP3   OH2 3866   1.064   1.042   2.887 -0.0790 -0.0050  0.4847
 1287TIP3    H1 3867   1.119   1.112   2.923  1.0671 -0.2424 -0.7146
 1287TIP3    H2 3868   1.101   0.961   2.922 -0.2841 -0.1124  0.4595
 1288TIP3   OH2 3869   3.249   0.456   2.088  0.0261  0.0391  0.3973
 1288TIP3    H1 3870   3.340   0.424   2.087  0.0122 -0.0493 -1.2205
 1288TIP3    H2 3871   3.249   0.527   2.024 -1.6126 -1.7245 -1.7067
 1289TIP3   OH2 3872   2.907   2.970   1.945 -0.1652 -0.0732 -0.0624
 1289TIP3    H1 3873   2.994   2.974   1.985 -0.0890  0.2439 -0.2593
 1289TIP3    H2 3874   2.912   3.028   1.869 -0.3659 -0.5209 -0.4270
 1290TIP3   OH2 3875   5.963   5.486   2.223 -0.2074  0.4128  0.3318
 1290TIP3    H1 3876   5.872   5.471   2.249  0.2674 -0.9461  1.3319
 1290TIP3    H2 3877   6.011   5.491   2.306  0.4178  2.8940 -0.1124
 1291TIP3   OH2 3878   5.446   2.678   3.340 -0.4658 -0.3453 -0.4106
 1291TIP3    H1 3879   5.395   2.685   3.260 -0.8807 -0.9384 -0.2048
 1291TIP3    H2 3880   5.384   2.645   3.405 -0.1013 -0.0012  0.1209
 1292TIP3   OH2 3881   2.830   1.310   2.903 -0.3131 -0.1979 -0.1652
 1292TIP3    H1 3882   2.899   1.323   2.838 -0.2547 -1.0454 -0.2915
 1292TIP3    H2 3883   2.753   1.353   2.866 -0.0006  0.2625 -0.2852
 1293TIP3   OH2 3884   3.783   3.629   1.541  0.4838  0.2713  0.0807
 1293TIP3    H1 3885   3.768   3.541   1.506 -0.4693  1.2283 -2.1423
 1293TIP3    H2 3886   3.696   3.668   1.546  1.0645  1.8254 -1.1338
 1294TIP3   OH2 3887   4.936   2.339   3.331  0.1169 -0.2592  0.2892
 1294TIP3    H1 3888   4.852   2.294   3.333 -0.1754  0.2966  2.3882
 1294TIP3    H2 3889   4.963   2.346   3.423  1.6324  1.0919 -0.1945
 1295TIP3   OH2 3890   0.797   3.108   3.477 -0.1454 -0.1719 -0.1735
 1295TIP3    H1 3891   0.770   3.025   3.437  0.3068 -0.2198 -0.3847
 1295TIP3    H2 3892   0.748   3.175   3.428 -1.1381 -0.3605  0.5403
 1296TIP3   OH2 3893   4.584   5.764   4.340 -0.4294  0.2030  0.3826
 1296TIP3    H1 3894   4.589   5.710   4.420 -0.3578  0.9219  0.8744
 1296TIP3    H2 3895   4.588   5.701   4.268  0.4365 -0.3928  0.9339
 1297TIP3   OH2 3896   5.372   5.373   0.041  0.1798  0.1380  0.6518
 1297TIP3    H1 3897   5.289   5.345   0.079  0.7840 -0.5794  1.4610
 1297TIP3    H2 3898   5.349   5.403  -0.047 -0.5860 -2.3319 -0.0486
 1298TIP3   OH2 3899   4.686   1.348   3.723 -0.0744  0.2129 -0.4174
 1298TIP3    H1 3900   4.759   1.311   3.674  0.3302 -1.7234  1.5249
 1298TIP3    H2 3901   4.617   1.282   3.718 -1.0921  1.2593 -0.7593
 1299TIP3   OH2 3902   0.879   2.217   1.276 -0.4068 -0.6041 -0.0090
 1299TIP3    H1 3903   0.934   2.226   1.199 -0.2909  0.6055  0.1832
 1299TIP3    H2 3904   0.921   2.150   1.329  1.0305  0.4359  0.2303
 1300TIP3   OH2 3905   0.405   4.923   1.620 -0.2603  0.1880 -0.0367
 1300TIP3    H1 3906   0.340   4.852   1.618  0.4803 -0.4962 -0.4899
 1300TIP3    H2 3907   0.428   4.933   1.712  0.7992 -1.2846 -0.1025
 1301TIP3   OH2 3908   1.288   0.896   3.832 -0.2606  0.0199  0.0572
 1301TIP3    H1 3909   1.328   0.980   3.856 -0.5380  0.1644  0.0185
 1301TIP3    H2 3910   1.350   0.830   3.863  0.3543  0.2612 -0.6388
 1302TIP3   OH2 3911   3.407   5.451   1.149  0.1044 -0.1339 -0.6981
 1302TIP3    H1 3912   3.430   5.384   1.085 -0.9442 -1.8388  0.6237
 1302TIP3    H2 3913   3.315   5.434   1.168  0.5277 -0.0497  1.6634
 1303TIP3   OH2 3914   1.978   0.133   2.328 -0.2454  0.4032 -0.1878
 1303TIP3    H1 3915   1.980   0.229   2.329  0.0542  0.3982 -0.2490
 1303TIP3    H2 3916   1.902   0.110   2.381 -0.6676  0.6862 -0.6655
 1304TIP3   OH2 3917   5.467   4.384   1.377  0.2023 -0.1264  0.6037
 1304TIP3    H1 3918   5.419   4.334   1.443  0.0750  1.8365  2.0778
 1304TIP3    H2 3919   5.402   4.441   1.337  0.8886  1.1443  1.2323
 1305TIP3   OH2 3920   4.739   0.675   2.496  0.3631 -0.0985 -0.0009
 1305TIP3    H1 3921   4.694   0.742   2.548  0.6201 -0.6612  0.9762
 1305TIP3    H2 3922   4.676   0.604   2.488  0.5827 -0.3196  0.1927
 1306TIP3   OH2 3923   2.270   1.429   1.749  0.6000  0.0912  0.4044
 1306TIP3    H1 3924   2.289   1.382   1.668  0.7410  0.9092 -0.0448
 1306TIP3    H2 3925   2.187   1.392   1.780  0.6872 -0.4131  0.0324
 1307TIP3   OH2 3926   2.365   4.554   0.385 -0.1474 -0.6504  0.2100
 1307TIP3    H1 3927   2.414   4.510   0.316 -2.0387  1.1717 -2.4651
 1307TIP3    H2 3928   2.293   4.494   0.404 -0.1110 -0.7641 -0.0087
 1308TIP3   OH2 3929   4.034   2.121   1.397 -0.2508 -0.2592  0.4498
 1308TIP3    H1 3930   4.023   2.171   1.317 -1.1044 -0.6868  0.2842
 1308TIP3    H2 3931   4.090   2.175   1.452 -2.0392  1.4263  0.7187
 1309TIP3   OH2 3932   3.329   4.952   4.660  0.0123  0.6807  0.2549
 1309TIP3    H1 3933   3.346   4.861   4.681 -3.6377 -0.5184 -1.1167
 1309TIP3    H2 3934   3.381   5.002   4.723  0.1084 -2.3913  2.8545
 1310TIP3   OH2 3935   2.917   5.022   1.205  0.6789  0.1561 -0.1333
 1310TIP3    H1 3936   2.987   4.957   1.198  0.8012  0.3090 -0.3516
 1310TIP3    H2 3937   2.912   5.041   1.299 -0.5306 -1.4237  0.1503
 1311TIP3   OH2 3938   1.533   1.000   4.979  0.0381  0.5464  0.1567
 1311TIP3    H1 3939   1.591   0.929   5.007  0.3022  0.5592 -0.3465
 1311TIP3    H2 3940   1.445   0.962   4.979  0.3689 -0.2870 -1.7625
 1312TIP3   OH2 3941   2.930   1.860   1.302 -0.3321  0.2226  0.4127
 1312TIP3    H1 3942   2.948   1.785   1.358  0.9677  0.7007  0.6803
 1312TIP3    H2 3943   2.867   1.912   1.352  0.7698  0.6134  1.4473
 1313TIP3   OH2 3944   2.862   1.023   4.262  0.0469  0.2988 -0.4149
 1313TIP3    H1 3945   2.830   0.936   4.237  0.7532 -0.0551 -0.1046
 1313TIP3    H2 3946   2.955   1.022   4.239 -0.1174  1.2813 -1.2071
 1314TIP3   OH2 3947   0.104   2.956   1.068 -0.3847 -0.0752  0.2635
 1314TIP3    H1 3948   0.173   2.913   1.017  0.6366 -0.4548  1.8688
 1314TIP3    H2 3949   0.073   3.027   1.012 -0.3146 -1.2918 -1.4231
 1315TIP3   OH2 3950   4.293   1.014   4.001  0.1906 -0.2532  0.1958
 1315TIP3    H1 3951   4.315   1.097   4.043 -1.7147  1.4152 -1.8350
 1315TIP3    H2 3952   4.211   0.986   4.043 -2.1582  1.8200 -2.5392
 1316TIP3   OH2 3953   3.913   5.650   4.096 -0.6646 -0.3901  0.3050
 1316TIP3    H1 3954   3.881   5.565   4.064  0.3143 -1.0259  0.9669
 1316TIP3    H2 3955   3.853   5.672   4.167 -0.6848 -0.7249  0.3971
 1317TIP3   OH2 3956   4.197   3.008   2.186 -0.7282  0.2524  0.0248
 1317TIP3    H1 3957   4.248   2.934   2.153 -0.4115 -0.1994  1.4667
 1317TIP3    H2 3958   4.113   2.970   2.213 -1.4759  0.8298 -1.4063
 1318TIP3   OH2 3959   3.309   3.896   4.856  0.4272 -0.0518  0.3628
 1318TIP3    H1 3960   3.260   3.836   4.800  2.0447 -2.2867  1.2182
 1318TIP3    H2 3961   3.367   3.942   4.795  0.1901 -0.4013 -0.1413
 1319TIP3   OH2 3962   5.056   0.091   3.752 -0.0628  0.1327  0.2928
 1319TIP3    H1 3963   5.078   0.045   3.833  0.8522 -1.4260 -0.8032
 1319TIP3    H2 3964   4.989   0.037   3.710 -2.0944  1.9748  0.8950
 1320TIP3   OH2 3965   2.162   4.181   3.918  0.1280  0.2310 -0.0634
 1320TIP3    H1 3966   2.116   4.209   3.998  0.7539  0.1650  0.3261
 1320TIP3    H2 3967   2.150   4.254   3.857 -0.0517  0.4383  0.2158
 1321TIP3   OH2 3968   0.420   2.990   0.321  0.4797  0.0517  0.2452
 1321TIP3    H1 3969   0.324   2.984   0.321  0.4150  0.7660  1.1080
 1321TIP3    H2 3970   0.438   3.078   0.355  1.4263  0.6922 -1.7536
 1322TIP3   OH2 3971   3.308   1.763   0.412  0.6891 -0.5050  0.1809
 1322TIP3    H1 3972   3.277   1.781   0.501 -1.6139  2.0948 -1.0248
 1322TIP3    H2 3973   3.260   1.684   0.385 -1.5945  0.8838 -0.0301
 1323TIP3   OH2 3974   3.012   0.630   4.322 -0.2438  0.1078 -0.2273
 1323TIP3    H1 3975   3.038   0.546   4.284  0.4506  0.6784 -1.0533
 1323TIP3    H2 3976   2.932   0.610   4.371 -0.4953 -0.8954 -1.0066
 1324TIP3   OH2 3977   4.145   3.838   5.131 -0.1284  0.1714 -0.0511
 1324TIP3    H1 3978   4.132   3.751   5.094  0.2704 -0.5227  1.3929
 1324TIP3    H2 3979   4.236   3.840   5.158 -0.3554  0.6996  0.7424
 1325TIP3   OH2 3980   4.119   4.923   5.014  0.4955  0.2298  0.3753
 1325TIP3    H1 3981   4.091   4.844   5.060  0.8309 -0.1340 -0.0338
 1325TIP3    H2 3982   4.183   4.963   5.073 -0.2087  0.5877  0.9075
 1326TIP3   OH2 3983   0.003   2.989   2.799 -0.4653  0.2588  0.3010
 1326TIP3    H1 3984  -0.041   2.969   2.716 -0.1222  1.2235 -0.1287
 1326TIP3    H2 3985   0.078   3.043   2.774  0.8854 -1.1811  1.0257
 1327TIP3   OH2 3986   3.476   2.079   1.323 -0.2204 -0.5661 -0.3581
 1327TIP3    H1 3987   3.563   2.106   1.349 -0.5233  1.7316 -1.4808
 1327TIP3    H2 3988   3.421   2.092   1.400  0.4309 -2.3968  0.4737
 1328TIP3   OH2 3989   0.031   3.764   1.204  0.0211  0.2436 -0.2749
 1328TIP3    H1 3990   0.106   3.716   1.167 -1.0466 -1.1394 -0.7295
 1328TIP3    H2 3991   0.063   3.854   1.216  2.1852 -0.5966  0.8305
 1329TIP3   OH2 3992   5.237   1.802   5.132 -0.4354 -0.3015  1.0475
 1329TIP3    H1 3993   5.299   1.831   5.065 -1.7247 -0.7745 -0.3889
 1329TIP3    H2 3994   5.289   1.798   5.213  1.1539  0.2556  0.0854
 1330TIP3   OH2 3995   4.740   0.738   3.780  0.4085  0.0524  0.4058
 1330TIP3    H1 3996   4.814   0.772   3.830 -1.1597  1.1975  2.1033
 1330TIP3    H2 3997   4.764   0.647   3.761  2.5572  0.6164  0.1669
 1331TIP3   OH2 3998   4.121   3.508   1.564 -0.1789  0.0766 -0.4611
 1331TIP3    H1 3999   4.029   3.505   1.588 -0.0873 -1.9235 -0.1140
 1331TIP3    H2 4000   4.168   3.496   1.647  0.3961  0.9076 -0.6540
 1332TIP3   OH2 4001   3.347   3.667   5.009 -0.3254  0.7428 -0.3078
 1332TIP3    H1 4002   3.339   3.753   4.970 -0.1891  1.0546  0.3345
 1332TIP3    H2 4003   3.442   3.652   5.015 -0.3420  0.8098  0.1396
 1333TIP3   OH2 4004   5.768   0.391   1.053  0.4348  0.9268 -0.0301
 1333TIP3    H1 4005   5.708   0.372   0.981 -0.2127 -0.4749  0.8332
 1333TIP3    H2 4006   5.778   0.307   1.099  2.6548  1.2354  0.1647
 1334TIP3   OH2 4007   5.626   5.753   0.527  0.5921  0.1547  0.3792
 1334TIP3    H1 4008   5.659   5.665   0.507  1.1195  0.6018 -0.8398
 1334TIP3    H2 4009   5.677   5.781   0.603 -0.9445 -1.3281  2.0256
 1335TIP3   OH2 4010   5.972   1.783   4.041  0.0074  0.3471  0.7298
 1335TIP3    H1 4011   5.972   1.841   4.117 -0.1095  0.8167  0.3748
 1335TIP3    H2 4012   5.982   1.695   4.078  1.6829  0.7012  1.1905
 1336TIP3   OH2 4013   2.825   4.115   0.303 -0.0775 -0.1042  0.0354
 1336TIP3    H1 4014   2.844   4.051   0.234  2.2847 -1.7432  2.0235
 1336TIP3    H2 4015   2.855   4.199   0.267 -3.5479  0.1899 -2.7675
 1337TIP3   OH2 4016   5.538   0.679   1.420  0.2955 -0.2926  0.5246
 1337TIP3    H1 4017   5.617   0.734   1.421  0.8640 -1.0808 -0.0730
 1337TIP3    H2 4018   5.523   0.661   1.327 -0.1302 -0.8015  0.6872
 1338TIP3   OH2 4019   4.724   4.609   1.995 -0.4722  0.2076  0.0625
 1338TIP3    H1 4020   4.810   4.591   2.033  0.6143  2.0174 -1.3354
 1338TIP3    H2 4021   4.696   4.526   1.958  0.6826 -0.4243  0.5717
 1339TIP3   OH2 4022   5.552   2.381   2.418  0.2020 -0.2568 -0.2023
 1339TIP3    H1 4023   5.524   2.436   2.345 -1.9182 -0.7860  0.1313
 1339TIP3    H2 4024   5.482   2.316   2.427  0.8444 -0.7451  1.7200
 1340TIP3   OH2 4025   6.216   1.859   0.669  0.3585  0.1119  0.3571
 1340TIP3    H1 4026   6.202   1.944   0.627  1.6950 -0.9587 -2.5617
 1340TIP3    H2 4027   6.147   1.803   0.635  0.3747 -0.3492  1.0645
 1341TIP3   OH2 4028   1.061   3.429   1.548  0.5699  0.1687 -0.0808
 1341TIP3    H1 4029   1.012   3.349   1.526  0.1693  0.0784  1.0314
 1341TIP3    H2 4030   1.102   3.456   1.466 -0.8728 -0.0870 -0.9171
 1342TIP3   OH2 4031   0.910   4.467   3.386 -0.0957 -0.0695 -0.0183
 1342TIP3    H1 4032   0.920   4.488   3.479  1.3475  1.2480 -0.4274
 1342TIP3    H2 4033   0.967   4.529   3.341 -1.1666 -0.3178 -1.8396
 1343TIP3   OH2 4034   4.681   2.350   0.867  0.4769 -0.1273 -0.0311
 1343TIP3    H1 4035   4.726   2.314   0.791 -0.0961 -1.3324  0.1708
 1343TIP3    H2 4036   4.745   2.409   0.908  1.3127 -0.6234 -0.6077
 1344TIP3   OH2 4037   4.995   2.720   0.532  0.0155  0.8148  0.0025
 1344TIP3    H1 4038   4.960   2.639   0.568  0.8846  0.5035  0.1779
 1344TIP3    H2 4039   4.971   2.788   0.596 -0.8411  0.7288 -0.2187
 1345TIP3   OH2 4040   0.694   4.543   3.226  0.3798  0.1368 -0.1640
 1345TIP3    H1 4041   0.608   4.533   3.267  0.7929 -0.3528  0.6092
 1345TIP3    H2 4042   0.756   4.507   3.291  0.7536 -4.7057 -2.6925
 1346TIP3   OH2 4043   3.801   1.997   3.812  0.1629  0.4627  0.6065
 1346TIP3    H1 4044   3.833   1.936   3.746 -1.3233 -0.2627  0.5104
 1346TIP3    H2 4045   3.718   1.959   3.841 -1.0140  2.6181  0.2801
 1347TIP3   OH2 4046   2.326   3.366   0.658 -0.0478  0.3411 -0.1648
 1347TIP3    H1 4047   2.254   3.352   0.719  0.7874 -1.3293  0.5162
 1347TIP3    H2 4048   2.350   3.278   0.629  2.2146  0.7323  0.2813
 1348TIP3   OH2 4049   2.443   3.390   1.195 -0.4707  0.7081  0.2393
 1348TIP3    H1 4050   2.447   3.468   1.250 -1.8112 -0.5059  2.2269
 1348TIP3    H2 4051   2.393   3.327   1.248 -0.9221 -0.9135 -1.9785
 1349TIP3   OH2 4052   4.658   2.608   0.310  0.0015 -0.5154  0.2891
 1349TIP3    H1 4053   4.663   2.664   0.387 -0.3881 -0.1854  0.0791
 1349TIP3    H2 4054   4.569   2.620   0.278 -0.1603 -1.4139  0.3609
 1350TIP3   OH2 4055   1.717   4.284   1.316  0.6794  0.1318 -0.0690
 1350TIP3    H1 4056   1.643   4.260   1.261  0.8981  1.7663 -1.1402
 1350TIP3    H2 4057   1.739   4.374   1.290  3.4080 -0.4887 -0.2027
 1351TIP3   OH2 4058   2.038   0.268   1.234 -0.6990 -0.3172 -0.2378
 1351TIP3    H1 4059   2.102   0.211   1.191  0.0438 -0.1773  0.6288
 1351TIP3    H2 4060   2.039   0.348   1.182 -2.5775 -1.4403 -2.1293
 1352TIP3   OH2 4061   1.812   0.638   3.449 -0.4073  0.3133  0.1880
 1352TIP3    H1 4062   1.863   0.568   3.490  0.1100  1.1173  0.9333
 1352TIP3    H2 4063   1.777   0.598   3.369  1.2740 -0.3159 -0.2715
 1353TIP3   OH2 4064   4.697   1.834   0.277  0.5797 -0.1944  0.5073
 1353TIP3    H1 4065   4.674   1.927   0.270 -0.3101 -0.2919  1.8066
 1353TIP3    H2 4066   4.788   1.830   0.248  0.5368  1.0278  0.1293
 1354TIP3   OH2 4067   2.349   5.088   2.460 -0.3188 -0.2942 -0.0056
 1354TIP3    H1 4068   2.320   5.074   2.370  0.0211 -1.3205  0.0301
 1354TIP3    H2 4069   2.323   5.178   2.480  1.0477  0.5272 -1.6750
 1355TIP3   OH2 4070   5.955   1.004   4.058  0.2477  0.3765  0.4480
 1355TIP3    H1 4071   5.919   0.917   4.071  0.7021  0.3229  1.4135
 1355TIP3    H2 4072   6.048   0.990   4.038  0.4693  0.6578  1.2407
 1356TIP3   OH2 4073   2.803   2.811   4.703 -0.5239 -0.5645 -0.1023
 1356TIP3    H1 4074   2.892   2.780   4.690 -0.1974  0.4590 -0.3667
 1356TIP3    H2 4075   2.813   2.899   4.740 -1.3973  0.1845 -1.5671
 1357TIP3   OH2 4076   5.748   3.111   2.745 -0.0113  0.0339  0.5150
 1357TIP3    H1 4077   5.787   3.031   2.711  0.2684  0.0360  0.8175
 1357TIP3    H2 4078   5.823   3.160   2.779  0.2228  1.5767 -1.9183
 1358TIP3   OH2 4079   1.403   3.286   4.593  0.4580 -0.2186 -0.6450
 1358TIP3    H1 4080   1.461   3.362   4.595 -0.5520  0.5572  0.1210
 1358TIP3    H2 4081   1.316   3.322   4.611 -0.0485 -1.5557 -0.3201
 1359TIP3   OH2 4082   3.655   5.631   3.453 -0.2836 -0.0690  0.0436
 1359TIP3    H1 4083   3.669   5.650   3.545  0.7499  1.0544 -0.3163
 1359TIP3    H2 4084   3.709   5.554   3.436  3.8302  2.6282 -0.6922
 1360TIP3   OH2 4085   5.532   1.302   2.739 -0.3429  0.2394 -0.1282
 1360TIP3    H1 4086   5.483   1.284   2.819  1.9710  1.3273  1.6461
 1360TIP3    H2 4087   5.614   1.253   2.750  0.4095  1.1595 -1.4016
 1361TIP3   OH2 4088   3.159   4.564   0.404  0.3029  0.8237  0.1531
 1361TIP3    H1 4089   3.064   4.557   0.419  0.2700  1.0199  0.0361
 1361TIP3    H2 4090   3.187   4.638   0.458  0.3376  0.9570 -0.0476
 1362TIP3   OH2 4091   2.498   5.644   4.525  0.9784 -0.0834  0.2643
 1362TIP3    H1 4092   2.477   5.552   4.537  0.5439  0.1960  1.9524
 1362TIP3    H2 4093   2.594   5.646   4.524  0.9952 -0.5253  0.5518
 1363TIP3   OH2 4094   2.914   0.822   0.853 -0.1909 -0.1820  0.1687
 1363TIP3    H1 4095   2.862   0.810   0.933 -0.5773 -0.7617 -0.1673
 1363TIP3    H2 4096   2.958   0.738   0.840  0.6196  0.2085  0.2882
 1364TIP3   OH2 4097   5.911   4.614   4.306 -0.4954 -0.1007  0.5829
 1364TIP3    H1 4098   5.820   4.616   4.277 -0.0526 -0.4086 -0.8670
 1364TIP3    H2 4099   5.963   4.605   4.226  0.7882 -0.5577  1.4203
 1365TIP3   OH2 4100   4.688   5.809   3.951 -0.2312 -0.0907 -0.2404
 1365TIP3    H1 4101   4.658   5.793   4.040  0.2328 -0.8252 -0.2098
 1365TIP3    H2 4102   4.638   5.747   3.897  0.1801 -0.3132 -0.3692
 1366TIP3   OH2 4103   3.858   5.217   1.695  0.1830 -0.0427 -0.0619
 1366TIP3    H1 4104   3.814   5.302   1.697 -1.9206 -1.0301  3.1603
 1366TIP3    H2 4105   3.788   5.155   1.675  0.6578 -1.3893  2.1493
 1367TIP3   OH2 4106   0.714   5.283   0.611 -0.4226  0.4816  0.1614
 1367TIP3    H1 4107   0.672   5.348   0.554 -0.1550  0.0181 -0.5811
 1367TIP3    H2 4108   0.768   5.231   0.551 -0.0840  0.0270  0.8565
 1368TIP3   OH2 4109   4.146   0.583   2.455 -0.5739 -0.2811  0.1991
 1368TIP3    H1 4110   4.051   0.588   2.468 -0.4276  0.4636  1.1261
 1368TIP3    H2 4111   4.159   0.605   2.363 -1.2298  0.8022  0.3511
 1369TIP3   OH2 4112   4.323   2.478   1.067 -0.1807 -0.5478 -0.2953
 1369TIP3    H1 4113   4.283   2.479   0.980 -2.7102  3.5917  0.6546
 1369TIP3    H2 4114   4.413   2.507   1.053 -0.6657  0.4243 -1.5262
 1370TIP3   OH2 4115   5.311   1.556   3.329 -0.5821  0.1746  0.4955
 1370TIP3    H1 4116   5.219   1.563   3.357 -0.8267 -1.5907  0.2583
 1370TIP3    H2 4117   5.310   1.489   3.261  0.7891  0.6492 -0.0216
 1371TIP3   OH2 4118   4.843   0.628   4.559 -0.0212 -0.5936  0.0819
 1371TIP3    H1 4119   4.854   0.571   4.483  0.0692  1.2675 -1.3489
 1371TIP3    H2 4120   4.754   0.608   4.590 -0.1835 -1.1360 -0.6945
 1372TIP3   OH2 4121   0.607   0.333   0.524  0.1210 -0.5776 -0.0223
 1372TIP3    H1 4122   0.615   0.296   0.436 -1.5558  0.9018 -0.8493
 1372TIP3    H2 4123   0.517   0.365   0.529  0.2306 -0.4519  2.1879
 1373TIP3   OH2 4124   0.708   2.211   1.826 -0.2521 -0.2500 -0.1928
 1373TIP3    H1 4125   0.765   2.134   1.833 -0.7225 -0.8732 -2.3284
 1373TIP3    H2 4126   0.622   2.179   1.853 -0.2667 -0.2271 -0.2127
 1374TIP3   OH2 4127   3.179   0.556   0.605  0.1055  0.3174  0.3453
 1374TIP3    H1 4128   3.261   0.550   0.654  0.8974  0.1478 -0.9491
 1374TIP3    H2 4129   3.141   0.468   0.611  1.1408 -0.2509 -0.8716
 1375TIP3   OH2 4130   5.480   0.482   3.610 -0.5679 -0.4252 -0.3934
 1375TIP3    H1 4131   5.470   0.397   3.652  1.2464  0.1311  1.3635
 1375TIP3    H2 4132   5.509   0.461   3.521 -3.3449 -1.6287 -1.0977
 1376TIP3   OH2 4133   0.924   4.582   4.020  0.4417  0.2175 -0.1685
 1376TIP3    H1 4134   0.902   4.645   4.090 -0.2882 -0.0613 -0.1327
 1376TIP3    H2 4135   1.013   4.604   3.995  1.3382 -0.7070  1.9744
 1377TIP3   OH2 4136   2.499   1.145   1.183 -0.5570 -0.6778 -0.2037
 1377TIP3    H1 4137   2.459   1.231   1.177  0.1346 -0.4509 -2.4478
 1377TIP3    H2 4138   2.569   1.155   1.247  0.1623  0.7173 -1.1684
 1378TIP3   OH2 4139   6.211   3.466   1.385  0.5193 -0.3225  0.6052
 1378TIP3    H1 4140   6.153   3.436   1.314 -0.8931  1.4392  0.9272
 1378TIP3    H2 4141   6.299   3.453   1.351  0.0168 -3.1032  0.0791
 1379TIP3   OH2 4142   1.879   2.611   2.348 -0.6346  0.0153 -0.5172
 1379TIP3    H1 4143   1.908   2.521   2.363  0.0536  0.1358 -1.0671
 1379TIP3    H2 4144   1.916   2.634   2.263  0.5008  1.3516  0.2939
 1380TIP3   OH2 4145   1.724   2.948   4.478  0.2987 -0.0255 -0.0026
 1380TIP3    H1 4146   1.785   2.874   4.474 -1.3545 -1.3958 -2.5027
 1380TIP3    H2 4147   1.640   2.908   4.501 -0.3867  1.2404 -0.2413
 1381TIP3   OH2 4148   4.892   3.396   3.704  0.2368 -0.0726 -0.3107
 1381TIP3    H1 4149   4.934   3.457   3.765 -1.4139 -0.4137  1.2636
 1381TIP3    H2 4150   4.963   3.343   3.670  1.6294  2.1730 -1.1353
 1382TIP3   OH2 4151   3.027   0.694   3.666 -0.0200 -0.3180  0.3308
 1382TIP3    H1 4152   2.962   0.726   3.604 -0.3223  0.4711  1.0265
 1382TIP3    H2 4153   3.031   0.762   3.733  1.5639 -0.3376  0.2858
 1383TIP3   OH2 4154   2.051   1.308   1.823 -0.1988  0.4841  0.0930
 1383TIP3    H1 4155   2.054   1.219   1.787  1.1048  0.9914 -1.1490
 1383TIP3    H2 4156   1.959   1.335   1.812 -0.8374 -1.0202  1.3617
 1384TIP3   OH2 4157   2.157   5.719   1.748 -0.5857  0.1562  0.4186
 1384TIP3    H1 4158   2.147   5.667   1.668 -0.0347  1.1436 -0.3151
 1384TIP3    H2 4159   2.202   5.798   1.720 -3.0929  1.9600  1.1245
 1385TIP3   OH2 4160   3.882   2.283   2.216  0.0114 -0.4097  0.3503
 1385TIP3    H1 4161   3.844   2.195   2.226  1.4470 -0.9374  1.5229
 1385TIP3    H2 4162   3.806   2.341   2.210 -0.9767 -1.5831  1.0649
 1386TIP3   OH2 4163   1.945   1.659   1.701  0.0112  0.1007  0.0169
 1386TIP3    H1 4164   1.934   1.587   1.763 -1.7747  0.5160  0.2420
 1386TIP3    H2 4165   1.916   1.624   1.617 -0.3945  0.3966  0.0282
 1387TIP3   OH2 4166   0.437   0.813   2.113 -0.7116  0.3126 -0.4993
 1387TIP3    H1 4167   0.488   0.818   2.194 -0.0226 -2.3170 -0.6813
 1387TIP3    H2 4168   0.499   0.836   2.044 -0.9912  1.4232 -0.3953
 1388TIP3   OH2 4169   5.238   4.699   1.009  0.7390  0.6466  0.1371
 1388TIP3    H1 4170   5.174   4.737   1.069  0.5440  3.1575 -1.5212
 1388TIP3    H2 4171   5.320   4.699   1.059  0.0164 -0.0707  1.3636
 1389TIP3   OH2 4172   4.905   3.887   2.992  0.0534  0.0165  0.2293
 1389TIP3    H1 4173   4.900   3.976   2.957 -0.5858 -0.6645 -1.5522
 1389TIP3    H2 4174   4.817   3.870   3.026  0.5624  0.5302  1.8691
 1390TIP3   OH2 4175   2.003   4.750   2.038  0.0440 -0.1248 -0.0310
 1390TIP3    H1 4176   1.986   4.835   1.998 -1.1898  0.4204  1.5623
 1390TIP3    H2 4177   2.078   4.765   2.096  1.7584 -0.8872 -1.9130
 1391TIP3   OH2 4178   1.933   4.488   0.320  0.0726 -0.2578  0.1397
 1391TIP3    H1 4179   1.918   4.446   0.405 -0.1676 -0.8802 -0.1974
 1391TIP3    H2 4180   1.873   4.563   0.319 -1.3033 -1.3127 -0.2025
 1392TIP3   OH2 4181   5.198   5.517   1.833  0.3581 -0.2381  0.0142
 1392TIP3    H1 4182   5.106   5.523   1.807  0.8890 -0.2639 -2.0428
 1392TIP3    H2 4183   5.210   5.425   1.856 -0.2848 -0.0916  0.9584
 1393TIP3   OH2 4184   1.458   4.804   0.358  0.5553 -0.1491  0.4090
 1393TIP3    H1 4185   1.502   4.804   0.273  2.0700 -0.4160  1.1532
 1393TIP3    H2 4186   1.404   4.883   0.357 -2.4824 -1.9817 -2.2304
 1394TIP3   OH2 4187   1.376   3.274   0.678  0.2212  0.1152  0.3922
 1394TIP3    H1 4188   1.445   3.219   0.714  1.4984  0.9887 -0.6315
 1394TIP3    H2 4189   1.420   3.356   0.655 -0.8309  0.1654 -1.6510
 1395TIP3   OH2 4190   0.135   1.951   1.412 -0.6348 -0.5575 -0.2185
 1395TIP3    H1 4191   0.089   1.972   1.493 -1.6052 -0.5795 -0.7441
 1395TIP3    H2 4192   0.220   1.994   1.421 -1.6988  1.7254 -0.2858
 1396TIP3   OH2 4193   4.838   0.867   2.774 -0.1778  0.3935 -0.4158
 1396TIP3    H1 4194   4.784   0.903   2.703 -0.2568 -0.8321 -1.0137
 1396TIP3    H2 4195   4.822   0.773   2.770  1.0494  0.1438  0.2126
 1397TIP3   OH2 4196   1.673   0.768   0.377 -0.6532  0.3354 -0.3643
 1397TIP3    H1 4197   1.711   0.818   0.449 -0.4648  0.1474 -0.3329
 1397TIP3    H2 4198   1.579   0.773   0.391 -0.5656 -1.5173  1.1151
 1398TIP3   OH2 4199   2.993   3.432   3.323  0.1157 -0.5621 -0.1277
 1398TIP3    H1 4200   2.903   3.428   3.353  0.3617 -0.9405  0.5658
 1398TIP3    H2 4201   3.043   3.459   3.400  0.7554 -1.5679 -0.1757
 1399TIP3   OH2 4202   5.304   1.263   1.961  0.3827 -0.1975 -0.2342
 1399TIP3    H1 4203   5.349   1.283   2.043 -1.2861 -0.1952  0.7345
 1399TIP3    H2 4204   5.256   1.182   1.979  0.8718 -0.8155 -1.5856
 1400TIP3   OH2 4205   5.698   0.900   1.682 -0.3560  0.4853 -0.5158
 1400TIP3    H1 4206   5.718   0.838   1.612  0.0013  0.0136 -0.0034
 1400TIP3    H2 4207   5.616   0.868   1.720 -0.8613  1.0691 -1.0763
 1401TIP3   OH2 4208   2.595   5.432   0.765 -0.1858 -0.0358  0.2429
 1401TIP3    H1 4209   2.525   5.367   0.763 -1.0126  0.8269  0.1287
 1401TIP3    H2 4210   2.570   5.496   0.699 -0.0039  0.9945  1.1336
 1402TIP3   OH2 4211   0.622   4.012   3.323 -0.4351 -0.4173 -0.1116
 1402TIP3    H1 4212   0.676   4.084   3.356 -0.5989  0.3106 -1.3689
 1402TIP3    H2 4213   0.682   3.938   3.315 -0.2979 -0.4932  1.3560
 1403TIP3   OH2 4214   5.182   5.271   2.491 -0.1161 -0.0033  0.4677
 1403TIP3    H1 4215   5.212   5.275   2.400 -3.0564 -0.8108 -0.6647
 1403TIP3    H2 4216   5.163   5.178   2.505 -2.2899  0.4672  0.9158
 1404TIP3   OH2 4217   4.150   4.909   0.513  0.4318  0.4773 -0.3684
 1404TIP3    H1 4218   4.187   4.990   0.548  0.3254  1.1351 -1.7039
 1404TIP3    H2 4219   4.108   4.936   0.431  0.7103 -0.9790 -1.0203
 1405TIP3   OH2 4220   5.696   1.278   1.880 -0.2588 -0.5471 -0.2552
 1405TIP3    H1 4221   5.693   1.298   1.786 -0.7573  0.8415  0.0236
 1405TIP3    H2 4222   5.639   1.202   1.890  1.1496 -1.7826 -1.2952
 1406TIP3   OH2 4223   4.023   2.890   3.597  0.4177  0.2605  0.5215
 1406TIP3    H1 4224   4.065   2.843   3.525  2.0221  2.4553 -0.0801
 1406TIP3    H2 4225   4.050   2.844   3.676 -1.3041 -2.1455 -0.1651
 1407TIP3   OH2 4226   2.130   5.222   1.228  0.2675  0.3480 -0.5283
 1407TIP3    H1 4227   2.056   5.197   1.173 -0.2427  0.1416  0.2309
 1407TIP3    H2 4228   2.110   5.312   1.255  0.0216  0.1126  0.0970
 1408TIP3   OH2 4229   4.134   3.559   5.045  0.0594 -0.1227  0.6000
 1408TIP3    H1 4230   4.199   3.525   5.106 -0.3426  1.9729  2.3244
 1408TIP3    H2 4231   4.180   3.567   4.962  1.4256 -0.5702  1.2826
 1409TIP3   OH2 4232   1.876   0.458   4.822 -0.1147  1.0417  0.9865
 1409TIP3    H1 4233   1.896   0.550   4.802  1.2373  0.7498  0.9290
 1409TIP3    H2 4234   1.789   0.444   4.784  0.8973  1.4748 -1.7019
 1410TIP3   OH2 4235   1.286   3.241   3.107  0.1151 -0.0678  0.2482
 1410TIP3    H1 4236   1.257   3.264   3.019 -0.8734 -0.4033  0.4631
 1410TIP3    H2 4237   1.207   3.205   3.149  0.2846  1.1024  1.6324
 1411TIP3   OH2 4238   5.204   4.623   4.519  0.0265 -0.2439  0.0376
 1411TIP3    H1 4239   5.139   4.622   4.589 -1.1007  0.7402 -0.9546
 1411TIP3    H2 4240   5.164   4.573   4.447  0.1181  0.8091 -0.7749
 1412TIP3   OH2 4241   0.950   2.226   0.809  0.1907  1.0087  0.0565
 1412TIP3    H1 4242   0.867   2.180   0.821  0.6004 -0.0613 -0.9404
 1412TIP3    H2 4243   0.928   2.319   0.816 -0.6976  0.6871  1.9606
 1413TIP3   OH2 4244   3.880   4.253   4.297 -1.7532 -0.3287 -0.3536
 1413TIP3    H1 4245   3.954   4.223   4.350  0.8746  1.1325 -2.8839
 1413TIP3    H2 4246   3.886   4.348   4.299 -2.4632 -0.2049 -1.9828
 1414TIP3   OH2 4247   4.805   1.599   2.711 -0.3915 -0.5600  0.0335
 1414TIP3    H1 4248   4.752   1.629   2.785 -0.7233 -0.2371 -0.3348
 1414TIP3    H2 4249   4.772   1.511   2.692  1.6275 -1.9011  2.1355
 1415TIP3   OH2 4250   3.638   3.121   2.046  0.0828  0.1783  0.5751
 1415TIP3    H1 4251   3.692   3.042   2.052  1.0353  0.8521  0.9624
 1415TIP3    H2 4252   3.653   3.154   1.958  1.8908  1.4605  1.3163
 1416TIP3   OH2 4253   2.895   3.347   0.968 -0.0824 -0.3110 -0.4347
 1416TIP3    H1 4254   2.960   3.395   1.019  0.0112 -0.9501  0.0640
 1416TIP3    H2 4255   2.945   3.276   0.927 -0.4288 -0.7245 -0.1553
 1417TIP3   OH2 4256   0.861   5.869   4.697 -0.0969  0.4708  0.0150
 1417TIP3    H1 4257   0.921   5.901   4.630 -0.7435  0.9027 -0.3754
 1417TIP3    H2 4258   0.873   5.929   4.771  0.2760  0.2811  0.1073
 1418TIP3   OH2 4259   2.004   2.333   2.221  0.6128  0.1001 -0.2514
 1418TIP3    H1 4260   2.091   2.318   2.258  0.3277 -0.1731  0.3124
 1418TIP3    H2 4261   2.015   2.319   2.127  1.6390  2.0760 -0.4739
 1419TIP3   OH2 4262   2.410   5.090   2.821 -0.3223 -0.1516 -0.3302
 1419TIP3    H1 4263   2.477   5.074   2.887 -0.6577 -1.5931 -0.3002
 1419TIP3    H2 4264   2.418   5.183   2.799 -1.2853  0.8291  2.9419
 1420TIP3   OH2 4265   2.966   2.782   1.552 -0.4882  0.1405 -0.0210
 1420TIP3    H1 4266   2.915   2.862   1.539 -1.3489 -0.2353  0.8469
 1420TIP3    H2 4267   2.901   2.717   1.578  0.1507 -0.9384 -1.0383
 1421TIP3   OH2 4268   3.179   3.268   0.531  0.5330 -0.1552  0.2682
 1421TIP3    H1 4269   3.168   3.173   0.526 -0.1287 -0.1451  1.2322
 1421TIP3    H2 4270   3.271   3.280   0.553  0.2459 -0.6726  1.9118
 1422TIP3   OH2 4271   1.029   3.724   4.840 -0.2887  0.2922  0.0999
 1422TIP3    H1 4272   0.962   3.695   4.902 -0.9675  1.3687 -0.1118
 1422TIP3    H2 4273   1.060   3.643   4.799 -0.3558 -0.3642  1.2995
 1423TIP3   OH2 4274   3.454   4.596   5.158 -0.1385 -0.6734 -0.1465
 1423TIP3    H1 4275   3.493   4.649   5.228 -0.5063 -0.3356 -0.1926
 1423TIP3    H2 4276   3.527   4.576   5.100 -0.1079  0.4071 -0.5175
 1424TIP3   OH2 4277   0.853   0.676   2.351 -0.0966  0.0376  0.1256
 1424TIP3    H1 4278   0.872   0.603   2.292 -0.3141  0.8583 -1.0020
 1424TIP3    H2 4279   0.767   0.708   2.321 -0.3358  0.3027  1.0735
 1425TIP3   OH2 4280   2.670   4.706   3.398 -0.0594  0.0773  0.4685
 1425TIP3    H1 4281   2.750   4.742   3.359 -0.8893  0.5006 -0.8963
 1425TIP3    H2 4282   2.610   4.781   3.403 -0.1795 -0.0855  2.0892
 1426TIP3   OH2 4283   3.523   4.158   2.108 -0.0841  0.5178 -0.6619
 1426TIP3    H1 4284   3.454   4.107   2.150 -0.6032  0.4324 -1.5888
 1426TIP3    H2 4285   3.504   4.151   2.014  1.2845  0.3459 -0.9435
 1427TIP3   OH2 4286   5.466   0.403   0.248 -0.3451 -0.0916  0.4181
 1427TIP3    H1 4287   5.539   0.394   0.186 -0.3660 -1.3208  0.5530
 1427TIP3    H2 4288   5.454   0.315   0.284 -2.9840 -0.3254 -0.8290
 1428TIP3   OH2 4289   5.656   2.003   0.315  0.6474 -0.2092  0.6193
 1428TIP3    H1 4290   5.660   1.993   0.220  1.8893 -0.7753  0.7095
 1428TIP3    H2 4291   5.666   2.097   0.330 -2.0555  0.2316  0.1209
 1429TIP3   OH2 4292   5.339   0.500   2.122 -0.4473  0.4210  0.0346
 1429TIP3    H1 4293   5.381   0.430   2.174 -1.1957 -1.3882 -1.6656
 1429TIP3    H2 4294   5.401   0.572   2.126  0.1903 -0.1507  2.2065
 1430TIP3   OH2 4295   2.235   4.189   0.416  0.0757 -0.0583  0.4837
 1430TIP3    H1 4296   2.216   4.261   0.356 -0.2069 -0.7566 -0.2769
 1430TIP3    H2 4297   2.308   4.142   0.375 -1.1788 -1.5093 -0.1869
 1431TIP3   OH2 4298   1.470   2.791   2.466 -0.0521  0.1808 -0.0511
 1431TIP3    H1 4299   1.402   2.784   2.534 -0.7449  1.3483 -0.5928
 1431TIP3    H2 4300   1.506   2.702   2.459  0.7159  0.1826  2.5124
 1432TIP3   OH2 4301   1.636   1.968   1.843 -0.0747 -1.0072 -0.0503
 1432TIP3    H1 4302   1.726   1.958   1.874  0.2358  1.1699 -0.1279
 1432TIP3    H2 4303   1.593   2.018   1.912 -1.0168 -1.3088 -0.4132
 1433TIP3   OH2 4304   2.377   2.067   4.005  0.1397  0.3027  0.5336
 1433TIP3    H1 4305   2.432   2.064   3.926  0.9064  2.4670  0.9154
 1433TIP3    H2 4306   2.312   2.134   3.985 -0.2959  0.1326  1.3637
 1434TIP3   OH2 4307   2.930   0.018   4.952 -0.2425 -0.7651  0.3847
 1434TIP3    H1 4308   3.012   0.061   4.976 -0.7444  0.3438  0.1816
 1434TIP3    H2 4309   2.867   0.051   5.015 -1.1399  0.6233 -1.1595
 1435TIP3   OH2 4310   2.429   0.607   0.581  0.3104  0.2548  0.1209
 1435TIP3    H1 4311   2.338   0.637   0.582  0.2993  0.2226  0.7430
 1435TIP3    H2 4312   2.424   0.512   0.573  0.2235  0.0834  1.9010
 1436TIP3   OH2 4313   6.168   5.391   3.760 -0.6265  0.3343  0.5344
 1436TIP3    H1 4314   6.128   5.305   3.773 -0.8207  0.3809  0.2512
 1436TIP3    H2 4315   6.205   5.414   3.846 -1.1304  0.2558  0.7743
 1437TIP3   OH2 4316   1.267   0.645   4.370  0.5027 -0.4582 -0.1902
 1437TIP3    H1 4317   1.188   0.695   4.389  1.0827 -0.1228  1.4558
 1437TIP3    H2 4318   1.237   0.554   4.363  0.0289 -0.3882  0.8480
 1438TIP3   OH2 4319   5.870   1.196   1.148 -0.1346 -0.9175  0.2485
 1438TIP3    H1 4320   5.780   1.228   1.149  0.0369 -0.4002 -0.1287
 1438TIP3    H2 4321   5.862   1.101   1.140 -0.6392 -0.7634 -1.3496
 1439TIP3   OH2 4322   3.109   1.564   1.209  0.1703  0.3548 -0.3491
 1439TIP3    H1 4323   3.023   1.589   1.241 -0.8631 -0.8830 -2.0072
 1439TIP3    H2 4324   3.095   1.537   1.118  2.4266  0.7808 -0.8954
 1440TIP3   OH2 4325   4.873   0.934   0.313 -0.1750  0.0954  0.5252
 1440TIP3    H1 4326   4.867   1.017   0.266 -0.5682 -0.0236  0.3527
 1440TIP3    H2 4327   4.793   0.930   0.365 -0.2642 -0.2683  0.3674
 1441TIP3   OH2 4328   6.131   4.812   1.282  0.1396  0.6412 -0.1674
 1441TIP3    H1 4329   6.158   4.760   1.358 -0.5216  2.2898  1.2513
 1441TIP3    H2 4330   6.067   4.757   1.237 -1.0902  0.4615  1.6955
 1442TIP3   OH2 4331   5.800   4.101   0.472 -0.6653  0.0748 -0.2243
 1442TIP3    H1 4332   5.870   4.130   0.531 -0.8809 -1.1372  0.6653
 1442TIP3    H2 4333   5.800   4.165   0.401  1.4927 -0.0215 -0.3578
 1443TIP3   OH2 4334   5.391   2.279   3.282 -0.0808 -0.2308 -0.8109
 1443TIP3    H1 4335   5.320   2.235   3.236 -1.4053  0.2949  0.6277
 1443TIP3    H2 4336   5.358   2.291   3.371  1.6955  0.3325 -0.1779
 1444TIP3   OH2 4337   5.740   4.211   3.989  0.3101  0.4305  0.6075
 1444TIP3    H1 4338   5.654   4.251   4.003  0.4524  0.7983  0.4527
 1444TIP3    H2 4339   5.784   4.271   3.928  0.8518  0.4972  1.0592
 1445TIP3   OH2 4340   6.359   5.567   4.064  0.0347  0.4968 -0.9002
 1445TIP3    H1 4341   6.276   5.609   4.039 -0.7800 -0.3288  0.2759
 1445TIP3    H2 4342   6.407   5.635   4.111 -1.5400  0.0488  1.5462
 1446TIP3   OH2 4343   1.990   0.468   2.941  0.0690 -0.7661 -0.3939
 1446TIP3    H1 4344   1.948   0.511   3.015  1.0413 -0.0496 -0.2473
 1446TIP3    H2 4345   1.933   0.489   2.866 -1.0008 -1.6254  0.1528
 1447TIP3   OH2 4346   1.017   1.328   4.527  0.2172  0.5193  0.0173
 1447TIP3    H1 4347   0.927   1.360   4.523 -0.4905 -1.1933  1.1745
 1447TIP3    H2 4348   1.055   1.353   4.443 -1.7624  0.0410 -1.0721
 1448TIP3   OH2 4349   2.211   5.095   3.126  0.1117 -0.1330  0.2397
 1448TIP3    H1 4350   2.119   5.101   3.151 -0.6197 -1.0541 -2.0140
 1448TIP3    H2 4351   2.223   5.163   3.060  0.7244 -0.7799 -0.3335
 1449TIP3   OH2 4352   0.830   2.572   0.577 -0.0459 -0.0265 -0.6829
 1449TIP3    H1 4353   0.879   2.496   0.547 -0.6744 -1.2236  1.1580
 1449TIP3    H2 4354   0.891   2.645   0.566  0.4756 -0.7221 -2.7463
 1450TIP3   OH2 4355   1.854   1.186   4.126 -0.2382 -0.1365 -0.2097
 1450TIP3    H1 4356   1.848   1.260   4.187 -0.6746 -0.2753 -0.0756
 1450TIP3    H2 4357   1.785   1.203   4.062 -0.3816 -0.4581 -0.1421
 1451TIP3   OH2 4358   6.152   3.461   3.279  0.3078  0.2940  0.1701
 1451TIP3    H1 4359   6.206   3.522   3.329 -1.1948  1.1958  0.7715
 1451TIP3    H2 4360   6.119   3.513   3.205 -3.6099  1.3662  2.3935
 1452TIP3   OH2 4361   5.662   1.021   0.247 -0.3320 -0.5572  0.2365
 1452TIP3    H1 4362   5.709   0.937   0.244  0.7757  0.0676 -1.0015
 1452TIP3    H2 4363   5.640   1.040   0.156  0.4140  0.9957  0.3363
 1453TIP3   OH2 4364   2.209   5.264   0.887  0.2859  0.6880 -0.0174
 1453TIP3    H1 4365   2.206   5.341   0.944 -1.9883  0.9706 -0.3837
 1453TIP3    H2 4366   2.223   5.190   0.946 -0.9544  1.0836  0.8284
 1454TIP3   OH2 4367   0.752   4.012   1.612  0.4678 -0.2240 -0.0244
 1454TIP3    H1 4368   0.666   3.977   1.633 -0.2154 -0.6155 -2.9927
 1454TIP3    H2 4369   0.814   3.948   1.646 -0.6067 -1.9021 -1.1132
 1455TIP3   OH2 4370   2.012   2.466   2.913  0.5043  0.0992 -0.5615
 1455TIP3    H1 4371   1.946   2.421   2.860 -0.6474  1.5395 -0.4045
 1455TIP3    H2 4372   2.087   2.477   2.854 -0.1345  0.2126 -1.3591
 1456TIP3   OH2 4373   2.839   2.722   0.847 -0.6239  0.4258  0.1065
 1456TIP3    H1 4374   2.844   2.654   0.780  0.3571  0.8413 -0.2538
 1456TIP3    H2 4375   2.918   2.709   0.900 -0.9382  0.6651  0.6443
 1457TIP3   OH2 4376   1.072   3.910   2.445  0.0350 -0.0832  0.1305
 1457TIP3    H1 4377   1.015   3.961   2.387 -1.3949  0.7243  2.1183
 1457TIP3    H2 4378   1.019   3.834   2.469  1.0046 -0.9490 -0.3840
 1458TIP3   OH2 4379   0.335   2.177   4.560  0.6492  0.4469 -0.1513
 1458TIP3    H1 4380   0.259   2.177   4.501  1.1272  1.2087 -0.7791
 1458TIP3    H2 4381   0.355   2.269   4.573  1.2071  0.2571  0.3548
 1459TIP3   OH2 4382   1.921   0.709   1.339 -0.7809  0.2754  0.1018
 1459TIP3    H1 4383   1.997   0.715   1.397 -0.9790  1.6922  0.2618
 1459TIP3    H2 4384   1.947   0.758   1.261 -0.9146 -0.6951 -0.5650
 1460TIP3   OH2 4385   2.246   3.300   1.452  0.2680  0.9634 -0.1073
 1460TIP3    H1 4386   2.212   3.225   1.501 -0.4271  0.5075 -1.2316
 1460TIP3    H2 4387   2.342   3.291   1.458  0.1918  0.3431  0.3029
 1461TIP3   OH2 4388   5.425   3.771   4.391  0.4468 -0.0520  0.4927
 1461TIP3    H1 4389   5.367   3.708   4.348  1.0068  0.5833 -1.2694
 1461TIP3    H2 4390   5.368   3.818   4.452 -0.2814 -1.2753  0.7889
 1462TIP3   OH2 4391   4.372   0.807   3.847  0.1078 -0.7887  0.1408
 1462TIP3    H1 4392   4.339   0.883   3.895  1.9140  0.3537 -0.2924
 1462TIP3    H2 4393   4.413   0.752   3.913 -1.6774 -1.7028  0.5342
 1463TIP3   OH2 4394   0.968   4.775   0.621  0.2436  0.6938 -0.3540
 1463TIP3    H1 4395   1.024   4.720   0.566 -0.5598  0.2150 -0.7180
 1463TIP3    H2 4396   0.973   4.862   0.582 -0.5708  0.2935 -1.3968
 1464TIP3   OH2 4397   5.451   2.599   0.227  0.4342 -0.3693 -0.4254
 1464TIP3    H1 4398   5.478   2.570   0.314 -1.0868  0.6112  0.4179
 1464TIP3    H2 4399   5.463   2.694   0.229 -0.1736 -0.2715 -1.0715
 1465TIP3   OH2 4400   3.439   0.490   4.827  0.2275  0.0401 -0.3752
 1465TIP3    H1 4401   3.383   0.525   4.896  2.0091  1.9006  0.2031
 1465TIP3    H2 4402   3.446   0.560   4.763  0.8451 -0.6374 -1.0682
 1466TIP3   OH2 4403   5.255   5.624   0.636 -0.2520  0.7131  0.1919
 1466TIP3    H1 4404   5.169   5.590   0.663  0.8016 -2.8728 -0.4682
 1466TIP3    H2 4405   5.303   5.635   0.718 -0.8861  1.5785  0.4719
 1467TIP3   OH2 4406   5.876   5.011   3.327  0.2214  0.0473  0.7438
 1467TIP3    H1 4407   5.934   4.965   3.388  0.1406  1.2249  1.7629
 1467TIP3    H2 4408   5.932   5.080   3.290 -0.2017  0.4314  0.8194
 1468TIP3   OH2 4409   1.902   4.448   0.737  0.0723 -0.3965 -0.6150
 1468TIP3    H1 4410   1.891   4.353   0.729 -0.3958 -0.3989  0.0135
 1468TIP3    H2 4411   1.991   4.465   0.704  0.4129 -1.1360 -0.0840
 1469TIP3   OH2 4412   5.735   4.438   1.221 -0.5260  0.1215  0.4058
 1469TIP3    H1 4413   5.655   4.448   1.273  0.0325  2.9495  0.8910
 1469TIP3    H2 4414   5.706   4.444   1.130 -0.9471  0.3085  0.5510
 1470TIP3   OH2 4415   1.279   4.750   0.085  0.8076  0.7693  0.4796
 1470TIP3    H1 4416   1.280   4.657   0.103  0.0826  0.5334 -0.5828
 1470TIP3    H2 4417   1.371   4.774   0.075  0.9191 -0.2473 -1.2047
 1471TIP3   OH2 4418   4.189   5.625   2.987 -0.6351  1.0528  0.6532
 1471TIP3    H1 4419   4.213   5.610   3.079  1.3921  1.9207  0.3198
 1471TIP3    H2 4420   4.270   5.654   2.945 -1.7443  1.6778 -1.2050
 1472TIP3   OH2 4421   2.157   5.942   2.662  0.6219  0.2707  0.2138
 1472TIP3    H1 4422   2.065   5.963   2.647  0.3519 -0.0099  1.3467
 1472TIP3    H2 4423   2.198   5.949   2.576 -0.4140  0.6072 -0.2679
 1473TIP3   OH2 4424   3.401   1.279   1.971 -0.4271  0.2640 -0.1733
 1473TIP3    H1 4425   3.308   1.271   1.950 -0.2764 -0.3669 -0.6315
 1473TIP3    H2 4426   3.432   1.188   1.978  0.5272  0.4162 -1.7581
 1474TIP3   OH2 4427   2.796   4.803   3.646  0.1536  0.2818 -0.4279
 1474TIP3    H1 4428   2.802   4.895   3.618 -0.4262  0.4780  0.0799
 1474TIP3    H2 4429   2.753   4.759   3.573 -0.7880  0.6766 -0.1287
 1475TIP3   OH2 4430   4.362   3.876   1.148  0.4663 -0.6763 -0.1144
 1475TIP3    H1 4431   4.272   3.865   1.178  0.3124  1.3869  0.2949
 1475TIP3    H2 4432   4.368   3.968   1.123  2.1177 -1.0784 -1.3450
 1476TIP3   OH2 4433   6.242   3.161   2.354  0.0191  0.2270  0.4691
 1476TIP3    H1 4434   6.227   3.127   2.265 -0.7924  1.0720  0.2664
 1476TIP3    H2 4435   6.184   3.109   2.409 -0.5369  0.6501  0.2923
 1477TIP3   OH2 4436   3.312   1.710   3.928 -0.2052  0.0096  0.4768
 1477TIP3    H1 4437   3.304   1.622   3.963 -0.0478 -0.5029 -0.7155
 1477TIP3    H2 4438   3.390   1.746   3.970  0.9618 -1.1929 -0.5606
 1478TIP3   OH2 4439   2.569   0.868   2.443  0.1356 -0.1406 -0.2826
 1478TIP3    H1 4440   2.544   0.832   2.529  0.3281 -0.2275 -0.2634
 1478TIP3    H2 4441   2.656   0.833   2.427  0.1457 -0.0311 -0.4633
 1479TIP3   OH2 4442   5.383   1.389   1.608  0.6917  0.3402  0.4018
 1479TIP3    H1 4443   5.454   1.406   1.546 -0.2699 -0.6448 -1.0369
 1479TIP3    H2 4444   5.402   1.302   1.643  1.7673  1.2829  2.3189
 1480TIP3   OH2 4445   2.093   4.244   1.136  0.5722  0.3883  0.2252
 1480TIP3    H1 4446   2.103   4.190   1.057  1.2753  0.5348  0.2127
 1480TIP3    H2 4447   2.100   4.334   1.104  0.7031  0.4522  0.4348
 1481TIP3   OH2 4448   1.701   1.187   2.535 -0.8446  0.1325 -0.1177
 1481TIP3    H1 4449   1.663   1.133   2.604  0.3233 -0.5492  0.0159
 1481TIP3    H2 4450   1.749   1.256   2.583  0.2122 -0.5113 -0.2163
 1482TIP3   OH2 4451   5.755   5.531   0.516 -0.0025 -0.1297 -0.2768
 1482TIP3    H1 4452   5.757   5.448   0.467 -1.6383 -0.4119  0.0922
 1482TIP3    H2 4453   5.841   5.534   0.559 -0.7810 -3.0057  1.8429
 1483TIP3   OH2 4454   2.881   4.029   0.894  0.0757 -0.2479 -0.5134
 1483TIP3    H1 4455   2.851   3.938   0.899  0.8792 -0.4751  0.3450
 1483TIP3    H2 4456   2.968   4.023   0.855  0.5216  0.0562  0.4101
 1484TIP3   OH2 4457   1.029   2.753   1.772 -0.4115 -0.0882 -0.6242
 1484TIP3    H1 4458   1.013   2.821   1.837  0.3937 -0.3142 -0.1740
 1484TIP3    H2 4459   1.029   2.672   1.822  1.6093 -0.1526 -0.6415
 1485TIP3   OH2 4460   6.265   0.172   1.649 -0.1311  0.8472 -0.7831
 1485TIP3    H1 4461   6.238   0.258   1.620  0.1949  0.6681 -1.6424
 1485TIP3    H2 4462   6.349   0.157   1.605  0.1698  0.3945 -0.0749
 1486TIP3   OH2 4463   5.882   4.032   3.231 -0.1212  0.5479  0.1599
 1486TIP3    H1 4464   5.875   4.123   3.202 -2.5777  0.3193 -0.1908
 1486TIP3    H2 4465   5.818   4.023   3.301  0.3647 -0.8289  0.4788
 1487TIP3   OH2 4466   5.907   3.645   1.554 -0.3549  0.2590 -0.2995
 1487TIP3    H1 4467   5.992   3.619   1.589  0.3361  0.3972 -1.8099
 1487TIP3    H2 4468   5.844   3.621   1.622  0.9378  0.6202  1.0571
 1488TIP3   OH2 4469   0.142   3.838   1.587 -0.0491 -0.0721 -0.0337
 1488TIP3    H1 4470   0.068   3.853   1.528  0.6071 -0.3170 -0.9353
 1488TIP3    H2 4471   0.142   3.914   1.646 -1.2343 -0.2508  0.2269
 1489TIP3   OH2 4472   2.497   2.769   1.417  0.4294 -0.0289  0.2654
 1489TIP3    H1 4473   2.573   2.716   1.441 -0.1231 -0.9208  0.0805
 1489TIP3    H2 4474   2.484   2.827   1.492 -0.7949 -2.2354  1.8800
 1490TIP3   OH2 4475   2.217   2.180   1.679 -0.0343 -0.3849  0.2814
 1490TIP3    H1 4476   2.229   2.270   1.649  0.7111 -0.5318  0.1070
 1490TIP3    H2 4477   2.185   2.133   1.602 -1.6254 -0.0296  0.6966
 1491TIP3   OH2 4478   1.389   0.663   2.865 -0.0644 -0.1921  0.6399
 1491TIP3    H1 4479   1.405   0.584   2.917 -0.6102 -0.0321  1.0604
 1491TIP3    H2 4480   1.439   0.649   2.785 -1.6142 -1.8118 -0.1312
 1492TIP3   OH2 4481   1.983   4.826   1.187  0.9016 -0.4457  0.0036
 1492TIP3    H1 4482   1.946   4.783   1.264  1.0862  0.6181  0.7169
 1492TIP3    H2 4483   2.058   4.772   1.162 -0.4212 -2.0036 -0.7732
 1493TIP3   OH2 4484   3.052   5.388   4.705  0.4936  0.4215 -0.3303
 1493TIP3    H1 4485   3.078   5.470   4.663 -1.3713  1.0640 -0.3327
 1493TIP3    H2 4486   2.988   5.350   4.646  1.2444 -1.0096 -0.2631
 1494TIP3   OH2 4487   2.802   5.466   3.992  0.3304  0.8098 -0.2171
 1494TIP3    H1 4488   2.820   5.492   3.902 -0.2688 -1.5138 -1.0811
 1494TIP3    H2 4489   2.888   5.456   4.033  0.8234 -1.7887 -1.7128
 1495TIP3   OH2 4490   0.843   1.962   2.624 -0.0310  0.5347  0.1804
 1495TIP3    H1 4491   0.911   1.904   2.659  1.3439  1.1529 -1.3316
 1495TIP3    H2 4492   0.774   1.902   2.594  0.1895 -0.1573  1.0172
 1496TIP3   OH2 4493   2.240   2.117  -0.018 -0.1072  0.3805 -0.0895
 1496TIP3    H1 4494   2.212   2.196   0.029 -0.2293 -0.5577  1.4777
 1496TIP3    H2 4495   2.285   2.065   0.048 -0.5704 -1.1496 -0.9349
 1497TIP3   OH2 4496   3.228   5.897   3.658  0.3384  0.9218  0.0241
 1497TIP3    H1 4497   3.222   5.956   3.733  1.0069  0.3470  0.5444
 1497TIP3    H2 4498   3.214   5.810   3.695  1.0178  0.5995 -0.4469
 1498TIP3   OH2 4499   2.702   2.509   3.287 -0.3222 -0.2222 -0.0519
 1498TIP3    H1 4500   2.675   2.418   3.272 -0.3010 -0.5264  1.5263
 1498TIP3    H2 4501   2.620   2.555   3.304 -0.2975 -0.0410 -0.4330
 1499TIP3   OH2 4502   3.209   4.989   0.782  0.2733  0.0758  0.1666
 1499TIP3    H1 4503   3.148   5.027   0.845  0.5485 -1.0599  1.1681
 1499TIP3    H2 4504   3.152   4.947   0.717 -0.0154  1.1565 -0.2899
 1500TIP3   OH2 4505   5.887   2.847   0.345 -0.7130  0.2877 -0.3665
 1500TIP3    H1 4506   5.797   2.872   0.326 -0.4489  1.7769  0.1878
 1500TIP3    H2 4507   5.939   2.923   0.319  0.2759 -0.1521  0.2707
 1501TIP3   OH2 4508   1.144   0.041   1.919 -0.2177  0.8898  0.0202
 1501TIP3    H1 4509   1.179  -0.044   1.946  1.2676  0.6385 -2.3889
 1501TIP3    H2 4510   1.050   0.026   1.908  0.1488 -0.8090 -1.3589
 1502TIP3   OH2 4511   4.842   2.581   2.005  0.2142  0.4185 -0.0245
 1502TIP3    H1 4512   4.886   2.655   2.046  2.4407 -0.6920 -0.2442
 1502TIP3    H2 4513   4.782   2.620   1.942  1.5974  2.0455 -0.3900
 1503TIP3   OH2 4514   2.044   4.032   2.084 -0.3752  0.3727  0.5266
 1503TIP3    H1 4515   2.126   4.004   2.124  0.4709 -1.4236 -2.1514
 1503TIP3    H2 4516   2.068   4.107   2.031 -0.7506  0.6388  0.7325
 1504TIP3   OH2 4517   4.279   5.609   3.912  0.2594  0.0053 -0.2985
 1504TIP3    H1 4518   4.209   5.562   3.866  0.5071  1.1041 -1.8684
 1504TIP3    H2 4519   4.308   5.548   3.980  0.0871 -1.8559 -1.8006
 1505TIP3   OH2 4520   5.183   5.435   4.164  0.3857  0.0329 -0.3384
 1505TIP3    H1 4521   5.260   5.422   4.109 -1.0321 -0.4851 -2.3177
 1505TIP3    H2 4522   5.177   5.356   4.217  1.1253  0.0185 -0.2688
 1506TIP3   OH2 4523   4.946   0.967   0.935  0.6066  0.4240 -0.3259
 1506TIP3    H1 4524   4.899   0.904   0.989 -0.1417  1.3607  0.1338
 1506TIP3    H2 4525   4.978   1.033   0.996 -0.0852  1.3955 -0.9852
 1507TIP3   OH2 4526   3.300   3.433   1.289 -0.4175  0.2552 -0.0839
 1507TIP3    H1 4527   3.232   3.465   1.229 -2.3021 -0.2625  1.6556
 1507TIP3    H2 4528   3.372   3.496   1.279 -0.5713  0.1366 -2.9007
 1508TIP3   OH2 4529   3.093   2.750   0.242 -0.5757  0.7055  0.6476
 1508TIP3    H1 4530   3.025   2.683   0.253 -0.8669  1.1737  1.8817
 1508TIP3    H2 4531   3.068   2.797   0.163 -0.4050 -0.5923 -0.2007
 1509TIP3   OH2 4532   0.657   4.078   2.015 -0.1679  0.2180 -0.1710
 1509TIP3    H1 4533   0.635   4.067   1.923  0.2732  0.0215 -0.2565
 1509TIP3    H2 4534   0.746   4.044   2.023 -0.3633 -0.1857  0.4167
 1510TIP3   OH2 4535   4.525   5.872   2.302  0.7201  0.2827 -0.3451
 1510TIP3    H1 4536   4.590   5.857   2.233  0.6879 -0.4212 -0.2304
 1510TIP3    H2 4537   4.549   5.809   2.370 -0.8389 -0.9011 -0.8339
 1511TIP3   OH2 4538   5.247   0.121   1.964  0.8271  0.3261 -0.5395
 1511TIP3    H1 4539   5.237   0.207   1.923  1.1566  1.5197  1.6729
 1511TIP3    H2 4540   5.159   0.096   1.991  0.9721  1.0676  0.7414
 1512TIP3   OH2 4541   4.850   5.023   0.964 -0.6644  0.2876  0.0142
 1512TIP3    H1 4542   4.887   5.087   1.024 -0.7280 -0.1089  0.4840
 1512TIP3    H2 4543   4.772   4.990   1.009 -1.5183  1.0070 -0.9002
 1513TIP3   OH2 4544   1.595   2.213   1.536 -0.1643  0.1681  0.5189
 1513TIP3    H1 4545   1.521   2.196   1.478  1.0188  0.6490 -1.2234
 1513TIP3    H2 4546   1.646   2.132   1.535 -0.6210 -0.1551  1.6963
 1514TIP3   OH2 4547   5.540   3.013   1.303 -0.4994 -0.1299  0.1607
 1514TIP3    H1 4548   5.513   3.084   1.361 -0.4078 -0.0896  0.1546
 1514TIP3    H2 4549   5.591   2.954   1.358  3.5350  2.1480 -0.7383
 1515TIP3   OH2 4550   5.054   1.764   1.363 -0.1901  0.0654  0.2529
 1515TIP3    H1 4551   4.987   1.704   1.331 -0.3389  0.1905  0.3285
 1515TIP3    H2 4552   5.093   1.719   1.437  1.3299 -0.9882 -1.1071
 1516TIP3   OH2 4553   4.956   0.320   3.842 -0.2106  0.1852  0.1587
 1516TIP3    H1 4554   5.009   0.309   3.921 -0.4917  0.2227  0.3539
 1516TIP3    H2 4555   4.986   0.250   3.783  1.6662  1.5851 -0.6472
 1517TIP3   OH2 4556   3.839   0.875   4.956 -0.2612 -0.2662 -0.4706
 1517TIP3    H1 4557   3.838   0.909   5.046 -0.9050  1.1560 -0.9757
 1517TIP3    H2 4558   3.756   0.905   4.919  0.4708  0.1061 -1.8608
 1518TIP3   OH2 4559   3.003   3.313   4.928 -0.3131 -0.0582 -0.3495
 1518TIP3    H1 4560   2.932   3.321   4.864  0.1814 -0.7997 -1.0105
 1518TIP3    H2 4561   3.044   3.399   4.930 -0.1481 -0.1162 -1.2501
 1519TIP3   OH2 4562   0.448   2.528   3.415 -0.2602 -0.1531  0.3307
 1519TIP3    H1 4563   0.468   2.547   3.507 -1.1011  1.5990  0.1968
 1519TIP3    H2 4564   0.504   2.453   3.393  1.9133  0.9951  1.5370
 1520TIP3   OH2 4565   4.187   0.988   2.462  0.1430 -0.1073  0.0730
 1520TIP3    H1 4566   4.233   0.934   2.526  2.7502  1.1675 -0.5922
 1520TIP3    H2 4567   4.103   1.009   2.504  1.6009  0.4448  2.9666
 1521TIP3   OH2 4568   4.020   2.727   0.828 -0.2915  0.1925  0.6739
 1521TIP3    H1 4569   4.067   2.644   0.831  0.8767  0.8581  1.2570
 1521TIP3    H2 4570   3.977   2.726   0.743 -0.8296 -1.2847  0.9304
 1522TIP3   OH2 4571   2.185   4.786   4.255 -0.2918 -0.2416  0.3562
 1522TIP3    H1 4572   2.223   4.853   4.198  2.6472 -1.8771  0.1527
 1522TIP3    H2 4573   2.132   4.732   4.197 -1.4504  1.0007  0.2264
 1523TIP3   OH2 4574   5.483   1.582   4.465  0.2455 -0.1519  0.2098
 1523TIP3    H1 4575   5.456   1.515   4.528 -0.6729 -0.3922 -0.4243
 1523TIP3    H2 4576   5.570   1.555   4.436 -0.3494 -1.3979 -0.4778
 1524TIP3   OH2 4577   1.495   2.994   1.268 -0.1638  0.2299 -0.2411
 1524TIP3    H1 4578   1.505   2.947   1.350  0.2119 -0.7450 -0.8286
 1524TIP3    H2 4579   1.424   3.056   1.284  0.0701  0.2252  0.8843
 1525TIP3   OH2 4580   4.503   1.479   2.649  0.1754  0.1139 -0.9153
 1525TIP3    H1 4581   4.511   1.551   2.711 -2.5720 -1.0378  0.9438
 1525TIP3    H2 4582   4.557   1.409   2.685 -0.9619 -0.3510 -0.0274
 1526TIP3   OH2 4583   3.861   4.109   1.206 -0.2516  0.4385  0.7430
 1526TIP3    H1 4584   3.905   4.115   1.290  0.8328 -1.5793  0.3877
 1526TIP3    H2 4585   3.859   4.015   1.186 -2.9998  0.5926 -0.2033
 1527TIP3   OH2 4586   2.406   3.241   0.951  0.4645 -0.4639 -0.3705
 1527TIP3    H1 4587   2.440   3.290   1.026  0.5969  0.7000 -1.1778
 1527TIP3    H2 4588   2.446   3.282   0.875 -1.7518  0.1776 -1.2826
 1528TIP3   OH2 4589   4.936   5.092   1.359  0.7492 -0.7434  0.1943
 1528TIP3    H1 4590   4.983   5.074   1.440  1.9444  1.9957  0.2141
 1528TIP3    H2 4591   4.848   5.116   1.387  1.5170  1.5060  0.9008
 1529TIP3   OH2 4592   1.507   3.512   1.841  0.6875  0.5611 -0.3314
 1529TIP3    H1 4593   1.458   3.430   1.844  0.7121  0.5593  0.2021
 1529TIP3    H2 4594   1.596   3.486   1.819  0.6150  0.4833 -0.5337
 1530TIP3   OH2 4595   2.768   1.005   0.401  0.1345  0.9966 -0.1499
 1530TIP3    H1 4596   2.791   0.918   0.432  2.3104  0.4981 -2.8314
 1530TIP3    H2 4597   2.826   1.064   0.450 -0.2092  0.7991  0.5063
 1531TIP3   OH2 4598   6.159   1.168   1.791 -0.0574 -0.2068 -0.1852
 1531TIP3    H1 4599   6.195   1.107   1.855  0.7398 -0.0810 -0.5089
 1531TIP3    H2 4600   6.084   1.121   1.753 -0.1491 -0.5266  0.3834
 1532TIP3   OH2 4601   4.178   1.968   2.977  0.9205  0.2895 -0.2198
 1532TIP3    H1 4602   4.212   1.965   3.066 -0.8969  2.7216  0.6408
 1532TIP3    H2 4603   4.098   1.916   2.980  0.5980  0.7841 -0.3199
 1533TIP3   OH2 4604   4.497   3.181   0.323 -0.4913 -0.7379  0.9177
 1533TIP3    H1 4605   4.560   3.113   0.345  0.7608  0.2046  0.3819
 1533TIP3    H2 4606   4.525   3.257   0.374  0.3883  0.4478 -1.1690
 1534TIP3   OH2 4607   2.681   4.635   4.305 -0.5592  0.1439  0.4292
 1534TIP3    H1 4608   2.604   4.681   4.272 -0.2807 -1.4296 -2.8085
 1534TIP3    H2 4609   2.660   4.542   4.297 -0.1233 -0.4405  4.3335
 1535TIP3   OH2 4610   2.525   3.403   4.733  0.8083 -0.2762  0.1073
 1535TIP3    H1 4611   2.508   3.310   4.742 -0.2998 -0.0963 -0.0140
 1535TIP3    H2 4612   2.487   3.443   4.811  1.7108  0.0402  0.4061
 1536TIP3   OH2 4613   2.749   1.717   4.360 -0.1938 -0.1151 -0.3137
 1536TIP3    H1 4614   2.760   1.666   4.280 -0.2883 -1.2448  0.3871
 1536TIP3    H2 4615   2.735   1.807   4.329 -2.6035 -0.8955 -1.6537
 1537TIP3   OH2 4616   2.976   4.567   3.207  0.3885  0.1553  0.2470
 1537TIP3    H1 4617   2.995   4.507   3.279 -3.0251  0.7038  1.8175
 1537TIP3    H2 4618   2.908   4.522   3.156  0.0900  1.3436 -0.4418
 1538TIP3   OH2 4619   2.102   4.464   0.983  0.1487 -0.1980 -0.1754
 1538TIP3    H1 4620   2.164   4.531   1.012 -0.4577  0.1456  0.3635
 1538TIP3    H2 4621   2.016   4.506   0.994 -0.2143 -0.9226 -0.2323
 1539TIP3   OH2 4622   4.293   5.166   0.544 -0.2403 -0.0737 -0.2261
 1539TIP3    H1 4623   4.216   5.212   0.508 -0.6326  0.7368  1.5328
 1539TIP3    H2 4624   4.279   5.167   0.639  0.5431 -2.4842 -0.0327
 1540TIP3   OH2 4625   5.177   3.660   0.584  0.0816 -0.2373 -0.6319
 1540TIP3    H1 4626   5.174   3.728   0.517 -0.0724  0.0440 -0.3442
 1540TIP3    H2 4627   5.243   3.598   0.553  1.0540  0.6306 -0.3539
 1541TIP3   OH2 4628   3.585   4.405   4.515  0.1045  0.5114 -0.5335
 1541TIP3    H1 4629   3.578   4.481   4.457 -0.6599  1.1370  0.3695
 1541TIP3    H2 4630   3.672   4.368   4.495  0.3277  1.3896 -1.2432
 1542TIP3   OH2 4631   3.669   1.480   0.511 -0.2376 -0.1869 -0.0381
 1542TIP3    H1 4632   3.660   1.432   0.428  0.8269  0.9148 -0.8289
 1542TIP3    H2 4633   3.594   1.452   0.563 -0.5802 -1.4018 -1.1208
 1543TIP3   OH2 4634   1.313   2.720   1.909 -0.1060 -0.1654 -0.2922
 1543TIP3    H1 4635   1.234   2.674   1.937 -0.8410  0.3324 -1.4715
 1543TIP3    H2 4636   1.363   2.655   1.861 -0.9889  0.1359 -1.6738
 1544TIP3   OH2 4637   5.527   5.261   4.855  0.6122  0.4111 -0.6108
 1544TIP3    H1 4638   5.436   5.232   4.844 -0.4348  3.0190  0.3103
 1544TIP3    H2 4639   5.566   5.252   4.768 -0.2786 -1.3952 -0.8702
 1545TIP3   OH2 4640   1.690   4.610   3.081  0.1455 -0.0841  0.1699
 1545TIP3    H1 4641   1.601   4.643   3.068  0.1621 -0.4914 -1.1165
 1545TIP3    H2 4642   1.690   4.577   3.170 -0.8980  0.2222  0.3024
 1546TIP3   OH2 4643   4.493   4.031   2.754 -0.1110  0.1285  0.8842
 1546TIP3    H1 4644   4.436   4.102   2.724 -0.8190 -0.5678  0.5389
 1546TIP3    H2 4645   4.465   3.955   2.703  1.2451 -0.2025  0.5839
 1547TIP3   OH2 4646   3.850   3.587   4.802  0.1135 -0.0474 -0.7317
 1547TIP3    H1 4647   3.919   3.653   4.799  0.0999 -0.0393 -0.8543
 1547TIP3    H2 4648   3.895   3.507   4.829  0.1223  0.0218 -0.5382
 1548TIP3   OH2 4649   5.053   2.365   4.172 -0.0587 -0.1021  0.3541
 1548TIP3    H1 4650   4.994   2.290   4.183  0.8531 -0.8556  0.2385
 1548TIP3    H2 4651   5.091   2.378   4.259 -1.0363  0.9567  0.6499
 1549TIP3   OH2 4652   5.470   0.207   0.425  0.2013 -0.0413 -0.0574
 1549TIP3    H1 4653   5.433   0.135   0.374 -1.7060 -0.6324  2.0113
 1549TIP3    H2 4654   5.564   0.189   0.427  0.0749 -1.0588 -1.6893
 1550TIP3   OH2 4655   3.745   2.133   1.409  0.5583 -0.3832  0.0434
 1550TIP3    H1 4656   3.836   2.133   1.439  1.0454 -2.1666 -1.2296
 1550TIP3    H2 4657   3.745   2.192   1.334  0.1503  1.2715  1.3035
 1551TIP3   OH2 4658   6.072   3.226   4.439  0.0996  0.2055 -0.3304
 1551TIP3    H1 4659   6.110   3.175   4.368  1.1742  1.0387 -0.3838
 1551TIP3    H2 4660   6.081   3.317   4.411 -1.7643  0.4523 -0.2280
 1552TIP3   OH2 4661   2.098   2.476   2.550  0.0598 -0.5698  0.5461
 1552TIP3    H1 4662   2.161   2.501   2.618  0.0946  0.3077  0.2141
 1552TIP3    H2 4663   2.150   2.473   2.470 -0.3110  0.2119  0.2609
 1553TIP3   OH2 4664   2.622   3.249   0.583 -0.2041 -0.0095 -0.0867
 1553TIP3    H1 4665   2.617   3.233   0.677  2.5266 -0.4161  0.0599
 1553TIP3    H2 4666   2.676   3.328   0.575 -0.1205 -0.1752 -1.3486
 1554TIP3   OH2 4667   2.737   0.070   5.131  0.2431 -0.3712  0.1289
 1554TIP3    H1 4668   2.715   0.022   5.211  0.7176 -1.6663 -0.4831
 1554TIP3    H2 4669   2.675   0.038   5.067  1.5149 -1.3277 -0.6762
 1555TIP3   OH2 4670   1.103   3.766   4.197  0.2357  0.2456  0.5607
 1555TIP3    H1 4671   1.135   3.856   4.195  1.0604 -0.0410  0.7000
 1555TIP3    H2 4672   1.062   3.757   4.283 -0.7337  0.7730  0.1794
 1556TIP3   OH2 4673   2.364   0.108   3.905  0.6399 -0.2216  0.4237
 1556TIP3    H1 4674   2.311   0.153   3.971  1.0510  0.5062  0.2699
 1556TIP3    H2 4675   2.450   0.148   3.912  1.0170 -0.9997  0.2756
 1557TIP3   OH2 4676   3.065   3.132   0.882  0.1321 -0.5504 -0.5287
 1557TIP3    H1 4677   3.129   3.089   0.939 -0.3666  0.9465  1.2759
 1557TIP3    H2 4678   3.062   3.077   0.804  0.5962 -2.9706  1.0131
 1558TIP3   OH2 4679   5.732   1.025   4.687 -0.1770  0.0965  0.4171
 1558TIP3    H1 4680   5.806   1.074   4.651 -1.1638  2.3962  1.3454
 1558TIP3    H2 4681   5.687   0.988   4.610  0.4498  0.8764 -0.3337
 1559TIP3   OH2 4682   4.584   1.952   2.177 -0.2912 -0.1674  0.0887
 1559TIP3    H1 4683   4.569   1.965   2.083 -2.9985 -0.0980  0.4398
 1559TIP3    H2 4684   4.609   1.860   2.184 -0.1829 -0.2108 -0.6727
 1560TIP3   OH2 4685   5.069   2.998   1.078  0.2168  0.1469  0.4240
 1560TIP3    H1 4686   5.033   3.040   1.156  0.1926 -0.1248  0.5622
 1560TIP3    H2 4687   5.112   2.919   1.112  0.2804  0.0742  0.1721
 1561TIP3   OH2 4688   2.565   1.817   1.409 -0.1910  0.0969  0.0693
 1561TIP3    H1 4689   2.547   1.835   1.317  2.7380  0.4817 -0.5441
 1561TIP3    H2 4690   2.611   1.895   1.441  1.7247 -1.2630  0.8646
 1562TIP3   OH2 4691   1.834   3.244   5.064  0.6319 -0.0868 -0.2530
 1562TIP3    H1 4692   1.855   3.323   5.113  0.6534 -0.9919  1.2736
 1562TIP3    H2 4693   1.781   3.191   5.125 -2.8562  0.4160 -2.5524
 1563TIP3   OH2 4694   4.595   1.387   2.393  0.4962  0.0838 -0.4632
 1563TIP3    H1 4695   4.581   1.334   2.471  1.2336  0.3593 -0.1404
 1563TIP3    H2 4696   4.567   1.331   2.320  0.5275 -0.4506 -0.0634
 1564TIP3   OH2 4697   3.941   0.613   2.190  0.2956 -0.2183 -0.4484
 1564TIP3    H1 4698   4.028   0.576   2.207  1.1010  1.3703 -0.8758
 1564TIP3    H2 4699   3.932   0.684   2.254 -1.0261 -0.8348  0.0849
 1565TIP3   OH2 4700   5.311   2.938   1.620 -0.2245 -0.0404  0.5437
 1565TIP3    H1 4701   5.354   2.991   1.552  0.5095 -2.0910 -0.6660
 1565TIP3    H2 4702   5.220   2.970   1.620 -0.1849  0.2039 -1.2269
 1566TIP3   OH2 4703   2.363   2.894   0.266  0.3483 -0.4247  0.5814
 1566TIP3    H1 4704   2.324   2.902   0.179  2.3354  0.0031 -0.3413
 1566TIP3    H2 4705   2.449   2.855   0.250 -0.0849 -2.4440  2.6229
 1567TIP3   OH2 4706   3.932   4.448   3.556 -0.3262 -0.5176 -0.4626
 1567TIP3    H1 4707   3.948   4.365   3.510  0.2207 -0.2132 -0.8353
 1567TIP3    H2 4708   3.897   4.507   3.489  0.4373 -0.0835 -0.4938
 1568TIP3   OH2 4709   4.659   1.027   0.850  0.4491  0.2795 -0.0537
 1568TIP3    H1 4710   4.641   0.939   0.818 -0.6422  0.3442  0.3629
 1568TIP3    H2 4711   4.654   1.082   0.772 -0.6929  0.2265 -0.0250
 1569TIP3   OH2 4712   0.577   4.236   1.118 -0.0055 -0.2219  0.2475
 1569TIP3    H1 4713   0.670   4.224   1.101 -0.4029 -1.1865 -1.4852
 1569TIP3    H2 4714   0.536   4.234   1.031 -1.5946  0.6801  0.9310
 1570TIP3   OH2 4715   1.958   1.902   0.134 -0.1336  0.1702 -0.4654
 1570TIP3    H1 4716   1.957   1.943   0.220 -1.2899 -0.4765 -0.1501
 1570TIP3    H2 4717   1.873   1.925   0.095  0.2170  0.1323 -1.2781
 1571TIP3   OH2 4718   0.883   1.536   4.856  0.4331  0.0811  0.0244
 1571TIP3    H1 4719   0.830   1.460   4.832  1.2403 -0.1096 -1.2109
 1571TIP3    H2 4720   0.895   1.526   4.951 -1.0893 -0.2652  0.2160
 1572TIP3   OH2 4721   6.097   1.058   3.538 -0.3024 -0.6342  0.1105
 1572TIP3    H1 4722   6.026   1.052   3.601 -0.7496  1.2543 -0.1448
 1572TIP3    H2 4723   6.057   1.100   3.461  0.8368 -0.5143 -0.4366
 1573TIP3   OH2 4724   2.148   1.665   4.999 -0.0974  0.2979  0.0786
 1573TIP3    H1 4725   2.242   1.646   5.001  0.6496  3.4398  1.0552
 1573TIP3    H2 4726   2.133   1.702   4.912 -0.2210  0.5957  0.2243
 1574TIP3   OH2 4727   0.768   1.943   5.061 -0.2230  0.5246  0.0299
 1574TIP3    H1 4728   0.806   1.908   5.142 -0.7924 -0.7894 -0.2358
 1574TIP3    H2 4729   0.833   2.005   5.029  1.2541 -0.9206  0.0977
 1575TIP3   OH2 4730   6.014   2.608   2.810  0.9299  0.0412 -0.3522
 1575TIP3    H1 4731   6.107   2.592   2.828  1.2242  0.2367 -1.5674
 1575TIP3    H2 4732   5.999   2.566   2.725 -0.1676 -0.2063 -0.0529
 1576TIP3   OH2 4733   5.239   1.397   3.614  0.5469 -0.0266  0.4845
 1576TIP3    H1 4734   5.328   1.415   3.642  0.0838  1.2113  1.2758
 1576TIP3    H2 4735   5.205   1.483   3.586 -0.6505 -0.3119  0.9902
 1577TIP3   OH2 4736   0.614   0.035   3.668  0.2593  0.1349 -0.7413
 1577TIP3    H1 4737   0.600   0.052   3.761 -0.0381 -2.2196 -0.2985
 1577TIP3    H2 4738   0.661   0.112   3.636 -0.2711  1.3139  1.1761
 1578TIP3   OH2 4739   1.441   2.813   1.043 -1.3752  0.1375  0.3894
 1578TIP3    H1 4740   1.467   2.846   1.129 -2.0840  0.1935  0.5854
 1578TIP3    H2 4741   1.511   2.843   0.984  0.0030 -1.3620  1.2034
 1579TIP3   OH2 4742   2.422   0.351   2.693  0.5107 -0.2351  0.5185
 1579TIP3    H1 4743   2.400   0.427   2.638  0.1688 -0.1991  0.7025
 1579TIP3    H2 4744   2.436   0.387   2.780  1.1606 -0.2792  0.4338
 1580TIP3   OH2 4745   6.268   2.197   0.999 -0.4857  0.3603 -0.4057
 1580TIP3    H1 4746   6.183   2.213   1.039 -0.8127 -3.2025  0.6364
 1580TIP3    H2 4747   6.330   2.199   1.072  0.2149  1.8876 -1.0047
 1581TIP3   OH2 4748   3.644   0.042   2.122 -0.4334 -0.0461 -0.4035
 1581TIP3    H1 4749   3.640   0.004   2.034 -0.2303  1.1807 -0.9576
 1581TIP3    H2 4750   3.576  -0.004   2.170  0.2482 -1.5939 -0.8429
 1582TIP3   OH2 4751   0.995   1.152   4.114  0.2468  0.1511  0.2787
 1582TIP3    H1 4752   0.984   1.058   4.101  0.0109 -0.1746  2.4944
 1582TIP3    H2 4753   1.086   1.161   4.144 -0.3578  0.3275  2.1700
 1583TIP3   OH2 4754   3.557   0.184   4.428  0.4251 -0.8900 -0.1106
 1583TIP3    H1 4755   3.601   0.100   4.439  3.7685  0.8066  0.7293
 1583TIP3    H2 4756   3.584   0.214   4.341 -0.1587 -0.3432 -0.1147
 1584TIP3   OH2 4757   5.091   1.091   2.020 -0.0242  0.2463 -0.2787
 1584TIP3    H1 4758   5.011   1.113   2.068  0.6649  1.6862  0.2769
 1584TIP3    H2 4759   5.062   1.037   1.947 -1.3253 -0.4387  0.7035
 1585TIP3   OH2 4760   5.878   0.064   4.034  0.2111  0.9049  0.2866
 1585TIP3    H1 4761   5.930   0.002   3.982  0.6964  0.5579  1.1713
 1585TIP3    H2 4762   5.787   0.037   4.019  0.4795 -1.2832  2.1544
 1586TIP3   OH2 4763   5.110   0.492   3.250 -0.5134 -0.3257  0.3311
 1586TIP3    H1 4764   5.097   0.410   3.202 -0.0695 -0.9047  1.1875
 1586TIP3    H2 4765   5.066   0.479   3.334 -0.1657  0.1957  0.6020
 1587TIP3   OH2 4766   4.303   1.868   3.600  0.3660 -0.2647  0.4103
 1587TIP3    H1 4767   4.395   1.896   3.603  0.4391 -0.5076  0.4586
 1587TIP3    H2 4768   4.305   1.783   3.557 -0.1323  0.9148 -2.1384
 1588TIP3   OH2 4769   4.935   0.705   4.892  0.3311  0.3858 -0.0694
 1588TIP3    H1 4770   4.939   0.784   4.945 -1.2856  1.2412 -1.1405
 1588TIP3    H2 4771   4.843   0.697   4.868  0.5307 -1.6275 -0.3004
 1589TIP3   OH2 4772   5.110   2.376   4.862 -0.3873 -0.0651 -0.1377
 1589TIP3    H1 4773   5.036   2.322   4.832  1.0461 -1.2999 -1.6188
 1589TIP3    H2 4774   5.124   2.349   4.953  0.0228 -1.9415 -0.7175
 1590TIP3   OH2 4775   2.888   1.652   0.783 -0.1646 -0.4649 -0.1641
 1590TIP3    H1 4776   2.875   1.557   0.778 -2.5161 -0.1916 -0.4918
 1590TIP3    H2 4777   2.890   1.671   0.877 -0.6548 -0.7496 -0.0896
 1591TIP3   OH2 4778   1.706   1.329   2.970  0.0789 -0.3842 -0.3485
 1591TIP3    H1 4779   1.701   1.262   3.038  1.7504 -0.6861 -0.4869
 1591TIP3    H2 4780   1.785   1.379   2.991 -0.8827  1.2823 -0.5092
 1592TIP3   OH2 4781   6.017   3.920   4.648  0.5758  0.3357  1.0474
 1592TIP3    H1 4782   5.979   3.833   4.656  0.2373  0.5256  1.5217
 1592TIP3    H2 4783   6.079   3.927   4.720  0.6820  0.4488  0.9467
 1593TIP3   OH2 4784   5.530   3.196   2.582  0.2054 -0.5954 -0.8046
 1593TIP3    H1 4785   5.602   3.156   2.631  0.6711 -1.1081 -1.8718
 1593TIP3    H2 4786   5.564   3.282   2.556 -0.3164 -0.0081  0.3717
 1594TIP3   OH2 4787   4.172   2.620   1.642  0.1742  0.1793  0.3955
 1594TIP3    H1 4788   4.112   2.670   1.587  0.2657  0.2849  0.3915
 1594TIP3    H2 4789   4.238   2.587   1.581  0.1152  0.0560  0.3984
 1595TIP3   OH2 4790   4.414   0.091   2.907  0.1705  0.5725 -0.1844
 1595TIP3    H1 4791   4.359   0.032   2.855 -2.3808  1.6160  1.1339
 1595TIP3    H2 4792   4.406   0.176   2.863 -0.0741  0.9313  0.5322
 1596TIP3   OH2 4793   2.996   1.688   2.806  0.4496  0.2333 -0.2896
 1596TIP3    H1 4794   3.044   1.629   2.748 -1.9443  0.4052 -2.6218
 1596TIP3    H2 4795   3.063   1.745   2.843  2.1860 -0.2564 -2.4551
 1597TIP3   OH2 4796   1.097   1.405   4.276  0.1309 -0.2380  0.1912
 1597TIP3    H1 4797   1.160   1.340   4.245  0.5626 -0.0699  0.6998
 1597TIP3    H2 4798   1.150   1.482   4.296 -0.2386 -0.0916  0.6155
 1598TIP3   OH2 4799   6.227   0.367   2.790 -0.4911 -0.1399  0.0158
 1598TIP3    H1 4800   6.267   0.385   2.705 -0.0294 -0.8154  0.0851
 1598TIP3    H2 4801   6.137   0.342   2.769 -0.0556 -1.4568 -0.3899
 1599TIP3   OH2 4802   1.185   5.565   2.316 -0.6160  0.1922 -0.0930
 1599TIP3    H1 4803   1.100   5.551   2.358 -0.8896 -0.5532 -0.8555
 1599TIP3    H2 4804   1.170   5.635   2.253 -0.5673  0.3242  0.0421
 1600TIP3   OH2 4805   3.427   1.911   1.118  0.3977  0.5079 -0.6469
 1600TIP3    H1 4806   3.497   1.852   1.147 -0.3917  1.0899  2.9416
 1600TIP3    H2 4807   3.438   1.989   1.172 -2.9656  0.6201  0.0951
 1601TIP3   OH2 4808   4.548   2.245   2.087  0.0096 -0.1101  0.1110
 1601TIP3    H1 4809   4.497   2.181   2.136  0.8156 -0.8627 -0.0123
 1601TIP3    H2 4810   4.591   2.195   2.018  0.1325  0.6756 -0.4003
 1602TIP3   OH2 4811   4.127   3.028   4.691  1.0772 -0.2478  0.1185
 1602TIP3    H1 4812   4.207   3.060   4.731  2.0444  0.1917 -2.0368
 1602TIP3    H2 4813   4.156   2.963   4.628 -0.2660 -0.1505 -0.6412
 1603TIP3   OH2 4814   5.916   2.624   3.539  0.3686  0.4053 -0.8509
 1603TIP3    H1 4815   5.983   2.652   3.477  1.1147 -1.0305 -0.7298
 1603TIP3    H2 4816   5.837   2.671   3.511  1.1832  1.4056 -1.5690
 1604TIP3   OH2 4817   0.979   4.769   3.734  0.3259  0.1888 -0.3652
 1604TIP3    H1 4818   1.040   4.718   3.788 -2.7103 -1.8741  1.4456
 1604TIP3    H2 4819   0.933   4.703   3.682 -1.7044  1.3595 -0.1505
 1605TIP3   OH2 4820   0.668   2.260   1.525 -0.0578  0.1223  0.2569
 1605TIP3    H1 4821   0.702   2.271   1.614  0.7361  0.2539 -0.0541
 1605TIP3    H2 4822   0.676   2.166   1.507  0.3788  0.1934  0.0878
 1606TIP3   OH2 4823   2.864   4.716   0.865 -0.4578 -1.1654 -0.6598
 1606TIP3    H1 4824   2.824   4.731   0.950  0.8803  0.1214 -0.2195
 1606TIP3    H2 4825   2.791   4.691   0.808 -2.1389  2.2138 -0.2113
 1607TIP3   OH2 4826   2.712   0.153   1.789 -0.7165 -0.6071  0.0245
 1607TIP3    H1 4827   2.724   0.169   1.883 -0.8962  0.0872 -0.0662
 1607TIP3    H2 4828   2.724   0.239   1.748  1.1550 -1.2099 -0.7786
 1608TIP3   OH2 4829   0.605   2.211   0.301 -0.4570 -0.7360 -0.0721
 1608TIP3    H1 4830   0.558   2.193   0.219 -2.1441 -1.5065  1.0199
 1608TIP3    H2 4831   0.669   2.140   0.308 -1.0390 -1.2844 -0.2057
 1609TIP3   OH2 4832   0.277   1.259   1.206 -0.7163 -0.0200  0.0318
 1609TIP3    H1 4833   0.342   1.200   1.168 -0.0999  1.1255 -0.7418
 1609TIP3    H2 4834   0.301   1.346   1.174 -1.0824  0.7995  1.8462
 1610TIP3   OH2 4835   5.535   3.268   4.326 -0.0392  0.1881  0.1340
 1610TIP3    H1 4836   5.537   3.187   4.378  0.1818 -1.0573 -1.7324
 1610TIP3    H2 4837   5.443   3.282   4.307 -0.1115  0.5973  0.7523
 1611TIP3   OH2 4838   2.950   5.458   1.594 -0.5759 -0.5608  0.3035
 1611TIP3    H1 4839   2.894   5.380   1.593 -1.2064 -0.1264  0.7617
 1611TIP3    H2 4840   2.901   5.524   1.546 -0.6277 -0.0669  1.0152
 1612TIP3   OH2 4841   0.952   0.982   0.813  0.3415 -0.4011 -0.2019
 1612TIP3    H1 4842   0.929   1.066   0.774  0.1360  0.6944  2.0977
 1612TIP3    H2 4843   1.046   0.974   0.797  0.1667 -0.2734 -1.3695
 1613TIP3   OH2 4844   5.421   5.516   2.066 -0.2777  0.1181 -0.0454
 1613TIP3    H1 4845   5.351   5.540   2.004 -1.0609 -0.9618  0.3927
 1613TIP3    H2 4846   5.392   5.553   2.149 -0.1319  0.0038  0.0546
 1614TIP3   OH2 4847   4.695   5.615   3.087 -0.1848 -0.3742 -0.0568
 1614TIP3    H1 4848   4.693   5.627   3.182 -0.9932 -2.7163  0.2992
 1614TIP3    H2 4849   4.730   5.526   3.074  1.0337  0.3204 -2.0325
 1615TIP3   OH2 4850   4.263   0.328   3.909  0.0318 -0.1716 -0.7802
 1615TIP3    H1 4851   4.197   0.268   3.877 -1.9697  1.0923  0.7070
 1615TIP3    H2 4852   4.225   0.415   3.897  1.5246  0.6294 -0.1053
 1616TIP3   OH2 4853   3.841   3.476   5.074  0.6473  0.3371  0.0893
 1616TIP3    H1 4854   3.799   3.473   5.159 -0.8821  1.0964 -0.5968
 1616TIP3    H2 4855   3.922   3.526   5.088  1.6766 -1.6106  1.5360
 1617TIP3   OH2 4856   1.970   3.862   0.821 -0.3222  0.1854  0.5070
 1617TIP3    H1 4857   1.955   3.786   0.878 -1.5631 -0.2745 -0.3863
 1617TIP3    H2 4858   1.887   3.908   0.820  0.1336  1.0132  0.2375
 1618TIP3   OH2 4859   0.658   0.973   2.738 -0.3323 -0.0742 -0.5833
 1618TIP3    H1 4860   0.726   1.039   2.751  0.5053 -1.4455  4.0490
 1618TIP3    H2 4861   0.705   0.890   2.737 -1.6930 -0.8730 -1.6006
 1619TIP3   OH2 4862   2.611   5.660   0.975  0.4711 -0.1081  0.6993
 1619TIP3    H1 4863   2.701   5.694   0.972  0.4650 -0.0296  1.3054
 1619TIP3    H2 4864   2.611   5.586   0.915  0.2744  1.4419 -1.3532
 1620TIP3   OH2 4865   4.418   4.290   3.344  0.0408 -0.2431  0.4678
 1620TIP3    H1 4866   4.483   4.358   3.324  0.6564 -0.2953  2.1892
 1620TIP3    H2 4867   4.407   4.243   3.261 -0.6380  2.1100 -0.8822
 1621TIP3   OH2 4868   2.321   3.492   1.649 -0.3591  0.0932 -0.2146
 1621TIP3    H1 4869   2.306   3.440   1.571  2.4269 -1.9165  0.4495
 1621TIP3    H2 4870   2.308   3.431   1.722  1.4010  0.6930  0.6586
 1622TIP3   OH2 4871   1.722   3.887   3.628 -0.1239  0.2669  0.3124
 1622TIP3    H1 4872   1.644   3.835   3.650 -1.1260  1.9021  0.7948
 1622TIP3    H2 4873   1.765   3.837   3.558 -1.1820 -1.0618  0.5751
 1623TIP3   OH2 4874   2.251   5.789   2.340  0.0354  0.3346 -0.2080
 1623TIP3    H1 4875   2.309   5.713   2.341 -0.2814  0.0849 -0.4917
 1623TIP3    H2 4876   2.172   5.758   2.297 -0.7701  0.3431  1.2010
 1624TIP3   OH2 4877   5.125   4.083   0.972 -0.3566 -0.4052 -0.1514
 1624TIP3    H1 4878   5.054   4.141   0.943  1.3118  0.8921 -1.9261
 1624TIP3    H2 4879   5.122   4.009   0.910 -0.0740 -0.2743 -0.3223
 1625TIP3   OH2 4880   3.677   3.968   0.672  1.0429  0.8028 -0.6421
 1625TIP3    H1 4881   3.715   3.992   0.757  0.7643 -0.2220 -0.2148
 1625TIP3    H2 4882   3.617   4.040   0.652  1.9387  1.6005 -0.5144
 1626TIP3   OH2 4883   6.131   1.550   0.079 -0.1209  0.3009 -0.9941
 1626TIP3    H1 4884   6.139   1.510   0.165  0.0238  1.2202 -0.5719
 1626TIP3    H2 4885   6.046   1.594   0.081  0.9583  2.4516 -0.3963
 1627TIP3   OH2 4886   4.090   4.458   0.511 -0.0128 -0.3175  0.3940
 1627TIP3    H1 4887   4.053   4.388   0.565  0.7372 -1.1562 -0.1417
 1627TIP3    H2 4888   4.182   4.461   0.536 -0.4970  2.3304  2.3449
 1628TIP3   OH2 4889   0.929   3.296   1.294 -0.3428 -0.1012 -0.2172
 1628TIP3    H1 4890   0.882   3.380   1.292 -1.4342 -0.7065 -1.1442
 1628TIP3    H2 4891   0.879   3.243   1.355 -0.3463 -0.4685 -0.5403
 1629TIP3   OH2 4892   1.188   4.672   3.914 -0.4134 -0.3151 -0.0369
 1629TIP3    H1 4893   1.229   4.758   3.906 -0.4570 -0.3504 -0.7081
 1629TIP3    H2 4894   1.262   4.610   3.907 -0.4313 -0.3410  0.0062
 1630TIP3   OH2 4895   4.959   4.237   0.589  0.4773  0.0344 -0.0845
 1630TIP3    H1 4896   5.029   4.221   0.652  1.0075 -2.4049 -1.1634
 1630TIP3    H2 4897   4.885   4.267   0.642  2.3835  3.1418  1.0262
 1631TIP3   OH2 4898   3.459   1.052   0.462  0.3346 -0.9615 -0.6920
 1631TIP3    H1 4899   3.402   1.010   0.526  1.5950  0.5329  1.5258
 1631TIP3    H2 4900   3.400   1.101   0.405 -0.6621  0.5333  1.5260
 1632TIP3   OH2 4901   1.914   5.536   1.923 -0.0041 -0.7261 -0.5167
 1632TIP3    H1 4902   2.007   5.549   1.905 -0.4492  1.2620 -1.7764
 1632TIP3    H2 4903   1.909   5.449   1.963  2.4382 -0.6454  0.1537
 1633TIP3   OH2 4904   4.171   5.557   4.276  0.7620  0.5594 -0.5817
 1633TIP3    H1 4905   4.091   5.569   4.225 -0.8119  1.8000  1.9907
 1633TIP3    H2 4906   4.174   5.631   4.336  2.5669 -0.6889  1.0364
 1634TIP3   OH2 4907   1.301   2.161   2.862  0.2819  0.2134 -0.2773
 1634TIP3    H1 4908   1.234   2.223   2.894  0.8328 -1.2132  4.3903
 1634TIP3    H2 4909   1.383   2.194   2.899  1.3763 -0.7940 -1.7130
 1635TIP3   OH2 4910   1.955   5.321   2.565 -0.4700  0.3095  0.3086
 1635TIP3    H1 4911   1.976   5.390   2.627  2.3570 -0.2444  0.0965
 1635TIP3    H2 4912   1.909   5.255   2.617  0.7823  0.3939  1.5776
 1636TIP3   OH2 4913   5.608   0.458   3.044  0.3706 -0.7802  0.5439
 1636TIP3    H1 4914   5.666   0.459   3.121  1.4873 -0.0388 -0.2775
 1636TIP3    H2 4915   5.568   0.544   3.043 -2.9309 -2.0974  2.6244
 1637TIP3   OH2 4916   4.427   4.781   1.208  0.2412  0.1317 -0.3325
 1637TIP3    H1 4917   4.476   4.791   1.290 -3.0983  0.5269  1.8371
 1637TIP3    H2 4918   4.446   4.692   1.180 -0.4103 -0.9657  2.3459
 1638TIP3   OH2 4919   3.111   1.867   4.618  0.6672 -0.6629  0.2189
 1638TIP3    H1 4920   3.192   1.867   4.670  0.7813  1.6545  0.1468
 1638TIP3    H2 4921   3.059   1.938   4.654 -0.5511 -0.9191 -0.9528
 1639TIP3   OH2 4922   4.243   3.809   1.630 -0.5793  0.0616 -0.1216
 1639TIP3    H1 4923   4.160   3.768   1.655 -0.9666  1.4946  1.1037
 1639TIP3    H2 4924   4.255   3.785   1.538 -3.7482  1.9323 -1.1911
 1640TIP3   OH2 4925   5.706   0.221   4.379 -0.6808  0.2447  0.1592
 1640TIP3    H1 4926   5.757   0.173   4.314 -0.9795  1.0283 -0.6907
 1640TIP3    H2 4927   5.615   0.195   4.362 -0.8199  0.9067 -0.1469
 1641TIP3   OH2 4928   4.139   3.226   3.207 -0.3759 -0.0806  0.0574
 1641TIP3    H1 4929   4.178   3.289   3.267  0.1037  1.7912 -2.0589
 1641TIP3    H2 4930   4.193   3.232   3.128 -0.3118 -3.2161 -0.2478
 1642TIP3   OH2 4931   5.594   5.354   4.181 -0.6926  0.2068  0.1326
 1642TIP3    H1 4932   5.580   5.448   4.197  0.5817  0.5623 -0.6641
 1642TIP3    H2 4933   5.532   5.332   4.112  0.7382  1.1171 -1.5195
 1643TIP3   OH2 4934   5.003   0.217   5.124 -0.3262  0.4337  0.7161
 1643TIP3    H1 4935   4.979   0.296   5.076 -0.4727 -0.2386 -0.3393
 1643TIP3    H2 4936   4.925   0.162   5.121  0.5731 -0.8369 -0.8323
 1644TIP3   OH2 4937   5.291   5.275   1.796 -0.1662  0.5414 -0.2981
 1644TIP3    H1 4938   5.279   5.279   1.701  0.0689  0.0314 -0.3525
 1644TIP3    H2 4939   5.263   5.187   1.820  2.0261 -0.2031 -0.2320
 1645TIP3   OH2 4940   2.854   1.993   3.482  0.3552 -0.6427 -0.0309
 1645TIP3    H1 4941   2.790   1.921   3.481  0.1096 -0.5041  1.9975
 1645TIP3    H2 4942   2.908   1.978   3.404 -1.5121 -1.3252 -1.2639
 1646TIP3   OH2 4943   2.290   0.680   4.356  0.4685 -0.0548  0.1643
 1646TIP3    H1 4944   2.263   0.692   4.264 -0.3074  0.9507  0.4961
 1646TIP3    H2 4945   2.284   0.768   4.394  0.2072 -0.5512  1.3218
 1647TIP3   OH2 4946   5.232   4.507   0.277  0.4779  0.6467 -0.0161
 1647TIP3    H1 4947   5.193   4.587   0.242 -1.4423 -1.0173 -1.9512
 1647TIP3    H2 4948   5.158   4.451   0.300  1.5431 -2.2133 -2.7842
 1648TIP3   OH2 4949   1.753   2.530   4.539 -0.6394  0.2618 -0.5157
 1648TIP3    H1 4950   1.768   2.596   4.607 -1.7923 -1.1562  1.2046
 1648TIP3    H2 4951   1.753   2.580   4.457 -1.0837  2.3462  0.6675
 1649TIP3   OH2 4952   1.064   0.159   0.417  0.9733  0.2836  0.1860
 1649TIP3    H1 4953   1.139   0.103   0.436  0.6726  0.0808  0.8066
 1649TIP3    H2 4954   1.030   0.185   0.503 -0.0956 -0.2120 -0.0658
 1650TIP3   OH2 4955   5.628   2.072   2.834  0.1647  0.2664 -0.0106
 1650TIP3    H1 4956   5.616   2.163   2.863  0.0270  0.4267 -0.5593
 1650TIP3    H2 4957   5.723   2.065   2.819  0.2290  0.2003  0.4031
 1651TIP3   OH2 4958   5.684   1.077   3.321  0.1034 -0.0445  0.2679
 1651TIP3    H1 4959   5.717   1.069   3.231 -0.1972 -0.4317  0.1884
 1651TIP3    H2 4960   5.689   0.988   3.356 -0.0151  0.0608  0.5530
 1652TIP3   OH2 4961   1.792   0.398   2.561  0.4564 -0.3009  0.2495
 1652TIP3    H1 4962   1.717   0.422   2.506  0.6394  0.4039  0.2973
 1652TIP3    H2 4963   1.866   0.447   2.524  0.3949  0.9547  1.6761
 1653TIP3   OH2 4964   3.440   3.105   0.870  0.0485  0.4160  0.0481
 1653TIP3    H1 4965   3.533   3.080   0.870 -0.1945 -0.5573 -1.0008
 1653TIP3    H2 4966   3.414   3.102   0.962  1.0932  0.8623  0.3737
 1654TIP3   OH2 4967   0.335   0.612   4.501  0.0418  0.3658  0.2654
 1654TIP3    H1 4968   0.318   0.600   4.407 -0.7248  2.0234  0.1545
 1654TIP3    H2 4969   0.366   0.702   4.508  2.5833 -0.5144  1.3398
 1655TIP3   OH2 4970   4.236   5.077   1.105  0.0113  0.2946 -0.5103
 1655TIP3    H1 4971   4.156   5.069   1.158  1.2345 -1.1029  1.2662
 1655TIP3    H2 4972   4.273   5.161   1.130  0.8633 -0.5927  1.3838
 1656TIP3   OH2 4973   3.483   2.456   3.590  0.0308  0.1199 -0.3438
 1656TIP3    H1 4974   3.465   2.417   3.504 -2.2020 -0.0117  0.1271
 1656TIP3    H2 4975   3.445   2.543   3.585  0.4942  0.3711  0.3128
 1657TIP3   OH2 4976   4.139   4.234   4.359  0.0710  0.0186 -0.6437
 1657TIP3    H1 4977   4.194   4.292   4.307 -1.2671 -0.0507 -2.2439
 1657TIP3    H2 4978   4.157   4.258   4.449  0.4092  2.1414 -1.2176
 1658TIP3   OH2 4979   5.526   5.641   4.738 -0.2863 -0.9054  0.0046
 1658TIP3    H1 4980   5.514   5.736   4.745 -0.6508 -1.0295  1.4849
 1658TIP3    H2 4981   5.575   5.618   4.817 -2.2787 -2.2596  0.9132
 1659TIP3   OH2 4982   1.688   3.129   4.859 -0.1774 -0.3058  0.4912
 1659TIP3    H1 4983   1.727   3.144   4.773  0.0228 -2.9184  0.0227
 1659TIP3    H2 4984   1.756   3.156   4.921 -0.1406  1.1603 -0.1595
 1660TIP3   OH2 4985   1.056   3.484   3.504  0.0210 -0.5782  0.4067
 1660TIP3    H1 4986   1.034   3.438   3.423 -1.8956 -1.7682  1.5174
 1660TIP3    H2 4987   0.987   3.459   3.565  0.0753  2.1428  1.7473
 1661TIP3   OH2 4988   2.637   0.438   3.001 -0.1997  0.0986 -0.1236
 1661TIP3    H1 4989   2.563   0.481   2.959  0.6475  0.5964 -1.1228
 1661TIP3    H2 4990   2.636   0.471   3.091  0.1649  1.8921 -0.7417
 1662TIP3   OH2 4991   0.435   2.661   4.573 -0.3596 -0.1052 -0.3716
 1662TIP3    H1 4992   0.494   2.736   4.570 -1.9604  1.2533  0.2253
 1662TIP3    H2 4993   0.400   2.653   4.484 -0.2379 -0.1133 -0.4191
 1663TIP3   OH2 4994   1.877   2.589   1.965 -0.0900 -0.1129  0.1437
 1663TIP3    H1 4995   1.822   2.520   1.928  0.4659  0.4870 -1.9179
 1663TIP3    H2 4996   1.819   2.635   2.026 -1.1564 -0.9461 -0.2048
 1664TIP3   OH2 4997   1.483   4.095   0.876 -0.3325 -0.5028  0.3508
 1664TIP3    H1 4998   1.507   4.159   0.810 -0.5726  0.6915  1.3933
 1664TIP3    H2 4999   1.423   4.035   0.830 -1.4374  0.9797 -0.2285
 1665TIP3   OH2 5000   0.075   1.278   2.196  0.3936  0.0793 -0.2194
 1665TIP3    H1 5001   0.063   1.373   2.193  1.2468  0.1696 -1.2617
 1665TIP3    H2 5002   0.162   1.266   2.234  0.9374 -0.2092 -1.5019
 1666TIP3   OH2 5003   4.700   3.313   3.878  0.2439 -0.1775 -0.4995
 1666TIP3    H1 5004   4.787   3.344   3.854 -0.2498 -0.8293 -3.5027
 1666TIP3    H2 5005   4.651   3.392   3.901  0.3168  0.8805 -3.5342
 1667TIP3   OH2 5006   2.266   0.977   3.537 -0.5631 -0.5744  0.4781
 1667TIP3    H1 5007   2.278   1.072   3.547 -0.3227 -0.6844  1.3243
 1667TIP3    H2 5008   2.195   0.968   3.474 -0.2102  0.1652 -0.0418
 1668TIP3   OH2 5009   1.566   5.075   1.725 -0.6269 -0.1905 -0.1894
 1668TIP3    H1 5010   1.629   5.010   1.696 -0.3777  0.2552 -0.6629
 1668TIP3    H2 5011   1.506   5.027   1.782 -1.3657 -1.1745 -1.7484
 1669TIP3   OH2 5012   3.885   3.303   1.173 -0.1754  0.9056  0.2498
 1669TIP3    H1 5013   3.810   3.334   1.223 -1.3443 -0.0660 -0.8593
 1669TIP3    H2 5014   3.909   3.219   1.214  0.2868  1.1770  0.5549
 1670TIP3   OH2 5015   2.873   3.307   2.446 -0.8695 -0.1841 -0.4971
 1670TIP3    H1 5016   2.961   3.342   2.436 -0.3587 -1.6137 -1.3600
 1670TIP3    H2 5017   2.854   3.314   2.540  0.8345 -1.3486 -0.0198
 1671TIP3   OH2 5018   3.041   5.364   3.345  0.0634  0.0400  0.4950
 1671TIP3    H1 5019   3.107   5.295   3.351  1.5417  1.3965  0.4469
 1671TIP3    H2 5020   3.089   5.445   3.358 -1.0781  1.3262 -2.3377
 1672TIP3   OH2 5021   0.900   0.466   2.538 -0.0250 -0.5693  0.0551
 1672TIP3    H1 5022   0.856   0.394   2.493  1.1936 -0.5695 -1.1950
 1672TIP3    H2 5023   0.879   0.543   2.485 -1.7466  0.1382  1.6642
 1673TIP3   OH2 5024   1.412   3.580   1.529 -0.2146 -0.0588 -0.1900
 1673TIP3    H1 5025   1.404   3.491   1.562 -0.4978  0.3130  0.7879
 1673TIP3    H2 5026   1.498   3.610   1.558 -0.0358 -0.0817 -0.6899
 1674TIP3   OH2 5027   6.353   1.743   0.116 -0.3844  0.0313  0.1446
 1674TIP3    H1 5028   6.278   1.692   0.088  0.5339 -0.3067 -1.8318
 1674TIP3    H2 5029   6.332   1.833   0.090 -0.0048 -0.1136 -0.7146
 1675TIP3   OH2 5030  -0.001   3.866   2.717 -0.5155 -0.0787 -0.1751
 1675TIP3    H1 5031  -0.011   3.960   2.697 -0.6284  0.1055  0.7296
 1675TIP3    H2 5032   0.037   3.864   2.804  1.7876 -0.8528 -1.1138
 1676TIP3   OH2 5033   5.187   3.806   4.173 -0.0778  0.2545  0.1499
 1676TIP3    H1 5034   5.191   3.712   4.154 -2.3854  0.2646 -0.8146
 1676TIP3    H2 5035   5.246   3.846   4.109  0.4740 -0.4800  0.1831
 1677TIP3   OH2 5036   3.454   2.484   3.996 -0.3554  0.5205  0.3307
 1677TIP3    H1 5037   3.534   2.477   4.048 -0.3248  1.6414  0.4603
 1677TIP3    H2 5038   3.383   2.476   4.060 -0.3176  2.1507  0.6238
 1678TIP3   OH2 5039   4.232   5.455   1.061 -0.2828  0.0565  0.3359
 1678TIP3    H1 5040   4.293   5.422   1.127 -1.5118  0.9407  1.9796
 1678TIP3    H2 5041   4.286   5.509   1.003  0.6803 -0.1096  1.0594
 1679TIP3   OH2 5042   1.608   0.461   4.758  0.0824  0.3875 -0.2931
 1679TIP3    H1 5043   1.516   0.470   4.735  0.0522 -0.6335 -0.6068
 1679TIP3    H2 5044   1.610   0.394   4.826  0.6848 -0.3487 -1.0122
 1680TIP3   OH2 5045   2.063   1.075   0.685 -0.5603  0.6564  0.2384
 1680TIP3    H1 5046   2.020   0.995   0.716 -1.0707  1.2964  1.2281
 1680TIP3    H2 5047   2.151   1.071   0.721 -0.4069  0.2991 -0.1571
 1681TIP3   OH2 5048   3.496   4.188   0.657 -0.3259 -0.3732  0.5336
 1681TIP3    H1 5049   3.421   4.212   0.712  0.0009 -0.2017  0.9029
 1681TIP3    H2 5050   3.517   4.269   0.610 -0.3064 -0.3962  0.5030
 1682TIP3   OH2 5051   3.408   2.585   2.257  0.1106  0.4978  0.4001
 1682TIP3    H1 5052   3.468   2.637   2.205  1.3791 -1.1374  0.1414
 1682TIP3    H2 5053   3.415   2.497   2.220 -1.7740  0.0692  0.9524
 1683TIP3   OH2 5054   3.868   5.370   4.781 -0.4099 -0.1586 -0.3168
 1683TIP3    H1 5055   3.949   5.357   4.829 -0.4255  2.3001  0.5150
 1683TIP3    H2 5056   3.808   5.409   4.844 -1.1643  1.0799 -1.7266
 1684TIP3   OH2 5057   1.142   3.587   2.281 -0.9110  0.1332 -0.3748
 1684TIP3    H1 5058   1.162   3.500   2.314 -1.6394 -0.2669 -0.9434
 1684TIP3    H2 5059   1.057   3.609   2.319 -0.8208  0.5174 -0.3850
 1685TIP3   OH2 5060   6.118   0.480   0.245 -0.4857 -0.6146  0.0601
 1685TIP3    H1 5061   6.109   0.400   0.297 -0.0817 -1.3726 -1.0254
 1685TIP3    H2 5062   6.080   0.459   0.160  1.1664 -0.2236 -0.8161
 1686TIP3   OH2 5063   3.829   2.007   2.179  0.0245 -0.2721 -0.4931
 1686TIP3    H1 5064   3.876   1.924   2.180  2.1388  0.8336 -0.5855
 1686TIP3    H2 5065   3.737   1.984   2.189  0.6846 -2.5049  1.1037
 1687TIP3   OH2 5066   4.301   0.838   4.627 -0.7830 -0.0659 -0.0850
 1687TIP3    H1 5067   4.246   0.915   4.613 -0.9112 -0.3357 -1.1532
 1687TIP3    H2 5068   4.271   0.802   4.711 -2.1140 -0.0884 -0.5433
 1688TIP3   OH2 5069   2.665   4.287   3.957  0.7256 -0.1464  0.6060
 1688TIP3    H1 5070   2.637   4.259   3.870  0.3091 -0.1404  0.7365
 1688TIP3    H2 5071   2.661   4.383   3.954 -1.1835 -0.1741  1.2355
 1689TIP3   OH2 5072   3.320   2.870   1.646  0.0535  0.4089 -0.2458
 1689TIP3    H1 5073   3.358   2.957   1.637  0.2010  0.2739 -0.9718
 1689TIP3    H2 5074   3.296   2.845   1.557 -1.5318  0.3962  0.1565
 1690TIP3   OH2 5075   4.525   3.594   0.955 -0.0581  0.1066  0.0538
 1690TIP3    H1 5076   4.463   3.597   0.881 -0.3415  1.2397  0.3166
 1690TIP3    H2 5077   4.540   3.501   0.970  0.0085 -0.1463 -1.4356
 1691TIP3   OH2 5078   4.521   5.658   5.068 -0.2061 -0.1182 -0.0251
 1691TIP3    H1 5079   4.533   5.614   5.152 -4.0605 -0.1402  0.6661
 1691TIP3    H2 5080   4.522   5.751   5.088 -2.6356 -0.1341  0.4033
 1692TIP3   OH2 5081   5.119   5.772   4.915  0.4882  0.8784  0.2606
 1692TIP3    H1 5082   5.026   5.751   4.925 -0.2392  2.6339 -1.9394
 1692TIP3    H2 5083   5.150   5.784   5.004 -0.8442 -1.7394  1.1786
 1693TIP3   OH2 5084   2.282   0.378   3.356 -0.0497  0.4172 -0.0925
 1693TIP3    H1 5085   2.265   0.427   3.437 -0.9226  0.1198 -0.0912
 1693TIP3    H2 5086   2.237   0.295   3.368 -0.9578  0.7212 -1.2554
 1694TIP3   OH2 5087   1.410   1.069   1.898 -0.1247  0.1035  0.3895
 1694TIP3    H1 5088   1.420   0.986   1.850 -0.1273  0.6342 -0.5554
 1694TIP3    H2 5089   1.433   1.047   1.988 -0.6654 -1.0597  0.2707
 1695TIP3   OH2 5090   4.258   2.819   3.481 -0.0633 -0.3007  0.0357
 1695TIP3    H1 5091   4.273   2.890   3.419  0.8033 -1.5551 -1.2561
 1695TIP3    H2 5092   4.315   2.839   3.556  2.0140 -0.7977 -1.3339
 1696TIP3   OH2 5093   3.294   3.524   3.081 -0.1177  0.0378 -0.0991
 1696TIP3    H1 5094   3.275   3.575   3.160 -0.6616 -0.9775  0.4614
 1696TIP3    H2 5095   3.378   3.482   3.099 -0.0128  0.1785 -0.2594
 1697TIP3   OH2 5096   5.947   1.520   1.651 -0.3127 -0.3996  0.0737
 1697TIP3    H1 5097   5.859   1.486   1.637 -1.1548  1.7279 -0.2404
 1697TIP3    H2 5098   5.954   1.531   1.746 -1.3546  1.6474 -0.0325
 1698TIP3   OH2 5099   4.488   4.520   3.089  0.5587 -0.1654 -0.2161
 1698TIP3    H1 5100   4.492   4.616   3.088 -2.0988  0.0009  0.0269
 1698TIP3    H2 5101   4.501   4.497   3.181 -3.2402  0.3317  0.5762
 1699TIP3   OH2 5102   0.965   4.185   2.593 -0.0603  0.1107  0.1438
 1699TIP3    H1 5103   0.874   4.191   2.619 -0.1509  2.2507 -0.4443
 1699TIP3    H2 5104   0.962   4.186   2.497  0.5978  1.3245  0.1180
 1700TIP3   OH2 5105   2.295   3.372   4.564 -0.1628 -0.2731 -0.2019
 1700TIP3    H1 5106   2.332   3.368   4.652 -1.1666 -1.6424  0.1903
 1700TIP3    H2 5107   2.235   3.447   4.567  0.0689 -0.0987  0.1586
 1701TIP3   OH2 5108   4.182   1.981   2.233 -0.0656  0.6205 -0.3290
 1701TIP3    H1 5109   4.134   1.959   2.153 -1.1172  0.4072  0.3345
 1701TIP3    H2 5110   4.251   2.041   2.204 -0.9922  1.2687 -1.2798
 1702TIP3   OH2 5111   4.003   2.811   2.251 -0.6018 -0.4347 -0.3151
 1702TIP3    H1 5112   3.977   2.849   2.335  0.2283 -0.9257  0.1787
 1702TIP3    H2 5113   4.059   2.737   2.274 -2.0151 -1.8697 -1.2467
 1703TIP3   OH2 5114   6.186   2.183   0.708  0.0749 -0.1954 -0.0638
 1703TIP3    H1 5115   6.247   2.190   0.782 -0.6014 -0.5962  0.5343
 1703TIP3    H2 5116   6.100   2.183   0.748 -0.2723 -1.5880 -0.7783
 1704TIP3   OH2 5117   5.266   2.253   4.641 -0.3303 -0.1769  0.2606
 1704TIP3    H1 5118   5.227   2.267   4.728 -0.5039 -2.8302  0.6749
 1704TIP3    H2 5119   5.236   2.166   4.615 -0.6676  0.7165 -2.7124
 1705TIP3   OH2 5120   0.178   4.475   4.996 -0.3176 -0.5016 -0.4816
 1705TIP3    H1 5121   0.265   4.471   5.036 -0.0134 -0.3965 -1.1305
 1705TIP3    H2 5122   0.191   4.447   4.906 -0.9923 -0.6662 -0.5304
 1706TIP3   OH2 5123   2.783   0.748   2.337  0.3984 -0.2984  0.0529
 1706TIP3    H1 5124   2.850   0.683   2.314 -0.4537 -1.4325  0.6894
 1706TIP3    H2 5125   2.709   0.727   2.280  0.3025  0.4685 -0.1148
 1707TIP3   OH2 5126   0.687   0.452   4.349  0.3495 -0.2072  0.1386
 1707TIP3    H1 5127   0.658   0.450   4.257  1.0201  2.2820 -0.1902
 1707TIP3    H2 5128   0.614   0.491   4.396  0.4446 -0.4385  0.4787
 1708TIP3   OH2 5129   5.302   4.722   1.620  0.6590  0.2217  0.1935
 1708TIP3    H1 5130   5.313   4.673   1.539  1.2801 -1.5291  1.2681
 1708TIP3    H2 5131   5.388   4.716   1.663  0.3229  1.0511  0.9974
 1709TIP3   OH2 5132   4.263   5.733   1.971 -0.4257  0.1001  0.2709
 1709TIP3    H1 5133   4.239   5.671   1.903  1.1770 -0.8099  0.4654
 1709TIP3    H2 5134   4.216   5.813   1.949  2.2762  0.9065 -3.7517
 1710TIP3   OH2 5135   3.984   4.627   3.080  0.0300  0.5244 -0.0576
 1710TIP3    H1 5136   4.078   4.626   3.097 -0.0957 -2.8938  1.2441
 1710TIP3    H2 5137   3.974   4.574   3.000 -0.7597  1.4382 -0.5788
 1711TIP3   OH2 5138   2.430   5.666   2.638  0.0499 -0.0348  0.1759
 1711TIP3    H1 5139   2.378   5.736   2.679 -0.7690 -0.6505  0.2162
 1711TIP3    H2 5140   2.500   5.649   2.701 -0.6916 -0.3623  0.9389
 1712TIP3   OH2 5141   2.601   4.394   2.408 -0.2616 -0.7667  0.5712
 1712TIP3    H1 5142   2.664   4.394   2.336  0.2291 -0.3869  0.9866
 1712TIP3    H2 5143   2.586   4.487   2.427  0.4502 -0.8477  1.6532
 1713TIP3   OH2 5144   5.755   0.808   2.763 -0.1411 -0.1011  0.3335
 1713TIP3    H1 5145   5.737   0.744   2.695 -1.9281  0.8965 -0.1772
 1713TIP3    H2 5146   5.773   0.889   2.716  0.1910  0.2310  1.0132
 1714TIP3   OH2 5147   2.131   3.727   3.790  0.7695  0.0291 -0.0453
 1714TIP3    H1 5148   2.214   3.755   3.751  0.6234 -1.2570 -1.3958
 1714TIP3    H2 5149   2.090   3.673   3.722 -0.6048 -0.3753  1.0561
 1715TIP3   OH2 5150   3.247   2.935   3.249 -1.0114  0.3375 -0.8957
 1715TIP3    H1 5151   3.157   2.963   3.267 -1.3025 -0.7688 -0.5303
 1715TIP3    H2 5152   3.239   2.876   3.174 -0.6990 -0.3043 -0.4333
 1716TIP3   OH2 5153   1.589   2.510   1.484  0.4145 -0.0023 -0.6638
 1716TIP3    H1 5154   1.604   2.416   1.492 -2.3453 -0.5401 -1.0194
 1716TIP3    H2 5155   1.574   2.524   1.390 -1.2740  0.3857 -0.3699
 1717TIP3   OH2 5156   6.074   5.018   2.344  0.3780 -0.0585 -0.7151
 1717TIP3    H1 5157   6.138   5.085   2.365  0.3889 -0.1827 -0.3374
 1717TIP3    H2 5158   5.990   5.058   2.364  0.4369 -0.4914  0.4796
 1718TIP3   OH2 5159   0.597   0.437   2.340 -0.8195  0.3772 -0.0306
 1718TIP3    H1 5160   0.649   0.359   2.357 -1.3078 -0.3578 -1.7359
 1718TIP3    H2 5161   0.607   0.452   2.246 -1.2310  2.0198  0.1593
 1719TIP3   OH2 5162   1.791   4.967   4.623  0.1161 -0.4299  0.3828
 1719TIP3    H1 5163   1.867   4.919   4.655  1.0368  0.5711 -0.2415
 1719TIP3    H2 5164   1.735   4.900   4.585  1.5078 -0.9949 -0.7500
 1720TIP3   OH2 5165   5.099   5.939   5.185 -0.1339 -0.0229  0.3394
 1720TIP3    H1 5166   5.045   5.943   5.106 -0.2691 -1.3055  0.3462
 1720TIP3    H2 5167   5.040   5.966   5.255 -0.5123 -0.4942  0.2141
 1721TIP3   OH2 5168   0.768   3.767   2.979 -0.2749  0.0583  0.0677
 1721TIP3    H1 5169   0.750   3.673   2.983 -0.7826  0.1891  1.6349
 1721TIP3    H2 5170   0.863   3.774   2.989 -0.1743 -0.3063 -0.6015
 1722TIP3   OH2 5171   0.514   5.837   0.487 -0.3130  0.2238 -0.2741
 1722TIP3    H1 5172   0.540   5.778   0.558  0.4981 -0.8212 -1.4028
 1722TIP3    H2 5173   0.597   5.877   0.459 -0.7582  1.3764 -0.0105
 1723TIP3   OH2 5174   1.879   2.839   2.203  0.0054  0.3764 -0.1151
 1723TIP3    H1 5175   1.844   2.925   2.178  0.5989  0.2733 -1.3940
 1723TIP3    H2 5176   1.841   2.822   2.289  0.7025  2.4031  0.6637
 1724TIP3   OH2 5177   2.886   4.781   2.441 -0.1566 -0.0891 -0.7165
 1724TIP3    H1 5178   2.878   4.686   2.434  0.3041 -0.1283 -0.7667
 1724TIP3    H2 5179   2.823   4.805   2.509  1.5710 -0.7612  1.2614
 1725TIP3   OH2 5180   3.879   4.402   4.897  0.2613  0.5280  0.4578
 1725TIP3    H1 5181   3.850   4.348   4.824  0.9556 -1.2713  1.4576
 1725TIP3    H2 5182   3.943   4.463   4.859  0.8714 -0.6103 -0.3828
 1726TIP3   OH2 5183   6.244   0.977   0.553  0.4658 -0.1642 -0.1605
 1726TIP3    H1 5184   6.254   0.883   0.565 -1.2154 -0.2730  0.7438
 1726TIP3    H2 5185   6.244   0.990   0.458  0.8532 -1.0456 -0.2891
 1727TIP3   OH2 5186   4.706   4.296   0.764  0.4464  0.0960 -0.7601
 1727TIP3    H1 5187   4.644   4.243   0.814  0.6927 -0.3584 -0.9254
 1727TIP3    H2 5188   4.658   4.376   0.743 -0.4863 -0.7045 -1.8536
 1728TIP3   OH2 5189   0.402   5.312   0.735 -1.0006  0.3160 -0.1660
 1728TIP3    H1 5190   0.424   5.234   0.785  1.2432  1.3746  0.6155
 1728TIP3    H2 5191   0.403   5.283   0.644  0.8585 -0.3810  0.0373
 1729TIP3   OH2 5192   3.026   1.437   3.770 -0.2342  0.2093  0.6123
 1729TIP3    H1 5193   3.088   1.425   3.698  0.4131  0.7488  1.0585
 1729TIP3    H2 5194   2.940   1.425   3.730  0.1078  0.5724 -0.2628
 1730TIP3   OH2 5195   5.473   4.224   2.695 -0.6379 -0.1918 -0.3187
 1730TIP3    H1 5196   5.477   4.315   2.725 -0.5243 -0.1425 -0.4809
 1730TIP3    H2 5197   5.548   4.181   2.736 -1.9195 -0.7683  1.5720
 1731TIP3   OH2 5198   5.970   0.198   3.771  0.0933  0.3701  0.3903
 1731TIP3    H1 5199   6.026   0.275   3.763  0.9526 -0.2778  0.0049
 1731TIP3    H2 5200   5.971   0.178   3.865  1.5408 -0.3541  0.2557
 1732TIP3   OH2 5201   4.693   0.183   1.647 -0.4282 -0.1275 -0.3813
 1732TIP3    H1 5202   4.642   0.124   1.591 -0.3614 -0.8575  0.3058
 1732TIP3    H2 5203   4.777   0.192   1.602 -0.2222 -1.0481 -0.1996
 1733TIP3   OH2 5204   3.918   1.088   2.527 -0.2773  0.0051  0.0338
 1733TIP3    H1 5205   3.896   1.167   2.577 -0.4349  0.3756 -0.6071
 1733TIP3    H2 5206   3.846   1.028   2.544 -1.0533  0.6460 -0.8344
 1734TIP3   OH2 5207   3.522   0.735   2.044  0.2438 -0.3885 -0.3815
 1734TIP3    H1 5208   3.428   0.739   2.028  0.2247 -0.0823 -0.1954
 1734TIP3    H2 5209   3.530   0.698   2.132  0.2734  0.1876 -0.1337
 1735TIP3   OH2 5210   2.502   5.389   2.774 -0.3560 -0.7166  0.4306
 1735TIP3    H1 5211   2.524   5.410   2.683 -2.2741  0.3394  0.1456
 1735TIP3    H2 5212   2.575   5.423   2.826 -0.5662  1.3439 -0.5185
 1736TIP3   OH2 5213   5.919   1.252   4.594  0.1641  0.4871  0.0395
 1736TIP3    H1 5214   5.915   1.336   4.641  0.4098  0.3545  0.3017
 1736TIP3    H2 5215   6.010   1.225   4.602  0.0604  0.1394  0.0496
 1737TIP3   OH2 5216   0.534   1.830   3.935 -0.2960 -0.7142  0.1961
 1737TIP3    H1 5217   0.575   1.779   4.005 -0.3463  1.2255  1.7227
 1737TIP3    H2 5218   0.597   1.897   3.913 -0.2823 -1.2835 -1.7027
 1738TIP3   OH2 5219   3.771   4.136   0.283  0.0537 -0.3820 -0.1407
 1738TIP3    H1 5220   3.799   4.137   0.375  0.7341 -1.4425 -0.3138
 1738TIP3    H2 5221   3.682   4.171   0.284  0.6814  1.3244  0.6864
 1739TIP3   OH2 5222   1.702   4.333   3.410  0.1486  0.5135  0.1134
 1739TIP3    H1 5223   1.616   4.335   3.451 -0.4108  3.1736 -0.9843
 1739TIP3    H2 5224   1.688   4.293   3.324  0.1141  0.4684  0.1404
 1740TIP3   OH2 5225   0.364   2.710   1.215 -0.5030 -0.2767 -0.3634
 1740TIP3    H1 5226   0.334   2.674   1.131  0.6018  1.1378 -1.4304
 1740TIP3    H2 5227   0.459   2.720   1.204 -0.5902  1.8102  0.2555
 1741TIP3   OH2 5228   5.198   0.264   3.432  0.2391 -0.3437 -0.3385
 1741TIP3    H1 5229   5.254   0.242   3.507 -0.2975  0.5632  0.3468
 1741TIP3    H2 5230   5.257   0.259   3.357  1.5636  1.6726  0.4795
 1742TIP3   OH2 5231   4.032   2.260   4.473  0.0696  0.2167  0.0147
 1742TIP3    H1 5232   4.044   2.215   4.557 -0.1654 -0.8204 -0.4948
 1742TIP3    H2 5233   4.020   2.190   4.409  0.9934  0.9663 -1.0201
 1743TIP3   OH2 5234   2.840   2.272   2.792  0.0350 -0.4008 -0.2464
 1743TIP3    H1 5235   2.848   2.363   2.821 -0.0195  0.0390 -1.5593
 1743TIP3    H2 5236   2.758   2.242   2.831  1.0413 -0.5863  1.9188
 1744TIP3   OH2 5237   5.948   2.206   4.407  0.4829  0.3886 -0.0920
 1744TIP3    H1 5238   5.999   2.286   4.417 -1.6070  1.7487  0.3118
 1744TIP3    H2 5239   5.928   2.179   4.497  0.4535 -0.1154 -0.2457
 1745TIP3   OH2 5240   3.949   1.019   3.880 -0.1808 -0.8841  0.1490
 1745TIP3    H1 5241   3.961   1.113   3.886  0.1578 -0.8691 -0.6824
 1745TIP3    H2 5242   4.001   0.992   3.804  1.8656 -2.0920  1.8467
 1746TIP3   OH2 5243   2.366   4.973   0.959 -0.1908  0.2660 -0.1280
 1746TIP3    H1 5244   2.339   4.901   1.016 -0.8766  0.8671  0.3165
 1746TIP3    H2 5245   2.459   4.985   0.979 -0.1842 -0.1823  0.1357
 1747TIP3   OH2 5246   3.013   5.892   3.472  0.1963  0.1110  0.3339
 1747TIP3    H1 5247   3.091   5.911   3.524  2.2023  0.3324 -2.5712
 1747TIP3    H2 5248   2.981   5.979   3.445 -1.0863  0.0194  1.4523
 1748TIP3   OH2 5249   4.879   2.597   4.671 -0.0100  0.5466 -0.0285
 1748TIP3    H1 5250   4.966   2.628   4.693  0.0934  0.5716 -0.4640
 1748TIP3    H2 5251   4.882   2.582   4.576 -1.1783  2.8512 -0.5064
 1749TIP3   OH2 5252   0.646   5.756   4.887 -0.4598  0.1616 -0.0459
 1749TIP3    H1 5253   0.726   5.802   4.864 -0.5815  0.6103  0.3945
 1749TIP3    H2 5254   0.670   5.703   4.963 -0.1846 -0.9266 -0.8722
 1750TIP3   OH2 5255   2.752   5.794   0.224  0.3498 -0.4470  0.6189
 1750TIP3    H1 5256   2.658   5.796   0.240  0.3500  1.7619  0.6997
 1750TIP3    H2 5257   2.763   5.835   0.138  1.1597 -2.1212 -0.1262
 1751TIP3   OH2 5258   2.781   3.485   4.762  0.1978  0.3853  0.4547
 1751TIP3    H1 5259   2.771   3.571   4.804 -0.7243  1.1009 -1.1439
 1751TIP3    H2 5260   2.692   3.458   4.741  0.4959 -0.9087  0.7748
 1752TIP3   OH2 5261   3.774   0.956   1.645 -0.5092 -0.0534  0.1817
 1752TIP3    H1 5262   3.689   0.913   1.642 -0.8782  0.5214  1.7551
 1752TIP3    H2 5263   3.755   1.048   1.664  0.4716  0.0653  0.6700
 1753TIP3   OH2 5264   3.641   2.628   5.059 -0.0129  0.0730  0.4988
 1753TIP3    H1 5265   3.596   2.563   5.005 -2.0216  0.2611  1.8109
 1753TIP3    H2 5266   3.655   2.702   5.001 -0.8566 -0.2496 -0.1406
 1754TIP3   OH2 5267   5.391   0.786   0.005  0.7350 -0.2819 -0.2549
 1754TIP3    H1 5268   5.356   0.700   0.025 -0.2474  0.0628 -0.4559
 1754TIP3    H2 5269   5.454   0.804   0.075 -0.0207 -0.6079  0.5146
 1755TIP3   OH2 5270   6.316   4.508   3.251  0.6517 -0.1588 -0.3556
 1755TIP3    H1 5271   6.287   4.426   3.211 -1.0767  0.8677 -1.3074
 1755TIP3    H2 5272   6.377   4.546   3.187 -0.8690  0.7013 -1.3597
 1756TIP3   OH2 5273   5.126   4.327   3.624 -0.4687 -0.2324 -0.2703
 1756TIP3    H1 5274   5.037   4.302   3.597  0.3526 -1.3049 -2.1345
 1756TIP3    H2 5275   5.159   4.378   3.551  0.2914  0.6275  0.6476
 1757TIP3   OH2 5276   4.609   4.570   4.678 -0.3003 -0.6302  0.0026
 1757TIP3    H1 5277   4.612   4.610   4.765 -1.4047 -0.1386 -0.1721
 1757TIP3    H2 5278   4.580   4.641   4.620 -0.1595 -1.1114 -0.6722
 1758TIP3   OH2 5279   0.626   5.825   4.532 -0.1547 -0.0138  0.2770
 1758TIP3    H1 5280   0.699   5.831   4.593  0.1745 -0.0570 -0.1085
 1758TIP3    H2 5281   0.560   5.886   4.567 -0.3154 -0.6488  1.1281
 1759TIP3   OH2 5282   3.104   0.288   4.650  0.3583 -0.2191 -0.1942
 1759TIP3    H1 5283   3.137   0.211   4.695 -0.3131  0.6150  1.8397
 1759TIP3    H2 5284   3.009   0.286   4.663  0.2868  0.7310 -0.4636
 1760TIP3   OH2 5285   5.532   2.643   2.981 -0.1142 -0.4043  0.6634
 1760TIP3    H1 5286   5.456   2.586   2.966 -0.9056  0.1720  2.2043
 1760TIP3    H2 5287   5.515   2.721   2.928 -0.6836 -0.2238  1.0992
 1761TIP3   OH2 5288   2.858   5.439   0.543  0.3079 -0.2165 -0.5939
 1761TIP3    H1 5289   2.821   5.526   0.527 -0.9784 -0.2029  1.8675
 1761TIP3    H2 5290   2.890   5.444   0.633  2.7276 -1.5174 -1.3078
 1762TIP3   OH2 5291   5.057   2.781   4.125 -0.1624  0.2796  0.0289
 1762TIP3    H1 5292   5.118   2.787   4.052  1.2981  0.5137  1.2319
 1762TIP3    H2 5293   5.100   2.722   4.187 -1.5756 -0.2627  0.5322
 1763TIP3   OH2 5294   4.480   2.866   2.814  0.5732  0.3582 -0.1626
 1763TIP3    H1 5295   4.524   2.783   2.801  0.4025  0.2830 -0.2662
 1763TIP3    H2 5296   4.465   2.900   2.726 -1.8180 -0.8016 -0.3027
 1764TIP3   OH2 5297   1.721   4.014   3.926 -0.3833  0.2776  0.6255
 1764TIP3    H1 5298   1.696   3.966   3.847 -0.9248  2.1729 -0.4214
 1764TIP3    H2 5299   1.814   3.995   3.937  0.1029  1.2200 -1.4250
 1765TIP3   OH2 5300   5.932   2.846   4.812  0.0375  0.2967 -0.0775
 1765TIP3    H1 5301   5.846   2.839   4.853 -1.0337 -1.7328 -2.4301
 1765TIP3    H2 5302   5.932   2.932   4.771 -0.2092  0.9526  1.2394
 1766TIP3   OH2 5303   4.837   3.836   3.940 -0.2534  0.2722 -1.0077
 1766TIP3    H1 5304   4.808   3.821   3.850 -1.7530  0.9263 -0.6722
 1766TIP3    H2 5305   4.820   3.929   3.956 -0.6601  0.0237  0.1584
 1767TIP3   OH2 5306   1.159   1.355   1.542 -0.2946 -0.5156  0.1394
 1767TIP3    H1 5307   1.115   1.292   1.485  0.4790  0.2033 -1.2920
 1767TIP3    H2 5308   1.229   1.391   1.488 -0.2384  1.0076  1.1904
 1768TIP3   OH2 5309   0.899   1.201   0.651  0.2247  0.3824  0.0158
 1768TIP3    H1 5310   0.903   1.188   0.556  1.0103 -1.7788  0.2830
 1768TIP3    H2 5311   0.826   1.261   0.663 -2.5716 -2.3119 -1.7677
 1769TIP3   OH2 5312   3.994   3.152   4.478  0.3972 -0.6403 -0.3525
 1769TIP3    H1 5313   3.913   3.186   4.515  0.7812 -0.8538  0.7296
 1769TIP3    H2 5314   4.059   3.165   4.547  1.3875 -0.0734 -1.3681
 1770TIP3   OH2 5315   1.052   0.572   0.355  0.0265 -0.1396 -0.0929
 1770TIP3    H1 5316   1.097   0.533   0.430 -1.4403 -0.3896  0.6855
 1770TIP3    H2 5317   1.075   0.515   0.281  1.9595  0.4369 -0.0081
 1771TIP3   OH2 5318   0.423   0.055   0.743  0.0543 -0.1766 -0.3019
 1771TIP3    H1 5319   0.374   0.042   0.662  1.1263  0.6579 -1.1263
 1771TIP3    H2 5320   0.513   0.074   0.714  0.2736  1.0361  1.0250
 1772TIP3   OH2 5321   0.006   4.865   1.548  0.2766 -0.4100  0.3159
 1772TIP3    H1 5322   0.014   4.887   1.640  2.4874 -1.7948  0.5025
 1772TIP3    H2 5323   0.020   4.948   1.502  1.4420 -0.1154  1.1744
 1773TIP3   OH2 5324   3.181   4.087   0.612 -0.1784  0.9076  0.6270
 1773TIP3    H1 5325   3.224   4.140   0.679  0.1915  0.4404  0.7679
 1773TIP3    H2 5326   3.238   4.094   0.536  1.2086 -1.2200  1.3756
 1774TIP3   OH2 5327   5.012   0.691   1.087 -0.5270 -0.5413  0.6181
 1774TIP3    H1 5328   4.922   0.724   1.082 -0.1600  0.3044 -1.1341
 1774TIP3    H2 5329   5.035   0.670   0.997  0.8233 -1.4050  1.1242
 1775TIP3   OH2 5330   1.441   1.083   3.035 -0.0613  0.3252 -0.1853
 1775TIP3    H1 5331   1.384   1.107   2.962 -0.7594 -0.3750  0.1107
 1775TIP3    H2 5332   1.525   1.122   3.013 -0.4483  0.7420 -1.0064
 1776TIP3   OH2 5333   4.380   1.686   2.285  0.2401 -0.3036 -0.1644
 1776TIP3    H1 5334   4.362   1.674   2.191  0.9871 -1.3070 -0.1971
 1776TIP3    H2 5335   4.367   1.599   2.323 -2.4025  0.5332  1.1235
 1777TIP3   OH2 5336   2.188   2.920   4.570 -0.7162 -0.2401 -0.2832
 1777TIP3    H1 5337   2.163   2.867   4.495 -0.9819  0.0338 -0.3888
 1777TIP3    H2 5338   2.242   2.862   4.624 -3.2869 -1.5717  1.0456
 1778TIP3   OH2 5339   4.792   2.137   1.667  0.3990  0.1933 -0.2351
 1778TIP3    H1 5340   4.809   2.231   1.679 -0.2834  0.4172 -0.9521
 1778TIP3    H2 5341   4.873   2.103   1.630  0.5146  0.5784 -0.3454
 1779TIP3   OH2 5342   3.833   0.730   2.891 -0.1494  0.1027  0.1304
 1779TIP3    H1 5343   3.804   0.639   2.889 -1.3654  0.4873 -0.6733
 1779TIP3    H2 5344   3.796   0.766   2.972  1.1825 -0.3482  0.9864
 1780TIP3   OH2 5345   6.338   0.574   4.957  0.3310 -0.6040  0.1705
 1780TIP3    H1 5346   6.247   0.605   4.958  1.1808  2.0913 -0.1746
 1780TIP3    H2 5347   6.349   0.530   5.042 -0.4585  1.8054  1.6273
 1781TIP3   OH2 5348   4.410   2.458   3.962  0.0100 -0.1734 -0.3796
 1781TIP3    H1 5349   4.315   2.447   3.962 -0.1886  1.1151 -2.1854
 1781TIP3    H2 5350   4.445   2.369   3.967 -1.2976 -0.6878 -0.1988
 1782TIP3   OH2 5351   3.920   3.905   4.203 -0.1524  0.4020  0.0972
 1782TIP3    H1 5352   3.970   3.835   4.160 -1.4486 -0.1439 -0.5959
 1782TIP3    H2 5353   3.985   3.971   4.225  1.2939 -1.4006  1.6324
 1783TIP3   OH2 5354   4.941   4.351   5.196 -0.4173  0.1815 -0.1066
 1783TIP3    H1 5355   5.023   4.352   5.148  0.2350 -1.2942  0.9279
 1783TIP3    H2 5356   4.901   4.267   5.174 -0.1277 -0.5103  1.8367
 1784TIP3   OH2 5357   5.039   1.194   3.667  0.2855 -0.4474  0.3263
 1784TIP3    H1 5358   5.094   1.272   3.681 -1.8803  0.8602  2.2468
 1784TIP3    H2 5359   4.997   1.210   3.583  0.9371 -0.2516  0.0272
 1785TIP3   OH2 5360   0.249   2.229   3.453 -0.2046  0.2716  0.2532
 1785TIP3    H1 5361   0.253   2.298   3.386 -1.0904  0.0043 -0.0875
 1785TIP3    H2 5362   0.255   2.276   3.536 -0.0287  0.6910  0.0063
 1786TIP3   OH2 5363   4.176   0.275   0.638 -0.2464 -0.1803  0.2208
 1786TIP3    H1 5364   4.210   0.211   0.701 -0.2417  0.7566  1.1843
 1786TIP3    H2 5365   4.095   0.235   0.606 -0.6669 -0.3239  1.4138
 1787TIP3   OH2 5366   0.440   1.034   2.868 -0.3414 -0.2147  0.1118
 1787TIP3    H1 5367   0.505   0.993   2.810 -0.3445 -1.2088  0.7837
 1787TIP3    H2 5368   0.356   1.003   2.834 -0.5072  1.2765 -0.9149
 1788TIP3   OH2 5369   3.535   2.273   2.386  0.4411  1.0699  0.1161
 1788TIP3    H1 5370   3.541   2.355   2.436  1.7068  2.1344 -1.6957
 1788TIP3    H2 5371   3.499   2.299   2.302 -0.0294 -0.4239 -0.1659
 1789TIP3   OH2 5372   3.479   1.481   0.930 -0.3032  0.3245  0.0276
 1789TIP3    H1 5373   3.554   1.495   0.987  0.6354 -1.2393 -0.7564
 1789TIP3    H2 5374   3.460   1.387   0.937  0.0825 -0.0087 -2.4510
 1790TIP3   OH2 5375   2.520   3.114   0.347  0.8112 -0.2959 -0.6207
 1790TIP3    H1 5376   2.489   3.143   0.433  0.0911 -2.5983 -0.0360
 1790TIP3    H2 5377   2.456   3.048   0.319  0.6178  0.9085 -3.3052
 1791TIP3   OH2 5378   2.093   1.654   0.164 -0.7381  0.2021  0.2990
 1791TIP3    H1 5379   2.033   1.584   0.139  0.4544 -0.2967 -1.2754
 1791TIP3    H2 5380   2.036   1.731   0.174 -1.9773 -0.8275  1.4934
 1792TIP3   OH2 5381   5.702   5.781   4.043  0.7785 -0.0026 -0.1328
 1792TIP3    H1 5382   5.690   5.872   4.015 -0.0890  0.4426  1.5380
 1792TIP3    H2 5383   5.792   5.779   4.076 -0.1624  1.2141  2.8712
 1793TIP3   OH2 5384   6.020   3.788   3.512  0.3473 -0.5562  0.1217
 1793TIP3    H1 5385   6.089   3.724   3.495  1.0422  0.0713  0.5610
 1793TIP3    H2 5386   6.061   3.873   3.496 -1.0459 -0.2307 -2.2554
 1794TIP3   OH2 5387   3.424   1.286   3.583 -0.2711  0.5536  0.4589
 1794TIP3    H1 5388   3.495   1.242   3.537  1.1588  3.7816 -0.7055
 1794TIP3    H2 5389   3.354   1.294   3.518 -0.5165  0.0824  0.6590
 1795TIP3   OH2 5390   4.396   3.658   3.771  0.1501 -0.8846 -0.0507
 1795TIP3    H1 5391   4.301   3.653   3.782  0.3301 -1.4202  1.5415
 1795TIP3    H2 5392   4.411   3.746   3.736 -0.9220 -0.7639 -0.2575
 1796TIP3   OH2 5393   0.162   1.286   2.548  0.1216 -0.1965 -0.1665
 1796TIP3    H1 5394   0.220   1.293   2.624 -1.9982  1.7086  1.4092
 1796TIP3    H2 5395   0.115   1.369   2.545 -0.7992 -0.7161 -2.8306
 1797TIP3   OH2 5396   5.753   3.763   4.445  0.1510 -0.0814 -0.1118
 1797TIP3    H1 5397   5.720   3.676   4.470 -0.1350  0.2340  0.6393
 1797TIP3    H2 5398   5.702   3.786   4.367  1.6021 -1.4119 -1.5452
 1798TIP3   OH2 5399   3.029   4.296   3.742 -0.2612 -0.2939 -0.3961
 1798TIP3    H1 5400   3.023   4.388   3.716 -0.0408  0.0511  0.6803
 1798TIP3    H2 5401   2.963   4.251   3.690 -0.5773  0.5315 -0.7213
 1799TIP3   OH2 5402   5.363   3.675   3.215 -0.5607 -0.4692 -0.9526
 1799TIP3    H1 5403   5.409   3.630   3.287 -1.2727  0.2621 -0.0105
 1799TIP3    H2 5404   5.274   3.689   3.249 -0.2439  2.0658 -0.9874
 1800TIP3   OH2 5405   0.211   5.591   1.123 -0.2398 -0.2056  0.0204
 1800TIP3    H1 5406   0.230   5.634   1.207  0.8696  0.1029 -0.3621
 1800TIP3    H2 5407   0.253   5.506   1.130  1.0416  0.3354 -0.6995
 1801TIP3   OH2 5408   2.668   2.851   2.991  0.0351  0.4100 -0.2312
 1801TIP3    H1 5409   2.595   2.904   3.024 -0.3438 -1.3503  2.0221
 1801TIP3    H2 5410   2.719   2.829   3.069  1.3784 -0.7339 -1.3855
 1802TIP3   OH2 5411   5.614   2.985   4.042 -0.5100  0.2207 -0.4124
 1802TIP3    H1 5412   5.647   2.903   4.005  1.3451 -0.0308  1.5635
 1802TIP3    H2 5413   5.569   2.959   4.122  2.3147  1.1617  1.6598
 1803TIP3   OH2 5414   1.281   0.625   2.302  0.1423 -0.6297  0.3689
 1803TIP3    H1 5415   1.228   0.704   2.312  1.3603  0.2229  0.4390
 1803TIP3    H2 5416   1.320   0.634   2.215 -0.8258 -1.8920 -0.2156
 1804TIP3   OH2 5417   0.212   1.042   4.301 -0.0732  0.2605  0.3084
 1804TIP3    H1 5418   0.199   1.137   4.297 -0.9877  0.2750  2.3665
 1804TIP3    H2 5419   0.129   1.005   4.272  0.6345  0.0215 -1.5386
 1805TIP3   OH2 5420   3.014   0.285   3.964 -0.0762 -0.0517  0.0468
 1805TIP3    H1 5421   3.073   0.339   3.911 -0.3022  1.6212  1.4142
 1805TIP3    H2 5422   2.929   0.292   3.920 -0.1406  0.8635  0.3004
 1806TIP3   OH2 5423   4.493   4.494   2.248 -0.3482  0.0548  0.6591
 1806TIP3    H1 5424   4.577   4.479   2.206 -0.1435  2.0322  0.2873
 1806TIP3    H2 5425   4.430   4.497   2.175 -0.7189 -1.0479  0.9054
 1807TIP3   OH2 5426   2.410   5.894   2.016  0.0376 -0.7440 -0.2504
 1807TIP3    H1 5427   2.322   5.885   2.051  0.3443  0.2003  0.8447
 1807TIP3    H2 5428   2.467   5.890   2.093  0.8703 -0.2873 -0.8163
 1808TIP3   OH2 5429   4.963   3.212   1.953 -0.4703  0.1868 -0.5065
 1808TIP3    H1 5430   4.904   3.149   1.994 -1.1179  0.1787 -1.4184
 1808TIP3    H2 5431   5.047   3.197   1.996 -1.3780  1.0390  1.6946
 1809TIP3   OH2 5432   4.077   4.113   5.124 -0.3915  0.3515  0.6925
 1809TIP3    H1 5433   3.985   4.117   5.097 -0.0500 -0.3756 -0.6872
 1809TIP3    H2 5434   4.097   4.019   5.125  0.2155  0.4769  1.4698
 1810TIP3   OH2 5435   4.214   0.377   3.350  0.0845  0.0582 -0.3484
 1810TIP3    H1 5436   4.239   0.304   3.294  1.6976  0.6365 -0.4232
 1810TIP3    H2 5437   4.131   0.349   3.390 -0.0940 -1.1647 -1.5138
 1811TIP3   OH2 5438   3.061   1.062   0.777 -0.2175 -0.7175  0.2958
 1811TIP3    H1 5439   3.003   0.987   0.788 -1.1204  0.1438  1.8034
 1811TIP3    H2 5440   3.065   1.101   0.864  0.7946  0.5895 -0.3067
 1812TIP3   OH2 5441   4.606   1.438   3.991 -0.5400 -0.3302  0.0257
 1812TIP3    H1 5442   4.646   1.439   3.904  0.7616  1.2266  0.5805
 1812TIP3    H2 5443   4.666   1.386   4.045 -0.4616  0.0564  0.3270
 1813TIP3   OH2 5444   4.834   5.524   4.759 -0.0247 -0.8068 -0.0563
 1813TIP3    H1 5445   4.859   5.580   4.686  4.7033 -0.8871  1.1669
 1813TIP3    H2 5446   4.880   5.442   4.744  0.7575 -0.9815  2.7332
 1814TIP3   OH2 5447   3.191   5.074   2.216 -0.5209  0.1407  0.3337
 1814TIP3    H1 5448   3.152   5.039   2.296 -1.9539 -0.2271 -0.4929
 1814TIP3    H2 5449   3.119   5.120   2.172  0.1405  0.0284 -0.9148
 1815TIP3   OH2 5450   3.707   5.533   4.273 -0.1107 -0.1446  0.0965
 1815TIP3    H1 5451   3.736   5.526   4.364  1.1530  0.8319 -0.2147
 1815TIP3    H2 5452   3.631   5.592   4.276  0.9074  1.2007  0.3489
 1816TIP3   OH2 5453   1.419   5.442  -0.003  0.3614 -0.6073  0.1358
 1816TIP3    H1 5454   1.409   5.352  -0.033  0.0819 -0.7191  0.5532
 1816TIP3    H2 5455   1.375   5.444   0.082  1.4212 -0.3786  0.6884
 1817TIP3   OH2 5456   0.722   0.604   3.553  0.1359  0.3818  0.3940
 1817TIP3    H1 5457   0.808   0.592   3.514  1.2658 -0.3177  2.8873
 1817TIP3    H2 5458   0.734   0.673   3.618 -1.3217  0.6180  0.4632
 1818TIP3   OH2 5459   4.366   3.133   4.428 -0.3437 -0.2198  0.5748
 1818TIP3    H1 5460   4.416   3.086   4.494  1.2585 -0.6893 -0.8932
 1818TIP3    H2 5461   4.431   3.158   4.362 -1.6181  1.5799 -0.0881
 1819TIP3   OH2 5462   4.869   2.246   1.954 -0.0108 -0.3837 -0.4710
 1819TIP3    H1 5463   4.913   2.236   2.038  1.6271 -1.4663 -1.4160
 1819TIP3    H2 5464   4.923   2.309   1.906 -0.3689 -0.5359 -1.0783
 1820TIP3   OH2 5465   4.597   1.904   2.639  0.4090 -0.2527  0.4681
 1820TIP3    H1 5466   4.624   1.995   2.653  1.3075 -0.6479  1.4391
 1820TIP3    H2 5467   4.547   1.906   2.558  0.6478  1.0649  0.3327
 1821TIP3   OH2 5468   1.048   0.589   3.463  0.1498 -0.3706  0.7746
 1821TIP3    H1 5469   1.048   0.515   3.524  1.2736  0.0800  1.3353
 1821TIP3    H2 5470   1.054   0.667   3.519 -0.7208  0.1475  0.1777
 1822TIP3   OH2 5471   1.187   5.289   2.560  0.2507  0.1743 -0.0930
 1822TIP3    H1 5472   1.223   5.242   2.484 -1.7775 -0.1719 -0.9188
 1822TIP3    H2 5473   1.205   5.231   2.634 -1.6881 -1.7984 -1.0077
 1823TIP3   OH2 5474   5.893   1.434   2.631 -0.1412 -0.2435 -0.5246
 1823TIP3    H1 5475   5.829   1.438   2.560 -0.8831 -0.4250  0.1179
 1823TIP3    H2 5476   5.882   1.516   2.678  0.6273  0.0513 -0.8376
 1824TIP3   OH2 5477   5.525   4.739   3.675 -0.0217  0.0859  0.0450
 1824TIP3    H1 5478   5.515   4.669   3.740 -0.1588  0.0378 -0.0266
 1824TIP3    H2 5479   5.595   4.708   3.617  2.0725  1.3590  1.7732
 1825TIP3   OH2 5480   0.160   5.876   4.464 -0.3203 -0.5103  0.4044
 1825TIP3    H1 5481   0.065   5.858   4.463 -0.3516 -0.3137 -0.3704
 1825TIP3    H2 5482   0.198   5.794   4.496 -0.7659 -0.4754  1.0717
 1826TIP3   OH2 5483   4.646   1.159   1.998 -0.5475  0.1501  0.3492
 1826TIP3    H1 5484   4.569   1.168   2.053  0.8308  0.0020  2.4236
 1826TIP3    H2 5485   4.636   1.227   1.931 -1.5492  1.4590  1.7490
 1827TIP3   OH2 5486   4.338   1.636   4.800 -0.1765  0.0118 -0.6058
 1827TIP3    H1 5487   4.276   1.677   4.860 -0.1952 -1.1033  0.1634
 1827TIP3    H2 5488   4.359   1.553   4.841  2.6810  0.7989 -0.2988
 1828TIP3   OH2 5489   2.441   4.456   4.751 -0.0124  0.3847 -0.4234
 1828TIP3    H1 5490   2.424   4.393   4.681 -0.4080  1.4728 -1.3253
 1828TIP3    H2 5491   2.445   4.541   4.707  0.9206  0.9529  0.7190
 1829TIP3   OH2 5492   2.864   1.384   0.905 -0.0249  0.4988 -0.1571
 1829TIP3    H1 5493   2.813   1.318   0.952 -0.7009  0.7439 -0.5327
 1829TIP3    H2 5494   2.953   1.374   0.938 -0.3864  0.3087  0.7928
 1830TIP3   OH2 5495   2.332   3.300   4.259  0.0741 -0.0060 -0.2522
 1830TIP3    H1 5496   2.243   3.335   4.250 -0.6834 -1.8134 -0.1580
 1830TIP3    H2 5497   2.345   3.292   4.354 -0.4437 -1.5454 -0.2813
 1831TIP3   OH2 5498   3.649   1.332   2.165 -0.1814  0.1230 -0.8375
 1831TIP3    H1 5499   3.680   1.366   2.249  0.6197  0.7074 -1.3566
 1831TIP3    H2 5500   3.721   1.349   2.104 -0.8720 -0.0094 -1.7129
 1832TIP3   OH2 5501   3.922   6.012   2.756  0.2686  0.1506  0.6864
 1832TIP3    H1 5502   3.960   5.930   2.787  0.0350 -0.2496 -0.0779
 1832TIP3    H2 5503   3.954   6.022   2.667 -3.3036 -1.4784 -0.9684
 1833TIP3   OH2 5504   0.675   5.832   2.287 -0.5356 -0.4108  0.1064
 1833TIP3    H1 5505   0.640   5.921   2.283 -0.3924 -0.3781 -2.1847
 1833TIP3    H2 5506   0.752   5.839   2.343 -0.5440  0.8991 -0.0100
 1834TIP3   OH2 5507   5.125   4.143   4.835  0.4507  0.0515  0.6495
 1834TIP3    H1 5508   5.136   4.237   4.829  2.7717 -0.2090 -0.5194
 1834TIP3    H2 5509   5.159   4.120   4.921 -2.5635  0.4581  2.0807
 1835TIP3   OH2 5510   5.762   3.538   1.805  0.1998 -0.4671 -0.0292
 1835TIP3    H1 5511   5.729   3.502   1.887  0.3057 -1.3446 -0.3554
 1835TIP3    H2 5512   5.857   3.529   1.811  0.4986  2.5113  1.1203
 1836TIP3   OH2 5513   4.042   5.693   0.039 -0.3433  0.2162  0.6759
 1836TIP3    H1 5514   4.034   5.748  -0.039  0.2977 -0.1930  0.3140
 1836TIP3    H2 5515   3.960   5.644   0.041 -0.2802  0.0793  0.1415
 1837TIP3   OH2 5516   3.353   0.188   2.535  0.5425  0.3265  0.7450
 1837TIP3    H1 5517   3.360   0.248   2.461 -2.1710  1.9705  1.6993
 1837TIP3    H2 5518   3.336   0.103   2.495 -1.3868  1.2677 -0.5807
 1838TIP3   OH2 5519   0.901   4.302   3.092  0.2556  0.3927  0.1306
 1838TIP3    H1 5520   0.974   4.356   3.122  1.6420  0.5439 -3.1056
 1838TIP3    H2 5521   0.935   4.255   3.016 -2.4135 -1.2154 -0.2052
 1839TIP3   OH2 5522   1.436   4.003   4.789 -0.3833  0.0023  0.3845
 1839TIP3    H1 5523   1.525   3.968   4.803 -0.2692  0.1764  0.1066
 1839TIP3    H2 5524   1.382   3.955   4.851 -0.4122 -1.4497 -0.7089
 1840TIP3   OH2 5525   3.039   4.465   4.335  0.6081  0.9574  0.1617
 1840TIP3    H1 5526   3.098   4.395   4.363  1.5835  2.4308  2.1415
 1840TIP3    H2 5527   2.976   4.472   4.407 -0.0662  1.4669 -0.4705
 1841TIP3   OH2 5528   0.176   0.289   4.901 -0.2043 -0.6584 -0.4789
 1841TIP3    H1 5529   0.135   0.375   4.901  0.1715 -0.4796 -0.8520
 1841TIP3    H2 5530   0.257   0.300   4.951 -1.0559 -1.2395  1.1191
 1842TIP3   OH2 5531   2.024   0.755   2.386  0.4570 -0.3142  0.0173
 1842TIP3    H1 5532   2.106   0.713   2.362  0.1909 -1.2242  0.6398
 1842TIP3    H2 5533   1.972   0.685   2.426 -0.2554  0.4566  0.4814
 1843TIP3   OH2 5534   0.272   4.520   2.060  0.1450  0.6514 -0.4877
 1843TIP3    H1 5535   0.216   4.588   2.100  0.3583  1.0036 -0.7861
 1843TIP3    H2 5536   0.336   4.569   2.009  2.5587  0.4343  2.0869
 1844TIP3   OH2 5537   1.459   2.478   2.682 -0.0776  0.1908  0.4427
 1844TIP3    H1 5538   1.510   2.507   2.606 -0.0572  2.4877  1.2530
 1844TIP3    H2 5539   1.389   2.424   2.645  0.1708  0.9137 -1.1742
 1845TIP3   OH2 5540   4.210   3.476   4.257  0.6304  0.1014 -0.2427
 1845TIP3    H1 5541   4.168   3.401   4.215  1.5551 -0.7763  0.3607
 1845TIP3    H2 5542   4.293   3.486   4.211  0.3522  1.0143 -0.5734
 1846TIP3   OH2 5543   1.516   5.189   4.236  0.4896  0.2661 -0.2135
 1846TIP3    H1 5544   1.576   5.115   4.226  0.1543 -0.0802  0.2725
 1846TIP3    H2 5545   1.499   5.193   4.330  0.1089  0.6480 -0.2974
 1847TIP3   OH2 5546   3.645   3.046   0.601 -0.1116 -0.0203  0.1678
 1847TIP3    H1 5547   3.700   3.125   0.600  1.3787 -1.0051  0.7087
 1847TIP3    H2 5548   3.681   2.993   0.672 -2.8320 -0.0363  1.6570
 1848TIP3   OH2 5549   1.771   1.933   2.301 -0.0766  0.3356 -0.3006
 1848TIP3    H1 5550   1.839   1.984   2.344 -0.7032  1.1439 -0.2578
 1848TIP3    H2 5551   1.789   1.943   2.207  1.6762 -1.9461 -0.3053
 1849TIP3   OH2 5552   1.945   5.068   3.093 -0.0834 -0.2096  0.3536
 1849TIP3    H1 5553   1.923   5.014   3.017  0.3686  1.1303 -0.7555
 1849TIP3    H2 5554   1.925   5.157   3.066  0.0603  0.2913  1.8285
 1850TIP3   OH2 5555   3.595   4.985   2.723 -0.3600  0.1223  0.0264
 1850TIP3    H1 5556   3.635   5.044   2.787  0.2263 -1.0971  0.8350
 1850TIP3    H2 5557   3.565   4.910   2.776 -1.4711 -0.1083 -0.9047
 1851TIP3   OH2 5558   4.077   4.586   1.151  0.5023  0.4227 -0.8656
 1851TIP3    H1 5559   4.115   4.612   1.067 -1.7446  3.2418 -1.1699
 1851TIP3    H2 5560   3.999   4.536   1.127  0.9357 -0.5368 -0.3527
 1852TIP3   OH2 5561   0.362   3.825   4.350  0.4725  0.0654  0.6474
 1852TIP3    H1 5562   0.338   3.746   4.399 -0.3192  0.5742  1.1146
 1852TIP3    H2 5563   0.279   3.858   4.317  0.9934 -0.2284 -1.0214
 1853TIP3   OH2 5564   2.110   1.545   0.883 -0.6987  0.0542 -0.2822
 1853TIP3    H1 5565   2.104   1.484   0.810 -0.5076 -0.3594  0.0378
 1853TIP3    H2 5566   2.043   1.611   0.866  0.0564  0.5620 -1.3651
 1854TIP3   OH2 5567   4.925   2.568   3.758  0.0568  0.2155  0.4374
 1854TIP3    H1 5568   4.834   2.597   3.744  0.2223  0.1456 -0.9457
 1854TIP3    H2 5569   4.971   2.647   3.785 -0.0410  0.6887 -0.7242
 1855TIP3   OH2 5570   5.815   2.474   2.968 -0.4542  0.4200  0.0800
 1855TIP3    H1 5571   5.818   2.394   2.915 -3.1537  0.1372  0.2186
 1855TIP3    H2 5572   5.886   2.528   2.933 -0.7659 -0.6267 -2.3791
 1856TIP3   OH2 5573   5.250   3.468   2.595 -0.3203 -0.3539 -0.0604
 1856TIP3    H1 5574   5.330   3.456   2.544  1.0337  0.8224  1.6594
 1856TIP3    H2 5575   5.237   3.563   2.595 -3.8929 -0.6077 -3.3671
 1857TIP3   OH2 5576   5.936   2.315   4.015 -0.1613 -0.5203 -0.6237
 1857TIP3    H1 5577   5.845   2.335   3.993 -0.3651 -1.3301 -0.5598
 1857TIP3    H2 5578   5.967   2.393   4.061 -0.6997 -0.0823 -0.9847
 1858TIP3   OH2 5579   0.529   0.079   2.362 -0.6295 -0.0708  0.3666
 1858TIP3    H1 5580   0.607   0.115   2.405 -0.4671 -0.3911  0.3383
 1858TIP3    H2 5581   0.531   0.115   2.274  2.0639 -3.6878 -1.2824
 1859TIP3   OH2 5582   3.420   3.942   1.668  0.2424 -0.8005 -0.2313
 1859TIP3    H1 5583   3.482   3.966   1.736  0.3707 -1.0699 -0.2504
 1859TIP3    H2 5584   3.434   4.007   1.598 -0.9393  0.4066  0.6003
 1860TIP3   OH2 5585   3.826   3.654   3.953 -0.2130 -0.3945 -0.1773
 1860TIP3    H1 5586   3.842   3.733   3.902 -3.8596  0.5945 -0.0898
 1860TIP3    H2 5587   3.909   3.637   3.999  0.6623  3.5627  0.0464
 1861TIP3   OH2 5588   5.469   4.697   1.144 -0.2825 -0.0571 -0.0799
 1861TIP3    H1 5589   5.537   4.759   1.117  0.3637 -0.5040  0.4670
 1861TIP3    H2 5590   5.500   4.612   1.111 -1.3622 -0.0518 -1.1901
 1862TIP3   OH2 5591   1.970   3.073   3.110 -0.2930  0.2000  0.6602
 1862TIP3    H1 5592   1.979   2.997   3.052  1.1739  0.2554  0.7835
 1862TIP3    H2 5593   2.012   3.046   3.191  0.6502  1.3035  0.5523
 1863TIP3   OH2 5594   5.470   2.242   0.650  0.1057  0.2022 -0.2725
 1863TIP3    H1 5595   5.423   2.274   0.727  0.6645 -0.8627  0.5487
 1863TIP3    H2 5596   5.424   2.162   0.624  0.7887 -0.2582 -0.1191
 1864TIP3   OH2 5597   4.689   3.205   3.642  0.1081  0.1415 -0.1318
 1864TIP3    H1 5598   4.723   3.123   3.678  0.9995  0.4441 -0.2669
 1864TIP3    H2 5599   4.721   3.273   3.702  1.9919  0.7071 -1.6802
 1865TIP3   OH2 5600   4.531   4.135   0.941 -0.3170 -0.1715 -0.1607
 1865TIP3    H1 5601   4.568   4.047   0.944  2.7375  0.9239 -1.4410
 1865TIP3    H2 5602   4.442   4.122   0.910 -0.0801 -2.8269  0.0153
 1866TIP3   OH2 5603   4.064   3.959   4.663 -0.0370  0.2605 -0.3932
 1866TIP3    H1 5604   4.071   3.865   4.681  0.0681  0.5023  0.9132
 1866TIP3    H2 5605   3.974   3.981   4.684  0.5471  0.8882  1.5926
 1867TIP3   OH2 5606   2.675   4.309   3.667 -0.1518 -0.0938  0.1518
 1867TIP3    H1 5607   2.678   4.349   3.581 -2.3877  0.7460  0.4052
 1867TIP3    H2 5608   2.598   4.252   3.665 -1.5118  1.5450  2.1977
 1868TIP3   OH2 5609   0.322   1.280   2.774  0.5081 -0.4305  0.2777
 1868TIP3    H1 5610   0.363   1.193   2.774 -0.4415 -0.8925  0.1386
 1868TIP3    H2 5611   0.350   1.320   2.856  1.4487 -0.6255  0.0649
 1869TIP3   OH2 5612   2.676   1.157   4.124  0.5913  0.7309  0.1446
 1869TIP3    H1 5613   2.724   1.102   4.186 -1.4710 -0.6311  0.6323
 1869TIP3    H2 5614   2.743   1.187   4.062  1.9816 -1.5443  0.4252
 1870TIP3   OH2 5615   3.320   2.540   1.976 -0.1943  0.1892 -0.2605
 1870TIP3    H1 5616   3.229   2.564   1.993 -0.5471 -0.2102 -1.4223
 1870TIP3    H2 5617   3.357   2.616   1.930 -0.4485 -0.2832 -1.2845
 1871TIP3   OH2 5618   5.988   1.493   4.129  0.4399 -0.5376  0.1707
 1871TIP3    H1 5619   6.049   1.506   4.056  0.3259  1.2024  0.3430
 1871TIP3    H2 5620   5.981   1.398   4.137 -0.3975 -0.8580 -2.8032
 1872TIP3   OH2 5621   2.272   2.440   2.736  0.0145  0.0749 -0.2123
 1872TIP3    H1 5622   2.314   2.360   2.705  0.0734 -0.1547  0.4411
 1872TIP3    H2 5623   2.344   2.495   2.768 -0.0553  0.2667 -0.3756
 1873TIP3   OH2 5624   4.341   5.151   2.695 -0.2226 -0.2532  0.0558
 1873TIP3    H1 5625   4.373   5.152   2.785 -1.0715 -0.8662  0.3746
 1873TIP3    H2 5626   4.367   5.236   2.660  1.7982 -0.7435  0.2557
 1874TIP3   OH2 5627   4.050   0.888   0.253  0.2751 -0.0349 -0.2714
 1874TIP3    H1 5628   3.985   0.821   0.231  1.2953 -0.7152 -1.3586
 1874TIP3    H2 5629   4.035   0.906   0.346 -1.6220  0.0269 -0.5452
 1875TIP3   OH2 5630   3.836   2.376   5.204  0.6649  0.0486 -0.8293
 1875TIP3    H1 5631   3.766   2.371   5.138 -0.1227 -0.2637 -0.0010
 1875TIP3    H2 5632   3.890   2.450   5.176  0.2323  0.0453 -1.7141
 1876TIP3   OH2 5633   3.502   4.092   3.779 -0.2946  0.2714  0.4086
 1876TIP3    H1 5634   3.439   4.031   3.818 -0.3282 -0.0067 -0.0735
 1876TIP3    H2 5635   3.559   4.036   3.725  1.3617  0.2623  2.0593
 1877TIP3   OH2 5636   5.271   5.847   4.549 -0.6887  0.1880  0.1557
 1877TIP3    H1 5637   5.249   5.772   4.604 -1.6779  0.4147  0.0868
 1877TIP3    H2 5638   5.286   5.810   4.462  0.3914 -0.1105  0.4584
 1878TIP3   OH2 5639   2.151   2.210   1.219 -0.6769 -0.0786 -0.0677
 1878TIP3    H1 5640   2.185   2.292   1.255 -0.6162  0.4833 -1.3552
 1878TIP3    H2 5641   2.116   2.234   1.133 -0.2424 -1.4794 -0.6646
 1879TIP3   OH2 5642   0.309   3.073   2.015 -0.4138  0.1897 -0.3232
 1879TIP3    H1 5643   0.292   3.128   1.938 -1.3684 -0.1470 -0.3653
 1879TIP3    H2 5644   0.255   2.995   2.001 -2.1982  0.9951  1.6396
 1880TIP3   OH2 5645   0.108   0.464   1.460 -0.7021  0.1209  0.4035
 1880TIP3    H1 5646   0.203   0.458   1.462 -0.4589  0.5268 -2.9779
 1880TIP3    H2 5647   0.082   0.479   1.551  2.5362  1.2012  1.2702
 1881TIP3   OH2 5648   2.340   0.450   5.049 -0.6525 -0.2402  0.3959
 1881TIP3    H1 5649   2.259   0.492   5.019  0.6392  0.5740 -2.2800
 1881TIP3    H2 5650   2.401   0.522   5.063  0.6540 -0.9531 -1.2201
 1882TIP3   OH2 5651   1.510   3.173   5.046  0.3751  0.3490  0.1743
 1882TIP3    H1 5652   1.430   3.223   5.029  1.0588  1.6007  0.4815
 1882TIP3    H2 5653   1.565   3.190   4.970  1.0649  1.0059  0.8097
 1883TIP3   OH2 5654   5.687   2.731   3.441  0.7546  0.3373 -0.6654
 1883TIP3    H1 5655   5.655   2.697   3.524  1.2819 -0.1175 -0.6436
 1883TIP3    H2 5656   5.615   2.715   3.379  1.0484 -1.0157 -0.7018
 1884TIP3   OH2 5657   5.482   0.676   4.434 -0.1849  0.1307  0.0627
 1884TIP3    H1 5658   5.406   0.714   4.392 -0.3634  0.2511  0.4849
 1884TIP3    H2 5659   5.523   0.621   4.367 -0.2444  0.6217 -0.3727
 1885TIP3   OH2 5660   3.051   0.026   2.647  0.1691  0.0804 -0.1545
 1885TIP3    H1 5661   3.050   0.055   2.556 -0.1894 -1.0006 -0.5091
 1885TIP3    H2 5662   3.133   0.061   2.683  0.2300  0.6520 -0.8392
 1886TIP3   OH2 5663   1.160   3.375   4.490  0.5757  0.5094 -0.1294
 1886TIP3    H1 5664   1.182   3.301   4.432  2.2453 -0.5269  1.6613
 1886TIP3    H2 5665   1.195   3.452   4.445  0.3411 -0.0187 -1.2514
 1887TIP3   OH2 5666   1.028   4.265   1.302  0.3626  0.1431  0.0328
 1887TIP3    H1 5667   0.993   4.183   1.268  1.8319  0.2788 -2.0016
 1887TIP3    H2 5668   0.954   4.325   1.303 -0.6701 -1.0820  1.2978
 1888TIP3   OH2 5669   3.625   4.893   0.026 -0.3865  0.0653 -0.0256
 1888TIP3    H1 5670   3.680   4.850   0.091  3.0138  2.8587 -0.7305
 1888TIP3    H2 5671   3.571   4.954   0.076  0.2411  0.2733  0.4115
 1889TIP3   OH2 5672   2.848   5.168   2.502 -0.5303 -0.5210  0.2524
 1889TIP3    H1 5673   2.863   5.252   2.544 -0.5419  0.2064 -1.1720
 1889TIP3    H2 5674   2.784   5.185   2.434  0.3609 -1.4152 -0.8640
 1890TIP3   OH2 5675   1.460   1.310   0.543 -0.1750  0.0918 -0.0182
 1890TIP3    H1 5676   1.426   1.304   0.453 -0.2807  2.6677 -0.2511
 1890TIP3    H2 5677   1.384   1.335   0.595  0.4850  2.0273  0.1275
 1891TIP3   OH2 5678   0.411   4.407   5.158 -0.1181 -0.1672  0.2218
 1891TIP3    H1 5679   0.407   4.412   5.254  0.8692  2.0592  0.1994
 1891TIP3    H2 5680   0.451   4.321   5.140 -0.3980 -0.6579  1.7779
 1892TIP3   OH2 5681   1.915   0.297   0.141 -0.5834  0.5822  0.1547
 1892TIP3    H1 5682   1.833   0.248   0.140 -0.6638  0.6711  1.1449
 1892TIP3    H2 5683   1.959   0.273   0.060 -0.5476 -1.2663  0.6941
 1893TIP3   OH2 5684   3.260   1.751   4.823 -0.1910 -0.4191 -0.5416
 1893TIP3    H1 5685   3.342   1.795   4.847 -1.0534  0.6097  0.6077
 1893TIP3    H2 5686   3.287   1.663   4.797  1.0299 -1.1636  2.7633
 1894TIP3   OH2 5687   5.802   0.866   3.145  0.5778  0.4333  0.0253
 1894TIP3    H1 5688   5.725   0.841   3.094  0.2927 -0.6676  0.9511
 1894TIP3    H2 5689   5.875   0.859   3.083  0.0264  0.8159 -0.6822
 1895TIP3   OH2 5690   4.911   3.002   4.027 -0.0196 -0.0134 -0.7713
 1895TIP3    H1 5691   4.944   2.928   4.078  0.1064  0.4770 -0.1328
 1895TIP3    H2 5692   4.981   3.067   4.031 -0.3618  0.3626 -0.8427
 1896TIP3   OH2 5693   6.089   4.656   4.898  0.1054 -0.3777 -0.0043
 1896TIP3    H1 5694   6.176   4.663   4.937  0.6576 -0.4950 -1.1704
 1896TIP3    H2 5695   6.063   4.566   4.914 -0.7327  0.1782  2.1736
 1897TIP3   OH2 5696   4.553   1.935   4.163 -0.3548  0.4634  0.3306
 1897TIP3    H1 5697   4.538   1.962   4.072  0.7006  0.4986  0.1549
 1897TIP3    H2 5698   4.639   1.894   4.162  0.2768  1.6981  1.5760
 1898TIP3   OH2 5699   5.538   4.331   3.667 -0.5284  0.3166  0.6130
 1898TIP3    H1 5700   5.531   4.244   3.706 -2.8647 -1.1896 -2.7428
 1898TIP3    H2 5701   5.619   4.329   3.617 -1.2314 -0.4878 -0.5338
 1899TIP3   OH2 5702   2.276   1.074   1.653  0.3264  0.2588  0.3870
 1899TIP3    H1 5703   2.349   1.099   1.710  0.8761  1.1079 -0.6503
 1899TIP3    H2 5704   2.263   1.151   1.598 -1.7383  0.3425  0.9266
 1900TIP3   OH2 5705   0.067   2.472   2.243 -0.0810 -0.2938 -0.1225
 1900TIP3    H1 5706   0.029   2.544   2.193  1.2816  0.8584  0.4442
 1900TIP3    H2 5707   0.038   2.393   2.197 -1.5775  0.5898 -0.7823
 1901TIP3   OH2 5708   2.569   1.789   4.919  0.0658  0.1659 -0.6701
 1901TIP3    H1 5709   2.498   1.851   4.901 -0.3917 -0.4824 -1.1586
 1901TIP3    H2 5710   2.605   1.769   4.833 -0.5611 -1.1349 -0.6413
 1902TIP3   OH2 5711   5.794   2.378   3.494  0.0834  0.1345  0.0254
 1902TIP3    H1 5712   5.805   2.368   3.399 -0.3991 -0.4138  0.0191
 1902TIP3    H2 5713   5.842   2.458   3.516  1.3090 -0.4266 -0.4765
 1903TIP3   OH2 5714   2.225   3.890   2.445  0.4028  0.1900 -0.2646
 1903TIP3    H1 5715   2.187   3.977   2.437 -0.1473 -0.1930 -2.2822
 1903TIP3    H2 5716   2.315   3.901   2.414  0.7673  0.2965  0.7933
 1904TIP3   OH2 5717   4.617   3.595   1.703  0.5536  0.5145 -0.2817
 1904TIP3    H1 5718   4.644   3.596   1.612 -0.4750 -1.1788 -0.6606
 1904TIP3    H2 5719   4.696   3.615   1.753  1.3926  0.2950 -1.4985
 1905TIP3   OH2 5720   1.415   5.231   1.538 -0.3534  0.1257  0.1107
 1905TIP3    H1 5721   1.485   5.176   1.574  3.3087  1.4795 -4.0802
 1905TIP3    H2 5722   1.418   5.311   1.590  2.1472  0.5828 -0.6189
 1906TIP3   OH2 5723   0.965   1.370   3.924 -0.3149  0.0157 -0.2427
 1906TIP3    H1 5724   0.879   1.332   3.907 -0.5154  0.1059  0.5154
 1906TIP3    H2 5725   1.006   1.309   3.985  0.3962 -0.3291 -1.0477
 1907TIP3   OH2 5726   0.936   3.428   1.896  0.7014  0.3162  0.4069
 1907TIP3    H1 5727   0.887   3.372   1.836  1.7261 -1.2721  0.9578
 1907TIP3    H2 5728   0.914   3.394   1.983  1.7265  0.4307  0.7280
 1908TIP3   OH2 5729   1.134   2.020   5.148 -0.6645 -0.3271  0.5377
 1908TIP3    H1 5730   1.194   2.056   5.082  2.2648 -0.9307  2.6667
 1908TIP3    H2 5731   1.092   1.947   5.104 -1.1090  1.0908 -1.5435
 1909TIP3   OH2 5732   5.249   0.788   4.316 -0.3454 -0.4981  0.1058
 1909TIP3    H1 5733   5.165   0.833   4.317 -0.9380 -1.5722  1.4364
 1909TIP3    H2 5734   5.277   0.793   4.224 -2.5395 -1.3210 -0.6910
 1910TIP3   OH2 5735   1.320   3.752   2.388  0.4827  0.1089  0.2948
 1910TIP3    H1 5736   1.262   3.687   2.347  1.3315 -0.1907 -0.4669
 1910TIP3    H2 5737   1.262   3.805   2.443 -0.1234 -1.7059  1.4674
 1911TIP3   OH2 5738   6.242   4.110   4.794  0.1046  0.0083 -0.3969
 1911TIP3    H1 5739   6.220   4.147   4.880  0.8709 -1.8976  0.6950
 1911TIP3    H2 5740   6.212   4.175   4.731 -2.5402  0.5063  1.2088
 1912TIP3   OH2 5741   4.478   0.222   2.674 -0.5169  0.6774 -0.1411
 1912TIP3    H1 5742   4.521   0.293   2.626  0.1767  1.0651  0.9936
 1912TIP3    H2 5743   4.445   0.163   2.607 -0.8828  1.9385 -1.1206
 1913TIP3   OH2 5744   5.317   3.656   2.185 -0.0560  0.1673 -0.8375
 1913TIP3    H1 5745   5.377   3.586   2.207  0.3790  1.0543  1.0246
 1913TIP3    H2 5746   5.280   3.684   2.269 -0.2674  2.0961 -1.5058
 1914TIP3   OH2 5747   6.283   1.102   0.266  0.0134 -0.1021  0.1560
 1914TIP3    H1 5748   6.341   1.177   0.272  0.6934 -0.6064  0.0110
 1914TIP3    H2 5749   6.200   1.138   0.236 -1.0793  1.3099  4.1735
 1915TIP3   OH2 5750   4.748   0.690   3.071 -0.3442 -0.2894  0.5395
 1915TIP3    H1 5751   4.728   0.619   3.011 -0.3265 -0.2350  0.4693
 1915TIP3    H2 5752   4.841   0.709   3.056 -0.1543 -0.7635  1.0978
 1916TIP3   OH2 5753   0.471   5.488   0.099  0.1118  0.0385  0.2516
 1916TIP3    H1 5754   0.464   5.397   0.126  0.6681 -0.2172 -0.4341
 1916TIP3    H2 5755   0.433   5.538   0.172 -0.3473 -0.7435  0.5539
 1917TIP3   OH2 5756   4.306   2.581   2.358  0.0966  0.1789 -0.4743
 1917TIP3    H1 5757   4.313   2.604   2.265 -0.1532 -1.9022 -1.0491
 1917TIP3    H2 5758   4.214   2.558   2.370  0.5083 -1.4329 -0.2150
 1918TIP3   OH2 5759   3.582   2.108   0.968  0.2771 -0.1500 -0.2972
 1918TIP3    H1 5760   3.672   2.075   0.962  0.3326  0.1511 -1.6117
 1918TIP3    H2 5761   3.528   2.030   0.969  0.5550 -0.3515  1.1007
 1919TIP3   OH2 5762   0.489   1.240   3.423 -0.1239  0.6972 -0.2129
 1919TIP3    H1 5763   0.476   1.201   3.509 -1.1783  0.2138 -0.5752
 1919TIP3    H2 5764   0.426   1.195   3.367  2.7632 -1.3857 -2.0236
 1920TIP3   OH2 5765   2.383   1.856   1.204 -0.4207  0.0579 -0.2250
 1920TIP3    H1 5766   2.365   1.836   1.296  0.3497  0.8153  0.1058
 1920TIP3    H2 5767   2.349   1.780   1.156  0.0874 -0.8258  0.7585
 1921TIP3   OH2 5768   5.953   3.821   1.848 -0.8260  0.2056 -0.4287
 1921TIP3    H1 5769   5.899   3.784   1.918  1.2514 -1.5534  0.3399
 1921TIP3    H2 5770   5.987   3.745   1.800  1.9869  1.1071 -0.0560
 1922TIP3   OH2 5771   3.667   1.888   1.559 -0.4217 -0.1322 -0.1017
 1922TIP3    H1 5772   3.629   1.811   1.516  2.2130 -1.5624 -0.0573
 1922TIP3    H2 5773   3.678   1.952   1.488  0.5134 -1.1232 -0.8848
 1923TIP3   OH2 5774   0.191   2.787   2.886  0.0090 -0.3829  0.6151
 1923TIP3    H1 5775   0.194   2.726   2.813 -0.4482 -1.8579  1.7600
 1923TIP3    H2 5776   0.117   2.845   2.866  0.3677 -0.2758 -0.4396
 1924TIP3   OH2 5777   0.510   3.247   1.472 -0.1757  0.3273 -0.3341
 1924TIP3    H1 5778   0.436   3.190   1.494  1.3646 -1.0172  1.6938
 1924TIP3    H2 5779   0.488   3.331   1.513 -1.0799  0.3244 -0.7735
 1925TIP3   OH2 5780   6.333   1.671   4.845 -0.0229  0.1586 -0.8342
 1925TIP3    H1 5781   6.301   1.735   4.782 -0.6671 -0.7409 -1.4562
 1925TIP3    H2 5782   6.403   1.716   4.892 -0.0043  1.0848 -1.7120
 1926TIP3   OH2 5783   0.950   5.657   4.390 -0.2700  0.1880  0.5984
 1926TIP3    H1 5784   0.922   5.565   4.388 -0.1107  0.1128  1.5197
 1926TIP3    H2 5785   1.025   5.658   4.449  1.5679  0.4335 -1.5811
 1927TIP3   OH2 5786   4.213   4.677   1.798  0.2256 -0.0828 -0.6115
 1927TIP3    H1 5787   4.235   4.597   1.750  0.8915 -0.5279  0.4213
 1927TIP3    H2 5788   4.267   4.744   1.757 -0.2025 -0.1765 -1.3648
 1928TIP3   OH2 5789   2.859   3.424   1.394 -0.4163 -0.3010  0.3890
 1928TIP3    H1 5790   2.800   3.383   1.331 -0.3399  1.9073 -1.2775
 1928TIP3    H2 5791   2.802   3.455   1.464 -1.3793  1.8119 -1.1995
 1929TIP3   OH2 5792   3.814   4.832   1.340  0.6523  0.3061  0.7877
 1929TIP3    H1 5793   3.778   4.909   1.295  0.5981  1.1456  2.1990
 1929TIP3    H2 5794   3.737   4.782   1.367  0.6734 -1.5925 -2.1886
 1930TIP3   OH2 5795   5.457   3.888   2.551  0.5899  0.2682 -0.0268
 1930TIP3    H1 5796   5.551   3.883   2.567  0.3833  1.0866  1.6995
 1930TIP3    H2 5797   5.441   3.981   2.534  0.3900 -0.1912 -2.6931
 1931TIP3   OH2 5798   5.398   1.769   4.169  0.4747  0.0253 -0.2258
 1931TIP3    H1 5799   5.465   1.704   4.148  0.3848  0.3269 -1.5554
 1931TIP3    H2 5800   5.434   1.817   4.244  0.6469 -1.3837  0.6136
 1932TIP3   OH2 5801   5.108   1.238   2.446 -0.7685  0.0727  0.2877
 1932TIP3    H1 5802   5.134   1.284   2.366 -0.6991 -0.7787 -0.2031
 1932TIP3    H2 5803   5.014   1.251   2.453 -0.9972 -0.8879 -0.6556
 1933TIP3   OH2 5804   3.600   3.790   0.401 -0.3979 -0.2088 -0.5889
 1933TIP3    H1 5805   3.641   3.866   0.358 -0.0810  1.0559  1.7618
 1933TIP3    H2 5806   3.526   3.768   0.345  0.2232  1.0358 -1.9956
 1934TIP3   OH2 5807   4.807   4.095   0.097  0.2530 -0.7671  0.1989
 1934TIP3    H1 5808   4.787   4.187   0.080 -0.2427 -0.8685  0.2177
 1934TIP3    H2 5809   4.807   4.087   0.192  0.3183 -0.7804  0.1976
 1935TIP3   OH2 5810   3.566   0.387   0.806  0.2481 -0.3453 -0.2240
 1935TIP3    H1 5811   3.621   0.420   0.876  0.6545  0.3749 -0.8608
 1935TIP3    H2 5812   3.612   0.310   0.773 -0.0048 -0.7547  0.3662
 1936TIP3   OH2 5813   4.473   1.038   4.359 -0.6411 -0.4057  0.3705
 1936TIP3    H1 5814   4.401   1.094   4.332 -0.6641 -0.2643  0.7196
 1936TIP3    H2 5815   4.464   1.031   4.454 -0.1965 -0.3871  0.4175
 1937TIP3   OH2 5816   1.004   0.280   0.680 -0.2486  0.5480  0.4900
 1937TIP3    H1 5817   0.914   0.284   0.714 -0.2396 -0.2871  0.6150
 1937TIP3    H2 5818   1.035   0.193   0.703  0.3571  0.5784 -0.1765
 1938TIP3   OH2 5819   3.015   1.524   1.685  0.2275 -0.1488 -0.7983
 1938TIP3    H1 5820   3.010   1.471   1.765  0.4215  0.2950 -0.4903
 1938TIP3    H2 5821   2.960   1.477   1.622  1.0277 -1.1502 -0.7786
 1939TIP3   OH2 5822   3.905   5.586   2.497 -0.3159  0.5268 -0.3849
 1939TIP3    H1 5823   3.928   5.551   2.411 -1.5261  0.8375 -0.8500
 1939TIP3    H2 5824   3.821   5.629   2.484 -0.7256  0.2163  1.0459
 1940TIP3   OH2 5825   3.232   0.544   4.532  0.0847  0.3995  0.1043
 1940TIP3    H1 5826   3.251   0.557   4.439 -0.0226 -0.1160  0.0039
 1940TIP3    H2 5827   3.231   0.449   4.543 -1.8454  0.3838  0.2006
 1941TIP3   OH2 5828   1.861   3.418   0.678 -0.0461 -0.6120 -0.0271
 1941TIP3    H1 5829   1.943   3.404   0.725 -0.2410 -0.9857  0.2109
 1941TIP3    H2 5830   1.830   3.330   0.657  1.0229 -0.4668 -2.6145
 1942TIP3   OH2 5831   4.029   5.215   0.160  0.2160 -0.1407 -0.1086
 1942TIP3    H1 5832   4.065   5.141   0.111 -2.5559 -1.2654 -0.6813
 1942TIP3    H2 5833   4.032   5.288   0.098  1.0512 -0.3249 -0.2883
 1943TIP3   OH2 5834   3.463   3.363   3.222 -0.4974 -0.5768  0.0637
 1943TIP3    H1 5835   3.480   3.333   3.311  0.2517 -1.9261 -0.4913
 1943TIP3    H2 5836   3.433   3.284   3.176  0.4929 -0.2297 -1.2181
 1944TIP3   OH2 5837   4.830   3.593   3.109  0.2638  0.0881 -0.2825
 1944TIP3    H1 5838   4.836   3.503   3.141  4.4325  0.6516  1.1718
 1944TIP3    H2 5839   4.851   3.647   3.185 -1.4168  2.3122 -1.2902
 1945TIP3   OH2 5840   1.849   3.158   4.635 -0.1188  0.3359  0.5795
 1945TIP3    H1 5841   1.944   3.153   4.634 -0.1332  0.0840  0.1437
 1945TIP3    H2 5842   1.822   3.109   4.557 -0.5576  1.5640 -0.0654
 1946TIP3   OH2 5843   2.207   4.904   4.590  0.0983 -0.1806  0.3997
 1946TIP3    H1 5844   2.233   4.927   4.679  0.8253 -1.3491  0.5120
 1946TIP3    H2 5845   2.142   4.970   4.566  1.3470  1.3444  1.0476
 1947TIP3   OH2 5846   4.340   5.858   1.144  0.1420 -0.2316  0.0916
 1947TIP3    H1 5847   4.416   5.868   1.085  1.0182 -1.4209  0.9714
 1947TIP3    H2 5848   4.353   5.773   1.184 -0.5993  0.4211  1.7775
 1948TIP3   OH2 5849   6.339   6.021   2.970  0.3163 -0.3541 -0.4694
 1948TIP3    H1 5850   6.417   5.987   2.927  0.0946 -1.5191  0.0136
 1948TIP3    H2 5851   6.274   5.951   2.963 -0.9753  0.8940 -1.5711
 1949TIP3   OH2 5852   3.006   5.648   0.191  0.1560  0.5429 -0.4197
 1949TIP3    H1 5853   2.970   5.563   0.167  0.6046  0.0441  0.5960
 1949TIP3    H2 5854   2.930   5.701   0.213 -0.0798  0.0970 -0.1352
 1950TIP3   OH2 5855   5.179   3.845   0.818  0.4065  0.7900  0.3072
 1950TIP3    H1 5856   5.270   3.855   0.843  0.2017 -1.2250  2.2225
 1950TIP3    H2 5857   5.181   3.780   0.747  0.5163  1.6483 -0.4931
 1951TIP3   OH2 5858   6.240   0.774   3.367  0.2149  0.0913  0.6090
 1951TIP3    H1 5859   6.230   0.780   3.462  0.5395  0.3257  0.6312
 1951TIP3    H2 5860   6.256   0.864   3.339  1.6340 -0.1737  0.5144
 1952TIP3   OH2 5861   3.362   2.714   3.819 -0.1675  0.0606 -1.2836
 1952TIP3    H1 5862   3.341   2.680   3.732  3.2592  0.3946 -2.3908
 1952TIP3    H2 5863   3.398   2.639   3.865 -0.3849  0.2899 -0.7336
 1953TIP3   OH2 5864   3.820   5.411   3.964 -0.4375 -0.0522 -0.7376
 1953TIP3    H1 5865   3.789   5.322   3.981 -0.0041 -0.1192 -0.2530
 1953TIP3    H2 5866   3.915   5.403   3.958 -0.4333  0.2993 -1.2198
 1954TIP3   OH2 5867   4.038   0.491   1.775  0.1915  0.2391  0.1598
 1954TIP3    H1 5868   3.955   0.528   1.745 -0.3964  1.3882  2.8802
 1954TIP3    H2 5869   4.015   0.439   1.852  1.9742  0.7789  1.1219
 1955TIP3   OH2 5870   5.231   5.521   2.295  0.1240 -0.0170 -0.0239
 1955TIP3    H1 5871   5.203   5.595   2.347  1.5334 -1.7608  3.5636
 1955TIP3    H2 5872   5.149   5.477   2.270 -0.6084  1.1294  0.2726
 1956TIP3   OH2 5873   5.936   3.288   2.861  0.0252 -0.6535 -0.2999
 1956TIP3    H1 5874   5.970   3.343   2.790 -0.4743 -0.6352 -0.5260
 1956TIP3    H2 5875   6.007   3.287   2.926  0.6539 -1.0194 -0.9796
 1957TIP3   OH2 5876   6.328   2.301   0.163  0.4513 -0.1149  0.4071
 1957TIP3    H1 5877   6.244   2.335   0.133 -0.6303 -2.5877  0.4192
 1957TIP3    H2 5878   6.323   2.306   0.259  0.6775  0.4733  0.3951
 1958TIP3   OH2 5879   0.538   5.867   0.116 -0.1671  0.5635  0.7219
 1958TIP3    H1 5880   0.621   5.823   0.135 -0.4016  0.1144  0.7260
 1958TIP3    H2 5881   0.559   5.960   0.114  0.8415  0.3600 -1.7967
 1959TIP3   OH2 5882   1.475   3.976   4.111 -0.4331 -0.2497  0.1204
 1959TIP3    H1 5883   1.408   3.933   4.058  0.4291 -1.3309 -0.1525
 1959TIP3    H2 5884   1.534   4.016   4.048  0.0823 -0.7348  0.2811
 1960TIP3   OH2 5885   4.828   2.135   0.367 -0.3142 -0.0127  0.6229
 1960TIP3    H1 5886   4.858   2.091   0.287  0.0661  0.5595  0.4448
 1960TIP3    H2 5887   4.780   2.067   0.415 -1.0538 -0.2137 -0.3592
 1961TIP3   OH2 5888   2.553   0.003   4.641 -0.0641 -0.0545  0.0094
 1961TIP3    H1 5889   2.479   0.040   4.689  1.4922  2.5234  0.6181
 1961TIP3    H2 5890   2.563   0.060   4.565 -0.0652 -1.7555 -1.3242
 1962TIP3   OH2 5891   2.300   1.620   1.058 -0.6528  1.1163  0.0025
 1962TIP3    H1 5892   2.221   1.623   1.004 -0.7382  2.1746  0.1717
 1962TIP3    H2 5893   2.365   1.577   1.002 -1.3903  0.0548 -0.0606
 1963TIP3   OH2 5894   3.410   3.870   0.638 -0.6485  0.0556  0.0413
 1963TIP3    H1 5895   3.384   3.934   0.572  1.3719 -0.2535 -1.1225
 1963TIP3    H2 5896   3.505   3.875   0.640 -0.3442 -3.3593 -0.5361
 1964TIP3   OH2 5897   4.127   3.885   0.855  0.1659 -0.8490  0.3516
 1964TIP3    H1 5898   4.073   3.859   0.781 -0.7509 -1.3274  1.1595
 1964TIP3    H2 5899   4.139   3.805   0.906 -2.1622  0.0458  2.5532
 1965TIP3   OH2 5900   2.169   3.127   4.943  0.2437  0.6112 -0.2414
 1965TIP3    H1 5901   2.135   3.127   4.854  1.9779  0.2090 -0.9472
 1965TIP3    H2 5902   2.175   3.219   4.968  1.5432  0.8448 -1.3026
 1966TIP3   OH2 5903   3.263   1.566   3.026 -0.0112  0.5217 -0.0982
 1966TIP3    H1 5904   3.248   1.659   3.009 -2.1970  0.1570 -0.5194
 1966TIP3    H2 5905   3.203   1.521   2.966  2.3736 -1.2593 -1.3230
 1967TIP3   OH2 5906   4.655   4.129   2.234 -0.1409 -0.2011  0.2723
 1967TIP3    H1 5907   4.680   4.221   2.221 -0.2511 -0.4681 -2.0963
 1967TIP3    H2 5908   4.738   4.082   2.234 -0.1606 -0.2353  0.2515
 1968TIP3   OH2 5909   5.946   3.031   3.684 -0.0061  0.1172  0.2405
 1968TIP3    H1 5910   5.932   3.095   3.613 -1.7729  1.3329  1.5969
 1968TIP3    H2 5911   5.860   3.020   3.724  0.5456 -2.0865  0.9696
 1969TIP3   OH2 5912   2.294   1.460   4.488 -0.1835 -0.5602 -0.1530
 1969TIP3    H1 5913   2.381   1.484   4.457 -0.8091 -0.6875 -2.1437
 1969TIP3    H2 5914   2.270   1.383   4.435 -1.0057 -1.3211  1.2542
 1970TIP3   OH2 5915   5.379   5.723   5.030  0.5004 -0.0795 -0.4749
 1970TIP3    H1 5916   5.439   5.649   5.040  0.1202 -0.4184 -0.6526
 1970TIP3    H2 5917   5.397   5.779   5.106  0.6000 -0.4919 -0.1903
 1971TIP3   OH2 5918   2.008   2.812   0.789  0.0152  0.1592 -0.0508
 1971TIP3    H1 5919   2.096   2.845   0.805 -0.4201  0.9797  0.7458
 1971TIP3    H2 5920   1.951   2.886   0.809 -0.9347 -0.7724  0.8156
 1972TIP3   OH2 5921   2.786   5.733   3.480 -0.2083 -0.0859 -0.0291
 1972TIP3    H1 5922   2.799   5.715   3.573 -1.0834  2.6624  0.7185
 1972TIP3    H2 5923   2.858   5.792   3.456 -1.3935  1.3063 -0.3477
 1973TIP3   OH2 5924   4.671   3.669   2.455 -0.4600  0.1997 -0.6375
 1973TIP3    H1 5925   4.608   3.635   2.518  1.1247 -0.4055  0.6875
 1973TIP3    H2 5926   4.753   3.623   2.475  0.9351  2.3895 -0.9841
 1974TIP3   OH2 5927   3.348   1.498   4.739 -0.1850  0.1628  0.1265
 1974TIP3    H1 5928   3.372   1.437   4.670 -0.4615  1.5441 -1.2477
 1974TIP3    H2 5929   3.387   1.462   4.819  2.4209 -0.1084 -1.1794
 1975TIP3   OH2 5930   3.774   4.695   4.161  0.1803 -0.0713 -0.1465
 1975TIP3    H1 5931   3.840   4.651   4.214 -0.7004 -0.5713  0.5525
 1975TIP3    H2 5932   3.717   4.625   4.130  0.3623  0.2740 -1.3212
 1976TIP3   OH2 5933   5.793   2.701   3.148  0.2335  0.0931 -0.3646
 1976TIP3    H1 5934   5.888   2.692   3.136  0.3361  0.4043  0.1734
 1976TIP3    H2 5935   5.783   2.786   3.189 -0.3545  0.4282 -1.1819
 1977TIP3   OH2 5936   0.433   1.361   1.523  0.2366  0.1692 -0.3380
 1977TIP3    H1 5937   0.361   1.343   1.462  0.0894  2.2271 -0.8654
 1977TIP3    H2 5938   0.414   1.307   1.599 -1.3560 -0.0571 -0.8504
 1978TIP3   OH2 5939   0.939   1.766   3.038 -0.0952  0.5787  0.0540
 1978TIP3    H1 5940   0.878   1.798   3.104  1.1199  0.6933  1.1679
 1978TIP3    H2 5941   0.977   1.686   3.075 -0.0521  0.1286 -0.9069
 1979TIP3   OH2 5942   0.835   0.731   4.878 -0.4435 -0.2624 -0.0507
 1979TIP3    H1 5943   0.791   0.791   4.819  0.2333 -0.0408 -0.3388
 1979TIP3    H2 5944   0.836   0.647   4.831  0.1142 -0.0811 -0.3690
 1980TIP3   OH2 5945   0.165   1.862   3.147 -0.3206  0.1589 -0.1226
 1980TIP3    H1 5946   0.143   1.803   3.219  3.0599 -0.0078  0.9936
 1980TIP3    H2 5947   0.141   1.949   3.179  0.5406  0.0083  1.0146
 1981TIP3   OH2 5948   2.705   4.643   2.698  0.0718 -0.2863  1.0871
 1981TIP3    H1 5949   2.671   4.729   2.724  0.3843  1.0809 -2.5145
 1981TIP3    H2 5950   2.677   4.632   2.608 -0.2502 -4.2347  1.5039
 1982TIP3   OH2 5951   5.105   5.143   0.398  0.1313  0.4233  0.1924
 1982TIP3    H1 5952   5.110   5.067   0.456 -0.4722 -0.5538 -0.9757
 1982TIP3    H2 5953   5.196   5.163   0.377  0.3345  0.5710  1.1772
 1983TIP3   OH2 5954   4.397   5.950   2.779  0.4001  0.6496 -0.2038
 1983TIP3    H1 5955   4.479   5.951   2.730  0.9681  2.5197  0.6687
 1983TIP3    H2 5956   4.333   5.990   2.721  0.9155  2.2242  0.2327
 1984TIP3   OH2 5957   5.440   2.059   5.033  0.0334 -0.0201  0.6609
 1984TIP3    H1 5958   5.504   2.081   5.101 -0.0682 -1.6266  1.3047
 1984TIP3    H2 5959   5.401   2.144   5.009  1.9568  0.9228  0.6650
 1985TIP3   OH2 5960   3.707   4.432   0.589  0.2409 -0.0477  0.1733
 1985TIP3    H1 5961   3.748   4.504   0.542  0.0152 -0.7424 -1.1073
 1985TIP3    H2 5962   3.748   4.353   0.555 -3.1299 -0.9153 -2.3721
 1986TIP3   OH2 5963   2.105   0.267   4.786 -0.0367 -0.1297  0.6214
 1986TIP3    H1 5964   2.022   0.312   4.796 -0.2702 -0.6940  1.3199
 1986TIP3    H2 5965   2.095   0.216   4.705 -2.0503 -3.5815  2.7997
 1987TIP3   OH2 5966   3.240   5.721   0.312  0.1659 -0.2240 -0.3387
 1987TIP3    H1 5967   3.306   5.663   0.274 -0.2090  0.8691 -2.8584
 1987TIP3    H2 5968   3.157   5.692   0.275 -0.5030 -0.1491  1.0139
 1988TIP3   OH2 5969   1.559   2.422   4.176 -0.3306 -0.2627 -0.0634
 1988TIP3    H1 5970   1.601   2.337   4.189 -2.5084 -1.4822 -0.5828
 1988TIP3    H2 5971   1.596   2.455   4.094 -0.8211 -1.6208 -0.8626
 1989TIP3   OH2 5972   2.039   1.737   4.759  0.7288  0.3369  0.3113
 1989TIP3    H1 5973   1.948   1.707   4.762 -0.0845  2.1106 -2.2996
 1989TIP3    H2 5974   2.033   1.833   4.763  2.6550  0.4684  1.6548
 1990TIP3   OH2 5975   2.136   5.100   3.885 -0.0747  0.6212 -1.0712
 1990TIP3    H1 5976   2.195   5.083   3.812  1.3990  1.5869 -0.1823
 1990TIP3    H2 5977   2.094   5.183   3.863  0.2847  0.8551 -0.8922
 1991TIP3   OH2 5978   4.389   3.380   4.062 -0.2711  0.2835 -0.3922
 1991TIP3    H1 5979   4.399   3.284   4.062 -0.3900  0.2668  0.3336
 1991TIP3    H2 5980   4.477   3.413   4.045  0.0780  0.0619  0.9167
 1992TIP3   OH2 5981   5.397   0.888   4.808 -0.0290  0.0451  0.4096
 1992TIP3    H1 5982   5.308   0.853   4.805  0.7389 -2.0987  0.8314
 1992TIP3    H2 5983   5.448   0.829   4.752  1.6430 -0.5509  2.4166
 1993TIP3   OH2 5984   0.875   3.282   3.043  1.2754  0.1128 -0.3732
 1993TIP3    H1 5985   0.784   3.251   3.043  1.1704  0.3311 -1.9283
 1993TIP3    H2 5986   0.873   3.360   2.988  2.8247 -1.2731 -2.5558
 1994TIP3   OH2 5987   3.135   0.826   1.070  0.0476 -0.5014 -0.4580
 1994TIP3    H1 5988   3.186   0.746   1.053 -0.6563 -1.5911  1.9808
 1994TIP3    H2 5989   3.072   0.830   0.999  1.1837 -1.1571 -1.5436
 1995TIP3   OH2 5990   3.864   2.878   0.328 -0.2916 -0.0412  0.2151
 1995TIP3    H1 5991   3.944   2.834   0.299 -0.2979  0.5769 -0.7960
 1995TIP3    H2 5992   3.892   2.934   0.401  0.5004  1.2531 -1.0465
 1996TIP3   OH2 5993   2.333   1.805   0.709  0.7673 -0.0367 -0.7819
 1996TIP3    H1 5994   2.401   1.802   0.641 -0.3371  0.0219 -1.9246
 1996TIP3    H2 5995   2.260   1.756   0.671 -0.1787  0.7191  0.0246
 1997TIP3   OH2 5996   5.648   5.389   4.655  0.1940  0.0792 -0.3619
 1997TIP3    H1 5997   5.735   5.423   4.636 -0.5539  1.7766 -0.8837
 1997TIP3    H2 5998   5.594   5.466   4.669 -1.4680 -0.8943 -1.0619
 1998TIP3   OH2 5999   2.617   1.468   2.779 -0.5625 -0.3716 -0.0839
 1998TIP3    H1 6000   2.573   1.482   2.863 -1.0204 -0.5898 -0.2864
 1998TIP3    H2 6001   2.639   1.556   2.749 -1.3387 -0.2234 -0.2335
 1999TIP3   OH2 6002   4.964   1.347   0.124 -0.3491 -0.3572 -0.1697
 1999TIP3    H1 6003   4.995   1.394   0.046  0.4895  0.0903  0.4084
 1999TIP3    H2 6004   4.969   1.413   0.194 -0.8929 -0.8105  0.2969
 2000TIP3   OH2 6005   5.712   0.458   1.468  0.0604 -0.4407  0.3795
 2000TIP3    H1 6006   5.647   0.392   1.493 -1.0348 -0.7239 -2.7753
 2000TIP3    H2 6007   5.661   0.527   1.426  1.5621  0.5730  0.1430
 2001TIP3   OH2 6008   3.939   3.692   1.756 -0.3472 -0.2947 -0.1113
 2001TIP3    H1 6009   3.929   3.602   1.788 -0.2606  0.0941  1.0511
 2001TIP3    H2 6010   3.892   3.693   1.673 -0.7916 -1.2780  0.1110
 2002TIP3   OH2 6011   1.209   0.438   2.492  0.1902 -0.0192  0.4822
 2002TIP3    H1 6012   1.225   0.515   2.438 -1.2695  0.2303  0.3744
 2002TIP3    H2 6013   1.151   0.468   2.562  0.4601 -0.7834  1.0585
 2003TIP3   OH2 6014   5.218   1.848   0.261  0.1755 -0.4401 -0.1371
 2003TIP3    H1 6015   5.243   1.855   0.169  0.3326 -0.9257 -0.1366
 2003TIP3    H2 6016   5.295   1.811   0.304 -0.0238 -0.5549  0.1219
 2004TIP3   OH2 6017   5.173   1.155   0.129  0.0232 -0.0372  0.2160
 2004TIP3    H1 6018   5.236   1.206   0.079  0.8721  1.6488  2.7653
 2004TIP3    H2 6019   5.096   1.212   0.134  0.3378  0.2935  1.6415
 2005TIP3   OH2 6020   1.749   2.167   5.121 -0.3759 -0.3471  0.1316
 2005TIP3    H1 6021   1.691   2.152   5.196  0.0250 -1.0076  0.3096
 2005TIP3    H2 6022   1.754   2.083   5.077 -1.1450  0.1914 -1.0360
 2006TIP3   OH2 6023   5.326   0.023   1.377  0.1942 -0.2353  0.1764
 2006TIP3    H1 6024   5.360  -0.054   1.423  1.0881  1.3519  2.3085
 2006TIP3    H2 6025   5.390   0.092   1.394 -2.0941  1.8317  1.0096
 2007TIP3   OH2 6026   1.451   4.809   4.686 -0.5246 -0.3609  0.8060
 2007TIP3    H1 6027   1.526   4.792   4.629 -0.7045  0.5747  0.2847
 2007TIP3    H2 6028   1.490   4.837   4.769 -0.2829  0.8616  0.3014
 2008TIP3   OH2 6029   1.285   2.112   0.199  0.1496 -0.3421 -0.5014
 2008TIP3    H1 6030   1.313   2.120   0.291  0.3505  1.1370 -0.6603
 2008TIP3    H2 6031   1.225   2.038   0.199 -0.5854  0.1987  1.0232
 2009TIP3   OH2 6032   3.081   3.739   0.764  0.1991 -0.0651  0.4006
 2009TIP3    H1 6033   3.008   3.754   0.825 -0.2554 -0.7627  0.0421
 2009TIP3    H2 6034   3.075   3.646   0.743 -0.1029  0.3164 -1.2841
 2010TIP3   OH2 6035   1.018   4.575   0.386 -0.6395 -0.3434 -0.3350
 2010TIP3    H1 6036   0.994   4.620   0.305 -0.4099  1.2869  0.4394
 2010TIP3    H2 6037   0.937   4.571   0.436 -0.6828 -0.8982 -0.4545
 2011TIP3   OH2 6038   0.055   1.056   4.767  0.1910  0.3699 -0.1168
 2011TIP3    H1 6039  -0.013   1.014   4.819 -0.9262  0.5960 -1.3486
 2011TIP3    H2 6040   0.066   1.142   4.807  0.2786  0.0775  0.5110
 2012TIP3   OH2 6041   3.716   3.533   4.554 -0.1654  0.0523  0.3920
 2012TIP3    H1 6042   3.784   3.492   4.501  0.3081  3.4882 -2.0380
 2012TIP3    H2 6043   3.761   3.565   4.631  0.8333  1.3434 -0.6812
 2013TIP3   OH2 6044   0.657   2.677   2.985  0.2213 -0.3019  0.1341
 2013TIP3    H1 6045   0.566   2.668   3.012  0.2539 -2.5022 -0.3314
 2013TIP3    H2 6046   0.696   2.592   3.003  1.8558  0.1810 -0.8986
 2014TIP3   OH2 6047   5.092   2.486   2.050 -0.6994  0.3413 -0.4669
 2014TIP3    H1 6048   4.996   2.484   2.041 -0.7053  1.1933 -0.6577
 2014TIP3    H2 6049   5.107   2.508   2.141 -0.6842 -0.0392 -0.3778
 2015TIP3   OH2 6050   0.224   0.418   2.347 -0.0797 -0.1202 -0.0919
 2015TIP3    H1 6051   0.270   0.457   2.273 -0.2894 -2.2264 -1.4142
 2015TIP3    H2 6052   0.248   0.325   2.344 -1.2928 -0.5410  1.5874
 2016TIP3   OH2 6053   3.567   3.728   3.794  0.5010 -0.3237  0.1877
 2016TIP3    H1 6054   3.505   3.745   3.865  1.0038  0.3284  0.4830
 2016TIP3    H2 6055   3.648   3.704   3.838  0.8878  0.3293 -0.1546
 2017TIP3   OH2 6056   5.544   5.488   3.305  0.0319  0.2809  0.4735
 2017TIP3    H1 6057   5.452   5.511   3.288 -0.3541  0.0655  2.0561
 2017TIP3    H2 6058   5.545   5.393   3.305 -0.4761  0.1742  3.5678
 2018TIP3   OH2 6059   2.409   2.191   2.793  0.0209 -0.8347  0.5852
 2018TIP3    H1 6060   2.418   2.224   2.883 -2.3852 -0.3211  0.7046
 2018TIP3    H2 6061   2.315   2.181   2.781  0.0488  1.3645 -2.6681
 2019TIP3   OH2 6062   1.577   0.394   3.933  0.4108 -0.4020 -1.0513
 2019TIP3    H1 6063   1.591   0.399   3.838  2.5357  1.7930 -0.7259
 2019TIP3    H2 6064   1.641   0.455   3.970 -1.0844 -0.3620  1.7596
 2020TIP3   OH2 6065   3.687   0.981   4.340  0.2629  0.1650  0.0570
 2020TIP3    H1 6066   3.725   1.063   4.370 -0.8986  0.9616 -0.5758
 2020TIP3    H2 6067   3.696   0.983   4.245  0.2591 -0.4621  0.0385
 2021TIP3   OH2 6068   4.467   2.892   0.222 -0.2334 -0.1765 -0.0544
 2021TIP3    H1 6069   4.416   2.954   0.170 -0.9593 -0.5859  0.1461
 2021TIP3    H2 6070   4.510   2.836   0.157 -1.2928 -0.8093 -0.2295
 2022TIP3   OH2 6071   5.136   1.631   2.290  0.3964  0.3321  0.4968
 2022TIP3    H1 6072   5.164   1.653   2.201  1.4434 -1.5620  0.3039
 2022TIP3    H2 6073   5.065   1.568   2.279  0.4804  0.1447  0.9867
 2023TIP3   OH2 6074   0.184   4.770   0.947  0.5020 -0.1885 -0.0563
 2023TIP3    H1 6075   0.142   4.689   0.918  0.5641 -0.8669  1.6304
 2023TIP3    H2 6076   0.268   4.772   0.900  0.7158 -1.3650  0.2526
 2024TIP3   OH2 6077   4.591   3.130   4.036 -0.2059  0.5619  0.0325
 2024TIP3    H1 6078   4.627   3.200   3.982  1.2049  0.0336  0.2476
 2024TIP3    H2 6079   4.654   3.059   4.029 -1.9508 -1.0166 -0.7847
 2025TIP3   OH2 6080   4.922   2.040   3.053  0.1175  0.1688 -0.2442
 2025TIP3    H1 6081   5.011   2.014   3.031 -0.1201  0.0221 -1.0703
 2025TIP3    H2 6082   4.867   1.971   3.017 -0.3897  0.7558 -0.6135
 2026TIP3   OH2 6083   2.100   4.207   1.879 -0.5664 -0.0146  0.9485
 2026TIP3    H1 6084   2.132   4.188   1.791 -0.2167 -1.6147  1.3999
 2026TIP3    H2 6085   2.026   4.266   1.865 -0.1091  0.2826 -0.3684
 2027TIP3   OH2 6086   1.835   2.746   2.637  0.4328 -0.2282 -0.2091
 2027TIP3    H1 6087   1.909   2.706   2.593 -0.2672 -1.1117 -0.6178
 2027TIP3    H2 6088   1.848   2.841   2.626  2.1723 -0.3054  0.8685
 2028TIP3   OH2 6089   1.598   4.916   4.934  0.0712  0.1952  0.0091
 2028TIP3    H1 6090   1.640   5.000   4.957  2.4291 -0.9428  0.1745
 2028TIP3    H2 6091   1.578   4.875   5.018 -3.0080  1.3660 -0.0198
 2029TIP3   OH2 6092   0.218   4.240   2.107 -0.7808  0.1935  0.5834
 2029TIP3    H1 6093   0.133   4.234   2.150 -1.4434  2.3477 -0.2762
 2029TIP3    H2 6094   0.226   4.333   2.084  1.5258 -0.0790  0.0648
 2030TIP3   OH2 6095   3.451   3.737   1.441  0.4810 -0.0846 -1.0486
 2030TIP3    H1 6096   3.454   3.762   1.533  0.9186 -0.4809 -0.9525
 2030TIP3    H2 6097   3.364   3.765   1.411  0.7199  0.9938 -0.7930
 2031TIP3   OH2 6098   2.368   2.486   2.094 -1.1618  0.1460 -0.1836
 2031TIP3    H1 6099   2.438   2.548   2.115 -2.6572  1.1990  2.2158
 2031TIP3    H2 6100   2.296   2.541   2.062 -1.7975 -0.5851 -0.0476
 2032TIP3   OH2 6101   5.178   4.356   5.070  0.2945  0.3243  0.1149
 2032TIP3    H1 6102   5.250   4.386   5.125  1.3438 -0.5171 -0.7412
 2032TIP3    H2 6103   5.180   4.414   4.994  0.3911 -0.0120 -0.1421
 2033TIP3   OH2 6104   4.942   4.783   0.872  0.3330  0.1997  0.0446
 2033TIP3    H1 6105   4.881   4.727   0.919 -1.6866  0.4282 -2.1070
 2033TIP3    H2 6106   4.936   4.868   0.916  0.0253 -0.1067  0.5916
 2034TIP3   OH2 6107   1.907   4.300   3.611  0.0994 -0.2747  0.0450
 2034TIP3    H1 6108   1.843   4.321   3.543  0.7819  2.0053  0.0340
 2034TIP3    H2 6109   1.906   4.204   3.616 -1.8441 -0.3821 -1.3323
 2035TIP3   OH2 6110   5.177   2.771   1.182  0.1715 -0.4472  0.1826
 2035TIP3    H1 6111   5.256   2.765   1.235 -0.1324  0.9927  0.8465
 2035TIP3    H2 6112   5.128   2.691   1.202  0.8170 -0.6952  0.8060
 2036TIP3   OH2 6113   4.425   1.811   1.261  0.6949 -0.2592 -0.0999
 2036TIP3    H1 6114   4.383   1.864   1.329  0.8706 -0.0105 -0.1826
 2036TIP3    H2 6115   4.391   1.723   1.274 -0.0890  0.0010 -0.3526
 2037TIP3   OH2 6116   5.520   0.029   1.031 -0.5174  0.0728  0.1446
 2037TIP3    H1 6117   5.463   0.103   1.054 -0.8420  0.5762 -2.0522
 2037TIP3    H2 6118   5.533  -0.018   1.113 -1.4395  1.7880  1.3327
 2038TIP3   OH2 6119   4.344   5.855   4.808 -0.5134  0.3449 -0.9973
 2038TIP3    H1 6120   4.299   5.794   4.867 -2.7700  2.1405 -0.7190
 2038TIP3    H2 6121   4.344   5.938   4.855  1.7984  0.8163 -1.6977
 2039TIP3   OH2 6122   6.330   2.913   2.527  0.2338  0.1520 -0.0493
 2039TIP3    H1 6123   6.393   2.949   2.464 -0.0075  0.5234 -0.0845
 2039TIP3    H2 6124   6.296   2.835   2.485  2.8424 -1.8131  1.1874
 2040TIP3   OH2 6125   5.666   0.612   0.807  0.1520  0.6420  0.5232
 2040TIP3    H1 6126   5.761   0.611   0.819  0.1737 -0.8511  0.4157
 2040TIP3    H2 6127   5.633   0.652   0.887  0.8424  0.3483  0.9682
 2041TIP3   OH2 6128   3.162   0.665   1.893 -0.3702 -0.1103 -0.2419
 2041TIP3    H1 6129   3.187   0.680   1.802 -1.2718 -1.0117 -0.6623
 2041TIP3    H2 6130   3.088   0.604   1.888 -0.4046 -0.2167  1.0965
 2042TIP3   OH2 6131   1.376   0.267   0.015 -0.4617  0.7426 -0.1756
 2042TIP3    H1 6132   1.308   0.292   0.078  0.4027 -2.0252  2.0851
 2042TIP3    H2 6133   1.456   0.305   0.051  0.0199 -0.7423  0.4092
 2043TIP3   OH2 6134   1.051   0.891   4.922  0.0556 -0.0713  0.1455
 2043TIP3    H1 6135   0.984   0.822   4.920 -0.5585  0.5267 -0.3987
 2043TIP3    H2 6136   1.011   0.964   4.874  0.3477  0.9727  1.4465
 2044TIP3   OH2 6137   4.928   1.990   0.167  0.1537  0.2466  0.5508
 2044TIP3    H1 6138   4.945   2.064   0.110  2.4527 -0.2672  0.4788
 2044TIP3    H2 6139   4.959   1.914   0.118 -2.1640 -0.8205  0.6109
 2045TIP3   OH2 6140   1.678   5.884   1.098  0.1685 -0.5965 -0.3981
 2045TIP3    H1 6141   1.642   5.860   1.183  2.5914 -1.1096  0.5689
 2045TIP3    H2 6142   1.601   5.898   1.042 -1.4997 -0.1423  1.8682
 2046TIP3   OH2 6143   3.617   5.094   4.929 -0.2209 -0.4940  0.2545
 2046TIP3    H1 6144   3.654   5.136   5.006 -1.2464 -0.1039  0.5418
 2046TIP3    H2 6145   3.693   5.078   4.872  0.3460  0.5644  0.6910
 2047TIP3   OH2 6146   3.859   5.881   4.336  1.0071  0.2621 -0.0975
 2047TIP3    H1 6147   3.830   5.934   4.410  0.8499 -1.8877  1.4687
 2047TIP3    H2 6148   3.783   5.877   4.278  0.3669  0.0999  0.7356
 2048TIP3   OH2 6149   4.154   1.886   1.960  0.5277  0.1552  0.2678
 2048TIP3    H1 6150   4.130   1.973   1.926  2.4331  0.1823 -1.2367
 2048TIP3    H2 6151   4.110   1.825   1.901  1.3440  0.1624 -0.3670
 2049TIP3   OH2 6152   5.625   2.852   4.994 -0.3605 -0.1815 -0.1776
 2049TIP3    H1 6153   5.576   2.837   5.075 -0.4828 -1.3699 -0.4560
 2049TIP3    H2 6154   5.577   2.922   4.949 -0.3563  0.4110  0.7056
 2050TIP3   OH2 6155   2.056   5.936   5.124  0.1445  0.5173 -0.0241
 2050TIP3    H1 6156   2.092   5.879   5.056  0.5767 -0.0771  0.6951
 2050TIP3    H2 6157   2.127   5.995   5.146 -0.0334  0.7860 -0.1589
 2051TIP3   OH2 6158   5.030   5.011   4.905  0.0136  0.2760  0.3824
 2051TIP3    H1 6159   5.123   4.990   4.895  0.0188 -0.3769  1.6541
 2051TIP3    H2 6160   4.995   5.010   4.816  0.9691 -0.6939  0.0026
 2052TIP3   OH2 6161   2.844   5.193   0.206 -0.3502  0.2377 -0.5430
 2052TIP3    H1 6162   2.895   5.155   0.134 -0.9112  1.4744 -1.6211
 2052TIP3    H2 6163   2.909   5.214   0.273  0.7769  2.5617 -2.2212
 2053TIP3   OH2 6164   0.376   3.998   0.509  0.2962  0.0460 -0.4185
 2053TIP3    H1 6165   0.295   3.954   0.537 -0.0902 -0.1877 -1.8026
 2053TIP3    H2 6166   0.365   4.089   0.538  0.0925 -0.2554  0.4757
 2054TIP3   OH2 6167   4.241   5.626   3.270 -0.9317  0.0929 -0.0673
 2054TIP3    H1 6168   4.304   5.565   3.308 -0.4626  0.9266  0.5264
 2054TIP3    H2 6169   4.176   5.639   3.339 -0.9432  0.3896 -0.1343
 2055TIP3   OH2 6170   2.533   1.980   2.909 -0.0260 -0.4146 -0.2535
 2055TIP3    H1 6171   2.524   2.050   2.844 -2.8865  0.0673  0.5201
 2055TIP3    H2 6172   2.464   1.917   2.886 -0.9864 -0.3160  2.1433
 2056TIP3   OH2 6173   4.657   5.783   4.711  0.6259  0.1579 -0.0286
 2056TIP3    H1 6174   4.651   5.874   4.741 -0.8117  0.8371 -2.1398
 2056TIP3    H2 6175   4.740   5.780   4.662 -0.4164  1.0663 -1.9728
 2057TIP3   OH2 6176   4.783   0.036   3.551  0.5812 -0.2680  0.7021
 2057TIP3    H1 6177   4.859   0.036   3.492 -0.7983 -1.6255 -1.2212
 2057TIP3    H2 6178   4.735   0.116   3.529 -0.2483 -1.0683 -0.5500
 2058TIP3   OH2 6179   3.622   3.331   2.228  0.5872 -0.0718 -0.1886
 2058TIP3    H1 6180   3.621   3.410   2.174  2.0786  0.0084 -0.1341
 2058TIP3    H2 6181   3.608   3.259   2.167  1.0346  0.1041 -0.4958
 2059TIP3   OH2 6182   2.918   4.243   0.041 -0.7770 -0.1033 -0.2916
 2059TIP3    H1 6183   3.009   4.234   0.070 -0.7500  1.6596  0.2644
 2059TIP3    H2 6184   2.889   4.153   0.027  0.8804 -0.7310  0.0388
 2060TIP3   OH2 6185   5.410   4.443   2.395  0.3599 -0.2676 -0.6172
 2060TIP3    H1 6186   5.498   4.414   2.371  0.0960 -0.2026 -1.7099
 2060TIP3    H2 6187   5.368   4.365   2.431  0.7218 -0.3943 -0.4577
 2061TIP3   OH2 6188   4.395   2.139   2.886 -0.3278  0.3299  0.1378
 2061TIP3    H1 6189   4.443   2.095   2.956  1.6658  1.2750 -0.5354
 2061TIP3    H2 6190   4.397   2.231   2.910  1.2922  0.8029 -1.5949
 2062TIP3   OH2 6191   6.192   0.996   2.012  0.1255 -0.0852 -0.2927
 2062TIP3    H1 6192   6.097   0.985   2.017 -0.0208  0.8484 -0.7648
 2062TIP3    H2 6193   6.218   1.017   2.102 -0.1122 -0.3257 -0.1647
 2063TIP3   OH2 6194   5.663   0.993   2.397  0.3669 -0.0320 -0.8380
 2063TIP3    H1 6195   5.636   1.003   2.489 -1.7903 -1.5502 -1.2354
 2063TIP3    H2 6196   5.683   1.082   2.368 -0.2185  0.6430  0.7296
 2064TIP3   OH2 6197   4.645   4.772   4.263 -0.1097 -0.0513 -0.2433
 2064TIP3    H1 6198   4.732   4.735   4.276 -0.9963 -2.1258  0.1093
 2064TIP3    H2 6199   4.661   4.852   4.213  2.1309  0.4897  1.1659
 2065TIP3   OH2 6200   2.935   1.100   3.580 -0.2654 -0.2901  0.4309
 2065TIP3    H1 6201   2.897   1.017   3.554 -0.7851 -0.5784  1.9853
 2065TIP3    H2 6202   2.985   1.130   3.503 -1.0242 -1.4483 -0.5386
 2066TIP3   OH2 6203   1.485   1.057   3.936 -0.3143  0.0585 -0.3181
 2066TIP3    H1 6204   1.527   0.971   3.947 -1.4399 -0.2408  2.4322
 2066TIP3    H2 6205   1.530   1.114   3.998 -1.9467  0.4629  0.5631
 2067TIP3   OH2 6206   1.173   0.307   3.294  0.5660  0.0288 -0.1804
 2067TIP3    H1 6207   1.170   0.355   3.377  1.3078  0.2263 -0.2672
 2067TIP3    H2 6208   1.081   0.290   3.273  0.3881 -0.8074  1.1382
 2068TIP3   OH2 6209   1.711   0.255   4.260  0.3608 -0.2398 -0.5168
 2068TIP3    H1 6210   1.788   0.230   4.310  0.5424 -0.1988 -0.7734
 2068TIP3    H2 6211   1.641   0.265   4.325  0.8155  0.7109 -0.1555
 2069TIP3   OH2 6212   1.137   4.047   0.630  0.1573  0.0650 -0.1788
 2069TIP3    H1 6213   1.194   4.009   0.696  1.8165  2.0838 -0.3279
 2069TIP3    H2 6214   1.135   3.983   0.559  0.1057 -1.1690  0.9128
 2070TIP3   OH2 6215   2.458   1.333   4.133 -0.3507 -0.2717 -0.4337
 2070TIP3    H1 6216   2.489   1.422   4.123 -0.2296 -0.3947 -1.3035
 2070TIP3    H2 6217   2.536   1.278   4.122 -0.7127 -0.5491 -1.9592
 2071TIP3   OH2 6218   1.657   5.614   3.775 -0.1753  0.1896  0.0626
 2071TIP3    H1 6219   1.705   5.564   3.709 -1.2344 -0.1914 -0.4413
 2071TIP3    H2 6220   1.725   5.658   3.826  0.7067 -0.4910 -0.5025
 2072TIP3   OH2 6221   3.958   4.550   4.013 -0.0354  0.8762 -0.5334
 2072TIP3    H1 6222   3.892   4.619   4.004 -0.0668  0.7285 -1.5319
 2072TIP3    H2 6223   3.919   4.474   3.970  0.1527  0.3266  0.2336
 2073TIP3   OH2 6224   3.680   5.359   1.433  0.1016  0.2416 -0.0119
 2073TIP3    H1 6225   3.673   5.269   1.401  1.5573 -0.3252  1.1455
 2073TIP3    H2 6226   3.712   5.408   1.357 -0.5037 -0.2493 -0.5988
 2074TIP3   OH2 6227   6.015   1.116   0.110  0.9071 -0.1283  0.2283
 2074TIP3    H1 6228   5.986   1.033   0.070  1.1466  0.0286 -0.2774
 2074TIP3    H2 6229   6.048   1.167   0.037 -0.9636  1.1747  0.2289
 2075TIP3   OH2 6230   2.787   3.418   2.673  0.1612  0.4845  0.0070
 2075TIP3    H1 6231   2.849   3.483   2.707  0.4155 -0.2333  0.9458
 2075TIP3    H2 6232   2.752   3.375   2.751  0.1950 -0.6920 -0.6038
 2076TIP3   OH2 6233   2.388   0.548   4.014 -0.3515  0.0376  0.4823
 2076TIP3    H1 6234   2.343   0.622   4.055 -0.8780 -0.0674  0.1129
 2076TIP3    H2 6235   2.324   0.512   3.952  0.2263 -0.1485 -0.0227
 2077TIP3   OH2 6236   4.060   0.529   5.144  0.3343 -0.1491 -0.3525
 2077TIP3    H1 6237   3.977   0.551   5.186  1.8546  2.6437  1.4862
 2077TIP3    H2 6238   4.126   0.543   5.213  2.4319 -1.2364 -2.0385
 2078TIP3   OH2 6239   0.195   1.782   1.177 -0.6165 -0.6582 -0.1792
 2078TIP3    H1 6240   0.172   1.854   1.236  2.0357  1.1142 -1.0945
 2078TIP3    H2 6241   0.119   1.773   1.119 -1.2059  1.1565  0.2323
 2079TIP3   OH2 6242   0.356   3.275   3.532  0.3720 -0.3936 -0.4886
 2079TIP3    H1 6243   0.327   3.345   3.474 -1.1039  0.0440  0.6997
 2079TIP3    H2 6244   0.349   3.195   3.480  1.1914  0.2051 -1.5714
 2080TIP3   OH2 6245   0.759   4.770   5.185  0.3068  0.0915  0.5473
 2080TIP3    H1 6246   0.824   4.699   5.187  0.2836  0.0294 -0.4439
 2080TIP3    H2 6247   0.697   4.744   5.116 -0.4289  0.4494  1.0687
 2081TIP3   OH2 6248   1.713   5.014   0.449 -0.3492 -0.6055  0.1775
 2081TIP3    H1 6249   1.644   5.044   0.391  0.2281  1.2277  0.3851
 2081TIP3    H2 6250   1.674   5.014   0.536 -0.3556 -0.4538  0.1748
 2082TIP3   OH2 6251   5.161   2.035   2.781 -0.2536 -0.1960 -0.1321
 2082TIP3    H1 6252   5.087   2.095   2.770  0.2522  0.5776  0.5307
 2082TIP3    H2 6253   5.206   2.038   2.696 -1.4822 -1.4035 -0.8555
 2083TIP3   OH2 6254   2.241   5.845   0.172  0.1930  0.1567  0.1764
 2083TIP3    H1 6255   2.233   5.764   0.222  2.1644  0.3812  0.9284
 2083TIP3    H2 6256   2.254   5.816   0.082  2.2717 -0.4514  0.6293
 2084TIP3   OH2 6257   3.232   4.638   0.999 -0.2373  0.0516 -0.3822
 2084TIP3    H1 6258   3.181   4.696   1.055 -0.1303  0.1903 -0.4285
 2084TIP3    H2 6259   3.169   4.605   0.934 -0.1538  0.6401 -0.7671
 2085TIP3   OH2 6260   2.142   3.696   2.663  0.2643 -0.7014 -0.0685
 2085TIP3    H1 6261   2.236   3.679   2.667  0.1958 -1.2573 -0.6176
 2085TIP3    H2 6262   2.131   3.758   2.591  0.2367 -0.4106  0.1836
 2086TIP3   OH2 6263   3.940   4.987   4.170  0.6028  0.2573  0.5006
 2086TIP3    H1 6264   3.896   4.905   4.147  0.5356  0.5334 -0.4093
 2086TIP3    H2 6265   3.952   4.982   4.265 -0.7018 -0.1575  0.6666
 2087TIP3   OH2 6266   2.100   3.434   2.653  0.0608  0.0135  1.0259
 2087TIP3    H1 6267   2.126   3.415   2.563 -1.8401 -0.0152  0.4294
 2087TIP3    H2 6268   2.061   3.522   2.648  0.0183  0.0433  1.8353
 2088TIP3   OH2 6269   2.179   5.336   2.977 -0.1444 -0.4603 -0.3433
 2088TIP3    H1 6270   2.176   5.411   3.036 -0.2712 -1.0199  0.3778
 2088TIP3    H2 6271   2.174   5.374   2.890 -0.3640  0.3580  0.0156
 2089TIP3   OH2 6272   1.567   1.293   4.040 -0.1094 -0.4854  0.1191
 2089TIP3    H1 6273   1.566   1.290   3.944  0.3385 -1.2796  0.1311
 2089TIP3    H2 6274   1.547   1.384   4.061  1.3475  0.0794 -0.7573
 2090TIP3   OH2 6275   4.281   0.159   0.852  0.4539 -0.5356 -0.4111
 2090TIP3    H1 6276   4.253   0.209   0.928 -0.1056 -2.4632  0.7385
 2090TIP3    H2 6277   4.340   0.092   0.888  0.1411 -1.5097 -1.6449
 2091TIP3   OH2 6278   3.683   5.129   3.008 -0.5974 -0.3057  0.4066
 2091TIP3    H1 6279   3.636   5.176   3.077 -1.9660 -1.8952  0.6339
 2091TIP3    H2 6280   3.770   5.115   3.043 -0.7404  0.4052  1.0858
 2092TIP3   OH2 6281   3.803   4.094   2.142  0.1059  0.1216  0.9546
 2092TIP3    H1 6282   3.843   4.181   2.136 -0.9941  0.5317 -1.3370
 2092TIP3    H2 6283   3.709   4.111   2.150 -0.0160 -0.8784  1.9361
 2093TIP3   OH2 6284   3.077   1.108   3.306  0.2496  0.0779  0.1421
 2093TIP3    H1 6285   3.160   1.062   3.310  0.3978  0.0758 -1.9203
 2093TIP3    H2 6286   3.091   1.178   3.242 -1.0734  0.6261  0.4101
 2094TIP3   OH2 6287   5.814   3.534   1.294 -0.3114 -0.5334 -0.5653
 2094TIP3    H1 6288   5.822   3.588   1.372  0.0585 -0.1597 -0.8580
 2094TIP3    H2 6289   5.728   3.554   1.258  0.0214  0.2363 -0.9473
 2095TIP3   OH2 6290   1.040   5.436   2.777 -0.0954  0.4764 -0.1826
 2095TIP3    H1 6291   1.094   5.392   2.842 -0.1191  0.2742 -0.2978
 2095TIP3    H2 6292   1.061   5.392   2.694 -1.3230 -0.4352 -0.0421
 2096TIP3   OH2 6293   2.011   3.096   0.074  0.0873 -0.7353 -0.1684
 2096TIP3    H1 6294   1.919   3.071   0.065  0.0247 -0.9649  0.9564
 2096TIP3    H2 6295   2.058   3.013   0.064  0.4007 -0.3148 -3.1935
 2097TIP3   OH2 6296   4.719   2.222   3.040  0.4551  0.2998  0.1674
 2097TIP3    H1 6297   4.806   2.185   3.056  1.5731  1.7838 -1.9851
 2097TIP3    H2 6298   4.658   2.151   3.060  2.3152 -1.7774 -1.1183
 2098TIP3   OH2 6299   1.152   0.277   4.796  0.0482  0.1316 -0.4279
 2098TIP3    H1 6300   1.092   0.224   4.743 -1.0189  0.0501  0.8003
 2098TIP3    H2 6301   1.119   0.366   4.787  1.6934  0.6108 -2.2955
 2099TIP3   OH2 6302   2.984   0.271   0.123 -0.4483 -0.3414  0.2771
 2099TIP3    H1 6303   3.063   0.316   0.092 -1.6687  0.8277 -1.3093
 2099TIP3    H2 6304   2.919   0.341   0.132 -1.4052 -1.3247  1.2580
 2100TIP3   OH2 6305   3.359   5.359   1.487 -0.3613  0.4461 -0.5083
 2100TIP3    H1 6306   3.314   5.383   1.406 -0.6653  0.1411 -0.4303
 2100TIP3    H2 6307   3.347   5.434   1.545  0.8024  1.1358 -1.1242
 2101TIP3   OH2 6308   5.548   2.347   2.910  0.8639 -0.2665 -0.0808
 2101TIP3    H1 6309   5.483   2.386   2.969 -0.1876 -0.5408 -1.0263
 2101TIP3    H2 6310   5.550   2.405   2.834  1.8874 -0.1511  0.0260
 2102TIP3   OH2 6311   0.359   1.778   0.680  0.1359  0.2602 -0.3313
 2102TIP3    H1 6312   0.406   1.852   0.719 -0.7705  1.8680 -2.1093
 2102TIP3    H2 6313   0.277   1.815   0.649 -0.1370 -1.3845 -1.7528
 2103TIP3   OH2 6314   1.475   2.902   1.608 -0.3457 -0.1533  0.2595
 2103TIP3    H1 6315   1.496   2.816   1.643 -0.6887 -0.4038 -0.1379
 2103TIP3    H2 6316   1.550   2.956   1.631 -1.1188  0.0530  2.5819
 2104TIP3   OH2 6317   1.103   0.849   2.246 -0.4665  0.1598 -0.8802
 2104TIP3    H1 6318   1.107   0.941   2.272 -0.3022  0.1464 -0.8618
 2104TIP3    H2 6319   1.030   0.813   2.297 -0.4526  0.2490 -0.7972
 2105TIP3   OH2 6320   4.837   5.563   0.128  0.5249 -0.1384 -0.0083
 2105TIP3    H1 6321   4.848   5.614   0.209  2.6799  0.4924 -0.6215
 2105TIP3    H2 6322   4.755   5.596   0.091  1.3874  2.3550  0.0602
 2106TIP3   OH2 6323   3.061   3.463   0.732  0.2367 -0.1255  0.0594
 2106TIP3    H1 6324   3.109   3.407   0.670 -0.6293 -2.0272  1.0164
 2106TIP3    H2 6325   3.098   3.441   0.818 -0.9591 -0.1250  0.5901
 2107TIP3   OH2 6326   5.885   0.722   4.733 -0.0439 -0.2380 -0.0930
 2107TIP3    H1 6327   5.807   0.671   4.755  0.3677 -0.8666 -0.0662
 2107TIP3    H2 6328   5.875   0.742   4.640  0.1743 -1.0667 -0.3036
 2108TIP3   OH2 6329   0.348   3.976   1.319 -0.2906  0.4674 -0.0658
 2108TIP3    H1 6330   0.321   3.985   1.411 -1.6407  0.2960 -0.4242
 2108TIP3    H2 6331   0.340   4.064   1.283  2.3833  1.0258  0.4857
 2109TIP3   OH2 6332   5.693   0.524   2.564  0.0070  0.6319  0.1703
 2109TIP3    H1 6333   5.782   0.502   2.539 -0.5518 -0.6120 -0.8085
 2109TIP3    H2 6334   5.667   0.453   2.623  0.3210  2.0420  2.1244
 2110TIP3   OH2 6335   4.708   5.185   2.191  0.3264  0.4051 -0.5741
 2110TIP3    H1 6336   4.725   5.120   2.259  0.3820 -0.9020 -1.7858
 2110TIP3    H2 6337   4.634   5.236   2.225  0.3057 -0.2595  0.4256
 2111TIP3   OH2 6338   1.922   5.161   1.036  0.0343 -0.2392 -0.0382
 2111TIP3    H1 6339   1.868   5.085   1.059  0.7551 -1.5798 -2.4392
 2111TIP3    H2 6340   1.914   5.168   0.941  4.1455 -0.6258 -0.5866
 2112TIP3   OH2 6341   6.310   0.329   3.618 -0.3497 -0.0099 -0.2597
 2112TIP3    H1 6342   6.310   0.237   3.642 -0.1418  0.2240  0.6622
 2112TIP3    H2 6343   6.321   0.329   3.523  0.3185 -0.9182 -0.1927
 2113TIP3   OH2 6344   1.501   5.536   0.805 -0.3402 -0.5649 -0.0936
 2113TIP3    H1 6345   1.485   5.481   0.881 -0.8526 -1.1757 -0.6327
 2113TIP3    H2 6346   1.555   5.482   0.747  1.8409  0.6326  0.7013
 2114TIP3   OH2 6347   1.488   1.430   4.608  0.0405 -0.3712  0.0035
 2114TIP3    H1 6348   1.479   1.419   4.513  0.2943 -0.3424 -0.0227
 2114TIP3    H2 6349   1.453   1.518   4.625  0.3409 -0.2278 -0.1134
 2115TIP3   OH2 6350   1.769   5.866   0.102  0.5523 -0.3504 -0.4283
 2115TIP3    H1 6351   1.712   5.815   0.043  0.4250 -1.6524  0.7547
 2115TIP3    H2 6352   1.711   5.932   0.140  0.0843 -0.9449 -0.0861
 2116TIP3   OH2 6353   5.779   0.306   2.005 -0.2850 -0.0043  0.2656
 2116TIP3    H1 6354   5.707   0.260   1.962 -0.0912 -0.3919  0.3490
 2116TIP3    H2 6355   5.770   0.285   2.098 -1.0000  1.2437  0.4969
 2117TIP3   OH2 6356   2.015   0.472   2.418  0.1634  0.0589  0.2888
 2117TIP3    H1 6357   2.064   0.405   2.466 -1.3699 -0.5140  1.1010
 2117TIP3    H2 6358   1.982   0.427   2.340 -0.4634 -0.0027  0.5882
 2118TIP3   OH2 6359   0.033   2.827   5.025  0.1027  0.0283  0.3879
 2118TIP3    H1 6360   0.092   2.848   4.953  0.3773  0.7959  0.8242
 2118TIP3    H2 6361   0.051   2.735   5.045  1.1586  0.2486  0.5089
 2119TIP3   OH2 6362   5.738   2.860   0.005  0.8317 -0.0992  0.0744
 2119TIP3    H1 6363   5.717   2.858   0.099 -1.9140 -0.6506 -0.4547
 2119TIP3    H2 6364   5.709   2.947  -0.024  1.5703  0.0293 -0.3070
 2120TIP3   OH2 6365   6.296   1.529   4.116 -0.1976 -0.3050 -0.2891
 2120TIP3    H1 6366   6.251   1.579   4.048  0.7522 -0.5113 -1.0941
 2120TIP3    H2 6367   6.285   1.437   4.090 -0.9667 -0.4869  0.5766
 2121TIP3   OH2 6368   4.954   2.420   2.455 -0.3033 -0.1673 -0.4208
 2121TIP3    H1 6369   4.886   2.408   2.389 -0.9401  0.0827  0.1750
 2121TIP3    H2 6370   4.930   2.358   2.525  0.0176 -0.0020 -0.1636
 2122TIP3   OH2 6371   5.068   4.443   4.315 -0.3753  0.1758 -0.0067
 2122TIP3    H1 6372   5.145   4.399   4.278 -0.8474 -1.0810  0.4493
 2122TIP3    H2 6373   5.000   4.375   4.315 -1.5809  1.3540 -0.6884
 2123TIP3   OH2 6374   1.951   4.628   0.035 -0.4755 -0.0674 -0.7176
 2123TIP3    H1 6375   2.032   4.678   0.024  0.0188 -0.5690  0.4358
 2123TIP3    H2 6376   1.973   4.540   0.005  0.6102 -1.2029  2.8149
 2124TIP3   OH2 6377   3.472   2.226   5.133  0.1979  0.5457 -0.1588
 2124TIP3    H1 6378   3.396   2.270   5.170 -1.2186 -1.3842 -0.5908
 2124TIP3    H2 6379   3.524   2.200   5.208  0.7507  2.3312  0.1214
 2125TIP3   OH2 6380   5.952   1.972   3.833  0.0095 -0.0473 -0.1669
 2125TIP3    H1 6381   5.948   1.895   3.890  1.5091  0.9151  1.3186
 2125TIP3    H2 6382   5.861   1.987   3.807 -0.7359 -0.5629  1.9413
 2126TIP3   OH2 6383   5.226   0.855   2.133 -0.4817 -0.6739  0.5665
 2126TIP3    H1 6384   5.203   0.936   2.087  1.3185 -0.4548 -0.0595
 2126TIP3    H2 6385   5.155   0.841   2.195 -1.8870  0.2245 -0.7745
 2127TIP3   OH2 6386   0.045   4.866   3.045 -0.1882 -0.2392  0.4608
 2127TIP3    H1 6387   0.041   4.864   2.950  0.1486 -1.6904  0.4652
 2127TIP3    H2 6388  -0.020   4.933   3.070 -1.2468 -0.7887 -0.7307
 2128TIP3   OH2 6389   1.127   3.143   3.954 -0.1940  0.2841 -0.5708
 2128TIP3    H1 6390   1.161   3.186   3.875  3.0415 -0.0373  0.5053
 2128TIP3    H2 6391   1.138   3.050   3.936 -1.5763  0.0944 -0.5527
 2129TIP3   OH2 6392   1.259   4.638   3.451  0.2742  0.1968  0.1363
 2129TIP3    H1 6393   1.207   4.628   3.371 -2.3177 -0.6142  1.8090
 2129TIP3    H2 6394   1.273   4.548   3.482 -1.2648  0.5338  2.0203
 2130TIP3   OH2 6395   3.069   2.095   4.760  0.0240  0.0289 -0.5587
 2130TIP3    H1 6396   2.987   2.144   4.756 -0.5896 -0.9841 -0.7128
 2130TIP3    H2 6397   3.122   2.142   4.825 -0.3944  1.0916 -0.9566
 2131TIP3   OH2 6398   3.139   5.001   1.735  0.3227 -0.0337  0.0862
 2131TIP3    H1 6399   3.189   4.987   1.815  1.3911 -3.0632 -0.9631
 2131TIP3    H2 6400   3.202   5.035   1.672 -0.0872  0.5946  0.0027
 2132TIP3   OH2 6401   3.003   4.810   5.195 -0.6819  0.9108 -0.2445
 2132TIP3    H1 6402   2.925   4.841   5.148 -0.1891  0.7131 -1.2048
 2132TIP3    H2 6403   3.077   4.838   5.141 -0.1491 -0.3431 -0.2145
 2133TIP3   OH2 6404   0.068   2.591   1.099  0.3663 -0.2462  0.4212
 2133TIP3    H1 6405   0.157   2.580   1.064  0.2416  1.6323 -0.6598
 2133TIP3    H2 6406   0.058   2.520   1.162  2.6137 -0.5476  0.5329
 2134TIP3   OH2 6407   1.619   2.693   0.587 -0.1960 -0.6945  0.2185
 2134TIP3    H1 6408   1.655   2.671   0.673 -0.7255  0.5793  0.7874
 2134TIP3    H2 6409   1.527   2.715   0.604 -0.0580  0.5319 -0.5064
 2135TIP3   OH2 6410   4.926   2.684   3.012  0.1651 -0.1501  0.6590
 2135TIP3    H1 6411   4.908   2.776   3.029  3.0387  1.2772 -2.7870
 2135TIP3    H2 6412   4.967   2.652   3.093 -1.0415  1.4971  1.9822
 2136TIP3   OH2 6413   0.031   4.944   2.510 -0.5790  0.1854  0.5835
 2136TIP3    H1 6414   0.117   4.970   2.478 -0.6681  0.5908  0.6689
 2136TIP3    H2 6415  -0.030   4.969   2.441 -0.6850  0.3636  0.7406
 2137TIP3   OH2 6416   5.374   3.402   2.832 -0.5182  0.2212  0.1617
 2137TIP3    H1 6417   5.315   3.391   2.758 -0.9253 -0.4263  0.5661
 2137TIP3    H2 6418   5.444   3.459   2.800 -1.8333  1.7852 -0.0380
 2138TIP3   OH2 6419   6.062   1.586   4.397 -0.5376  0.1886 -0.3892
 2138TIP3    H1 6420   6.114   1.664   4.380  0.0577  0.0022  0.5299
 2138TIP3    H2 6421   6.049   1.546   4.311  1.3793 -0.0996 -0.5794
 2139TIP3   OH2 6422   4.521   5.251   3.708  0.3142 -0.3056 -0.2401
 2139TIP3    H1 6423   4.548   5.333   3.750 -0.6474 -0.1191  0.0467
 2139TIP3    H2 6424   4.602   5.213   3.675  0.7676  0.8071 -0.4542
 2140TIP3   OH2 6425   4.545   2.678   4.982 -0.1769  0.1805  0.1554
 2140TIP3    H1 6426   4.639   2.680   4.999 -0.4283 -1.9131  2.3721
 2140TIP3    H2 6427   4.531   2.593   4.940 -1.1833 -0.0522  0.9251
 2141TIP3   OH2 6428   5.629   4.723   0.722  0.1298 -0.2590 -0.0460
 2141TIP3    H1 6429   5.658   4.632   0.720  1.0627  0.0049  0.7880
 2141TIP3    H2 6430   5.709   4.774   0.717 -0.2800  0.4986  0.7766
 2142TIP3   OH2 6431   3.188   4.914   4.991 -0.0698 -0.1594  0.0408
 2142TIP3    H1 6432   3.145   4.880   4.912 -0.5426  2.8189 -1.1163
 2142TIP3    H2 6433   3.280   4.888   4.981 -0.1078  0.1947 -1.5433
 2143TIP3   OH2 6434   5.262   0.235   0.010  0.4256  0.4550 -0.3131
 2143TIP3    H1 6435   5.216   0.152  -0.005  1.4860 -0.2140  0.0386
 2143TIP3    H2 6436   5.192   0.297   0.033 -0.3696 -0.3633 -0.4536
 2144TIP3   OH2 6437   2.922   4.441   0.581  0.1178  0.1835 -0.5153
 2144TIP3    H1 6438   2.899   4.378   0.649 -0.2411  0.1798 -0.6392
 2144TIP3    H2 6439   2.921   4.390   0.500  0.2752  0.2474 -0.5567
 2145TIP3   OH2 6440   5.591   5.524   2.866  0.2004 -0.1657  0.6496
 2145TIP3    H1 6441   5.582   5.580   2.790  1.5613  1.1948  1.4248
 2145TIP3    H2 6442   5.643   5.449   2.836  0.2343  0.0772  0.1088
 2146TIP3   OH2 6443   0.361   3.043   3.371 -0.2774 -0.2442 -0.1313
 2146TIP3    H1 6444   0.435   2.984   3.387 -0.8042 -0.8762 -0.0076
 2146TIP3    H2 6445   0.288   3.004   3.419 -0.6216  0.5378 -0.0129
 2147TIP3   OH2 6446   4.137   2.171   2.702  0.1627 -0.5556  0.2691
 2147TIP3    H1 6447   4.172   2.200   2.618 -1.3906  2.0687  0.4081
 2147TIP3    H2 6448   4.050   2.137   2.681 -0.6199  0.9937  0.8781
 2148TIP3   OH2 6449   3.614   2.348   4.681 -0.1564  0.2792  0.0809
 2148TIP3    H1 6450   3.520   2.344   4.700 -0.1040 -0.2002  0.2748
 2148TIP3    H2 6451   3.642   2.256   4.686  0.5901  0.5650  1.3973
 2149TIP3   OH2 6452   1.474   5.453   3.941  0.0929  0.3784 -0.8219
 2149TIP3    H1 6453   1.526   5.374   3.954 -2.3908 -1.3443 -0.6703
 2149TIP3    H2 6454   1.531   5.512   3.892  2.2497 -1.2441 -0.3899
 2150TIP3   OH2 6455   4.147   2.168   3.329  0.1248  0.3246  0.2461
 2150TIP3    H1 6456   4.124   2.249   3.284 -0.0338 -0.1805 -0.6040
 2150TIP3    H2 6457   4.085   2.162   3.402  0.2566  1.0482  0.4320
 2151TIP3   OH2 6458   2.702   1.191   0.973  0.3760  0.3100  0.4522
 2151TIP3    H1 6459   2.678   1.117   0.917 -0.5576  0.7467  0.2654
 2151TIP3    H2 6460   2.656   1.173   1.056  1.2505 -0.0131  0.8812
 2152TIP3   OH2 6461   2.087   2.268   4.979 -0.3850 -0.0276 -0.2932
 2152TIP3    H1 6462   2.063   2.204   5.046 -0.2554  0.8864  0.6543
 2152TIP3    H2 6463   2.059   2.352   5.015  0.6423  0.6002 -0.9104
 2153TIP3   OH2 6464   6.101   4.647   2.766 -0.1503 -0.4470 -0.4700
 2153TIP3    H1 6465   6.135   4.601   2.690 -0.3853 -1.2754 -0.0834
 2153TIP3    H2 6466   6.091   4.738   2.737  2.6980 -0.0708 -0.5010
 2154TIP3   OH2 6467   4.271   4.628   3.724 -0.3408 -0.0433 -0.3054
 2154TIP3    H1 6468   4.355   4.635   3.679 -1.0233  2.8652 -1.3466
 2154TIP3    H2 6469   4.295   4.605   3.814  1.4095 -0.8184 -0.9050
 2155TIP3   OH2 6470   2.710   4.339   0.980  0.9500  0.2658 -0.2226
 2155TIP3    H1 6471   2.700   4.433   0.964 -0.1160  0.5407  1.6762
 2155TIP3    H2 6472   2.649   4.321   1.052  1.4961 -1.7848 -0.2218
 2156TIP3   OH2 6473   5.816   1.973   0.525 -0.1600 -0.4615 -0.0380
 2156TIP3    H1 6474   5.751   1.985   0.456  0.0238 -2.5235 -0.6350
 2156TIP3    H2 6475   5.801   1.884   0.557  1.5675 -0.5417  0.6594
 2157TIP3   OH2 6476   5.367   4.831   0.780  0.2650  1.0191  0.2511
 2157TIP3    H1 6477   5.314   4.791   0.848 -1.0912  0.8778 -0.8477
 2157TIP3    H2 6478   5.444   4.775   0.773 -1.2449 -1.0643 -0.7438
 2158TIP3   OH2 6479   5.883   3.415   3.341 -0.0136  0.3621 -0.5101
 2158TIP3    H1 6480   5.891   3.488   3.402  3.2512 -0.3367  0.0725
 2158TIP3    H2 6481   5.904   3.454   3.256  0.7370  0.3078 -0.3532
 2159TIP3   OH2 6482   5.030   1.119   4.789  0.4958 -0.0149 -0.3582
 2159TIP3    H1 6483   4.945   1.082   4.768  0.7786 -1.0257  0.2149
 2159TIP3    H2 6484   5.078   1.048   4.831  1.0136  1.0446  0.9186
 2160TIP3   OH2 6485   3.503   4.913   3.197  0.8676  0.0228 -0.5165
 2160TIP3    H1 6486   3.542   4.914   3.109 -0.8313 -1.2860 -1.3358
 2160TIP3    H2 6487   3.569   4.871   3.252  2.6728  2.3508 -0.7350
 2161TIP3   OH2 6488   3.193   2.574   2.430  0.0652 -0.0484 -0.7084
 2161TIP3    H1 6489   3.250   2.577   2.353 -0.5932  0.8895 -1.1894
 2161TIP3    H2 6490   3.249   2.544   2.501  1.2722  1.2014 -1.0907
 2162TIP3   OH2 6491   3.432   3.252   0.644  0.2774  0.0611  0.0062
 2162TIP3    H1 6492   3.386   3.199   0.709 -1.3601  0.6050 -0.6633
 2162TIP3    H2 6493   3.503   3.195   0.613 -0.2583 -1.0134  0.6899
 2163TIP3   OH2 6494   1.835   0.898   3.877 -0.0722 -0.0554  0.3561
 2163TIP3    H1 6495   1.832   0.813   3.832  0.2079 -0.0063  0.2374
 2163TIP3    H2 6496   1.772   0.890   3.949 -0.6531 -0.0792 -0.1463
 2164TIP3   OH2 6497   2.654   3.833   3.021  0.1610 -0.3893 -0.3622
 2164TIP3    H1 6498   2.701   3.775   3.080  0.1983  0.8646  0.9107
 2164TIP3    H2 6499   2.581   3.866   3.074  1.3248  2.3076 -0.2946
 2165TIP3   OH2 6500   1.132   5.717   3.398  0.1156 -0.0849 -0.1539
 2165TIP3    H1 6501   1.214   5.766   3.387  0.4326 -0.7568 -0.8474
 2165TIP3    H2 6502   1.079   5.741   3.322  0.6499 -1.5316 -1.0066
 2166TIP3   OH2 6503   4.710   4.744   0.684 -0.4760  0.2714  0.1425
 2166TIP3    H1 6504   4.691   4.838   0.683  1.6076  0.7439  0.3338
 2166TIP3    H2 6505   4.795   4.737   0.726 -1.4043 -1.9181  1.8674
 2167TIP3   OH2 6506   0.908   4.740   4.241  0.2303 -0.4457  0.8543
 2167TIP3    H1 6507   0.999   4.751   4.267  0.0915  1.0394  0.8050
 2167TIP3    H2 6508   0.885   4.823   4.199 -1.8151  0.1296  2.9112
 2168TIP3   OH2 6509   3.305   0.383   0.819 -0.4026  0.0075 -0.1747
 2168TIP3    H1 6510   3.399   0.380   0.839 -0.3153  0.4266 -0.5095
 2168TIP3    H2 6511   3.273   0.297   0.844  0.6635 -1.3122 -2.9336
 2169TIP3   OH2 6512   5.644   0.742   0.217 -0.1330 -0.1122  0.0839
 2169TIP3    H1 6513   5.693   0.710   0.293 -1.4135 -0.1885  0.9061
 2169TIP3    H2 6514   5.655   0.675   0.150 -0.1948 -0.7509  0.7072
 2170TIP3   OH2 6515   4.378   4.404   4.309  0.3543  0.3345  0.0809
 2170TIP3    H1 6516   4.334   4.483   4.338  2.2229  0.6919  2.2011
 2170TIP3    H2 6517   4.425   4.372   4.386 -0.6645 -3.1259 -0.5359
 2171TIP3   OH2 6518   1.513   4.550   4.399  0.7284  0.2628 -0.3417
 2171TIP3    H1 6519   1.529   4.458   4.374  0.4005  0.0409  0.2408
 2171TIP3    H2 6520   1.424   4.550   4.434  0.9847  0.6602  0.3323
 2172TIP3   OH2 6521   0.007   3.190   0.329 -0.2831  0.3210 -0.3569
 2172TIP3    H1 6522  -0.001   3.095   0.333  2.0381  0.0950  1.0934
 2172TIP3    H2 6523   0.094   3.205   0.291  0.5310  1.7693  1.9013
 2173TIP3   OH2 6524   5.497   0.259   2.609  0.1936 -0.1495 -0.2500
 2173TIP3    H1 6525   5.491   0.181   2.664 -0.1621 -0.1735 -0.3255
 2173TIP3    H2 6526   5.591   0.269   2.592  0.2295 -0.6214 -0.3329
 2174TIP3   OH2 6527   2.484   4.022   0.869 -0.3368 -0.0169 -0.3798
 2174TIP3    H1 6528   2.441   4.050   0.788 -2.1960  0.7457  0.7870
 2174TIP3    H2 6529   2.541   4.096   0.892 -1.1784  0.5663 -0.0932
 2175TIP3   OH2 6530   1.980   4.864   4.432  0.2168 -0.7299 -0.2918
 2175TIP3    H1 6531   1.946   4.802   4.368 -1.3337  0.0952 -0.3024
 2175TIP3    H2 6532   2.075   4.852   4.427  0.0363 -2.0650 -1.3223
 2176TIP3   OH2 6533   4.841   2.612   4.160  0.2150  0.3331 -0.3402
 2176TIP3    H1 6534   4.908   2.679   4.147 -0.6261  0.9323 -1.8550
 2176TIP3    H2 6535   4.888   2.529   4.155  0.8034  0.7170 -2.0605
 2177TIP3   OH2 6536   3.054   1.858   4.077  0.1962 -0.4449 -0.4118
 2177TIP3    H1 6537   3.115   1.895   4.013  1.1422 -0.1797  0.6144
 2177TIP3    H2 6538   3.098   1.868   4.161 -0.9201 -1.0044  0.2666
 2178TIP3   OH2 6539   4.453   5.493   2.695  0.2951 -0.1306  0.0186
 2178TIP3    H1 6540   4.463   5.541   2.777  0.8824  1.0364 -0.6913
 2178TIP3    H2 6541   4.519   5.423   2.699 -1.4208 -1.7459  1.6060
 2179TIP3   OH2 6542   0.657   2.796   0.778 -0.1944 -0.8029 -0.0060
 2179TIP3    H1 6543   0.730   2.735   0.793 -0.5048 -0.9775  0.8598
 2179TIP3    H2 6544   0.696   2.882   0.789 -0.0553 -0.8858  0.1644
 2180TIP3   OH2 6545   3.248   4.464   2.196  0.1278  0.2950  0.2670
 2180TIP3    H1 6546   3.338   4.430   2.191 -0.8712 -2.4906 -1.1448
 2180TIP3    H2 6547   3.211   4.421   2.273 -0.4218  0.2387 -0.0265
 2181TIP3   OH2 6548   0.695   5.267   2.114 -0.1638  0.0609  0.5722
 2181TIP3    H1 6549   0.624   5.295   2.056 -0.0566 -0.5436  0.1454
 2181TIP3    H2 6550   0.750   5.344   2.124 -0.8711  0.5410  0.9015
 2182TIP3   OH2 6551   1.822   4.495   2.873 -0.1580  0.2610  0.0294
 2182TIP3    H1 6552   1.741   4.530   2.909 -0.7721 -0.1833 -0.8681
 2182TIP3    H2 6553   1.848   4.426   2.935  0.1741  1.1774  0.9281
 2183TIP3   OH2 6554   2.792   5.341   3.207 -0.2826  0.0515 -0.3324
 2183TIP3    H1 6555   2.792   5.248   3.186  2.1809  0.3066 -1.9955
 2183TIP3    H2 6556   2.876   5.356   3.250 -1.7314  1.1189  2.3600
 2184TIP3   OH2 6557   4.994   5.310   3.812 -0.1876  0.5004 -0.2891
 2184TIP3    H1 6558   4.976   5.403   3.829 -3.0292  0.0651 -0.5277
 2184TIP3    H2 6559   5.052   5.311   3.736  1.7417  2.0825  1.0745
 2185TIP3   OH2 6560   0.476   1.702   4.673 -0.0983  0.2711 -0.2787
 2185TIP3    H1 6561   0.422   1.750   4.611 -1.8395  0.0925  1.0112
 2185TIP3    H2 6562   0.501   1.766   4.739  1.8131  0.4805 -1.1369
 2186TIP3   OH2 6563   2.345   2.509   1.095  0.2235  0.1691  0.5093
 2186TIP3    H1 6564   2.332   2.593   1.139 -0.5931  0.0257  0.5420
 2186TIP3    H2 6565   2.309   2.522   1.007 -0.7630 -0.4305  0.8155
 2187TIP3   OH2 6566   1.487   2.820   4.542 -0.1261 -0.0136  0.2682
 2187TIP3    H1 6567   1.493   2.736   4.496  0.5962 -1.3846  2.6785
 2187TIP3    H2 6568   1.394   2.831   4.559 -0.7345  1.5788 -3.0998
 2188TIP3   OH2 6569   1.391   0.432   3.589  0.4445 -0.3245  0.3471
 2188TIP3    H1 6570   1.350   0.421   3.675 -1.7334 -0.2928 -0.6358
 2188TIP3    H2 6571   1.370   0.522   3.564  1.3946 -0.2077 -0.0765
 2189TIP3   OH2 6572   0.185   5.730   2.095  0.3127  0.8386  0.0227
 2189TIP3    H1 6573   0.175   5.708   2.002 -0.1677  3.0268 -0.4943
 2189TIP3    H2 6574   0.278   5.750   2.106  0.1486  1.8283 -0.3098
 2190TIP3   OH2 6575   0.478   0.353   3.575 -0.8154 -0.4635 -0.7418
 2190TIP3    H1 6576   0.429   0.434   3.589  1.6954  1.1121 -0.2874
 2190TIP3    H2 6577   0.528   0.369   3.495  1.7659 -0.3430  0.7559
 2191TIP3   OH2 6578   5.268   1.766   1.054 -0.1255 -0.1539 -0.7674
 2191TIP3    H1 6579   5.200   1.770   1.122 -0.5544 -1.8741 -1.0425
 2191TIP3    H2 6580   5.347   1.800   1.097 -0.7231  0.1227  0.1490
 2192TIP3   OH2 6581   6.104   3.947   4.205 -0.1571 -0.0561  0.3893
 2192TIP3    H1 6582   6.092   3.925   4.298 -2.2251 -1.0422 -0.0735
 2192TIP3    H2 6583   6.103   3.862   4.160  1.7015  0.3382 -0.5031
 2193TIP3   OH2 6584   3.290   1.458   4.044  0.5285 -0.1033  0.0852
 2193TIP3    H1 6585   3.370   1.405   4.047  1.0208  0.6487  0.7886
 2193TIP3    H2 6586   3.220   1.396   4.023  1.3471 -0.7061 -0.9569
 2194TIP3   OH2 6587   2.123   0.200   0.356 -0.1149  0.1503  0.2138
 2194TIP3    H1 6588   2.064   0.242   0.293 -0.5149 -1.6535 -0.6915
 2194TIP3    H2 6589   2.078   0.207   0.440  0.6852  3.1113  0.4824
 2195TIP3   OH2 6590   3.627   0.280   4.125 -0.1290  0.2003 -0.5863
 2195TIP3    H1 6591   3.647   0.275   4.031 -0.6844  1.3459 -0.7875
 2195TIP3    H2 6592   3.537   0.311   4.128  0.0697  0.7201  0.3200
 2196TIP3   OH2 6593   3.017   3.667   1.773  0.1744  0.7909  0.0137
 2196TIP3    H1 6594   2.973   3.633   1.851 -0.8134  0.1276 -0.8173
 2196TIP3    H2 6595   3.080   3.599   1.750  0.0119  0.6993 -0.1530
 2197TIP3   OH2 6596   2.987   5.714   4.252  0.5291 -0.1143 -0.0021
 2197TIP3    H1 6597   2.975   5.650   4.323  0.4492 -0.0003  0.0890
 2197TIP3    H2 6598   2.903   5.714   4.206  0.5183 -0.0514  0.0175
 2198TIP3   OH2 6599   2.351   0.811   0.243  0.5058  0.3597 -0.4721
 2198TIP3    H1 6600   2.258   0.805   0.266  0.6597 -1.0890 -0.0987
 2198TIP3    H2 6601   2.352   0.804   0.148  0.2762 -0.5446 -0.4174
 2199TIP3   OH2 6602   2.907   4.556   0.191 -0.3640  0.5671 -1.3015
 2199TIP3    H1 6603   2.914   4.590   0.280  0.2069 -1.2804 -0.6105
 2199TIP3    H2 6604   2.848   4.617   0.147  1.9583  3.5201 -0.6908
 2200TIP3   OH2 6605   0.168   3.764   4.040  0.3111  0.3530  0.3589
 2200TIP3    H1 6606   0.144   3.749   4.132 -0.8395  0.6177  0.1226
 2200TIP3    H2 6607   0.138   3.686   3.994  1.1582  0.0880  0.2345
 2201TIP3   OH2 6608   6.212   2.105   1.399  0.2156 -0.0055  0.5016
 2201TIP3    H1 6609   6.254   2.065   1.474 -0.9167  0.6352  1.5084
 2201TIP3    H2 6610   6.274   2.170   1.367  0.7091 -0.3031  0.8522
 2202TIP3   OH2 6611   1.364   1.054   0.743 -0.6641  0.0041 -0.6454
 2202TIP3    H1 6612   1.297   0.988   0.727 -1.7160  0.7917  0.3193
 2202TIP3    H2 6613   1.355   1.075   0.836  2.0953 -1.1015 -0.0306
 2203TIP3   OH2 6614   3.014   3.790   1.243 -0.4234  0.1482  0.3619
 2203TIP3    H1 6615   3.011   3.885   1.243 -1.7975  0.1304  1.3957
 2203TIP3    H2 6616   2.923   3.762   1.233  0.0670 -1.0895 -1.0968
 2204TIP3   OH2 6617   5.966   1.547   1.369  0.8320  0.3142 -0.8687
 2204TIP3    H1 6618   6.043   1.507   1.328  0.4844 -0.7130 -0.5320
 2204TIP3    H2 6619   5.974   1.524   1.462 -0.2858 -0.4429 -0.9575
 2205TIP3   OH2 6620   3.018   4.380   2.733  0.4165 -0.3593  0.3030
 2205TIP3    H1 6621   2.941   4.377   2.676  1.2013 -1.1366 -0.7638
 2205TIP3    H2 6622   3.003   4.311   2.797  0.8631 -1.5378 -0.8099
 2206TIP3   OH2 6623   4.902   2.230   4.518  0.4064  0.4244 -0.1977
 2206TIP3    H1 6624   4.921   2.146   4.559 -0.1075  0.5255  0.2569
 2206TIP3    H2 6625   4.814   2.252   4.547  0.8857  1.5726  0.4605
 2207TIP3   OH2 6626   5.624   3.193   0.989 -0.2567 -0.4155 -0.1976
 2207TIP3    H1 6627   5.550   3.152   1.033  0.9177 -2.5571 -0.1346
 2207TIP3    H2 6628   5.646   3.134   0.917  0.5246  0.9080 -1.1093
 2208TIP3   OH2 6629   2.703   1.080   1.855  0.4155 -0.5119  0.5684
 2208TIP3    H1 6630   2.726   1.171   1.839 -1.9275  0.2844  1.2239
 2208TIP3    H2 6631   2.715   1.068   1.949  0.7736 -0.9134  0.4753
 2209TIP3   OH2 6632   2.063   1.174   5.139 -1.2741  0.0251  0.6006
 2209TIP3    H1 6633   2.018   1.109   5.084 -0.5473  0.7769 -0.9363
 2209TIP3    H2 6634   2.010   1.253   5.130 -1.4362  0.0253  1.4353
 2210TIP3   OH2 6635   5.940   0.752   3.351 -0.6834 -0.1366 -0.1708
 2210TIP3    H1 6636   6.032   0.775   3.337 -0.4239 -1.5109 -0.8390
 2210TIP3    H2 6637   5.892   0.813   3.294 -0.0787 -0.5611 -1.1547
 2211TIP3   OH2 6638   4.579   2.126   4.909  0.5660  0.1794  0.1764
 2211TIP3    H1 6639   4.548   2.065   4.841 -0.1719  0.9653 -0.2102
 2211TIP3    H2 6640   4.570   2.077   4.991  1.3318 -0.7322 -0.2652
 2212TIP3   OH2 6641   1.154   0.365   1.427  0.3546 -0.2347  0.4956
 2212TIP3    H1 6642   1.181   0.394   1.340 -0.6930 -0.3423  0.1256
 2212TIP3    H2 6643   1.194   0.428   1.487 -0.7151  1.1537 -0.1946
 2213TIP3   OH2 6644   3.936   5.427   1.913  0.5796  0.5106  0.4091
 2213TIP3    H1 6645   3.930   5.480   1.993 -1.1885  0.4662  0.3538
 2213TIP3    H2 6646   3.861   5.455   1.860  0.8075 -0.5860 -0.5297
 2214TIP3   OH2 6647   4.012   1.553   3.043 -0.2915  0.2128  0.0680
 2214TIP3    H1 6648   3.987   1.619   2.979 -1.2330 -0.5112 -0.3365
 2214TIP3    H2 6649   3.949   1.482   3.030  0.7486 -0.8039  0.4354
 2215TIP3   OH2 6650   3.419   4.110   4.379 -0.0556  0.0551 -0.2512
 2215TIP3    H1 6651   3.423   4.123   4.284  1.4291 -1.6152 -0.4675
 2215TIP3    H2 6652   3.509   4.125   4.409 -0.2334 -0.7164  0.7011
 2216TIP3   OH2 6653   2.229   4.683   0.160  0.1088  0.3460  0.3090
 2216TIP3    H1 6654   2.169   4.751   0.189 -0.7714 -0.8370  1.3138
 2216TIP3    H2 6655   2.273   4.654   0.240  0.0399 -0.6752 -0.0133
 2217TIP3   OH2 6656   1.116   2.348   2.979 -0.1212 -0.5498 -0.6332
 2217TIP3    H1 6657   1.029   2.320   3.007  0.1479 -0.1571  0.6432
 2217TIP3    H2 6658   1.154   2.389   3.056  0.6694  0.5400 -1.5724
 2218TIP3   OH2 6659   4.174   2.873   2.647  0.2985 -0.0446  0.1491
 2218TIP3    H1 6660   4.159   2.870   2.742 -1.9182  0.6650 -0.1363
 2218TIP3    H2 6661   4.113   2.808   2.611 -0.9257  1.6510 -0.9732
 2219TIP3   OH2 6662   5.987   2.976   3.000 -0.2779 -0.0345  0.3724
 2219TIP3    H1 6663   6.031   3.050   3.042  1.0568  0.2339 -1.4150
 2219TIP3    H2 6664   6.044   2.901   3.017  0.0755  0.0031 -0.6084
 2220TIP3   OH2 6665   6.215   5.646   3.206  0.0891  0.2241  0.0046
 2220TIP3    H1 6666   6.268   5.622   3.283  1.7165 -0.4005 -1.2420
 2220TIP3    H2 6667   6.187   5.562   3.170 -0.8128  0.5229 -0.0018
 2221TIP3   OH2 6668   1.027   0.421   1.021 -0.0731 -0.0253  0.2015
 2221TIP3    H1 6669   0.943   0.456   0.992  0.3080  1.6297  0.9683
 2221TIP3    H2 6670   1.020   0.417   1.116  0.0646 -1.6807  0.1705
 2222TIP3   OH2 6671   5.561   4.233   1.721 -0.3574 -0.0260 -0.0966
 2222TIP3    H1 6672   5.565   4.154   1.775 -1.2309  0.6829  1.0562
 2222TIP3    H2 6673   5.469   4.240   1.695 -0.0288 -0.1262 -1.3758
 2223TIP3   OH2 6674   1.077   5.979   1.471 -0.5805 -0.1371 -0.2948
 2223TIP3    H1 6675   1.115   5.965   1.385 -1.8966 -1.4868 -0.6836
 2223TIP3    H2 6676   1.052   5.892   1.501 -2.6914  0.5995  0.2386
 2224TIP3   OH2 6677   5.408   2.080   0.953  0.1686 -0.0320 -0.4820
 2224TIP3    H1 6678   5.401   2.063   1.047  2.5301  0.0653 -0.2335
 2224TIP3    H2 6679   5.444   2.000   0.916 -4.1045 -1.5496 -2.0401
 2225TIP3   OH2 6680   5.005   2.695   2.478 -0.4529 -0.2252  0.1784
 2225TIP3    H1 6681   5.027   2.699   2.571 -1.1871 -0.4421  0.3659
 2225TIP3    H2 6682   4.989   2.602   2.461 -0.0072 -0.2291 -0.2443
 2226TIP3   OH2 6683   4.804   2.960   0.605 -0.4375  0.0830  0.0722
 2226TIP3    H1 6684   4.829   3.032   0.662 -0.5956 -0.8260  1.3445
 2226TIP3    H2 6685   4.713   2.940   0.630 -0.6916  0.0108 -0.8780
 2227TIP3   OH2 6686   4.409   1.753   0.376 -0.4743  0.3159 -0.1137
 2227TIP3    H1 6687   4.415   1.679   0.437  0.4821 -1.2561 -2.0078
 2227TIP3    H2 6688   4.499   1.786   0.371 -0.5989  0.5929 -0.5075
 2228TIP3   OH2 6689   4.349   1.388   3.703 -0.1386 -0.1179 -0.1375
 2228TIP3    H1 6690   4.264   1.399   3.659  0.4748 -0.6558 -1.5075
 2228TIP3    H2 6691   4.372   1.297   3.688  1.4518  0.4168 -1.2643
 2229TIP3   OH2 6692   2.374   1.980   4.364 -0.6627  0.4379  0.3023
 2229TIP3    H1 6693   2.391   1.975   4.270 -2.1204  1.3520 -0.0544
 2229TIP3    H2 6694   2.317   1.905   4.382 -0.1565  0.1033  0.5184
 2230TIP3   OH2 6695   5.151   2.485   3.915 -0.5454 -0.6474  0.1913
 2230TIP3    H1 6696   5.080   2.507   3.854 -0.9927  0.6127  1.1118
 2230TIP3    H2 6697   5.107   2.440   3.987 -0.2701 -0.7185  0.3144
 2231TIP3   OH2 6698   3.771   4.774   0.255  0.3306  0.1118  0.4528
 2231TIP3    H1 6699   3.828   4.850   0.259  1.6462 -0.8442  0.5502
 2231TIP3    H2 6700   3.811   4.711   0.315  0.0376 -1.1468 -0.6217
 2232TIP3   OH2 6701   6.258   5.735   2.183 -0.0155 -0.3164 -0.2061
 2232TIP3    H1 6702   6.283   5.689   2.264  1.8152  2.0941  0.7218
 2232TIP3    H2 6703   6.336   5.730   2.128  0.3337  1.7502  0.0141
 2233TIP3   OH2 6704   1.774   1.079   3.124  0.8573 -0.4273  0.2831
 2233TIP3    H1 6705   1.817   1.015   3.182 -1.1825  0.0029  2.4329
 2233TIP3    H2 6706   1.728   1.138   3.184 -0.0189  1.0836 -1.7648
 2234TIP3   OH2 6707   1.912   3.981   0.382 -1.0123  0.1500 -0.4595
 2234TIP3    H1 6708   1.973   3.989   0.456 -0.2238 -0.0834 -1.0749
 2234TIP3    H2 6709   1.911   4.068   0.341 -1.9370  0.4639  0.1779
 2235TIP3   OH2 6710   1.229   3.932   0.194 -0.2170  0.3216 -0.0094
 2235TIP3    H1 6711   1.182   3.857   0.156 -0.9707  0.6284  0.3221
 2235TIP3    H2 6712   1.265   3.978   0.118 -1.8011  0.9851 -0.3805
 2236TIP3   OH2 6713   0.963   1.141   4.803 -0.4984  0.1434  0.1954
 2236TIP3    H1 6714   1.012   1.159   4.723 -0.8585  1.0808  0.1734
 2236TIP3    H2 6715   0.883   1.192   4.794 -0.5490  0.2441  1.1455
 2237TIP3   OH2 6716   3.006   2.255   3.953 -0.0853 -0.1306  0.0687
 2237TIP3    H1 6717   3.086   2.250   4.005  0.1939  0.5867 -0.2832
 2237TIP3    H2 6718   3.005   2.173   3.904  1.2089  0.4680 -1.0244
 2238TIP3   OH2 6719   4.203   5.464   3.529  0.1659 -0.1484  0.1692
 2238TIP3    H1 6720   4.288   5.506   3.540  0.1369 -0.2961  1.0031
 2238TIP3    H2 6721   4.160   5.474   3.613 -0.5924 -0.2037 -0.2014
 2239TIP3   OH2 6722   6.153   1.200   4.994 -0.6091  0.4718  0.6082
 2239TIP3    H1 6723   6.208   1.272   4.962 -1.5064  0.8361 -0.1694
 2239TIP3    H2 6724   6.139   1.145   4.916 -1.7186  0.6399  0.6691
 2240TIP3   OH2 6725   2.308   2.870   0.836 -0.3481  0.1788 -0.0419
 2240TIP3    H1 6726   2.382   2.852   0.894  0.3176  2.3903 -0.1081
 2240TIP3    H2 6727   2.304   2.794   0.778  1.8484 -0.0517  0.0097
 2241TIP3   OH2 6728   3.853   4.570   0.038  0.1675 -0.0889 -0.4886
 2241TIP3    H1 6729   3.832   4.631   0.109  0.7812 -1.9644  1.4230
 2241TIP3    H2 6730   3.884   4.491   0.083  0.5241 -1.3998 -2.8716
 2242TIP3   OH2 6731   6.173   4.880   0.977  0.2120  0.5134 -0.0679
 2242TIP3    H1 6732   6.138   4.968   0.962  1.9456  0.9840 -1.6996
 2242TIP3    H2 6733   6.229   4.890   1.055 -0.8826  0.4289  0.7582
 2243TIP3   OH2 6734   1.480   5.607   2.508 -0.3948  0.1990 -0.2552
 2243TIP3    H1 6735   1.474   5.522   2.464  0.1818 -0.4776  0.9289
 2243TIP3    H2 6736   1.390   5.625   2.536 -0.0557 -1.5242  2.1640
 2244TIP3   OH2 6737   0.410   4.418   0.489  0.1664 -0.3813  0.0139
 2244TIP3    H1 6738   0.460   4.411   0.408  0.7117  1.1239  0.1914
 2244TIP3    H2 6739   0.450   4.354   0.548  1.2111  0.0558 -0.1991
 2245TIP3   OH2 6740   5.002   5.567   3.823  0.5370  0.1287 -0.1872
 2245TIP3    H1 6741   5.098   5.562   3.816  0.8142 -0.3874  2.8430
 2245TIP3    H2 6742   4.986   5.641   3.881 -0.6687 -1.8101  2.0868
 2246TIP3   OH2 6743   5.089   3.360   2.301  0.3749 -0.3102 -0.1420
 2246TIP3    H1 6744   5.022   3.418   2.264  0.7657 -1.2780 -2.5695
 2246TIP3    H2 6745   5.085   3.377   2.395 -0.4773  2.6048 -0.5776
 2247TIP3   OH2 6746   2.122   5.881   2.026 -0.3966  0.1139 -0.8124
 2247TIP3    H1 6747   2.123   5.787   2.012 -1.1144  0.1604 -1.2184
 2247TIP3    H2 6748   2.029   5.904   2.028 -0.2670  1.2804 -3.8689
 2248TIP3   OH2 6749   6.284   0.182   0.738 -0.3196  0.0675  0.7729
 2248TIP3    H1 6750   6.234   0.105   0.709 -1.9079  0.9793  0.9492
 2248TIP3    H2 6751   6.247   0.204   0.823 -0.8257  1.7873  0.1568
 2249TIP3   OH2 6752   4.573   0.982   3.442  0.0242  0.5109  0.7164
 2249TIP3    H1 6753   4.661   0.953   3.467  1.2825  2.9618 -0.5069
 2249TIP3    H2 6754   4.560   0.943   3.356  0.2281  0.7511  0.5764
 2250TIP3   OH2 6755   3.437   5.984   2.781 -0.3077  0.4033  0.3454
 2250TIP3    H1 6756   3.373   5.926   2.820 -1.0005  0.5145 -0.5783
 2250TIP3    H2 6757   3.517   5.970   2.832 -0.3707 -1.5456 -0.0060
 2251TIP3   OH2 6758   1.925   1.472   3.025  0.2912  0.4125  0.5380
 2251TIP3    H1 6759   1.883   1.546   3.068 -0.2743  0.2256  0.3280
 2251TIP3    H2 6760   1.995   1.511   2.972  0.9913  0.6392  1.6068
 2252TIP3   OH2 6761   5.268   1.513   0.183  0.3870  0.3948  0.7513
 2252TIP3    H1 6762   5.252   1.438   0.241  0.1485 -0.4155 -0.3250
 2252TIP3    H2 6763   5.361   1.505   0.160  0.4058  0.5370  0.7797
 2253TIP3   OH2 6764   5.119   0.861   4.740  0.8883 -0.2356 -0.1300
 2253TIP3    H1 6765   5.071   0.797   4.793  0.0780 -0.3849 -1.0096
 2253TIP3    H2 6766   5.052   0.899   4.682  2.3484 -3.4443 -4.4543
 2254TIP3   OH2 6767   1.852   3.307   2.504 -0.4489  0.1988 -0.9065
 2254TIP3    H1 6768   1.853   3.282   2.596 -1.9788  0.9229 -0.6640
 2254TIP3    H2 6769   1.844   3.225   2.456  1.1432 -0.2499 -0.4618
 2255TIP3   OH2 6770   0.276   5.804   3.081 -0.1460 -0.4385  0.1279
 2255TIP3    H1 6771   0.273   5.883   3.027  0.7453 -0.6019 -0.1705
 2255TIP3    H2 6772   0.189   5.765   3.070 -0.7687  0.7429  0.6704
 2256TIP3   OH2 6773   3.347   5.196   0.652  0.2238 -0.0544 -0.2647
 2256TIP3    H1 6774   3.354   5.141   0.573 -0.7342  1.1254 -1.2078
 2256TIP3    H2 6775   3.284   5.149   0.707  1.8474 -1.5497  0.4274
 2257TIP3   OH2 6776   2.661   1.999   2.056  0.0152 -0.2513  0.3883
 2257TIP3    H1 6777   2.610   2.078   2.078  0.1049  0.2027 -0.9903
 2257TIP3    H2 6778   2.602   1.927   2.078 -0.0311  0.1757  1.7658
 2258TIP3   OH2 6779   2.116   0.557   4.959  0.1442 -0.5865 -0.1904
 2258TIP3    H1 6780   2.058   0.483   4.975 -0.2773 -0.0400  0.9376
 2258TIP3    H2 6781   2.104   0.577   4.866 -2.4055  0.2424  0.2484
 2259TIP3   OH2 6782   4.821   0.371   0.658  0.3520  0.5541 -0.6443
 2259TIP3    H1 6783   4.784   0.459   0.648  2.3916  1.4568 -0.7310
 2259TIP3    H2 6784   4.787   0.340   0.742  1.9282  2.6995  0.8955
 2260TIP3   OH2 6785   0.907   2.563   2.549  0.3667  0.7016 -0.0647
 2260TIP3    H1 6786   0.983   2.545   2.605 -0.2623 -0.7530  0.3887
 2260TIP3    H2 6787   0.861   2.635   2.591  0.5274  0.3811  0.6639
 2261TIP3   OH2 6788   5.131   3.194   0.894  0.4290  0.2358  0.1594
 2261TIP3    H1 6789   5.140   3.282   0.929 -0.0269  0.1814  0.4186
 2261TIP3    H2 6790   5.123   3.138   0.971 -1.0884  0.1724 -0.0258
 2262TIP3   OH2 6791   0.760   2.749   2.726 -0.2728  0.4100 -0.2040
 2262TIP3    H1 6792   0.714   2.730   2.808  0.5164  0.0344  0.1587
 2262TIP3    H2 6793   0.695   2.796   2.673 -0.3591  1.8881  1.1531
 2263TIP3   OH2 6794   5.611  -0.020   4.925  0.0016  0.5169 -0.4914
 2263TIP3    H1 6795   5.603   0.021   5.010 -0.2568 -0.0852 -0.2190
 2263TIP3    H2 6796   5.639   0.050   4.866  0.7602  0.8032  0.2007
 2264TIP3   OH2 6797   4.452   1.508   4.570  0.5546  0.2029  0.9278
 2264TIP3    H1 6798   4.526   1.519   4.630 -0.8581 -0.5534  2.9183
 2264TIP3    H2 6799   4.380   1.552   4.614 -0.4478  0.0423 -0.4924
 2265TIP3   OH2 6800   4.494   0.044   0.335  0.0598  0.2987  0.4676
 2265TIP3    H1 6801   4.463   0.117   0.389 -0.5011  0.5506 -0.1794
 2265TIP3    H2 6802   4.414  -0.004   0.312  0.2236  0.4679 -0.5165
 2266TIP3   OH2 6803   1.094   2.902   3.830  0.1175  0.0942  0.1425
 2266TIP3    H1 6804   1.147   2.828   3.799  0.4604  0.0816  0.7448
 2266TIP3    H2 6805   1.045   2.930   3.753 -1.8295 -2.2651  0.3838
 2267TIP3   OH2 6806   0.204   3.789   0.354 -0.0973  0.1287  0.2025
 2267TIP3    H1 6807   0.133   3.754   0.301  1.4315 -0.9261 -1.2448
 2267TIP3    H2 6808   0.229   3.871   0.311 -0.2120  0.3209  0.5014
 2268TIP3   OH2 6809   0.657   3.777   2.486 -0.2416  0.6874  0.0333
 2268TIP3    H1 6810   0.641   3.762   2.393  1.3365  1.5477 -0.4014
 2268TIP3    H2 6811   0.638   3.870   2.499 -1.2975  0.3915  0.7871
 2269TIP3   OH2 6812   0.242   0.996   0.258  0.1194  0.1314  0.2059
 2269TIP3    H1 6813   0.336   0.991   0.244  0.0586 -0.1066 -0.1448
 2269TIP3    H2 6814   0.217   1.082   0.225 -0.0999 -0.6146 -1.7268
 2270TIP3   OH2 6815   0.042   2.914   2.250 -0.0789 -0.3463  0.3249
 2270TIP3    H1 6816   0.109   2.927   2.183 -1.4368 -0.1685 -1.0466
 2270TIP3    H2 6817   0.017   2.822   2.240 -1.2224  0.0177 -0.3578
 2271TIP3   OH2 6818   4.873   1.902   3.920 -0.2219 -0.0883  1.0319
 2271TIP3    H1 6819   4.823   1.968   3.872 -1.2407 -0.2707  1.7944
 2271TIP3    H2 6820   4.939   1.952   3.968  0.7674  0.1000 -0.4821
 2272TIP3   OH2 6821   6.059   5.827   3.080  0.0685  0.4818 -0.1455
 2272TIP3    H1 6822   5.997   5.755   3.069 -0.5774  0.9590  0.3120
 2272TIP3    H2 6823   6.127   5.791   3.137  0.0156  0.0719 -0.3378
 2273TIP3   OH2 6824   1.700   1.970   1.579  0.2428  0.0555  0.0592
 2273TIP3    H1 6825   1.661   1.887   1.551  1.0140 -0.7118  1.1609
 2273TIP3    H2 6826   1.674   1.979   1.671  2.2287 -0.2547  0.6922
 2274TIP3   OH2 6827   5.950   2.888   2.741 -0.4070 -0.1077 -0.5538
 2274TIP3    H1 6828   5.957   2.945   2.818 -1.1522  1.1945 -1.4094
 2274TIP3    H2 6829   5.976   2.802   2.773  1.2743  0.7937  0.6617
 2275TIP3   OH2 6830   4.395   0.527   1.286 -0.0397 -0.0234  0.1262
 2275TIP3    H1 6831   4.459   0.475   1.336  0.7650  0.8355  0.0305
 2275TIP3    H2 6832   4.439   0.546   1.203 -0.0102  1.3894  0.4336
 2276TIP3   OH2 6833   5.800   4.310   3.205  0.0937 -0.0689  0.8853
 2276TIP3    H1 6834   5.805   4.311   3.300  2.0461  0.6654  0.7993
 2276TIP3    H2 6835   5.759   4.393   3.182  0.2669  0.0631  1.0523
 2277TIP3   OH2 6836   6.268   2.879   0.418  0.1654 -0.5116  0.5760
 2277TIP3    H1 6837   6.279   2.784   0.419 -0.2514 -0.5598  0.9186
 2277TIP3    H2 6838   6.173   2.891   0.424  0.2747 -0.0614  1.6161
 2278TIP3   OH2 6839   3.930   2.440   3.560  0.4896  0.4344 -0.7341
 2278TIP3    H1 6840   3.892   2.526   3.574  0.3625  0.1766  0.6711
 2278TIP3    H2 6841   3.871   2.380   3.605  0.7649 -0.3588 -1.3967
 2279TIP3   OH2 6842   6.102   4.907   2.026 -0.2586  0.5336 -0.6698
 2279TIP3    H1 6843   6.015   4.905   1.987  0.3194 -2.0790 -2.0188
 2279TIP3    H2 6844   6.161   4.924   1.952  0.5693 -0.5847 -0.2897
 2280TIP3   OH2 6845   3.736   5.442   0.633 -0.4091 -0.2955  0.0044
 2280TIP3    H1 6846   3.694   5.458   0.549 -0.7998 -1.2101  0.0122
 2280TIP3    H2 6847   3.830   5.451   0.616 -0.4418 -1.1084 -0.6876
 2281TIP3   OH2 6848   1.779   4.548   1.721  0.1371  0.2352 -0.3829
 2281TIP3    H1 6849   1.755   4.499   1.799  3.0329 -1.9774 -0.6697
 2281TIP3    H2 6850   1.724   4.511   1.651  0.2787 -0.6269 -0.0577
 2282TIP3   OH2 6851   0.902   4.905   4.970  0.3695 -0.4858  0.4695
 2282TIP3    H1 6852   0.809   4.884   4.978  0.2937 -0.5865 -0.5312
 2282TIP3    H2 6853   0.922   4.892   4.877  1.0339  0.9652  0.3736
 2283TIP3   OH2 6854   1.126   3.476   4.749  0.5307  0.0468  0.2635
 2283TIP3    H1 6855   1.070   3.406   4.784  0.1357  0.2220 -0.0069
 2283TIP3    H2 6856   1.108   3.475   4.655  0.6454  0.4063  0.2398
 2284TIP3   OH2 6857   1.266   3.017   1.950  0.4851 -0.5302 -0.4411
 2284TIP3    H1 6858   1.302   2.934   1.917  0.8968 -0.9269  0.9235
 2284TIP3    H2 6859   1.200   2.991   2.014 -0.1121  0.2084 -0.7477
 2285TIP3   OH2 6860   3.726   0.896   2.620 -0.2042  0.1360  0.7268
 2285TIP3    H1 6861   3.656   0.934   2.673  0.5435  3.4858 -0.4411
 2285TIP3    H2 6862   3.785   0.855   2.684  0.2333  3.2690  2.5134
 2286TIP3   OH2 6863   5.202   0.959   0.778  0.1225 -0.5750  0.5493
 2286TIP3    H1 6864   5.233   0.876   0.813  0.7273 -0.1037  1.1481
 2286TIP3    H2 6865   5.276   0.993   0.728  0.5845  0.5109  1.9054
 2287TIP3   OH2 6866   5.430   5.008   2.584  0.0306 -0.1278 -0.4151
 2287TIP3    H1 6867   5.494   5.040   2.648 -0.5918  0.0464  0.1339
 2287TIP3    H2 6868   5.479   4.948   2.528  0.4731 -0.6451  0.5197
 2288TIP3   OH2 6869   4.815   2.276   4.873  0.2348  0.1135  0.0174
 2288TIP3    H1 6870   4.728   2.237   4.868  0.3345 -0.0466 -0.7098
 2288TIP3    H2 6871   4.808   2.357   4.822  0.5247  0.0648 -0.1028
 2289TIP3   OH2 6872   0.820   4.252   4.278 -0.3480  0.4607 -0.2165
 2289TIP3    H1 6873   0.727   4.258   4.298 -0.4744 -0.9552 -0.2221
 2289TIP3    H2 6874   0.857   4.207   4.354  0.3685  1.1711 -0.1348
 2290TIP3   OH2 6875   0.529   4.906   3.436  0.1111 -0.0584 -0.0939
 2290TIP3    H1 6876   0.611   4.857   3.440 -0.0812 -0.3085  0.8587
 2290TIP3    H2 6877   0.463   4.847   3.472  0.0500  1.2437  2.0933
 2291TIP3   OH2 6878   3.328   0.774   2.343 -0.2485 -0.1732  0.0322
 2291TIP3    H1 6879   3.406   0.825   2.365 -1.1084  1.2018 -0.0277
 2291TIP3    H2 6880   3.304   0.802   2.255 -1.1049 -0.1996  0.2487
 2292TIP3   OH2 6881   1.429   0.456   0.605  0.0041 -0.1243 -0.1324
 2292TIP3    H1 6882   1.372   0.379   0.600  1.0901 -0.8544 -2.2211
 2292TIP3    H2 6883   1.505   0.425   0.655 -0.6266  0.3707  1.1965
 2293TIP3   OH2 6884   5.700   3.891   2.669  0.4192  0.0168 -0.1394
 2293TIP3    H1 6885   5.727   3.870   2.759 -0.6919  0.3894  0.3007
 2293TIP3    H2 6886   5.773   3.862   2.615  1.3920  0.3594  0.9384
 2294TIP3   OH2 6887   4.260   1.173   2.077  0.0998 -0.0821 -0.3838
 2294TIP3    H1 6888   4.182   1.207   2.120 -0.0759 -0.5112 -0.3533
 2294TIP3    H2 6889   4.249   1.078   2.080  0.6708 -0.1492 -0.2962
 2295TIP3   OH2 6890   3.374   0.366   4.152  0.0495 -0.0927 -0.1494
 2295TIP3    H1 6891   3.344   0.442   4.201  2.6875  0.4304  0.8297
 2295TIP3    H2 6892   3.333   0.291   4.197  0.2066  0.5584  1.1312
 2296TIP3   OH2 6893   5.679   1.873   3.048 -0.5492  0.2964 -0.0662
 2296TIP3    H1 6894   5.669   1.936   2.977  2.2167 -0.0963 -0.9343
 2296TIP3    H2 6895   5.626   1.909   3.119 -2.6518  1.1916 -1.9832
 2297TIP3   OH2 6896   1.118   2.975   2.675  0.2299  0.1226  0.6413
 2297TIP3    H1 6897   1.070   3.013   2.748 -0.4539  0.0446  0.2472
 2297TIP3    H2 6898   1.056   2.978   2.602  1.1427  0.8382 -0.1208
 2298TIP3   OH2 6899   1.155   2.549   4.339 -0.4495 -0.2781 -0.0289
 2298TIP3    H1 6900   1.059   2.551   4.334 -0.4407  0.2422 -0.0352
 2298TIP3    H2 6901   1.183   2.632   4.299  0.0889 -1.3540 -2.0281
 2299TIP3   OH2 6902   3.601   5.651   2.646  0.5577 -0.0779 -0.1832
 2299TIP3    H1 6903   3.633   5.654   2.737 -1.4217  0.6785  0.5498
 2299TIP3    H2 6904   3.625   5.736   2.610 -0.6895  0.5652  0.4261
 2300TIP3   OH2 6905   4.967   1.466   2.060 -0.0320  0.0448  0.5448
 2300TIP3    H1 6906   4.880   1.493   2.032  0.0939 -0.3412 -0.2555
 2300TIP3    H2 6907   5.024   1.493   1.988  0.3034 -1.0059  0.4052
 2301TIP3   OH2 6908   1.852   2.502   1.178 -0.0844  0.5131 -0.0973
 2301TIP3    H1 6909   1.926   2.479   1.122 -0.8319 -0.5579 -0.6721
 2301TIP3    H2 6910   1.836   2.423   1.229 -0.0068  1.1714  0.9883
 2302TIP3   OH2 6911   3.855   1.267   4.897  0.4117 -0.2885  0.3357
 2302TIP3    H1 6912   3.852   1.338   4.833 -1.6590  0.0190  0.7045
 2302TIP3    H2 6913   3.897   1.305   4.974  0.4539  0.1564  0.0909
 2303TIP3   OH2 6914   5.048   0.319   4.693  0.4589  0.4103  0.5550
 2303TIP3    H1 6915   5.029   0.299   4.601  1.7670 -0.1489  0.3893
 2303TIP3    H2 6916   5.032   0.413   4.700 -3.2223 -0.0597  0.7001
 2304TIP3   OH2 6917   4.439   2.351   0.667 -0.4298 -0.5571 -0.2252
 2304TIP3    H1 6918   4.453   2.264   0.704 -0.6306 -0.9765 -1.1083
 2304TIP3    H2 6919   4.505   2.405   0.710 -1.1130 -0.8480  1.2663
 2305TIP3   OH2 6920   3.143   2.889   3.574  0.4818 -0.1487 -0.6905
 2305TIP3    H1 6921   3.178   2.949   3.639 -0.3858 -2.0740  1.7079
 2305TIP3    H2 6922   3.096   2.945   3.512  0.2849  1.6816  1.0303
 2306TIP3   OH2 6923   3.274   0.766   1.364 -0.1808 -0.5306 -0.2017
 2306TIP3    H1 6924   3.194   0.810   1.335  0.2285  2.3905  2.4989
 2306TIP3    H2 6925   3.269   0.678   1.326 -2.4368  0.9465 -3.7680
 2307TIP3   OH2 6926   2.528   2.386   0.809 -0.1340  0.1341 -0.2192
 2307TIP3    H1 6927   2.530   2.339   0.893 -2.9863  0.0311 -0.1181
 2307TIP3    H2 6928   2.603   2.445   0.813  1.5417 -1.9228  1.1150
 2308TIP3   OH2 6929   3.205   1.325   4.347  0.1263  0.0860  0.1170
 2308TIP3    H1 6930   3.225   1.418   4.333  0.3681  0.3068  1.7678
 2308TIP3    H2 6931   3.291   1.282   4.341  0.1653  0.1187  0.4281
 2309TIP3   OH2 6932   0.914   0.470   4.526  0.2173 -0.5112 -0.3044
 2309TIP3    H1 6933   0.871   0.396   4.570  0.7744 -2.0737 -2.1975
 2309TIP3    H2 6934   0.851   0.498   4.459  0.5284 -0.1254 -0.4410
 2310TIP3   OH2 6935   0.618   3.800   2.186 -0.0282  0.2834 -0.3793
 2310TIP3    H1 6936   0.677   3.732   2.154 -1.1549 -1.2334  0.5747
 2310TIP3    H2 6937   0.606   3.859   2.112  2.6423  0.6624 -0.5757
 2311TIP3   OH2 6938   0.635   5.137   4.740 -0.4021 -0.3956  0.1562
 2311TIP3    H1 6939   0.593   5.221   4.760  0.7624  0.0953  0.6355
 2311TIP3    H2 6940   0.728   5.153   4.757  0.0487 -1.3008 -1.3727
 2312TIP3   OH2 6941   4.714   0.458   3.452  0.4825 -0.3674  0.1593
 2312TIP3    H1 6942   4.628   0.420   3.436  0.9504 -1.9625  1.2091
 2312TIP3    H2 6943   4.726   0.453   3.547  1.3287  0.7856  0.1408
 2313TIP3   OH2 6944   6.108   5.002   4.671 -0.1352 -1.0664  0.4255
 2313TIP3    H1 6945   6.084   5.083   4.625 -0.5552 -1.1271  0.5289
 2313TIP3    H2 6946   6.203   4.996   4.662 -0.0573 -0.3663  0.7371
 2314TIP3   OH2 6947   4.764   0.891   2.031  0.4642  0.2229  0.1290
 2314TIP3    H1 6948   4.731   0.945   1.959  2.3196  1.3240  0.0234
 2314TIP3    H2 6949   4.807   0.817   1.987  0.7107  0.3567  0.1446
 2315TIP3   OH2 6950   1.377   2.013   4.343  0.4547  0.3235  0.3775
 2315TIP3    H1 6951   1.435   2.089   4.334 -1.8753  2.1672  0.0360
 2315TIP3    H2 6952   1.312   2.024   4.274  0.0809 -2.1023  0.2331
 2316TIP3   OH2 6953   3.101   5.315   4.376  0.3681 -0.1453  0.3489
 2316TIP3    H1 6954   3.017   5.353   4.403  0.5206 -0.5779  1.4845
 2316TIP3    H2 6955   3.121   5.250   4.444  1.8946  0.3471  0.4161
 2317TIP3   OH2 6956   5.069   1.349   0.493 -0.0347  0.0310 -0.6417
 2317TIP3    H1 6957   5.140   1.316   0.438  0.6466  0.0615  0.2128
 2317TIP3    H2 6958   5.022   1.411   0.437  0.6055  0.0027 -1.2125
 2318TIP3   OH2 6959   1.637   1.876   2.617 -0.1352  0.1442  0.2542
 2318TIP3    H1 6960   1.614   1.804   2.676 -0.2604  0.5604  0.7240
 2318TIP3    H2 6961   1.556   1.894   2.568  0.0899 -0.4937 -0.3725
 2319TIP3   OH2 6962   5.937   3.548   3.112  0.6119 -0.0254 -0.0387
 2319TIP3    H1 6963   5.961   3.561   3.021  0.2315 -1.4003 -0.3622
 2319TIP3    H2 6964   5.848   3.583   3.119  1.8737  3.4114  0.7314
 2320TIP3   OH2 6965   0.579   0.708   4.319  0.1720 -0.2052  0.2985
 2320TIP3    H1 6966   0.594   0.751   4.403 -0.2370 -1.4176  1.0275
 2320TIP3    H2 6967   0.640   0.749   4.259  1.2107 -0.0233  1.4412
 2321TIP3   OH2 6968   1.135   1.383   2.077 -0.2455 -0.2709 -0.1032
 2321TIP3    H1 6969   1.163   1.381   1.986 -1.4194  0.6959 -0.5019
 2321TIP3    H2 6970   1.042   1.407   2.074 -0.7152 -1.6737  1.2616
 2322TIP3   OH2 6971   4.392   2.120   0.871 -0.0496  0.2727 -0.3163
 2322TIP3    H1 6972   4.320   2.096   0.811  0.8771 -0.5208 -1.1499
 2322TIP3    H2 6973   4.350   2.175   0.937 -1.8503 -1.6984  0.3246
 2323TIP3   OH2 6974   0.694   4.187   2.722  0.4575  0.1447 -0.1196
 2323TIP3    H1 6975   0.729   4.252   2.782 -0.5229 -0.4277  1.1104
 2323TIP3    H2 6976   0.683   4.108   2.775  0.3214 -0.6305 -1.2458
 2324TIP3   OH2 6977   6.040   1.468   0.783  0.5700 -0.0392  0.1788
 2324TIP3    H1 6978   6.018   1.408   0.854 -0.6506 -0.6046 -0.6477
 2324TIP3    H2 6979   6.109   1.423   0.734  1.5994  0.4649  1.1191
 2325TIP3   OH2 6980   1.790   2.531   3.072  0.3530  0.0309  0.1168
 2325TIP3    H1 6981   1.817   2.616   3.037  0.0248  0.3611  0.6446
 2325TIP3    H2 6982   1.694   2.533   3.068  0.2888  0.2510  1.4104
 2326TIP3   OH2 6983   5.397   5.682   1.788 -0.1509 -0.2227 -0.5424
 2326TIP3    H1 6984   5.337   5.607   1.792  0.3123 -0.5991 -0.4692
 2326TIP3    H2 6985   5.417   5.702   1.880  1.0150 -1.0820 -0.5850
 2327TIP3   OH2 6986   0.922   1.847   4.114  0.0028  0.0547 -0.2881
 2327TIP3    H1 6987   0.920   1.753   4.130 -0.3530  0.3126  1.3797
 2327TIP3    H2 6988   0.831   1.870   4.095  0.1485  0.0225 -1.0634
 2328TIP3   OH2 6989   2.235   0.540   3.571 -0.7838 -0.0967  0.3130
 2328TIP3    H1 6990   2.159   0.508   3.619 -0.3275  0.6461  1.6049
 2328TIP3    H2 6991   2.261   0.619   3.619  0.7272 -0.2761 -0.1693
 2329TIP3   OH2 6992   2.552   5.724   2.930  0.4467 -0.2568  0.1280
 2329TIP3    H1 6993   2.460   5.704   2.950  0.5082 -0.7031 -0.0258
 2329TIP3    H2 6994   2.601   5.684   3.002  0.3968  1.9177  1.4715
 2330TIP3   OH2 6995   6.001   5.768   4.673  0.2633  0.0002 -0.3247
 2330TIP3    H1 6996   5.980   5.680   4.642 -0.2521 -1.2244  3.1224
 2330TIP3    H2 6997   6.089   5.760   4.711 -0.2275  0.6447  1.0120
 2331TIP3   OH2 6998   6.011   4.896   2.684 -0.4278 -0.3756  0.5911
 2331TIP3    H1 6999   5.932   4.945   2.707 -0.4745  0.4360 -1.1384
 2331TIP3    H2 7000   6.083   4.959   2.697 -0.5157  0.3714 -1.9361
 2332TIP3   OH2 7001   3.405   1.368   2.440  0.1748 -0.0830  0.2486
 2332TIP3    H1 7002   3.420   1.430   2.369  0.6129  0.7448  1.0311
 2332TIP3    H2 7003   3.384   1.285   2.397  2.9356 -0.2823 -0.9250
 2333TIP3   OH2 7004   5.273   4.214   2.510  0.1170  0.3532 -0.4743
 2333TIP3    H1 7005   5.318   4.194   2.592  0.5337 -0.0904 -0.8019
 2333TIP3    H2 7006   5.199   4.269   2.536 -1.5771 -2.2366  0.6169
 2334TIP3   OH2 7007   3.087   6.014   2.883  0.5621  0.2467  0.6081
 2334TIP3    H1 7008   3.135   6.022   2.965 -0.8038  1.2471  1.3429
 2334TIP3    H2 7009   3.111   5.927   2.850  1.2073 -0.1379  2.0037
 2335TIP3   OH2 7010   0.652   3.069   0.883  0.1248  0.0574 -0.2987
 2335TIP3    H1 7011   0.576   3.053   0.940  0.8137  2.2019  1.3581
 2335TIP3    H2 7012   0.715   3.114   0.939  2.3405 -0.9513 -1.8481
 2336TIP3   OH2 7013   2.684   3.210   4.372  0.2804  0.1581  0.8129
 2336TIP3    H1 7014   2.677   3.296   4.414  2.0421  1.0480 -0.5570
 2336TIP3    H2 7015   2.624   3.154   4.421 -1.9267  2.4651  0.9485
 2337TIP3   OH2 7016   2.060   0.382   0.968  0.3415  0.5397 -0.3151
 2337TIP3    H1 7017   2.014   0.298   0.966 -1.1212  1.2601  0.6147
 2337TIP3    H2 7018   2.008   0.439   0.911  0.9087  0.9980 -0.3825
 2338TIP3   OH2 7019   2.208   0.909   4.507 -0.0755  0.0913  0.3836
 2338TIP3    H1 7020   2.147   0.971   4.467  1.1529  1.4672  0.5735
 2338TIP3    H2 7021   2.282   0.962   4.534  0.5656 -1.3233  1.5194
 2339TIP3   OH2 7022   2.889   4.999   2.943  0.0993  0.2551  0.5403
 2339TIP3    H1 7023   2.958   5.037   2.889 -1.6614  1.9854 -0.5903
 2339TIP3    H2 7024   2.918   4.909   2.958  1.5314  0.2390 -1.8056
 2340TIP3   OH2 7025   2.459   3.967   3.208 -0.3384 -0.3346 -0.4628
 2340TIP3    H1 7026   2.483   4.059   3.201  1.3818 -0.7367 -0.4805
 2340TIP3    H2 7027   2.363   3.966   3.205 -0.3666  1.3782 -1.1670
 2341TIP3   OH2 7028   1.361   3.489   4.967 -0.1702  0.1828 -0.4946
 2341TIP3    H1 7029   1.312   3.407   4.972  0.3836 -0.1867 -1.0806
 2341TIP3    H2 7030   1.341   3.523   4.880 -1.2999  1.2510  0.1481
 2342TIP3   OH2 7031   4.684   2.765   1.827  0.0096  0.2724  0.5247
 2342TIP3    H1 7032   4.706   2.857   1.817 -2.0696  0.6195 -2.0223
 2342TIP3    H2 7033   4.617   2.763   1.896 -0.0723  0.6959  0.4585
 2343TIP3   OH2 7034   4.912   0.907   4.591  0.0733  0.0412 -0.2831
 2343TIP3    H1 7035   4.894   0.814   4.597 -1.0054  0.3119  3.7782
 2343TIP3    H2 7036   4.928   0.923   4.498  1.1579 -4.2663 -1.0483
 2344TIP3   OH2 7037   5.491   2.854   1.094  0.3724  0.0562  0.2084
 2344TIP3    H1 7038   5.421   2.792   1.110 -0.0128  0.5059  0.2844
 2344TIP3    H2 7039   5.493   2.909   1.173  0.1752  0.6506 -0.1932
 2345TIP3   OH2 7040   2.882   0.682   3.048 -0.4234 -0.0583 -0.2489
 2345TIP3    H1 7041   2.790   0.701   3.029  0.1037  2.7455 -0.3962
 2345TIP3    H2 7042   2.900   0.727   3.130  1.0642  0.3038 -0.7393
 2346TIP3   OH2 7043   0.348   1.991   0.844 -0.7629 -0.6060  0.6586
 2346TIP3    H1 7044   0.254   2.006   0.857 -0.8277 -0.3004 -0.1256
 2346TIP3    H2 7045   0.388   2.023   0.925 -1.1954  0.7425  0.3680
 2347TIP3   OH2 7046   3.203   1.960   2.573 -0.1796  0.2952 -0.1929
 2347TIP3    H1 7047   3.136   1.917   2.520  0.3215  0.3162 -0.8643
 2347TIP3    H2 7048   3.269   1.989   2.510 -0.2400  1.5756  0.3055
 2348TIP3   OH2 7049   0.859   1.240   3.026 -0.3723 -0.0046  0.0637
 2348TIP3    H1 7050   0.869   1.304   2.955  3.0832 -0.2691  0.1415
 2348TIP3    H2 7051   0.869   1.155   2.984  0.1593 -0.2291  0.6271
 2349TIP3   OH2 7052   0.878   1.565   3.606  0.0563  0.6035  0.6050
 2349TIP3    H1 7053   0.867   1.634   3.672 -1.2119  1.6280 -0.6145
 2349TIP3    H2 7054   0.807   1.580   3.543  1.7366  0.2478 -1.4889
 2350TIP3   OH2 7055   0.301   3.806   2.238  0.2167 -0.4916  0.0535
 2350TIP3    H1 7056   0.316   3.717   2.269  0.2987 -0.9412 -1.2367
 2350TIP3    H2 7057   0.324   3.804   2.146  0.7588  1.0083  0.1241
 2351TIP3   OH2 7058   5.575   5.183   2.827  0.5526  0.1594  0.0151
 2351TIP3    H1 7059   5.590   5.239   2.751 -1.1183  2.0395  0.9893
 2351TIP3    H2 7060   5.660   5.177   2.871  0.6297  2.6144  0.2977
 2352TIP3   OH2 7061   5.091   2.222   0.614  0.3528  0.4781  0.4402
 2352TIP3    H1 7062   5.144   2.259   0.684  0.3684  2.9969 -0.7821
 2352TIP3    H2 7063   5.146   2.154   0.576  0.3660 -0.8883  2.7307
 2353TIP3   OH2 7064   2.520   2.752   3.307 -0.3854 -0.6857 -0.2768
 2353TIP3    H1 7065   2.575   2.809   3.360 -0.2255 -2.8029  2.0282
 2353TIP3    H2 7066   2.493   2.806   3.232  3.3690  0.9522 -0.6259
 2354TIP3   OH2 7067   5.717   4.362   2.297  0.3255  0.3427 -0.0923
 2354TIP3    H1 7068   5.751   4.409   2.221  0.8430  0.2237  0.0629
 2354TIP3    H2 7069   5.737   4.270   2.280 -0.3640  0.2049 -0.2268
 2355TIP3   OH2 7070   1.173   5.871   2.464 -0.1019 -0.3436 -0.1172
 2355TIP3    H1 7071   1.092   5.833   2.431  0.8661 -0.5103 -2.5294
 2355TIP3    H2 7072   1.198   5.816   2.538 -1.7979 -0.7165  0.1991
 2356TIP3   OH2 7073   2.774   4.515   4.710  0.0253 -0.0916  0.0760
 2356TIP3    H1 7074   2.755   4.438   4.763  1.3056 -0.3310  0.2339
 2356TIP3    H2 7075   2.809   4.479   4.628 -1.0454  0.2939 -0.5602
 2357TIP3   OH2 7076   5.284   4.865   4.731 -0.2655  0.5598  0.4314
 2357TIP3    H1 7077   5.373   4.862   4.697  0.3896 -1.0934  2.1298
 2357TIP3    H2 7078   5.229   4.833   4.659  0.7132 -0.0577 -0.0546
 2358TIP3   OH2 7079   0.538   5.625   1.539 -0.3246 -0.0674 -0.1262
 2358TIP3    H1 7080   0.596   5.701   1.542 -1.5213  0.8631  0.3641
 2358TIP3    H2 7081   0.530   5.596   1.630 -0.0038 -0.6971 -0.2897
 2359TIP3   OH2 7082   0.519   3.696   3.191  0.0733  0.4346  0.0470
 2359TIP3    H1 7083   0.607   3.726   3.213  0.4940 -0.5776 -0.2310
 2359TIP3    H2 7084   0.475   3.774   3.157  0.4626  1.2428  1.3026
 2360TIP3   OH2 7085   0.057   2.557  -0.027 -0.7541  0.1555  0.3050
 2360TIP3    H1 7086   0.023   2.548   0.062  0.2522  0.7362  0.7639
 2360TIP3    H2 7087   0.150   2.537  -0.019 -1.0887 -2.3917 -1.0855
 2361TIP3   OH2 7088   4.830   4.589   4.914  0.1272 -0.9407  0.4513
 2361TIP3    H1 7089   4.841   4.496   4.894 -2.0818 -1.6870  2.3049
 2361TIP3    H2 7090   4.736   4.600   4.927  0.1462  1.8970 -0.9880
 2362TIP3   OH2 7091   0.694   0.243   3.277  0.3875  0.1910  1.1367
 2362TIP3    H1 7092   0.770   0.287   3.239  0.2885 -0.3908  0.2243
 2362TIP3    H2 7093   0.712   0.241   3.371  1.7802 -0.4493  0.8890
 2363TIP3   OH2 7094   5.347   3.593   4.041  0.1497 -0.1213  0.5119
 2363TIP3    H1 7095   5.434   3.605   4.080  1.2342 -1.1523 -1.4593
 2363TIP3    H2 7096   5.358   3.620   3.950 -1.5592 -0.4949  0.1721
 2364TIP3   OH2 7097   0.555   1.955   2.492  0.4908  0.0251  0.7901
 2364TIP3    H1 7098   0.460   1.967   2.486  0.6198  0.7385  0.0160
 2364TIP3    H2 7099   0.585   2.035   2.536  0.6947 -0.4063  1.4501
 2365TIP3   OH2 7100   0.056   2.855   4.417 -0.1698  0.7039  0.4818
 2365TIP3    H1 7101   0.145   2.889   4.424 -0.0496  0.3237  0.8809
 2365TIP3    H2 7102   0.035   2.824   4.506 -1.0539  1.6546  0.6161
 2366TIP3   OH2 7103   2.691   0.813   4.154  0.2294  0.0628  0.7051
 2366TIP3    H1 7104   2.653   0.728   4.177 -0.1648  0.1889  0.5340
 2366TIP3    H2 7105   2.634   0.877   4.197 -0.7386  0.3248 -0.8576
 2367TIP3   OH2 7106   0.905   4.016   0.076  0.1341 -0.0810 -0.1805
 2367TIP3    H1 7107   0.939   4.030  -0.012 -2.5063  0.9825 -1.1501
 2367TIP3    H2 7108   0.900   3.920   0.084  2.3703 -0.2457 -0.3018
 2368TIP3   OH2 7109   2.009   3.690   0.606 -0.7223 -0.0981 -0.5481
 2368TIP3    H1 7110   2.002   3.737   0.689  1.2132  1.5008 -1.2107
 2368TIP3    H2 7111   1.919   3.678   0.578 -1.3632  0.8428  0.9693
 2369TIP3   OH2 7112   4.357   2.288   3.490  0.0378 -0.3123  0.2365
 2369TIP3    H1 7113   4.291   2.247   3.434 -1.8666  0.8115  1.5059
 2369TIP3    H2 7114   4.311   2.363   3.529  0.4674 -2.1312  4.8415
 2370TIP3   OH2 7115   3.928   4.193   3.272 -1.2715  0.5152  0.6497
 2370TIP3    H1 7116   3.924   4.234   3.186 -1.8913 -0.0522  0.4068
 2370TIP3    H2 7117   3.846   4.145   3.280 -0.5808 -0.6326  0.9610
 2371TIP3   OH2 7118   0.958   5.422   1.075  0.1238 -0.1951  0.9505
 2371TIP3    H1 7119   0.902   5.411   0.998  1.2338  0.2015  0.0524
 2371TIP3    H2 7120   0.903   5.397   1.149 -0.8114 -1.0830 -0.0136
 2372TIP3   OH2 7121   5.876   1.958   1.816  0.2129  0.2319  0.1519
 2372TIP3    H1 7122   5.835   2.039   1.785  0.1354 -0.8038 -2.7926
 2372TIP3    H2 7123   5.802   1.904   1.844  0.1291  0.6306  0.7048
 2373TIP3   OH2 7124   4.316   0.937   3.265 -0.0072  0.4379 -0.2726
 2373TIP3    H1 7125   4.265   0.926   3.345 -1.6569 -0.3026 -1.3823
 2373TIP3    H2 7126   4.378   0.864   3.265 -2.1380 -1.4870 -1.1703
 2374TIP3   OH2 7127   1.226   5.667   2.663 -0.8000  0.1403  0.0663
 2374TIP3    H1 7128   1.242   5.650   2.756  0.8521 -0.2898 -0.2712
 2374TIP3    H2 7129   1.158   5.604   2.639  0.8629 -1.8650  0.3178
 2375TIP3   OH2 7130   0.661   3.354   4.140  0.2402  0.2998 -0.0670
 2375TIP3    H1 7131   0.730   3.418   4.121 -1.5444  1.7205 -2.2350
 2375TIP3    H2 7132   0.629   3.378   4.227  2.2204 -0.2024  0.8452
 2376TIP3   OH2 7133   1.557   2.020   0.204  0.0084 -0.3426 -0.2150
 2376TIP3    H1 7134   1.465   2.043   0.192  0.2638  0.3280 -0.9583
 2376TIP3    H2 7135   1.559   1.925   0.197 -0.6448 -0.3766 -0.0378
 2377TIP3   OH2 7136   1.112   0.849   0.360  0.2175 -0.2183 -0.0779
 2377TIP3    H1 7137   1.171   0.853   0.284 -1.6918 -0.6998 -1.6678
 2377TIP3    H2 7138   1.101   0.755   0.376 -0.3216 -0.1354  0.0399
 2378TIP3   OH2 7139   4.240   0.550   2.936 -0.2939  0.0572  0.0117
 2378TIP3    H1 7140   4.227   0.503   2.854 -0.7406  0.4538 -0.1529
 2378TIP3    H2 7141   4.189   0.631   2.925 -0.4042  0.0850  0.6979
 2379TIP3   OH2 7142   6.210   1.901   2.958 -0.2058 -0.2741  0.0868
 2379TIP3    H1 7143   6.171   1.895   3.045 -0.7135  1.2334  0.0084
 2379TIP3    H2 7144   6.292   1.854   2.964  0.2124  0.5925  1.6647
 2380TIP3   OH2 7145   0.349   0.820   0.847 -0.3050 -0.5291  0.0370
 2380TIP3    H1 7146   0.283   0.756   0.820 -0.3119 -0.4243 -0.2028
 2380TIP3    H2 7147   0.432   0.785   0.813 -0.1354 -0.9854  0.8878
 2381TIP3   OH2 7148   3.392   2.940   2.731 -0.4445 -0.1555 -0.5731
 2381TIP3    H1 7149   3.439   3.018   2.761  0.8496 -1.2599  0.4170
 2381TIP3    H2 7150   3.313   2.938   2.783 -0.0067 -0.0230  0.1088
 2382TIP3   OH2 7151   4.509   2.618   0.820 -0.0500 -0.7337  0.4862
 2382TIP3    H1 7152   4.435   2.679   0.823 -1.3626 -2.1876 -0.6675
 2382TIP3    H2 7153   4.557   2.635   0.901 -0.3499  1.8086  0.2147
 2383TIP3   OH2 7154   3.725   3.822   3.535  0.3484 -0.0100  0.0114
 2383TIP3    H1 7155   3.699   3.746   3.484 -1.9088  0.5988  0.1417
 2383TIP3    H2 7156   3.673   3.816   3.616  2.5906 -0.0704  1.5303
 2384TIP3   OH2 7157   3.789   5.650   2.859  0.0266 -0.5426 -0.4418
 2384TIP3    H1 7158   3.873   5.695   2.863  0.1126 -0.7791  1.8538
 2384TIP3    H2 7159   3.810   5.560   2.834  0.8773 -1.3219  2.6532
 2385TIP3   OH2 7160   5.344   4.852   3.476  0.3950 -0.4780  0.1175
 2385TIP3    H1 7161   5.415   4.839   3.538  1.4609  2.1363 -0.4397
 2385TIP3    H2 7162   5.266   4.865   3.531  0.9210 -0.3059  0.8376
 2386TIP3   OH2 7163   3.942   1.276   1.396  0.7777 -0.5152  0.3355
 2386TIP3    H1 7164   3.940   1.257   1.490 -0.1149 -0.6145  0.3081
 2386TIP3    H2 7165   4.008   1.345   1.387 -1.3750  1.8950  1.5159
 2387TIP3   OH2 7166   4.185   4.158   0.912  0.4839  0.0408 -0.2013
 2387TIP3    H1 7167   4.194   4.064   0.898 -2.9964 -0.8217  2.1421
 2387TIP3    H2 7168   4.213   4.173   1.002  1.4143  1.3929 -0.6723
 2388TIP3   OH2 7169   1.200   1.645   4.314  0.8568 -0.0522 -0.0490
 2388TIP3    H1 7170   1.223   1.735   4.289 -0.6485 -0.3605 -2.9839
 2388TIP3    H2 7171   1.120   1.655   4.367 -0.0868  0.3421 -1.4777
 2389TIP3   OH2 7172   5.867   2.661   4.267  0.0253  0.1617 -0.0874
 2389TIP3    H1 7173   5.806   2.658   4.194  2.4816 -0.2393 -2.2846
 2389TIP3    H2 7174   5.834   2.597   4.329 -1.4187 -0.4921 -1.4805
 2390TIP3   OH2 7175   1.084   0.556   4.780 -0.2813  0.5511  0.2578
 2390TIP3    H1 7176   1.150   0.608   4.826 -0.4402  0.1307  0.9548
 2390TIP3    H2 7177   1.063   0.609   4.702  0.5723  0.8782  0.2412
 2391TIP3   OH2 7178   3.346   2.813   2.499  0.3059  0.6915 -0.1180
 2391TIP3    H1 7179   3.256   2.780   2.491  0.8188 -0.8515  0.1837
 2391TIP3    H2 7180   3.343   2.875   2.572  0.0450 -1.5555  1.8959
 2392TIP3   OH2 7181   2.256   0.920   1.974 -0.1330  0.1207  0.4766
 2392TIP3    H1 7182   2.259   1.010   1.941 -0.5563  0.4654  1.3498
 2392TIP3    H2 7183   2.204   0.925   2.054 -2.2515 -1.2828 -0.6905
 2393TIP3   OH2 7184   5.628   1.162   3.594  0.0722 -0.8802  0.0610
 2393TIP3    H1 7185   5.674   1.161   3.510  0.0093 -0.3398  0.0175
 2393TIP3    H2 7186   5.537   1.140   3.572  0.0885 -0.8980  0.0111
 2394TIP3   OH2 7187   1.243   1.020   2.664  0.1527  0.4016 -0.1488
 2394TIP3    H1 7188   1.254   1.045   2.756  1.6704 -0.3977 -0.0768
 2394TIP3    H2 7189   1.191   0.940   2.667 -0.0276  0.5234 -0.0033
 2395TIP3   OH2 7190   5.517   4.302   4.777 -0.2893 -0.2767 -0.3784
 2395TIP3    H1 7191   5.609   4.308   4.754 -0.1647 -0.7171 -0.0171
 2395TIP3    H2 7192   5.471   4.346   4.705  0.1193 -1.1713 -1.2247
 2396TIP3   OH2 7193   3.041   4.947   3.726 -0.5602 -0.5228  0.7298
 2396TIP3    H1 7194   3.083   4.965   3.641  1.6329 -1.0886  1.6425
 2396TIP3    H2 7195   2.998   4.862   3.714 -0.0194 -0.7371  0.2533
 2397TIP3   OH2 7196   0.703   5.124   3.475  0.0063 -0.5404  0.4982
 2397TIP3    H1 7197   0.634   5.060   3.456  0.0340 -0.7732  1.1395
 2397TIP3    H2 7198   0.697   5.138   3.570 -0.8449  1.3966  0.2003
 2398TIP3   OH2 7199   5.364   1.515   1.029 -0.0796 -0.5255 -0.8067
 2398TIP3    H1 7200   5.326   1.599   1.055 -0.9016 -1.3266  0.7064
 2398TIP3    H2 7201   5.451   1.539   0.995  0.5896  0.7952  1.5657
 2399TIP3   OH2 7202   1.471   5.795   1.286 -0.3355  0.2813  0.0815
 2399TIP3    H1 7203   1.474   5.765   1.377 -1.7464 -0.6168 -0.1232
 2399TIP3    H2 7204   1.455   5.715   1.236 -1.1849  0.9758 -0.7910
 2400TIP3   OH2 7205   5.116   1.412   0.934  0.3923 -0.3714  0.7256
 2400TIP3    H1 7206   5.188   1.461   0.973  1.2963 -0.4537 -0.7996
 2400TIP3    H2 7207   5.038   1.462   0.957  1.1668  1.0496  0.3352
 2401TIP3   OH2 7208   0.589   2.889   4.816 -0.2000  0.5799 -0.3078
 2401TIP3    H1 7209   0.634   2.834   4.752 -0.3701  0.7549 -0.5791
 2401TIP3    H2 7210   0.640   2.971   4.816 -2.2105  1.9704 -2.8562
 2402TIP3   OH2 7211   6.112   0.315   5.085 -0.1409 -0.0242  0.4503
 2402TIP3    H1 7212   6.032   0.291   5.038 -0.7633 -0.4820  1.6965
 2402TIP3    H2 7213   6.137   0.400   5.049  0.0546 -0.8436 -1.4905
 2403TIP3   OH2 7214   0.341   4.801   0.424  0.5206  0.0802  0.0243
 2403TIP3    H1 7215   0.328   4.828   0.333 -1.1360 -0.4537  0.0572
 2403TIP3    H2 7216   0.288   4.863   0.475 -1.0394 -1.4363  0.3315
 2404TIP3   OH2 7217   0.783   2.785   3.268 -0.5078 -0.2045  0.8042
 2404TIP3    H1 7218   0.739   2.782   3.183 -0.4113  0.3903  0.7228
 2404TIP3    H2 7219   0.875   2.801   3.246 -0.9042  3.1725  1.0556
 2405TIP3   OH2 7220   3.287   0.110   4.258  0.1838  0.1917  0.5004
 2405TIP3    H1 7221   3.192   0.100   4.252  0.0463  0.0530  2.2200
 2405TIP3    H2 7222   3.320   0.022   4.241  0.3096  0.7934 -3.3205
 2406TIP3   OH2 7223   6.249   0.027   0.994  0.2752  0.0405 -0.0884
 2406TIP3    H1 7224   6.292  -0.048   1.034 -1.4843 -1.8949 -1.5516
 2406TIP3    H2 7225   6.319   0.073   0.946  1.4471 -0.4307  1.1213
 2407TIP3   OH2 7226   2.707   4.535   1.264  0.4198 -0.4502 -0.7096
 2407TIP3    H1 7227   2.674   4.588   1.191 -0.2760 -0.7554 -0.6236
 2407TIP3    H2 7228   2.648   4.459   1.267 -0.2111  0.0685  0.8311
 2408TIP3   OH2 7229   0.012   5.546   4.501  0.1213 -0.5208 -0.3038
 2408TIP3    H1 7230  -0.015   5.620   4.556  2.8875  0.1974  0.2621
 2408TIP3    H2 7231   0.016   5.471   4.562  0.4277 -0.3751 -0.1397
 2409TIP3   OH2 7232   2.031   2.088   0.680  0.0983  0.0018 -0.4367
 2409TIP3    H1 7233   2.091   2.144   0.631 -2.4822  2.3203 -1.2535
 2409TIP3    H2 7234   1.999   2.024   0.616  2.1647 -1.7902  0.2053
 2410TIP3   OH2 7235   3.593   2.715   2.037  0.2951  0.1504 -0.5489
 2410TIP3    H1 7236   3.505   2.737   2.006  0.1210 -0.7080 -0.6919
 2410TIP3    H2 7237   3.647   2.788   2.008 -0.4579  0.9655  0.0140
 2411TIP3   OH2 7238   2.143   5.795   1.380 -0.0515  0.2154  0.5799
 2411TIP3    H1 7239   2.143   5.704   1.350  1.4260  0.5121 -0.4172
 2411TIP3    H2 7240   2.225   5.804   1.428 -0.3638  0.9542  0.9937
 2412TIP3   OH2 7241   4.996   0.917   4.310  0.2818  0.0057 -0.0873
 2412TIP3    H1 7242   4.929   0.985   4.310  0.8975  0.6399 -0.8971
 2412TIP3    H2 7243   4.966   0.855   4.243 -0.9973 -1.2944  1.6150
 2413TIP3   OH2 7244   2.355   4.722   3.753  0.1131  0.4530 -0.3873
 2413TIP3    H1 7245   2.267   4.746   3.726 -0.9119  0.3360  2.5216
 2413TIP3    H2 7246   2.392   4.802   3.789  0.0926 -0.1261  0.9955
 2414TIP3   OH2 7247   2.318   0.726   3.099 -0.0687  0.0868  0.0581
 2414TIP3    H1 7248   2.244   0.672   3.127 -0.0919  0.1301  0.0807
 2414TIP3    H2 7249   2.343   0.776   3.177 -0.1201  0.1922  0.0081
 2415TIP3   OH2 7250   1.823   0.798   1.834 -0.0162  0.6441  0.3189
 2415TIP3    H1 7251   1.909   0.759   1.817 -0.4487 -0.8254  1.2673
 2415TIP3    H2 7252   1.840   0.892   1.837  1.5525  0.3985  0.3791
 2416TIP3   OH2 7253   5.189   5.939   3.002 -0.6199 -0.8352  0.3033
 2416TIP3    H1 7254   5.213   5.851   3.029  0.5853 -0.6990 -0.2259
 2416TIP3    H2 7255   5.220   5.945   2.911 -1.3145 -0.0985  0.0997
 2417TIP3   OH2 7256   6.284   3.675   3.388 -0.2752 -0.1431 -0.0722
 2417TIP3    H1 7257   6.347   3.660   3.458 -0.8969 -1.6825  0.1996
 2417TIP3    H2 7258   6.297   3.766   3.363  0.7446  0.1063  1.2627
 2418TIP3   OH2 7259   6.103   4.087   1.424  0.0758  0.5820 -0.3304
 2418TIP3    H1 7260   6.148   4.048   1.348 -0.7824 -1.1487 -0.0216
 2418TIP3    H2 7261   6.076   4.011   1.476  0.2042  1.7243  1.4683
 2419TIP3   OH2 7262   4.021   2.176   3.739  0.1594 -0.5133  0.3394
 2419TIP3    H1 7263   4.009   2.156   3.646 -1.2767 -1.3181  0.6713
 2419TIP3    H2 7264   3.949   2.131   3.783  0.6396  0.1007  1.8222
 2420TIP3   OH2 7265   2.527   4.848   1.277 -0.4832  0.6004  0.1990
 2420TIP3    H1 7266   2.509   4.805   1.360  1.4587 -1.9289 -0.5585
 2420TIP3    H2 7267   2.463   4.811   1.216  0.6286 -0.6218 -0.2617
 2421TIP3   OH2 7268   2.133   2.635   0.143  0.3246 -0.2074 -0.2032
 2421TIP3    H1 7269   2.143   2.600   0.232 -0.9512 -1.1640 -0.4023
 2421TIP3    H2 7270   2.127   2.730   0.155  0.7942 -0.2772  0.6653
 2422TIP3   OH2 7271   2.148   5.536   0.626 -0.1983 -0.2615 -0.5781
 2422TIP3    H1 7272   2.103   5.547   0.709 -1.8800 -2.9505 -0.9943
 2422TIP3    H2 7273   2.088   5.483   0.573  2.9376 -3.1722 -1.5949
 2423TIP3   OH2 7274   0.338   0.645   1.236 -0.0569 -0.0744  0.2711
 2423TIP3    H1 7275   0.360   0.727   1.192  0.9500  0.5555  1.8785
 2423TIP3    H2 7276   0.253   0.662   1.276 -1.5536 -1.0253 -2.2011
 2424TIP3   OH2 7277   1.527   2.897   5.103 -0.0455  0.2059 -0.0438
 2424TIP3    H1 7278   1.531   2.991   5.087 -0.0155  0.3028  0.5112
 2424TIP3    H2 7279   1.452   2.886   5.161 -0.6167 -0.2243 -0.8529
 2425TIP3   OH2 7280   3.993   0.930   1.968 -0.3984 -0.0388  0.0820
 2425TIP3    H1 7281   4.016   0.929   1.875  0.6419 -1.5133  0.3220
 2425TIP3    H2 7282   4.077   0.929   2.014 -0.7934 -3.2279  0.9928
 2426TIP3   OH2 7283   1.392   0.481   3.234  0.0363  0.3537 -0.6574
 2426TIP3    H1 7284   1.327   0.416   3.261  1.4580 -0.7396  0.2685
 2426TIP3    H2 7285   1.369   0.560   3.283  0.4104 -0.5345  1.0203
 2427TIP3   OH2 7286   6.148   3.179   4.076 -0.6344  0.4158  0.3568
 2427TIP3    H1 7287   6.208   3.135   4.136  0.8242 -0.0353 -1.3332
 2427TIP3    H2 7288   6.089   3.110   4.047 -1.9185  0.8217  1.8839
 2428TIP3   OH2 7289   5.420   4.453   2.861  0.0033 -0.0494  0.3751
 2428TIP3    H1 7290   5.334   4.485   2.887  0.2916  0.6455  0.4709
 2428TIP3    H2 7291   5.444   4.391   2.931 -0.8005 -0.9418 -0.1096
 2429TIP3   OH2 7292   2.054   0.974   3.343  0.2035 -0.3928  0.1823
 2429TIP3    H1 7293   2.018   0.924   3.270 -1.7116  0.0517  0.7590
 2429TIP3    H2 7294   2.115   1.036   3.303 -0.4118 -0.5201 -0.9669
 2430TIP3   OH2 7295   6.080   3.628   2.306  0.3207  0.5166  0.3728
 2430TIP3    H1 7296   6.146   3.676   2.356  0.9641 -1.4719  1.5397
 2430TIP3    H2 7297   6.078   3.540   2.345 -1.9785  0.0510 -0.5782
 2431TIP3   OH2 7298   1.721   3.591   2.608  0.3230 -0.9560  0.2882
 2431TIP3    H1 7299   1.694   3.601   2.517 -0.8593 -0.6183  0.6675
 2431TIP3    H2 7300   1.748   3.499   2.616 -3.8578 -2.3293  0.6696
 2432TIP3   OH2 7301   1.915   1.025   4.751  0.2415  0.3074 -0.9388
 2432TIP3    H1 7302   1.906   1.015   4.846 -0.3790  1.3088 -0.8737
 2432TIP3    H2 7303   1.993   1.078   4.740 -0.3386  1.1846 -0.9154
 2433TIP3   OH2 7304   0.002   5.102   4.978 -0.0537  0.1670 -0.1325
 2433TIP3    H1 7305  -0.038   5.020   5.008 -0.1012 -0.2537 -1.2860
 2433TIP3    H2 7306   0.052   5.133   5.053 -1.8212  0.2620  1.0814
 2434TIP3   OH2 7307   2.784   5.310   5.077  0.2919  0.2916 -0.1513
 2434TIP3    H1 7308   2.833   5.235   5.045  0.2049 -0.3172  1.0875
 2434TIP3    H2 7309   2.843   5.353   5.140 -0.2274  0.3475  0.3099
 2435TIP3   OH2 7310   0.805   1.549   1.031  0.3918  0.3486  0.2005
 2435TIP3    H1 7311   0.867   1.559   1.104  0.5074  2.6925 -0.1375
 2435TIP3    H2 7312   0.742   1.620   1.044 -0.2869  0.0530 -1.3261
 2436TIP3   OH2 7313   3.988   3.297   2.046 -0.3961  0.0397  0.0478
 2436TIP3    H1 7314   4.080   3.279   2.062 -0.0566  1.2329 -0.4898
 2436TIP3    H2 7315   3.944   3.269   2.127  0.5230  0.1656  0.6062
 2437TIP3   OH2 7316   4.390   2.934   3.697 -0.6108  0.1092  0.1363
 2437TIP3    H1 7317   4.401   3.028   3.683 -0.3351 -0.0360 -0.6427
 2437TIP3    H2 7318   4.394   2.924   3.792  5.1129  0.2535  0.2702
 2438TIP3   OH2 7319   5.821   0.174   5.203  0.1926  0.5386  0.1279
 2438TIP3    H1 7320   5.821   0.198   5.111 -0.1173 -0.1345 -0.0570
 2438TIP3    H2 7321   5.900   0.121   5.214  1.7485  2.8764  0.8925
 2439TIP3   OH2 7322   4.219   5.097   3.507 -0.2377  0.3239  0.1313
 2439TIP3    H1 7323   4.130   5.081   3.536  0.0569  0.4869  1.1718
 2439TIP3    H2 7324   4.211   5.169   3.444 -0.6724  1.5126  1.4894
 2440TIP3   OH2 7325   3.468   4.295   1.796  0.4511  0.2259  0.7899
 2440TIP3    H1 7326   3.439   4.360   1.733 -1.0286  0.4822  1.7038
 2440TIP3    H2 7327   3.547   4.333   1.834  1.0220  0.3362 -0.4388
 2441TIP3   OH2 7328   0.266   5.957   3.353 -0.2702  0.0980  0.0107
 2441TIP3    H1 7329   0.243   5.888   3.290  0.6756 -1.4791  1.3261
 2441TIP3    H2 7330   0.295   5.910   3.431 -2.5713  1.9362  2.1511
 2442TIP3   OH2 7331   3.755   2.348   2.834  0.2643 -0.2748  0.0515
 2442TIP3    H1 7332   3.851   2.354   2.843  0.0999  0.9894  1.4077
 2442TIP3    H2 7333   3.723   2.351   2.924 -1.1683  2.2936 -0.4465
 2443TIP3   OH2 7334   4.511   3.046   1.227  0.7155 -0.3703  0.1680
 2443TIP3    H1 7335   4.510   3.057   1.132  4.0636 -0.4797  0.0258
 2443TIP3    H2 7336   4.453   3.114   1.260 -1.5169 -1.1123 -1.9422
 2444TIP3   OH2 7337   4.643   2.618   4.423 -0.5172  0.0178 -0.6776
 2444TIP3    H1 7338   4.661   2.645   4.514 -1.9082  0.7295 -0.5797
 2444TIP3    H2 7339   4.722   2.643   4.375 -0.2362  0.7577  0.1307
 2445TIP3   OH2 7340   6.355   3.979   3.975 -0.1346  0.0709 -0.0475
 2445TIP3    H1 7341   6.266   3.948   3.991  0.5809 -0.4257  3.7163
 2445TIP3    H2 7342   6.408   3.899   3.972  0.4586  0.4684 -0.3779
 2446TIP3   OH2 7343   2.941   1.746   1.037  0.3458 -0.7126  0.5214
 2446TIP3    H1 7344   3.036   1.754   1.028  0.2608  2.9353  1.3478
 2446TIP3    H2 7345   2.918   1.808   1.107 -2.7123 -1.0332 -0.0670
 2447TIP3   OH2 7346   2.147   4.032   0.939 -0.5073  0.5987 -0.3115
 2447TIP3    H1 7347   2.072   3.975   0.922  0.5340 -1.1301  0.6034
 2447TIP3    H2 7348   2.185   4.047   0.853  0.7988 -2.4590 -0.4007
 2448TIP3   OH2 7349   5.511   4.078   3.767  0.1271 -0.1657  0.5121
 2448TIP3    H1 7350   5.428   4.046   3.732  0.3966 -0.3736  0.0652
 2448TIP3    H2 7351   5.571   4.004   3.758 -0.1861 -0.7987  2.8548
 2449TIP3   OH2 7352   1.500   3.046   0.786 -0.6537  0.0717  0.0902
 2449TIP3    H1 7353   1.576   3.004   0.827  0.1596  1.4737  0.0820
 2449TIP3    H2 7354   1.427   3.021   0.842  0.1140  0.2108  1.1971
 2450TIP3   OH2 7355   2.718   0.029   4.246 -0.1386  0.8247  0.4346
 2450TIP3    H1 7356   2.762   0.104   4.286  2.1460 -0.1852 -0.0472
 2450TIP3    H2 7357   2.781  -0.043   4.254  0.2709  0.3573 -4.2767
 2451TIP3   OH2 7358   1.054   0.362   3.620  0.2263 -0.3316  0.2694
 2451TIP3    H1 7359   1.129   0.327   3.668 -0.7549  0.1039  2.2143
 2451TIP3    H2 7360   0.987   0.374   3.687 -1.6786 -0.9312 -1.4529
 2452TIP3   OH2 7361   2.984   0.053   3.701  0.5975 -0.1713 -0.2461
 2452TIP3    H1 7362   3.041   0.035   3.626  2.1077  1.5086  0.4392
 2452TIP3    H2 7363   2.905   0.091   3.664  0.7457 -0.6369 -1.0571
 2453TIP3   OH2 7364   3.529   4.266   0.315  0.1265 -0.1262 -0.0875
 2453TIP3    H1 7365   3.540   4.319   0.236 -1.8209 -0.6971 -0.7913
 2453TIP3    H2 7366   3.467   4.315   0.369  1.9464  0.5983  1.4592
 2454TIP3   OH2 7367   5.459   3.477   2.424 -0.3905 -0.2091 -0.1098
 2454TIP3    H1 7368   5.542   3.525   2.422 -0.5319  0.0442  0.0693
 2454TIP3    H2 7369   5.456   3.431   2.340 -0.7841  1.0154 -0.7946
 2455TIP3   OH2 7370   0.235   5.125  -0.004 -0.6884 -0.1530  0.0840
 2455TIP3    H1 7371   0.238   5.220  -0.011 -0.8622 -0.1724 -0.2571
 2455TIP3    H2 7372   0.196   5.108   0.082  3.0732  0.0918  2.0505
 2456TIP3   OH2 7373   0.016   3.573   2.591 -0.1263 -0.5418  0.2809
 2456TIP3    H1 7374   0.026   3.516   2.515  0.5250 -0.5149  0.3358
 2456TIP3    H2 7375   0.009   3.661   2.555  1.4651 -0.3817  0.2719
 2457TIP3   OH2 7376   1.767   4.765   4.272  0.1565 -0.3827  0.2956
 2457TIP3    H1 7377   1.825   4.713   4.216 -1.3002 -1.3935 -0.3570
 2457TIP3    H2 7378   1.727   4.829   4.212 -0.6662 -0.8213  0.3634
 2458TIP3   OH2 7379   0.510   3.415   0.932 -0.1967  0.0877 -0.0461
 2458TIP3    H1 7380   0.479   3.403   1.022  0.9855  0.1881  0.3832
 2458TIP3    H2 7381   0.496   3.508   0.914  1.0913  0.4404  0.6411
 2459TIP3   OH2 7382   1.139   0.089   3.449  0.8832  0.5897  0.1635
 2459TIP3    H1 7383   1.202   0.076   3.520  0.7837  0.7075  0.2747
 2459TIP3    H2 7384   1.179   0.156   3.393 -0.4743  3.0237  1.8761
 2460TIP3   OH2 7385   4.561   2.540   1.602 -0.5051 -0.1912 -0.2490
 2460TIP3    H1 7386   4.630   2.480   1.575  0.2974  0.2132  0.8209
 2460TIP3    H2 7387   4.551   2.523   1.696  0.9138  2.4457  0.4731
 2461TIP3   OH2 7388   1.451   5.325   0.996 -0.0329  0.7082 -0.3915
 2461TIP3    H1 7389   1.479   5.342   1.086 -1.5537 -0.8257  0.4436
 2461TIP3    H2 7390   1.365   5.367   0.990 -0.1588  0.3760 -0.9608
 2462TIP3   OH2 7391   2.133   3.489   0.495 -0.2329 -0.1980 -0.1921
 2462TIP3    H1 7392   2.096   3.572   0.526  3.3207  0.9399  1.5477
 2462TIP3    H2 7393   2.163   3.445   0.575  1.2398 -1.4003 -1.3431
 2463TIP3   OH2 7394   3.019   1.351   0.386 -0.4218 -0.2545 -0.1113
 2463TIP3    H1 7395   2.981   1.332   0.300 -0.5002  0.4241 -0.2331
 2463TIP3    H2 7396   3.002   1.272   0.438 -0.7232 -0.5154 -0.5992
 2464TIP3   OH2 7397   2.386   4.664   4.575 -0.1370  0.0843  0.2581
 2464TIP3    H1 7398   2.344   4.750   4.574  1.2235  0.7892 -1.3677
 2464TIP3    H2 7399   2.350   4.617   4.500 -0.0713 -0.3539  0.4932
 2465TIP3   OH2 7400   3.070   2.746   3.105 -0.0468  0.3784  0.0524
 2465TIP3    H1 7401   3.096   2.664   3.147 -1.3387 -0.5735 -0.9042
 2465TIP3    H2 7402   2.977   2.754   3.125 -0.1177  1.1919 -0.5653
 2466TIP3   OH2 7403   2.551   4.860   4.216  0.6294 -0.1500  0.3556
 2466TIP3    H1 7404   2.508   4.945   4.206 -0.7507 -0.7870  0.5983
 2466TIP3    H2 7405   2.583   4.840   4.128  2.2472  1.2416  0.5840
 2467TIP3   OH2 7406   2.484   3.536   0.468  0.6350  0.3592 -0.6789
 2467TIP3    H1 7407   2.394   3.507   0.477  0.4480  1.0733 -0.2230
 2467TIP3    H2 7408   2.532   3.486   0.535  0.5527  0.1107 -0.8030
 2468TIP3   OH2 7409   5.196   3.373   2.032 -0.0789 -0.0563 -0.2377
 2468TIP3    H1 7410   5.181   3.460   1.995  0.4815  0.0142 -0.3069
 2468TIP3    H2 7411   5.135   3.368   2.106 -0.7601  0.0376 -0.7805
 2469TIP3   OH2 7412   0.985   2.449   1.336  0.9547 -0.0104 -0.0879
 2469TIP3    H1 7413   1.008   2.482   1.249  0.7133  0.9816  0.2135
 2469TIP3    H2 7414   0.927   2.375   1.320  1.0152  0.0885 -0.7693
 2470TIP3   OH2 7415   2.517   0.602   1.033 -0.5328  0.1792 -0.0653
 2470TIP3    H1 7416   2.431   0.584   0.994 -0.5423 -0.5796  0.2843
 2470TIP3    H2 7417   2.501   0.672   1.097 -0.8212  0.2879 -0.2554
 2471TIP3   OH2 7418   3.220   0.150   3.800 -0.1030  0.6785  0.1206
 2471TIP3    H1 7419   3.225   0.165   3.894  2.2537  0.4173  0.0730
 2471TIP3    H2 7420   3.132   0.114   3.787 -0.8077  1.5183  2.0692
 2472TIP3   OH2 7421   2.473   3.917   5.052 -0.0035 -0.2816 -0.0192
 2472TIP3    H1 7422   2.436   4.002   5.029  0.5344  0.0979  0.5095
 2472TIP3    H2 7423   2.563   3.935   5.077  0.6926 -1.2386 -1.6229
 2473TIP3   OH2 7424   2.179   1.207   0.330  0.2930  0.2645 -0.1401
 2473TIP3    H1 7425   2.231   1.156   0.392  1.1081  1.5048  0.2415
 2473TIP3    H2 7426   2.222   1.195   0.246  0.4004  0.1980 -0.0758
 2474TIP3   OH2 7427   4.039   2.789   4.902 -0.1623 -0.5420 -0.1886
 2474TIP3    H1 7428   3.971   2.845   4.866  0.6940  2.3171  2.3032
 2474TIP3    H2 7429   4.093   2.765   4.826  0.0883  3.0231 -1.2848
 2475TIP3   OH2 7430   3.118   2.811   5.055 -0.6698  0.2257 -0.3680
 2475TIP3    H1 7431   3.069   2.774   5.128  1.1202 -1.5349  0.0274
 2475TIP3    H2 7432   3.129   2.903   5.077  0.0137 -0.2975  1.7173
 2476TIP3   OH2 7433   5.691   5.473   2.528 -0.0092 -0.2291  0.2684
 2476TIP3    H1 7434   5.604   5.447   2.558  0.7347 -0.5548  2.3226
 2476TIP3    H2 7435   5.745   5.395   2.541  1.1052  0.6949  1.4094
 2477TIP3   OH2 7436   0.501   4.848   3.768 -0.2977  0.2178 -0.0224
 2477TIP3    H1 7437   0.413   4.813   3.755 -0.0038 -0.6674  0.2761
 2477TIP3    H2 7438   0.538   4.795   3.839  0.8887 -0.2343 -0.9284
 2478TIP3   OH2 7439   3.917   3.392   3.424 -0.4673  0.2968  0.4797
 2478TIP3    H1 7440   3.905   3.403   3.518 -0.9154 -0.5209  0.5304
 2478TIP3    H2 7441   3.947   3.301   3.415 -1.6945 -0.0588 -0.2529
 2479TIP3   OH2 7442   3.651   2.868   2.929  0.2723 -0.4267  0.2361
 2479TIP3    H1 7443   3.581   2.864   2.864 -1.0581 -1.9803  1.6657
 2479TIP3    H2 7444   3.731   2.850   2.879 -0.7543 -2.0038 -0.9409
 2480TIP3   OH2 7445   0.328   0.399   4.195  0.1654  0.2120 -0.0272
 2480TIP3    H1 7446   0.268   0.335   4.234  0.4337 -0.9458 -1.4228
 2480TIP3    H2 7447   0.414   0.358   4.200  0.4398  0.7257 -0.3781
 2481TIP3   OH2 7448   2.737   2.040   1.481 -0.4659 -0.1108 -0.3821
 2481TIP3    H1 7449   2.718   2.117   1.428  2.1466 -0.4932 -2.0427
 2481TIP3    H2 7450   2.798   2.070   1.548  0.0751 -0.6017 -0.6465
 2482TIP3   OH2 7451   4.310   1.979   1.438 -0.4307 -0.2905  0.4260
 2482TIP3    H1 7452   4.383   2.034   1.468  0.9375 -0.9011 -1.5847
 2482TIP3    H2 7453   4.243   2.042   1.412  0.0450  0.3434  0.6818
 2483TIP3   OH2 7454   1.211   2.478   0.522 -0.1903  0.1878 -0.1552
 2483TIP3    H1 7455   1.134   2.422   0.515 -0.9600  1.3907 -1.9612
 2483TIP3    H2 7456   1.284   2.422   0.496 -0.2856 -1.1541  2.1914
 2484TIP3   OH2 7457   3.702   5.037   2.150  0.3150  0.2741  0.5488
 2484TIP3    H1 7458   3.762   5.070   2.084  0.6657 -0.9514  0.2211
 2484TIP3    H2 7459   3.618   5.080   2.130  1.0264  1.9170  0.9554
 2485TIP3   OH2 7460   2.296   1.777   1.464  0.9441  0.4541 -0.2309
 2485TIP3    H1 7461   2.252   1.822   1.536  0.2862 -2.0208  1.0453
 2485TIP3    H2 7462   2.387   1.804   1.470  0.7723  0.8017  1.1480
 2486TIP3   OH2 7463   4.111   5.221   4.180 -0.4836 -0.0403 -0.2723
 2486TIP3    H1 7464   4.094   5.252   4.269 -1.4209  0.9367 -0.7723
 2486TIP3    H2 7465   4.081   5.131   4.179 -0.3197 -0.1065  0.4438
 2487TIP3   OH2 7466   1.338   4.917   3.920  1.3573 -0.4023  0.3792
 2487TIP3    H1 7467   1.405   4.971   3.879 -0.4638  1.1168 -0.7776
 2487TIP3    H2 7468   1.300   4.973   3.987 -0.3697 -0.2871 -0.6367
 2488TIP3   OH2 7469   4.296   1.893   4.270 -0.1013 -0.0867  0.3378
 2488TIP3    H1 7470   4.282   1.986   4.255  1.2665 -0.0219 -0.7084
 2488TIP3    H2 7471   4.382   1.875   4.232  0.1361 -1.5593  1.4850
 2489TIP3   OH2 7472   3.598   0.923   2.331 -0.0474  0.0951 -0.0872
 2489TIP3    H1 7473   3.645   0.938   2.412 -0.9579  1.9806  0.1597
 2489TIP3    H2 7474   3.661   0.946   2.262  0.4193 -0.5852  0.1043
 2490TIP3   OH2 7475   1.326   3.309   1.077 -0.0876 -0.4766  0.1507
 2490TIP3    H1 7476   1.240   3.267   1.076 -0.0911 -0.5893  1.7673
 2490TIP3    H2 7477   1.316   3.385   1.020 -1.5264 -0.0041  0.9724
 2491TIP3   OH2 7478   5.544   2.313   1.886 -0.2366  0.1266  0.8262
 2491TIP3    H1 7479   5.516   2.386   1.831 -0.9308  0.2092  1.2806
 2491TIP3    H2 7480   5.463   2.268   1.909 -0.1190  0.8862  2.8915
 2492TIP3   OH2 7481   2.778   3.752   2.545 -0.4180 -0.6629 -0.9799
 2492TIP3    H1 7482   2.723   3.730   2.469 -0.1689 -0.7231 -1.1418
 2492TIP3    H2 7483   2.759   3.844   2.562  0.5404 -0.2827 -1.9525
 2493TIP3   OH2 7484   1.773   3.528   0.324  0.3476 -0.4754  0.5548
 2493TIP3    H1 7485   1.842   3.482   0.277 -0.4915  0.0775 -1.2836
 2493TIP3    H2 7486   1.820   3.589   0.381  1.5030  1.7664 -2.5311
 2494TIP3   OH2 7487   3.243   3.689   0.552 -0.1391 -0.7454 -0.1785
 2494TIP3    H1 7488   3.171   3.709   0.611 -1.1674 -0.7892 -1.3773
 2494TIP3    H2 7489   3.316   3.742   0.584 -0.6520 -0.7880  1.1269
 2495TIP3   OH2 7490   0.947   5.466   2.421 -0.2100  0.3186  0.4202
 2495TIP3    H1 7491   0.862   5.469   2.465 -0.2969 -0.6191  0.3378
 2495TIP3    H2 7492   1.002   5.411   2.478 -0.0148 -0.0405 -0.1064
 2496TIP3   OH2 7493   0.989   2.228   4.017 -0.3290  0.2126 -0.1438
 2496TIP3    H1 7494   1.080   2.242   3.991 -0.0999 -1.0772 -0.0880
 2496TIP3    H2 7495   0.953   2.316   4.026  1.1793  0.7667  0.7870
 2497TIP3   OH2 7496   2.558   3.413   4.050  0.4591 -0.5734 -1.0118
 2497TIP3    H1 7497   2.490   3.446   4.109  1.9382  0.7593  0.0058
 2497TIP3    H2 7498   2.573   3.323   4.079  0.1575 -0.3945 -0.2834
 2498TIP3   OH2 7499   4.651   1.802   1.093  0.5634 -0.0486 -0.0985
 2498TIP3    H1 7500   4.605   1.719   1.078 -0.2989  0.7312 -2.1169
 2498TIP3    H2 7501   4.623   1.829   1.180 -1.9299 -0.1865 -0.7876
 2499TIP3   OH2 7502   4.316   3.564   4.851  0.0109  0.4586 -0.1373
 2499TIP3    H1 7503   4.392   3.534   4.902  0.9869  2.1562 -0.5227
 2499TIP3    H2 7504   4.343   3.554   4.760 -0.7812 -0.2209 -0.3080
 2500TIP3   OH2 7505   5.818   5.983   4.579  0.1786 -0.1668 -0.0223
 2500TIP3    H1 7506   5.842   5.993   4.487  0.8732  0.2931  0.2004
 2500TIP3    H2 7507   5.842   5.892   4.600  0.2541 -0.1961 -0.2295
 2501TIP3   OH2 7508   4.695   5.657   3.370  0.6924  0.7597 -0.8378
 2501TIP3    H1 7509   4.651   5.712   3.435  0.0262 -0.3133 -0.3491
 2501TIP3    H2 7510   4.775   5.629   3.414  0.5414  0.5370 -0.6984
 2502TIP3   OH2 7511   4.270   0.786   2.603  0.3676  0.2782  0.1634
 2502TIP3    H1 7512   4.216   0.807   2.679 -0.3692  0.2788 -0.3406
 2502TIP3    H2 7513   4.218   0.722   2.554  2.2372 -2.2954  1.3102
 2503TIP3   OH2 7514   5.882   3.863   1.380 -0.4827  0.2317  0.5853
 2503TIP3    H1 7515   5.791   3.889   1.393 -0.3992  0.9479 -0.1377
 2503TIP3    H2 7516   5.893   3.785   1.434 -1.5227  0.1411  0.6868
 2504TIP3   OH2 7517   4.962   5.284   3.489 -0.3209  0.1489 -0.4128
 2504TIP3    H1 7518   4.941   5.238   3.408 -2.0330 -0.1801  0.1864
 2504TIP3    H2 7519   4.959   5.377   3.465 -1.6260  0.0826 -0.5717
 2505TIP3   OH2 7520   4.623   1.561   0.248  0.4210 -0.5001 -0.0600
 2505TIP3    H1 7521   4.707   1.531   0.283  1.1871 -1.0271 -2.2258
 2505TIP3    H2 7522   4.628   1.656   0.249 -0.0748 -0.4436  2.3092
 2506TIP3   OH2 7523   4.518   4.182   5.019  0.4203 -0.8659  0.2717
 2506TIP3    H1 7524   4.546   4.095   4.992  0.0671 -1.0613  0.5400
 2506TIP3    H2 7525   4.430   4.191   4.984  0.7468 -0.3077 -0.4410
 2507TIP3   OH2 7526   2.900   2.930   0.668  0.2750 -0.0829 -0.0122
 2507TIP3    H1 7527   2.844   2.864   0.707 -0.2996  0.2973 -0.1722
 2507TIP3    H2 7528   2.860   2.947   0.582 -0.1041  1.0904  0.3756
 2508TIP3   OH2 7529   3.130   5.609   4.571 -0.1382 -0.4081  0.0278
 2508TIP3    H1 7530   3.204   5.634   4.516 -2.5961 -0.5421 -3.6763
 2508TIP3    H2 7531   3.095   5.692   4.604  1.0704 -0.2956  1.1260
 2509TIP3   OH2 7532   4.227   0.590   2.196  0.2286 -0.4641 -0.0385
 2509TIP3    H1 7533   4.191   0.580   2.108  1.3404 -1.4329 -0.4159
 2509TIP3    H2 7534   4.322   0.596   2.182  0.2785  3.1755  0.8014
 2510TIP3   OH2 7535   3.104   2.032   4.356  0.1944 -0.5160  0.0951
 2510TIP3    H1 7536   3.084   1.982   4.436  0.2624 -0.4759  0.1381
 2510TIP3    H2 7537   3.158   2.105   4.387 -1.1861  0.4724  0.2590
 2511TIP3   OH2 7538   1.682   0.533   1.360 -0.1019 -0.0710  0.0912
 2511TIP3    H1 7539   1.757   0.591   1.353 -1.0202  1.0081 -1.2595
 2511TIP3    H2 7540   1.710   0.453   1.316 -0.2118  0.8445 -1.7143
 2512TIP3   OH2 7541   3.578   1.707   1.215 -0.1362 -0.3875 -0.3699
 2512TIP3    H1 7542   3.554   1.691   1.307  0.7832  0.8315  0.1170
 2512TIP3    H2 7543   3.602   1.621   1.181  3.1542 -0.4268  1.6507
 2513TIP3   OH2 7544   2.379   4.956  -0.004  0.3008  0.0229  0.6223
 2513TIP3    H1 7545   2.469   4.975  -0.030 -0.4147  1.2863 -1.1024
 2513TIP3    H2 7546   2.382   4.953   0.092  2.0109  0.9187  0.6354
 2514TIP3   OH2 7547   2.511   3.925   1.745 -0.0250  0.2106  0.3267
 2514TIP3    H1 7548   2.527   3.863   1.674  2.8320  1.7564 -0.5329
 2514TIP3    H2 7549   2.432   3.973   1.718 -0.5910 -1.0667 -0.3880
 2515TIP3   OH2 7550   3.609   3.558   2.075 -0.4397 -0.2727 -0.0942
 2515TIP3    H1 7551   3.574   3.569   1.987 -0.8943  0.9332  0.2140
 2515TIP3    H2 7552   3.644   3.644   2.098 -0.8729 -0.4013  1.1333
 2516TIP3   OH2 7553   4.336   3.246   1.573 -0.2692 -0.3926  0.6202
 2516TIP3    H1 7554   4.312   3.318   1.632  0.2303  2.1392 -2.0439
 2516TIP3    H2 7555   4.252   3.212   1.542 -0.5037 -0.5568  1.4026
 2517TIP3   OH2 7556   0.363   1.092   0.835 -0.2003 -0.3344  0.6351
 2517TIP3    H1 7557   0.333   1.003   0.820 -0.6949 -0.1182  0.3414
 2517TIP3    H2 7558   0.350   1.137   0.752  0.3625 -0.0731  0.6810
 2518TIP3   OH2 7559   5.445   2.943   2.066 -0.3948  0.2967 -0.1329
 2518TIP3    H1 7560   5.451   2.943   2.161  2.5101  0.6452 -0.2330
 2518TIP3    H2 7561   5.462   3.034   2.041 -2.1456  0.4250 -0.9930
 2519TIP3   OH2 7562   5.052   2.872   0.827 -0.3533 -0.4009 -0.7533
 2519TIP3    H1 7563   5.072   2.929   0.902  2.2183 -0.9251 -0.9227
 2519TIP3    H2 7564   4.971   2.828   0.852 -0.9505  1.3183  0.5697
 2520TIP3   OH2 7565   5.336   3.240   3.456 -0.0624  0.6720 -0.2929
 2520TIP3    H1 7566   5.401   3.247   3.526  1.4357 -1.9392 -1.2861
 2520TIP3    H2 7567   5.338   3.148   3.431 -4.2655  0.3888 -0.3263
 2521TIP3   OH2 7568   2.640   1.034   0.752 -0.6054  0.5697  0.0626
 2521TIP3    H1 7569   2.686   1.018   0.670 -0.7937  0.3172  0.0066
 2521TIP3    H2 7570   2.607   0.949   0.778  0.0399  0.5183  0.7611
 2522TIP3   OH2 7571   4.547   2.070   0.207  0.3549  0.1240  0.3390
 2522TIP3    H1 7572   4.573   2.150   0.252 -1.6777  1.1818 -0.2515
 2522TIP3    H2 7573   4.478   2.097   0.148  0.5800 -1.8484 -0.9170
 2523TIP3   OH2 7574   0.133   1.722   4.057  0.4989 -0.1436 -0.2796
 2523TIP3    H1 7575   0.107   1.631   4.052  1.6586 -0.7260  2.5454
 2523TIP3    H2 7576   0.053   1.772   4.039 -0.7087 -1.7351  0.5219
 2524TIP3   OH2 7577   4.644   1.327   1.780 -0.7574 -0.1158 -0.3849
 2524TIP3    H1 7578   4.603   1.310   1.695 -0.7694 -1.0498 -0.1976
 2524TIP3    H2 7579   4.697   1.405   1.765 -1.0097 -0.0823 -1.1647
 2525TIP3   OH2 7580   5.991   1.237   3.327 -0.1833  0.4496 -0.3470
 2525TIP3    H1 7581   5.950   1.268   3.247 -2.8477 -1.4145  0.1599
 2525TIP3    H2 7582   5.937   1.272   3.398  0.1183 -0.6409  0.4610
 2526TIP3   OH2 7583   6.104   2.020   0.463  0.1692  0.2484  0.4594
 2526TIP3    H1 7584   6.053   1.941   0.480  0.4889 -0.2163 -0.6489
 2526TIP3    H2 7585   6.060   2.088   0.514 -1.2584 -0.2465 -0.0645
 2527TIP3   OH2 7586   2.160   0.291   1.467  0.4831  0.3851 -0.4118
 2527TIP3    H1 7587   2.103   0.308   1.392 -0.4736 -0.1965  0.1585
 2527TIP3    H2 7588   2.244   0.330   1.443  0.3633 -0.2697 -2.0118
 2528TIP3   OH2 7589   4.853   1.671   0.842 -0.2128 -0.0605  0.1152
 2528TIP3    H1 7590   4.883   1.623   0.919 -0.7071 -1.6176 -0.6194
 2528TIP3    H2 7591   4.839   1.760   0.873  2.5142  0.1301  1.1294
 2529TIP3   OH2 7592   0.787   2.708   2.220  0.1505  0.3301 -0.3595
 2529TIP3    H1 7593   0.831   2.625   2.204  0.1814  0.3961 -0.6078
 2529TIP3    H2 7594   0.769   2.744   2.133 -0.8788  0.0441 -0.2755
 2530TIP3   OH2 7595   0.684   1.502   2.854 -0.1879 -0.3590 -0.0984
 2530TIP3    H1 7596   0.777   1.489   2.836 -0.3271 -1.3652 -0.1384
 2530TIP3    H2 7597   0.649   1.540   2.773  0.3356  0.8306  0.2130
 2531TIP3   OH2 7598   4.991   5.555   4.313 -0.0589 -0.0352  0.5422
 2531TIP3    H1 7599   5.065   5.530   4.258 -0.1515 -1.3327  0.9840
 2531TIP3    H2 7600   4.927   5.485   4.300 -0.5310  0.2169  1.4459
 2532TIP3   OH2 7601   5.544   0.846   0.486  0.3095 -0.5686 -0.6960
 2532TIP3    H1 7602   5.547   0.896   0.405 -0.3247  2.5841  1.0530
 2532TIP3    H2 7603   5.503   0.763   0.461  2.7013 -0.9280 -4.0440
 2533TIP3   OH2 7604   5.096   3.146   5.006  0.1200 -0.0153 -0.1041
 2533TIP3    H1 7605   5.059   3.063   4.974  0.0723 -0.1850  0.3722
 2533TIP3    H2 7606   5.077   3.145   5.100  0.5663  0.3018 -0.0074
 2534TIP3   OH2 7607   4.226   0.265   0.038  0.4213 -0.1893  0.1050
 2534TIP3    H1 7608   4.216   0.356   0.009  0.8929  0.3808  1.6118
 2534TIP3    H2 7609   4.162   0.216  -0.014  1.3092  0.7104 -1.9263
 2535TIP3   OH2 7610   2.067   3.475   4.208 -0.0638  0.7252 -0.3991
 2535TIP3    H1 7611   2.090   3.561   4.241 -0.2776 -0.9455  5.1963
 2535TIP3    H2 7612   1.995   3.446   4.264  1.3566 -3.7863 -0.4844
 2536TIP3   OH2 7613   2.242   0.031   1.122 -0.0754  0.1434  0.4003
 2536TIP3    H1 7614   2.210  -0.014   1.200  0.8004 -1.8048 -0.2953
 2536TIP3    H2 7615   2.199  -0.014   1.049  1.4779 -0.1752 -0.3632
 2537TIP3   OH2 7616   3.479   0.793   0.886  0.2054 -0.2252  0.0641
 2537TIP3    H1 7617   3.443   0.822   0.802  1.7745  0.9201 -0.2580
 2537TIP3    H2 7618   3.415   0.730   0.918 -1.2287  0.4742 -1.2398
 2538TIP3   OH2 7619   5.650   2.151   4.802  0.2129 -0.1154 -0.5195
 2538TIP3    H1 7620   5.580   2.123   4.860  1.8586 -0.1362  1.5952
 2538TIP3    H2 7621   5.615   2.139   4.714 -1.2147 -3.4195  0.3421
 2539TIP3   OH2 7622   0.503   2.034   3.565 -0.3410 -0.1972  0.4778
 2539TIP3    H1 7623   0.430   1.975   3.584 -0.5780  0.7144  2.6305
 2539TIP3    H2 7624   0.578   1.977   3.553 -0.6716 -0.9763  1.9502
 2540TIP3   OH2 7625   0.797   5.484   0.225  0.2703 -0.0180  0.5202
 2540TIP3    H1 7626   0.761   5.520   0.144 -0.4273  0.1674  0.9075
 2540TIP3    H2 7627   0.799   5.389   0.210  0.9721  0.0746 -0.0382
 2541TIP3   OH2 7628   2.610   4.482   2.900  0.4252 -0.1318  0.3517
 2541TIP3    H1 7629   2.515   4.492   2.887  0.0313 -3.2731 -0.0307
 2541TIP3    H2 7630   2.649   4.537   2.832 -0.9387  3.1260  1.9582
 2542TIP3   OH2 7631   6.146   5.650   1.262  0.5450 -0.1148  0.1912
 2542TIP3    H1 7632   6.091   5.582   1.300 -0.2042  0.3419 -0.0488
 2542TIP3    H2 7633   6.190   5.690   1.337 -1.2320  1.0533  0.6827
 2543TIP3   OH2 7634   3.279   4.305   3.144  0.4488 -0.0608  0.2130
 2543TIP3    H1 7635   3.215   4.245   3.182 -1.0011  0.9308 -0.5035
 2543TIP3    H2 7636   3.346   4.249   3.106 -0.7578 -1.2271 -0.2768
 2544TIP3   OH2 7637   0.325   2.841   4.767 -0.1672 -0.0953  0.4718
 2544TIP3    H1 7638   0.420   2.839   4.779 -0.2771 -2.6899  1.6649
 2544TIP3    H2 7639   0.308   2.777   4.697 -1.0676 -0.1690  0.7438
 2545TIP3   OH2 7640   5.221   3.555   4.376 -0.2235  0.8472 -0.2076
 2545TIP3    H1 7641   5.224   3.461   4.354 -0.1924  0.8652 -0.2793
 2545TIP3    H2 7642   5.198   3.556   4.469  1.4087  0.7105  0.2458
 2546TIP3   OH2 7643   2.799   4.621   4.970  0.0383 -0.4723 -0.2256
 2546TIP3    H1 7644   2.834   4.710   4.966 -0.6511 -0.1227  0.9511
 2546TIP3    H2 7645   2.785   4.596   4.879  0.3120  0.6041 -0.5715
 2547TIP3   OH2 7646   2.666   5.232   2.281 -0.4356 -0.2483 -0.3942
 2547TIP3    H1 7647   2.645   5.140   2.263 -0.9477 -0.1651 -0.2183
 2547TIP3    H2 7648   2.609   5.281   2.222 -0.8609 -0.0178  0.2055
 2548TIP3   OH2 7649   1.660   0.345   5.038  0.2910  0.3315 -0.3934
 2548TIP3    H1 7650   1.570   0.314   5.032 -0.3279  1.8897  0.3693
 2548TIP3    H2 7651   1.713   0.272   5.004 -1.3602  0.1766 -2.8516
 2549TIP3   OH2 7652   1.220   4.506   5.162 -0.1716  0.4238 -0.2196
 2549TIP3    H1 7653   1.262   4.577   5.211 -1.7266 -0.2642  2.2681
 2549TIP3    H2 7654   1.179   4.550   5.087 -3.0499  2.6769  2.4275
 2550TIP3   OH2 7655   6.039   2.586   4.661  0.7075 -0.5765  0.1907
 2550TIP3    H1 7656   6.015   2.564   4.751 -1.9440 -0.7895 -0.4777
 2550TIP3    H2 7657   6.007   2.675   4.648 -1.8071 -1.6012 -1.3767
 2551TIP3   OH2 7658   1.083   6.022   1.143 -0.0710 -0.1674 -0.9660
 2551TIP3    H1 7659   1.178   6.009   1.139 -0.1469 -0.9256 -0.5015
 2551TIP3    H2 7660   1.047   5.933   1.136 -0.6408 -0.2195  1.7974
 2552TIP3   OH2 7661   4.350   2.782   1.831 -0.1963  0.2609  0.1561
 2552TIP3    H1 7662   4.400   2.837   1.772 -1.7575  0.6591 -0.8510
 2552TIP3    H2 7663   4.318   2.710   1.776 -2.3206  1.0429  0.2555
 2553TIP3   OH2 7664   2.135   4.406   1.652 -0.5313  0.0912  0.2547
 2553TIP3    H1 7665   2.106   4.493   1.678  3.0379  1.3171  0.6419
 2553TIP3    H2 7666   2.110   4.399   1.560  0.2144  2.0866 -0.1411
 2554TIP3   OH2 7667   5.666   1.991   1.993 -0.0739  0.2280 -0.5990
 2554TIP3    H1 7668   5.679   2.076   2.036 -3.2562  1.0796 -1.0723
 2554TIP3    H2 7669   5.648   1.931   2.065  1.9620 -0.0898 -0.2805
 2555TIP3   OH2 7670   2.986   5.075   0.917  0.3215 -0.7718 -0.2688
 2555TIP3    H1 7671   2.895   5.098   0.899 -0.1256 -1.8113  0.5343
 2555TIP3    H2 7672   2.984   5.035   1.004  1.6800 -0.0631  0.1233
 2556TIP3   OH2 7673   5.823   3.551   0.828 -0.8720  0.1093 -0.4401
 2556TIP3    H1 7674   5.909   3.513   0.813 -1.2782 -1.0632  0.0759
 2556TIP3    H2 7675   5.839   3.645   0.839  0.2196  0.0311 -1.2237
 2557TIP3   OH2 7676   0.051   2.018   0.334  0.0590  0.1483 -0.0116
 2557TIP3    H1 7677  -0.033   2.004   0.291  1.0037 -1.8360 -1.3647
 2557TIP3    H2 7678   0.113   2.029   0.262  1.1246  0.5506  0.9382
 2558TIP3   OH2 7679   6.020   0.101   0.912  0.2168  0.0222 -0.5939
 2558TIP3    H1 7680   5.955   0.031   0.905 -0.7854  0.3488  3.2544
 2558TIP3    H2 7681   6.092   0.062   0.961 -0.3681  1.5817  1.6332
 2559TIP3   OH2 7682   0.251   3.038   4.400 -0.9937 -0.5087 -0.1262
 2559TIP3    H1 7683   0.248   3.066   4.308 -0.8487  1.3722  0.3858
 2559TIP3    H2 7684   0.344   3.025   4.417 -1.0255 -0.9119 -0.2653
 2560TIP3   OH2 7685   0.578   4.155   0.331  0.1435  0.2200 -0.2837
 2560TIP3    H1 7686   0.583   4.062   0.308  0.0002  0.2125 -0.2814
 2560TIP3    H2 7687   0.639   4.164   0.404  1.6948  0.5218 -1.5631
 2561TIP3   OH2 7688   1.889   0.658   4.141 -0.0914  0.4085 -0.2872
 2561TIP3    H1 7689   1.872   0.736   4.194 -0.2869 -0.1874  0.5509
 2561TIP3    H2 7690   1.941   0.602   4.198  1.7710  0.7401 -1.5755
 2562TIP3   OH2 7691   2.321   2.992   2.425  0.7255 -0.3469 -0.3056
 2562TIP3    H1 7692   2.275   2.984   2.342  2.0676  0.2989 -1.1304
 2562TIP3    H2 7693   2.353   3.082   2.427  0.3539 -0.2135  1.1148
 2563TIP3   OH2 7694   4.822   2.699   5.066 -0.2143  0.0529 -0.0970
 2563TIP3    H1 7695   4.808   2.759   5.139  2.0056  2.0128 -1.1403
 2563TIP3    H2 7696   4.897   2.646   5.092 -0.8430 -0.8600 -0.0678
 2564TIP3   OH2 7697   2.866   3.731   4.353 -0.4006 -0.8319  0.4204
 2564TIP3    H1 7698   2.808   3.753   4.280 -1.7688 -0.7387  1.4817
 2564TIP3    H2 7699   2.868   3.635   4.354 -1.2307 -0.8571  0.8694
 2565TIP3   OH2 7700   0.166   5.188   4.066  0.9706  0.9468  0.2498
 2565TIP3    H1 7701   0.144   5.101   4.100 -0.2479  0.4481 -1.6498
 2565TIP3    H2 7702   0.192   5.172   3.975  1.8529  2.4586  0.2070
 2566TIP3   OH2 7703   5.634   1.637   3.680 -0.4704 -0.4327  0.2133
 2566TIP3    H1 7704   5.656   1.573   3.748 -0.5039  0.5791  1.1951
 2566TIP3    H2 7705   5.718   1.668   3.648 -0.4524 -0.1980  0.4836
 2567TIP3   OH2 7706   5.124   1.744   4.129 -0.0501  0.1114  0.2413
 2567TIP3    H1 7707   5.108   1.809   4.197 -0.1005  0.9433 -0.5496
 2567TIP3    H2 7708   5.220   1.740   4.122 -0.0580  0.8224 -0.3762
 2568TIP3   OH2 7709   0.120   5.332   3.483 -0.2133  0.1638  0.5106
 2568TIP3    H1 7710   0.037   5.304   3.444 -0.3409 -0.1564  0.9969
 2568TIP3    H2 7711   0.172   5.252   3.488  0.3925  0.4824 -0.4121
 2569TIP3   OH2 7712   2.996   5.686   1.340 -0.8798  0.0951  0.1762
 2569TIP3    H1 7713   3.033   5.750   1.279 -1.7084 -0.0604 -0.5107
 2569TIP3    H2 7714   2.998   5.730   1.425 -0.8011  0.7756 -0.1707
 2570TIP3   OH2 7715   2.493   5.659   0.380  0.0418  0.0113  0.2047
 2570TIP3    H1 7716   2.407   5.648   0.338 -0.0681 -2.6402  0.9004
 2570TIP3    H2 7717   2.537   5.575   0.365  0.6362 -0.4895  3.8317
 2571TIP3   OH2 7718   3.279   1.753   1.886 -0.5650 -0.6122 -0.2425
 2571TIP3    H1 7719   3.332   1.679   1.914 -0.1475 -0.6197 -1.0325
 2571TIP3    H2 7720   3.209   1.758   1.951 -0.0562 -1.0970  0.3621
 2572TIP3   OH2 7721   6.173   1.869   3.252 -0.2893 -0.6474 -0.1921
 2572TIP3    H1 7722   6.087   1.873   3.293 -0.8253 -0.9505 -1.2451
 2572TIP3    H2 7723   6.235   1.872   3.325 -1.0880  2.1867  0.4845
 2573TIP3   OH2 7724   4.516   3.380   1.848 -0.5974  0.1493  0.1910
 2573TIP3    H1 7725   4.520   3.397   1.942  1.9986 -2.1331  0.6290
 2573TIP3    H2 7726   4.545   3.461   1.807  1.0300  0.3021  1.5532
 2574TIP3   OH2 7727   1.033   0.805   4.308  0.1102  0.3211 -0.3240
 2574TIP3    H1 7728   1.056   0.833   4.220  0.3705 -0.3295 -0.4646
 2574TIP3    H2 7729   0.977   0.728   4.296  0.5699 -0.0863  0.0794
 2575TIP3   OH2 7730   3.586   0.827   3.372  0.2440 -0.1747 -0.0316
 2575TIP3    H1 7731   3.497   0.814   3.404  0.3351  2.6443  1.7392
 2575TIP3    H2 7732   3.634   0.748   3.398 -1.2911 -0.8942  0.6920
 2576TIP3   OH2 7733   1.880   3.325   3.177 -0.2670  0.3368  0.2858
 2576TIP3    H1 7734   1.897   3.239   3.136  0.8550  1.4273 -1.6870
 2576TIP3    H2 7735   1.879   3.386   3.103 -3.3033  1.7844  1.3524
 2577TIP3   OH2 7736   5.275   2.789   2.646  0.0425 -0.2499 -0.5694
 2577TIP3    H1 7737   5.267   2.885   2.652 -1.7980 -0.1944 -2.6396
 2577TIP3    H2 7738   5.194   2.756   2.683  0.8974 -1.0762  0.6205
 2578TIP3   OH2 7739   4.047   1.455   0.748  0.1564  0.0474  0.1684
 2578TIP3    H1 7740   4.132   1.468   0.790  0.9498 -4.1710  0.3265
 2578TIP3    H2 7741   4.067   1.452   0.655  0.3035 -1.2906  0.2251
 2579TIP3   OH2 7742   5.813   0.703   4.448 -0.5400  0.3229 -0.3958
 2579TIP3    H1 7743   5.826   0.615   4.411 -1.1943  0.7797 -1.7943
 2579TIP3    H2 7744   5.722   0.702   4.478 -0.5951  0.5678 -0.5559
 2580TIP3   OH2 7745   2.772   3.647   2.811 -0.7723 -0.0474 -0.0086
 2580TIP3    H1 7746   2.742   3.674   2.725  0.0430  2.8142  0.5141
 2580TIP3    H2 7747   2.714   3.692   2.873  0.6174  0.5080  0.9385
 2581TIP3   OH2 7748   3.692   3.961   2.961  0.2573 -0.1622 -0.8248
 2581TIP3    H1 7749   3.680   3.924   2.873 -0.4266  0.2755 -0.9247
 2581TIP3    H2 7750   3.776   3.927   2.990 -0.2353 -1.5983 -1.0144
 2582TIP3   OH2 7751   0.559   0.674   3.120  0.2938 -0.3989 -0.5983
 2582TIP3    H1 7752   0.631   0.716   3.169 -0.8303  2.6947 -1.3863
 2582TIP3    H2 7753   0.498   0.645   3.188  0.1167  1.2243 -0.0217
 2583TIP3   OH2 7754   5.881   2.872   0.900 -0.4405 -0.1566  0.2727
 2583TIP3    H1 7755   5.847   2.893   0.987 -0.5504 -0.6661  0.3566
 2583TIP3    H2 7756   5.877   2.776   0.895  0.0288 -0.1594 -0.1055
 2584TIP3   OH2 7757   0.978   2.910   2.017  0.2603 -0.7015  0.7748
 2584TIP3    H1 7758   1.000   2.838   2.077  0.2040 -1.6052 -0.2488
 2584TIP3    H2 7759   0.882   2.912   2.015  0.2481 -1.4304 -0.1258
 2585TIP3   OH2 7760   1.814   2.229   3.420  0.3396  0.1399 -0.1304
 2585TIP3    H1 7761   1.736   2.276   3.391  0.2374 -0.2157 -0.4386
 2585TIP3    H2 7762   1.827   2.258   3.510 -0.1882  0.1582 -0.0533
 2586TIP3   OH2 7763   1.433   5.764   4.563 -0.3412  0.6530  0.6776
 2586TIP3    H1 7764   1.401   5.843   4.606 -0.8596  0.4568  0.6559
 2586TIP3    H2 7765   1.442   5.700   4.634  2.3412  1.3863  1.1238
 2587TIP3   OH2 7766   2.550   4.082   4.419  0.1339  0.2098  0.7499
 2587TIP3    H1 7767   2.615   4.087   4.349  0.9951  0.8221  1.5819
 2587TIP3    H2 7768   2.598   4.047   4.494 -1.0320 -1.5135  0.7653
 2588TIP3   OH2 7769   5.588   4.803   0.184  0.2385 -0.8659 -0.0323
 2588TIP3    H1 7770   5.674   4.844   0.191 -0.9962  1.8424  0.2909
 2588TIP3    H2 7771   5.566   4.777   0.274  0.1472 -0.3109  0.1062
 2589TIP3   OH2 7772   5.387   1.366   4.624  0.0352 -0.6344 -0.0617
 2589TIP3    H1 7773   5.421   1.277   4.629 -0.1491 -0.7471 -0.7592
 2589TIP3    H2 7774   5.297   1.359   4.655 -0.2603 -0.8531 -0.9501
 2590TIP3   OH2 7775   4.147   1.746   2.460 -0.6955  0.2305 -0.2479
 2590TIP3    H1 7776   4.191   1.662   2.471 -0.8374  0.2158  0.2189
 2590TIP3    H2 7777   4.207   1.798   2.407 -1.0672 -0.5264 -1.4516
 2591TIP3   OH2 7778   3.628   0.649   2.293 -0.2584 -0.5361 -0.3449
 2591TIP3    H1 7779   3.640   0.588   2.366 -0.0023 -0.1871 -0.0947
 2591TIP3    H2 7780   3.650   0.735   2.329 -1.7917 -0.1088 -0.3453
 2592TIP3   OH2 7781   1.698   3.840   1.121 -0.0095 -0.0687  0.0677
 2592TIP3    H1 7782   1.652   3.833   1.205  0.9031  0.4682  0.6266
 2592TIP3    H2 7783   1.767   3.904   1.137  0.8340 -0.7461 -0.7970
 2593TIP3   OH2 7784   4.975   1.805   2.795  0.5733 -0.5554 -0.0225
 2593TIP3    H1 7785   5.070   1.799   2.787  0.6777  0.1395  0.4866
 2593TIP3    H2 7786   4.940   1.757   2.721  1.3108 -1.7655  0.3962
 2594TIP3   OH2 7787   3.121   3.312   1.445 -0.0014 -0.1377  0.2139
 2594TIP3    H1 7788   3.054   3.374   1.472 -0.0430 -0.1868  0.2226
 2594TIP3    H2 7789   3.155   3.348   1.362 -1.6050 -1.2928 -0.9988
 2595TIP3   OH2 7790   2.311   3.256   3.828 -0.0973  0.2546  0.4104
 2595TIP3    H1 7791   2.266   3.173   3.810  0.0975  0.3461 -0.5362
 2595TIP3    H2 7792   2.244   3.323   3.815  0.2302  0.3736 -0.7621
 2596TIP3   OH2 7793   1.599   4.490   3.735 -0.2140 -0.8647 -0.1792
 2596TIP3    H1 7794   1.582   4.462   3.645 -0.8253 -2.4675  0.3993
 2596TIP3    H2 7795   1.607   4.408   3.784 -1.7243 -0.0222  1.5629
 2597TIP3   OH2 7796   1.170   1.201   3.669  0.5110  0.1081 -0.3176
 2597TIP3    H1 7797   1.106   1.271   3.682 -2.5005 -2.3094 -0.9337
 2597TIP3    H2 7798   1.193   1.209   3.576 -0.9769 -0.5299 -0.7785
 2598TIP3   OH2 7799   5.925   5.781   2.220  0.4401  0.3291  0.4267
 2598TIP3    H1 7800   5.848   5.729   2.243  0.4694 -0.6620 -1.4830
 2598TIP3    H2 7801   5.994   5.717   2.203  1.0737  1.0841  0.0342
 2599TIP3   OH2 7802   5.111   1.953   4.290  0.1270 -0.3770  0.0002
 2599TIP3    H1 7803   5.162   1.985   4.365  0.2664 -0.4799 -0.0514
 2599TIP3    H2 7804   5.143   2.004   4.216 -0.3006  0.0221  0.0802
 2600TIP3   OH2 7805   6.028   3.770   4.428 -0.0428 -0.8280  0.1310
 2600TIP3    H1 7806   6.042   3.839   4.493  1.6902  0.0680 -1.0848
 2600TIP3    H2 7807   5.934   3.767   4.414 -0.3108 -0.0863  1.6516
 2601TIP3   OH2 7808   1.880   1.859   4.014 -0.2566 -0.6084 -0.6408
 2601TIP3    H1 7809   1.851   1.903   3.935 -1.3475  2.0576  1.1277
 2601TIP3    H2 7810   1.973   1.880   4.020 -1.0281  3.0147  0.9409
 2602TIP3   OH2 7811   3.025   2.326   0.799  0.5229 -0.1919 -0.1188
 2602TIP3    H1 7812   3.019   2.334   0.894 -1.8189  0.9119 -0.2840
 2602TIP3    H2 7813   3.000   2.236   0.780  1.0530 -0.4307  0.2950
 2603TIP3   OH2 7814   2.806   2.799   3.246  0.1564  0.5254  0.0778
 2603TIP3    H1 7815   2.763   2.716   3.270  0.1947  0.6674  0.6625
 2603TIP3    H2 7816   2.784   2.858   3.318  3.4480 -0.1137  1.8228
 2604TIP3   OH2 7817   0.748   0.885   4.670 -0.1897 -0.3424  0.9099
 2604TIP3    H1 7818   0.656   0.857   4.661 -0.1868 -0.6313  1.7427
 2604TIP3    H2 7819   0.752   0.968   4.623 -0.8197 -0.4488  0.6553
 2605TIP3   OH2 7820   5.199   4.503   3.429  0.1093  0.4168 -0.0980
 2605TIP3    H1 7821   5.171   4.558   3.356 -1.8415 -0.5006 -0.1137
 2605TIP3    H2 7822   5.285   4.471   3.403 -0.0659  0.9920 -1.5002
 2606TIP3   OH2 7823   6.257   3.214   1.110 -0.5896  0.1030  0.0274
 2606TIP3    H1 7824   6.286   3.158   1.039 -0.5758  0.4464 -0.2431
 2606TIP3    H2 7825   6.218   3.290   1.066  0.5616  0.9220  0.3641
 2607TIP3   OH2 7826   4.744   4.351   1.871 -0.1440  0.2925 -0.1309
 2607TIP3    H1 7827   4.837   4.369   1.858  0.1581 -0.5427  0.8045
 2607TIP3    H2 7828   4.739   4.256   1.881 -1.0589  0.3635  0.1418
 2608TIP3   OH2 7829   2.017   2.848   0.252 -0.3564 -0.7008 -0.7529
 2608TIP3    H1 7830   1.972   2.919   0.206  2.1571  1.1435 -0.6186
 2608TIP3    H2 7831   1.985   2.854   0.342 -0.6757 -0.1912 -0.8936
 2609TIP3   OH2 7832   3.020   1.089   0.506  0.7719  0.1646  0.0479
 2609TIP3    H1 7833   3.028   1.095   0.601  3.4796  1.4398 -0.1636
 2609TIP3    H2 7834   3.043   0.998   0.487  0.0546 -0.1438  0.5897
 2610TIP3   OH2 7835   2.452   1.215   4.863 -0.5455  0.1163  0.5770
 2610TIP3    H1 7836   2.512   1.271   4.814 -1.6049 -0.5130 -1.5979
 2610TIP3    H2 7837   2.509   1.165   4.922  0.7590  1.2302  0.3186
 2611TIP3   OH2 7838   2.871   0.375   2.567 -0.2033 -0.2525 -0.5569
 2611TIP3    H1 7839   2.931   0.314   2.523 -0.9990 -0.8375 -0.8493
 2611TIP3    H2 7840   2.917   0.460   2.564 -0.0966 -0.3428 -2.2343
 2612TIP3   OH2 7841   0.029   5.000   4.731  0.3875  0.3708  0.4642
 2612TIP3    H1 7842  -0.011   5.042   4.807 -0.1034  0.4824  0.1508
 2612TIP3    H2 7843   0.123   5.006   4.747  0.3179  1.2587  0.6115
 2613TIP3   OH2 7844   1.732   5.898   2.930 -0.2970  0.3586 -0.5919
 2613TIP3    H1 7845   1.666   5.841   2.890 -1.3173 -0.6125  2.2130
 2613TIP3    H2 7846   1.705   5.906   3.022  0.0867  5.0080 -0.6383
 2614TIP3   OH2 7847   2.474   4.976   4.499  0.0934 -0.0133  0.1448
 2614TIP3    H1 7848   2.495   4.905   4.439  0.5023 -0.1937  0.5003
 2614TIP3    H2 7849   2.381   4.963   4.520  0.4840 -1.1812  1.1898
 2615TIP3   OH2 7850   4.335   3.040   4.071 -0.3165 -0.3383  0.1725
 2615TIP3    H1 7851   4.342   2.946   4.087  0.9313 -0.1527  0.8122
 2615TIP3    H2 7852   4.426   3.069   4.061 -0.4599  1.2512  2.7563
 2616TIP3   OH2 7853   3.891   4.955   2.366  0.1014  0.1054  0.4304
 2616TIP3    H1 7854   3.809   4.978   2.324  0.0526  0.6848  0.8295
 2616TIP3    H2 7855   3.884   4.992   2.454  1.0103  0.6775  0.2843
 2617TIP3   OH2 7856   2.147   5.908   4.026  0.0580  0.4759 -0.0470
 2617TIP3    H1 7857   2.062   5.919   3.983  0.0811  2.9663  0.4202
 2617TIP3    H2 7858   2.195   5.848   3.969 -2.2063 -1.5622  0.0427
 2618TIP3   OH2 7859   3.289   4.666   0.192 -0.2565  0.2110  0.5830
 2618TIP3    H1 7860   3.304   4.597   0.127  2.2837 -0.2020  1.4901
 2618TIP3    H2 7861   3.244   4.622   0.264 -0.6846  0.0547  0.2263
 2619TIP3   OH2 7862   1.786   5.502   2.756 -0.2754 -0.0221  0.0733
 2619TIP3    H1 7863   1.693   5.494   2.778 -0.4825 -0.6223 -0.9553
 2619TIP3    H2 7864   1.832   5.486   2.838 -1.1037  1.7175  0.9308
 2620TIP3   OH2 7865   3.488   5.140   3.930  0.1135  0.1775  0.9369
 2620TIP3    H1 7866   3.444   5.144   3.845 -0.4588 -1.2110  1.1444
 2620TIP3    H2 7867   3.567   5.088   3.913  0.3254  0.4327  1.1320
 2621TIP3   OH2 7868   1.951   1.443   1.182  0.0020 -0.1746  0.2345
 2621TIP3    H1 7869   1.894   1.371   1.156  0.1976 -0.2049 -0.1162
 2621TIP3    H2 7870   2.039   1.412   1.164  0.2556 -0.7372  2.2492
 2622TIP3   OH2 7871   3.755   1.857   4.569 -0.0116 -0.1771  0.6548
 2622TIP3    H1 7872   3.696   1.903   4.510 -0.8648 -0.1078  1.5449
 2622TIP3    H2 7873   3.762   1.769   4.532  2.8467  0.9502 -1.9476
 2623TIP3   OH2 7874   2.812   2.842   2.768 -0.0160  0.5808  0.4388
 2623TIP3    H1 7875   2.755   2.842   2.845 -1.8677 -0.4228 -0.8510
 2623TIP3    H2 7876   2.820   2.750   2.744 -0.0822  0.9322 -0.9884
 2624TIP3   OH2 7877   0.059   1.397   3.146  0.3740 -0.1873 -0.3172
 2624TIP3    H1 7878   0.143   1.353   3.159  0.7511  0.6698  0.2031
 2624TIP3    H2 7879  -0.000   1.327   3.119  1.4856 -0.6270 -1.7137
 2625TIP3   OH2 7880   6.024   5.104   1.641  0.0687 -0.1691  0.2653
 2625TIP3    H1 7881   6.097   5.128   1.697  0.2108 -0.9763  0.4377
 2625TIP3    H2 7882   5.952   5.087   1.701  0.3851 -1.6155  0.2589
 2626TIP3   OH2 7883   2.833   5.073   3.205 -0.1922  0.2646 -0.1758
 2626TIP3    H1 7884   2.890   5.039   3.274 -0.0112  0.7244 -0.0942
 2626TIP3    H2 7885   2.861   5.028   3.126 -0.9935 -0.9401  0.1928
 2627TIP3   OH2 7886   1.916   2.058   1.775 -0.1562  0.3259  0.1387
 2627TIP3    H1 7887   1.991   2.102   1.735 -0.8611  1.4800  0.0288
 2627TIP3    H2 7888   1.878   2.007   1.704 -0.1231  0.6364 -0.1085
 2628TIP3   OH2 7889   5.105   0.182   2.658 -0.2645  0.1478 -0.5112
 2628TIP3    H1 7890   5.013   0.204   2.675 -0.3236 -0.9081  0.6393
 2628TIP3    H2 7891   5.130   0.123   2.729  1.1977  0.0960 -1.0264
 2629TIP3   OH2 7892   5.100   4.803   2.960  0.1596  0.4987 -0.4611
 2629TIP3    H1 7893   5.016   4.840   2.933 -0.2090  0.0403  0.0556
 2629TIP3    H2 7894   5.164   4.848   2.904 -0.5384 -0.1490 -1.8299
 2630TIP3   OH2 7895   3.461   0.526   2.621  0.3037  0.2815  0.2232
 2630TIP3    H1 7896   3.545   0.507   2.580 -0.7838 -1.9043 -1.1773
 2630TIP3    H2 7897   3.397   0.510   2.552 -1.3873  0.1142  1.7647
 2631TIP3   OH2 7898   4.191   4.852   3.198 -0.1896 -0.2872  0.2933
 2631TIP3    H1 7899   4.215   4.776   3.250 -0.1185  1.4858  3.0059
 2631TIP3    H2 7900   4.106   4.880   3.233 -0.7669  0.2752 -1.4148
 2632TIP3   OH2 7901   4.926   4.580   3.879  0.3424 -0.1130 -0.0705
 2632TIP3    H1 7902   4.894   4.493   3.903 -0.3060  0.8455  2.9576
 2632TIP3    H2 7903   4.846   4.632   3.869  0.7506  0.3762 -0.8415
 2633TIP3   OH2 7904   1.382   0.579   0.156 -0.0194  0.2639  0.0541
 2633TIP3    H1 7905   1.299   0.551   0.117 -1.4803  4.7049 -0.5517
 2633TIP3    H2 7906   1.363   0.587   0.250 -0.1681  0.9291 -0.0319
 2634TIP3   OH2 7907   2.077   1.351   2.078  0.2334  0.5634 -0.1980
 2634TIP3    H1 7908   1.987   1.319   2.067 -0.2506  0.4683  3.0746
 2634TIP3    H2 7909   2.109   1.365   1.989 -2.5337 -0.7331 -1.4972
 2635TIP3   OH2 7910   6.238   0.026   0.117  0.2739 -0.0331  0.3710
 2635TIP3    H1 7911   6.291   0.103   0.141  0.5640 -0.7508  2.1792
 2635TIP3    H2 7912   6.290  -0.018   0.050 -0.4647  1.9385 -1.6240
 2636TIP3   OH2 7913   1.174   3.849   0.440 -0.0279 -0.3298  0.4098
 2636TIP3    H1 7914   1.212   3.891   0.362 -1.8167  2.3029  0.8156
 2636TIP3    H2 7915   1.097   3.803   0.407 -0.1645 -0.1388  0.4596
 2637TIP3   OH2 7916   1.585   0.238   3.089  0.1944  0.1396  0.2313
 2637TIP3    H1 7917   1.536   0.167   3.131  1.3440 -1.8250 -1.4837
 2637TIP3    H2 7918   1.659   0.253   3.147  0.2431 -0.4956  0.3465
 2638TIP3   OH2 7919   3.179   5.717   2.062  0.3129 -0.0821  0.1543
 2638TIP3    H1 7920   3.145   5.662   1.992 -0.0435 -0.0109  0.2691
 2638TIP3    H2 7921   3.214   5.794   2.017 -1.4348  0.7500  0.1493
 2639TIP3   OH2 7922   4.073   1.872   0.541  0.5179  0.1126  0.0484
 2639TIP3    H1 7923   4.126   1.800   0.575 -0.1883  0.5737  2.2778
 2639TIP3    H2 7924   3.993   1.830   0.510  0.7187 -0.2032 -0.0531
 2640TIP3   OH2 7925   2.907   1.574   3.060  0.3575  0.6834  0.5074
 2640TIP3    H1 7926   2.912   1.576   2.964  1.0140 -1.9238  0.4307
 2640TIP3    H2 7927   2.826   1.620   3.080 -0.8608 -0.4572 -1.4512
 2641TIP3   OH2 7928   2.530   2.182   4.458  0.8146 -0.6386 -0.2050
 2641TIP3    H1 7929   2.497   2.095   4.440 -1.8881  0.2872 -0.1103
 2641TIP3    H2 7930   2.473   2.241   4.409  1.7593  1.1558  0.7362
 2642TIP3   OH2 7931   3.513   0.483   1.431 -0.0764 -0.3629  0.1788
 2642TIP3    H1 7932   3.582   0.547   1.417  0.1474 -0.7425 -0.4953
 2642TIP3    H2 7933   3.520   0.460   1.524  1.2956 -1.0494 -0.0619
 2643TIP3   OH2 7934   0.147   1.885   0.551  0.2948  0.0216 -0.4517
 2643TIP3    H1 7935   0.072   1.890   0.611 -1.9457 -3.0791 -2.6748
 2643TIP3    H2 7936   0.120   1.936   0.475  0.6136 -0.7705 -1.1042
 2644TIP3   OH2 7937   3.615   3.662   1.215 -0.4475 -0.8110 -0.4363
 2644TIP3    H1 7938   3.548   3.701   1.271  0.0430  0.4770 -0.7245
 2644TIP3    H2 7939   3.654   3.593   1.269 -0.6308 -0.2219  0.4674
 2645TIP3   OH2 7940   1.827   4.941   3.541  0.1087 -0.3914  0.3331
 2645TIP3    H1 7941   1.826   4.905   3.453 -0.5386 -0.2529  0.2765
 2645TIP3    H2 7942   1.780   4.877   3.594  0.4171 -0.4317  0.5564
 2646TIP3   OH2 7943   4.269   1.374   1.136 -0.0908 -0.6329 -0.6372
 2646TIP3    H1 7944   4.262   1.437   1.063 -0.6691 -1.6402 -1.4712
 2646TIP3    H2 7945   4.268   1.288   1.094  2.2756 -1.2258  0.3542
 2647TIP3   OH2 7946   0.095   5.252   0.575 -0.2406  0.7274 -0.5477
 2647TIP3    H1 7947   0.169   5.309   0.554  0.9120 -0.2459  0.7320
 2647TIP3    H2 7948   0.062   5.284   0.659  0.3678 -0.3941  0.1467
 2648TIP3   OH2 7949   3.117   3.342   2.737 -0.1486  0.5659  0.0346
 2648TIP3    H1 7950   3.190   3.303   2.689  0.2377  0.4004  0.7274
 2648TIP3    H2 7951   3.055   3.271   2.750  0.4129  0.2300  1.0247
 2649TIP3   OH2 7952   0.313   5.018   4.833  0.7276 -0.0572  0.1296
 2649TIP3    H1 7953   0.307   5.113   4.840  1.9677  0.1116 -0.7422
 2649TIP3    H2 7954   0.316   4.987   4.923  1.9750  0.8775  0.4296
 2650TIP3   OH2 7955   0.971   4.497   0.998  0.2984  0.0824  0.0824
 2650TIP3    H1 7956   0.981   4.547   1.079  2.4579 -1.7403  1.0523
 2650TIP3    H2 7957   1.061   4.474   0.972 -0.4011 -0.3572 -2.2301
 2651TIP3   OH2 7958   1.193   3.543   3.123 -0.3077  0.7244  0.2750
 2651TIP3    H1 7959   1.284   3.570   3.111 -0.1054 -0.2973 -0.5717
 2651TIP3    H2 7960   1.177   3.478   3.055 -1.5981  0.6833  0.5784
 2652TIP3   OH2 7961   1.679   5.188   2.472  0.0449  0.9471 -0.0219
 2652TIP3    H1 7962   1.616   5.123   2.502  0.4431  1.5218  2.3266
 2652TIP3    H2 7963   1.730   5.210   2.551  4.2624 -0.6034 -1.9911
 2653TIP3   OH2 7964   0.551   5.135   1.518 -0.9120  0.3095 -0.0849
 2653TIP3    H1 7965   0.510   5.055   1.549  0.9332 -0.3188  0.8632
 2653TIP3    H2 7966   0.629   5.146   1.573 -0.3507  1.9917 -1.1157
 2654TIP3   OH2 7967   1.132   1.965   4.638 -0.2151 -0.0334  0.0558
 2654TIP3    H1 7968   1.089   1.884   4.611 -0.8563 -0.0529  1.0649
 2654TIP3    H2 7969   1.088   2.033   4.587  1.1410 -0.4139 -1.6767
 2655TIP3   OH2 7970   2.451   0.458   2.044  0.1265 -0.0684  0.1873
 2655TIP3    H1 7971   2.517   0.514   2.002  0.4674 -0.0731  0.7014
 2655TIP3    H2 7972   2.503   0.390   2.088 -0.0979  0.9131  2.0695
 2656TIP3   OH2 7973   2.531   0.573   0.193  0.4823  0.4687  0.1381
 2656TIP3    H1 7974   2.547   0.616   0.277 -2.0747 -0.7041  1.3356
 2656TIP3    H2 7975   2.444   0.533   0.202  0.8538 -1.2020 -2.4473
 2657TIP3   OH2 7976   5.902   1.342   5.134  0.1905 -0.1804  0.4161
 2657TIP3    H1 7977   5.907   1.256   5.176 -0.0041 -1.4197 -1.9430
 2657TIP3    H2 7978   5.955   1.332   5.054  0.4321  2.0104  0.2534
 2658TIP3   OH2 7979   2.981   1.617   4.863 -0.0435 -0.7444 -0.0637
 2658TIP3    H1 7980   3.004   1.615   4.770 -0.0602  0.1576 -0.0952
 2658TIP3    H2 7981   2.912   1.552   4.872 -0.7118 -0.1682 -0.8718
 2659TIP3   OH2 7982   5.298   4.254   1.637  0.1653  0.2854 -0.4690
 2659TIP3    H1 7983   5.262   4.219   1.718 -1.5745  0.7667 -0.9745
 2659TIP3    H2 7984   5.225   4.302   1.597  1.3161  1.0809 -1.7304
 2660TIP3   OH2 7985   5.575   4.999   1.674  0.7584  0.5947  0.0778
 2660TIP3    H1 7986   5.559   5.052   1.752  1.3349  1.2011 -0.2085
 2660TIP3    H2 7987   5.539   5.050   1.602  0.7323  0.2981 -0.1202
 2661TIP3   OH2 7988   6.320   0.285   1.932 -0.4544 -0.2853 -0.6567
 2661TIP3    H1 7989   6.263   0.283   1.855 -2.1403 -0.1975  0.5551
 2661TIP3    H2 7990   6.353   0.375   1.935  0.2487 -0.4814 -1.6746
 2662TIP3   OH2 7991   5.798   0.783   1.456  0.3725  0.3546 -0.1290
 2662TIP3    H1 7992   5.783   0.741   1.371 -0.6500 -1.9237  1.0930
 2662TIP3    H2 7993   5.887   0.760   1.480 -0.5993 -2.4503  1.1364
 2663TIP3   OH2 7994   2.897   1.742   1.589  0.3003  0.0712 -0.1289
 2663TIP3    H1 7995   2.931   1.658   1.620  0.6580 -0.4884 -1.9263
 2663TIP3    H2 7996   2.814   1.752   1.636  1.4494  0.0101  2.0730
 2664TIP3   OH2 7997   3.811   3.841   4.499  0.0466  0.2668  0.0455
 2664TIP3    H1 7998   3.768   3.756   4.503  0.4803 -0.0260 -1.0657
 2664TIP3    H2 7999   3.850   3.844   4.411  0.6898  1.2907  0.3463
 2665TIP3   OH2 8000   2.678   3.750   2.279 -0.1977 -0.0140  0.2527
 2665TIP3    H1 8001   2.771   3.742   2.257 -0.1169 -0.3276  0.6959
 2665TIP3    H2 8002   2.635   3.678   2.233 -0.3172  0.4862 -0.4423
 2666TIP3   OH2 8003   4.264   4.162   3.173  0.0259 -0.0474  0.2538
 2666TIP3    H1 8004   4.329   4.144   3.105  0.3645 -0.3844  0.6540
 2666TIP3    H2 8005   4.225   4.077   3.192 -0.1317  0.0603  0.4158
 2667TIP3   OH2 8006   5.915   1.965   4.259 -0.1803  0.4668  0.0489
 2667TIP3    H1 8007   5.852   1.960   4.331  1.5975  0.7351  1.7367
 2667TIP3    H2 8008   5.947   2.055   4.261  1.8770 -0.2190  0.7863
 2668TIP3   OH2 8009   3.916   2.190   3.070  0.0160  0.9982  0.4149
 2668TIP3    H1 8010   3.981   2.122   3.089  0.5492  1.1106 -0.9299
 2668TIP3    H2 8011   3.894   2.226   3.156  0.0725 -0.5365  1.1169
 2669TIP3   OH2 8012   2.451   0.592   4.634  0.5238  0.0837 -0.7577
 2669TIP3    H1 8013   2.444   0.520   4.696 -0.4142  0.5468 -0.3030
 2669TIP3    H2 8014   2.534   0.634   4.655 -0.7795  1.6326  1.7793
 2670TIP3   OH2 8015   0.918   5.080   1.206 -0.0717 -0.3868 -0.3021
 2670TIP3    H1 8016   0.990   5.130   1.167  0.1550 -0.1925  0.3482
 2670TIP3    H2 8017   0.845   5.089   1.144  0.2926 -0.1344 -0.6996
 2671TIP3   OH2 8018   1.328   4.284   2.625 -0.5155  0.2077 -0.0975
 2671TIP3    H1 8019   1.353   4.276   2.532 -2.0892 -1.0771 -0.4509
 2671TIP3    H2 8020   1.310   4.377   2.636 -1.6308  0.1965 -1.4796
 2672TIP3   OH2 8021   4.063   3.039   0.144 -0.6412 -0.2427 -0.1448
 2672TIP3    H1 8022   4.090   2.957   0.186  0.9830  0.2526 -0.1604
 2672TIP3    H2 8023   4.037   3.013   0.056 -1.0961 -0.8630  0.1637
 2673TIP3   OH2 8024   2.440   5.181   0.748  0.1100  0.4247  0.6235
 2673TIP3    H1 8025   2.354   5.208   0.781  0.4517  1.8357  0.4511
 2673TIP3    H2 8026   2.478   5.130   0.820 -0.8891 -0.2648  0.6719
 2674TIP3   OH2 8027   3.276   3.337   3.955  0.1881  0.3976 -0.0065
 2674TIP3    H1 8028   3.261   3.408   4.016 -0.6538  0.1983  0.0317
 2674TIP3    H2 8029   3.201   3.279   3.966  0.4527 -0.0801 -0.6141
 2675TIP3   OH2 8030   4.012   2.258   0.788 -0.2256 -0.0926 -0.4931
 2675TIP3    H1 8031   3.927   2.221   0.761 -0.1682 -0.4437 -0.1953
 2675TIP3    H2 8032   3.997   2.289   0.877 -1.4342  4.2031 -1.9180
 2676TIP3   OH2 8033   4.420   3.990   4.293 -0.1676 -0.4583  0.3729
 2676TIP3    H1 8034   4.421   3.956   4.383 -1.3314  1.6886  1.2705
 2676TIP3    H2 8035   4.327   3.999   4.272  0.1028  0.1987 -0.5809
 2677TIP3   OH2 8036   6.270   2.039   0.053  0.1267  0.1866  0.3218
 2677TIP3    H1 8037   6.176   2.020   0.053  0.1732 -0.0422  0.1063
 2677TIP3    H2 8038   6.275   2.134   0.054 -0.1081  0.1980  0.5393
 2678TIP3   OH2 8039   4.930   5.840   3.453  0.2384 -0.2428 -0.0062
 2678TIP3    H1 8040   4.868   5.889   3.507 -0.8937  1.6117 -2.7410
 2678TIP3    H2 8041   4.939   5.893   3.373  3.1458 -1.9225 -0.9409
 2679TIP3   OH2 8042   2.444   0.911   3.275  0.4723  0.2747 -0.8087
 2679TIP3    H1 8043   2.386   0.978   3.311  1.1494 -0.5412  2.0367
 2679TIP3    H2 8044   2.532   0.948   3.282  0.7115 -0.3167 -0.6268
 2680TIP3   OH2 8045   1.742   2.223   1.992  0.1728 -0.0210 -0.0326
 2680TIP3    H1 8046   1.661   2.178   2.014 -0.7495  2.3405  1.8000
 2680TIP3    H2 8047   1.718   2.279   1.918  0.4313 -0.1010 -0.1780
 2681TIP3   OH2 8048   0.793   4.942   3.829  0.0734 -0.1749 -0.2065
 2681TIP3    H1 8049   0.847   4.896   3.765 -0.1026 -1.2261  0.3821
 2681TIP3    H2 8050   0.704   4.938   3.794  0.2265  0.7807 -0.7385
 2682TIP3   OH2 8051   5.726   5.236   5.047 -0.7511  0.7673  0.1866
 2682TIP3    H1 8052   5.658   5.282   4.997 -0.4110  1.3445  0.2486
 2682TIP3    H2 8053   5.706   5.144   5.034 -0.2507  0.8653 -1.6425
 2683TIP3   OH2 8054   3.982   1.288   3.877  0.1242 -0.4185 -0.2537
 2683TIP3    H1 8055   4.036   1.365   3.897 -0.3434  0.1336 -1.0192
 2683TIP3    H2 8056   3.900   1.325   3.843 -0.1824 -1.2571 -0.4575
 2684TIP3   OH2 8057   1.162   0.113   1.546 -0.4566 -0.0205 -0.1148
 2684TIP3    H1 8058   1.161   0.203   1.514  0.7330  0.3665  0.8841
 2684TIP3    H2 8059   1.084   0.106   1.601 -0.0823  0.6725  0.5165
 2685TIP3   OH2 8060   5.977   4.597   1.189 -0.0596  0.2152  0.3904
 2685TIP3    H1 8061   5.984   4.569   1.098  0.1849 -0.0965  0.5029
 2685TIP3    H2 8062   5.906   4.543   1.225  1.3728 -1.3512  1.0011
 2686TIP3   OH2 8063   3.863   3.762   2.549  0.2784  0.0074 -0.1959
 2686TIP3    H1 8064   3.846   3.766   2.455  0.8249  1.0335 -0.2624
 2686TIP3    H2 8065   3.957   3.777   2.558  0.2545 -0.2088  0.5051
 2687TIP3   OH2 8066   2.152   2.238   4.166 -0.2715 -0.0146  0.2374
 2687TIP3    H1 8067   2.097   2.311   4.195 -2.1500 -1.4097  0.4466
 2687TIP3    H2 8068   2.122   2.220   4.077  0.8849  0.0955 -0.1815
 2688TIP3   OH2 8069   2.524   1.359   0.793  0.3792  0.0135  0.5154
 2688TIP3    H1 8070   2.584   1.288   0.770 -0.2546 -1.0507  2.0439
 2688TIP3    H2 8071   2.455   1.318   0.845 -0.8192  1.4932  0.1809
 2689TIP3   OH2 8072   3.585   4.361   3.632  0.4092 -0.5651 -0.0390
 2689TIP3    H1 8073   3.667   4.351   3.680 -0.7231 -1.1683  1.8829
 2689TIP3    H2 8074   3.553   4.272   3.620  1.0173 -0.5102 -2.7120
 2690TIP3   OH2 8075   5.099   5.608   0.018 -0.6713  0.6442  0.2921
 2690TIP3    H1 8076   5.101   5.576   0.108 -2.1501  0.4515  0.2724
 2690TIP3    H2 8077   5.023   5.565  -0.021  0.8297 -0.4898 -1.5282
 2691TIP3   OH2 8078   3.266   5.824   5.059  0.3891 -0.1126  0.1468
 2691TIP3    H1 8079   3.307   5.849   5.141  2.9419 -0.5036 -0.9292
 2691TIP3    H2 8080   3.330   5.847   4.991 -1.2011 -0.7125 -1.6620
 2692TIP3   OH2 8081   3.779   2.902   0.795  0.2664  0.5755  0.0531
 2692TIP3    H1 8082   3.743   2.965   0.856  0.7313 -0.9878  2.0289
 2692TIP3    H2 8083   3.868   2.885   0.827  0.2364 -0.8957 -0.5692
 2693TIP3   OH2 8084   1.181   2.555   1.488 -0.1520 -0.1278 -0.0922
 2693TIP3    H1 8085   1.171   2.650   1.483 -0.3441 -0.1318  0.1438
 2693TIP3    H2 8086   1.118   2.520   1.425 -1.2236 -0.1356  0.9487
 2694TIP3   OH2 8087   4.141   4.990   2.231 -0.1376 -0.5468 -0.0973
 2694TIP3    H1 8088   4.131   4.912   2.177 -0.8515 -0.3957 -0.1853
 2694TIP3    H2 8089   4.063   4.992   2.286 -0.4734  0.4907 -0.5930
 2695TIP3   OH2 8090   3.371   2.029   0.414  0.4418 -0.6339  0.5429
 2695TIP3    H1 8091   3.329   2.067   0.491 -2.7004  1.0384 -1.7571
 2695TIP3    H2 8092   3.335   1.940   0.409 -0.4661 -0.2650  0.2907
 2696TIP3   OH2 8093   5.209   4.827   1.985  0.1158  0.2815 -0.2171
 2696TIP3    H1 8094   5.127   4.808   2.031 -1.0675  1.8843 -1.5645
 2696TIP3    H2 8095   5.241   4.741   1.959 -2.0750 -0.3186 -1.1808
 2697TIP3   OH2 8096   1.996   0.204   0.599 -0.2907  0.1773  1.1408
 2697TIP3    H1 8097   1.958   0.289   0.622  1.5092  1.3425  0.0647
 2697TIP3    H2 8098   2.047   0.178   0.675 -1.2768 -0.2358  1.6782
 2698TIP3   OH2 8099   4.974   3.420   4.071  0.0909 -0.1754 -0.1333
 2698TIP3    H1 8100   4.965   3.498   4.016  0.3594  0.4899  0.7379
 2698TIP3    H2 8101   5.041   3.367   4.027 -0.4125 -0.1306 -0.9691
 2699TIP3   OH2 8102   2.039   5.316   1.799  0.2665  0.5707 -0.5956
 2699TIP3    H1 8103   1.980   5.386   1.772 -0.4385 -0.5399 -2.0417
 2699TIP3    H2 8104   2.068   5.276   1.717  1.4862 -0.1635  0.1713
 2700TIP3   OH2 8105   4.223   2.068   3.962 -0.0751 -0.1852 -0.3389
 2700TIP3    H1 8106   4.188   1.979   3.958  0.5830 -0.4020 -1.5855
 2700TIP3    H2 8107   4.162   2.120   3.910  0.2023 -0.1410 -0.6230
 2701TIP3   OH2 8108   1.876   1.450   2.396 -0.6108 -0.2195 -0.5806
 2701TIP3    H1 8109   1.858   1.513   2.326 -0.6443 -1.3629 -1.6486
 2701TIP3    H2 8110   1.858   1.497   2.477  0.4200  1.4708 -1.2979
 2702TIP3   OH2 8111   0.666   2.866   3.621  0.1682 -0.3068 -0.7642
 2702TIP3    H1 8112   0.615   2.845   3.542  1.4978  0.2980 -1.8231
 2702TIP3    H2 8113   0.757   2.847   3.597  0.9913  2.7640 -0.4877
 2703TIP3   OH2 8114   1.005   2.703   4.991 -0.0386  0.4919 -0.0857
 2703TIP3    H1 8115   0.921   2.702   5.037  1.0830  1.0271  2.1435
 2703TIP3    H2 8116   0.991   2.650   4.913 -1.9771 -0.8962  1.1171
 2704TIP3   OH2 8117   4.058   0.603   4.585 -0.2212  0.3173  0.2473
 2704TIP3    H1 8118   3.975   0.648   4.572 -0.4563 -0.4763 -1.1331
 2704TIP3    H2 8119   4.093   0.640   4.666 -1.8736  0.7133  0.8052
 2705TIP3   OH2 8120   2.888   1.368   4.916 -0.1703  0.1012 -0.0923
 2705TIP3    H1 8121   2.911   1.278   4.894 -0.7217 -0.0890  0.0987
 2705TIP3    H2 8122   2.894   1.371   5.012 -2.4601 -0.3924  0.1069
 2706TIP3   OH2 8123   5.363   1.050   1.400 -0.1392 -0.2526 -0.1439
 2706TIP3    H1 8124   5.271   1.067   1.379 -0.1035  0.5796  0.3304
 2706TIP3    H2 8125   5.406   1.039   1.316  0.1928  3.8836 -0.6791
 2707TIP3   OH2 8126   2.361   3.970   2.135 -0.4344 -0.5335 -0.1089
 2707TIP3    H1 8127   2.394   3.909   2.069  0.3235  1.2154 -1.4056
 2707TIP3    H2 8128   2.373   4.057   2.096 -3.2470  0.3931  0.8808
 2708TIP3   OH2 8129   3.085   4.402   2.417  0.3222 -0.5750 -0.0810
 2708TIP3    H1 8130   3.007   4.374   2.466 -0.5478  1.9062  0.0874
 2708TIP3    H2 8131   3.158   4.380   2.475 -0.6146  1.2840  1.9605
 2709TIP3   OH2 8132   5.545   2.008   0.065  0.2121 -0.1195  0.6368
 2709TIP3    H1 8133   5.451   1.988   0.062  0.3289 -0.6194 -0.8121
 2709TIP3    H2 8134   5.553   2.091   0.018  0.5269 -0.2575  0.4429
 2710TIP3   OH2 8135   5.399   5.429   3.022  0.1166  0.3474 -0.4611
 2710TIP3    H1 8136   5.459   5.474   2.963 -0.6323  0.3697 -1.2104
 2710TIP3    H2 8137   5.449   5.354   3.054 -0.5745 -1.7786 -3.8949
 2711TIP3   OH2 8138   1.273   3.276   1.805 -0.9883  0.1029  0.5204
 2711TIP3    H1 8139   1.194   3.248   1.760  0.4952 -1.5280 -1.2586
 2711TIP3    H2 8140   1.293   3.204   1.866  0.9131 -1.2573 -1.5361
 2712TIP3   OH2 8141   1.317   1.960   2.528  0.5135  0.1549 -0.8522
 2712TIP3    H1 8142   1.260   1.887   2.504  1.8918 -1.3801  0.3561
 2712TIP3    H2 8143   1.392   1.952   2.469  0.7118  0.5586 -0.6570
 2713TIP3   OH2 8144   4.610   3.353   0.491  0.0226  0.0499  0.2687
 2713TIP3    H1 8145   4.627   3.425   0.430  0.8520  0.1298  0.5783
 2713TIP3    H2 8146   4.609   3.395   0.577 -1.9990  0.0802  0.2706
 2714TIP3   OH2 8147   6.277   0.031   3.214 -0.1117 -0.1669  0.0746
 2714TIP3    H1 8148   6.236   0.065   3.135 -0.6990 -1.2823 -0.1206
 2714TIP3    H2 8149   6.206  -0.013   3.261  0.9705 -3.0576 -0.7821
 2715TIP3   OH2 8150   3.830   4.749   5.125 -0.6269  0.3916  0.4463
 2715TIP3    H1 8151   3.898   4.683   5.141 -0.8603  0.3223  1.1728
 2715TIP3    H2 8152   3.849   4.782   5.037 -0.7156 -0.8894 -0.0644
 2716TIP3   OH2 8153   1.382   5.828   3.057 -0.6539 -0.0144  0.0462
 2716TIP3    H1 8154   1.403   5.737   3.079  0.4675 -0.0071 -0.9008
 2716TIP3    H2 8155   1.411   5.878   3.134  1.1333 -0.2122 -0.4482
 2717TIP3   OH2 8156   4.041   1.133   2.274 -0.4682 -0.2174  0.0639
 2717TIP3    H1 8157   3.961   1.115   2.323 -0.5536 -0.7808 -0.2716
 2717TIP3    H2 8158   4.093   1.052   2.282 -0.8657 -0.6664 -1.4927
 2718TIP3   OH2 8159   2.673   2.932   2.145  0.6571 -0.0645  0.3572
 2718TIP3    H1 8160   2.699   2.969   2.061 -1.3431  1.2984  0.2662
 2718TIP3    H2 8161   2.609   2.994   2.180 -1.8341 -2.7042  0.8836
 2719TIP3   OH2 8162   3.636   3.562   3.383 -0.2489  0.2275  0.7073
 2719TIP3    H1 8163   3.721   3.528   3.354 -0.8730 -1.0052  0.2315
 2719TIP3    H2 8164   3.573   3.523   3.322 -1.1375  1.2815  0.9394
 2720TIP3   OH2 8165   2.015   2.891   4.139 -0.5915 -0.6621  0.4898
 2720TIP3    H1 8166   1.969   2.975   4.151 -1.0858 -0.6764 -1.1407
 2720TIP3    H2 8167   1.956   2.839   4.084  2.0792  0.0421 -3.4109
 2721TIP3   OH2 8168   3.412   5.943   2.519 -0.9550 -0.2401 -0.6473
 2721TIP3    H1 8169   3.319   5.937   2.498 -0.9126  1.2139 -1.3758
 2721TIP3    H2 8170   3.413   5.963   2.613 -1.4637  1.1660 -0.9102
 2722TIP3   OH2 8171   2.210   4.020   2.937 -0.0286 -0.5411 -1.1699
 2722TIP3    H1 8172   2.166   3.999   2.854 -0.3446  0.5182 -1.2885
 2722TIP3    H2 8173   2.160   3.973   3.003 -1.1038  0.2942 -1.3577
 2723TIP3   OH2 8174   5.162   0.412   2.410 -0.2450  0.5831 -0.5643
 2723TIP3    H1 8175   5.247   0.449   2.383 -0.0927  0.2651 -0.5190
 2723TIP3    H2 8176   5.126   0.479   2.469  0.8429 -0.0981  0.9679
 2724TIP3   OH2 8177   2.824   5.463   0.098 -0.2957 -0.1363  0.5162
 2724TIP3    H1 8178   2.736   5.485   0.128 -0.7651  0.2027 -1.0295
 2724TIP3    H2 8179   2.844   5.380   0.141 -0.6261  0.6520  2.2879
 2725TIP3   OH2 8180   1.233   4.429   0.903 -0.2692  0.0979 -0.0060
 2725TIP3    H1 8181   1.317   4.464   0.875 -1.1990  1.1966 -1.6491
 2725TIP3    H2 8182   1.198   4.386   0.825 -1.3905 -0.0004  0.5293
 2726TIP3   OH2 8183   2.697   0.154   0.175 -0.0055 -0.6445  0.2729
 2726TIP3    H1 8184   2.791   0.166   0.169  0.0519 -1.0468  0.3492
 2726TIP3    H2 8185   2.674   0.182   0.263 -0.0195 -0.1547  0.1170
 2727TIP3   OH2 8186   0.544   2.044   1.099 -0.2850  0.1777  0.5261
 2727TIP3    H1 8187   0.599   2.122   1.090 -0.4602  0.4215  1.4968
 2727TIP3    H2 8188   0.605   1.973   1.118 -0.2704  0.4009  1.3476
 2728TIP3   OH2 8189   2.572   2.669   4.055 -0.7747  0.1074 -0.1340
 2728TIP3    H1 8190   2.569   2.587   4.104  0.3825  2.1107  3.7246
 2728TIP3    H2 8191   2.650   2.661   4.000  0.3832 -0.8113  1.5150
 2729TIP3   OH2 8192   6.013   4.772   3.037  0.4386  0.3220 -0.5191
 2729TIP3    H1 8193   6.004   4.717   3.115 -1.8632  1.5824  0.1928
 2729TIP3    H2 8194   6.077   4.725   2.982  1.5624 -0.9749  1.7553
 2730TIP3   OH2 8195   2.937   0.363   1.050 -0.0420  0.1351 -0.1081
 2730TIP3    H1 8196   2.924   0.279   1.007 -1.5314  0.3211 -0.0569
 2730TIP3    H2 8197   3.015   0.351   1.104  0.0334 -1.0577 -0.4567
 2731TIP3   OH2 8198   5.778   1.179   0.719  0.2709 -0.2477  0.1478
 2731TIP3    H1 8199   5.854   1.168   0.776 -0.5781 -0.4365  1.3038
 2731TIP3    H2 8200   5.744   1.266   0.741  2.1636  1.4355 -2.9649
 2732TIP3   OH2 8201   0.144   2.341   0.811  0.0807 -0.0982 -0.1351
 2732TIP3    H1 8202   0.128   2.284   0.886 -0.5471 -1.1704 -1.0544
 2732TIP3    H2 8203   0.086   2.416   0.825 -1.2662 -1.0638 -0.3486
 2733TIP3   OH2 8204   1.829   5.109   4.375  0.1034  0.1948  0.3724
 2733TIP3    H1 8205   1.786   5.128   4.459 -1.6706  0.6047 -0.5739
 2733TIP3    H2 8206   1.858   5.019   4.384 -1.5237 -0.3236  0.8787
 2734TIP3   OH2 8207   5.879   4.652   1.882  0.0496 -0.1420  0.6246
 2734TIP3    H1 8208   5.804   4.700   1.848 -0.5583 -1.1122  0.5519
 2734TIP3    H2 8209   5.920   4.612   1.805  1.7192  1.7826  0.4170
 2735TIP3   OH2 8210   6.284   1.010   2.803 -0.3874  0.1860  0.4242
 2735TIP3    H1 8211   6.265   1.015   2.896 -0.7573 -1.0495  0.4309
 2735TIP3    H2 8212   6.262   0.920   2.778 -0.5076  0.5499 -0.8990
 2736TIP3   OH2 8213   0.522   3.286   5.150  0.4155  0.1879 -0.5337
 2736TIP3    H1 8214   0.488   3.329   5.229  0.5386  0.4656 -0.6331
 2736TIP3    H2 8215   0.448   3.234   5.119  0.2777  0.2945 -0.3908
 2737TIP3   OH2 8216   1.960   2.321   4.594 -0.0151  0.5720  0.1803
 2737TIP3    H1 8217   1.907   2.246   4.568  1.9758  0.3341 -4.1177
 2737TIP3    H2 8218   1.906   2.397   4.575 -0.0256  0.2672 -1.0976
 2738TIP3   OH2 8219   1.770   2.945   0.038 -0.3976  0.3660 -0.4138
 2738TIP3    H1 8220   1.834   2.892  -0.009  1.4781  0.4630  1.8436
 2738TIP3    H2 8221   1.700   2.883   0.061  1.0150 -0.8408  0.8403
 2739TIP3   OH2 8222   3.011   3.058   3.779 -0.3732 -0.5872  0.0613
 2739TIP3    H1 8223   3.011   2.972   3.822  3.1300 -0.5102  0.5406
 2739TIP3    H2 8224   2.982   3.119   3.847  0.2889 -1.0431  0.7640
 2740TIP3   OH2 8225   3.758   4.807   3.126 -0.8579  0.0899  0.1805
 2740TIP3    H1 8226   3.813   4.737   3.091 -0.6884  0.2541  0.1174
 2740TIP3    H2 8227   3.819   4.868   3.166 -0.9879  0.2961  0.0668
 2741TIP3   OH2 8228   2.567   0.587   4.248  0.4492  0.0693 -0.7165
 2741TIP3    H1 8229   2.545   0.567   4.157 -0.7018 -0.7644 -0.2797
 2741TIP3    H2 8230   2.483   0.596   4.292  0.9479 -1.1914  0.6093
 2742TIP3   OH2 8231   2.012   4.450   1.420 -0.1107  0.1177 -0.2387
 2742TIP3    H1 8232   1.977   4.362   1.438  0.0765  0.2604  0.8886
 2742TIP3    H2 8233   1.944   4.493   1.369 -1.2823  0.1479  1.3099
 2743TIP3   OH2 8234   2.838   4.858   2.165 -0.1300 -0.4136 -0.4305
 2743TIP3    H1 8235   2.831   4.894   2.254  1.8412 -2.0031  0.4280
 2743TIP3    H2 8236   2.757   4.808   2.154 -0.7505  0.4307  0.1549
 2744TIP3   OH2 8237   3.969   5.930   0.656  0.4058  0.3608 -0.2479
 2744TIP3    H1 8238   3.997   5.955   0.568 -0.7257 -0.3500 -0.8303
 2744TIP3    H2 8239   3.879   5.900   0.645  0.4481 -0.3184  1.0484
 2745TIP3   OH2 8240   2.158   4.301   3.174 -0.3963  0.1310 -0.1842
 2745TIP3    H1 8241   2.067   4.321   3.150 -0.1622  1.3949 -0.1082
 2745TIP3    H2 8242   2.206   4.306   3.091  0.3181  3.9462  0.2711
 2746TIP3   OH2 8243   4.227   3.256   0.108 -0.0933  0.3844 -0.3322
 2746TIP3    H1 8244   4.286   3.203   0.054  0.1526 -0.2309  0.5292
 2746TIP3    H2 8245   4.153   3.198   0.127  0.3987  0.1638  1.0139
 2747TIP3   OH2 8246   5.980   0.221   4.222  0.7889 -0.4829 -0.3730
 2747TIP3    H1 8247   6.051   0.190   4.277  0.8029  0.8535  0.3983
 2747TIP3    H2 8248   5.970   0.153   4.155  2.9752 -0.5646 -0.6866
 2748TIP3   OH2 8249   5.475   4.309   4.042  0.0176 -0.1859  0.4347
 2748TIP3    H1 8250   5.440   4.352   4.120 -0.2544  0.1377  0.1391
 2748TIP3    H2 8251   5.458   4.371   3.971  0.1719 -0.5206  0.1027
 2749TIP3   OH2 8252   5.287   2.733   5.181 -0.1565  0.2825  0.2435
 2749TIP3    H1 8253   5.340   2.810   5.162  1.4866 -1.0719 -1.0145
 2749TIP3    H2 8254   5.292   2.680   5.102 -1.5804 -0.9595  0.9170
 2750TIP3   OH2 8255   1.459   2.832   3.757  0.5319 -0.5905 -0.2388
 2750TIP3    H1 8256   1.438   2.748   3.797  1.4461 -2.4318 -3.3194
 2750TIP3    H2 8257   1.550   2.824   3.731  0.2152  0.7667 -1.9241
 2751TIP3   OH2 8258   1.308   3.513   3.757  0.1307 -0.0126  0.0504
 2751TIP3    H1 8259   1.289   3.602   3.727 -0.2678  0.3364  1.2813
 2751TIP3    H2 8260   1.374   3.525   3.825  0.1659 -0.6752  0.1357
 2752TIP3   OH2 8261   3.474   1.378   0.676  0.3174 -0.4290  0.1527
 2752TIP3    H1 8262   3.490   1.424   0.758  0.8177  0.0668 -0.2189
 2752TIP3    H2 8263   3.394   1.327   0.692 -1.8915  2.6441 -0.2911
 2753TIP3   OH2 8264   2.586   5.198   0.303 -0.2915 -0.1067 -0.0078
 2753TIP3    H1 8265   2.548   5.116   0.333 -0.6499  0.6056  1.5679
 2753TIP3    H2 8266   2.669   5.173   0.263 -0.0679 -1.1610  1.0828
 2754TIP3   OH2 8267   5.986   5.442   1.054 -0.0654 -0.5694  0.0146
 2754TIP3    H1 8268   6.002   5.486   1.138 -1.3922 -0.2497  0.1223
 2754TIP3    H2 8269   5.988   5.349   1.076  1.4412 -0.5671  0.0300
 2755TIP3   OH2 8270   3.520   3.654   1.831  0.1902  0.5506  0.2939
 2755TIP3    H1 8271   3.436   3.681   1.868 -0.5526  0.1621 -1.0382
 2755TIP3    H2 8272   3.572   3.734   1.829  0.0554  0.6922  1.6177
 2756TIP3   OH2 8273   4.403   5.369   1.267  0.5116 -0.1550 -0.4071
 2756TIP3    H1 8274   4.460   5.292   1.267 -0.5438 -0.9611 -1.1844
 2756TIP3    H2 8275   4.323   5.340   1.311  0.3467  0.7050 -0.1176
 2757TIP3   OH2 8276   0.949   2.825   0.903 -0.1032 -0.0021 -0.2849
 2757TIP3    H1 8277   0.938   2.902   0.848 -0.7430  0.5317  0.5569
 2757TIP3    H2 8278   1.017   2.774   0.860  1.8635  2.0406  0.2131
 2758TIP3   OH2 8279   5.027   0.942   3.750 -0.0760  0.4922 -0.3219
 2758TIP3    H1 8280   5.034   1.024   3.701 -2.0663  0.8353 -0.1272
 2758TIP3    H2 8281   5.054   0.965   3.839  0.3613  0.6694 -0.4947
 2759TIP3   OH2 8282   1.214   5.456   0.959  0.5247 -0.6046 -0.3499
 2759TIP3    H1 8283   1.144   5.438   1.021  0.2722  5.0887  1.6515
 2759TIP3    H2 8284   1.181   5.425   0.875 -3.1233 -0.7412  0.9706
 2760TIP3   OH2 8285   0.880   2.682   3.546  0.4362  0.9381  0.3412
 2760TIP3    H1 8286   0.892   2.750   3.480 -0.7157 -1.3538 -2.4210
 2760TIP3    H2 8287   0.880   2.600   3.497 -1.8214 -0.8477  3.0044
 2761TIP3   OH2 8288   6.246   1.098   2.260 -0.2612  0.6752  0.1683
 2761TIP3    H1 8289   6.247   1.067   2.351  0.0767  0.2160  0.0091
 2761TIP3    H2 8290   6.324   1.155   2.254  0.8978 -0.9092 -0.3829
 2762TIP3   OH2 8291   2.272   5.451   3.821  0.6706  0.9516 -0.2188
 2762TIP3    H1 8292   2.189   5.443   3.868  0.6805 -1.1386 -0.4529
 2762TIP3    H2 8293   2.338   5.429   3.886  1.0953  2.7423  0.0014
 2763TIP3   OH2 8294   3.170   3.583   2.841  0.3088 -0.2311  0.3393
 2763TIP3    H1 8295   3.161   3.494   2.806  1.3134 -0.3413  0.3295
 2763TIP3    H2 8296   3.230   3.574   2.915  0.0765  0.3791  0.6107
 2764TIP3   OH2 8297   4.457   0.051   2.412 -0.6155 -0.0113  0.5663
 2764TIP3    H1 8298   4.441  -0.040   2.387  0.0499  0.0741 -0.2202
 2764TIP3    H2 8299   4.436   0.101   2.333  2.9753  0.1489 -0.4606
 2765TIP3   OH2 8300   2.106   2.176   3.902  0.0873  0.3456  0.3760
 2765TIP3    H1 8301   2.026   2.197   3.854  0.5276  0.3609 -0.3709
 2765TIP3    H2 8302   2.133   2.091   3.866 -0.4054 -0.4112  1.6973
 2766TIP3   OH2 8303   2.835   0.543   3.899 -0.2473  0.4467 -0.0348
 2766TIP3    H1 8304   2.783   0.467   3.870 -0.9777  0.3818  1.3760
 2766TIP3    H2 8305   2.926   0.518   3.881 -0.3352 -1.4231  1.7507
 2767TIP3   OH2 8306   3.417   4.895   2.477  0.1574 -0.1161 -0.0713
 2767TIP3    H1 8307   3.333   4.857   2.499 -0.2509  1.2408  0.8414
 2767TIP3    H2 8308   3.463   4.904   2.561  2.2689 -3.0907 -0.7584
 2768TIP3   OH2 8309   4.378   5.957   4.349 -0.3532 -0.1536  0.1630
 2768TIP3    H1 8310   4.291   5.920   4.337 -0.4401  0.1901 -0.2906
 2768TIP3    H2 8311   4.438   5.882   4.344 -0.2497 -0.0179 -3.5679
 2769TIP3   OH2 8312   3.601   2.899   3.201 -0.3987 -0.2729  0.1744
 2769TIP3    H1 8313   3.678   2.913   3.257 -0.5491 -1.9788  0.8690
 2769TIP3    H2 8314   3.638   2.875   3.116 -0.1711  1.6409 -0.2980
 2770TIP3   OH2 8315   5.104   1.344   1.361 -0.8638  1.3881 -0.2491
 2770TIP3    H1 8316   5.065   1.286   1.296  1.1568 -0.4934  0.0766
 2770TIP3    H2 8317   5.149   1.285   1.422 -0.1574  3.2384  1.1427
 2771TIP3   OH2 8318   5.732   5.861   1.483  0.4810  0.0489  0.0156
 2771TIP3    H1 8319   5.735   5.931   1.549 -0.9428  0.6358 -0.5151
 2771TIP3    H2 8320   5.824   5.836   1.472  0.9188  1.1134  0.9752
 2772TIP3   OH2 8321   5.983   0.815   2.908 -0.4920 -0.6140  0.4765
 2772TIP3    H1 8322   6.019   0.730   2.885 -0.6960 -0.9177  1.2260
 2772TIP3    H2 8323   5.907   0.826   2.851  0.3346 -0.2985 -0.5933
 2773TIP3   OH2 8324   2.635   3.393   0.827  0.0306  0.0801 -0.6547
 2773TIP3    H1 8325   2.579   3.462   0.864 -0.5292 -1.8584  2.5076
 2773TIP3    H2 8326   2.705   3.383   0.892 -1.4768 -4.1607  0.6473
 2774TIP3   OH2 8327   4.355   0.599   0.772 -0.4983  0.5761  0.1558
 2774TIP3    H1 8328   4.334   0.582   0.680 -0.2406 -1.1289  0.3883
 2774TIP3    H2 8329   4.269   0.599   0.816 -0.7008  2.1717 -0.1568
 2775TIP3   OH2 8330   0.280   1.069   3.335  0.0596 -0.1470 -0.3983
 2775TIP3    H1 8331   0.199   1.043   3.290  0.4670 -0.6830 -0.8402
 2775TIP3    H2 8332   0.264   1.050   3.427 -0.0563 -0.9544 -0.5757
 2776TIP3   OH2 8333   4.491   1.642   3.785  0.6663 -0.0506  0.4460
 2776TIP3    H1 8334   4.482   1.618   3.877  0.2312 -1.5383  0.0485
 2776TIP3    H2 8335   4.443   1.574   3.738  1.4666  0.2882 -0.9193
 2777TIP3   OH2 8336   0.816   1.232   1.684 -0.7291 -0.0730 -0.1048
 2777TIP3    H1 8337   0.773   1.317   1.672  0.5514  0.4673 -1.0914
 2777TIP3    H2 8338   0.828   1.199   1.595  0.0257 -0.6371  0.2012
 2778TIP3   OH2 8339   3.527   5.580   1.355  0.1292  0.5243  0.2945
 2778TIP3    H1 8340   3.487   5.541   1.277  1.9843  0.1307 -0.5370
 2778TIP3    H2 8341   3.586   5.512   1.388  2.3274  2.0191 -0.3164
 2779TIP3   OH2 8342   5.137   1.902   4.831  0.7154 -0.1630  0.2092
 2779TIP3    H1 8343   5.207   1.923   4.893  1.1488 -0.0889 -0.2969
 2779TIP3    H2 8344   5.143   1.808   4.817  1.2192 -0.0415 -0.4273
 2780TIP3   OH2 8345   2.741   4.212   0.726 -0.3064 -0.2016 -0.1298
 2780TIP3    H1 8346   2.789   4.146   0.776 -0.8139 -0.8228 -0.4547
 2780TIP3    H2 8347   2.711   4.274   0.793 -1.4813 -1.3399  0.4473
 2781TIP3   OH2 8348   3.677   5.114   1.284 -0.0726  0.1800 -0.1281
 2781TIP3    H1 8349   3.611   5.053   1.253 -0.7257  0.3232  0.9433
 2781TIP3    H2 8350   3.731   5.132   1.207 -1.1283 -0.1247 -0.9555
 2782TIP3   OH2 8351   6.135   2.494   0.102 -0.1981  0.2214  0.1965
 2782TIP3    H1 8352   6.066   2.503   0.168 -1.0088  0.2255 -0.6394
 2782TIP3    H2 8353   6.174   2.581   0.095 -1.7271  0.8523 -1.0553
 2783TIP3   OH2 8354   4.878   5.308   0.498  0.2217 -0.0396 -0.1838
 2783TIP3    H1 8355   4.833   5.224   0.491 -0.7372  0.3957  0.5875
 2783TIP3    H2 8356   4.964   5.286   0.534  0.7616 -0.9022 -1.9059
 2784TIP3   OH2 8357   1.562   3.512   0.648 -0.1594 -0.3400  0.3758
 2784TIP3    H1 8358   1.540   3.597   0.610 -0.9446 -0.3689  0.7492
 2784TIP3    H2 8359   1.653   3.497   0.621 -0.4740 -0.0650 -0.9432
 2785TIP3   OH2 8360   4.687   3.844   3.189 -0.0096 -0.8586  0.1538
 2785TIP3    H1 8361   4.630   3.772   3.216  0.2644 -0.5697  1.5830
 2785TIP3    H2 8362   4.732   3.871   3.270 -0.1093  0.9242 -0.3428
 2786TIP3   OH2 8363   3.700   0.487   2.850 -0.4931  0.2733  0.0682
 2786TIP3    H1 8364   3.655   0.419   2.800 -0.4278 -1.0545  1.7167
 2786TIP3    H2 8365   3.630   0.534   2.895 -0.7600  2.9005 -2.7910
 2787TIP3   OH2 8366   3.356   2.240   2.949 -0.5469 -0.3352  0.1830
 2787TIP3    H1 8367   3.276   2.193   2.926 -1.1830 -0.0243  1.6763
 2787TIP3    H2 8368   3.397   2.259   2.865  0.3133 -4.4563 -0.5063
 2788TIP3   OH2 8369   2.979   3.814   2.979  0.4287  0.3411 -0.1468
 2788TIP3    H1 8370   2.961   3.784   2.890  0.1061  1.5105 -0.4958
 2788TIP3    H2 8371   2.977   3.734   3.032  0.8958 -0.4160 -1.2172
 2789TIP3   OH2 8372   2.612   0.098   2.057 -0.5042 -0.6117 -0.1521
 2789TIP3    H1 8373   2.575   0.053   2.134 -1.7469 -0.7687 -0.8154
 2789TIP3    H2 8374   2.541   0.098   1.993 -0.6107  2.4507 -0.1487
 2790TIP3   OH2 8375   4.312   3.394   3.318 -0.1251  0.4294 -0.2559
 2790TIP3    H1 8376   4.381   3.353   3.267  0.4763  1.1714 -0.0539
 2790TIP3    H2 8377   4.347   3.401   3.406 -1.1959 -0.9143  0.3083
 2791TIP3   OH2 8378   4.252   3.398   1.780 -0.3030  0.7221  0.0426
 2791TIP3    H1 8379   4.208   3.454   1.843 -0.6212 -0.0502  0.5114
 2791TIP3    H2 8380   4.342   3.390   1.812 -0.8076 -0.7831  1.1778
 2792TIP3   OH2 8381   3.443   2.066   4.109  0.7011 -0.4559  0.0536
 2792TIP3    H1 8382   3.456   2.135   4.174 -2.1051 -0.8313  1.1904
 2792TIP3    H2 8383   3.491   2.096   4.031 -0.0961  2.6366  0.6111
 2793TIP3   OH2 8384   0.448   5.682   2.127 -0.1467  0.5929 -0.3487
 2793TIP3    H1 8385   0.490   5.730   2.056  0.4138  0.5563 -0.0509
 2793TIP3    H2 8386   0.474   5.729   2.207 -0.3153  0.3103 -0.1242
 2794TIP3   OH2 8387   1.894   2.616   0.375 -0.1217  0.0500 -0.0576
 2794TIP3    H1 8388   1.857   2.694   0.416  0.3352  0.5722 -0.6325
 2794TIP3    H2 8389   1.988   2.624   0.388 -0.1143 -0.7835  0.5285
 2795TIP3   OH2 8390   2.055   2.029   4.806 -0.2172 -0.4880  0.1013
 2795TIP3    H1 8391   2.086   2.112   4.842 -0.2196 -0.3066 -0.3150
 2795TIP3    H2 8392   2.104   2.018   4.725  0.2085 -1.1816  0.4435
 2796TIP3   OH2 8393   3.901   3.652   0.926  0.1517  0.0929 -0.0666
 2796TIP3    H1 8394   3.865   3.563   0.928 -0.1552  0.2195  0.1157
 2796TIP3    H2 8395   3.993   3.640   0.905  0.1389 -0.2800  0.0801
 2797TIP3   OH2 8396   5.813   4.218   1.596  0.1742 -0.2496 -0.2034
 2797TIP3    H1 8397   5.770   4.214   1.511 -1.1512  0.4092  0.4108
 2797TIP3    H2 8398   5.742   4.223   1.660  1.1448  0.0859  0.9007
 2798TIP3   OH2 8399   3.467   0.037   1.191 -0.3979  0.0634  0.1457
 2798TIP3    H1 8400   3.486   0.105   1.257  0.3465 -0.5034  0.5348
 2798TIP3    H2 8401   3.524  -0.035   1.215 -0.0687 -0.1391 -1.1773
 2799TIP3   OH2 8402   6.040   5.977   3.616 -0.3629 -0.3544  0.2122
 2799TIP3    H1 8403   6.008   5.923   3.544  0.5597 -2.5047  1.3101
 2799TIP3    H2 8404   6.134   5.957   3.620 -0.3728 -0.2001  1.9065
 2800TIP3   OH2 8405   6.151   1.604   3.388  0.0608  0.0062 -0.3709
 2800TIP3    H1 8406   6.071   1.657   3.391 -0.2301 -0.3130 -1.8409
 2800TIP3    H2 8407   6.179   1.608   3.297 -0.0203 -2.3989 -0.5610
 2801TIP3   OH2 8408   5.794   0.952   4.930  0.0291 -0.4021 -0.7806
 2801TIP3    H1 8409   5.768   0.970   4.840 -2.9303  0.6742  0.1756
 2801TIP3    H2 8410   5.755   0.867   4.950 -1.2218  0.3337  0.0791
 2802TIP3   OH2 8411   5.558   0.767   1.018 -0.2440  0.2061  0.3104
 2802TIP3    H1 8412   5.488   0.781   0.953  0.0792  0.3772 -0.0063
 2802TIP3    H2 8413   5.517   0.715   1.087 -0.0558 -1.7788 -0.9934
 2803TIP3   OH2 8414   5.493   5.816   2.034  0.3161  0.2092 -0.1530
 2803TIP3    H1 8415   5.472   5.853   2.119 -0.2290  0.7008 -0.4962
 2803TIP3    H2 8416   5.589   5.823   2.028  0.5550 -1.4583  1.1458
 2804TIP3   OH2 8417   2.159   2.698   4.403 -0.3884  0.1176  0.2319
 2804TIP3    H1 8418   2.101   2.722   4.331 -0.2314 -1.0678 -0.3022
 2804TIP3    H2 8419   2.238   2.664   4.361  0.6620  1.5037  0.9465
 2805TIP3   OH2 8420   3.609   0.183   2.356  0.2882 -0.5499 -0.3938
 2805TIP3    H1 8421   3.602   0.131   2.436  0.0920  0.1784  0.0689
 2805TIP3    H2 8422   3.662   0.129   2.297 -0.5037 -1.5831 -0.1803
 2806TIP3   OH2 8423   0.520   3.328   1.912 -0.7409 -0.4934  0.3051
 2806TIP3    H1 8424   0.535   3.240   1.877 -2.6176 -0.8736  0.3340
 2806TIP3    H2 8425   0.580   3.335   1.986 -0.3388 -1.6363  0.1079
 2807TIP3   OH2 8426   0.486   5.049   0.629 -0.1541 -0.6242  0.3441
 2807TIP3    H1 8427   0.441   5.083   0.552 -0.2167  1.0506  1.0779
 2807TIP3    H2 8428   0.570   5.096   0.631  0.4887 -1.7313  0.5004
 2808TIP3   OH2 8429   2.833   1.806   0.580  0.0365  0.0909  0.5666
 2808TIP3    H1 8430   2.851   1.738   0.645 -0.9850  0.1407  0.9095
 2808TIP3    H2 8431   2.740   1.796   0.559  0.8038 -1.5879 -2.7876
 2809TIP3   OH2 8432   3.099   4.137   3.323  0.1720 -0.3503  0.7106
 2809TIP3    H1 8433   3.051   4.072   3.271 -0.1664  0.0105  0.5660
 2809TIP3    H2 8434   3.035   4.169   3.387 -0.3821  1.5368 -0.7130
 2810TIP3   OH2 8435   0.258   3.574   2.372 -0.3186  0.4288  0.1296
 2810TIP3    H1 8436   0.268   3.592   2.465  0.7635 -0.1101  0.1326
 2810TIP3    H2 8437   0.182   3.515   2.366  1.6212 -2.3626  1.0707
 2811TIP3   OH2 8438   4.948   3.407   0.510  0.4130  0.3998 -0.4995
 2811TIP3    H1 8439   4.887   3.342   0.474  0.0545  1.6051 -2.2060
 2811TIP3    H2 8440   5.034   3.379   0.478  0.3481  0.3889 -0.6657
 2812TIP3   OH2 8441   3.106   1.262   3.978 -0.2421 -0.1090  0.0734
 2812TIP3    H1 8442   3.045   1.308   3.921 -1.0261 -0.7196  0.3993
 2812TIP3    H2 8443   3.113   1.174   3.940  0.2192 -0.1277  0.1970
 2813TIP3   OH2 8444   4.769   5.630   2.646  0.2849  0.6555  0.2931
 2813TIP3    H1 8445   4.855   5.661   2.676  0.6746 -0.6847  0.6380
 2813TIP3    H2 8446   4.787   5.543   2.610 -0.5083  1.3463 -1.9730
 2814TIP3   OH2 8447   3.584   4.507   4.085  0.1611 -0.7448  0.3953
 2814TIP3    H1 8448   3.590   4.429   4.029  0.5896 -1.3948  1.3146
 2814TIP3    H2 8449   3.524   4.482   4.154 -0.3107  0.0307  0.2730
 2815TIP3   OH2 8450   4.153   3.017   2.937 -0.4657  0.7060  0.8914
 2815TIP3    H1 8451   4.148   2.960   3.014 -0.1055 -0.0257  0.3894
 2815TIP3    H2 8452   4.245   3.041   2.932  0.0784 -1.4591 -0.8361
 2816TIP3   OH2 8453   2.496   0.075   0.571 -0.0973  0.1152  0.1666
 2816TIP3    H1 8454   2.474   0.069   0.664 -0.0567  2.4840  0.3845
 2816TIP3    H2 8455   2.523  -0.014   0.547 -2.6571 -1.1917  1.7209
 2817TIP3   OH2 8456   5.309   0.066   0.640 -0.2652  0.8466 -0.2764
 2817TIP3    H1 8457   5.374   0.022   0.695 -0.3243  1.8864  0.6669
 2817TIP3    H2 8458   5.361   0.125   0.584 -0.2863  0.5576 -0.6041
 2818TIP3   OH2 8459   5.893   2.273   2.768  0.2992  0.8828  0.0638
 2818TIP3    H1 8460   5.982   2.254   2.799  1.0628  2.1050 -1.2919
 2818TIP3    H2 8461   5.905   2.335   2.697 -1.4145 -1.4251 -2.4090
 2819TIP3   OH2 8462   3.377   4.762   1.524  0.6194 -0.0451 -0.1906
 2819TIP3    H1 8463   3.292   4.796   1.494  0.7333  0.0022 -0.4678
 2819TIP3    H2 8464   3.402   4.822   1.594  0.0039 -0.5919  0.5145
 2820TIP3   OH2 8465   3.274   5.021   1.169  0.3787 -0.1017  0.2766
 2820TIP3    H1 8466   3.242   5.086   1.232 -0.4510  0.4107 -0.6389
 2820TIP3    H2 8467   3.316   5.073   1.100  1.5253 -0.6692  0.5285
 2821TIP3   OH2 8468   2.835   5.996   2.047 -0.3762  0.6592  0.5279
 2821TIP3    H1 8469   2.768   6.044   2.094 -1.9501 -1.7284  0.8866
 2821TIP3    H2 8470   2.846   5.915   2.097  2.6197  0.8146  0.3230
 2822TIP3   OH2 8471   5.760   1.774   4.640 -0.6165  0.0298  0.1385
 2822TIP3    H1 8472   5.726   1.770   4.730  0.0462 -3.3929  0.4024
 2822TIP3    H2 8473   5.855   1.765   4.650 -0.6201 -1.5796 -0.8654
 2823TIP3   OH2 8474   0.420   3.313   2.807  0.0501  0.5269  0.0190
 2823TIP3    H1 8475   0.432   3.378   2.737 -1.2620  1.2399  0.4243
 2823TIP3    H2 8476   0.396   3.365   2.883  1.1376 -0.2731  0.9369
 2824TIP3   OH2 8477   1.165   5.443   1.963 -0.3841  0.0807  0.3220
 2824TIP3    H1 8478   1.241   5.396   1.999 -0.2820  1.1629  1.5754
 2824TIP3    H2 8479   1.165   5.528   2.008 -1.2970  0.8088 -0.9728
 2825TIP3   OH2 8480   2.034   3.007   3.615 -0.2328  0.7340  0.2108
 2825TIP3    H1 8481   2.107   3.058   3.580  0.1540 -0.1230 -0.2847
 2825TIP3    H2 8482   2.044   3.011   3.710  0.4210  0.6827  0.1470
 2826TIP3   OH2 8483   2.328   1.664   2.797 -0.1299 -0.2164 -0.0613
 2826TIP3    H1 8484   2.398   1.661   2.862  0.1323 -2.0626 -0.3571
 2826TIP3    H2 8485   2.292   1.575   2.797  0.1588 -0.4064 -2.7079
 2827TIP3   OH2 8486   3.670   5.417   1.737 -0.4306  0.8054 -0.0517
 2827TIP3    H1 8487   3.650   5.511   1.735 -1.8634  0.5193  0.1695
 2827TIP3    H2 8488   3.654   5.387   1.648 -1.9721  0.3875  0.3508
 2828TIP3   OH2 8489   0.266   2.531   3.765  0.1160  0.3732  0.5862
 2828TIP3    H1 8490   0.193   2.560   3.710 -0.6148 -1.8898  0.2506
 2828TIP3    H2 8491   0.343   2.536   3.708 -0.1383  0.7235  0.2704
 2829TIP3   OH2 8492   1.478   1.356   4.339  0.1308 -0.4287 -0.1157
 2829TIP3    H1 8493   1.489   1.402   4.255  1.2126 -2.4263 -1.1363
 2829TIP3    H2 8494   1.409   1.292   4.322 -0.5135 -0.0256  0.9170
 2830TIP3   OH2 8495   1.010   2.162   2.335  0.0595  0.2448 -0.0190
 2830TIP3    H1 8496   0.996   2.140   2.427 -2.5912  0.2635 -0.3542
 2830TIP3    H2 8497   1.056   2.246   2.337  1.7459 -0.6311  1.2233
 2831TIP3   OH2 8498   4.990   0.043   1.787  0.0384  0.0106 -0.5145
 2831TIP3    H1 8499   5.029  -0.043   1.770  0.7062  0.0801  0.6049
 2831TIP3    H2 8500   4.961   0.040   1.878  2.3126  1.7660  0.3656
 2832TIP3   OH2 8501   2.086   1.336   0.696 -0.1166  0.2558 -0.0017
 2832TIP3    H1 8502   2.061   1.244   0.685 -0.4814  0.4626 -1.0813
 2832TIP3    H2 8503   2.144   1.353   0.622  1.3708  0.4341  1.1726
 2833TIP3   OH2 8504   0.895   3.643   2.440  0.6822 -0.5404  0.1831
 2833TIP3    H1 8505   0.832   3.699   2.485 -1.2859 -1.1536 -1.6054
 2833TIP3    H2 8506   0.877   3.555   2.473  1.9525 -0.5078  1.0402
 2834TIP3   OH2 8507   2.589   5.083   4.981 -0.1684  0.1180  0.1328
 2834TIP3    H1 8508   2.504   5.045   5.002 -0.7441  1.2904  0.0510
 2834TIP3    H2 8509   2.570   5.145   4.910  1.2768 -1.8525 -2.1074
 2835TIP3   OH2 8510   0.205   5.541   2.717 -0.2631  0.1558 -0.3541
 2835TIP3    H1 8511   0.291   5.579   2.736 -0.8661  0.2756  2.5037
 2835TIP3    H2 8512   0.217   5.447   2.730 -0.3422  0.0655 -0.9164
 2836TIP3   OH2 8513   6.208   3.734   3.802  0.0283  0.0719  0.3736
 2836TIP3    H1 8514   6.208   3.640   3.786 -0.6967 -0.1095  1.4092
 2836TIP3    H2 8515   6.288   3.765   3.758 -0.0005 -0.9290 -0.4298
 2837TIP3   OH2 8516   2.226   2.247   3.017 -0.1803  0.2523  0.0873
 2837TIP3    H1 8517   2.139   2.219   2.989  0.2209 -0.1553 -0.8039
 2837TIP3    H2 8518   2.224   2.342   3.010 -1.0032  0.3702  1.4774
 2838TIP3   OH2 8519   6.125   5.856   5.058  0.0136 -0.7228  0.2210
 2838TIP3    H1 8520   6.147   5.814   4.974 -1.4863 -2.0490  0.4480
 2838TIP3    H2 8521   6.040   5.820   5.081 -0.3154  0.8142  1.5720
 2839TIP3   OH2 8522   4.345   4.054   2.234 -0.0620 -0.5750 -0.5309
 2839TIP3    H1 8523   4.319   4.131   2.285  0.3322 -0.6675 -0.1868
 2839TIP3    H2 8524   4.414   4.014   2.286 -1.1995 -1.9408  0.0006
 2840TIP3   OH2 8525   3.931   4.679   2.400  0.5897  0.0405 -0.1878
 2840TIP3    H1 8526   3.893   4.681   2.488 -2.1737 -1.7285 -1.2020
 2840TIP3    H2 8527   3.926   4.769   2.370  0.8784  0.5403  1.1960
 2841TIP3   OH2 8528   3.768   5.128   3.990 -0.1010  0.4298 -0.0992
 2841TIP3    H1 8529   3.732   5.049   3.949 -1.0715  0.4477  0.6875
 2841TIP3    H2 8530   3.838   5.095   4.047 -1.4542 -0.0583  1.3516
 2842TIP3   OH2 8531   2.485   5.105   3.213  0.2548  0.3652  0.4673
 2842TIP3    H1 8532   2.399   5.110   3.172 -0.8720 -1.3132  2.4443
 2842TIP3    H2 8533   2.547   5.104   3.140 -1.5457 -0.8433 -1.1164
 2843TIP3   OH2 8534   6.096   0.708   4.426  0.3791  0.4397  0.3958
 2843TIP3    H1 8535   6.039   0.645   4.471  0.7418  0.3218  0.6990
 2843TIP3    H2 8536   6.166   0.655   4.389  0.0637  0.5356 -0.3504
 2844TIP3   OH2 8537   2.547   4.861   2.701  0.3150 -0.4115  1.1183
 2844TIP3    H1 8538   2.618   4.924   2.710 -0.5201  0.6187  0.6669
 2844TIP3    H2 8539   2.478   4.893   2.759 -0.2211 -0.7516  0.6804
 2845TIP3   OH2 8540   3.459   4.694   0.574  0.4536 -0.3755 -0.4418
 2845TIP3    H1 8541   3.494   4.667   0.489  1.0706 -1.3125  0.0831
 2845TIP3    H2 8542   3.374   4.732   0.554  0.5904 -0.5766 -1.4762
 2846TIP3   OH2 8543   1.211   4.270   3.187  0.1083  0.2649 -0.1873
 2846TIP3    H1 8544   1.141   4.206   3.181 -0.1982  0.4366  1.1739
 2846TIP3    H2 8545   1.288   4.225   3.153 -0.4523 -0.2600 -0.7696
 2847TIP3   OH2 8546   1.467   4.592   4.993 -0.1256  0.2672 -0.3551
 2847TIP3    H1 8547   1.401   4.661   4.994  1.0263  1.4249 -1.2147
 2847TIP3    H2 8548   1.420   4.514   4.962 -0.8610  1.3293 -2.0316
 2848TIP3   OH2 8549   3.833   1.505   4.077 -0.1826  0.3053  0.2431
 2848TIP3    H1 8550   3.884   1.430   4.107 -0.8247 -0.7422 -1.1665
 2848TIP3    H2 8551   3.830   1.564   4.152  0.3874 -1.0528  1.3715
 2849TIP3   OH2 8552   5.686   1.885   4.990  0.3051  0.4144 -0.3805
 2849TIP3    H1 8553   5.591   1.879   4.985  0.3926 -0.8490 -1.0816
 2849TIP3    H2 8554   5.706   1.894   5.083 -0.4878  0.4677 -0.2151
 2850TIP3   OH2 8555   2.178   0.316   3.080 -0.7844  0.3648 -0.6391
 2850TIP3    H1 8556   2.175   0.224   3.053  0.8294  0.4488 -1.2055
 2850TIP3    H2 8557   2.110   0.358   3.027 -2.6478 -0.7124  0.7360
 2851TIP3   OH2 8558   5.285   2.801   0.369 -0.0260 -0.0526  0.3041
 2851TIP3    H1 8559   5.213   2.740   0.356  0.8994 -1.0656 -0.1859
 2851TIP3    H2 8560   5.281   2.823   0.463 -1.4344  0.5455  0.1404
 2852TIP3   OH2 8561   2.450   0.175   1.181  0.3524 -0.4978 -0.1036
 2852TIP3    H1 8562   2.458   0.226   1.101 -0.1132  0.0418  0.1831
 2852TIP3    H2 8563   2.364   0.132   1.174 -0.4173  0.8294  0.8118
 2853TIP3   OH2 8564   2.775   2.413   5.079  0.4703 -0.1988  0.1402
 2853TIP3    H1 8565   2.708   2.400   5.012  1.9424  0.2829 -1.5235
 2853TIP3    H2 8566   2.737   2.478   5.139 -0.3675  0.4493 -1.0460
 2854TIP3   OH2 8567   5.031   2.390   0.401 -0.5327 -0.2960  0.1451
 2854TIP3    H1 8568   5.008   2.354   0.315 -3.5277 -0.1893  0.8169
 2854TIP3    H2 8569   5.007   2.322   0.463  1.1183 -0.1589  1.0020
 2855TIP3   OH2 8570   4.452   1.024   1.756 -0.0591  0.1630 -0.1349
 2855TIP3    H1 8571   4.401   1.098   1.789 -0.5939  0.1848 -0.9800
 2855TIP3    H2 8572   4.542   1.055   1.757 -0.1520  0.4265  0.5762
 2856TIP3   OH2 8573   4.681   4.193   2.548  0.1287  0.0785 -0.4794
 2856TIP3    H1 8574   4.691   4.130   2.619  2.5403  0.2226 -0.6170
 2856TIP3    H2 8575   4.606   4.162   2.499  1.3282 -2.8151 -0.6505
 2857TIP3   OH2 8576   5.130   3.928   1.988  0.1458  0.1900 -0.3377
 2857TIP3    H1 8577   5.042   3.893   2.002 -0.4149  1.5153 -0.4537
 2857TIP3    H2 8578   5.133   4.008   2.040  1.5139 -0.1608  0.1733
 2858TIP3   OH2 8579   4.772   1.813   3.439  0.0797  0.6591  0.3962
 2858TIP3    H1 8580   4.806   1.747   3.378  0.3042  0.4869  0.7066
 2858TIP3    H2 8581   4.692   1.845   3.397 -1.7197 -1.9282  1.5861
 2859TIP3   OH2 8582   4.394   5.852   3.203  0.1859  0.3872 -0.2115
 2859TIP3    H1 8583   4.304   5.883   3.189 -0.3367 -0.5639  0.8828
 2859TIP3    H2 8584   4.384   5.758   3.216  1.1201  0.5378  1.8088
 2860TIP3   OH2 8585   0.858   0.187   4.823  0.0223  0.0286 -0.0267
 2860TIP3    H1 8586   0.794   0.141   4.878  0.2947  0.6259  0.8173
 2860TIP3    H2 8587   0.920   0.119   4.797 -0.0380 -0.2421  0.5128
 2861TIP3   OH2 8588   2.182   4.441   2.489  0.3947 -0.2018  0.5732
 2861TIP3    H1 8589   2.116   4.507   2.466  1.5287  0.6761 -0.2876
 2861TIP3    H2 8590   2.265   4.482   2.466  1.3950 -0.6660  3.0850
 2862TIP3   OH2 8591   1.313   3.657   4.755 -0.8471  0.6966 -0.1932
 2862TIP3    H1 8592   1.339   3.679   4.665  0.3225 -0.1157 -0.0774
 2862TIP3    H2 8593   1.241   3.594   4.744  1.2915 -1.8694 -0.7006
 2863TIP3   OH2 8594   4.910   5.218   2.022  0.0562 -0.0140 -0.0931
 2863TIP3    H1 8595   4.822   5.197   2.052 -0.0084 -0.7994 -0.7701
 2863TIP3    H2 8596   4.967   5.163   2.075  0.0433 -0.3550 -0.4229
 2864TIP3   OH2 8597   4.636   4.830   3.023 -0.0262 -0.2500 -0.1898
 2864TIP3    H1 8598   4.635   4.776   2.944  0.0995 -0.7816  0.1651
 2864TIP3    H2 8599   4.552   4.876   3.022  0.1035 -0.0227 -0.7872
 2865TIP3   OH2 8600   3.272   3.880   2.864 -0.3495  0.4080 -0.7787
 2865TIP3    H1 8601   3.190   3.836   2.886 -0.7385  1.9559  1.1815
 2865TIP3    H2 8602   3.339   3.813   2.876 -1.2514 -0.7100 -1.8089
 2866TIP3   OH2 8603   0.334   4.166   1.541 -0.3314 -0.4465  0.6892
 2866TIP3    H1 8604   0.334   4.251   1.583  1.6085  0.5349 -1.0860
 2866TIP3    H2 8605   0.249   4.160   1.497 -0.3800  0.7143  0.6014
 2867TIP3   OH2 8606   3.289   1.674   3.269 -0.3934 -0.2447 -0.2385
 2867TIP3    H1 8607   3.354   1.657   3.337 -0.8071 -1.2457 -0.0732
 2867TIP3    H2 8608   3.314   1.618   3.196  0.0784  0.8702 -0.9497
 2868TIP3   OH2 8609   6.057   1.378   1.047 -0.7390  0.1811  0.0889
 2868TIP3    H1 8610   6.136   1.327   1.029  0.6473  0.9605  3.3688
 2868TIP3    H2 8611   5.997   1.315   1.087 -0.4697  0.3278  0.7205
 2869TIP3   OH2 8612   5.177   4.639   3.777  0.2605  0.3740  0.0647
 2869TIP3    H1 8613   5.177   4.729   3.810 -0.4646  0.6554 -0.6774
 2869TIP3    H2 8614   5.098   4.599   3.814  1.3464 -0.4433  1.6157
 2870TIP3   OH2 8615   2.396   0.149   0.316  0.6065  0.0259  0.3820
 2870TIP3    H1 8616   2.429   0.121   0.401  2.7656  2.6434  0.5432
 2870TIP3    H2 8617   2.306   0.177   0.334  0.9212  0.2345  1.7541
 2871TIP3   OH2 8618   5.234   0.862   0.242  0.1621 -0.3953  0.2397
 2871TIP3    H1 8619   5.242   0.927   0.311 -1.4320 -0.7975  0.8507
 2871TIP3    H2 8620   5.222   0.913   0.162  2.6855  0.0905  0.0924
 2872TIP3   OH2 8621   5.806   3.902   3.952 -0.5357  0.6515  0.0647
 2872TIP3    H1 8622   5.758   3.851   4.018  0.7258  0.8277  1.1555
 2872TIP3    H2 8623   5.777   3.993   3.966 -1.1446  0.5360 -0.4186
 2873TIP3   OH2 8624   2.152   3.031   3.874  0.4550  0.6311 -0.4943
 2873TIP3    H1 8625   2.202   2.957   3.907 -1.3322 -0.9283 -1.0808
 2873TIP3    H2 8626   2.102   3.061   3.950  0.5322  0.6718 -0.4595
 2874TIP3   OH2 8627   5.307   5.768   0.891 -0.1654  0.3123  0.3801
 2874TIP3    H1 8628   5.401   5.783   0.896 -0.3636  1.6197  0.6874
 2874TIP3    H2 8629   5.289   5.704   0.961  0.5242 -0.1491  0.1365
 2875TIP3   OH2 8630   1.979   3.195   4.071  0.5911 -0.0275 -0.2038
 2875TIP3    H1 8631   1.890   3.173   4.100  0.8154 -3.1494 -1.4533
 2875TIP3    H2 8632   2.005   3.267   4.128 -1.3299 -1.5452  2.8906
 2876TIP3   OH2 8633   2.857   0.815   3.941  0.1942 -0.2149 -0.1552
 2876TIP3    H1 8634   2.832   0.723   3.929 -1.1786  0.0407  0.6447
 2876TIP3    H2 8635   2.787   0.853   3.993  0.4863  1.4272 -0.8959
 2877TIP3   OH2 8636   4.816   3.909   2.162 -0.0041 -0.0621  0.2888
 2877TIP3    H1 8637   4.809   3.853   2.085 -2.3755  0.0186  0.3958
 2877TIP3    H2 8638   4.842   3.849   2.232  1.1396 -0.3209 -0.3279
 2878TIP3   OH2 8639   0.155   3.679   3.080 -0.1989  0.2963  0.2776
 2878TIP3    H1 8640   0.107   3.654   3.001  0.1226  0.6158 -0.0203
 2878TIP3    H2 8641   0.106   3.754   3.115 -0.3130  0.1850  0.3601
 2879TIP3   OH2 8642   6.308   0.421   0.950 -0.3740  0.1629 -0.3582
 2879TIP3    H1 8643   6.215   0.410   0.932 -0.9832  0.7488  2.1528
 2879TIP3    H2 8644   6.313   0.443   1.042  2.2531  0.5056 -0.4984
 2880TIP3   OH2 8645   0.372   1.232   1.733 -0.2480  0.4519  0.6726
 2880TIP3    H1 8646   0.354   1.280   1.813  1.4302  0.3728  1.1499
 2880TIP3    H2 8647   0.418   1.152   1.762 -0.8197 -0.2440 -0.2707
 2881TIP3   OH2 8648   2.654   1.502   1.061  0.3724 -0.2814 -0.0178
 2881TIP3    H1 8649   2.626   1.575   1.006 -0.0412 -0.6974 -0.3649
 2881TIP3    H2 8650   2.722   1.458   1.011 -1.8354 -2.2803 -1.4785
 2882TIP3   OH2 8651   0.970   5.390   3.176 -0.2910  0.3857 -0.2808
 2882TIP3    H1 8652   0.889   5.440   3.190 -0.6255 -0.6109  1.6999
 2882TIP3    H2 8653   1.013   5.390   3.261  1.0686 -0.3643 -0.9432
 2883TIP3   OH2 8654   0.102   0.887   1.249  0.3312 -0.4313 -0.4277
 2883TIP3    H1 8655   0.079   0.846   1.165  0.2018 -1.1202 -0.0587
 2883TIP3    H2 8656   0.187   0.928   1.233  0.7273 -1.3160 -0.6536
 2884TIP3   OH2 8657   0.197   0.748   4.947  0.1788 -0.2784  0.5354
 2884TIP3    H1 8658   0.199   0.753   4.852  1.7154 -4.1084  0.2111
 2884TIP3    H2 8659   0.123   0.691   4.967 -0.2340  0.6213  1.6944
 2885TIP3   OH2 8660   1.777   5.601   0.178 -0.2630  0.0214  0.1163
 2885TIP3    H1 8661   1.782   5.694   0.202  0.8053  0.3283 -1.1902
 2885TIP3    H2 8662   1.690   5.574   0.208 -0.7841  1.5662  0.1182
 2886TIP3   OH2 8663   2.247   2.165   1.977 -0.0879  0.6273 -0.5756
 2886TIP3    H1 8664   2.156   2.192   1.984 -0.7772 -1.5921 -0.3436
 2886TIP3    H2 8665   2.267   2.170   1.884 -1.1863 -1.0166 -0.9334
 2887TIP3   OH2 8666   4.764   2.394   2.223 -0.0666  0.1476  0.2031
 2887TIP3    H1 8667   4.678   2.354   2.208  0.1156 -0.5563  0.9666
 2887TIP3    H2 8668   4.776   2.453   2.148 -0.5980 -0.7858 -0.6467
 2888TIP3   OH2 8669   3.903   2.079   4.938  0.1770  0.1035 -0.2586
 2888TIP3    H1 8670   3.951   2.105   4.859 -0.2089  0.7072 -0.3024
 2888TIP3    H2 8671   3.941   2.134   5.007 -0.0530  0.1626 -0.1805
 2889TIP3   OH2 8672   0.172   1.759   5.025 -0.3026  0.2730 -0.2653
 2889TIP3    H1 8673   0.185   1.834   5.084  2.4068  1.3265 -2.0153
 2889TIP3    H2 8674   0.199   1.683   5.077  1.8112  1.1474  0.0176
 2890TIP3   OH2 8675   4.780   2.287   1.139 -0.6090  0.5088  0.2615
 2890TIP3    H1 8676   4.807   2.196   1.150  1.5443  1.3324  2.8413
 2890TIP3    H2 8677   4.727   2.287   1.059 -0.8611 -2.9969  0.2940
 2891TIP3   OH2 8678   4.820   3.807   0.247 -0.1345 -0.5783 -0.3856
 2891TIP3    H1 8679   4.882   3.822   0.318 -0.0677 -1.7101 -0.1952
 2891TIP3    H2 8680   4.735   3.796   0.290 -0.2833 -0.1720 -0.5658
 2892TIP3   OH2 8681   5.708   5.492   0.963 -0.2205  0.2383 -0.2562
 2892TIP3    H1 8682   5.796   5.453   0.967 -0.7591 -0.9258  0.7715
 2892TIP3    H2 8683   5.706   5.553   1.037 -0.4467 -0.0979  0.0136
 2893TIP3   OH2 8684   3.392   0.314   0.543  0.0471 -0.1823  0.1176
 2893TIP3    H1 8685   3.419   0.362   0.621 -0.2629  0.2065 -0.0148
 2893TIP3    H2 8686   3.396   0.222   0.569  0.4801 -0.0795  0.4204
 2894TIP3   OH2 8687   3.562   5.979   1.462 -0.1971 -0.3619 -0.0769
 2894TIP3    H1 8688   3.518   6.056   1.425  2.0962  0.2291 -1.7714
 2894TIP3    H2 8689   3.548   5.911   1.396  0.4282 -0.4996 -0.0665
 2895TIP3   OH2 8690   0.406   3.596   2.048 -0.2338 -0.4129 -0.1824
 2895TIP3    H1 8691   0.480   3.552   2.006 -0.0038 -0.9246  0.7165
 2895TIP3    H2 8692   0.394   3.548   2.130 -0.9916  0.2318  0.0918
 2896TIP3   OH2 8693   1.466   5.167   3.249  0.1902  0.5686 -0.2099
 2896TIP3    H1 8694   1.371   5.153   3.246  0.1642  0.0704  1.5100
 2896TIP3    H2 8695   1.503   5.079   3.239  0.5259  0.8842 -1.8820
 2897TIP3   OH2 8696   5.366   0.980   3.164  0.5176  0.4176  0.1548
 2897TIP3    H1 8697   5.332   0.896   3.135 -0.9111  1.3391 -0.9715
 2897TIP3    H2 8698   5.389   0.967   3.256 -0.0659 -1.0783  0.1050
 2898TIP3   OH2 8699   2.578   0.317   5.168 -0.0793 -0.1387 -0.4083
 2898TIP3    H1 8700   2.529   0.316   5.086  1.0099  2.4544 -1.2238
 2898TIP3    H2 8701   2.643   0.247   5.157  0.9340  1.0135 -2.4282
 2899TIP3   OH2 8702   1.804   4.570   1.253  0.0975  0.2031  0.1435
 2899TIP3    H1 8703   1.740   4.637   1.274 -1.4834 -0.9300 -0.8149
 2899TIP3    H2 8704   1.819   4.580   1.159 -0.4895 -1.0205 -0.0997
 2900TIP3   OH2 8705   3.041  -0.001   0.233 -0.3501  0.4494 -0.3322
 2900TIP3    H1 8706   3.028   0.094   0.233  0.5592  0.5824  0.2509
 2900TIP3    H2 8707   3.130  -0.013   0.264 -0.9438 -0.6539  1.0490
 2901TIP3   OH2 8708   2.272   2.821   4.010  0.1803 -0.2539  0.7169
 2901TIP3    H1 8709   2.296   2.729   4.019  0.4329 -0.2786 -0.2198
 2901TIP3    H2 8710   2.277   2.855   4.100  3.0000 -0.4146  0.6942
 2902TIP3   OH2 8711   4.869   5.273   0.195  0.4018 -0.4679  0.3274
 2902TIP3    H1 8712   4.879   5.357   0.150  0.8364 -1.0648 -0.7268
 2902TIP3    H2 8713   4.902   5.289   0.284  0.3084  0.5155  0.1932
 2903TIP3   OH2 8714   2.754   1.449   3.372 -0.2421 -0.2869  0.5006
 2903TIP3    H1 8715   2.849   1.452   3.364 -0.1214  0.5570  1.9023
 2903TIP3    H2 8716   2.724   1.400   3.295  1.2253  0.4769 -0.5923
 2904TIP3   OH2 8717   0.335   3.509   4.368 -0.6203 -0.8284 -0.3725
 2904TIP3    H1 8718   0.246   3.474   4.368 -1.4787  1.2011  0.0445
 2904TIP3    H2 8719   0.352   3.534   4.277 -0.4291 -1.2888 -0.4668
 2905TIP3   OH2 8720   1.900   3.426   1.537 -0.3856  0.1838  0.3059
 2905TIP3    H1 8721   1.869   3.418   1.446  0.6945 -0.6560 -0.0115
 2905TIP3    H2 8722   1.938   3.340   1.556  1.0143  0.9243  0.9418
 2906TIP3   OH2 8723   2.404   3.493   0.163 -0.0915 -0.2625  0.3169
 2906TIP3    H1 8724   2.470   3.451   0.218  0.3190 -1.3220 -0.9198
 2906TIP3    H2 8725   2.435   3.478   0.073 -2.6714 -1.9953 -0.3756
 2907TIP3   OH2 8726   2.444   2.933   1.637 -0.5821  0.1887  0.2131
 2907TIP3    H1 8727   2.464   2.927   1.731  0.4253  1.4277  0.1154
 2907TIP3    H2 8728   2.383   3.007   1.630 -3.6646 -2.1790  0.2457
 2908TIP3   OH2 8729   1.664   1.284   3.247  0.3256 -0.2169 -0.1634
 2908TIP3    H1 8730   1.724   1.339   3.297 -1.2493  0.6487  0.8510
 2908TIP3    H2 8731   1.597   1.257   3.310 -0.2434 -1.3649 -1.1954
 2909TIP3   OH2 8732   1.793   5.891   4.965  0.3176 -0.0630 -0.1403
 2909TIP3    H1 8733   1.747   5.877   5.048  2.0370  2.5931  1.4031
 2909TIP3    H2 8734   1.826   5.804   4.940 -0.8983 -1.0491  1.5204
 2910TIP3   OH2 8735   2.012   2.494   4.170  0.4404  0.0178 -0.2113
 2910TIP3    H1 8736   1.969   2.495   4.256  0.4824 -0.9268 -0.1662
 2910TIP3    H2 8737   1.947   2.457   4.111  0.4432  0.5908 -0.5728
 2911TIP3   OH2 8738   1.723   1.070   4.539  0.1122 -0.3919  0.1498
 2911TIP3    H1 8739   1.643   1.051   4.587 -0.4452  0.6587 -0.3252
 2911TIP3    H2 8740   1.792   1.066   4.605 -0.3384 -1.1819  0.5844
 2912TIP3   OH2 8741   0.562   2.305   3.825  0.4585  0.4002 -0.3099
 2912TIP3    H1 8742   0.508   2.281   3.901  0.0492 -0.6261 -0.9067
 2912TIP3    H2 8743   0.632   2.360   3.862 -1.5680  2.7322  0.3308
 2913TIP3   OH2 8744   0.146   1.308   0.176  0.7632  0.0233 -0.2537
 2913TIP3    H1 8745   0.160   1.319   0.082  0.1189  0.1192 -0.3479
 2913TIP3    H2 8746   0.186   1.385   0.216 -1.5833  1.6030 -0.7105
 2914TIP3   OH2 8747   2.033   1.788   1.120  0.2812 -0.1836  0.4301
 2914TIP3    H1 8748   2.079   1.802   1.037 -0.2615  0.7349  0.2682
 2914TIP3    H2 8749   2.006   1.696   1.117  1.2044 -0.4557  0.0807
 2915TIP3   OH2 8750   4.328   4.565   4.692  0.3161  0.0380  0.0921
 2915TIP3    H1 8751   4.297   4.595   4.607 -0.8236 -0.9366  0.1430
 2915TIP3    H2 8752   4.423   4.567   4.684  0.2593  1.5484 -0.6225
 2916TIP3   OH2 8753   0.880   0.587   1.720  0.5534 -0.1519 -0.0523
 2916TIP3    H1 8754   0.946   0.645   1.681  0.0486  0.0516 -0.6257
 2916TIP3    H2 8755   0.914   0.568   1.808  1.9414 -0.9634 -0.7177
 2917TIP3   OH2 8756   5.320   2.978   3.155  0.5046 -0.2099  0.1787
 2917TIP3    H1 8757   5.380   2.978   3.229  1.4172  0.9194 -0.5407
 2917TIP3    H2 8758   5.292   2.887   3.147  1.1946 -0.5320  1.2598
 2918TIP3   OH2 8759   3.111   1.927   4.986 -0.1710  0.5210 -0.6167
 2918TIP3    H1 8760   3.202   1.951   5.004  0.2697 -1.3660 -0.0780
 2918TIP3    H2 8761   3.060   2.005   5.009  1.0265  0.6205  2.0971
 2919TIP3   OH2 8762   2.658   3.907   3.886  0.1343 -0.2298 -0.1875
 2919TIP3    H1 8763   2.623   3.830   3.932 -0.2217  0.3499  0.5251
 2919TIP3    H2 8764   2.589   3.973   3.894  1.9308  1.5093  2.6600
 2920TIP3   OH2 8765   0.876   1.135   2.708  0.6568 -0.0120 -0.5995
 2920TIP3    H1 8766   0.939   1.096   2.770  0.1760 -0.4702 -0.3882
 2920TIP3    H2 8767   0.923   1.138   2.625  1.0832 -0.0184 -0.3596
 2921TIP3   OH2 8768   3.952   0.255   2.810 -0.2833  0.0632  0.3442
 2921TIP3    H1 8769   3.890   0.232   2.741 -1.8067  1.8106  1.0524
 2921TIP3    H2 8770   3.911   0.226   2.891  0.8685 -0.7404  0.6674
 2922TIP3   OH2 8771   5.139   6.003   3.582  0.1638  0.3287  0.1842
 2922TIP3    H1 8772   5.083   5.937   3.540 -0.5938  0.7600  0.4915
 2922TIP3    H2 8773   5.212   6.014   3.521 -0.7959  0.7710 -0.9379
 2923TIP3   OH2 8774   3.967   5.683   3.380 -0.2426  0.2507  0.7057
 2923TIP3    H1 8775   3.907   5.718   3.314  0.8369 -0.1115 -0.5245
 2923TIP3    H2 8776   3.989   5.595   3.348 -1.9369 -1.1500  3.0807
 2924TIP3   OH2 8777   5.428   4.512   3.835  0.6878  0.7283  0.3843
 2924TIP3    H1 8778   5.344   4.537   3.798  0.4485  2.2814  1.8677
 2924TIP3    H2 8779   5.464   4.450   3.771 -0.9803  1.0158 -0.9252
 2925TIP3   OH2 8780   3.371   2.291   0.905 -0.0152 -0.9004 -0.1508
 2925TIP3    H1 8781   3.292   2.240   0.922  0.2895 -1.0068  1.0761
 2925TIP3    H2 8782   3.443   2.228   0.912  0.2245 -0.7073 -0.7510
 2926TIP3   OH2 8783   3.328   3.247   4.991 -0.4340 -0.1306  0.0797
 2926TIP3    H1 8784   3.387   3.256   5.066 -0.7952 -0.1149  0.3651
 2926TIP3    H2 8785   3.250   3.204   5.027  0.0262 -1.5846 -0.6181
 2927TIP3   OH2 8786   5.860   0.973   4.397 -0.5667 -0.4013 -0.1138
 2927TIP3    H1 8787   5.796   0.986   4.327 -0.9962 -0.3346  0.2901
 2927TIP3    H2 8788   5.878   0.879   4.397  1.9656 -0.0551 -2.5379
 2928TIP3   OH2 8789   4.579   2.464   3.577  0.8830  0.1877  0.1719
 2928TIP3    H1 8790   4.577   2.522   3.653 -1.4819  0.7220 -0.2203
 2928TIP3    H2 8791   4.493   2.421   3.578  1.3893 -0.9365 -1.3513
 2929TIP3   OH2 8792   2.813   3.075   0.424 -0.7818  0.0381 -0.7023
 2929TIP3    H1 8793   2.722   3.103   0.417 -0.9469 -0.5499 -0.9941
 2929TIP3    H2 8794   2.855   3.143   0.477 -1.8289 -0.6667  1.1586
 2930TIP3   OH2 8795   5.451   5.321   1.240 -0.1588  0.2430 -0.7291
 2930TIP3    H1 8796   5.439   5.382   1.313 -2.3717 -1.0485  0.0558
 2930TIP3    H2 8797   5.432   5.374   1.162 -2.0663  0.6287 -0.0620
 2931TIP3   OH2 8798   3.118   0.064   0.604 -0.1111 -0.2824 -0.0781
 2931TIP3    H1 8799   3.181   0.004   0.564 -1.2833 -1.3582 -0.3345
 2931TIP3    H2 8800   3.042   0.011   0.624 -1.1327  1.0843 -0.1739
 2932TIP3   OH2 8801   1.565   0.036   4.286  0.4979  0.0020  0.1857
 2932TIP3    H1 8802   1.600   0.106   4.231  0.1941  0.0651  0.0732
 2932TIP3    H2 8803   1.617  -0.041   4.262  1.7006  0.4615  1.2308
 2933TIP3   OH2 8804   2.118   5.941   4.556 -0.3472 -0.1122  0.3898
 2933TIP3    H1 8805   2.081   5.970   4.473  2.7101 -0.3745 -1.1993
 2933TIP3    H2 8806   2.168   6.016   4.589 -2.2615  0.3228  2.5732
 2934TIP3   OH2 8807   0.852   2.930   3.025 -0.2878  0.0758  0.1841
 2934TIP3    H1 8808   0.862   2.844   2.984  1.2086 -0.1362  0.9240
 2934TIP3    H2 8809   0.822   2.987   2.955  1.3287 -0.4772 -1.0214
 2935TIP3   OH2 8810   3.817   3.944   4.784  0.4543  0.2507 -0.4051
 2935TIP3    H1 8811   3.764   3.926   4.861  1.4596  0.0346  0.2439
 2935TIP3    H2 8812   3.789   3.878   4.720 -0.6351  0.6532 -0.3773
 2936TIP3   OH2 8813   4.481   3.880   0.594  0.0642 -1.2879 -0.0124
 2936TIP3    H1 8814   4.461   3.972   0.612 -1.8068 -1.4227 -1.0911
 2936TIP3    H2 8815   4.496   3.841   0.680 -0.3714 -0.2205  0.5612
 2937TIP3   OH2 8816   2.568   5.782   2.210 -0.1377  0.2834 -0.2704
 2937TIP3    H1 8817   2.538   5.749   2.294  0.7304 -1.5024 -0.6191
 2937TIP3    H2 8818   2.646   5.834   2.231 -1.3001  1.9092  0.2401
 2938TIP3   OH2 8819   5.101   5.489   0.277 -0.0503  0.1572 -0.1418
 2938TIP3    H1 8820   5.189   5.475   0.311  0.3315  0.2590 -1.0562
 2938TIP3    H2 8821   5.044   5.479   0.353  0.7047 -0.3988  0.3652
 2939TIP3   OH2 8822   4.937   4.843   2.039  0.0050  0.0560  0.4505
 2939TIP3    H1 8823   4.944   4.914   2.103  0.1121 -0.3981  0.9490
 2939TIP3    H2 8824   4.867   4.787   2.073 -0.1824  0.0014 -0.0187
 2940TIP3   OH2 8825   1.798   3.425   4.288 -0.1383 -0.9064  0.1155
 2940TIP3    H1 8826   1.724   3.364   4.292 -0.6447 -0.3304 -0.2366
 2940TIP3    H2 8827   1.778   3.490   4.356  0.1086 -0.8193  0.1030
 2941TIP3   OH2 8828   0.272   3.090   4.825  0.5233  0.2684  0.3437
 2941TIP3    H1 8829   0.209   3.128   4.763 -1.5979 -0.3824  1.9892
 2941TIP3    H2 8830   0.267   2.996   4.809 -0.0099  0.0991  1.4201
 2942TIP3   OH2 8831   2.489   1.493   3.491 -0.2785 -0.5836  0.2807
 2942TIP3    H1 8832   2.570   1.478   3.441 -0.9388  1.9522 -1.7709
 2942TIP3    H2 8833   2.441   1.410   3.483  1.0201 -1.3019 -0.5984
 2943TIP3   OH2 8834   0.506   0.531   0.981 -0.1703 -0.2476  0.3391
 2943TIP3    H1 8835   0.480   0.617   1.013 -1.6244 -0.6703  0.3780
 2943TIP3    H2 8836   0.566   0.549   0.908 -0.4305  0.7893  0.3683
 2944TIP3   OH2 8837   3.831   5.767   1.199  0.3417 -0.3751  0.0476
 2944TIP3    H1 8838   3.834   5.845   1.255 -1.2157  1.1640 -1.8635
 2944TIP3    H2 8839   3.912   5.771   1.148  1.7326 -1.7444  1.9923
 2945TIP3   OH2 8840   5.392   0.861   3.426 -0.1919 -0.5739 -0.1077
 2945TIP3    H1 8841   5.358   0.799   3.491 -0.3772  0.4713  0.8205
 2945TIP3    H2 8842   5.396   0.945   3.472  0.1904  0.0880 -1.2957
 2946TIP3   OH2 8843   6.193   1.184   4.287 -0.2568  0.6784  0.6652
 2946TIP3    H1 8844   6.105   1.218   4.270  0.2761  2.2086  0.8045
 2946TIP3    H2 8845   6.237   1.254   4.336  1.9086  1.1368 -1.7271
 2947TIP3   OH2 8846   1.615   2.545   2.452 -0.0958 -0.4298  0.2430
 2947TIP3    H1 8847   1.620   2.457   2.415 -1.5149 -0.7929  0.8374
 2947TIP3    H2 8848   1.705   2.578   2.450  0.2482 -1.3925 -1.1662
 2948TIP3   OH2 8849   1.846   0.901   0.889 -0.0152 -0.9025 -0.3061
 2948TIP3    H1 8850   1.841   0.996   0.882  0.8452 -0.9124 -1.3430
 2948TIP3    H2 8851   1.781   0.869   0.827 -0.5644 -1.0009  0.3097
 2949TIP3   OH2 8852   1.354   4.468   0.094  0.5155  0.6683  0.6394
 2949TIP3    H1 8853   1.316   4.400   0.038 -0.7347 -0.0126  2.2353
 2949TIP3    H2 8854   1.448   4.463   0.076  0.2346 -0.0962 -0.7627
 2950TIP3   OH2 8855   6.049   4.031   2.872  0.3612  0.0726  0.4028
 2950TIP3    H1 8856   6.003   4.113   2.892 -0.8656 -0.6285  0.5301
 2950TIP3    H2 8857   6.006   3.999   2.793 -1.0419 -1.7883  1.8219
 2951TIP3   OH2 8858   5.499   0.402   0.697  0.1203 -0.2729  0.2785
 2951TIP3    H1 8859   5.518   0.325   0.749 -1.5244 -0.3574  0.8001
 2951TIP3    H2 8860   5.551   0.472   0.737  0.3560 -0.7604  0.8277
 2952TIP3   OH2 8861   0.680   3.311   0.715  0.0435 -0.2410 -0.6242
 2952TIP3    H1 8862   0.717   3.223   0.709  2.6664  0.6059  1.1695
 2952TIP3    H2 8863   0.639   3.315   0.801  1.4574  0.7560  0.0337
 2953TIP3   OH2 8864   5.685   4.098   1.980 -0.0347  0.0819  0.9017
 2953TIP3    H1 8865   5.623   4.030   2.005  0.7629 -0.8077  0.5100
 2953TIP3    H2 8866   5.736   4.060   1.908  1.9511  0.2021  2.1630
 2954TIP3   OH2 8867   3.742   4.090   3.513  0.2105  0.1726  0.2954
 2954TIP3    H1 8868   3.733   3.995   3.502 -0.6394  0.4022 -1.1922
 2954TIP3    H2 8869   3.678   4.128   3.453  0.2802  1.6952  1.1363
 2955TIP3   OH2 8870   0.566   3.008   2.237  0.6145  0.1791 -0.3808
 2955TIP3    H1 8871   0.594   2.945   2.170  1.3376 -0.7079  0.7377
 2955TIP3    H2 8872   0.522   3.077   2.187  1.8263 -0.0693 -1.8667
 2956TIP3   OH2 8873   2.284   0.493   0.306 -0.7643 -0.1350 -0.6750
 2956TIP3    H1 8874   2.212   0.553   0.321  0.0222  0.9251 -1.0333
 2956TIP3    H2 8875   2.274   0.426   0.373 -2.4289 -0.3529 -1.1123
 2957TIP3   OH2 8876   3.066   1.159   1.025  0.0454 -0.4473 -0.2732
 2957TIP3    H1 8877   2.989   1.183   1.077 -0.0533 -1.7161  0.1981
 2957TIP3    H2 8878   3.128   1.123   1.088  1.6238  1.7830 -0.4215
 2958TIP3   OH2 8879   2.188   3.926   0.005 -0.1052  0.2210  0.0023
 2958TIP3    H1 8880   2.243   3.857  -0.030 -1.4940 -1.5371  1.1136
 2958TIP3    H2 8881   2.119   3.880   0.054  0.4896  2.3967  3.2135
 2959TIP3   OH2 8882   4.358   2.175   0.035 -0.6818 -0.1127 -0.5491
 2959TIP3    H1 8883   4.415   2.250   0.019  0.1471 -0.7560 -0.6773
 2959TIP3    H2 8884   4.271   2.213   0.046  0.0648  1.1029  1.7446
 2960TIP3   OH2 8885   5.162   3.534   4.641  0.6755 -0.0502 -0.2058
 2960TIP3    H1 8886   5.108   3.492   4.708  2.0738 -1.1519  0.2698
 2960TIP3    H2 8887   5.205   3.606   4.688 -0.4945  0.9786 -0.6409
 2961TIP3   OH2 8888   5.044   5.793   3.983 -0.5300  0.0367  0.7155
 2961TIP3    H1 8889   5.089   5.816   4.065 -0.7364  1.4084  0.4583
 2961TIP3    H2 8890   4.953   5.816   3.998 -0.6695 -0.2205  0.2826
 2962TIP3   OH2 8891   3.467   4.555   1.094  0.4090  0.4873  0.0959
 2962TIP3    H1 8892   3.385   4.601   1.072 -0.9819 -0.8482  2.1099
 2962TIP3    H2 8893   3.527   4.578   1.023 -1.7448  1.4029 -1.5541
 2963TIP3   OH2 8894   4.635   2.801   3.668  0.6690  0.1091 -0.5382
 2963TIP3    H1 8895   4.555   2.852   3.659  0.1404 -0.6531 -0.2716
 2963TIP3    H2 8896   4.618   2.743   3.743  0.6386 -1.5188 -1.7403
 2964TIP3   OH2 8897   4.787   1.714   1.679 -0.2149 -0.1225  0.0935
 2964TIP3    H1 8898   4.694   1.695   1.687 -0.2339 -0.0549  0.0325
 2964TIP3    H2 8899   4.829   1.628   1.683 -0.2775 -0.1503  0.1511
 2965TIP3   OH2 8900   3.227   2.488   3.110  0.2902 -0.1199  0.3395
 2965TIP3    H1 8901   3.246   2.399   3.082  0.0410 -0.3145  0.7873
 2965TIP3    H2 8902   3.143   2.482   3.156 -0.1864  0.4983 -0.4117
 2966TIP3   OH2 8903   3.476   2.570   3.065 -0.4165  0.3907 -0.0514
 2966TIP3    H1 8904   3.390   2.541   3.092  0.5990 -1.2554  1.6644
 2966TIP3    H2 8905   3.460   2.625   2.988 -2.9064 -0.3687 -0.1579
 2967TIP3   OH2 8906   2.852   5.112   4.408  0.0137 -0.2361  0.1078
 2967TIP3    H1 8907   2.797   5.034   4.418  0.5210 -0.4319  1.6840
 2967TIP3    H2 8908   2.914   5.107   4.481 -0.3804  2.0097  0.6734
 2968TIP3   OH2 8909   6.002   2.227   0.238  0.0611  0.0022 -0.4397
 2968TIP3    H1 8910   6.025   2.140   0.271 -0.2253  0.3618  0.7495
 2968TIP3    H2 8911   6.021   2.286   0.311  0.9663  1.0477 -1.4774
 2969TIP3   OH2 8912   4.873   4.278   3.617  0.1123 -0.5632  0.1568
 2969TIP3    H1 8913   4.832   4.363   3.634  2.1005  0.7386 -1.0936
 2969TIP3    H2 8914   4.825   4.242   3.542  1.4969  1.2527 -1.7378
 2970TIP3   OH2 8915   2.175   0.795   0.830 -0.3980 -0.3897 -0.1451
 2970TIP3    H1 8916   2.185   0.851   0.907 -0.3010  0.1024 -0.5105
 2970TIP3    H2 8917   2.234   0.833   0.765 -2.1966  0.6163 -1.2672
 2971TIP3   OH2 8918   3.716   1.943   0.497 -0.1647  0.8043 -0.0651
 2971TIP3    H1 8919   3.739   1.872   0.557  0.2297  1.0022  0.0218
 2971TIP3    H2 8920   3.759   2.020   0.533 -0.1334  0.9773 -0.4636
 2972TIP3   OH2 8921   2.098   0.700   1.829 -0.0820 -0.2246  0.3273
 2972TIP3    H1 8922   2.157   0.765   1.866  0.4621  0.0593 -0.9976
 2972TIP3    H2 8923   2.155   0.627   1.805 -0.5451 -0.7570  0.7924
 2973TIP3   OH2 8924   0.139   3.503   0.095  0.2850 -0.2020 -0.1102
 2973TIP3    H1 8925   0.088   3.537   0.169  0.3971 -1.1152  0.3960
 2973TIP3    H2 8926   0.225   3.482   0.132 -0.1439 -2.1290 -0.1377
 2974TIP3   OH2 8927   5.566   5.528   0.740 -0.1980  0.2832 -0.2377
 2974TIP3    H1 8928   5.617   5.506   0.818 -0.1335  0.1616 -0.3121
 2974TIP3    H2 8929   5.626   5.510   0.667 -0.5152 -0.3609 -0.3526
 2975TIP3   OH2 8930   4.798   5.720   0.348 -1.2003  0.4302 -0.1430
 2975TIP3    H1 8931   4.823   5.712   0.440 -1.6838 -2.8913 -0.1672
 2975TIP3    H2 8932   4.703   5.707   0.347 -1.2656  0.8483 -1.0998
 2976TIP3   OH2 8933   5.218   3.858   1.719  0.6468  0.9228  0.2550
 2976TIP3    H1 8934   5.180   3.874   1.805 -0.1488 -0.6632  0.2290
 2976TIP3    H2 8935   5.142   3.837   1.663  1.3825 -0.8494 -0.1447
 2977TIP3   OH2 8936   5.948   1.222   4.199  0.3738 -0.5277 -0.2573
 2977TIP3    H1 8937   5.862   1.215   4.241  0.2379 -2.1905 -0.7352
 2977TIP3    H2 8938   5.962   1.137   4.158  2.7225 -0.6808  0.6803
 2978TIP3   OH2 8939   5.672   3.000   1.717 -0.2532 -0.1974  0.2624
 2978TIP3    H1 8940   5.757   3.032   1.685 -0.2086 -1.0600 -0.5263
 2978TIP3    H2 8941   5.635   2.952   1.643 -0.5140 -1.5620  1.2461
 2979TIP3   OH2 8942   1.505   0.523   1.100 -0.2398 -0.0038 -0.1291
 2979TIP3    H1 8943   1.449   0.451   1.070 -0.5021  0.7575 -1.5390
 2979TIP3    H2 8944   1.534   0.496   1.187  0.7179 -2.4175 -1.1292
 2980TIP3   OH2 8945   5.769   3.857   3.044  0.4024  0.3258  0.3786
 2980TIP3    H1 8946   5.823   3.904   3.107  2.6737 -3.2174  1.3418
 2980TIP3    H2 8947   5.705   3.810   3.097 -1.1799  1.4078 -0.4794
 2981TIP3   OH2 8948   5.622   4.980   5.025 -0.5233 -0.8037 -0.3688
 2981TIP3    H1 8949   5.685   4.915   4.995  0.7294  1.1022 -2.1321
 2981TIP3    H2 8950   5.545   4.967   4.969  0.6083  0.6412 -2.4073
 2982TIP3   OH2 8951   1.101   1.931   1.155 -0.2993 -0.4149  0.0402
 2982TIP3    H1 8952   1.185   1.922   1.199  0.2829 -1.7410 -1.2306
 2982TIP3    H2 8953   1.101   2.021   1.121  2.4933 -1.4775 -3.3923
 2983TIP3   OH2 8954   5.968   3.976   2.615  0.6349 -0.2189 -0.3367
 2983TIP3    H1 8955   5.945   3.907   2.553  1.2431 -0.3935 -0.3672
 2983TIP3    H2 8956   6.028   4.033   2.567 -0.4542  0.7735 -0.5745
 2984TIP3   OH2 8957   0.222   5.852   2.507 -0.3665  0.3938 -0.1943
 2984TIP3    H1 8958   0.134   5.888   2.516 -0.9931 -1.1112  0.1530
 2984TIP3    H2 8959   0.208   5.767   2.464  1.0143  0.5395 -0.9886
 2985TIP3   OH2 8960   1.773   2.666   4.314  0.1849  0.1100  0.1915
 2985TIP3    H1 8961   1.690   2.642   4.273  0.1242  0.3787  0.1541
 2985TIP3    H2 8962   1.820   2.714   4.245  0.0320  0.6718  0.4753
 2986TIP3   OH2 8963   5.051   1.219   0.746  0.5574  0.3894  0.4019
 2986TIP3    H1 8964   5.080   1.266   0.667 -1.7936  3.5066  1.1764
 2986TIP3    H2 8965   5.091   1.267   0.818  1.7138 -1.7103  1.2546
 2987TIP3   OH2 8966   0.194   5.356   1.552  0.2900  0.0537  0.3587
 2987TIP3    H1 8967   0.188   5.343   1.646 -0.1661  0.3035  0.3699
 2987TIP3    H2 8968   0.172   5.271   1.514  0.1286  0.0421  0.4753
 2988TIP3   OH2 8969   2.299   3.729   0.292  0.2446 -0.3823 -0.1207
 2988TIP3    H1 8970   2.212   3.690   0.302 -0.2764  0.3719 -1.4524
 2988TIP3    H2 8971   2.351   3.659   0.251  1.0178 -1.7156  2.8881
 2989TIP3   OH2 8972   1.625   2.347   1.791  0.7803  0.4990 -0.2110
 2989TIP3    H1 8973   1.586   2.310   1.713  0.7727 -2.0198  0.8910
 2989TIP3    H2 8974   1.575   2.427   1.808 -0.8851 -0.2635 -1.3261
 2990TIP3   OH2 8975   1.434   0.088   0.393  0.2096  0.4783 -0.0566
 2990TIP3    H1 8976   1.502   0.020   0.397  0.4649  0.7613  0.4478
 2990TIP3    H2 8977   1.358   0.044   0.355  0.2277 -0.2166  0.6937
 2991TIP3   OH2 8978   2.807   3.455   0.581  0.5508  0.3515 -0.1855
 2991TIP3    H1 8979   2.808   3.542   0.543  0.1507  0.9565  1.1064
 2991TIP3    H2 8980   2.885   3.452   0.637 -0.1218  0.3836  0.7842
 2992TIP3   OH2 8981   5.610   5.337   1.693 -0.1986 -0.4654  0.6031
 2992TIP3    H1 8982   5.604   5.362   1.785 -0.5427  0.9033  0.2319
 2992TIP3    H2 8983   5.704   5.336   1.675 -0.1599  0.3607  0.7046
 2993TIP3   OH2 8984   1.797   5.039   2.220 -0.2375  0.4668  0.0227
 2993TIP3    H1 8985   1.878   5.070   2.261 -1.3436  1.7459  1.3348
 2993TIP3    H2 8986   1.793   4.946   2.243  1.1108  0.2347 -0.5528
 2994TIP3   OH2 8987   2.649   4.967   0.017 -0.4048 -0.0227 -0.8451
 2994TIP3    H1 8988   2.732   4.952  -0.028 -0.2827 -0.1640 -0.5758
 2994TIP3    H2 8989   2.651   4.908   0.092 -1.7431 -1.7186 -2.0827
 2995TIP3   OH2 8990   1.510   2.159   3.995  0.5747 -0.5569 -0.0598
 2995TIP3    H1 8991   1.535   2.067   3.998 -2.3786 -1.4812 -0.1045
 2995TIP3    H2 8992   1.518   2.184   3.903  1.6335 -0.6698 -0.0059
 2996TIP3   OH2 8993   3.554   2.916   3.567  0.1245  0.3704  0.4123
 2996TIP3    H1 8994   3.626   2.975   3.588  1.8156 -1.4871  0.1758
 2996TIP3    H2 8995   3.585   2.830   3.595 -1.4617 -0.7110 -0.9291
 2997TIP3   OH2 8996   3.879   2.126   3.467  0.1479  0.5957 -0.6167
 2997TIP3    H1 8997   3.830   2.184   3.525  0.8293  0.4279  0.1553
 2997TIP3    H2 8998   3.813   2.074   3.423 -0.3815  0.2098  0.5793
 2998TIP3   OH2 8999   2.263   2.217   0.590  0.5404 -0.1045  0.2552
 2998TIP3    H1 9000   2.311   2.176   0.661  0.6799 -0.3911 -0.0040
 2998TIP3    H2 9001   2.330   2.241   0.526  0.1219 -3.2255 -1.5138
 2999TIP3   OH2 9002   3.224   1.222   4.777 -0.2102 -0.2855  0.1688
 2999TIP3    H1 9003   3.215   1.238   4.871 -0.0399 -2.3033  0.5612
 2999TIP3    H2 9004   3.260   1.304   4.743 -0.0899  0.4258  1.8827
 3000TIP3   OH2 9005   2.818   3.765   0.899  0.4352  0.1519 -0.4251
 3000TIP3    H1 9006   2.771   3.760   0.816 -0.3278  1.9569 -0.1375
 3000TIP3    H2 9007   2.779   3.697   0.953 -2.3604  1.9684  0.0108
 3001TIP3   OH2 9008   6.135   0.034   2.510 -0.1456 -0.5111  0.0187
 3001TIP3    H1 9009   6.201   0.102   2.526  0.2119 -0.1389 -2.5291
 3001TIP3    H2 9010   6.186  -0.044   2.489 -0.4809 -0.4624 -1.0470
 3002TIP3   OH2 9011   2.488   1.774   2.036 -0.3872 -0.2665 -0.1346
 3002TIP3    H1 9012   2.393   1.787   2.047 -0.8394 -2.9597 -0.3379
 3002TIP3    H2 9013   2.497   1.742   1.947  0.5683 -1.3136  0.3272
 3003TIP3   OH2 9014   5.429   1.099   0.965  0.1274  0.4456 -0.0557
 3003TIP3    H1 9015   5.342   1.074   0.936 -0.4424  0.8345  1.2521
 3003TIP3    H2 9016   5.480   1.106   0.884  0.0589 -3.5947 -0.6385
 3004TIP3   OH2 9017   3.121   4.780   3.320  0.3615 -0.1715 -0.2191
 3004TIP3    H1 9018   3.154   4.805   3.234 -0.5257  1.0792 -0.2215
 3004TIP3    H2 9019   3.068   4.702   3.302 -1.0232  0.8997 -1.0984
 3005TIP3   OH2 9020   0.366   2.616   4.322 -0.2832  0.0395  0.1202
 3005TIP3    H1 9021   0.389   2.658   4.240 -3.5828  1.7232 -0.0978
 3005TIP3    H2 9022   0.320   2.536   4.296 -1.2517  0.5282  0.2711
 3006TIP3   OH2 9023   1.067   4.997   0.512  0.4315 -0.6660 -0.3292
 3006TIP3    H1 9024   1.092   4.979   0.421  0.2149 -0.0207 -0.5211
 3006TIP3    H2 9025   1.145   5.037   0.551 -0.7069  3.0280 -1.4161
 3007TIP3   OH2 9026   4.644   3.624   1.195 -0.2569  0.3853 -0.4206
 3007TIP3    H1 9027   4.651   3.720   1.197  0.2618  0.3901 -1.6782
 3007TIP3    H2 9028   4.609   3.605   1.108 -0.0120 -0.5950 -0.3111
 3008TIP3   OH2 9029   3.061   0.570   2.605  0.1820 -0.2654 -0.7378
 3008TIP3    H1 9030   3.099   0.591   2.690  0.2095 -0.7423 -0.6266
 3008TIP3    H2 9031   3.133   0.529   2.556  0.1450 -0.0641 -0.9612
 3009TIP3   OH2 9032   1.336   2.703   0.647 -0.3201 -0.2561 -0.2732
 3009TIP3    H1 9033   1.270   2.772   0.647  0.3245  0.3792  0.7593
 3009TIP3    H2 9034   1.297   2.633   0.595 -1.9107  0.0022  0.5170
 3010TIP3   OH2 9035   6.231   1.524   1.858 -0.4356  0.1031  0.4420
 3010TIP3    H1 9036   6.182   1.453   1.815 -0.4059  0.1101  0.3971
 3010TIP3    H2 9037   6.320   1.514   1.827 -0.0754 -0.8385  1.6763
 3011TIP3   OH2 9038   5.128   3.594   1.854 -0.1790 -0.5054 -0.5612
 3011TIP3    H1 9039   5.068   3.656   1.896  0.5888  0.1200 -0.3508
 3011TIP3    H2 9040   5.074   3.543   1.794 -0.8696  0.2014 -0.5426
 3012TIP3   OH2 9041   3.612   5.142   2.465 -0.5279  0.3518  0.0805
 3012TIP3    H1 9042   3.571   5.058   2.484  0.2670  0.0400  0.4461
 3012TIP3    H2 9043   3.561   5.177   2.392  0.1785 -1.2147 -1.2253
 3013TIP3   OH2 9044   2.063   2.089   5.165  0.1804 -0.3596 -0.1408
 3013TIP3    H1 9045   2.022   2.002   5.168 -1.9569  0.4801 -2.1366
 3013TIP3    H2 9046   2.156   2.071   5.147  0.1876 -2.2476  1.4700
 3014TIP3   OH2 9047   4.755   4.619   0.420  0.0494 -0.0706  0.0259
 3014TIP3    H1 9048   4.721   4.644   0.506  1.0989 -0.6341  0.6289
 3014TIP3    H2 9049   4.826   4.681   0.403  2.1094 -1.9868  1.1532
 3015TIP3   OH2 9050   1.256   2.265   3.974 -0.4026 -0.0948  0.3582
 3015TIP3    H1 9051   1.254   2.328   4.047  0.2263  1.2887 -0.7736
 3015TIP3    H2 9052   1.339   2.220   3.983  0.0261  0.6198  0.0822
 3016TIP3   OH2 9053   4.085   1.103   2.832  0.0766 -0.3035  0.0215
 3016TIP3    H1 9054   4.017   1.155   2.791  1.0773  1.5636  0.6338
 3016TIP3    H2 9055   4.167   1.148   2.810  0.8248 -0.4745  2.2080
 3017TIP3   OH2 9056   0.687   0.254   4.563  0.1932  0.7037 -0.1629
 3017TIP3    H1 9057   0.723   0.222   4.646  1.4282  1.2598 -0.4588
 3017TIP3    H2 9058   0.604   0.295   4.588  0.3054  0.4229  0.7266
 3018TIP3   OH2 9059   0.663   0.487   2.883 -0.5565  0.1706 -0.0140
 3018TIP3    H1 9060   0.626   0.537   2.956 -0.0463 -0.3845  0.6331
 3018TIP3    H2 9061   0.623   0.527   2.805 -0.8928  0.9563  0.5383
 3019TIP3   OH2 9062   2.500   1.352   2.082  0.1873 -0.6407 -0.8049
 3019TIP3    H1 9063   2.569   1.287   2.098  0.7441 -0.3122 -1.8224
 3019TIP3    H2 9064   2.445   1.347   2.160  1.2533 -1.0417 -0.0456
 3020TIP3   OH2 9065   3.530   3.430   2.778  0.3241 -0.3697 -0.2712
 3020TIP3    H1 9066   3.527   3.413   2.684 -0.2621 -0.2504 -0.2784
 3020TIP3    H2 9067   3.619   3.407   2.804  0.8002  0.5458 -1.0362
 3021TIP3   OH2 9068   4.684   4.655   1.726 -0.4211 -0.0506 -0.4616
 3021TIP3    H1 9069   4.767   4.702   1.715 -2.5245  3.9900 -1.2628
 3021TIP3    H2 9070   4.673   4.648   1.821  1.4719 -2.1319 -0.3297
 3022TIP3   OH2 9071   6.308   2.573   3.754  0.4383  0.1842  0.0805
 3022TIP3    H1 9072   6.340   2.558   3.843  0.3394  0.9666  0.2561
 3022TIP3    H2 9073   6.213   2.569   3.762  0.4496 -0.5526 -0.1428
 3023TIP3   OH2 9074   4.972   4.753   3.552 -0.2660  0.4485 -0.3629
 3023TIP3    H1 9075   5.050   4.699   3.549  0.5836  1.6633 -2.0132
 3023TIP3    H2 9076   4.994   4.824   3.612 -1.4814 -1.0620  2.0292
 3024TIP3   OH2 9077   3.246   3.585   2.228  0.1397  0.5888 -0.2088
 3024TIP3    H1 9078   3.269   3.493   2.240  0.6008  0.3179 -2.6606
 3024TIP3    H2 9079   3.202   3.610   2.310 -0.3067 -1.8823  0.3768
 3025TIP3   OH2 9080   0.779   2.999   4.319 -0.2860  0.2223 -0.2754
 3025TIP3    H1 9081   0.852   2.966   4.371 -0.7205  1.2651  1.0361
 3025TIP3    H2 9082   0.820   3.049   4.249  0.2711  1.5095  0.9333
 3026TIP3   OH2 9083   5.018   1.264   4.480 -0.0391 -0.2438  0.0051
 3026TIP3    H1 9084   4.988   1.176   4.458  0.5788 -0.1082 -1.5633
 3026TIP3    H2 9085   5.061   1.255   4.565 -0.7049 -1.2788  0.2500
 3027TIP3   OH2 9086   1.494   1.954   2.345  0.3158  0.0799  0.0355
 3027TIP3    H1 9087   1.485   2.023   2.279  0.6933  0.6155  0.5288
 3027TIP3    H2 9088   1.588   1.936   2.347  0.2798 -0.0865  0.2765
 3028TIP3   OH2 9089   0.244   2.395   4.238  0.2271 -0.3509  0.6754
 3028TIP3    H1 9090   0.294   2.369   4.160  0.1651 -2.4725  1.2823
 3028TIP3    H2 9091   0.211   2.312   4.274 -3.4280  0.8756  0.5542
 3029TIP3   OH2 9092   1.461   4.151   1.976 -1.0504  0.0488 -0.2610
 3029TIP3    H1 9093   1.522   4.079   1.958 -0.8150  0.5381 -1.4491
 3029TIP3    H2 9094   1.378   4.107   1.995 -1.0469 -0.5268 -1.5272
 3030TIP3   OH2 9095   2.770   0.444   0.596  0.0784 -0.0403 -0.5602
 3030TIP3    H1 9096   2.844   0.394   0.630 -0.2088  0.8163  1.4447
 3030TIP3    H2 9097   2.707   0.377   0.568 -0.4400 -0.9535  2.3824
 3031TIP3   OH2 9098   3.892   0.184   2.130  0.0037  0.2621 -0.3006
 3031TIP3    H1 9099   3.942   0.220   2.057 -0.7811  0.9951 -0.5018
 3031TIP3    H2 9100   3.807   0.160   2.092 -0.6578  1.2692  0.4846
 3032TIP3   OH2 9101   4.544   2.085   3.432 -0.0549  0.2044 -0.1926
 3032TIP3    H1 9102   4.458   2.109   3.466 -0.2130  0.6909 -0.9048
 3032TIP3    H2 9103   4.533   1.995   3.401  0.0626 -0.2009  0.9201
 3033TIP3   OH2 9104   4.311   4.168   1.164 -0.2515 -0.3311  0.2448
 3033TIP3    H1 9105   4.246   4.174   1.234  0.1936  0.5925  0.5864
 3033TIP3    H2 9106   4.394   4.188   1.207 -0.1591  1.8514 -0.8285
 3034TIP3   OH2 9107   0.635   4.027   4.474 -0.5392 -0.5633  0.4818
 3034TIP3    H1 9108   0.620   4.110   4.428 -0.0101 -1.4600 -1.4104
 3034TIP3    H2 9109   0.547   3.995   4.493 -0.8571  1.8110  4.1260
 3035TIP3   OH2 9110   4.786   4.695   2.398  0.0284  0.2113  0.0043
 3035TIP3    H1 9111   4.780   4.611   2.441 -0.3365  0.2136 -0.0359
 3035TIP3    H2 9112   4.794   4.759   2.469  1.1433  0.0788  0.0084
 3036TIP3   OH2 9113   6.052   1.159   2.452  0.3241  0.2732 -0.1328
 3036TIP3    H1 9114   6.061   1.141   2.358 -0.9209 -0.8406 -0.0748
 3036TIP3    H2 9115   6.116   1.228   2.469  1.5143 -0.4149 -1.5283
 3037TIP3   OH2 9116   0.673   1.018   0.432 -0.3844  0.3608  0.3916
 3037TIP3    H1 9117   0.764   1.040   0.412 -0.2717 -0.6300 -0.2590
 3037TIP3    H2 9118   0.641   1.092   0.483 -0.0028  1.9763 -1.5939
 3038TIP3   OH2 9119   5.384   2.955   0.852 -0.1073 -0.2905 -0.1149
 3038TIP3    H1 9120   5.438   2.906   0.914  0.0053 -0.5124 -0.3821
 3038TIP3    H2 9121   5.363   3.037   0.896 -0.9863 -0.9233  0.6693
 3039TIP3   OH2 9122   3.660   5.154   0.181 -0.2224 -0.8188 -0.3581
 3039TIP3    H1 9123   3.656   5.114   0.268 -0.7708 -1.0018 -0.4672
 3039TIP3    H2 9124   3.697   5.242   0.197  0.3213 -1.0987 -0.0332
 3040TIP3   OH2 9125   5.377   5.849   0.453 -0.5314 -0.1974 -0.3003
 3040TIP3    H1 9126   5.461   5.803   0.461  0.4947  1.5765 -0.1283
 3040TIP3    H2 9127   5.325   5.794   0.394  0.1299 -2.1616  0.8524
 3041TIP3   OH2 9128   5.930   1.694   2.761  0.3556 -0.3717 -0.2582
 3041TIP3    H1 9129   5.890   1.781   2.764  0.0701 -0.5152  0.3694
 3041TIP3    H2 9130   6.023   1.711   2.750  0.2586  0.0009 -0.5534
 3042TIP3   OH2 9131   2.593   2.792   2.491 -0.1352 -0.1098  0.1631
 3042TIP3    H1 9132   2.568   2.705   2.461  0.5235 -0.3629  0.3183
 3042TIP3    H2 9133   2.537   2.809   2.566  1.1629 -1.3210  1.4765
 3043TIP3   OH2 9134   5.227   4.016   2.723  0.0709  0.6818 -0.6402
 3043TIP3    H1 9135   5.275   4.068   2.787 -0.6913 -0.3269  0.8311
 3043TIP3    H2 9136   5.255   3.926   2.741 -0.2169  0.3772 -1.6930
 3044TIP3   OH2 9137  -0.005   4.326   2.852  0.3465  0.3534 -0.1487
 3044TIP3    H1 9138  -0.031   4.239   2.822 -0.2419  0.6689 -0.5721
 3044TIP3    H2 9139   0.057   4.357   2.786 -1.1456  1.1541 -1.2393
 3045TIP3   OH2 9140   1.627   0.266   0.311  0.7174 -0.3115 -0.5485
 3045TIP3    H1 9141   1.564   0.248   0.381  1.6603  2.3876  1.1690
 3045TIP3    H2 9142   1.666   0.181   0.292  0.2501 -1.2188  2.0788
 3046TIP3   OH2 9143   5.181   1.244   2.718 -0.1696  0.1391  0.3104
 3046TIP3    H1 9144   5.195   1.338   2.712  1.9721 -0.1009  0.9316
 3046TIP3    H2 9145   5.154   1.218   2.629 -1.4765  1.3872  0.3020
 3047TIP3   OH2 9146   5.967   0.120   0.120  0.3223 -0.2107 -0.1517
 3047TIP3    H1 9147   5.947   0.123   0.214 -0.8647 -2.2384 -0.2801
 3047TIP3    H2 9148   6.062   0.108   0.116  0.3858 -0.1249  0.7754
 3048TIP3   OH2 9149   1.885   4.082   2.815 -0.2276  0.0106 -0.2422
 3048TIP3    H1 9150   1.951   4.149   2.799 -1.3949  1.3541  0.2875
 3048TIP3    H2 9151   1.836   4.075   2.733  0.0065 -0.3480 -0.3558
 3049TIP3   OH2 9152   4.219   0.890   1.787 -0.4416 -0.8660  0.1194
 3049TIP3    H1 9153   4.180   0.927   1.708 -1.7334  2.3857  2.0702
 3049TIP3    H2 9154   4.313   0.910   1.779 -0.8206  1.1332  0.1749
 3050TIP3   OH2 9155   2.377   0.342   4.756 -0.2162 -0.0970 -0.5720
 3050TIP3    H1 9156   2.406   0.335   4.666  0.6065  0.9671 -0.3988
 3050TIP3    H2 9157   2.285   0.315   4.754  0.1640 -1.3824 -1.4846
 3051TIP3   OH2 9158   1.308   1.657   4.934  0.0284 -0.5048  0.1608
 3051TIP3    H1 9159   1.389   1.665   4.983 -0.4024 -0.6210  0.9054
 3051TIP3    H2 9160   1.247   1.614   4.994 -0.8308  0.3301 -0.0768
 3052TIP3   OH2 9161   3.761   1.272   4.407  0.6307  0.0239 -0.1439
 3052TIP3    H1 9162   3.719   1.357   4.391 -0.7203 -0.6544 -0.3113
 3052TIP3    H2 9163   3.757   1.261   4.502  0.0758 -0.2034 -0.1896
 3053TIP3   OH2 9164   1.524   2.106   0.883 -0.1893  0.5478 -0.2229
 3053TIP3    H1 9165   1.489   2.017   0.889 -3.0183  1.6799  2.3870
 3053TIP3    H2 9166   1.613   2.099   0.918 -0.7812 -1.0917  1.1076
 3054TIP3   OH2 9167   4.096   3.924   2.211  0.2600 -0.0943  0.0571
 3054TIP3    H1 9168   4.097   3.906   2.117 -0.0501  1.7615 -0.3504
 3054TIP3    H2 9169   4.173   3.979   2.226 -0.5288  0.9210  0.5699
 3055TIP3   OH2 9170   5.547   1.275   1.345  0.1752  0.1532  0.1698
 3055TIP3    H1 9171   5.457   1.274   1.313  0.0807 -0.4978  0.4502
 3055TIP3    H2 9172   5.586   1.195   1.312  0.4022  0.0163  0.7480
 3056TIP3   OH2 9173   6.225   1.812   4.359  0.1000 -0.1675 -0.8814
 3056TIP3    H1 9174   6.205   1.885   4.300 -1.9375  0.4693  0.5214
 3056TIP3    H2 9175   6.279   1.850   4.428  0.7479 -0.4659 -1.2092
 3057TIP3   OH2 9176   0.387   3.484   5.008 -0.4938  0.7840  0.2873
 3057TIP3    H1 9177   0.452   3.466   5.075 -1.3284  1.2246  1.2451
 3057TIP3    H2 9178   0.422   3.444   4.929  1.3622  1.7590  0.5580
 3058TIP3   OH2 9179   3.505   4.372   2.767 -0.2791 -0.0672  0.2266
 3058TIP3    H1 9180   3.411   4.365   2.779 -0.1470 -1.0075  0.7634
 3058TIP3    H2 9181   3.528   4.301   2.706  0.2512 -0.6708  1.1093
 3059TIP3   OH2 9182   6.102   3.994   2.064 -0.0454  1.1920 -0.1610
 3059TIP3    H1 9183   6.085   3.965   1.975  0.6479 -1.1633  0.4108
 3059TIP3    H2 9184   6.036   3.949   2.117  1.7633 -0.3272  0.8967
 3060TIP3   OH2 9185   0.863   0.443   2.137 -0.1063 -0.6183 -0.7813
 3060TIP3    H1 9186   0.828   0.360   2.104 -0.8825 -0.4262 -0.4704
 3060TIP3    H2 9187   0.804   0.510   2.103 -0.7406 -0.3882  0.6675
 3061TIP3   OH2 9188   0.824   5.008   4.099  0.4896 -0.5422 -0.3435
 3061TIP3    H1 9189   0.774   5.007   4.017 -0.0194  1.4286 -0.1124
 3061TIP3    H2 9190   0.810   5.096   4.134  2.7363 -0.4938  0.6076
 3062TIP3   OH2 9191   0.400   3.433   0.150 -0.4931 -0.2139  0.2181
 3062TIP3    H1 9192   0.442   3.388   0.077 -0.9857 -0.7060  0.2354
 3062TIP3    H2 9193   0.473   3.452   0.210  0.1887  1.6613 -1.1001
 3063TIP3   OH2 9194   0.579   0.281   4.149  0.2577  0.0090 -0.2150
 3063TIP3    H1 9195   0.592   0.232   4.068  2.3836  1.0795 -0.5932
 3063TIP3    H2 9196   0.621   0.227   4.216 -1.3979 -0.8189  0.2216
 3064TIP3   OH2 9197   2.002   4.710   0.524  0.4764  1.3897 -0.8801
 3064TIP3    H1 9198   2.038   4.621   0.519 -0.0164  1.2395 -2.0472
 3064TIP3    H2 9199   2.059   4.756   0.586 -1.4154 -0.7242  2.8141
 3065TIP3   OH2 9200   2.855   2.106   2.228  0.5909 -0.1273 -0.0562
 3065TIP3    H1 9201   2.819   2.049   2.161 -1.4236 -0.3034  1.0872
 3065TIP3    H2 9202   2.797   2.095   2.303  1.4993  1.6745  1.0024
 3066TIP3   OH2 9203   2.448   1.395   2.523  0.6065 -0.2388  0.0175
 3066TIP3    H1 9204   2.442   1.490   2.512 -0.8735 -0.1267  1.5027
 3066TIP3    H2 9205   2.418   1.359   2.438  2.2252  0.5799 -0.9410
 3067TIP3   OH2 9206   2.978   4.146   4.988 -0.2027  0.1803 -0.0232
 3067TIP3    H1 9207   2.948   4.210   5.053 -0.3546 -0.7077  0.7987
 3067TIP3    H2 9208   3.028   4.198   4.925 -0.2867  1.1033  0.6448
 3068TIP3   OH2 9209   5.478   0.039   4.616  0.5132  0.2019 -0.5056
 3068TIP3    H1 9210   5.506  -0.045   4.579  1.6663  1.3153 -2.3132
 3068TIP3    H2 9211   5.395   0.020   4.659 -0.1863 -1.5051 -2.4476
 3069TIP3   OH2 9212   3.923   5.139   1.960 -0.4914 -0.8519 -0.3796
 3069TIP3    H1 9213   3.962   5.223   1.937 -1.0469 -0.7919 -1.1334
 3069TIP3    H2 9214   3.924   5.088   1.879 -1.0064 -1.2327 -0.1561
 3070TIP3   OH2 9215   4.513   1.145   3.656 -0.1266 -0.1421  0.0063
 3070TIP3    H1 9216   4.528   1.100   3.573  1.6214 -1.1350  0.7924
 3070TIP3    H2 9217   4.554   1.088   3.722 -0.7978  0.9839  1.4628
 3071TIP3   OH2 9218   6.063   3.567   1.779 -0.1799  0.7211  0.1336
 3071TIP3    H1 9219   6.068   3.561   1.875 -0.1594  1.1733  0.1635
 3071TIP3    H2 9220   6.154   3.577   1.751 -0.2915  1.8819  0.1639
 3072TIP3   OH2 9221   1.799   4.197   2.071  0.0395 -0.0774 -0.4488
 3072TIP3    H1 9222   1.892   4.182   2.088 -0.3476  0.1699  2.2291
 3072TIP3    H2 9223   1.764   4.111   2.049  0.2476 -0.9474  2.2905
 3073TIP3   OH2 9224   5.204   3.347   3.964 -0.5199 -0.6339 -0.0277
 3073TIP3    H1 9225   5.253   3.351   3.882 -1.8560 -0.6194 -0.8627
 3073TIP3    H2 9226   5.227   3.427   4.010 -1.4385  0.4776 -1.4129
 3074TIP3   OH2 9227   1.199   1.262   0.901  0.0206  0.4024  0.3296
 3074TIP3    H1 9228   1.207   1.356   0.918  0.6647  0.6998 -1.3999
 3074TIP3    H2 9229   1.181   1.256   0.808 -1.4305 -1.1630  0.6650
 3075TIP3   OH2 9230   2.317   5.393   1.632  0.0514 -1.2428  0.2724
 3075TIP3    H1 9231   2.331   5.428   1.544 -1.1695 -0.2583  0.4508
 3075TIP3    H2 9232   2.259   5.318   1.618  0.7787 -1.7998  0.1417
 3076TIP3   OH2 9233   3.036   0.643   2.274 -0.2615 -0.3658 -0.6918
 3076TIP3    H1 9234   3.096   0.589   2.326  0.6997  1.3392  0.0509
 3076TIP3    H2 9235   3.077   0.649   2.188  0.2464  0.1304 -0.4227
 3077TIP3   OH2 9236   3.429   4.111   3.018 -0.3654  0.6222  0.0474
 3077TIP3    H1 9237   3.521   4.089   3.002 -0.5710 -0.3639  0.1271
 3077TIP3    H2 9238   3.380   4.052   2.960 -0.9559  0.8477  0.3116
 3078TIP3   OH2 9239   1.168   4.394   1.540  0.0075  0.3311 -0.0260
 3078TIP3    H1 9240   1.147   4.376   1.448  2.4560 -0.8480 -0.4269
 3078TIP3    H2 9241   1.145   4.487   1.551 -3.1390 -0.2159 -0.8970
 3079TIP3   OH2 9242   2.429   0.709   2.638 -0.1781  0.1217  0.3806
 3079TIP3    H1 9243   2.337   0.722   2.663  0.0250  2.8954 -0.0196
 3079TIP3    H2 9244   2.425   0.653   2.561 -1.6813  1.3338 -0.4941
 3080TIP3   OH2 9245   4.687   0.127   1.001 -0.3580 -0.2223  0.2444
 3080TIP3    H1 9246   4.727   0.209   0.974  0.7287 -0.1514  1.9435
 3080TIP3    H2 9247   4.621   0.152   1.066  1.3373 -0.7579  2.2788
 3081TIP3   OH2 9248   0.516   2.373   3.179  0.1964 -1.0239  0.4369
 3081TIP3    H1 9249   0.438   2.328   3.211 -0.4502 -0.8318 -0.8083
 3081TIP3    H2 9250   0.583   2.305   3.174 -0.1436 -1.3771  0.6571
 3082TIP3   OH2 9251   1.733   0.489   0.893  0.2329 -0.5590  0.0103
 3082TIP3    H1 9252   1.670   0.503   0.964  2.1549 -1.0098  1.8997
 3082TIP3    H2 9253   1.800   0.556   0.906  0.9046 -0.9949 -1.0490
 3083TIP3   OH2 9254   2.570   4.723   5.087 -0.3788 -0.2281  0.0796
 3083TIP3    H1 9255   2.655   4.701   5.049 -0.4451  0.0156 -0.2057
 3083TIP3    H2 9256   2.507   4.672   5.036 -0.3886 -0.5674  0.4236
 3084TIP3   OH2 9257   0.910   4.844   2.073 -0.5389  0.1273 -0.2298
 3084TIP3    H1 9258   0.935   4.756   2.042  2.6647  0.2034  1.6478
 3084TIP3    H2 9259   0.893   4.832   2.166  3.8376  1.8814  1.0485
 3085TIP3   OH2 9260   0.782   3.691   1.986  0.0667 -0.2975 -0.3979
 3085TIP3    H1 9261   0.796   3.678   1.893 -0.5317 -3.0761 -0.1877
 3085TIP3    H2 9262   0.763   3.603   2.020  1.9117  0.3350  2.6241
 3086TIP3   OH2 9263   5.559   3.687   1.290 -0.2540  0.0396  0.5311
 3086TIP3    H1 9264   5.573   3.715   1.380 -1.2808 -1.1000  1.0695
 3086TIP3    H2 9265   5.574   3.766   1.238  2.0064  0.3455  1.5124
 3087TIP3   OH2 9266   0.692   4.706   3.959  0.3578 -0.1797  0.3443
 3087TIP3    H1 9267   0.740   4.787   3.939 -1.3630  0.6932 -0.4012
 3087TIP3    H2 9268   0.758   4.637   3.948  1.9007  1.0974  1.1074
 3088TIP3   OH2 9269   4.070   5.024   4.660  0.2796  0.0438 -0.2671
 3088TIP3    H1 9270   4.065   4.964   4.585 -1.7226 -0.6364  0.3625
 3088TIP3    H2 9271   3.982   5.024   4.697  0.9285  1.2998  1.3900
 3089TIP3   OH2 9272   1.534   0.731   4.347  0.0691  0.4328  0.2791
 3089TIP3    H1 9273   1.446   0.701   4.368  0.0122  1.1160  1.0680
 3089TIP3    H2 9274   1.569   0.762   4.431  1.1302 -0.0047  0.0146
 3090TIP3   OH2 9275   1.619   5.087   2.846  0.4470 -0.4339 -0.2677
 3090TIP3    H1 9276   1.562   5.152   2.806  0.8764  0.1706  0.0764
 3090TIP3    H2 9277   1.570   5.055   2.921  0.6457  0.2836  0.1872
 3091TIP3   OH2 9278   4.245   0.242   1.122  0.7036 -0.2768 -0.2716
 3091TIP3    H1 9279   4.194   0.313   1.161  1.7953 -1.1065  2.9949
 3091TIP3    H2 9280   4.206   0.162   1.159  0.8888 -1.2714 -2.1463
 3092TIP3   OH2 9281   1.748   3.754   0.503  0.0747  0.5862 -0.1324
 3092TIP3    H1 9282   1.785   3.828   0.455  0.4281  1.2957  1.1841
 3092TIP3    H2 9283   1.653   3.763   0.493  0.1535  0.5807 -0.8899
 3093TIP3   OH2 9284   5.149   2.631   4.316 -0.6236  0.0738  0.4266
 3093TIP3    H1 9285   5.144   2.547   4.362  0.0341 -0.5758 -0.6434
 3093TIP3    H2 9286   5.175   2.694   4.383  1.3109 -1.0260  0.7731
 3094TIP3   OH2 9287   0.596   3.419   1.210 -0.0392  0.0812  0.0256
 3094TIP3    H1 9288   0.517   3.425   1.263  0.0934  1.9897  0.0490
 3094TIP3    H2 9289   0.657   3.481   1.250  1.0865 -0.5543 -0.6508
 3095TIP3   OH2 9290   3.601   3.161   0.282  0.1018 -0.1468 -0.2195
 3095TIP3    H1 9291   3.517   3.170   0.236 -0.1530 -1.3204 -0.0223
 3095TIP3    H2 9292   3.666   3.156   0.212  0.1165  1.4286 -0.3690
 3096TIP3   OH2 9293   0.150   4.785   3.311 -0.4775  0.2675 -0.3120
 3096TIP3    H1 9294   0.108   4.700   3.298 -0.9972  0.5962 -0.8614
 3096TIP3    H2 9295   0.131   4.833   3.230  3.0419 -0.3958 -1.7284
 3097TIP3   OH2 9296   3.934   2.689   4.312  0.0886  0.1269 -0.8314
 3097TIP3    H1 9297   3.852   2.670   4.267 -0.0277  0.7421 -0.8861
 3097TIP3    H2 9298   3.939   2.785   4.314 -0.9144  0.2012  2.2764
 3098TIP3   OH2 9299   3.031   2.343   4.308  0.2160 -0.7569 -0.1309
 3098TIP3    H1 9300   2.945   2.383   4.311  1.0605  1.2281 -0.7045
 3098TIP3    H2 9301   3.014   2.248   4.305 -1.9549 -0.3926 -1.3309
 3099TIP3   OH2 9302   0.401   5.661   4.803 -0.1941 -0.4343  0.8774
 3099TIP3    H1 9303   0.474   5.720   4.821  0.2328 -0.8477  0.5261
 3099TIP3    H2 9304   0.440   5.574   4.800 -0.9230 -0.8342  2.0631
 3100TIP3   OH2 9305   5.722   5.024   0.973  0.2328  0.3422 -0.3811
 3100TIP3    H1 9306   5.702   4.937   1.008  0.8225  0.5060  0.4121
 3100TIP3    H2 9307   5.737   5.077   1.051 -0.0294  1.1329 -0.8665
 3101TIP3   OH2 9308   1.103   5.265   2.235  0.0530  0.1102  0.2986
 3101TIP3    H1 9309   1.145   5.350   2.227  0.2931 -0.1923 -2.6231
 3101TIP3    H2 9310   1.172   5.207   2.265 -0.3305  0.9946  3.2431
 3102TIP3   OH2 9311   2.734   3.684   1.677  0.4750 -0.2263  0.2879
 3102TIP3    H1 9312   2.775   3.736   1.608 -0.2349 -2.6634 -2.1211
 3102TIP3    H2 9313   2.806   3.660   1.735  1.3060  0.9166 -0.2412
 3103TIP3   OH2 9314   4.592   3.545   3.986  0.3118  0.1164  0.2345
 3103TIP3    H1 9315   4.625   3.608   4.050  1.9639 -0.2640 -0.1955
 3103TIP3    H2 9316   4.547   3.599   3.920 -0.7428  0.5692  1.2873
 3104TIP3   OH2 9317   0.754   1.419   4.463  0.5125  0.0096 -0.0476
 3104TIP3    H1 9318   0.700   1.410   4.541  1.0412 -1.5745  0.1632
 3104TIP3    H2 9319   0.691   1.420   4.390 -0.0046  1.8097  0.3571
 3105TIP3   OH2 9320   1.917   3.608   3.919 -0.5974 -0.0156 -0.4501
 3105TIP3    H1 9321   1.973   3.673   3.876 -1.0706 -1.0748 -2.8397
 3105TIP3    H2 9322   1.968   3.528   3.917 -0.3978  0.0050  1.6260
 3106TIP3   OH2 9323   2.950   2.501   2.165  0.4667 -0.4260 -0.0189
 3106TIP3    H1 9324   3.031   2.497   2.114  1.4786 -0.1542  1.5003
 3106TIP3    H2 9325   2.930   2.594   2.171  0.2871 -0.4643 -0.0207
 3107TIP3   OH2 9326   2.121   0.957   2.211 -0.1687  0.5452  0.2373
 3107TIP3    H1 9327   2.118   1.023   2.280 -1.0286  1.6899 -0.8580
 3107TIP3    H2 9328   2.071   0.884   2.246 -2.0435  1.7577  0.1995
 3108TIP3   OH2 9329   4.733   3.253   4.783  0.1146  0.3411 -0.3474
 3108TIP3    H1 9330   4.707   3.297   4.703 -3.5203 -1.2825 -0.2941
 3108TIP3    H2 9331   4.676   3.291   4.851 -0.5326 -1.7397  0.3776
 3109TIP3   OH2 9332   6.240   5.163   0.402 -0.1372 -0.5267 -0.7198
 3109TIP3    H1 9333   6.259   5.193   0.313 -0.5425 -0.4918 -0.7939
 3109TIP3    H2 9334   6.312   5.198   0.454  0.4613 -1.1015 -1.1447
 3110TIP3   OH2 9335   4.203   2.091   0.674 -0.5653  0.5458  0.9840
 3110TIP3    H1 9336   4.176   2.012   0.627  0.4912  1.3968 -1.1708
 3110TIP3    H2 9337   4.121   2.129   0.706 -1.5994  0.9352 -1.8644
 3111TIP3   OH2 9338   1.129   0.775   2.702 -0.3405 -0.4591 -0.0520
 3111TIP3    H1 9339   1.170   0.689   2.709  0.1594 -0.1264  1.6328
 3111TIP3    H2 9340   1.134   0.811   2.791 -3.7540 -0.1214  0.1137
 3112TIP3   OH2 9341   1.165   3.827   1.524 -0.2068 -0.2659  0.3819
 3112TIP3    H1 9342   1.153   3.736   1.497  1.2136 -0.6365  0.8976
 3112TIP3    H2 9343   1.229   3.823   1.595  0.6585  1.2164 -0.2550
 3113TIP3   OH2 9344   1.466   3.833   2.887  0.0263  0.4356  0.3256
 3113TIP3    H1 9345   1.560   3.812   2.884 -0.4388 -2.3652  1.8777
 3113TIP3    H2 9346   1.461   3.924   2.860  3.0119  0.1772 -1.6024
 3114TIP3   OH2 9347   0.614   0.916   3.367 -0.0172 -0.1254 -0.2784
 3114TIP3    H1 9348   0.561   0.838   3.380 -0.6729  0.5555  1.2717
 3114TIP3    H2 9349   0.593   0.945   3.278 -0.5328 -1.1227 -0.4923
 3115TIP3   OH2 9350   5.135   2.026   4.007 -0.1752  0.0113  0.5034
 3115TIP3    H1 9351   5.194   2.091   3.969  1.6998 -0.9007  1.7125
 3115TIP3    H2 9352   5.184   1.944   4.002 -1.9101 -1.0637  0.3258
 3116TIP3   OH2 9353   2.511   3.220   1.468 -0.5368  0.3500  0.5167
 3116TIP3    H1 9354   2.560   3.290   1.511  0.4248  1.0618 -1.6247
 3116TIP3    H2 9355   2.577   3.165   1.426 -1.4476  1.1419 -2.1558
 3117TIP3   OH2 9356   3.630   5.986   2.064 -0.1408 -0.2511 -0.3342
 3117TIP3    H1 9357   3.723   6.004   2.076  0.4363 -2.5359 -0.7930
 3117TIP3    H2 9358   3.597   5.967   2.151  0.0224 -0.2409 -0.2708
 3118TIP3   OH2 9359   2.253   0.708   2.277 -0.3377  0.3160  0.2221
 3118TIP3    H1 9360   2.329   0.703   2.220  0.7098  2.4667  1.2753
 3118TIP3    H2 9361   2.201   0.781   2.242 -1.0747 -0.0851  0.4547
 3119TIP3   OH2 9362   1.287   1.233   4.766  0.5848 -0.0054  0.0697
 3119TIP3    H1 9363   1.204   1.227   4.718  0.5502 -1.1491  0.2464
 3119TIP3    H2 9364   1.334   1.304   4.722  1.0108 -1.6928 -2.4438
 3120TIP3   OH2 9365   2.555   5.427   0.173  0.0198  0.5725 -0.7008
 3120TIP3    H1 9366   2.565   5.338   0.209 -0.3419  1.4044  1.6177
 3120TIP3    H2 9367   2.469   5.427   0.133 -0.2976  0.0686 -0.0447
 3121TIP3   OH2 9368   1.650   5.629   5.159 -0.5384  0.4130  0.3203
 3121TIP3    H1 9369   1.571   5.682   5.154  0.5143  2.1446  1.2580
 3121TIP3    H2 9370   1.715   5.686   5.199  0.8230 -1.4109  0.8431
 3122TIP3   OH2 9371   5.554   2.499   2.661  0.2169  0.1149 -0.7780
 3122TIP3    H1 9372   5.572   2.463   2.575  0.0186  1.4720 -1.4227
 3122TIP3    H2 9373   5.550   2.594   2.647  0.4212  0.3843  0.7672
 3123TIP3   OH2 9374   0.530   3.574   3.822  0.3877 -0.7398  0.0919
 3123TIP3    H1 9375   0.468   3.503   3.837  1.7405 -1.7436  1.1923
 3123TIP3    H2 9376   0.514   3.636   3.893  2.4647 -2.3825  2.1538
 3124TIP3   OH2 9377   0.631   0.728   1.680 -0.6850  0.0114  0.0665
 3124TIP3    H1 9378   0.583   0.705   1.600  0.9233  1.0320 -1.2495
 3124TIP3    H2 9379   0.697   0.660   1.689 -0.8414 -0.0832  0.5114
 3125TIP3   OH2 9380   3.739   3.216   4.592  0.1318  0.1691  0.5526
 3125TIP3    H1 9381   3.712   3.300   4.629 -0.3155  0.3970 -0.2487
 3125TIP3    H2 9382   3.671   3.196   4.528 -0.1797 -1.1941  1.2813
 3126TIP3   OH2 9383   5.590   3.834   3.259 -0.2760 -0.0437 -0.3685
 3126TIP3    H1 9384   5.497   3.819   3.275  0.3129 -1.9316  1.8901
 3126TIP3    H2 9385   5.614   3.902   3.323 -0.0894  0.4310 -0.9387
 3127TIP3   OH2 9386   4.282   3.012   3.299  0.1837 -0.1755  0.5049
 3127TIP3    H1 9387   4.335   3.020   3.220 -1.2022 -1.7692 -0.6408
 3127TIP3    H2 9388   4.207   3.069   3.284 -0.8404 -1.6079 -0.0337
 3128TIP3   OH2 9389   0.770   0.189   2.122  0.4631  0.2564  0.1601
 3128TIP3    H1 9390   0.813   0.158   2.202  1.6315  3.3179  0.8656
 3128TIP3    H2 9391   0.678   0.167   2.134  1.0922 -2.5472  0.6299
 3129TIP3   OH2 9392   2.929   3.462   4.526 -0.5007  0.6380 -0.3575
 3129TIP3    H1 9393   2.989   3.521   4.571  0.2548  0.2992 -0.9006
 3129TIP3    H2 9394   2.866   3.437   4.593  0.9170 -0.2830  0.7047
 3130TIP3   OH2 9395   2.484   2.192   2.115 -0.2583 -0.1629  0.4756
 3130TIP3    H1 9396   2.496   2.286   2.127 -2.2592  0.1079  0.6287
 3130TIP3    H2 9397   2.406   2.185   2.060  0.8955 -1.7131 -1.0913
 3131TIP3   OH2 9398   4.638   5.900   2.586 -0.0304  0.3472 -0.5258
 3131TIP3    H1 9399   4.672   5.922   2.499 -1.9542 -0.8882 -1.6708
 3131TIP3    H2 9400   4.642   5.805   2.590  0.1145  0.3810  0.8202
 3132TIP3   OH2 9401   2.946   3.976   3.196  0.3236 -0.0543  0.3809
 3132TIP3    H1 9402   2.975   3.941   3.111  1.5770 -0.6859  1.0373
 3132TIP3    H2 9403   2.864   4.021   3.176  0.1068 -0.9797 -1.0032
 3133TIP3   OH2 9404   0.324   1.668   3.622 -0.2658  0.1345 -0.1018
 3133TIP3    H1 9405   0.263   1.670   3.549  0.8324  2.7454 -1.0560
 3133TIP3    H2 9406   0.297   1.740   3.679 -0.8779 -1.6183  1.9584
 3134TIP3   OH2 9407   2.906   1.624   0.193  0.9610  0.0373 -0.2634
 3134TIP3    H1 9408   3.000   1.605   0.197  0.7364 -0.9446  1.4565
 3134TIP3    H2 9409   2.889   1.641   0.101  2.5772 -1.1303 -0.8294
 3135TIP3   OH2 9410   1.964   2.518   3.742  0.6310  0.1765  0.3055
 3135TIP3    H1 9411   2.029   2.468   3.692 -0.9326 -1.2694 -0.3710
 3135TIP3    H2 9412   2.003   2.605   3.750  2.9529 -0.7850  0.5216
 3136TIP3   OH2 9413   4.011   4.292   0.741  0.1216  0.8611  0.3650
 3136TIP3    H1 9414   4.061   4.238   0.802 -0.7648 -1.2630 -0.6688
 3136TIP3    H2 9415   3.936   4.323   0.792 -0.4648 -0.6547  0.4861
 3137TIP3   OH2 9416   3.506   3.650   4.273 -0.3365 -0.1612  0.2367
 3137TIP3    H1 9417   3.562   3.595   4.217  0.1500  2.6384 -2.2693
 3137TIP3    H2 9418   3.429   3.597   4.290  0.0362 -1.5924 -2.1623
 3138TIP3   OH2 9419   3.786   4.375   1.468 -0.4272 -0.1027  0.2835
 3138TIP3    H1 9420   3.773   4.393   1.561  1.8417  0.9372  0.4638
 3138TIP3    H2 9421   3.701   4.395   1.428 -1.1430  0.4813  1.9743
 3139TIP3   OH2 9422   2.635   0.273   4.399  0.0809  0.1769  0.0445
 3139TIP3    H1 9423   2.560   0.222   4.369  1.9621 -1.3289 -2.5217
 3139TIP3    H2 9424   2.636   0.350   4.342  0.9000 -0.2514 -0.5578
 3140TIP3   OH2 9425   0.245   5.115   3.090 -0.9163  0.3326  0.1475
 3140TIP3    H1 9426   0.170   5.067   3.126 -0.3659 -0.3720  0.3779
 3140TIP3    H2 9427   0.321   5.063   3.116 -0.3994  0.6291 -0.7372
 3141TIP3   OH2 9428   1.271   0.893   4.594  0.0876 -0.1224  0.0812
 3141TIP3    H1 9429   1.295   0.816   4.645  1.8800 -0.1655 -0.7793
 3141TIP3    H2 9430   1.175   0.893   4.596  0.0718 -1.3720  1.5374
 3142TIP3   OH2 9431   0.621   5.678   4.104 -0.4578 -0.4351  0.4388
 3142TIP3    H1 9432   0.631   5.602   4.046  0.8341  0.6444 -0.8187
 3142TIP3    H2 9433   0.695   5.670   4.165 -0.2720 -0.1359  0.2508
 3143TIP3   OH2 9434   2.030   4.389   4.460  0.3084  0.5452  0.1221
 3143TIP3    H1 9435   1.972   4.414   4.532  0.4989  1.9797 -0.2075
 3143TIP3    H2 9436   2.092   4.461   4.453  0.1673  0.5191 -1.6226
 3144TIP3   OH2 9437   6.262   2.162   4.447 -0.1230  0.1407  0.1636
 3144TIP3    H1 9438   6.319   2.134   4.518 -0.4520 -1.1145 -0.0519
 3144TIP3    H2 9439   6.217   2.240   4.482 -0.8025 -0.8602  1.6057
 3145TIP3   OH2 9440   5.158   4.561   2.874 -0.1784  0.0778 -0.3588
 3145TIP3    H1 9441   5.143   4.647   2.914  0.6408 -0.1552  0.4943
 3145TIP3    H2 9442   5.167   4.579   2.781  1.0519  1.0800 -0.0797
 3146TIP3   OH2 9443   5.895   1.056   2.681 -0.1846 -0.2233 -0.5917
 3146TIP3    H1 9444   5.914   1.108   2.602  0.8538  2.9156  1.5106
 3146TIP3    H2 9445   5.976   1.007   2.697  0.7135  1.3821  0.0298
 3147TIP3   OH2 9446   1.647   3.439   0.913 -0.0212 -0.7717 -0.0757
 3147TIP3    H1 9447   1.609   3.362   0.955 -3.7240  0.2848 -1.0475
 3147TIP3    H2 9448   1.612   3.438   0.824  1.1414  1.1682 -0.6227
 3148TIP3   OH2 9449   5.505   4.484   0.291 -0.2678  0.4556 -0.4369
 3148TIP3    H1 9450   5.541   4.543   0.226 -0.5058  3.5872  2.0129
 3148TIP3    H2 9451   5.411   4.499   0.288 -0.3921 -0.2416 -0.1877
 3149TIP3   OH2 9452   2.535   1.774   0.526 -0.2062 -0.3148 -0.7669
 3149TIP3    H1 9453   2.518   1.795   0.435  0.3496 -1.6921 -1.2140
 3149TIP3    H2 9454   2.527   1.679   0.531  0.2389 -0.3071  0.5200
 3150TIP3   OH2 9455   5.227   3.250   4.433 -0.8101  0.8469 -0.3752
 3150TIP3    H1 9456   5.280   3.237   4.511 -1.7041 -2.0059 -0.1454
 3150TIP3    H2 9457   5.138   3.261   4.465 -1.1398 -0.0284 -0.9515
 3151TIP3   OH2 9458   2.214   1.794   4.476 -0.2122  0.3414  0.1506
 3151TIP3    H1 9459   2.227   1.700   4.487  1.3234  0.2447 -1.8421
 3151TIP3    H2 9460   2.123   1.802   4.447 -0.0657 -0.6692 -0.6576
 3152TIP3   OH2 9461   0.872   0.082   3.861  0.4074 -0.2054 -0.6270
 3152TIP3    H1 9462   0.861  -0.007   3.894  3.8498 -0.3665  0.4514
 3152TIP3    H2 9463   0.887   0.071   3.768  0.5246 -0.7354 -0.5510
 3153TIP3   OH2 9464   2.778   4.126   4.257 -0.7249 -0.3546  0.0916
 3153TIP3    H1 9465   2.736   4.143   4.172 -1.1566 -0.4986  0.2710
 3153TIP3    H2 9466   2.868   4.102   4.235 -1.5334 -3.2129 -0.5841
 3154TIP3   OH2 9467   4.550   0.786   3.250  0.0773 -0.3996 -0.2578
 3154TIP3    H1 9468   4.507   0.709   3.288  0.2719 -0.4655 -0.1721
 3154TIP3    H2 9469   4.618   0.750   3.193  0.3357 -0.2855 -0.0200
 3155TIP3   OH2 9470   3.853   4.357   3.794  0.0064 -0.0136  0.2382
 3155TIP3    H1 9471   3.861   4.262   3.785 -1.4312 -0.5169  3.0253
 3155TIP3    H2 9472   3.890   4.392   3.713 -0.5211 -2.9707 -1.4484
 3156TIP3   OH2 9473   3.508   3.292   3.485 -0.4183 -0.1573  0.3466
 3156TIP3    H1 9474   3.480   3.305   3.576 -1.9562 -0.4156 -0.0641
 3156TIP3    H2 9475   3.475   3.206   3.461 -0.9282  0.3248 -0.7689
 3157TIP3   OH2 9476   2.532   5.354   3.398 -0.0801 -0.0199 -0.5393
 3157TIP3    H1 9477   2.536   5.262   3.372 -0.1468  0.1150 -1.0394
 3157TIP3    H2 9478   2.620   5.374   3.430  0.6662  0.3890 -2.7059
 3158TIP3   OH2 9479   2.578   1.181   2.749  0.5830 -0.4048 -0.0496
 3158TIP3    H1 9480   2.606   1.090   2.757  0.3527 -0.5983 -1.2056
 3158TIP3    H2 9481   2.519   1.195   2.824 -0.7381 -1.7528 -0.7764
 3159TIP3   OH2 9482   1.379   2.401   2.009 -0.3817  0.5664 -0.0205
 3159TIP3    H1 9483   1.434   2.345   2.064 -2.9378 -1.1580  0.9665
 3159TIP3    H2 9484   1.338   2.340   1.947 -1.5888  1.6852 -0.3600
 3160TIP3   OH2 9485   4.337   1.506   0.223  0.0090 -0.4911  0.0575
 3160TIP3    H1 9486   4.432   1.502   0.228 -0.0754 -1.5469  1.8096
 3160TIP3    H2 9487   4.313   1.575   0.285 -0.2923  2.2730 -2.8828
 3161TIP3   OH2 9488   5.214   4.097   0.691 -0.1206  0.0187  0.7459
 3161TIP3    H1 9489   5.174   4.012   0.709 -0.4353 -0.3761 -1.4906
 3161TIP3    H2 9490   5.306   4.085   0.714 -0.0609 -1.1170  0.0217
 3162TIP3   OH2 9491   0.594   5.180   3.982 -0.4034 -0.2020 -0.2320
 3162TIP3    H1 9492   0.556   5.141   4.061  1.5771  0.6128  1.2165
 3162TIP3    H2 9493   0.629   5.264   4.011  1.6384 -0.4915 -1.6277
 3163TIP3   OH2 9494   4.333   5.607   4.656  0.6637  0.1252 -0.1095
 3163TIP3    H1 9495   4.340   5.685   4.712  3.0707  1.1769 -1.6755
 3163TIP3    H2 9496   4.308   5.537   4.716  0.9841  1.5885  1.8697
 3164TIP3   OH2 9497   1.006   0.789   4.617  0.1851 -0.0642  0.2323
 3164TIP3    H1 9498   0.939   0.813   4.681  0.5426 -0.2744  0.6872
 3164TIP3    H2 9499   0.957   0.769   4.537 -0.5605 -3.0482  1.3348
 3165TIP3   OH2 9500   5.426   2.734   1.730  0.2139 -0.9471 -0.1245
 3165TIP3    H1 9501   5.401   2.726   1.823 -0.6777 -0.3623 -0.2961
 3165TIP3    H2 9502   5.383   2.814   1.701 -0.3614 -1.6542 -1.3083
 3166TIP3   OH2 9503   1.772   4.956   0.079 -0.4776 -0.1974 -0.2120
 3166TIP3    H1 9504   1.839   4.906   0.127  0.3335  2.1376  1.2651
 3166TIP3    H2 9505   1.804   4.960  -0.011  2.4957  2.3946  0.7831
 3167TIP3   OH2 9506   1.545   2.892   4.798  0.2663  0.4753  0.0045
 3167TIP3    H1 9507   1.580   2.834   4.730 -0.8565 -1.2967  0.8365
 3167TIP3    H2 9508   1.613   2.957   4.812  0.9087  0.3454 -2.1409
 3168TIP3   OH2 9509   0.970   4.603   2.440 -0.0133  0.4425 -0.1717
 3168TIP3    H1 9510   0.928   4.683   2.408 -0.1387  0.5085  0.1556
 3168TIP3    H2 9511   0.971   4.613   2.535  2.5554  1.3853 -0.2016
 3169TIP3   OH2 9512   4.260   4.163   4.667 -0.0004  0.1944  0.2758
 3169TIP3    H1 9513   4.208   4.083   4.666 -2.4767  1.7149 -0.9745
 3169TIP3    H2 9514   4.252   4.196   4.756  1.4774 -1.1462  0.9510
 3170TIP3   OH2 9515   5.161   1.644   4.669 -0.3702 -0.8721 -0.1504
 3170TIP3    H1 9516   5.217   1.576   4.708  2.1632 -0.0345 -2.0513
 3170TIP3    H2 9517   5.168   1.629   4.575 -0.5601  1.4124 -0.5718
 3171TIP3   OH2 9518   5.115   1.548   1.543 -0.5897 -0.3430  0.0871
 3171TIP3    H1 9519   5.169   1.500   1.605 -0.2101  0.1640  0.1516
 3171TIP3    H2 9520   5.089   1.483   1.477 -0.1800 -0.6560  0.2371
 3172TIP3   OH2 9521   4.177   1.714   3.280  0.1373  0.3288  0.4413
 3172TIP3    H1 9522   4.269   1.727   3.303  0.2131  1.2091 -0.2588
 3172TIP3    H2 9523   4.169   1.621   3.259  0.4010 -0.1771  2.4337
 3173TIP3   OH2 9524   0.416   3.529   4.087  0.1777  0.2442 -0.4248
 3173TIP3    H1 9525   0.474   3.457   4.065  0.5879  0.3466  0.3168
 3173TIP3    H2 9526   0.328   3.496   4.068  0.1860 -1.1564  1.7317
 3174TIP3   OH2 9527   0.560   4.529   4.193  0.1297  0.0736 -0.3244
 3174TIP3    H1 9528   0.593   4.604   4.144  0.8996 -0.7200 -1.0421
 3174TIP3    H2 9529   0.495   4.489   4.135  1.2803 -1.0614 -0.8859
 3175TIP3   OH2 9530   3.242   3.691   1.136  0.2695 -0.3699  0.3453
 3175TIP3    H1 9531   3.161   3.721   1.176 -0.9616 -1.9731 -0.8283
 3175TIP3    H2 9532   3.304   3.763   1.151 -1.3267  0.8823  1.2936
 3176TIP3   OH2 9533   3.142   2.992   2.088 -0.0114  0.4680  0.3088
 3176TIP3    H1 9534   3.114   2.985   2.179  0.0522  1.2287  0.3892
 3176TIP3    H2 9535   3.230   2.953   2.087 -0.6988 -1.1768  0.2088
 3177TIP3   OH2 9536   0.809   0.555   0.933 -0.4291 -0.2291 -0.2211
 3177TIP3    H1 9537   0.759   0.494   0.880 -2.1020  1.5991 -0.8375
 3177TIP3    H2 9538   0.745   0.595   0.992  0.0912  2.5430 -1.3509
 3178TIP3   OH2 9539   4.048   4.826   2.746 -0.0910  0.0697 -0.0064
 3178TIP3    H1 9540   4.065   4.904   2.798  0.1026 -0.4570  0.7397
 3178TIP3    H2 9541   3.966   4.791   2.781  1.3856 -1.7816  1.8399
 3179TIP3   OH2 9542   3.187   3.232   3.610 -0.2168 -0.0483  0.4456
 3179TIP3    H1 9543   3.262   3.178   3.583 -0.2374  0.9156 -1.8261
 3179TIP3    H2 9544   3.152   3.189   3.687  2.0594 -1.1066  0.9699
 3180TIP3   OH2 9545   0.077   4.812   2.770  0.3199 -0.1267 -0.1886
 3180TIP3    H1 9546   0.118   4.726   2.781 -1.2549 -0.7634  1.1394
 3180TIP3    H2 9547   0.144   4.865   2.728  1.3417 -1.9896 -1.0366
 3181TIP3   OH2 9548   5.911   4.888   4.386  0.0091 -0.2677  0.0426
 3181TIP3    H1 9549   5.911   4.900   4.291  0.5039 -1.1636 -0.0826
 3181TIP3    H2 9550   5.924   4.794   4.398  0.8602 -0.0509  1.0067
 3182TIP3   OH2 9551   4.611   5.219   0.070 -0.5702 -0.5817 -0.7986
 3182TIP3    H1 9552   4.553   5.214   0.146 -0.5885  0.5484 -0.7342
 3182TIP3    H2 9553   4.696   5.246   0.105 -0.8227  0.9193 -1.2724
 3183TIP3   OH2 9554   2.470   4.746   0.529 -0.1818 -0.1419  0.0873
 3183TIP3    H1 9555   2.389   4.786   0.562 -0.2992  0.2512 -0.6588
 3183TIP3    H2 9556   2.440   4.685   0.461  0.2305  1.0319 -1.1915
 3184TIP3   OH2 9557   0.747   5.183   0.185 -0.1504  0.3221 -0.2873
 3184TIP3    H1 9558   0.791   5.126   0.121 -1.6651 -1.4659  0.1574
 3184TIP3    H2 9559   0.775   5.150   0.270 -1.0997  0.1660 -0.0209
 3185TIP3   OH2 9560   4.094   2.284   0.014  0.2400 -0.4191  0.5484
 3185TIP3    H1 9561   4.055   2.251   0.095 -0.5509  0.5963  0.5981
 3185TIP3    H2 9562   4.020   2.312  -0.039  0.6707 -2.0850 -1.0199
 3186TIP3   OH2 9563   5.796   0.346   4.065 -0.5648  0.5560 -0.1229
 3186TIP3    H1 9564   5.864   0.414   4.066  1.2130 -1.0941  1.3011
 3186TIP3    H2 9565   5.831   0.277   4.123 -2.4042 -1.4289 -1.2234
 3187TIP3   OH2 9566   2.451   3.890   0.120 -0.0755 -1.1063 -0.1549
 3187TIP3    H1 9567   2.433   3.981   0.143 -1.1228 -0.8462 -1.8383
 3187TIP3    H2 9568   2.380   3.840   0.160  0.0679 -1.1006  0.1115
 3188TIP3   OH2 9569   0.815   1.895   1.123  0.4616  0.0433 -0.0158
 3188TIP3    H1 9570   0.906   1.922   1.130  0.2020  1.0526 -0.3349
 3188TIP3    H2 9571   0.812   1.808   1.162  1.5471  0.0279  0.0432
 3189TIP3   OH2 9572   5.691   2.295   0.298  0.3872  0.6052  0.3703
 3189TIP3    H1 9573   5.781   2.298   0.266  0.2446 -0.4945 -0.1883
 3189TIP3    H2 9574   5.674   2.383   0.331  1.2568  1.1677 -0.6298
 3190TIP3   OH2 9575   4.089   3.859   1.941 -0.0496  0.6409 -0.0266
 3190TIP3    H1 9576   4.172   3.824   1.909  0.3655  2.0314 -0.5476
 3190TIP3    H2 9577   4.022   3.804   1.900  0.5825 -1.0750  1.1009
 3191TIP3   OH2 9578   4.116   4.109   2.554  0.2685  0.2119  0.1280
 3191TIP3    H1 9579   4.144   4.021   2.529 -0.8686 -0.3365  0.7347
 3191TIP3    H2 9580   4.093   4.151   2.472 -1.0286 -0.7249 -0.0128
 3192TIP3   OH2 9581   1.566   0.810   2.544 -0.0794  0.1033  0.7772
 3192TIP3    H1 9582   1.548   0.777   2.456  0.3220  0.0743  0.7043
 3192TIP3    H2 9583   1.654   0.847   2.538 -0.2151  0.4739  1.0604
 3193TIP3   OH2 9584   0.584   5.734   0.749  0.2803  0.1352 -0.1405
 3193TIP3    H1 9585   0.663   5.688   0.776 -0.1344 -0.4890  0.0285
 3193TIP3    H2 9586   0.582   5.813   0.802  1.3681  0.7110 -0.9260
 3194TIP3   OH2 9587   2.861   0.190   4.655 -0.7051  0.5185  0.0385
 3194TIP3    H1 9588   2.838   0.113   4.708 -0.1276 -0.5629 -1.2051
 3194TIP3    H2 9589   2.786   0.248   4.664 -1.1377 -0.1506  1.0713
 3195TIP3   OH2 9590   1.297   4.855   2.336  0.4651  0.4605 -0.3707
 3195TIP3    H1 9591   1.296   4.759   2.343  2.1504  0.3964 -0.4996
 3195TIP3    H2 9592   1.245   4.874   2.258 -1.3539 -0.2051  0.6227
 3196TIP3   OH2 9593   3.448   1.363   4.537 -0.4218  0.0078  0.0697
 3196TIP3    H1 9594   3.452   1.404   4.450 -0.8064 -0.1303 -0.0133
 3196TIP3    H2 9595   3.488   1.277   4.525  0.4356  0.3686  0.2551
 3197TIP3   OH2 9596   6.012   5.086   1.342  0.5813 -0.5206 -0.3537
 3197TIP3    H1 9597   6.065   5.010   1.317  0.3192 -1.1437  0.8928
 3197TIP3    H2 9598   6.005   5.080   1.437 -0.6325  0.2832 -0.3683
 3198TIP3   OH2 9599   3.340   0.637   3.980 -0.5467  0.6127 -0.0322
 3198TIP3    H1 9600   3.262   0.667   4.027 -0.6108  1.3713 -0.6100
 3198TIP3    H2 9601   3.354   0.548   4.013  0.0708  1.4765  2.2550
 3199TIP3   OH2 9602   1.232   4.675   1.933 -0.0911  0.0739 -0.4447
 3199TIP3    H1 9603   1.231   4.604   1.997 -0.7131 -0.1467 -0.6843
 3199TIP3    H2 9604   1.324   4.690   1.914  0.1068  0.2024  0.5630
 3200TIP3   OH2 9605   2.199   0.938   2.726  0.4894 -0.7306  0.0853
 3200TIP3    H1 9606   2.122   0.881   2.722  0.6750 -1.0607  1.0660
 3200TIP3    H2 9607   2.196   0.987   2.643 -1.8461  0.6438  0.8602
 3201TIP3   OH2 9608   5.076   2.815   1.872 -0.6440  0.4649  0.3491
 3201TIP3    H1 9609   5.014   2.807   1.945 -0.0695  1.4612  0.9671
 3201TIP3    H2 9610   5.125   2.895   1.891 -0.3005  0.5924 -1.0009
 3202TIP3   OH2 9611   4.046   3.140   0.861  0.1087  0.7780  0.1078
 3202TIP3    H1 9612   4.103   3.105   0.792 -0.1956 -1.5629  0.9516
 3202TIP3    H2 9613   4.088   3.115   0.943 -1.1838  0.6226  0.7518
 3203TIP3   OH2 9614   5.468   1.792   3.426 -0.2129  0.6817  0.4824
 3203TIP3    H1 9615   5.445   1.785   3.519 -0.7506 -1.0172  0.2566
 3203TIP3    H2 9616   5.416   1.725   3.383 -0.3448  1.7665 -1.1449
 3204TIP3   OH2 9617   5.171   1.221   3.071 -0.8952 -0.1192 -0.0987
 3204TIP3    H1 9618   5.081   1.188   3.076 -0.7718 -0.7919 -1.6502
 3204TIP3    H2 9619   5.224   1.147   3.101 -0.8109 -0.1305 -0.2726
 3205TIP3   OH2 9620   0.443   5.693   2.748  0.2827  0.1397 -0.3797
 3205TIP3    H1 9621   0.442   5.788   2.734 -0.6418  0.0789 -0.8262
 3205TIP3    H2 9622   0.502   5.680   2.822  0.8960  1.0091 -0.7039
 3206TIP3   OH2 9623   1.452   5.792   4.223 -0.0703  0.7104 -0.4221
 3206TIP3    H1 9624   1.359   5.780   4.205  0.2825 -0.1994 -1.9025
 3206TIP3    H2 9625   1.482   5.705   4.250  0.7367  0.4333 -2.0692
 3207TIP3   OH2 9626   3.235   1.340   1.352  0.6027  0.1699  0.0528
 3207TIP3    H1 9627   3.168   1.275   1.330  1.1128 -0.2150 -0.3753
 3207TIP3    H2 9628   3.202   1.422   1.315  1.0154 -0.2879 -1.3627
 3208TIP3   OH2 9629   1.432   5.836   0.110 -0.0692 -0.0346  0.0835
 3208TIP3    H1 9630   1.464   5.838   0.200 -0.9222  1.1319  0.3761
 3208TIP3    H2 9631   1.347   5.880   0.113 -0.5698 -0.8392 -1.1224
 3209TIP3   OH2 9632   2.005   0.483   4.388  0.0099  0.5000  0.2707
 3209TIP3    H1 9633   1.923   0.484   4.438 -0.1166 -2.0402  0.2789
 3209TIP3    H2 9634   2.064   0.540   4.437 -0.9944  0.3859  1.6917
 3210TIP3   OH2 9635   6.117   0.979   4.545 -0.0903 -0.5300  0.3498
 3210TIP3    H1 9636   6.137   0.889   4.521  0.6668  0.2742 -2.4817
 3210TIP3    H2 9637   6.047   1.005   4.484  0.5097  1.1316  0.3085
 3211TIP3   OH2 9638   3.733   1.469   1.611 -0.2121  0.2624 -0.5340
 3211TIP3    H1 9639   3.685   1.439   1.688  0.5145  1.1926  0.3051
 3211TIP3    H2 9640   3.797   1.400   1.595 -0.9780 -0.3812 -0.8969
 3212TIP3   OH2 9641   2.972   2.267   1.871 -0.3303  0.2435  0.2567
 3212TIP3    H1 9642   2.974   2.359   1.845  0.9065 -0.5058 -2.6936
 3212TIP3    H2 9643   2.888   2.235   1.841  0.3867 -0.2036 -1.3807
 3213TIP3   OH2 9644   2.380   1.602   4.742  0.3396  0.3123 -0.5930
 3213TIP3    H1 9645   2.469   1.593   4.710  0.8789  0.2313  0.8493
 3213TIP3    H2 9646   2.331   1.535   4.695  1.5017 -1.1103  0.1439
 3214TIP3   OH2 9647   4.651   0.949   2.560  0.3477 -0.6346 -0.2529
 3214TIP3    H1 9648   4.599   0.972   2.483  0.0963 -2.1074 -0.5480
 3214TIP3    H2 9649   4.605   0.989   2.633  0.2164  0.2129 -0.7882
 3215TIP3   OH2 9650   5.812   0.138   1.193  0.5346 -0.4345 -0.4043
 3215TIP3    H1 9651   5.851   0.082   1.260 -1.4294 -2.5461 -0.9121
 3215TIP3    H2 9652   5.773   0.077   1.130  0.1657  1.5075 -2.1829
 3216TIP3   OH2 9653   1.484   3.634   1.203  0.5496 -0.0055 -0.0191
 3216TIP3    H1 9654   1.569   3.667   1.174  0.5342 -0.3782 -0.4812
 3216TIP3    H2 9655   1.475   3.668   1.293  1.8015 -1.1080  0.5472
 3217TIP3   OH2 9656   2.073   3.786   4.828 -0.6685  0.3851  0.0827
 3217TIP3    H1 9657   2.162   3.821   4.830 -0.4197 -0.1667 -0.7467
 3217TIP3    H2 9658   2.022   3.853   4.783 -0.5018  0.3498 -0.1620
 3218TIP3   OH2 9659   3.712   2.278   3.651 -0.6927  0.3642 -0.3303
 3218TIP3    H1 9660   3.708   2.272   3.747  1.4167 -0.5623 -0.2457
 3218TIP3    H2 9661   3.641   2.338   3.628 -1.8367 -0.1032  1.7253
 3219TIP3   OH2 9662   3.228   4.770   4.407 -0.1737 -0.2549  0.5984
 3219TIP3    H1 9663   3.276   4.716   4.469 -0.0627 -0.4351  0.3551
 3219TIP3    H2 9664   3.271   4.756   4.323  0.2626  0.7139  0.6478
 3220TIP3   OH2 9665   5.876   2.369  -0.016  0.1526 -0.2800  0.3657
 3220TIP3    H1 9666   5.903   2.460  -0.007  0.5647 -0.2542 -0.9539
 3220TIP3    H2 9667   5.891   2.331   0.071  1.3646  0.5403  0.5408
 3221TIP3   OH2 9668   4.365   4.020   1.780  0.2449 -0.5777  0.1605
 3221TIP3    H1 9669   4.440   3.961   1.792  1.2383  0.5991 -0.0410
 3221TIP3    H2 9670   4.299   3.966   1.736  1.4361 -1.3163 -0.7934
 3222TIP3   OH2 9671   6.335   4.375   4.396  0.0644  0.4443  0.7198
 3222TIP3    H1 9672   6.289   4.319   4.333  0.4102  1.0527 -0.0816
 3222TIP3    H2 9673   6.341   4.460   4.353  0.0191  0.9611  1.7138
 3223TIP3   OH2 9674   3.694   5.803   3.709  0.1898 -0.6293  0.4617
 3223TIP3    H1 9675   3.645   5.810   3.791  0.4006  0.4793  0.5080
 3223TIP3    H2 9676   3.690   5.891   3.672 -0.0752 -1.1571 -0.8236
 3224TIP3   OH2 9677   0.045   2.206   2.145  0.2793 -0.0019  0.0474
 3224TIP3    H1 9678  -0.048   2.211   2.121  0.5945  2.0645 -0.8933
 3224TIP3    H2 9679   0.077   2.127   2.100 -0.8706 -0.4107 -0.0861
 3225TIP3   OH2 9680   0.698   1.326   0.928 -0.2588 -0.5415 -0.3503
 3225TIP3    H1 9681   0.656   1.365   0.851 -1.7634 -2.5543 -0.6420
 3225TIP3    H2 9682   0.755   1.395   0.962 -1.0022  1.0528 -2.1446
 3226TIP3   OH2 9683   1.480   2.512   0.040  0.0332 -0.7338  0.1901
 3226TIP3    H1 9684   1.500   2.517   0.134 -0.0379 -2.6088  0.3402
 3226TIP3    H2 9685   1.395   2.468   0.037 -1.2715  1.6387 -0.6942
 3227TIP3   OH2 9686   5.700   0.338   2.794 -0.2900 -0.2487 -0.0850
 3227TIP3    H1 9687   5.655   0.259   2.824  2.6200 -1.4420  1.4909
 3227TIP3    H2 9688   5.687   0.401   2.865  0.9119 -0.7780  0.6253
 3228TIP3   OH2 9689   0.409   5.912   3.766 -0.2004  0.0130 -0.0581
 3228TIP3    H1 9690   0.504   5.911   3.774  0.2596  2.1594 -3.1412
 3228TIP3    H2 9691   0.378   5.960   3.842  1.1331 -0.8093  1.0414
 3229TIP3   OH2 9692   0.517   5.385   1.394 -0.5094 -0.4154 -0.2722
 3229TIP3    H1 9693   0.512   5.311   1.454 -2.9411  0.9920  1.3872
 3229TIP3    H2 9694   0.512   5.462   1.449  0.1464  1.0157 -2.0976
 3230TIP3   OH2 9695   2.382   5.205   1.337  0.2701  0.0332 -0.1958
 3230TIP3    H1 9696   2.410   5.295   1.352  0.9456 -0.3729  1.1237
 3230TIP3    H2 9697   2.301   5.213   1.286  0.2963  1.3766 -0.0544
 3231TIP3   OH2 9698   0.055   0.887   1.683  0.4842  0.1293 -0.0370
 3231TIP3    H1 9699  -0.014   0.844   1.632 -0.2103  0.6351  0.4506
 3231TIP3    H2 9700   0.010   0.958   1.728  1.0514 -0.3377  1.3234
 3232TIP3   OH2 9701   6.329   1.660   0.809 -0.2677 -0.2148 -0.7173
 3232TIP3    H1 9702   6.306   1.737   0.756 -1.0231  0.2062  0.1866
 3232TIP3    H2 9703   6.295   1.680   0.896  0.6903 -1.0269 -0.1417
 3233TIP3   OH2 9704   2.977   2.467   3.229 -0.6886 -0.0222  0.0057
 3233TIP3    H1 9705   2.993   2.433   3.317 -0.3471 -0.5651 -0.2604
 3233TIP3    H2 9706   2.884   2.486   3.226 -0.4068  1.7764  1.1004
 3234TIP3   OH2 9707   1.525   5.775   0.377 -0.9033 -0.4186 -0.6685
 3234TIP3    H1 9708   1.575   5.698   0.405 -0.1918  0.2871  0.0613
 3234TIP3    H2 9709   1.573   5.849   0.414 -1.3044  0.4123 -1.7610
 3235TIP3   OH2 9710   1.750   4.432   0.515 -0.0904 -0.0501 -0.0030
 3235TIP3    H1 9711   1.794   4.453   0.598 -0.1635 -1.9204  0.5602
 3235TIP3    H2 9712   1.668   4.482   0.518 -0.0195  0.0311  0.9794
 3236TIP3   OH2 9713   1.870   4.553   4.643  0.6942  0.3765  0.0670
 3236TIP3    H1 9714   1.910   4.627   4.690  1.1594  0.2563 -0.1420
 3236TIP3    H2 9715   1.803   4.594   4.588  1.1056  0.6751 -0.2214
 3237TIP3   OH2 9716   5.565   0.688   4.695  0.7454 -0.0233 -0.7369
 3237TIP3    H1 9717   5.523   0.678   4.610 -0.3039 -1.1367 -0.1130
 3237TIP3    H2 9718   5.531   0.616   4.748  3.5568 -1.1210 -0.2142
 3238TIP3   OH2 9719   1.872   2.250   1.319 -0.8243  0.1796  0.3740
 3238TIP3    H1 9720   1.902   2.159   1.313  0.4407  0.6321 -0.7022
 3238TIP3    H2 9721   1.785   2.244   1.357 -0.7358 -1.4810  0.3883
 3239TIP3   OH2 9722   2.993   2.555   1.336  0.3778  0.0957 -0.2823
 3239TIP3    H1 9723   2.910   2.510   1.326 -0.0594  0.1471  2.3626
 3239TIP3    H2 9724   2.987   2.631   1.278 -0.8193 -0.6507 -1.1768
 3240TIP3   OH2 9725   5.476   4.320   3.375  0.0374  0.0193  0.4059
 3240TIP3    H1 9726   5.542   4.370   3.328  0.4129 -0.0571  0.8465
 3240TIP3    H2 9727   5.507   4.319   3.466 -0.9990  0.7176  0.7888
 3241TIP3   OH2 9728   3.719   5.420   0.214 -0.4151 -0.3240 -0.3895
 3241TIP3    H1 9729   3.707   5.496   0.270 -2.4308  0.5594 -1.8838
 3241TIP3    H2 9730   3.785   5.448   0.150  0.7297 -0.7839  0.5529
 3242TIP3   OH2 9731   4.666   4.967   1.152  0.1518 -0.0465 -0.3661
 3242TIP3    H1 9732   4.608   4.918   1.094 -1.0125  0.4916  0.2958
 3242TIP3    H2 9733   4.641   4.940   1.240  2.0097 -0.9759 -0.0875
 3243TIP3   OH2 9734   3.010   0.555   4.710  0.1569 -0.2666 -0.0211
 3243TIP3    H1 9735   3.080   0.528   4.768  1.0239  0.9414 -0.4541
 3243TIP3    H2 9736   3.047   0.549   4.622 -0.3012  0.3035 -0.2645
 3244TIP3   OH2 9737   5.748   3.478   2.352  0.3345 -0.3361  0.0916
 3244TIP3    H1 9738   5.789   3.391   2.357  1.3613  0.1562  0.7318
 3244TIP3    H2 9739   5.720   3.496   2.441 -1.1885 -0.5854 -0.3077
 3245TIP3   OH2 9740   3.408   3.952   1.172 -0.0191  0.3760 -0.2048
 3245TIP3    H1 9741   3.379   4.040   1.147  1.6747  0.5016 -1.9149
 3245TIP3    H2 9742   3.349   3.927   1.243 -1.7960  2.1108 -0.9737
 3246TIP3   OH2 9743   2.651   3.775   4.813  0.5654  0.8031 -0.5164
 3246TIP3    H1 9744   2.726   3.763   4.871 -0.4837 -0.9116  0.5901
 3246TIP3    H2 9745   2.576   3.781   4.872 -0.1993  2.6462 -1.5833
 3247TIP3   OH2 9746   2.145   0.130   3.434 -0.1202  0.1183  0.3360
 3247TIP3    H1 9747   2.086   0.068   3.478 -0.8635 -0.1149 -0.9221
 3247TIP3    H2 9748   2.211   0.075   3.392 -1.4269  0.0167 -1.7365
 3248TIP3   OH2 9749   4.149   1.255   0.219 -0.0025 -0.1850 -0.1175
 3248TIP3    H1 9750   4.215   1.220   0.279 -0.1181  0.4578  0.3877
 3248TIP3    H2 9751   4.167   1.348   0.214 -0.6372 -0.0628 -0.2708
 3249TIP3   OH2 9752   1.944   5.307   4.756  0.0191  0.4575 -0.2504
 3249TIP3    H1 9753   1.910   5.296   4.845 -0.0522  0.1674 -0.3119
 3249TIP3    H2 9754   1.867   5.331   4.704  0.1410  1.0723 -0.1521
 3250TIP3   OH2 9755   6.013   2.929   4.042  0.4573 -0.4200 -0.3887
 3250TIP3    H1 9756   6.002   2.895   4.131 -0.7899 -1.4394 -0.8972
 3250TIP3    H2 9757   5.978   2.860   3.986 -1.7560  1.5169 -1.5304
 3251TIP3   OH2 9758   1.248   1.853   3.124 -0.3581  0.6121  0.5321
 3251TIP3    H1 9759   1.254   1.778   3.065  0.6946  0.9123  0.2338
 3251TIP3    H2 9760   1.158   1.885   3.112 -1.3562 -1.4690  1.7818
 3252TIP3   OH2 9761   6.239   5.001   3.958  0.0661  0.1972 -0.3011
 3252TIP3    H1 9762   6.243   4.913   3.920 -0.6497 -0.0962  0.2884
 3252TIP3    H2 9763   6.290   4.995   4.038 -0.4784  0.1524  0.0480
 3253TIP3   OH2 9764   5.005   5.220   3.212  0.3412  0.2750  0.2496
 3253TIP3    H1 9765   5.058   5.252   3.140  4.9387 -1.2492  2.5291
 3253TIP3    H2 9766   5.007   5.124   3.203 -1.2730  0.1227  1.0064
 3254TIP3   OH2 9767   5.082   5.885   1.516 -1.0505  0.0170  0.7252
 3254TIP3    H1 9768   4.994   5.850   1.503 -0.2500 -1.4390 -1.3946
 3254TIP3    H2 9769   5.132   5.810   1.549  0.1311 -0.1966 -1.4037
 3255TIP3   OH2 9770   5.788   5.872   0.740  0.6969  0.0906 -0.0995
 3255TIP3    H1 9771   5.842   5.825   0.804  0.5644  1.1943  0.8576
 3255TIP3    H2 9772   5.844   5.881   0.664  1.0026 -0.8899 -0.0117
 3256TIP3   OH2 9773   5.350   2.080   1.233  0.1157  0.1641 -0.4012
 3256TIP3    H1 9774   5.379   2.123   1.314  1.3356 -0.7091 -0.3384
 3256TIP3    H2 9775   5.256   2.066   1.246  0.2602  0.1584  0.8249
 3257TIP3   OH2 9776   3.884   4.041   2.718 -0.0373 -0.2390  0.4759
 3257TIP3    H1 9777   3.812   4.011   2.663 -1.0825 -1.4218  2.3696
 3257TIP3    H2 9778   3.955   4.060   2.657 -1.2123 -1.2116 -1.2783
 3258TIP3   OH2 9779   5.517   4.503   1.780  0.4757 -0.5148  0.2200
 3258TIP3    H1 9780   5.562   4.432   1.735  2.1860 -1.2463  2.8275
 3258TIP3    H2 9781   5.571   4.580   1.762 -0.0362 -0.3491 -0.6544
 3259TIP3   OH2 9782   4.810   0.924   3.551  0.0047 -0.2898  0.1886
 3259TIP3    H1 9783   4.875   0.923   3.622  1.8294  0.5383 -1.3813
 3259TIP3    H2 9784   4.814   0.836   3.513 -0.6471 -0.5909  0.7842
 3260TIP3   OH2 9785   2.364   4.329   0.905 -0.1597 -0.3013  0.0955
 3260TIP3    H1 9786   2.337   4.336   0.813  0.9144 -0.4316 -0.2459
 3260TIP3    H2 9787   2.286   4.354   0.954 -1.3478 -2.0507 -0.8012
 3261TIP3   OH2 9788   1.068   5.730   1.080  0.1161  0.3226  0.1969
 3261TIP3    H1 9789   1.091   5.637   1.081 -0.5698  0.1450  1.1305
 3261TIP3    H2 9790   1.079   5.757   0.989 -0.8556 -0.9938 -0.3437
 3262TIP3   OH2 9791   6.093   3.931   1.214  0.0271  0.3640  0.2735
 3262TIP3    H1 9792   6.011   3.905   1.255 -1.1698  0.9735 -1.6009
 3262TIP3    H2 9793   6.108   3.865   1.146  0.1547  1.1838 -0.5235
 3263TIP3   OH2 9794   2.691   2.722   1.612  0.0966  0.4730 -0.7067
 3263TIP3    H1 9795   2.715   2.814   1.608 -1.6157  1.0947  1.3622
 3263TIP3    H2 9796   2.665   2.707   1.703  2.0434 -2.5418 -0.4904
 3264TIP3   OH2 9797   0.799   5.777   0.102 -0.4588  0.3594 -0.0850
 3264TIP3    H1 9798   0.836   5.856   0.141 -1.2603  1.4569 -1.4965
 3264TIP3    H2 9799   0.875   5.730   0.067  0.0737  0.2169  1.1913
 3265TIP3   OH2 9800   3.513   4.887   1.281 -0.4239 -0.2366  0.0512
 3265TIP3    H1 9801   3.440   4.944   1.255 -0.6620  0.2540  1.7073
 3265TIP3    H2 9802   3.475   4.829   1.348  0.3286 -1.0325 -0.1902
 3266TIP3   OH2 9803   2.569   5.860   4.811 -0.1241 -0.0247 -0.1536
 3266TIP3    H1 9804   2.609   5.920   4.748 -0.2686 -0.0103 -0.2316
 3266TIP3    H2 9805   2.546   5.783   4.758 -0.8548  0.2554 -0.2458
 3267TIP3   OH2 9806   2.291   1.293   2.306 -0.0303 -0.5499  0.0811
 3267TIP3    H1 9807   2.289   1.202   2.277 -0.4950 -0.0410 -1.5755
 3267TIP3    H2 9808   2.222   1.336   2.257 -0.9568  0.3805  2.0681
 3268TIP3   OH2 9809   4.100   4.756   3.568  0.3284  0.5720 -0.2495
 3268TIP3    H1 9810   4.145   4.711   3.639 -1.2157  1.1505  1.1685
 3268TIP3    H2 9811   4.131   4.713   3.488  1.8958 -0.2835  0.7836
 3269TIP3   OH2 9812   4.101   3.658   0.302 -0.4408  0.1924  0.2543
 3269TIP3    H1 9813   4.187   3.622   0.278 -0.4805  0.5652 -0.4979
 3269TIP3    H2 9814   4.044   3.582   0.309 -1.1271  0.1234 -3.7629
 3270TIP3   OH2 9815   5.300   2.244   3.921  0.3722  0.1670 -0.3471
 3270TIP3    H1 9816   5.238   2.295   3.869 -1.0359 -1.0204  0.1178
 3270TIP3    H2 9817   5.281   2.267   4.011 -1.3259 -2.2250 -0.0256
 3271TIP3   OH2 9818   4.644   2.778   3.414 -0.1431  0.2024  0.6259
 3271TIP3    H1 9819   4.644   2.778   3.510 -0.3012 -0.5779  0.6322
 3271TIP3    H2 9820   4.673   2.690   3.390  1.0084  0.7377 -0.0516
 3272TIP3   OH2 9821   2.899   4.146   2.820  0.0410  0.3767  0.3542
 3272TIP3    H1 9822   2.857   4.139   2.906 -0.9886 -0.4802 -0.1954
 3272TIP3    H2 9823   2.838   4.104   2.760  1.1489  0.1728 -0.6710
 3273TIP3   OH2 9824   2.012   5.241   3.338  0.7802 -0.1165 -0.4140
 3273TIP3    H1 9825   1.943   5.301   3.364  1.7529  1.2102 -0.7621
 3273TIP3    H2 9826   1.976   5.193   3.263 -0.9397 -1.8531  1.4032
 3274TIP3   OH2 9827   5.046   3.408   4.886 -0.5275 -0.0584  0.1030
 3274TIP3    H1 9828   5.046   3.321   4.925  1.1800 -0.2378 -0.2133
 3274TIP3    H2 9829   4.979   3.457   4.935 -2.1117 -1.7501 -0.2660
 3275TIP3   OH2 9830   1.855   5.129   2.717  0.5216  0.4555  0.2870
 3275TIP3    H1 9831   1.777   5.128   2.772  0.1351  0.1205 -0.2562
 3275TIP3    H2 9832   1.916   5.070   2.760  0.7411  1.2446  1.0850
 3276TIP3   OH2 9833   1.301   5.547   2.930 -0.0790 -0.4842 -0.2647
 3276TIP3    H1 9834   1.269   5.474   2.982  1.2771 -0.1852  1.0628
 3276TIP3    H2 9835   1.232   5.613   2.935 -1.2710 -1.5840 -1.3971
 3277TIP3   OH2 9836   6.299   0.246   4.089  0.0124 -0.3441 -0.5877
 3277TIP3    H1 9837   6.361   0.175   4.074  0.6604 -0.3516  1.7643
 3277TIP3    H2 9838   6.243   0.215   4.160 -1.8666  0.2118 -1.7634
 3278TIP3   OH2 9839   0.801   3.016   1.747  0.6583 -0.4630  0.4134
 3278TIP3    H1 9840   0.765   2.974   1.826 -0.0250 -1.7571 -0.5381
 3278TIP3    H2 9841   0.781   2.954   1.677 -1.3894  1.9229 -1.2885
 3279TIP3   OH2 9842   3.444   1.544   3.669  0.4707  0.3437  0.1818
 3279TIP3    H1 9843   3.440   1.449   3.665 -0.1868  0.3632  0.2602
 3279TIP3    H2 9844   3.390   1.567   3.744  1.6934  0.7154  0.9924
 3280TIP3   OH2 9845   3.862   1.325   3.043 -0.1967 -0.2921  0.2390
 3280TIP3    H1 9846   3.890   1.244   3.086 -0.4816 -0.5717 -0.0903
 3280TIP3    H2 9847   3.842   1.298   2.953 -0.6566  0.0684  0.2288
 3281TIP3   OH2 9848   4.150   5.203   3.202  0.2591 -0.0075  0.1150
 3281TIP3    H1 9849   4.226   5.147   3.187  1.2091  0.7788  1.6835
 3281TIP3    H2 9850   4.142   5.255   3.122  0.3094 -1.2779 -0.7325
 3282TIP3   OH2 9851   5.757   4.624   3.548 -0.5139  0.0419  0.2190
 3282TIP3    H1 9852   5.761   4.531   3.570  0.4794  0.1941  0.7587
 3282TIP3    H2 9853   5.847   4.655   3.561 -0.8000  1.0407 -0.1172
 3283TIP3   OH2 9854   1.545   3.962   2.265  0.2150 -0.5803  0.5668
 3283TIP3    H1 9855   1.484   3.946   2.337 -0.5796 -0.5964 -0.0943
 3283TIP3    H2 9856   1.540   3.884   2.211 -0.7237  0.2353 -0.5782
 3284TIP3   OH2 9857   5.678   3.538   2.612  0.1708  0.4242 -0.6245
 3284TIP3    H1 9858   5.609   3.602   2.630 -2.5016 -2.3464 -0.0249
 3284TIP3    H2 9859   5.707   3.509   2.699 -2.0908 -2.4018 -0.6774
 3285TIP3   OH2 9860   3.705   3.878   1.828 -0.4674  0.4152  0.0762
 3285TIP3    H1 9861   3.739   3.930   1.756 -0.0173 -0.6476 -0.5068
 3285TIP3    H2 9862   3.776   3.817   1.849 -1.1900 -0.3575  0.3342
 3286TIP3   OH2 9863   3.934   3.438   0.050  0.2861 -0.1347 -0.2995
 3286TIP3    H1 9864   3.901   3.388  -0.025 -0.2970 -1.5584  0.8498
 3286TIP3    H2 9865   3.965   3.520   0.012  0.8789 -1.1753 -2.2193
 3287TIP3   OH2 9866   0.917   3.138   0.177 -0.3441  0.2103  0.3099
 3287TIP3    H1 9867   0.903   3.179   0.091  0.2711 -0.5041 -0.1406
 3287TIP3    H2 9868   0.898   3.045   0.162 -1.4011  0.2470  1.2408
 3288TIP3   OH2 9869   3.358   4.346   4.661 -0.1865  0.2053 -0.4180
 3288TIP3    H1 9870   3.444   4.381   4.641  0.0678 -0.6658 -0.8931
 3288TIP3    H2 9871   3.341   4.280   4.593 -1.3231  0.5234 -0.4725
 3289TIP3   OH2 9872   2.533   4.557   1.017 -0.0896 -1.0341  0.1472
 3289TIP3    H1 9873   2.475   4.483   0.999  1.2076 -1.5230 -2.5049
 3289TIP3    H2 9874   2.476   4.622   1.058 -2.1663 -2.0817 -0.8936
 3290TIP3   OH2 9875   3.813   3.064   1.832  0.3109 -0.0937 -0.1143
 3290TIP3    H1 9876   3.890   3.108   1.796  2.0150 -1.6257  1.4136
 3290TIP3    H2 9877   3.807   2.982   1.782  0.4461 -0.5486  0.6056
 3291TIP3   OH2 9878   3.248   5.465   0.072  0.3688  0.4113 -0.0994
 3291TIP3    H1 9879   3.238   5.413  -0.007 -2.3864 -0.1953  0.5355
 3291TIP3    H2 9880   3.179   5.531   0.067  1.3514  1.5908  0.9486
 3292TIP3   OH2 9881   5.431   3.855   2.050  0.0857 -0.0882 -0.1497
 3292TIP3    H1 9882   5.391   3.783   2.099  0.1399 -0.2505 -0.3412
 3292TIP3    H2 9883   5.358   3.897   2.005  0.0600 -0.0543 -0.0763
 3293TIP3   OH2 9884   4.513   2.438   3.025 -0.1093  0.2232  0.4754
 3293TIP3    H1 9885   4.535   2.345   3.029  0.2969  0.1084 -2.3289
 3293TIP3    H2 9886   4.518   2.468   3.116 -2.2306 -2.8764  1.7979
 3294TIP3   OH2 9887   3.614   0.141   1.408 -0.2673  0.4509  0.1587
 3294TIP3    H1 9888   3.682   0.204   1.388 -1.2446  1.9087  1.2303
 3294TIP3    H2 9889   3.607   0.142   1.503  1.2778 -3.0568  0.4839
 3295TIP3   OH2 9890   5.030   3.260   0.117  1.0013  0.0944 -0.0004
 3295TIP3    H1 9891   5.000   3.175   0.085 -0.6626  0.6865 -0.1179
 3295TIP3    H2 9892   5.017   3.255   0.212 -0.6814  0.7410 -0.1497
 3296TIP3   OH2 9893   0.149   3.445   4.048 -0.1957 -0.4357  0.1143
 3296TIP3    H1 9894   0.072   3.425   3.994  0.1656 -2.6565  0.3173
 3296TIP3    H2 9895   0.144   3.383   4.120  0.6059  0.9067  1.3873
 3297TIP3   OH2 9896   4.282   2.052   4.628  0.2361 -0.5269 -0.1001
 3297TIP3    H1 9897   4.354   2.015   4.680 -0.6297  0.6378  2.0255
 3297TIP3    H2 9898   4.241   1.976   4.587  2.1005 -1.2948 -0.6754
 3298TIP3   OH2 9899   5.980   0.321   4.693 -0.7684  0.7386 -0.3578
 3298TIP3    H1 9900   5.933   0.327   4.776 -0.1382 -0.7304  0.1239
 3298TIP3    H2 9901   6.031   0.402   4.688 -1.6001  1.3032  0.1851
 3299TIP3   OH2 9902   3.826   2.576   1.892  0.2511 -0.0592  0.2211
 3299TIP3    H1 9903   3.783   2.575   1.807  0.5548 -0.9279  0.0675
 3299TIP3    H2 9904   3.771   2.633   1.946 -0.1925  0.1340 -0.4237
 3300TIP3   OH2 9905   5.706   2.193   3.104  0.2961  0.1852 -0.4413
 3300TIP3    H1 9906   5.659   2.157   3.180 -0.1518  1.7693  0.0604
 3300TIP3    H2 9907   5.641   2.247   3.059  0.4599 -0.9431 -2.1722
 3301TIP3   OH2 9908   5.058   0.597   2.163 -0.3407  0.5142  0.2811
 3301TIP3    H1 9909   5.042   0.569   2.253 -0.7589 -0.4985 -0.0851
 3301TIP3    H2 9910   5.154   0.596   2.154 -0.2471 -3.2660 -0.3500
 3302TIP3   OH2 9911   5.993   5.902   2.674  0.3803  0.2579 -0.2099
 3302TIP3    H1 9912   5.928   5.832   2.660  1.4683 -1.0057  0.7753
 3302TIP3    H2 9913   5.950   5.961   2.736 -0.8040  0.8548 -1.5398
 3303TIP3   OH2 9914   0.938   5.547   4.680 -0.3450 -0.1138 -0.0195
 3303TIP3    H1 9915   0.869   5.586   4.625 -0.0202 -0.4563 -0.6821
 3303TIP3    H2 9916   0.941   5.603   4.757 -2.5772 -1.0942  0.8426
 3304TIP3   OH2 9917   5.227   2.962   3.859  0.3522 -0.2465 -0.0429
 3304TIP3    H1 9918   5.212   3.029   3.926  1.9611  0.8424 -0.7048
 3304TIP3    H2 9919   5.267   2.889   3.907  1.1523  0.3802  0.2635
 3305TIP3   OH2 9920   6.088   5.556   5.155  0.1393  0.1677 -0.2759
 3305TIP3    H1 9921   6.028   5.611   5.204  2.1341  1.2209  1.1191
 3305TIP3    H2 9922   6.088   5.593   5.067 -0.0679  1.1474  0.1232
 3306TIP3   OH2 9923   5.750   4.194   2.732 -0.0661  0.2150  0.5922
 3306TIP3    H1 9924   5.837   4.221   2.764  0.3539 -1.0095  0.5205
 3306TIP3    H2 9925   5.765   4.109   2.691 -1.5952 -0.8202  2.0525
 3307TIP3   OH2 9926   5.286   5.965   4.815 -0.7053 -0.1781  0.3014
 3307TIP3    H1 9927   5.222   5.911   4.861  0.8792 -0.9668  1.7099
 3307TIP3    H2 9928   5.300   5.921   4.732  1.0104 -2.4126  1.6625
 3308TIP3   OH2 9929   3.896   0.703   3.966  0.0347 -0.3248  0.1619
 3308TIP3    H1 9930   3.908   0.798   3.972  1.0888 -0.3908 -0.6654
 3308TIP3    H2 9931   3.813   0.692   3.920 -0.0051  0.1980  0.1031
 3309TIP3   OH2 9932   2.212   2.084   4.584 -0.4715  0.1200  0.0413
 3309TIP3    H1 9933   2.214   2.065   4.491 -0.0401 -0.1070  0.0902
 3309TIP3    H2 9934   2.238   2.176   4.591  0.6177 -0.1722  0.0046
 3310TIP3   OH2 9935   4.130   1.423   2.639  0.5088  0.1094  0.2636
 3310TIP3    H1 9936   4.038   1.418   2.666  0.8005 -0.3764  1.2390
 3310TIP3    H2 9937   4.171   1.480   2.704  0.9268  0.2149 -0.0894
 3311TIP3   OH2 9938   3.726   0.040   3.146  0.1887  0.1692 -0.3544
 3311TIP3    H1 9939   3.725   0.054   3.241 -1.2588 -1.9796 -0.0050
 3311TIP3    H2 9940   3.744   0.127   3.110  2.4351  0.7634  1.8844
 3312TIP3   OH2 9941   6.299   3.937   0.647  0.1348 -0.6412  0.3525
 3312TIP3    H1 9942   6.319   3.852   0.607  0.1283 -0.0700 -0.9298
 3312TIP3    H2 9943   6.251   3.984   0.579  0.9710  0.7345  0.6737
 3313TIP3   OH2 9944   0.592   3.017   1.290 -0.0137 -0.4196  0.1769
 3313TIP3    H1 9945   0.597   3.112   1.274 -0.0702 -0.4132  0.1987
 3313TIP3    H2 9946   0.543   2.983   1.215  0.2372 -0.4656  0.0333
 3314TIP3   OH2 9947   0.303   4.864   4.196 -0.4106 -0.2707 -0.3366
 3314TIP3    H1 9948   0.208   4.872   4.191 -0.3578  1.0710  0.1491
 3314TIP3    H2 9949   0.319   4.808   4.272 -0.8214  0.3863  0.2514
 3315TIP3   OH2 9950   2.384   1.950   3.564 -0.3637 -0.3167 -0.0167
 3315TIP3    H1 9951   2.418   1.997   3.640 -0.3222  2.2529 -1.5098
 3315TIP3    H2 9952   2.369   1.861   3.596 -0.3320  0.6240  2.9736
 3316TIP3   OH2 9953   4.698   3.416   4.535  0.1648 -0.4602 -0.2975
 3316TIP3    H1 9954   4.736   3.502   4.552  0.1771 -0.6273  0.5295
 3316TIP3    H2 9955   4.717   3.400   4.442 -0.5008  0.7551 -0.6673
 3317TIP3   OH2 9956   4.664   3.870   1.002 -0.4836  0.1702 -0.2382
 3317TIP3    H1 9957   4.740   3.894   0.948  0.0382  0.7778  0.7410
 3317TIP3    H2 9958   4.597   3.844   0.939  0.1851  0.6574 -1.1686
 3318TIP3   OH2 9959   3.382   5.107   0.406  0.0963  0.1178  0.0628
 3318TIP3    H1 9960   3.426   5.174   0.353  2.0089 -1.2697 -0.2019
 3318TIP3    H2 9961   3.357   5.039   0.343  2.0598 -1.3735  0.7779
 3319TIP3   OH2 9962   0.777   3.780   3.343  0.4260 -0.1068 -0.3106
 3319TIP3    H1 9963   0.853   3.727   3.320 -0.4446 -2.3442  1.5809
 3319TIP3    H2 9964   0.797   3.814   3.430 -0.1361  0.5096 -0.4166
 3320TIP3   OH2 9965   0.438   0.831   5.074 -0.0138 -0.1823  0.0380
 3320TIP3    H1 9966   0.423   0.838   5.168 -0.1772  2.2939 -0.1058
 3320TIP3    H2 9967   0.352   0.817   5.036 -0.2688  1.0504  0.1286
 3321TIP3   OH2 9968   2.793   0.204   1.458  0.2168  0.2477  0.1059
 3321TIP3    H1 9969   2.862   0.176   1.518  0.7729  0.7781 -0.2744
 3321TIP3    H2 9970   2.812   0.297   1.442 -0.9430  0.5619  0.4836
 3322TIP3   OH2 9971   1.366   0.379   4.155 -0.1102  0.1456 -0.0621
 3322TIP3    H1 9972   1.450   0.395   4.110 -0.0308 -1.6470 -0.6279
 3322TIP3    H2 9973   1.318   0.461   4.145  1.3536  1.0305 -0.2099
 3323TIP3   OH2 9974   1.475   2.162   3.456  0.2633  0.3580 -0.1046
 3323TIP3    H1 9975   1.506   2.214   3.381 -2.1897  2.1734  0.0181
 3323TIP3    H2 9976   1.506   2.211   3.532 -0.8724  0.9189  0.0163
 3324TIP3   OH2 9977   4.348   0.854   0.631 -0.3651  0.0050  0.2126
 3324TIP3    H1 9978   4.338   0.871   0.537  0.0294  0.1991  0.2060
 3324TIP3    H2 9979   4.276   0.794   0.652 -0.3477 -0.1817 -0.2532
 3325TIP3   OH2 9980   0.434   2.959   2.951  0.2135 -0.1423 -0.0454
 3325TIP3    H1 9981   0.381   2.884   2.980  0.6952 -0.3988  0.1850
 3325TIP3    H2 9982   0.447   2.944   2.857 -0.7754  0.3342 -0.2728
 3326TIP3   OH2 9983   4.569   4.729   2.778 -0.3883 -0.3441 -0.6725
 3326TIP3    H1 9984   4.526   4.745   2.695 -1.6977 -0.1164  0.0289
 3326TIP3    H2 9985   4.568   4.634   2.788  2.4856 -0.6772 -2.2699
 3327TIP3   OH2 9986   5.756   2.208   1.722 -0.4139  0.1779  0.5555
 3327TIP3    H1 9987   5.707   2.233   1.800 -0.2371  1.2881  0.3265
 3327TIP3    H2 9988   5.726   2.268   1.654 -3.2566 -2.9972 -1.3005
 3328TIP3   OH2 9989   0.008   4.327   3.475  0.2124  0.1803 -0.1787
 3328TIP3    H1 9990   0.063   4.374   3.538  0.8706 -0.1194 -0.5246
 3328TIP3    H2 9991   0.019   4.376   3.394 -1.7315  1.4115  0.2281
 3329TIP3   OH2 9992   6.168   0.395   2.281 -0.1706 -0.1254  0.0695
 3329TIP3    H1 9993   6.245   0.377   2.229  0.3173 -0.2592  0.8193
 3329TIP3    H2 9994   6.127   0.471   2.239  0.4274  0.0128 -0.2643
 3330TIP3   OH2 9995   5.522   5.066   0.770 -0.0396  0.5648 -0.7405
 3330TIP3    H1 9996   5.461   4.996   0.746 -0.7148  0.7400  0.3879
 3330TIP3    H2 9997   5.566   5.033   0.848  0.6764  0.8136 -1.0303
 3331TIP3   OH2 9998   2.851   1.846   1.926 -0.2948 -0.7087 -0.2040
 3331TIP3    H1 9999   2.817   1.807   1.846 -1.2019  0.2892 -0.3355
 3331TIP3    H210000   2.773   1.873   1.974  0.2679  0.0851  0.2929
 3332TIP3   OH210001   5.151   1.362   4.785  0.2304 -0.3988  0.6987
 3332TIP3    H110002   5.112   1.278   4.811 -0.7519 -0.2351 -0.2027
 3332TIP3    H210003   5.076   1.417   4.761  0.8510  0.7819  1.3719
 3333TIP3   OH210004   0.722   1.870   3.201 -0.7332 -0.1288 -0.0680
 3333TIP3    H110005   0.721   1.937   3.133 -0.7474 -0.6755 -0.6158
 3333TIP3    H210006   0.633   1.835   3.202 -0.8185  0.0965  0.4579
 3334TIP3   OH210007   0.705   5.510   2.581  0.2025 -0.5565  0.5955
 3334TIP3    H110008   0.650   5.462   2.643  0.5200 -0.5243  0.9055
 3334TIP3    H210009   0.752   5.574   2.634 -1.0030  0.8362  0.0466
 3335TIP3   OH210010   2.101   0.281   2.597  0.0500 -0.4248  0.3461
 3335TIP3    H110011   2.166   0.323   2.654  0.1380 -1.2985  0.9027
 3335TIP3    H210012   2.035   0.247   2.658  0.2024 -1.4655 -0.0614
 3336TIP3   OH210013   1.504   1.745   0.771  0.1111  0.1136  0.0060
 3336TIP3    H110014   1.536   1.655   0.759 -2.4726 -0.5345 -4.0242
 3336TIP3    H210015   1.556   1.797   0.711 -0.9438  0.5401 -0.5632
 3337TIP3   OH210016   1.033   4.983   4.522  0.3177 -0.1124 -0.6252
 3337TIP3    H110017   0.978   5.058   4.545  0.3851 -0.3551  0.3592
 3337TIP3    H210018   1.109   5.022   4.478  0.8151  0.5017  0.7191
 3338TIP3   OH210019   3.563   1.666   1.474  0.9788  0.4826 -0.1319
 3338TIP3    H110020   3.472   1.647   1.497  0.5594  2.2115 -0.1743
 3338TIP3    H210021   3.610   1.585   1.489 -0.3899 -0.1419  0.9201
 3339TIP3   OH210022   4.049   0.421   1.204  0.6478  0.2075  0.1584
 3339TIP3    H110023   4.051   0.481   1.278 -0.9957  0.7862 -0.2370
 3339TIP3    H210024   3.969   0.443   1.156  1.4741 -0.3964 -1.6007
 3340TIP3   OH210025   5.388   2.141   3.549 -0.0802 -0.4425  0.2844
 3340TIP3    H110026   5.409   2.229   3.580 -0.0548 -1.1884  2.5918
 3340TIP3    H210027   5.449   2.084   3.597 -0.6396 -1.7880 -0.5459
 3341TIP3   OH210028   3.156   3.866   0.349 -0.1624 -0.1159 -0.6269
 3341TIP3    H110029   3.083   3.907   0.396 -0.1067  1.8679 -2.1242
 3341TIP3    H210030   3.171   3.783   0.394 -1.5998  0.6370  1.3631
 3342TIP3   OH210031   1.805   3.777   2.255  0.1067 -0.0659  0.4846
 3342TIP3    H110032   1.869   3.707   2.255 -1.1725 -1.2931  0.0479
 3342TIP3    H210033   1.735   3.746   2.313  0.0676  1.3937  1.2598
 3343TIP3   OH210034   2.948   1.462   4.143 -0.0672  0.1682  0.5226
 3343TIP3    H110035   3.042   1.448   4.151  0.2472  2.0141  0.5323
 3343TIP3    H210036   2.909   1.387   4.188  1.2702 -2.3124 -2.1402
 3344TIP3   OH210037   1.577   1.588   4.983  0.1735  0.1023 -0.4358
 3344TIP3    H110038   1.631   1.580   5.061  0.8683  3.4536 -0.4313
 3344TIP3    H210039   1.637   1.615   4.914 -0.9122  0.1489 -1.4080
 3345TIP3   OH210040   1.232   3.246   4.983  0.2248 -0.0817  0.4542
 3345TIP3    H110041   1.176   3.247   5.061  0.1328 -0.0663  0.3872
 3345TIP3    H210042   1.171   3.244   4.909  0.3152 -0.7822  0.3923
 3346TIP3   OH210043   5.959   0.795   0.258  0.3410 -0.3360  0.1701
 3346TIP3    H110044   5.898   0.725   0.283  0.4686 -0.3340  0.5009
 3346TIP3    H210045   5.945   0.864   0.323 -1.3793  0.9237 -1.4357
 3347TIP3   OH210046   4.835   4.461   2.786  0.3257  0.2715  0.0538
 3347TIP3    H110047   4.868   4.499   2.868 -0.6452 -0.0679  0.6152
 3347TIP3    H210048   4.748   4.427   2.808  0.0620  0.1416 -1.1126
 3348TIP3   OH210049   5.694   4.896   2.095  0.1206 -0.2493  0.1989
 3348TIP3    H110050   5.604   4.864   2.103  0.0875  0.0919  1.3880
 3348TIP3    H210051   5.729   4.851   2.017 -1.7268  1.1887 -1.5597
 3349TIP3   OH210052   3.826   0.595   1.162  0.1581  0.2863 -0.0036
 3349TIP3    H110053   3.821   0.662   1.093  2.6169 -1.1939 -1.7317
 3349TIP3    H210054   3.764   0.528   1.134  2.3752 -1.1247 -1.8427
 3350TIP3   OH210055   4.564   0.396   2.422  0.1275 -0.4424 -0.3599
 3350TIP3    H110056   4.469   0.381   2.428  0.0245 -0.1749 -1.1186
 3350TIP3    H210057   4.591   0.349   2.343  0.6124 -0.4389 -0.2000
 3351TIP3   OH210058   4.018   1.835   4.664  0.1170  0.1301 -0.4526
 3351TIP3    H110059   3.940   1.881   4.632  0.5995  0.2539 -1.4726
 3351TIP3    H210060   4.014   1.749   4.622  0.2703 -0.0504 -0.1032
 3352TIP3   OH210061   6.073   3.237   3.095  0.3304 -0.3024 -0.1353
 3352TIP3    H110062   6.159   3.199   3.109  0.5054  0.3794  0.7195
 3352TIP3    H210063   6.057   3.290   3.173 -0.6722 -0.0690 -0.4834
 3353TIP3   OH210064   4.766   1.373   4.650 -0.3736  0.0502 -0.4075
 3353TIP3    H110065   4.830   1.334   4.590 -2.6330 -3.8351 -0.6530
 3353TIP3    H210066   4.701   1.413   4.592 -0.0943  0.6488 -0.3127
 3354TIP3   OH210067   1.499   4.622   1.834 -0.0149 -0.3629  0.0838
 3354TIP3    H110068   1.562   4.591   1.899 -1.1161  0.4053  1.5719
 3354TIP3    H210069   1.452   4.543   1.807  1.6027 -0.9668 -1.1427
 3355TIP3   OH210070   4.455   2.255   1.344  0.4770  0.5569  0.1755
 3355TIP3    H110071   4.511   2.198   1.398  0.6778  1.1676  0.6221
 3355TIP3    H210072   4.515   2.321   1.310  1.0813 -1.5708 -3.4846
 3356TIP3   OH210073   6.331   1.017   2.520  0.3345  0.4536  0.3519
 3356TIP3    H110074   6.382   1.097   2.510 -1.9770  1.9264 -0.6120
 3356TIP3    H210075   6.271   1.035   2.592  1.8455 -1.6804  2.2704
 3357TIP3   OH210076   2.099   0.318   1.728  0.3555  0.4605 -0.0030
 3357TIP3    H110077   2.115   0.309   1.634 -1.4172 -0.1630 -0.2794
 3357TIP3    H210078   2.136   0.404   1.750  0.2695  0.8795 -1.3940
 3358TIP3   OH210079   2.504   3.606   1.875 -0.5520 -0.5134  0.4238
 3358TIP3    H110080   2.504   3.512   1.856  0.0297 -0.0856 -1.9280
 3358TIP3    H210081   2.583   3.639   1.833 -2.4832  1.5494 -1.8481
 3359TIP3   OH210082   5.176   4.927   0.593  0.4988  0.0673 -0.6100
 3359TIP3    H110083   5.241   4.906   0.660 -1.6125 -0.3377  1.4194
 3359TIP3    H210084   5.096   4.885   0.623 -1.0727  1.6635 -2.3350
 3360TIP3   OH210085   0.550   1.357   5.183  0.2371  0.5198  0.5419
 3360TIP3    H110086   0.498   1.286   5.146  0.4810  1.3418 -1.4901
 3360TIP3    H210087   0.632   1.315   5.210 -0.0293 -0.1385  0.3373
 3361TIP3   OH210088   0.851   5.879   3.455 -0.4313 -0.5176  0.3229
 3361TIP3    H110089   0.758   5.884   3.435 -0.2742  0.6099 -0.1808
 3361TIP3    H210090   0.863   5.792   3.492 -2.0774  0.0526  2.3965
 3362TIP3   OH210091   0.774   1.128   4.510 -0.1602 -0.7288  0.2413
 3362TIP3    H110092   0.761   1.222   4.507 -5.4466 -1.1849 -1.1897
 3362TIP3    H210093   0.805   1.105   4.422 -0.0279 -0.4843  0.2218
 3363TIP3   OH210094   1.123   5.825   0.454 -0.1388  0.0799 -0.2664
 3363TIP3    H110095   1.041   5.776   0.464  0.1721 -0.3730  0.0686
 3363TIP3    H210096   1.166   5.784   0.378 -0.1089  0.1631 -0.2951
 3364TIP3   OH210097   1.590   2.181   0.581  0.8726 -0.6320  0.6360
 3364TIP3    H110098   1.653   2.208   0.648 -0.3480 -0.4393  1.7300
 3364TIP3    H210099   1.622   2.223   0.500  1.2710  0.7728  1.4857
 3365TIP3   OH210100   2.645   3.721   4.537  0.2742 -0.2141 -0.1375
 3365TIP3    H110101   2.721   3.767   4.501  0.3533 -0.1540  0.1012
 3365TIP3    H210102   2.655   3.730   4.632  0.8803 -1.6582 -0.0294
 3366TIP3   OH210103   5.644   4.981   3.174  0.5020 -0.3696 -0.0532
 3366TIP3    H110104   5.715   4.995   3.236 -0.1469 -0.3670  0.6988
 3366TIP3    H210105   5.662   4.896   3.134  1.5586  0.1559 -0.7330
 3367TIP3   OH210106   0.159   5.003   0.479 -0.2875  0.0317  0.2099
 3367TIP3    H110107   0.176   5.097   0.493 -0.6396  0.3903 -1.5553
 3367TIP3    H210108   0.106   4.977   0.554 -1.2901  1.5776  0.0798
 3368TIP3   OH210109   1.780   4.087   3.225 -0.6739 -0.5195  0.5118
 3368TIP3    H110110   1.689   4.074   3.249 -0.2994  0.7732  2.9539
 3368TIP3    H210111   1.827   4.086   3.308  0.8732  3.6392 -0.0951
 3369TIP3   OH210112   3.032   2.674   4.817  0.2257  0.1388 -0.2033
 3369TIP3    H110113   3.054   2.584   4.840  1.4658  0.1218 -1.3708
 3369TIP3    H210114   3.046   2.723   4.898 -0.5071 -0.7092  0.4592
 3370TIP3   OH210115   0.257   4.478   4.191 -0.5966  0.6636  0.5731
 3370TIP3    H110116   0.262   4.383   4.200  0.2273  0.5803 -0.5151
 3370TIP3    H210117   0.238   4.510   4.279  1.7338 -0.3482  1.5115
 3371TIP3   OH210118   5.498   0.433   2.383  0.3939 -0.3537 -0.3509
 3371TIP3    H110119   5.556   0.490   2.432 -0.0529  0.6801 -0.9982
 3371TIP3    H210120   5.485   0.357   2.440 -1.3303  1.4555  1.8308
 3372TIP3   OH210121   6.290   4.146   2.203  0.6870  0.2785 -0.0616
 3372TIP3    H110122   6.236   4.090   2.148 -0.0981  0.7829  0.1782
 3372TIP3    H210123   6.339   4.085   2.259 -0.4207 -0.1625  0.4461
 3373TIP3   OH210124   2.859   5.586   2.406  0.2661 -0.0042  0.6954
 3373TIP3    H110125   2.805   5.661   2.431  0.8389  0.1442  1.5304
 3373TIP3    H210126   2.931   5.624   2.355  0.6818  0.0592  1.3117
 3374TIP3   OH210127   5.359   4.321   3.122  0.6367 -0.5030  0.6319
 3374TIP3    H110128   5.416   4.265   3.070  1.5064 -0.9491  2.0088
 3374TIP3    H210129   5.397   4.319   3.210 -1.3426 -0.5996  1.5467
 3375TIP3   OH210130   4.859   1.110   2.181 -0.2358 -0.2867  0.5237
 3375TIP3    H110131   4.810   1.143   2.105  1.1372  1.6480  0.4129
 3375TIP3    H210132   4.848   1.015   2.177  0.9504 -0.4098 -2.9516
 3376TIP3   OH210133   4.772   1.465   4.230  0.0406  0.3301  0.3336
 3376TIP3    H110134   4.722   1.403   4.283 -1.3095 -0.6675 -1.9611
 3376TIP3    H210135   4.854   1.420   4.210 -0.1694  0.0122  0.1816
 3377TIP3   OH210136   4.561   3.109   1.935  0.5050 -0.4338 -0.2703
 3377TIP3    H110137   4.519   3.050   1.873 -0.6534 -0.2944  0.3594
 3377TIP3    H210138   4.546   3.196   1.898 -1.1138 -0.2662  0.7024
 3378TIP3   OH210139   0.125   1.450   0.882  0.2254  0.2984  0.2284
 3378TIP3    H110140   0.059   1.517   0.863  0.4444 -0.1970 -2.8881
 3378TIP3    H210141   0.075   1.373   0.908 -0.2453  0.6219  0.2930
 3379TIP3   OH210142   0.274   1.043   2.528 -0.5691 -0.0640 -0.5150
 3379TIP3    H110143   0.363   1.068   2.504 -0.4926  0.8547  0.6087
 3379TIP3    H210144   0.228   1.126   2.540 -0.9158 -0.4540  1.1929
 3380TIP3   OH210145   1.046   5.714   1.538  0.0607  0.3765 -0.0803
 3380TIP3    H110146   0.976   5.692   1.476 -0.9568  1.5176  0.6263
 3380TIP3    H210147   1.054   5.636   1.593 -1.1562  0.4663  0.2621
 3381TIP3   OH210148   3.272   4.894   3.061 -0.2934 -0.5365 -0.3728
 3381TIP3    H110149   3.261   4.801   3.039 -1.5286 -1.0935  2.1552
 3381TIP3    H210150   3.340   4.894   3.129  0.7069  0.6095 -1.3367
 3382TIP3   OH210151   2.466   0.245   0.054  0.0699 -0.1929  0.1078
 3382TIP3    H110152   2.393   0.222   0.112 -0.4692  0.6089 -0.2235
 3382TIP3    H210153   2.541   0.256   0.112 -0.2248 -0.3859  0.5335
 3383TIP3   OH210154   2.284   3.929   4.703  0.7516 -0.3004  0.1316
 3383TIP3    H110155   2.232   3.984   4.644  0.3618 -0.4478  0.3309
 3383TIP3    H210156   2.347   3.989   4.743  0.0764  0.0835  0.6390
 3384TIP3   OH210157   6.170   5.199  -0.020 -0.3713  0.4139  0.0289
 3384TIP3    H110158   6.083   5.229   0.005  0.3671  1.6144  1.3377
 3384TIP3    H210159   6.227   5.229   0.051  0.8902 -1.7295  0.0095
 3385TIP3   OH210160   0.692   1.347   3.889 -0.7891 -0.2302  0.5720
 3385TIP3    H110161   0.658   1.413   3.828  0.8565 -0.7642 -1.0285
 3385TIP3    H210162   0.644   1.267   3.868  0.6747 -0.7591 -1.0741
 3386TIP3   OH210163   3.758   4.045   5.189  0.3581 -0.0030  0.4253
 3386TIP3    H110164   3.776   3.953   5.204 -1.1424 -0.3675  0.1745
 3386TIP3    H210165   3.670   4.047   5.151  0.9231  1.4298 -0.9579
 3387TIP3   OH210166   0.632   5.372   4.368 -0.4775  0.4156 -0.1807
 3387TIP3    H110167   0.613   5.282   4.392  1.6347 -0.6494 -2.0845
 3387TIP3    H210168   0.563   5.396   4.307  0.9385 -1.3956 -2.6944
 3388TIP3   OH210169   4.304   3.636   2.918  0.4010  0.0497 -0.2471
 3388TIP3    H110170   4.278   3.615   3.007 -1.1113  0.4006 -0.5687
 3388TIP3    H210171   4.298   3.731   2.913 -0.6315 -0.0264 -1.0009
 3389TIP3   OH210172   2.742   0.091   2.784  0.0920  0.1321 -0.1464
 3389TIP3    H110173   2.747   0.004   2.744 -0.6189 -0.7163  1.4981
 3389TIP3    H210174   2.688   0.142   2.725 -1.9403 -1.4391  0.2690
 3390TIP3   OH210175   5.477   5.227   3.224  0.3016  0.7077 -0.2421
 3390TIP3    H110176   5.411   5.189   3.281  2.5126  0.3572  2.2590
 3390TIP3    H210177   5.520   5.152   3.183  1.6608  0.6566  1.1835
 3391TIP3   OH210178   0.475   4.332   2.614  0.1164 -1.0115  0.2150
 3391TIP3    H110179   0.469   4.314   2.520  1.2340  0.0106 -0.0825
 3391TIP3    H210180   0.553   4.285   2.643  1.3303  0.7797  0.0404
 3392TIP3   OH210181   0.647   2.246   4.574 -0.3842 -0.1421 -0.3332
 3392TIP3    H110182   0.610   2.187   4.640 -1.4843 -2.2457 -2.6803
 3392TIP3    H210183   0.581   2.315   4.565 -0.3820 -0.0181  0.4936
 3393TIP3   OH210184   5.629   2.163   2.232  0.2398  0.1788  0.6559
 3393TIP3    H110185   5.536   2.188   2.236 -0.1344 -1.2175  1.2441
 3393TIP3    H210186   5.660   2.172   2.322  0.4297 -0.2700  0.6363
 3394TIP3   OH210187   0.693   3.343   3.366 -0.0551  0.0213 -0.4620
 3394TIP3    H110188   0.619   3.372   3.312  0.2021  2.1902  0.2633
 3394TIP3    H210189   0.685   3.393   3.447  3.2857  1.9710 -1.1091
 3395TIP3   OH210190   6.133   3.631   2.033  0.2210  0.4145 -0.2046
 3395TIP3    H110191   6.184   3.711   2.026  1.7825 -0.3704  1.3479
 3395TIP3    H210192   6.122   3.617   2.127 -2.9050  0.5019 -0.4674
 3396TIP3   OH210193   0.066   1.806   2.564 -0.6348 -0.2141 -0.0633
 3396TIP3    H110194   0.091   1.731   2.619  0.4173  1.5127  1.9296
 3396TIP3    H210195  -0.015   1.839   2.604  1.2503  2.3480  1.9727
 3397TIP3   OH210196   3.258   0.591   5.027  0.2211  0.2100  0.2594
 3397TIP3    H110197   3.179   0.541   5.051  0.1127  0.2553  0.0064
 3397TIP3    H210198   3.300   0.611   5.110  1.0439 -1.5565  0.3103
 3398TIP3   OH210199   0.674   4.413   2.950 -0.1569  0.4003  0.1503
 3398TIP3    H110200   0.735   4.402   3.023 -0.7521  1.5024  0.8391
 3398TIP3    H210201   0.588   4.418   2.991 -0.5055  0.9874 -0.6338
 3399TIP3   OH210202   4.698   1.540   3.531 -0.4164 -0.3103  0.1737
 3399TIP3    H110203   4.714   1.630   3.559  0.1181 -0.1695 -0.5429
 3399TIP3    H210204   4.675   1.493   3.612 -0.4227  0.4052  0.5948
 3400TIP3   OH210205   0.388   1.166   5.031 -0.2680  0.0103 -0.2766
 3400TIP3    H110206   0.391   1.244   4.974 -1.8585 -1.1194 -2.0248
 3400TIP3    H210207   0.377   1.093   4.970 -1.7295 -1.3185  1.4730
 3401TIP3   OH210208   3.227   3.949   0.898  0.6979 -0.2245  0.2930
 3401TIP3    H110209   3.233   3.989   0.811 -1.8376  1.2073  0.6707
 3401TIP3    H210210   3.190   3.862   0.882  2.6426 -1.0217 -0.2034
 3402TIP3   OH210211   0.177   1.766   4.310  0.5840  0.2789 -0.1233
 3402TIP3    H110212   0.177   1.755   4.215  2.4819  0.4945 -0.1751
 3402TIP3    H210213   0.176   1.677   4.345  1.4035  0.1728 -0.3678
 3403TIP3   OH210214   1.152   1.138   1.369  0.1521  0.2658  0.2121
 3403TIP3    H110215   1.156   1.065   1.430 -1.5362  0.5856  0.7505
 3403TIP3    H210216   1.137   1.098   1.283 -1.3444 -0.0181  0.5833
 3404TIP3   OH210217   5.882   4.867   0.230 -0.0167 -0.4361  0.2358
 3404TIP3    H110218   5.929   4.871   0.147  0.1545 -0.9183  0.3050
 3404TIP3    H210219   5.951   4.861   0.297 -0.1726 -1.7824  0.2959
 3405TIP3   OH210220   4.100   4.148   1.365  0.4360 -0.5525  0.3383
 3405TIP3    H110221   4.058   4.097   1.434  0.4043 -1.3255 -0.2392
 3405TIP3    H210222   4.150   4.215   1.411 -0.8504 -0.0603  1.0591
 3406TIP3   OH210223   1.040   2.548   1.075  0.2745 -0.7194 -0.3101
 3406TIP3    H110224   1.133   2.559   1.051  0.1174  0.8976 -0.2774
 3406TIP3    H210225   0.995   2.546   0.991  0.2074  0.0407 -0.3031
 3407TIP3   OH210226   5.585   0.741   2.978 -0.1129 -0.3163  0.1028
 3407TIP3    H110227   5.634   0.771   2.901 -0.0555 -0.1878  0.1894
 3407TIP3    H210228   5.498   0.779   2.967  0.1834  0.5370  0.6076
 3408TIP3   OH210229   0.461   4.364   3.374  0.3199  0.1508 -0.1894
 3408TIP3    H110230   0.545   4.322   3.394 -0.1937 -1.5450 -1.3167
 3408TIP3    H210231   0.396   4.307   3.415 -0.3492  0.4825 -0.7644
 3409TIP3   OH210232   2.670   5.804   2.520  0.0008 -0.3844  0.3388
 3409TIP3    H110233   2.708   5.766   2.599  0.6755 -0.0632  0.1798
 3409TIP3    H210234   2.594   5.854   2.551  2.2943  2.8299  1.3827
 3410TIP3   OH210235   3.385   0.995   4.105  0.0245 -0.3195  0.2086
 3410TIP3    H110236   3.428   0.918   4.069 -1.0657 -0.7596 -0.2112
 3410TIP3    H210237   3.352   1.043   4.028 -1.5146 -0.7840  0.5421
 3411TIP3   OH210238   2.928   4.716   4.230 -0.5125 -0.7694  0.8077
 3411TIP3    H110239   2.898   4.803   4.206  0.4214 -0.1246  1.8998
 3411TIP3    H210240   2.852   4.675   4.271 -0.6236 -0.0494  1.3369
 3412TIP3   OH210241   4.222   0.953   4.961 -0.2159  0.3738  0.2113
 3412TIP3    H110242   4.202   0.863   4.935  0.6188 -0.2474  1.6230
 3412TIP3    H210243   4.145   1.003   4.934 -0.3883 -0.6267 -1.2346
 3413TIP3   OH210244   2.120   1.563   2.295  0.1399  0.1694  0.7658
 3413TIP3    H110245   2.068   1.643   2.298 -0.3857 -0.1485  0.3558
 3413TIP3    H210246   2.081   1.512   2.223  1.3056  0.1299  0.1322
 3414TIP3   OH210247   5.954   0.403   2.508  0.1324  0.0393  0.0990
 3414TIP3    H110248   6.011   0.363   2.442 -1.2613 -1.0148 -0.5396
 3414TIP3    H210249   5.977   0.360   2.590  0.4010 -0.2074 -0.1052
 3415TIP3   OH210250   2.556   4.161   0.354 -0.1267  0.2145 -0.0026
 3415TIP3    H110251   2.628   4.098   0.345  0.0853  0.4517  0.0142
 3415TIP3    H210252   2.513   4.161   0.269  0.1580  0.3890 -0.1466
 3416TIP3   OH210253   6.039   3.016   2.516  0.3151  0.3935  0.7789
 3416TIP3    H110254   6.076   2.939   2.472  0.2812  1.1519 -0.6469
 3416TIP3    H210255   5.978   2.980   2.580  0.4251 -0.7733  0.2515
 3417TIP3   OH210256   3.446   0.571   2.893 -0.2033 -0.3385 -0.3676
 3417TIP3    H110257   3.357   0.606   2.894 -0.5575 -1.2085 -0.5627
 3417TIP3    H210258   3.468   0.562   2.800  0.6890  1.3217 -0.3496
 3418TIP3   OH210259   0.454   3.871   3.765  0.4099  0.0936  0.4356
 3418TIP3    H110260   0.508   3.948   3.754  1.8906 -0.7934  1.2144
 3418TIP3    H210261   0.504   3.800   3.726 -1.8012 -0.2132 -2.1033
 3419TIP3   OH210262   0.638   1.018   1.310  0.2120 -0.0056  0.1686
 3419TIP3    H110263   0.677   1.043   1.393  1.6578 -0.4509 -0.3395
 3419TIP3    H210264   0.621   1.100   1.265  0.2525  0.2033  0.5361
 3420TIP3   OH210265   0.457   4.957   1.872  0.2332  0.2939 -0.4588
 3420TIP3    H110266   0.467   4.866   1.899  0.2913  0.2672 -0.5707
 3420TIP3    H210267   0.502   5.007   1.940 -2.6547  0.4918  1.4701
 3421TIP3   OH210268   1.981   5.521   1.582 -0.4620 -0.1863  0.5750
 3421TIP3    H110269   1.986   5.517   1.487 -0.1045 -1.0032  0.6209
 3421TIP3    H210270   1.890   5.547   1.600 -0.0136  1.9462 -0.0022
 3422TIP3   OH210271   4.354   2.715   4.060 -0.0986 -0.5139  0.1779
 3422TIP3    H110272   4.398   2.637   4.026 -1.4783 -1.1296 -0.2454
 3422TIP3    H210273   4.306   2.685   4.136 -0.1687  0.0530  0.3609
 3423TIP3   OH210274   2.146   1.165   1.327 -1.1313 -0.0638 -0.3805
 3423TIP3    H110275   2.167   1.196   1.239 -0.9040  0.7564 -0.0467
 3423TIP3    H210276   2.192   1.225   1.385  0.0807 -1.5847  0.2869
 3424TIP3   OH210277   5.153   1.514   2.822  0.2566  0.1592  0.3925
 3424TIP3    H110278   5.237   1.530   2.865  0.3224  1.3319 -0.1373
 3424TIP3    H210279   5.164   1.545   2.733 -0.7945  0.5040  0.3596
 3425TIP3   OH210280   1.044   1.852   0.294 -0.2314  0.2368  0.1050
 3425TIP3    H110281   0.997   1.933   0.317 -0.5004 -0.1750  1.0360
 3425TIP3    H210282   1.012   1.830   0.207  0.1928  1.3865 -0.3671
 3426TIP3   OH210283   4.866   1.455   1.695  0.0096 -0.3269 -0.2146
 3426TIP3    H110284   4.871   1.384   1.631  0.7744 -0.8504  0.4092
 3426TIP3    H210285   4.943   1.444   1.749 -1.5602 -1.0637  2.0175
 3427TIP3   OH210286   1.449   2.582   3.846 -0.1351 -0.7312  0.1520
 3427TIP3    H110287   1.506   2.509   3.820 -0.5315 -1.0862  0.2751
 3427TIP3    H210288   1.365   2.541   3.865 -0.2130 -0.3047  0.7447
 3428TIP3   OH210289   4.185   3.585   3.159 -0.3855 -0.3732 -0.0427
 3428TIP3    H110290   4.091   3.604   3.163 -0.2705  0.0421  0.8993
 3428TIP3    H210291   4.202   3.529   3.235 -0.3592 -2.8422 -1.7440
 3429TIP3   OH210292   0.935   4.084   3.908  0.1123  0.0546 -0.4060
 3429TIP3    H110293   0.878   4.021   3.953 -0.8517  1.5582  0.5471
 3429TIP3    H210294   0.958   4.040   3.826 -2.0526 -0.8164 -0.6306
 3430TIP3   OH210295   1.741   5.387   3.387  0.0689 -0.0161  0.5140
 3430TIP3    H110296   1.676   5.318   3.403  0.0708 -0.0355  0.4374
 3430TIP3    H210297   1.692   5.454   3.339  0.5123 -0.7650 -1.0516
 3431TIP3   OH210298   4.275   4.316   2.707  0.2307  0.0742  0.2616
 3431TIP3    H110299   4.241   4.262   2.635  0.8316  0.0723 -0.0319
 3431TIP3    H210300   4.203   4.375   2.728 -0.4997 -0.9460  0.7046
 3432TIP3   OH210301   3.787   2.566   3.869  0.2040 -0.2439 -0.6530
 3432TIP3    H110302   3.744   2.486   3.899  0.1923 -0.7904 -2.0539
 3432TIP3    H210303   3.869   2.570   3.918 -0.0458 -0.8240 -0.1883
 3433TIP3   OH210304   4.865   1.579   1.353  0.3135  0.3130 -0.1040
 3433TIP3    H110305   4.878   1.493   1.395  0.8720  0.7404  0.6332
 3433TIP3    H210306   4.804   1.625   1.411  0.8142  0.7830  0.0570
 3434TIP3   OH210307   0.392   0.304   3.209  0.0232 -0.7532 -0.4074
 3434TIP3    H110308   0.322   0.313   3.145 -1.0806  0.0630  0.8524
 3434TIP3    H210309   0.363   0.357   3.284  1.4385 -1.3506  0.6160
 3435TIP3   OH210310   1.401   4.621   2.170 -0.0019  0.5050 -0.2746
 3435TIP3    H110311   1.324   4.590   2.218 -0.3177  2.3896  0.5248
 3435TIP3    H210312   1.460   4.545   2.167 -0.4993 -0.0298  2.0129
 3436TIP3   OH210313   1.267   5.219   4.030 -0.1246  0.0317 -0.5182
 3436TIP3    H110314   1.334   5.242   4.094 -0.9430 -0.8879  0.7190
 3436TIP3    H210315   1.214   5.298   4.020 -1.0917 -0.3269  1.3725
 3437TIP3   OH210316   4.581   3.211   4.317 -0.2906  0.3989  0.2522
 3437TIP3    H110317   4.632   3.256   4.250 -0.8851 -0.3953 -0.7538
 3437TIP3    H210318   4.646   3.163   4.369  0.1714  1.0266  0.2743
 3438TIP3   OH210319   4.901   1.883   2.104 -0.4606 -0.0739  0.2128
 3438TIP3    H110320   4.863   1.963   2.139 -0.6724  0.9068 -2.0849
 3438TIP3    H210321   4.847   1.813   2.139 -1.6964  0.9762  0.4733
 3439TIP3   OH210322   3.286   3.966   3.858  0.0516 -0.4760 -0.3371
 3439TIP3    H110323   3.335   3.914   3.921  1.4934  0.6308 -0.4996
 3439TIP3    H210324   3.227   4.020   3.912  2.9306  2.2215  0.4064
 3440TIP3   OH210325   3.795   2.631   3.379 -0.1305 -0.2432  0.0614
 3440TIP3    H110326   3.756   2.650   3.464 -0.6847  0.2428 -0.2958
 3440TIP3    H210327   3.828   2.716   3.348  0.9376 -0.5879  0.2198
 3441TIP3   OH210328   2.314   2.626   0.678 -0.0148 -0.1743 -0.3686
 3441TIP3    H110329   2.402   2.601   0.649  0.6697  0.6445  0.9365
 3441TIP3    H210330   2.290   2.699   0.621  0.8781  0.7183  0.3566
 3442TIP3   OH210331   6.191   0.113   4.367 -0.0473 -0.2422  0.4705
 3442TIP3    H110332   6.224   0.141   4.452  1.3645 -0.0368 -0.1250
 3442TIP3    H210333   6.156   0.025   4.382 -0.2526 -0.0211  1.3490
 3443TIP3   OH210334   3.029   1.509   3.278  0.4620  0.4416 -0.0267
 3443TIP3    H110335   3.120   1.541   3.278  1.2591 -1.6186 -0.9410
 3443TIP3    H210336   2.994   1.538   3.194  0.7471  0.0954 -0.2727
 3444TIP3   OH210337   3.111   4.331   4.821  0.1691 -0.5789  0.4105
 3444TIP3    H110338   3.166   4.330   4.743 -1.4300 -1.2769 -0.7828
 3444TIP3    H210339   3.150   4.398   4.877  1.9413 -0.7435 -0.5416
 3445TIP3   OH210340   3.194   2.500   0.037 -0.3625 -0.2370 -0.1392
 3445TIP3    H110341   3.164   2.544  -0.043  1.2352 -0.2757 -0.7825
 3445TIP3    H210342   3.128   2.432   0.052  0.7328 -2.1993 -3.1376
 3446TIP3   OH210343   1.159   2.525   2.732 -0.3405 -0.7702 -0.0047
 3446TIP3    H110344   1.143   2.466   2.806  2.5185 -2.4733 -0.6106
 3446TIP3    H210345   1.231   2.581   2.762  0.1852 -0.8315 -1.1127
 3447TIP3   OH210346   0.878   1.158   1.418  0.1863 -0.0148  0.3864
 3447TIP3    H110347   0.850   1.164   1.326 -0.5483 -1.5100  0.4915
 3447TIP3    H210348   0.970   1.131   1.413  0.1874  0.0343  0.0990
 3448TIP3   OH210349   3.598   3.007   5.126  0.1823  0.3573 -0.6863
 3448TIP3    H110350   3.674   3.049   5.086  0.5195 -1.2014 -1.7645
 3448TIP3    H210351   3.547   3.079   5.162  1.8259  1.4993 -0.5205
 3449TIP3   OH210352   5.248   2.204   0.083 -0.2419 -0.0071  0.1562
 3449TIP3    H110353   5.293   2.224   0.166  0.7516 -1.4170 -0.0125
 3449TIP3    H210354   5.256   2.284   0.032 -2.1800  1.4508  1.9248
 3450TIP3   OH210355   0.172   3.021   0.656 -0.1015 -0.4185 -0.0896
 3450TIP3    H110356   0.203   3.014   0.566  0.4032  1.0238 -0.0614
 3450TIP3    H210357   0.218   3.097   0.691  0.1147 -1.2589  1.5585
 3451TIP3   OH210358   1.916   1.162   0.407 -0.1551 -0.5353  0.1121
 3451TIP3    H110359   2.011   1.164   0.395 -0.2416  1.2906 -0.6294
 3451TIP3    H210360   1.885   1.098   0.343  0.5224 -0.5851 -0.1759
 3452TIP3   OH210361   3.655   5.143   3.281 -0.4552  0.0564 -0.7370
 3452TIP3    H110362   3.592   5.213   3.299 -0.3207 -0.0556  0.2396
 3452TIP3    H210363   3.602   5.063   3.281 -0.2307 -0.1346  0.9193
 3453TIP3   OH210364   5.641   2.571   1.785  0.9254  0.0115 -0.4405
 3453TIP3    H110365   5.692   2.644   1.820  0.0588  1.4867 -2.0581
 3453TIP3    H210366   5.561   2.612   1.753  0.1938 -1.7441 -0.9473
 3454TIP3   OH210367   2.769   3.900   3.625 -0.1392 -0.4735 -0.2992
 3454TIP3    H110368   2.744   3.904   3.717  1.9288  0.5606  0.2797
 3454TIP3    H210369   2.830   3.827   3.620  1.7122  0.9896 -0.2582
 3455TIP3   OH210370   4.509   5.727   1.686 -0.0705 -0.4654 -0.0523
 3455TIP3    H110371   4.563   5.805   1.699  1.3249 -0.9029 -2.5251
 3455TIP3    H210372   4.426   5.761   1.653  0.0265  0.0423  0.2171
 3456TIP3   OH210373   0.476   4.555   2.375 -0.8481  0.1240 -0.5840
 3456TIP3    H110374   0.552   4.497   2.369  1.9235  3.0076  2.3379
 3456TIP3    H210375   0.491   4.621   2.306 -0.5399  0.8193  0.1347
 3457TIP3   OH210376   1.636   5.124   1.294  0.4094 -0.1121  0.5270
 3457TIP3    H110377   1.648   5.072   1.215  0.6933  0.6922  0.0318
 3457TIP3    H210378   1.608   5.210   1.262 -3.4304 -0.8277  1.4225
 3458TIP3   OH210379   6.249   5.233   2.330  0.7229  0.0493 -0.0054
 3458TIP3    H110380   6.265   5.282   2.410  1.6306 -0.7312  0.3073
 3458TIP3    H210381   6.334   5.235   2.284  0.7682 -1.1789 -0.0008
 3459TIP3   OH210382   3.139   5.953   2.465 -0.4547  0.8497  1.0125
 3459TIP3    H110383   3.080   5.993   2.401 -1.3290 -2.3886 -0.3765
 3459TIP3    H210384   3.113   5.992   2.549 -2.4226  1.8357  0.0142
 3460TIP3   OH210385   4.024   1.017   0.496  0.3918  0.6951  0.0967
 3460TIP3    H110386   3.983   0.998   0.581  1.2135  0.8407  0.5459
 3460TIP3    H210387   4.106   1.061   0.519  2.0065 -1.7070 -0.6186
 3461TIP3   OH210388   4.258   0.667   4.858  0.2788  0.0216 -0.7103
 3461TIP3    H110389   4.324   0.619   4.908  0.0356  1.6339  1.3008
 3461TIP3    H210390   4.175   0.637   4.894  0.1280  3.0585  1.9651
 3462TIP3   OH210391   2.192   5.534   0.992  0.0986  0.1983  0.3421
 3462TIP3    H110392   2.208   5.614   0.941 -1.4651 -0.2720 -1.0094
 3462TIP3    H210393   2.150   5.565   1.072  1.7781  0.8937  0.9810
 3463TIP3   OH210394   0.349   3.207   0.801 -0.5187  0.0441 -0.1964
 3463TIP3    H110395   0.334   3.258   0.880 -0.3188 -1.5220  0.9029
 3463TIP3    H210396   0.444   3.203   0.792 -0.5422  0.3782 -0.6397
 3464TIP3   OH210397   1.527   0.318   2.217  0.0477  0.5356 -0.3355
 3464TIP3    H110398   1.539   0.393   2.276 -1.1144 -0.4120  1.1789
 3464TIP3    H210399   1.555   0.243   2.269 -1.9809 -0.4485 -0.5960
 3465TIP3   OH210400   3.988   2.667   2.566  0.1526 -0.4907 -0.4660
 3465TIP3    H110401   3.990   2.594   2.628 -1.4782  0.1078  0.3527
 3465TIP3    H210402   4.010   2.627   2.481  1.7574 -1.4391  0.3431
 3466TIP3   OH210403   3.966   5.351   1.112 -0.1559  0.1470 -0.1982
 3466TIP3    H110404   4.048   5.401   1.111 -0.4662  0.6535 -0.9175
 3466TIP3    H210405   3.951   5.328   1.021 -1.3742  0.9904 -0.2412
 3467TIP3   OH210406   2.355   0.026   2.866  0.3410  0.1831  0.9664
 3467TIP3    H110407   2.407   0.022   2.785 -1.0960  0.1434 -0.0107
 3467TIP3    H210408   2.387   0.103   2.912  1.2213  0.1839  0.3804
 3468TIP3   OH210409   4.927   1.410   2.931 -0.0849  0.4448  0.5250
 3468TIP3    H110410   4.996   1.469   2.900  1.2794  0.2258  2.8588
 3468TIP3    H210411   4.946   1.326   2.889 -0.4464  0.9802 -0.7520
 3469TIP3   OH210412   6.129   0.590   2.927 -0.9035  0.0289 -0.0263
 3469TIP3    H110413   6.064   0.555   2.988  1.1939 -0.4643  2.0870
 3469TIP3    H210414   6.197   0.523   2.924  1.2444  2.0438  0.8082
 3470TIP3   OH210415   0.535   1.496   3.696 -0.8149 -0.2054  0.6387
 3470TIP3    H110416   0.451   1.521   3.659 -0.2701 -1.5671 -1.6905
 3470TIP3    H210417   0.597   1.502   3.624  0.5831 -1.7452  1.6205
 3471TIP3   OH210418   4.308   2.679   2.081 -1.2079 -0.0339  0.2798
 3471TIP3    H110419   4.271   2.612   2.024  0.4393 -1.4563  0.7992
 3471TIP3    H210420   4.329   2.752   2.022 -0.6411 -0.9975 -0.7410
 3472TIP3   OH210421   1.122   5.752   2.979  0.3596 -0.1964 -0.0005
 3472TIP3    H110422   1.049   5.787   3.030  0.0688 -2.2702  1.1297
 3472TIP3    H210423   1.193   5.814   2.993 -0.0984 -0.0388  1.9691
 3473TIP3   OH210424   1.467   3.600   3.052 -0.1414  0.2953  0.3301
 3473TIP3    H110425   1.467   3.665   2.982 -0.2623 -0.5723 -0.4996
 3473TIP3    H210426   1.528   3.635   3.117  1.3689  0.2870 -1.0189
 3474TIP3   OH210427   5.968   0.280   2.772  0.3410  0.2434 -0.2973
 3474TIP3    H110428   5.956   0.186   2.759  0.6991 -0.0324  1.1922
 3474TIP3    H210429   5.880   0.314   2.784  0.0659  0.3828 -2.3642
 3475TIP3   OH210430   2.415   2.790   5.032 -0.0734  0.3882 -0.4571
 3475TIP3    H110431   2.471   2.828   4.965 -0.2387  0.0232 -0.8078
 3475TIP3    H210432   2.474   2.737   5.086  0.3726  2.0337  0.7501
 3476TIP3   OH210433   3.752   2.939   1.574  0.3694 -0.1610 -0.4759
 3476TIP3    H110434   3.718   2.852   1.552 -2.0685  0.7927 -0.7387
 3476TIP3    H210435   3.730   2.994   1.499  2.4006  0.6236 -0.5742
 3477TIP3   OH210436   5.486   2.985   3.382  0.2267 -0.2601  0.2508
 3477TIP3    H110437   5.508   2.928   3.455 -0.7560 -1.1182 -0.1021
 3477TIP3    H210438   5.545   3.060   3.391  0.1358 -0.3675  1.8796
 3478TIP3   OH210439   3.829   0.094   4.201 -0.0161  0.5593 -0.0077
 3478TIP3    H110440   3.774   0.140   4.138 -0.3014 -1.0158 -0.9587
 3478TIP3    H210441   3.769   0.033   4.245  0.4175  0.8246  0.9642
 3479TIP3   OH210442   3.553   4.189   2.555 -0.3171 -0.1935  0.2595
 3479TIP3    H110443   3.533   4.096   2.542  1.2025 -0.7197  1.3679
 3479TIP3    H210444   3.630   4.205   2.500  1.2506 -0.4032  2.2788
 3480TIP3   OH210445   4.895   0.662   3.525  0.0515 -0.2710 -0.8093
 3480TIP3    H110446   4.938   0.617   3.598  1.5286  0.4142 -1.2251
 3480TIP3    H210447   4.838   0.596   3.486  0.4642 -1.1131 -0.0170
 3481TIP3   OH210448   1.730   5.559   4.319  0.2225  0.0817 -0.4232
 3481TIP3    H110449   1.635   5.569   4.315  0.0927 -0.9850 -0.3549
 3481TIP3    H210450   1.748   5.539   4.411  0.7171  1.9065 -0.0755
 3482TIP3   OH210451   4.014  -0.010   2.599 -0.5335 -0.0120 -0.4852
 3482TIP3    H110452   3.955   0.061   2.625 -2.2916 -1.4699 -0.3430
 3482TIP3    H210453   3.992  -0.026   2.507  0.4463  0.1702 -0.7607
 3483TIP3   OH210454   4.894   2.540   0.936  0.8436 -0.3061 -0.4816
 3483TIP3    H110455   4.987   2.520   0.946  0.3280 -2.1427  1.3560
 3483TIP3    H210456   4.879   2.614   0.994  0.9278 -0.8396  0.2323
 3484TIP3   OH210457   0.886   2.309   2.700  0.1276 -0.3419  0.5427
 3484TIP3    H110458   0.881   2.378   2.635 -0.7625 -0.5854  0.3480
 3484TIP3    H210459   0.977   2.279   2.696  0.2302  0.0507 -0.1578
 3485TIP3   OH210460   0.263   0.157   2.343  0.3742  0.1115  0.4728
 3485TIP3    H110461   0.239   0.067   2.321  0.1883  0.5375 -1.2373
 3485TIP3    H210462   0.350   0.150   2.382  0.6023 -0.7694 -0.1618
 3486TIP3   OH210463   0.161   3.948   3.596  0.2900  0.1580  0.2938
 3486TIP3    H110464   0.167   4.023   3.656 -0.0618  1.9306 -1.7687
 3486TIP3    H210465   0.249   3.937   3.561  0.1061  0.3162 -0.2226
 3487TIP3   OH210466   4.600   4.943   0.205  0.0777  0.3686  0.4806
 3487TIP3    H110467   4.592   4.855   0.241 -0.8203  0.5331  0.7016
 3487TIP3    H210468   4.603   5.001   0.282 -1.2561  0.6719  0.3339
 3488TIP3   OH210469   3.604   1.110   4.611  0.1161  0.4152  0.5036
 3488TIP3    H110470   3.530   1.102   4.671 -0.0653  0.4120  0.2811
 3488TIP3    H210471   3.656   1.031   4.626 -1.0169 -0.6322 -0.8075
 3489TIP3   OH210472   2.766   3.228   2.071 -0.2609  0.0824 -0.0400
 3489TIP3    H110473   2.855   3.250   2.098  0.0345 -0.8745 -0.1763
 3489TIP3    H210474   2.716   3.223   2.153 -0.8159  3.0602 -0.1104
 3490TIP3   OH210475   3.760   4.214   4.763 -0.4472 -0.3875  0.3035
 3490TIP3    H110476   3.813   4.135   4.781 -1.9436 -1.5756 -0.2921
 3490TIP3    H210477   3.749   4.215   4.668 -0.5088  0.5097  0.3133
 3491TIP3   OH210478   4.548   0.750   5.070 -0.3956  0.2177 -0.0441
 3491TIP3    H110479   4.618   0.717   5.127  1.3174  2.3020 -0.7944
 3491TIP3    H210480   4.529   0.838   5.105 -0.1549  1.0530 -1.9086
 3492TIP3   OH210481   4.627   4.392   5.141 -0.2220  0.3370  0.6142
 3492TIP3    H110482   4.604   4.321   5.082 -1.0803 -0.8115  2.2576
 3492TIP3    H210483   4.721   4.382   5.155 -0.1701  0.1040  0.1385
 3493TIP3   OH210484   5.454   5.942   0.206  0.8570  0.9074  0.4850
 3493TIP3    H110485   5.482   5.864   0.158 -0.8724 -0.7569  2.0611
 3493TIP3    H210486   5.403   5.909   0.279 -1.6754  3.5939  0.1136
 3494TIP3   OH210487   4.223   3.276   2.182 -0.2283  0.0639 -0.3338
 3494TIP3    H110488   4.318   3.266   2.185 -0.2246 -0.0396 -0.8669
 3494TIP3    H210489   4.189   3.186   2.183 -0.2615  0.0272 -2.2994
 3495TIP3   OH210490   0.677   2.525   1.019 -0.3962 -0.2854 -0.3354
 3495TIP3    H110491   0.665   2.478   1.102  0.7063  1.2259  0.7154
 3495TIP3    H210492   0.671   2.617   1.042  3.2300  0.3286 -1.2810
 3496TIP3   OH210493   4.330   3.590   0.765  0.3896  0.0182  0.0276
 3496TIP3    H110494   4.317   3.636   0.682  1.2041 -0.3219 -0.3048
 3496TIP3    H210495   4.324   3.497   0.742  0.4556 -0.0760  0.3807
 3497TIP3   OH210496   3.529   4.818   4.194  0.4603  0.1064 -0.2444
 3497TIP3    H110497   3.618   4.789   4.176  0.6565  0.2132  0.5051
 3497TIP3    H210498   3.539   4.907   4.228  0.2985 -0.6564  1.9870
 3498TIP3   OH210499   3.484   4.278   1.005  0.2997 -0.2935 -0.1568
 3498TIP3    H110500   3.466   4.372   1.012  0.9049 -0.1723 -0.1751
 3498TIP3    H210501   3.416   4.237   1.059 -0.4262  0.1029 -0.7411
 3499TIP3   OH210502   1.879   0.892   3.537 -0.6724 -0.3629 -0.5478
 3499TIP3    H110503   1.919   0.938   3.463 -1.1853  1.5868  0.3036
 3499TIP3    H210504   1.857   0.806   3.503 -0.2676  0.2415 -2.4725
 3500TIP3   OH210505   0.573   1.864   4.864  0.2754  0.9214  0.4367
 3500TIP3    H110506   0.645   1.876   4.927  1.1298 -0.5323 -0.2056
 3500TIP3    H210507   0.572   1.946   4.814  0.8144  1.3620  1.1157
 3501TIP3   OH210508   4.866   0.476   2.355  0.1148  0.2493 -0.1388
 3501TIP3    H110509   4.928   0.423   2.404 -2.3210 -3.4452 -0.6633
 3501TIP3    H210510   4.825   0.531   2.421 -0.0017 -1.3994  1.2390
 3502TIP3   OH210511   3.442   0.370   1.177  0.0212  0.4132  0.2472
 3502TIP3    H110512   3.475   0.390   1.265 -1.1382 -0.8889  1.0033
 3502TIP3    H210513   3.518   0.334   1.131  0.8047  1.6916  0.4741
 3503TIP3   OH210514   2.408   4.043   3.844  0.1793  0.0116  0.2456
 3503TIP3    H110515   2.414   4.098   3.766  0.1994 -0.7624 -0.3140
 3503TIP3    H210516   2.322   4.063   3.880 -1.0228 -1.5781 -1.5227
 3504TIP3   OH210517   1.784   1.595   4.023 -0.4106 -0.4962 -0.0764
 3504TIP3    H110518   1.778   1.561   3.934 -0.2970  1.1787 -0.7452
 3504TIP3    H210519   1.834   1.676   4.015 -0.9024 -0.0110  1.4234
 3505TIP3   OH210520   4.089   3.166   1.460  0.0835 -0.4302 -0.1702
 3505TIP3    H110521   4.015   3.207   1.504 -1.1013 -1.5476 -1.0453
 3505TIP3    H210522   4.051   3.127   1.381  1.9233  0.4998 -1.5711
 3506TIP3   OH210523   1.406   5.459   3.566 -0.0751  0.3094  0.2951
 3506TIP3    H110524   1.424   5.369   3.539 -0.8333 -0.0676  0.9914
 3506TIP3    H210525   1.429   5.460   3.659  0.7789  1.0856  0.0831
 3507TIP3   OH210526   0.222   5.090   1.942 -0.4174  0.3776 -1.1363
 3507TIP3    H110527   0.157   5.026   1.913 -1.2988  1.4958 -1.7317
 3507TIP3    H210528   0.305   5.058   1.905 -0.4898 -1.3676  0.1011
 3508TIP3   OH210529   2.968   5.551   2.867  0.3399 -0.6066  0.1464
 3508TIP3    H110530   3.040   5.568   2.927  1.6612 -1.8562 -0.9997
 3508TIP3    H210531   3.005   5.491   2.802 -0.8046  1.1425 -2.2844
 3509TIP3   OH210532   0.315   5.771   3.552 -0.3004  0.3138 -0.3933
 3509TIP3    H110533   0.313   5.676   3.569  1.2333  0.0066 -1.7098
 3509TIP3    H210534   0.304   5.810   3.639  0.2444 -1.0906  0.3588
 3510TIP3   OH210535   2.598   3.802   0.702  0.0295  0.1988  0.4369
 3510TIP3    H110536   2.575   3.886   0.741 -1.2457 -0.3412  0.9140
 3510TIP3    H210537   2.573   3.810   0.610  0.8827  0.6817  0.2366
 3511TIP3   OH210538   2.365   5.742   4.300  0.2936  0.1546 -0.0672
 3511TIP3    H110539   2.401   5.686   4.369  0.4930 -0.2581 -0.5011
 3511TIP3    H210540   2.380   5.831   4.332  2.3381  0.0267 -0.5211
 3512TIP3   OH210541   5.130   1.025   4.004  0.1894  0.2379 -0.6917
 3512TIP3    H110542   5.222   0.997   4.005 -0.2810 -1.3855 -0.5292
 3512TIP3    H210543   5.135   1.120   4.004  1.8775  0.1912 -0.5721
 3513TIP3   OH210544   5.694   3.224   3.338  0.1083 -0.2579  0.4848
 3513TIP3    H110545   5.625   3.265   3.287  0.0083 -0.9261  0.0718
 3513TIP3    H210546   5.768   3.285   3.333 -0.1080 -0.0295  0.0660
 3514TIP3   OH210547   4.457   4.767   0.374 -0.3329 -0.2610 -1.3800
 3514TIP3    H110548   4.476   4.694   0.433 -1.5904  1.6406  1.5629
 3514TIP3    H210549   4.404   4.728   0.305 -1.4870 -2.0520  0.4178
 3515TIP3   OH210550   5.121   2.353   1.776  0.0876  0.6230 -0.4766
 3515TIP3    H110551   5.135   2.443   1.803  0.7747  1.1010 -2.2309
 3515TIP3    H210552   5.187   2.303   1.825  0.3161  1.2114 -0.1737
 3516TIP3   OH210553   5.828   0.536   3.788  0.3835 -0.4910 -0.1298
 3516TIP3    H110554   5.922   0.517   3.777  0.3736 -1.4163  1.1829
 3516TIP3    H210555   5.785   0.451   3.780 -0.4030 -0.0332 -1.0011
 3517TIP3   OH210556   1.799   5.428   1.122 -0.0440 -0.2418  0.1583
 3517TIP3    H110557   1.863   5.468   1.182  0.6065 -0.8922 -0.0881
 3517TIP3    H210558   1.824   5.336   1.119  0.0594 -0.1897 -1.2669
 3518TIP3   OH210559   2.409   0.237   1.699  0.3951 -0.2907  0.0797
 3518TIP3    H110560   2.430   0.229   1.606  0.5918  0.4277  0.0506
 3518TIP3    H210561   2.332   0.294   1.701  0.3584 -0.3497  0.3561
 3519TIP3   OH210562   3.145   5.359   3.809  0.1164  0.0682 -0.0131
 3519TIP3    H110563   3.203   5.304   3.756 -0.5056 -1.3398  0.7007
 3519TIP3    H210564   3.128   5.307   3.888 -1.7919  0.5908 -0.0233
 3520TIP3   OH210565   5.026   5.801   0.913  0.5196  0.4436  0.5347
 3520TIP3    H110566   5.069   5.758   0.988  0.0329 -0.4196  0.3344
 3520TIP3    H210567   5.083   5.781   0.839 -0.8188 -1.8363  0.0165
 3521TIP3   OH210568   0.199   1.966   3.553  0.1998  0.1794 -0.0539
 3521TIP3    H110569   0.162   1.966   3.642 -0.4319  0.5847 -0.3068
 3521TIP3    H210570   0.205   2.059   3.530  3.8575  0.3216  0.9470
 3522TIP3   OH210571   5.627   5.978   3.343  0.3341  0.3748 -0.2139
 3522TIP3    H110572   5.616   5.998   3.250 -1.3681 -0.8225 -0.3120
 3522TIP3    H210573   5.653   5.886   3.344  0.9251  0.5439  0.4790
 3523TIP3   OH210574   1.814   5.218   2.012  0.1420  0.1858  0.1176
 3523TIP3    H110575   1.806   5.153   2.082  0.7901 -0.0043  0.0205
 3523TIP3    H210576   1.904   5.250   2.020  0.6064 -0.6748 -1.3691
 3524TIP3   OH210577   5.558   4.306   4.449 -0.0577  0.2192  0.1746
 3524TIP3    H110578   5.464   4.288   4.442 -0.2626  0.6087  1.6757
 3524TIP3    H210579   5.600   4.224   4.422 -0.8022  0.1185 -0.7487
 3525TIP3   OH210580   5.393   1.147   2.378  0.8768  0.1441  0.4292
 3525TIP3    H110581   5.459   1.120   2.442 -0.4865  0.8646  2.2170
 3525TIP3    H210582   5.310   1.129   2.420 -0.0952  2.7286 -0.2040
 3526TIP3   OH210583   1.356   2.225   5.162  0.2695  0.5155  0.1084
 3526TIP3    H110584   1.415   2.191   5.229  0.7922 -0.4316 -0.7905
 3526TIP3    H210585   1.413   2.274   5.103  0.0609  0.1630 -0.3952
 3527TIP3   OH210586   3.505   0.905   2.895  0.2771 -1.0390 -0.6127
 3527TIP3    H110587   3.527   0.849   2.969 -1.9256 -1.2720 -0.0593
 3527TIP3    H210588   3.410   0.896   2.885  0.1938  0.7223 -2.0523
 3528TIP3   OH210589   5.784   4.062   1.134 -0.2853 -0.6249 -0.2827
 3528TIP3    H110590   5.800   4.131   1.069 -0.7213 -0.9095 -0.7001
 3528TIP3    H210591   5.867   4.014   1.140 -0.4489 -1.0388 -1.1616
 3529TIP3   OH210592   5.090   2.143   3.705  0.2108 -0.4415  0.1518
 3529TIP3    H110593   5.024   2.126   3.638 -0.3038  0.3320  0.4515
 3529TIP3    H210594   5.136   2.060   3.715 -0.8325 -1.0434  0.0751
 3530TIP3   OH210595   0.842   4.624   0.817 -0.1026  0.1757  0.5116
 3530TIP3    H110596   0.906   4.601   0.885  0.0042  0.4000  0.4872
 3530TIP3    H210597   0.894   4.664   0.748 -0.2564  0.2567  0.4424
 3531TIP3   OH210598   1.877   4.749   5.025  0.0637  0.1037  0.0090
 3531TIP3    H110599   1.866   4.802   4.946  0.4470 -1.0011 -0.8159
 3531TIP3    H210600   1.972   4.737   5.032 -0.0814 -2.4593 -1.2404
 3532TIP3   OH210601   0.783   1.688   1.566 -0.3797  0.1691 -0.6982
 3532TIP3    H110602   0.868   1.671   1.605 -0.1982  0.9990 -0.7160
 3532TIP3    H210603   0.728   1.614   1.594 -0.2320  0.6796  1.0561
 3533TIP3   OH210604   1.206   4.195   1.705 -0.1392  0.3994 -0.3809
 3533TIP3    H110605   1.120   4.192   1.747 -1.2274 -1.7007 -2.5274
 3533TIP3    H210606   1.195   4.253   1.630  0.3015  0.0360 -0.7312
 3534TIP3   OH210607   2.550   0.466   3.263  0.5983  0.5172 -0.2445
 3534TIP3    H110608   2.459   0.445   3.283  0.5857  1.2134  0.4573
 3534TIP3    H210609   2.593   0.474   3.348  1.3524  0.0451 -0.5720
 3535TIP3   OH210610   6.267   2.490   3.242  0.2940  0.4199 -0.2601
 3535TIP3    H110611   6.345   2.530   3.203  1.6130 -1.2654  0.5632
 3535TIP3    H210612   6.299   2.445   3.319 -1.3958 -0.8932 -0.2764
 3536TIP3   OH210613   0.663   2.118   4.833  0.1395  0.3260 -0.5115
 3536TIP3    H110614   0.623   2.186   4.888 -0.6622 -0.2539 -0.3572
 3536TIP3    H210615   0.752   2.109   4.867 -0.5481 -0.5170  1.1994
 3537TIP3   OH210616   6.081   2.980   1.915 -0.7496  0.3084  0.7607
 3537TIP3    H110617   6.025   3.029   1.856 -1.7604 -0.9385  0.6299
 3537TIP3    H210618   6.110   2.904   1.864  1.7340  1.2958  0.5760
 3538TIP3   OH210619   1.955   5.331   3.818  0.5218  0.1942 -0.4830
 3538TIP3    H110620   1.973   5.288   3.734  0.0221  0.9489 -0.9891
 3538TIP3    H210621   1.891   5.399   3.797  0.1878  0.2182  0.5634
 3539TIP3   OH210622   5.307   3.505   1.599  0.6307  0.0181  0.2553
 3539TIP3    H110623   5.287   3.558   1.677  0.3102 -0.9225  0.8376
 3539TIP3    H210624   5.401   3.489   1.605  0.9501  1.4259 -0.5294
 3540TIP3   OH210625   1.904   5.444   2.306  0.0403  0.1575 -0.1426
 3540TIP3    H110626   1.932   5.368   2.357 -2.1082 -0.3599  0.3790
 3540TIP3    H210627   1.883   5.510   2.372  1.7115  1.1885 -0.5850
 3541TIP3   OH210628   2.022   3.098   1.921 -0.3147 -1.0846 -0.4815
 3541TIP3    H110629   2.065   3.012   1.919 -0.0174 -1.0400  1.8520
 3541TIP3    H210630   1.944   3.084   1.974 -0.5897 -0.0290 -0.6024
 3542TIP3   OH210631   0.572   4.460   1.568  0.0885  0.4695 -0.3881
 3542TIP3    H110632   0.529   4.432   1.487  0.8191  1.5563 -1.1684
 3542TIP3    H210633   0.641   4.395   1.582 -1.5871 -1.1791  0.7678
 3543TIP3   OH210634   1.811   5.648   2.536  0.2082  0.2053  0.6278
 3543TIP3    H110635   1.816   5.607   2.622 -0.1104 -1.3872 -0.0664
 3543TIP3    H210636   1.719   5.637   2.510  0.0881  1.4904  0.4555
 3544TIP3   OH210637   4.478   0.698   0.055 -0.0334  0.0836  0.4695
 3544TIP3    H110638   4.511   0.613   0.083  0.5939 -0.2495 -1.2080
 3544TIP3    H210639   4.555   0.747   0.026 -0.5764  0.6277 -0.1012
 3545TIP3   OH210640   2.340   0.256   2.370 -0.1661  0.1918  0.2625
 3545TIP3    H110641   2.320   0.219   2.284  1.4319  0.8141 -0.4222
 3545TIP3    H210642   2.282   0.210   2.431 -2.0176  0.4159 -1.2567
 3546TIP3   OH210643   2.415   3.123   4.087 -0.0585 -0.5668  0.4104
 3546TIP3    H110644   2.392   3.179   4.161 -0.2722 -0.1411  0.0270
 3546TIP3    H210645   2.394   3.175   4.010  1.0905 -0.6220  0.0461
 3547TIP3   OH210646   0.607   3.656   0.441 -0.3115  0.5787 -0.1239
 3547TIP3    H110647   0.587   3.564   0.424  0.5220  0.2934  0.3695
 3547TIP3    H210648   0.539   3.684   0.502 -0.6582  0.3303 -0.3949
 3548TIP3   OH210649   6.055   3.190   4.950  0.0162 -0.0666 -0.4679
 3548TIP3    H110650   5.981   3.137   4.919 -0.2249  0.9970 -1.8041
 3548TIP3    H210651   6.110   3.128   4.998 -1.2349 -1.0907 -0.3053
 3549TIP3   OH210652   0.585   1.509   2.163  0.0234 -1.0076  0.0454
 3549TIP3    H110653   0.555   1.428   2.205 -0.3685  0.1756  2.2024
 3549TIP3    H210654   0.505   1.552   2.134 -0.0585 -0.0786  1.5325
 3550TIP3   OH210655   5.445   5.778   3.084 -0.4851  0.3650 -0.1069
 3550TIP3    H110656   5.504   5.703   3.097  0.6228  1.2621  0.1234
 3550TIP3    H210657   5.483   5.827   3.012 -1.1243  0.7948 -0.1597
 3551TIP3   OH210658   2.786   4.402   3.100 -0.1928  0.4603 -0.0948
 3551TIP3    H110659   2.767   4.308   3.100 -0.9092  0.5584  2.0524
 3551TIP3    H210660   2.726   4.439   3.035 -0.4399 -0.4541 -0.4042
 3552TIP3   OH210661   1.856   5.604   3.033 -0.3331  0.0669  0.2037
 3552TIP3    H110662   1.827   5.672   2.972 -0.4127 -0.1462  0.0026
 3552TIP3    H210663   1.866   5.650   3.117 -0.0198  0.4061 -0.0154
 3553TIP3   OH210664   5.986   5.812   1.426 -0.1013 -0.7942 -0.3774
 3553TIP3    H110665   6.032   5.750   1.482 -0.8637 -1.4190 -0.4218
 3553TIP3    H210666   6.049   5.883   1.411 -0.2556  0.0147  2.2503
 3554TIP3   OH210667   1.825   0.872   4.335 -0.5582 -0.5306 -0.2318
 3554TIP3    H110668   1.750   0.887   4.393  0.2450  0.7872  0.5189
 3554TIP3    H210669   1.896   0.922   4.375 -0.1623  1.0859 -2.7274
 3555TIP3   OH210670   2.803   4.908   5.033 -0.2597 -0.5255 -0.3396
 3555TIP3    H110671   2.856   4.977   4.992  0.5630  0.4546  2.2123
 3555TIP3    H210672   2.713   4.937   5.019  0.0450  2.2427  2.2608
 3556TIP3   OH210673   2.442   2.484   0.371  0.6704 -0.0436  0.0260
 3556TIP3    H110674   2.528   2.508   0.407  1.0429 -1.3030  0.0444
 3556TIP3    H210675   2.441   2.388   0.374  0.2174 -0.1759 -2.1433
 3557TIP3   OH210676   2.697   1.711   4.687  0.2086  0.4599  0.2245
 3557TIP3    H110677   2.679   1.739   4.597 -1.1407 -0.9971  0.0003
 3557TIP3    H210678   2.780   1.664   4.682  0.4635  0.9350 -0.1235
 3558TIP3   OH210679   3.201   2.080   0.669 -0.3292  0.7810 -0.1630
 3558TIP3    H110680   3.169   2.154   0.617  0.0033  1.6235  0.7959
 3558TIP3    H210681   3.140   2.074   0.742  1.6310  2.4805  1.7542
 3559TIP3   OH210682   6.346   3.607   2.870  0.3565 -0.4355  0.1412
 3559TIP3    H110683   6.280   3.666   2.905  1.1747  0.8107 -0.3570
 3559TIP3    H210684   6.333   3.610   2.775 -1.1488 -2.9504  0.1574
 3560TIP3   OH210685   5.920   2.599   1.980  0.1180 -0.2423 -0.9517
 3560TIP3    H110686   5.886   2.667   2.038 -0.2514 -0.3437 -1.0438
 3560TIP3    H210687   5.872   2.520   2.005 -0.6135 -0.1230 -1.9008
 3561TIP3   OH210688   5.403   0.309   3.160  0.5591 -0.6235 -0.2781
 3561TIP3    H110689   5.465   0.295   3.231  0.2275  4.8236  1.5519
 3561TIP3    H210690   5.458   0.330   3.084  1.0117  0.6835  0.3880
 3562TIP3   OH210691   1.384   3.299   1.526  0.1123 -0.1095  0.3265
 3562TIP3    H110692   1.354   3.296   1.617 -2.4974 -0.5292 -0.4700
 3562TIP3    H210693   1.343   3.222   1.485 -1.3515  1.7193 -1.8968
 3563TIP3   OH210694   1.292   3.836   4.957  0.4387  0.4465 -0.1652
 3563TIP3    H110695   1.319   3.754   4.916 -1.3702  0.0696 -0.7330
 3563TIP3    H210696   1.215   3.812   5.009 -0.1943  1.7930 -0.4488
 3564TIP3   OH210697   5.148   4.171   3.355 -0.7716  0.1816  0.5405
 3564TIP3    H110698   5.100   4.112   3.296 -1.6723  0.0583  1.3765
 3564TIP3    H210699   5.109   4.257   3.339 -0.5065  0.2808  0.4254
 3565TIP3   OH210700   2.176   2.910   5.114  0.4835  0.4996 -0.0265
 3565TIP3    H110701   2.251   2.852   5.098 -1.6219 -2.2422 -0.9331
 3565TIP3    H210702   2.178   2.971   5.040  1.4802  0.0566 -0.3927
 3566TIP3   OH210703   1.718   2.991   3.917  0.1825  0.0865  0.0402
 3566TIP3    H110704   1.735   2.981   4.011  1.1934 -1.0216 -0.2400
 3566TIP3    H210705   1.706   2.902   3.885  0.5928  0.3944 -1.0169
 3567TIP3   OH210706   0.628   2.067   0.606  0.6270  0.8522 -0.7701
 3567TIP3    H110707   0.564   2.018   0.554 -0.7337  1.6902  0.0506
 3567TIP3    H210708   0.584   2.083   0.690  2.2261  0.7743  0.1179
 3568TIP3   OH210709   5.453   5.161   1.467 -0.1588 -0.1063 -0.0376
 3568TIP3    H110710   5.446   5.189   1.376 -0.0273  1.0819  0.3001
 3568TIP3    H210711   5.496   5.233   1.511 -0.5634 -0.5022  1.0473
 3569TIP3   OH210712   2.381   3.757   4.505 -0.8574 -0.0312  0.3042
 3569TIP3    H110713   2.474   3.745   4.526 -0.9266  0.8558  1.2038
 3569TIP3    H210714   2.347   3.808   4.578 -1.5520  1.5858 -1.0954
 3570TIP3   OH210715   4.867   1.821   2.458 -0.6825  0.6083  0.1262
 3570TIP3    H110716   4.876   1.767   2.380 -2.0183  0.9953 -0.3255
 3570TIP3    H210717   4.789   1.788   2.502 -0.6896  1.2321  0.6063
 3571TIP3   OH210718   5.646   3.302   4.875 -0.1216  0.3817  0.4211
 3571TIP3    H110719   5.559   3.264   4.863  1.4725 -2.8727 -2.2222
 3571TIP3    H210720   5.666   3.346   4.792  0.5536  1.6982  1.2350
 3572TIP3   OH210721   2.365   0.825   4.097  0.3917  0.1337  0.9355
 3572TIP3    H110722   2.409   0.904   4.128  1.0933  0.0587  0.1606
 3572TIP3    H210723   2.282   0.857   4.060  0.7554  0.5300  0.4562
 3573TIP3   OH210724   5.776   2.757   2.492  0.1289  0.3496  1.0393
 3573TIP3    H110725   5.695   2.752   2.542 -0.7532  0.8900 -0.2804
 3573TIP3    H210726   5.778   2.847   2.459 -0.3805 -0.4884 -1.5259
 3574TIP3   OH210727   3.246   0.853   4.934  0.1448  0.4529 -0.3051
 3574TIP3    H110728   3.255   0.758   4.940 -0.4095  0.2929 -1.4955
 3574TIP3    H210729   3.156   0.865   4.903 -0.9193  1.5210  2.8486
 3575TIP3   OH210730   0.259   1.822   0.077 -0.3471  0.6981  0.1464
 3575TIP3    H110731   0.176   1.774   0.073 -0.7922  1.5144 -0.6298
 3575TIP3    H210732   0.319   1.771   0.023  0.4041 -1.2218  2.5882
 3576TIP3   OH210733   4.912   2.487   0.142  0.1613 -0.3951 -0.6276
 3576TIP3    H110734   4.910   2.437   0.060  0.7208 -0.9727 -0.3046
 3576TIP3    H210735   4.820   2.489   0.171 -0.2182  0.8464 -1.8580
 3577TIP3   OH210736   6.172   2.173   3.139 -0.0820  0.4792 -0.3155
 3577TIP3    H110737   6.169   2.190   3.233 -0.7041  3.5661 -0.7932
 3577TIP3    H210738   6.095   2.119   3.122  0.7273 -1.2060  1.0665
 3578TIP3   OH210739   4.770   3.168   1.030  0.0843  0.5602  0.4222
 3578TIP3    H110740   4.776   3.131   1.118  0.3472 -1.5742 -0.4229
 3578TIP3    H210741   4.676   3.172   1.013  0.0461  0.4564  0.5992
 3579TIP3   OH210742   4.279   0.724   0.245  0.1493 -0.4212 -0.1309
 3579TIP3    H110743   4.203   0.782   0.233 -1.5740 -2.5723 -0.2785
 3579TIP3    H210744   4.322   0.724   0.160  0.3156  0.7529 -0.0739
 3580TIP3   OH210745   5.850   4.825   4.933  0.2261 -0.2248  0.5582
 3580TIP3    H110746   5.938   4.859   4.946  0.1478 -0.3808  1.5753
 3580TIP3    H210747   5.856   4.732   4.958 -0.1328 -0.3408  0.2322
 3581TIP3   OH210748   2.426   4.173   2.963  0.0666 -0.4422 -0.5078
 3581TIP3    H110749   2.433   4.205   2.873  0.6207  0.4100 -0.1721
 3581TIP3    H210750   2.344   4.125   2.965 -0.2779  0.0999 -1.2952
 3582TIP3   OH210751   5.783   2.975   4.309 -0.1957  0.0989  0.7084
 3582TIP3    H110752   5.762   2.909   4.242 -0.1008 -0.7921  1.5314
 3582TIP3    H210753   5.876   2.964   4.326  0.6620  2.7860 -1.5817
 3583TIP3   OH210754   1.022   0.699   0.028 -0.2020  0.4306 -0.5978
 3583TIP3    H110755   1.015   0.794   0.042  0.3412  0.3830  0.0599
 3583TIP3    H210756   1.079   0.691  -0.049 -1.1323  0.6502 -1.3227
 3584TIP3   OH210757   1.638   1.245   1.901  0.3789 -0.3700 -0.8849
 3584TIP3    H110758   1.594   1.329   1.917 -0.7337 -1.4494  2.6287
 3584TIP3    H210759   1.572   1.192   1.855  0.3816  0.0359 -1.3693
 3585TIP3   OH210760   4.178   1.141   0.756  0.2693 -0.2236 -0.7363
 3585TIP3    H110761   4.136   1.217   0.795 -0.0218 -0.6298 -0.2416
 3585TIP3    H210762   4.143   1.067   0.805  1.8392 -0.5526 -0.0545
 3586TIP3   OH210763   0.358   3.008   1.672 -0.0564  0.8471 -0.3141
 3586TIP3    H110764   0.313   2.925   1.689  1.4378 -0.0931 -0.7604
 3586TIP3    H210765   0.447   2.982   1.649  0.6993  2.6301  0.4349
 3587TIP3   OH210766   3.706   4.767   4.533  0.0403  0.1570  0.2304
 3587TIP3    H110767   3.699   4.858   4.505 -0.1100  0.0005 -0.2443
 3587TIP3    H210768   3.778   4.731   4.481 -1.7454 -0.7748 -1.7367
 3588TIP3   OH210769   1.894   0.738   4.755 -0.1081  0.1410 -0.0591
 3588TIP3    H110770   1.980   0.725   4.716  1.0869  2.0211  1.6702
 3588TIP3    H210771   1.885   0.833   4.762 -2.4631  0.0085 -0.4168
 3589TIP3   OH210772   0.972   4.198   4.936 -0.0989  0.0500  0.1658
 3589TIP3    H110773   1.035   4.214   5.006  0.5567 -2.1836  0.1590
 3589TIP3    H210774   1.016   4.137   4.876 -2.0913 -1.3623  0.0036
 3590TIP3   OH210775   4.945   4.285   0.873 -0.1234 -0.6358 -0.0468
 3590TIP3    H110776   4.853   4.311   0.864  0.0459 -0.0307 -0.0228
 3590TIP3    H210777   4.994   4.367   0.876  0.4401 -0.9577 -0.2303
 3591TIP3   OH210778   5.076   0.837   2.961 -0.3234  0.1847  0.5964
 3591TIP3    H110779   4.998   0.832   2.907  0.6875 -1.2558 -0.8195
 3591TIP3    H210780   5.121   0.916   2.931  0.4495 -0.8386 -1.0431
 3592TIP3   OH210781   1.341   4.605   1.411 -0.1049  0.6091 -0.0294
 3592TIP3    H110782   1.333   4.538   1.478 -0.7804  0.4594 -0.2578
 3592TIP3    H210783   1.325   4.559   1.329 -1.2644  1.1676 -0.1397
 3593TIP3   OH210784   4.082   5.361   3.962 -0.7164 -0.3690 -0.2169
 3593TIP3    H110785   4.149   5.308   3.918  0.9587  0.2598  1.4159
 3593TIP3    H210786   4.100   5.349   4.056 -0.0323  3.2760  0.2613
 3594TIP3   OH210787   3.032   4.132   3.969  0.0051 -0.0326  0.1813
 3594TIP3    H110788   3.024   4.039   3.946  2.2164 -0.4122  0.7162
 3594TIP3    H210789   2.995   4.179   3.895 -0.0708 -1.3173 -0.6214
 3595TIP3   OH210790   0.449   4.930   3.168  0.1756 -0.1671  0.7010
 3595TIP3    H110791   0.455   4.927   3.264  0.6475  0.4319  0.6958
 3595TIP3    H210792   0.451   4.839   3.141  0.0192 -0.3410  1.2687
 3596TIP3   OH210793   5.826   0.200   3.119  0.2034 -0.3366 -0.0618
 3596TIP3    H110794   5.780   0.222   3.200 -0.6593  1.2562 -0.9336
 3596TIP3    H210795   5.876   0.278   3.098 -1.2559  0.1267 -2.1440
 3597TIP3   OH210796   1.254   2.311   1.573  0.3425 -0.3014 -0.6095
 3597TIP3    H110797   1.201   2.389   1.588  0.2947 -0.5784  0.7562
 3597TIP3    H210798   1.276   2.315   1.480 -3.0098 -0.7589 -1.5561
 3598TIP3   OH210799   2.581   2.921   4.843  0.1921  0.2023  0.1167
 3598TIP3    H110800   2.618   2.876   4.768  0.3017  1.8131 -0.8423
 3598TIP3    H210801   2.656   2.939   4.900  0.3188  0.2264 -0.0588
 3599TIP3   OH210802   5.413   3.598   1.849  0.5235  0.5549  0.0541
 3599TIP3    H110803   5.448   3.684   1.872 -2.1417  2.2442 -1.5258
 3599TIP3    H210804   5.322   3.601   1.879 -0.2516 -0.8128 -1.9228
 3600TIP3   OH210805   4.246   2.156   4.981 -0.3895  0.0225  0.2451
 3600TIP3    H110806   4.179   2.183   5.045  0.3374  2.2493  0.1453
 3600TIP3    H210807   4.328   2.190   5.017  0.1515  0.6312 -1.4831
 3601TIP3   OH210808   6.146   0.673   0.640  0.5238 -0.5427  0.0663
 3601TIP3    H110809   6.206   0.599   0.631  2.8588  1.3857 -1.5509
 3601TIP3    H210810   6.132   0.703   0.551 -0.6073  0.8104  0.6682
 3602TIP3   OH210811   3.479   1.293   2.944  0.2975 -0.1493 -0.3056
 3602TIP3    H110812   3.557   1.239   2.936 -0.1663 -0.8760 -0.0384
 3602TIP3    H210813   3.511   1.377   2.976  0.7471 -1.0911  1.8330
 3603TIP3   OH210814   2.950   1.260   4.395 -0.3244 -0.1242  0.5979
 3603TIP3    H110815   3.039   1.285   4.370 -0.0018 -0.8197  1.0164
 3603TIP3    H210816   2.933   1.180   4.346 -0.7063 -0.0196  0.5568
 3604TIP3   OH210817   4.452   5.630   1.262 -0.1836  0.2150  0.4695
 3604TIP3    H110818   4.407   5.642   1.346  0.9961  0.0276  1.1596
 3604TIP3    H210819   4.437   5.538   1.240 -0.0099  0.1097  0.7804
 3605TIP3   OH210820   5.940   2.990   1.629  0.0086  0.2522 -0.0385
 3605TIP3    H110821   5.914   2.898   1.639 -2.5689  1.0679  1.7899
 3605TIP3    H210822   5.959   2.999   1.535 -3.8476 -1.2626 -1.1952
 3606TIP3   OH210823   5.269   0.563   0.098 -0.0208 -0.3863  0.1732
 3606TIP3    H110824   5.192   0.519   0.134 -1.0082  1.4653  0.4606
 3606TIP3    H210825   5.338   0.498   0.103 -0.9654 -1.3223  2.2191
 3607TIP3   OH210826   1.636   2.672   2.824 -0.1547 -0.5555 -0.3273
 3607TIP3    H110827   1.571   2.636   2.764 -1.8274  2.8313 -0.8047
 3607TIP3    H210828   1.705   2.706   2.766 -0.4670  0.3208 -0.2059
 3608TIP3   OH210829   5.590   3.195   2.020  0.1454  0.0139 -0.2052
 3608TIP3    H110830   5.661   3.247   2.058  0.4213 -1.2317  1.0296
 3608TIP3    H210831   5.588   3.223   1.928  1.8192  0.5263 -0.1313
 3609TIP3   OH210832   2.010   2.277   1.948 -0.8590 -0.0344  0.3886
 3609TIP3    H110833   1.915   2.265   1.956 -1.0723  1.1749 -0.1950
 3609TIP3    H210834   2.024   2.300   1.857 -0.3728  2.7573  1.0840
 3610TIP3   OH210835   1.031   2.490   3.217  0.9093  0.5272  0.5174
 3610TIP3    H110836   0.962   2.464   3.278 -0.0660 -0.4626 -0.9497
 3610TIP3    H210837   1.112   2.481   3.268  0.1080  0.0578  1.7557
 3611TIP3   OH210838   5.515   5.147   1.899 -0.5001 -0.5463  0.2243
 3611TIP3    H110839   5.478   5.224   1.857 -0.5075 -0.5965  0.1394
 3611TIP3    H210840   5.446   5.117   1.958 -0.5802 -0.6195  0.0921
 3612TIP3   OH210841   4.739   2.240   3.495 -0.0934 -0.3044  0.1084
 3612TIP3    H110842   4.664   2.182   3.478  0.7468 -1.6948  0.9863
 3612TIP3    H210843   4.700   2.326   3.509 -1.5754 -1.0994  1.0599
 3613TIP3   OH210844   5.806   1.360   3.492 -0.4131  0.0501 -0.3554
 3613TIP3    H110845   5.743   1.338   3.561 -1.5596 -1.9380 -1.9438
 3613TIP3    H210846   5.757   1.414   3.430  0.3671  1.1042 -0.0892
 3614TIP3   OH210847   5.688   4.966   3.516 -0.1811  0.1332  0.0174
 3614TIP3    H110848   5.745   4.981   3.441 -0.7899  2.2654 -0.0988
 3614TIP3    H210849   5.635   4.890   3.493 -0.9447  1.2510 -2.1068
 3615TIP3   OH210850   1.366   5.095   4.911 -0.6202 -0.5831 -0.1868
 3615TIP3    H110851   1.419   5.016   4.896  2.9627  1.6025  0.0357
 3615TIP3    H210852   1.341   5.124   4.823  0.8427 -0.2402 -0.5106
 3616TIP3   OH210853   0.832   5.899   2.872 -0.3719  0.5179  0.4009
 3616TIP3    H110854   0.865   5.933   2.789  0.4306  0.5329  0.7178
 3616TIP3    H210855   0.844   5.970   2.935  0.4165 -0.0005  0.8534
 3617TIP3   OH210856   0.407   5.614   0.324  0.4137  0.0878 -0.1804
 3617TIP3    H110857   0.447   5.700   0.339  1.4770 -0.2709 -0.8555
 3617TIP3    H210858   0.318   5.624   0.356  0.6564  1.3046  0.1947
 3618TIP3   OH210859   0.469   2.889   0.010  0.1167 -0.5326 -0.3180
 3618TIP3    H110860   0.513   2.846  -0.064 -0.3113 -2.6703  0.5972
 3618TIP3    H210861   0.517   2.859   0.087 -1.3924 -0.9306  0.5040
 3619TIP3   OH210862   4.518   1.850   3.291 -0.3932  0.3340  0.6940
 3619TIP3    H110863   4.522   1.766   3.246 -0.9837  0.2303  0.8233
 3619TIP3    H210864   4.432   1.885   3.268 -0.4330  0.5817  1.2036
 3620TIP3   OH210865   4.957   0.723   1.915  0.1603 -0.1982  0.3511
 3620TIP3    H110866   4.956   0.653   1.851 -2.6671 -1.1402  1.2953
 3620TIP3    H210867   4.989   0.682   1.995 -1.0672 -0.3501  0.7880
 3621TIP3   OH210868   4.251   5.510   0.220  0.1964  0.2116 -0.6157
 3621TIP3    H110869   4.308   5.530   0.294 -0.3070 -0.1126 -0.1321
 3621TIP3    H210870   4.225   5.595   0.185 -0.1732  0.3767  0.0555
 3622TIP3   OH210871   4.643   5.280   2.680  0.3431 -0.1389 -0.4619
 3622TIP3    H110872   4.709   5.318   2.737 -0.7111  1.0926 -0.0123
 3622TIP3    H210873   4.603   5.211   2.734 -0.9437  1.3076  0.5110
 3623TIP3   OH210874   3.383   2.893   4.280 -0.7781 -0.4564 -0.1218
 3623TIP3    H110875   3.334   2.941   4.213 -0.3114 -2.0387 -1.6784
 3623TIP3    H210876   3.330   2.816   4.297  0.4742 -1.5157 -0.8442
 3624TIP3   OH210877   3.320   0.381   3.070  0.2508  0.5628  0.7402
 3624TIP3    H110878   3.231   0.415   3.062  0.5993  1.3714  0.2153
 3624TIP3    H210879   3.368   0.422   2.998  0.8021 -0.6747  0.3799
 3625TIP3   OH210880   2.365   3.801   3.618  0.2148 -0.4129  0.2832
 3625TIP3    H110881   2.394   3.838   3.701  1.5221 -0.8779  0.0500
 3625TIP3    H210882   2.416   3.848   3.552 -0.0450 -0.7933 -0.1957
 3626TIP3   OH210883   1.206   4.967   0.271  0.0065 -0.0284 -0.7137
 3626TIP3    H110884   1.217   4.915   0.191 -0.0581  0.3505 -0.9722
 3626TIP3    H210885   1.282   5.026   0.272  0.5303 -0.6855  0.0156
 3627TIP3   OH210886   5.368   3.407   3.753  0.1156  0.1241  0.6211
 3627TIP3    H110887   5.453   3.400   3.710 -0.0369  0.9436  0.1684
 3627TIP3    H210888   5.356   3.501   3.769 -0.5916 -0.0032  0.9132
 3628TIP3   OH210889   1.735   3.505   3.346 -0.3412 -0.2194 -0.1647
 3628TIP3    H110890   1.770   3.419   3.321 -0.3511 -1.3604  3.2015
 3628TIP3    H210891   1.640   3.494   3.344 -0.3501 -0.0980 -0.3512
 3629TIP3   OH210892   3.264   5.407   3.033 -0.0575  0.4973 -0.2610
 3629TIP3    H110893   3.190   5.357   2.998  0.4754 -2.3488  2.2955
 3629TIP3    H210894   3.225   5.488   3.065 -1.7212 -0.0492 -0.7931
 3630TIP3   OH210895   6.060   1.735   0.484  0.2112 -0.1376  0.4203
 3630TIP3    H110896   6.023   1.734   0.396  1.7152 -0.0289 -0.2255
 3630TIP3    H210897   6.020   1.659   0.527  0.1239 -0.6882 -0.6163
 3631TIP3   OH210898   1.058   0.523   1.922  0.2944  1.0627 -0.0617
 3631TIP3    H110899   1.094   0.592   1.977  0.4250  1.9107 -1.1803
 3631TIP3    H210900   1.131   0.462   1.909  0.6337  1.5229 -0.3346
 3632TIP3   OH210901   5.159   4.228   0.192  0.0538 -0.0217  0.2904
 3632TIP3    H110902   5.202   4.233   0.278  2.2098  2.3724 -0.7781
 3632TIP3    H210903   5.071   4.262   0.208  0.0534 -0.6363  1.7392
 3633TIP3   OH210904   2.899   3.373   3.847 -0.4356 -0.3426 -0.5711
 3633TIP3    H110905   2.819   3.384   3.796 -1.2295  1.4772  0.9268
 3633TIP3    H210906   2.952   3.449   3.825  0.0789 -0.5901 -0.2025
 3634TIP3   OH210907   5.382   3.826   0.448  0.0837  0.3034 -0.6160
 3634TIP3    H110908   5.414   3.910   0.481  3.2415  0.0301 -2.5677
 3634TIP3    H210909   5.345   3.846   0.362 -0.4458 -0.1371 -0.4983
 3635TIP3   OH210910   5.145   3.753   2.896  0.3739 -0.1523  0.2264
 3635TIP3    H110911   5.128   3.668   2.856  0.6839 -0.4691  0.7609
 3635TIP3    H210912   5.059   3.782   2.927  0.0912  0.1970 -0.8427
 3636TIP3   OH210913   3.080   0.696   4.059  0.1192 -0.4607 -0.3968
 3636TIP3    H110914   3.019   0.751   4.010  0.9980 -0.4849 -1.5880
 3636TIP3    H210915   3.052   0.702   4.150 -2.5925 -1.6810 -1.0492
 3637TIP3   OH210916   0.975   3.727   1.039  0.0970  0.0675 -0.2780
 3637TIP3    H110917   1.059   3.765   1.064  0.1939  0.9064 -1.7546
 3637TIP3    H210918   0.930   3.797   0.992 -0.0453 -1.3246 -2.4015
 3638TIP3   OH210919   4.873   2.653   1.460  0.5015 -0.0155 -0.2226
 3638TIP3    H110920   4.812   2.727   1.461 -1.9167 -1.8288  2.6520
 3638TIP3    H210921   4.935   2.673   1.529 -0.3311 -0.7149  0.7613
 3639TIP3   OH210922   3.345   3.206   0.229 -0.4636 -0.2750 -0.1840
 3639TIP3    H110923   3.323   3.228   0.138 -1.8429 -0.8392 -0.0100
 3639TIP3    H210924   3.268   3.160   0.262  0.7816 -1.8500  0.6746
 3640TIP3   OH210925   5.708   1.880   1.567  0.3492  0.0540  0.4043
 3640TIP3    H110926   5.789   1.908   1.608  1.0663 -1.5918  0.1730
 3640TIP3    H210927   5.639   1.923   1.618  1.3104  0.3934  1.4471
 3641TIP3   OH210928   4.234   2.490   1.880  0.0120 -0.0375  0.1508
 3641TIP3    H110929   4.214   2.509   1.788 -2.2736  1.2679  0.8400
 3641TIP3    H210930   4.175   2.418   1.903 -0.6141  0.7387  1.0212
 3642TIP3   OH210931   1.076   1.827   4.923 -0.0416 -0.4405 -0.0081
 3642TIP3    H110932   1.036   1.804   4.839  0.8366  1.2551 -0.9511
 3642TIP3    H210933   1.150   1.767   4.932  1.1290  0.6977 -1.5227
 3643TIP3   OH210934   2.164   2.835   1.863  0.0615 -0.5764 -0.3353
 3643TIP3    H110935   2.138   2.836   1.771  1.2618  0.3719 -0.6904
 3643TIP3    H210936   2.254   2.867   1.863  0.3315 -1.2378  1.1078
 3644TIP3   OH210937   6.012   6.018   1.706  0.1633  0.3347 -0.2642
 3644TIP3    H110938   6.035   5.929   1.733  0.5512 -0.1163 -1.9472
 3644TIP3    H210939   5.917   6.015   1.694  0.2247  0.0172 -0.7033
 3645TIP3   OH210940   1.549   4.221   4.427 -0.1707  0.2709  0.1999
 3645TIP3    H110941   1.469   4.185   4.466  0.2088  0.0759  0.8236
 3645TIP3    H210942   1.619   4.168   4.465  0.0843 -1.8275 -2.8454
 3646TIP3   OH210943   5.659   2.833   1.484  0.2302  0.0734 -0.1348
 3646TIP3    H110944   5.609   2.757   1.514  0.3271  0.4171  0.9383
 3646TIP3    H210945   5.743   2.796   1.456  0.7499 -0.1098  1.5365
 3647TIP3   OH210946   0.122   0.571   2.821  0.1571 -0.4061 -0.0561
 3647TIP3    H110947   0.191   0.622   2.864  0.6609 -0.5480 -0.6728
 3647TIP3    H210948   0.166   0.489   2.796 -0.4833 -0.8946  0.3817
 3648TIP3   OH210949   0.940   5.224   1.893 -0.4342  0.0111  0.3342
 3648TIP3    H110950   0.879   5.214   1.966 -0.6366  2.7270  0.6569
 3648TIP3    H210951   0.999   5.294   1.921  1.2159 -0.7611 -1.0375
 3649TIP3   OH210952   3.656   0.137   3.890  0.1227  0.1857 -0.1220
 3649TIP3    H110953   3.619   0.059   3.930 -2.2069  1.2222 -0.1014
 3649TIP3    H210954   3.641   0.126   3.796  0.6261  0.2054 -0.2077
 3650TIP3   OH210955   1.241   4.561   4.423  0.0726  0.2645 -0.3036
 3650TIP3    H110956   1.238   4.506   4.345 -2.2203  0.8876 -0.7465
 3650TIP3    H210957   1.219   4.649   4.391  0.5307  0.8215  0.8412
 3651TIP3   OH210958   1.785   3.858   2.956 -0.0280 -0.1762  0.1219
 3651TIP3    H110959   1.790   3.952   2.938  0.6524 -0.1114  0.5940
 3651TIP3    H210960   1.830   3.818   2.881  0.6882 -0.0461  0.4652
 3652TIP3   OH210961   3.349   5.287   1.858  0.3078 -0.3839  0.1380
 3652TIP3    H110962   3.421   5.349   1.845  1.1147 -1.0316  1.3577
 3652TIP3    H210963   3.300   5.323   1.933 -0.2325 -0.3386 -0.2253
 3653TIP3   OH210964   3.529   4.604   2.002  0.6449  0.1047  0.2778
 3653TIP3    H110965   3.473   4.651   2.064  2.1620 -2.0067  3.5264
 3653TIP3    H210966   3.498   4.514   2.004  0.5957 -0.0364 -2.3777
 3654TIP3   OH210967   1.558   3.269   4.280  0.3177  0.2838  0.3252
 3654TIP3    H110968   1.527   3.208   4.347  0.0274  0.8096  0.6765
 3654TIP3    H210969   1.486   3.273   4.216  0.7994 -0.6022 -0.2843
 3655TIP3   OH210970   4.920   3.608   0.699 -0.2287 -0.4486  0.0591
 3655TIP3    H110971   5.013   3.629   0.688 -0.3823  0.3826  0.2466
 3655TIP3    H210972   4.904   3.537   0.638  1.1018 -2.3027  1.7221
 3656TIP3   OH210973   5.655   2.798   1.922 -0.2034  0.0060 -0.1164
 3656TIP3    H110974   5.605   2.812   2.002  1.0156 -0.2011  0.7026
 3656TIP3    H210975   5.642   2.878   1.871 -1.3259 -0.0372  0.0932
 3657TIP3   OH210976   5.134   0.279   4.047 -0.6739 -0.3243 -0.2745
 3657TIP3    H110977   5.205   0.218   4.029 -1.1323 -0.9176 -0.0990
 3657TIP3    H210978   5.175   0.350   4.096 -0.8458 -2.4899  3.3728
 3658TIP3   OH210979   5.354   0.799   4.050 -0.0204 -0.2428 -0.1411
 3658TIP3    H110980   5.339   0.847   3.968 -0.7956  3.3680  1.8947
 3658TIP3    H210981   5.430   0.743   4.031  0.0681  0.7137 -3.1900
 3659TIP3   OH210982   0.694   4.872   0.455 -0.4034 -0.0391 -0.0780
 3659TIP3    H110983   0.609   4.844   0.420 -0.7887  1.2514 -0.2465
 3659TIP3    H210984   0.695   4.839   0.545  0.0158 -2.2180 -0.8458
 3660TIP3   OH210985   4.799   0.185   2.213  0.1060 -0.3132 -1.1301
 3660TIP3    H110986   4.852   0.239   2.155 -2.2949  0.5818 -2.6387
 3660TIP3    H210987   4.804   0.229   2.298  0.8334  0.3893 -1.5221
 3661TIP3   OH210988   4.693   5.458   2.149 -0.2161  0.0143  0.2615
 3661TIP3    H110989   4.665   5.513   2.076  1.5159 -0.1884 -0.5985
 3661TIP3    H210990   4.700   5.370   2.112 -0.0553 -0.2324  0.8705
 3662TIP3   OH210991   4.161   2.289   2.233  0.0513  0.0238 -0.1008
 3662TIP3    H110992   4.068   2.269   2.239 -0.5642  1.4887 -3.0076
 3662TIP3    H210993   4.189   2.249   2.151  1.6061  0.8796 -0.0224
 3663TIP3   OH210994   0.626   0.428   1.391  0.3689  0.2468 -0.6395
 3663TIP3    H110995   0.705   0.415   1.444  0.2591 -2.5403 -1.0157
 3663TIP3    H210996   0.652   0.405   1.302 -1.1706 -2.3493 -0.5161
 3664TIP3   OH210997   6.056   0.760   1.065  0.3841  0.2923 -0.3933
 3664TIP3    H110998   6.134   0.705   1.070 -1.1931 -2.0770  0.5075
 3664TIP3    H210999   6.030   0.757   0.973 -0.4556 -1.8302 -0.1644
 3665TIP3   OH211000   0.177   5.432   3.902 -1.3388  0.3912 -0.2590
 3665TIP3    H111001   0.107   5.473   3.953 -0.5684  1.6005 -0.1415
 3665TIP3    H211002   0.196   5.351   3.949 -0.3870  1.6411  1.6791
 3666TIP3   OH211003   6.217   1.255   3.682 -0.2138  0.4001 -0.0462
 3666TIP3    H111004   6.188   1.331   3.632 -1.8853  0.3737  0.8160
 3666TIP3    H211005   6.200   1.180   3.624 -2.3115  0.3500  0.5423
 3667TIP3   OH211006   2.150   1.571   1.365  0.0367  0.1924 -0.1386
 3667TIP3    H111007   2.190   1.565   1.278 -0.1445  1.8489 -0.3662
 3667TIP3    H211008   2.195   1.645   1.406 -2.2129  1.6177 -0.1106
 3668TIP3   OH211009   2.853   5.442   4.375 -0.0266  0.4410  0.3421
 3668TIP3    H111010   2.819   5.516   4.425  0.4046  0.6817  0.2830
 3668TIP3    H211011   2.786   5.425   4.308  0.4592  1.6345 -0.4811
 3669TIP3   OH211012   1.410   4.365   1.811 -0.4240  0.0972 -0.5591
 3669TIP3    H111013   1.437   4.299   1.875 -0.6402 -0.2828 -0.8576
 3669TIP3    H211014   1.331   4.329   1.770 -1.4249  1.1941  0.3185
 3670TIP3   OH211015   3.419   3.540   0.221 -0.3157  0.3741  0.1421
 3670TIP3    H111016   3.443   3.457   0.178  2.2453  2.0105 -1.8798
 3670TIP3    H211017   3.372   3.589   0.153  0.1607  1.4165  0.5508
 3671TIP3   OH211018   2.085   2.741   3.805  0.2491 -0.2373  0.2328
 3671TIP3    H111019   2.111   2.757   3.896 -0.4816 -3.4118  1.1266
 3671TIP3    H211020   2.165   2.755   3.755  1.0412  0.2438  1.5626
 3672TIP3   OH211021   2.405   5.702   1.522  0.2260 -0.6787  0.0822
 3672TIP3    H111022   2.422   5.758   1.597  0.8510 -0.8029  0.0414
 3672TIP3    H211023   2.486   5.651   1.511 -0.6881 -2.3705  0.7776
 3673TIP3   OH211024   5.042   5.830   0.533 -0.3240 -0.5169 -0.4158
 3673TIP3    H111025   4.997   5.751   0.562 -0.0070 -0.9515 -1.0748
 3673TIP3    H211026   5.127   5.826   0.576 -0.9747  0.4435  1.0471
 3674TIP3   OH211027   3.762   4.361   5.162  0.3543  0.4682  0.0788
 3674TIP3    H111028   3.764   4.400   5.074 -0.4834  0.6856  0.1459
 3674TIP3    H211029   3.746   4.268   5.146  0.2208  0.5046 -0.0071
 3675TIP3   OH211030   3.290   1.539   1.583  0.3647 -0.6779 -0.1580
 3675TIP3    H111031   3.214   1.530   1.640  0.5411 -0.9448  0.0397
 3675TIP3    H211032   3.263   1.502   1.500  0.5331 -1.4952  0.1477
 3676TIP3   OH211033   3.428   3.500   0.731 -0.3739  0.2045 -0.1772
 3676TIP3    H111034   3.456   3.409   0.720 -0.4836 -0.2572  2.5180
 3676TIP3    H211035   3.417   3.534   0.642  2.4941 -1.5194 -1.3299
 3677TIP3   OH211036   5.944   5.809   4.197  0.1271 -0.3820  0.4854
 3677TIP3    H111037   5.989   5.730   4.225  1.8305  0.0313 -0.9075
 3677TIP3    H211038   6.014   5.874   4.185 -1.2242  1.4328  1.7920
 3678TIP3   OH211039   3.409   0.602   4.312  0.1553  0.4983  0.4945
 3678TIP3    H111040   3.422   0.695   4.333  1.7859  0.9040 -1.8953
 3678TIP3    H211041   3.498   0.566   4.306 -0.4294 -1.0480  0.6288
 3679TIP3   OH211042   2.017   6.017   1.271  0.2845  0.8172  0.0823
 3679TIP3    H111043   1.924   5.998   1.286  0.2240  1.4330  0.5079
 3679TIP3    H211044   2.063   5.942   1.309 -0.0611  0.0746 -0.9115
 3680TIP3   OH211045   5.920   4.400   2.548  0.2577 -0.0678 -0.0223
 3680TIP3    H111046   5.954   4.320   2.508 -0.3520 -0.1348 -0.4220
 3680TIP3    H211047   5.857   4.434   2.485 -0.0108  0.3480  0.4591
 3681TIP3   OH211048   0.073   1.582   1.683  0.0453  0.0205  0.2685
 3681TIP3    H111049   0.071   1.492   1.650 -4.3562  0.0806 -0.3044
 3681TIP3    H211050   0.083   1.636   1.605 -0.4255  0.0144  0.1964
 3682TIP3   OH211051   1.768   5.335   0.715 -0.2957 -0.1901 -0.3704
 3682TIP3    H111052   1.716   5.332   0.635 -1.2135  1.0997  0.1459
 3682TIP3    H211053   1.809   5.248   0.720 -2.0905 -1.1435 -1.0160
 3683TIP3   OH211054   5.615   5.897   2.559 -0.1423  0.0955  0.6954
 3683TIP3    H111055   5.652   5.909   2.471  0.2170  1.8243  1.0408
 3683TIP3    H211056   5.586   5.985   2.584 -1.0113 -0.5354  1.9820
 3684TIP3   OH211057   1.207   1.235   3.420 -0.0924 -0.9129  0.4799
 3684TIP3    H111058   1.122   1.268   3.451  0.3881  1.4527 -0.5070
 3684TIP3    H211059   1.197   1.228   3.325  0.5976 -1.3286  0.4316
 3685TIP3   OH211060   0.210   4.578   2.772  0.7196 -0.7626  0.1465
 3685TIP3    H111061   0.193   4.498   2.722 -0.1357  0.6280 -1.9409
 3685TIP3    H211062   0.303   4.594   2.760  0.5946 -0.6436 -0.7606
 3686TIP3   OH211063   4.079   0.732   0.637 -0.4740  0.1370 -0.4559
 3686TIP3    H111064   4.008   0.796   0.648  0.0651  0.7356 -0.3814
 3686TIP3    H211065   4.071   0.675   0.714 -1.1501 -0.0773 -0.6799
 3687TIP3   OH211066   1.435   4.053   1.643 -0.1757  0.0628 -0.3067
 3687TIP3    H111067   1.404   3.991   1.708 -0.1761 -0.2752 -0.6258
 3687TIP3    H211068   1.357   4.099   1.613 -0.4037 -0.8563 -1.1828
 3688TIP3   OH211069   1.629   3.508   3.649 -0.0700 -0.0363 -0.4488
 3688TIP3    H111070   1.724   3.500   3.662 -0.1929 -0.7886  0.0045
 3688TIP3    H211071   1.598   3.418   3.642 -0.6842  0.2166 -1.1718
 3689TIP3   OH211072   5.262   2.699   3.140  0.0836 -0.1010  0.4954
 3689TIP3    H111073   5.178   2.669   3.174 -0.8893  0.8034 -0.9697
 3689TIP3    H211074   5.285   2.634   3.073  1.8070 -1.6737  2.4490
 3690TIP3   OH211075   1.560   5.391   2.354  0.1147 -0.0223 -0.0156
 3690TIP3    H111076   1.606   5.421   2.275 -0.0356  1.0061  0.2742
 3690TIP3    H211077   1.606   5.311   2.379  1.3562  0.6305 -0.0984
 3691TIP3   OH211078   4.105   5.747   2.575 -0.2035  0.3568  0.0308
 3691TIP3    H111079   4.027   5.694   2.556 -1.4830  2.0905  0.1294
 3691TIP3    H211080   4.156   5.743   2.494 -1.7054  1.2391 -1.0396
 3692TIP3   OH211081   0.586   3.072   2.515  0.0660  0.2555  0.1918
 3692TIP3    H111082   0.621   3.129   2.447 -0.9472  0.7397  0.0613
 3692TIP3    H211083   0.565   2.991   2.470 -0.1454  0.4022  0.0280
 3693TIP3   OH211084   1.864   5.673   0.981 -0.5658  0.2418 -0.5917
 3693TIP3    H111085   1.814   5.717   1.050  0.1391 -0.0881  0.1588
 3693TIP3    H211086   1.860   5.580   1.004 -0.5029  0.1069 -1.1172
 3694TIP3   OH211087   2.782   0.184   3.554 -0.0739  0.0086 -0.6020
 3694TIP3    H111088   2.777   0.254   3.488  0.4893 -0.4542 -1.1441
 3694TIP3    H211089   2.757   0.105   3.507  0.1477 -0.2980 -0.2049
 3695TIP3   OH211090   0.293   5.517   3.008 -0.6118 -0.1257  0.0589
 3695TIP3    H111091   0.250   5.602   2.995 -1.3283 -0.5024 -0.0501
 3695TIP3    H211092   0.222   5.456   3.026 -0.0587 -0.6144  0.6464
 3696TIP3   OH211093   4.752   0.382   0.931  0.1604 -0.0114 -0.0542
 3696TIP3    H111094   4.806   0.404   1.006 -0.5219 -0.6298  0.6377
 3696TIP3    H211095   4.665   0.414   0.954 -0.1681 -0.6700 -0.3424
 3697TIP3   OH211096   1.142   3.734   2.001 -0.4485 -0.1456  0.1092
 3697TIP3    H111097   1.078   3.693   2.060 -0.0313 -3.3820 -1.4192
 3697TIP3    H211098   1.119   3.700   1.914  0.6563  2.2034 -1.2021
 3698TIP3   OH211099   0.618   4.821   4.635  0.2170  0.3467  0.1360
 3698TIP3    H111100   0.694   4.816   4.692  0.1727 -1.9549  0.0767
 3698TIP3    H211101   0.641   4.767   4.559 -1.4991 -0.5355  0.1927
 3699TIP3   OH211102  -0.020   1.911   2.329  0.8114 -0.1880 -0.0136
 3699TIP3    H111103  -0.009   1.857   2.407 -0.9722 -0.7838 -0.1177
 3699TIP3    H211104   0.035   1.870   2.262  1.1293 -0.6028  0.4990
 3700TIP3   OH211105   1.881   1.698   2.244  0.2794  0.6215  0.6418
 3700TIP3    H111106   1.857   1.787   2.269  0.6733  1.4543 -1.6852
 3700TIP3    H211107   1.797   1.652   2.235 -0.1323  1.6201 -0.9446
 3701TIP3   OH211108   1.160   2.098   3.613 -0.1613 -0.4939  0.1488
 3701TIP3    H111109   1.202   2.042   3.678  0.5694  0.9570  0.9639
 3701TIP3    H211110   1.222   2.169   3.597 -0.6094 -0.4376 -1.6561
 3702TIP3   OH211111   3.790   5.072   0.774  0.1967 -0.2242  0.3983
 3702TIP3    H111112   3.705   5.108   0.747  1.7723  1.6014 -2.6551
 3702TIP3    H211113   3.839   5.147   0.807  1.4503 -0.7203 -0.2632
 3703TIP3   OH211114   2.159   3.828   1.655 -0.0179  0.3162 -0.6992
 3703TIP3    H111115   2.121   3.747   1.686  0.0042  0.5997  0.0849
 3703TIP3    H211116   2.085   3.878   1.619 -0.8250  1.6664  2.4938
 3704TIP3   OH211117   5.893   3.614   3.685  0.9728 -0.3400  0.1761
 3704TIP3    H111118   5.811   3.615   3.636  0.1767  0.1842  1.4605
 3704TIP3    H211119   5.949   3.677   3.639  1.1142 -1.5730 -1.4081
 3705TIP3   OH211120   3.567   0.503   5.077 -0.0074 -0.0639 -0.3257
 3705TIP3    H111121   3.548   0.497   4.984 -0.9395 -0.2524 -0.1387
 3705TIP3    H211122   3.520   0.581   5.106  1.6580  0.9710 -0.3208
 3706TIP3   OH211123   4.380   1.187   2.482  0.3003 -0.5739 -0.0153
 3706TIP3    H111124   4.361   1.183   2.576 -0.7421 -1.1178 -0.2442
 3706TIP3    H211125   4.318   1.127   2.441 -0.9622  1.5060 -1.3164
 3707TIP3   OH211126   4.895   4.837   0.262  0.3097 -0.1602  0.2026
 3707TIP3    H111127   4.921   4.900   0.195 -0.2199 -0.6976 -0.5295
 3707TIP3    H211128   4.836   4.886   0.319  0.8352  0.3279  0.3359
 3708TIP3   OH211129   0.998   2.895   4.101  0.2603  0.8889 -0.3568
 3708TIP3    H111130   0.995   2.891   4.006  1.0893 -0.9923 -0.3538
 3708TIP3    H211131   0.989   2.988   4.122  2.1114  1.6056 -2.3631
 3709TIP3   OH211132   0.712   0.024   0.358  0.1669  0.6256  0.3060
 3709TIP3    H111133   0.805   0.042   0.342  0.3309 -1.8721 -2.1583
 3709TIP3    H211134   0.713  -0.050   0.418 -0.1976  0.0216 -0.4273
 3710TIP3   OH211135   3.560   1.202   2.600 -0.1558  0.6213  0.2433
 3710TIP3    H111136   3.635   1.253   2.630  0.1388  0.7671 -0.6833
 3710TIP3    H211137   3.511   1.262   2.543  0.2265 -0.1114 -0.9095
 3711TIP3   OH211138   0.060   3.109   4.604 -0.0578 -0.1056 -0.1846
 3711TIP3    H111139   0.143   3.108   4.556 -0.3199  2.3070 -0.8230
 3711TIP3    H211140   0.003   3.166   4.552 -0.9798  1.0630  1.9781
 3712TIP3   OH211141   3.931   4.375   0.255  0.2758  0.4378  0.3342
 3712TIP3    H111142   4.015   4.352   0.214 -0.0966  0.4482 -0.4506
 3712TIP3    H211143   3.877   4.297   0.245  0.1687  0.4508  0.7909
 3713TIP3   OH211144   2.340   4.412   1.311  0.0902  0.1297 -0.1483
 3713TIP3    H111145   2.323   4.505   1.294 -0.4415 -0.0042 -0.3748
 3713TIP3    H211146   2.255   4.376   1.332  0.2877 -0.3206 -0.1164
 3714TIP3   OH211147   5.430   2.358   4.991 -0.1656  0.0307  0.0653
 3714TIP3    H111148   5.337   2.362   5.010 -0.7771 -0.4729 -2.4983
 3714TIP3    H211149   5.455   2.449   4.975 -0.3936  0.0833  0.0040
 3715TIP3   OH211150   2.994   4.762   3.021  0.1745  0.1101  0.4878
 3715TIP3    H111151   2.977   4.693   3.086 -3.8586  0.8403  0.4990
 3715TIP3    H211152   3.015   4.714   2.940 -0.4309 -1.0591  0.9969
 3716TIP3   OH211153   3.881   0.727   2.452 -0.2408 -0.9141  0.1466
 3716TIP3    H111154   3.814   0.787   2.487 -0.9280 -1.6772  0.1822
 3716TIP3    H211155   3.878   0.652   2.511  2.1101 -0.1214  1.3805
 3717TIP3   OH211156   4.618   2.192   2.733  0.0752  0.3335  0.1503
 3717TIP3    H111157   4.549   2.150   2.785 -0.4180  0.5910 -0.2832
 3717TIP3    H211158   4.571   2.236   2.663  0.7512 -0.2017 -0.6558
 3718TIP3   OH211159   2.652   3.360   0.253  0.8070  0.2884  0.4019
 3718TIP3    H111160   2.619   3.274   0.276 -1.7173  0.7988 -0.9409
 3718TIP3    H211161   2.711   3.384   0.325  0.3921 -1.8971  1.5369
 3719TIP3   OH211162   3.768   2.405   4.426 -0.0702 -0.5367  0.2823
 3719TIP3    H111163   3.855   2.375   4.450  0.5353  0.5210 -0.4659
 3719TIP3    H211164   3.719   2.409   4.508  0.7286 -0.7080  0.7711
 3720TIP3   OH211165   1.250   1.973   1.376 -0.1014  0.0151  0.1035
 3720TIP3    H111166   1.189   2.008   1.440  1.0654  2.1205  0.1538
 3720TIP3    H211167   1.323   1.940   1.428 -1.2320 -2.8313  0.0706
 3721TIP3   OH211168   4.925   0.654   0.820 -0.5812 -0.0707 -0.2722
 3721TIP3    H111169   4.941   0.614   0.735  2.5925  1.0288 -0.3224
 3721TIP3    H211170   4.893   0.742   0.800 -1.4622 -0.3746 -0.2560
 3722TIP3   OH211171   1.504   1.554   4.124 -0.0884  0.1299  0.3286
 3722TIP3    H111172   1.581   1.579   4.073  0.1477  1.4080  1.2680
 3722TIP3    H211173   1.430   1.596   4.080 -0.2360 -0.8205 -0.3753
 3723TIP3   OH211174   5.585   1.022   5.143 -0.2585  0.1066 -0.0338
 3723TIP3    H111175   5.616   1.112   5.146 -1.7912  0.7316 -1.4494
 3723TIP3    H211176   5.605   0.992   5.054 -1.7335 -0.1648 -0.3052
 3724TIP3   OH211177   6.008   5.546   2.528  0.3381 -0.2027 -0.2308
 3724TIP3    H111178   5.963   5.629   2.516  0.1437 -0.2852 -0.0683
 3724TIP3    H211179   6.099   5.564   2.505  0.4142  0.2009  0.3565
 3725TIP3   OH211180   4.529   2.846   3.186  0.1330  0.2811  0.5525
 3725TIP3    H111181   4.486   2.765   3.157  0.5560  0.1314  0.3240
 3725TIP3    H211182   4.568   2.824   3.271  0.5479  0.1370  0.3271
 3726TIP3   OH211183   1.572   0.674   4.940  0.3964 -0.3642 -0.0617
 3726TIP3    H111184   1.568   0.638   5.028  0.8655  0.8367  0.4812
 3726TIP3    H211185   1.588   0.599   4.883  1.4289 -0.9984  1.0235
 3727TIP3   OH211186   3.004   0.882   2.859 -0.3159  0.3423 -0.4318
 3727TIP3    H111187   2.959   0.810   2.902 -1.3040  0.8215 -0.6500
 3727TIP3    H211188   2.971   0.882   2.770 -1.0006  1.6132 -0.1965
 3728TIP3   OH211189   2.163   4.401   0.236  0.0150 -0.2959  0.2792
 3728TIP3    H111190   2.091   4.454   0.270 -0.0087 -0.6613  0.8162
 3728TIP3    H211191   2.128   4.361   0.157 -0.5251 -0.8096  0.7671
 3729TIP3   OH211192   2.207   0.134   0.766  0.0384 -0.2105  0.1174
 3729TIP3    H111193   2.173   0.044   0.769 -0.0564 -0.1624  0.5002
 3729TIP3    H211194   2.247   0.147   0.852  1.2752 -0.3540 -0.4215
 3730TIP3   OH211195   5.349   3.145   1.128 -0.3956  0.1613  0.1692
 3730TIP3    H111196   5.405   3.190   1.191 -0.8140 -0.6783  1.1639
 3730TIP3    H211197   5.261   3.151   1.166 -0.6737 -0.2582 -0.3903
 3731TIP3   OH211198   5.440   1.223   3.828 -0.0244  0.2600  0.5781
 3731TIP3    H111199   5.490   1.230   3.909 -0.6500 -1.0299  1.0999
 3731TIP3    H211200   5.505   1.200   3.762  0.2684 -0.1640  1.0069
 3732TIP3   OH211201   5.681   0.179   4.707  0.2358 -0.0727  0.2833
 3732TIP3    H111202   5.736   0.190   4.629 -1.2899  1.1631 -0.6861
 3732TIP3    H211203   5.602   0.137   4.675  0.2767 -1.1977  1.5354
 3733TIP3   OH211204   1.743   0.138   2.494 -0.0924 -0.2361 -0.4159
 3733TIP3    H111205   1.748   0.081   2.571  0.5491 -0.2234 -0.4421
 3733TIP3    H211206   1.752   0.227   2.528  0.9030 -0.2677 -0.5620
 3734TIP3   OH211207   4.915   2.087   2.466  0.2719  0.2978 -0.4736
 3734TIP3    H111208   4.900   2.131   2.549 -0.4204 -0.6664 -0.0719
 3734TIP3    H211209   4.889   1.996   2.481 -3.9058  0.8194 -2.7657
 3735TIP3   OH211210   2.697   2.746   1.921 -0.0949  0.1759  0.0923
 3735TIP3    H111211   2.669   2.779   2.006  2.2182 -0.2870  1.1004
 3735TIP3    H211212   2.765   2.808   1.892  0.3170 -0.5952 -0.6321
 3736TIP3   OH211213   4.965   3.655   3.425  0.0837  0.2989  0.3207
 3736TIP3    H111214   5.003   3.715   3.361 -2.1227  2.4700  0.8764
 3736TIP3    H211215   5.035   3.641   3.489  0.5862  2.7726  0.4364
 3737TIP3   OH211216   1.858   5.061   0.767  0.5169 -0.2128 -0.4734
 3737TIP3    H111217   1.933   5.005   0.782  0.2535 -0.4705 -0.1010
 3737TIP3    H211218   1.790   5.001   0.735  0.2517 -0.0946 -0.1274
 3738TIP3   OH211219   3.445   5.116   4.373 -0.0574  0.3879  0.2701
 3738TIP3    H111220   3.403   5.061   4.440  0.4531  0.6301  0.7974
 3738TIP3    H211221   3.392   5.102   4.294 -0.3813 -0.2755  0.5955
 3739TIP3   OH211222   5.035   3.841   0.026  0.1768 -0.0252 -0.3889
 3739TIP3    H111223   5.025   3.932  -0.001  2.5972  0.4743  0.1701
 3739TIP3    H211224   4.974   3.831   0.099  0.7303  1.5163  0.3204
 3740TIP3   OH211225   1.160   2.757   3.275 -0.4802 -0.1179 -0.7766
 3740TIP3    H111226   1.249   2.751   3.309 -0.6159  1.0529 -0.1336
 3740TIP3    H211227   1.150   2.681   3.219  0.4635 -0.9987  0.2095
 3741TIP3   OH211228   5.464   3.303   0.029  0.3333  0.1046  0.1809
 3741TIP3    H111229   5.458   3.386  -0.018  0.7396  0.0108 -0.0412
 3741TIP3    H211230   5.506   3.326   0.112 -0.1768  0.2321  0.4074
 3742TIP3   OH211231   3.185   3.471   1.735  0.0143 -0.0512  0.0039
 3742TIP3    H111232   3.187   3.414   1.812  0.5260 -1.4428 -0.9953
 3742TIP3    H211233   3.277   3.484   1.711 -0.1598 -0.5507 -1.0005
 3743TIP3   OH211234   3.613   0.820   0.483  0.3325 -0.1742 -0.4243
 3743TIP3    H111235   3.579   0.802   0.395 -3.7855  0.9665  0.7420
 3743TIP3    H211236   3.596   0.913   0.497 -0.7716 -0.6836  2.1436
 3744TIP3   OH211237   2.594   2.058   2.341 -0.2822 -0.0141  0.0447
 3744TIP3    H111238   2.568   2.116   2.268  0.0327  0.3380  0.2107
 3744TIP3    H211239   2.513   2.046   2.391 -0.8121 -1.2495 -1.0222
 3745TIP3   OH211240   0.921   2.970   4.823 -0.3417  0.3598  0.4514
 3745TIP3    H111241   0.883   2.890   4.786 -1.2971  0.5108  1.0695
 3745TIP3    H211242   1.012   2.947   4.840  0.2517  0.4006 -2.2923
 3746TIP3   OH211243   5.284   5.199   4.791 -0.0145  0.8060 -0.7211
 3746TIP3    H111244   5.246   5.127   4.741 -0.4566  1.2790 -1.0756
 3746TIP3    H211245   5.208   5.251   4.820  0.3075  1.2672 -0.6826
 3747TIP3   OH211246   3.792   5.783   0.156 -0.5736  0.4261 -0.4557
 3747TIP3    H111247   3.788   5.721   0.083 -0.1608 -1.2213  0.8434
 3747TIP3    H211248   3.798   5.869   0.115 -0.8961 -0.4029 -2.3409
 3748TIP3   OH211249   3.448   1.186   4.298  0.4789  0.6925  0.4544
 3748TIP3    H111250   3.534   1.166   4.334 -0.1234  0.4968  1.8390
 3748TIP3    H211251   3.429   1.113   4.239  1.1998  0.6779  0.2354
 3749TIP3   OH211252   6.284   0.113   2.126  0.5553  0.3114  0.0985
 3749TIP3    H111253   6.341   0.045   2.090  0.1870  0.3516 -0.5909
 3749TIP3    H211254   6.282   0.180   2.057 -1.4320 -0.3109 -0.5272
 3750TIP3   OH211255   2.896   3.685   4.993  0.6606  0.0714 -0.0296
 3750TIP3    H111256   2.969   3.624   5.001  0.5923  0.0553  0.5769
 3750TIP3    H211257   2.926   3.750   4.930  0.6967 -0.6374 -0.7582
 3751TIP3   OH211258   1.606   3.242   0.285  0.2009 -0.1667 -0.5015
 3751TIP3    H111259   1.588   3.214   0.195  2.2811  1.5478 -1.5406
 3751TIP3    H211260   1.575   3.332   0.290  1.4822  0.2703  0.0024
 3752TIP3   OH211261   2.908   4.395   5.150  0.4862 -0.2743  0.4392
 3752TIP3    H111262   2.890   4.470   5.206  0.5260  0.9730 -1.1527
 3752TIP3    H211263   2.912   4.431   5.062 -0.6078 -2.3203 -0.5209
 3753TIP3   OH211264   0.766   1.671   1.286 -0.1380 -0.1725  0.6154
 3753TIP3    H111265   0.789   1.716   1.367 -0.2055 -0.3474  0.7315
 3753TIP3    H211266   0.690   1.617   1.309 -0.5855  0.2929  0.2722
 3754TIP3   OH211267   5.905   1.013   1.968 -0.4831  0.0400  0.3091
 3754TIP3    H111268   5.916   1.011   1.873  0.9347 -0.0520  0.4442
 3754TIP3    H211269   5.813   1.032   1.981 -0.3281  2.0759 -1.0974
 3755TIP3   OH211270   4.121   1.805   3.971 -0.3930 -0.2663  0.5418
 3755TIP3    H111271   4.072   1.751   3.909  0.2255  0.5738 -0.6927
 3755TIP3    H211272   4.197   1.751   3.994 -0.9160 -0.8138  1.0471
 3756TIP3   OH211273   2.161   1.167   4.793  0.3447 -0.5258  0.3281
 3756TIP3    H111274   2.133   1.252   4.758  0.9139 -0.5342 -0.1711
 3756TIP3    H211275   2.251   1.182   4.823 -0.0954 -0.5525  1.7093
 3757TIP3   OH211276   5.439   2.879   3.638 -0.6591 -0.4860 -0.4536
 3757TIP3    H111277   5.414   2.942   3.706 -0.8561 -1.4500  0.3879
 3757TIP3    H211278   5.358   2.834   3.615 -0.2951 -1.3756 -0.0541
 3758TIP3   OH211279   4.310   0.118   1.883 -0.2236 -0.7135  0.6322
 3758TIP3    H111280   4.329   0.084   1.796 -1.0017 -0.2732  0.2793
 3758TIP3    H211281   4.294   0.040   1.936 -1.7149 -0.9620 -0.0998
 3759TIP3   OH211282   4.838   2.003   1.126 -0.0974 -1.0299  0.6122
 3759TIP3    H111283   4.883   1.960   1.054 -2.1974 -1.1637 -0.7173
 3759TIP3    H211284   4.767   1.942   1.150 -1.8251  0.6867  0.1209
 3760TIP3   OH211285   4.165   0.362   4.955  0.0369 -0.2566  0.4071
 3760TIP3    H111286   4.115   0.411   5.020 -0.4066 -1.4957  1.0345
 3760TIP3    H211287   4.256   0.390   4.968  0.0188 -0.7596  1.8598
 3761TIP3   OH211288   4.763   1.504   0.631 -0.0326  0.1692 -0.5128
 3761TIP3    H111289   4.795   1.562   0.700 -1.3329 -0.0199  0.2943
 3761TIP3    H211290   4.807   1.421   0.645 -0.1872  0.1748  0.0138
 3762TIP3   OH211291   5.122   1.080   3.364  0.1682  0.5796  0.5654
 3762TIP3    H111292   5.049   1.124   3.320  1.5036 -0.0370 -2.5747
 3762TIP3    H211293   5.087   0.994   3.387 -0.1979  0.3311 -0.8024
 3763TIP3   OH211294   0.710   3.331   4.950 -0.4940  0.4836  0.0056
 3763TIP3    H111295   0.661   3.307   5.029 -1.1072 -0.1793 -0.5587
 3763TIP3    H211296   0.647   3.322   4.879 -0.5386  3.0711 -0.3670
 3764TIP3   OH211297   1.044   5.957   4.525  0.2587  0.0798  0.3671
 3764TIP3    H111298   1.045   6.042   4.481  1.4012 -0.3125 -0.4135
 3764TIP3    H211299   1.136   5.940   4.549  0.1836 -1.2746 -0.1911
 3765TIP3   OH211300   3.277   4.622   3.019  0.0754 -0.0415 -0.4587
 3765TIP3    H111301   3.241   4.546   3.064 -0.5875  0.7467  0.3750
 3765TIP3    H211302   3.307   4.588   2.935  3.2127 -2.0165  1.2487
 3766TIP3   OH211303   3.035   1.117   5.139  0.6225 -0.5012 -0.3979
 3766TIP3    H111304   3.113   1.065   5.159 -0.6139 -2.0200  0.7990
 3766TIP3    H211305   3.016   1.163   5.220 -0.0437 -0.5949 -0.4956
 3767TIP3   OH211306   2.696   1.796   3.120 -0.5081  0.5152 -0.5889
 3767TIP3    H111307   2.623   1.819   3.176 -2.1655  0.6095 -2.6443
 3767TIP3    H211308   2.764   1.861   3.140 -0.9972  0.4806  1.2927
 3768TIP3   OH211309   5.272   4.550   1.904  0.1783 -0.5832  0.1316
 3768TIP3    H111310   5.229   4.569   1.820 -1.6072 -1.3652  0.8174
 3768TIP3    H211311   5.357   4.515   1.879  0.0804  0.1363 -1.3250
 3769TIP3   OH211312   0.198   4.329   2.660  0.4539 -0.6042 -0.0291
 3769TIP3    H111313   0.279   4.289   2.693 -0.4700 -1.1821  1.6477
 3769TIP3    H211314   0.224   4.371   2.579  2.2901 -1.4046  0.0886
 3770TIP3   OH211315   4.187   1.463   1.622 -0.1448  0.0927 -0.0952
 3770TIP3    H111316   4.158   1.499   1.538 -0.6558 -0.6136 -0.2375
 3770TIP3    H211317   4.278   1.439   1.608 -0.4320 -0.6978 -0.6950
 3771TIP3   OH211318   4.833   3.749   4.895  0.1161 -0.2165 -0.3669
 3771TIP3    H111319   4.815   3.661   4.928  1.2644 -0.6457 -0.8272
 3771TIP3    H211320   4.911   3.777   4.942  0.4159  0.0948 -1.0367
 3772TIP3   OH211321   1.493   4.216   2.399  0.2214 -0.1867  0.2975
 3772TIP3    H111322   1.577   4.250   2.431  0.0499  0.2212  0.3176
 3772TIP3    H211323   1.516   4.134   2.355  0.4077 -0.9758  1.8097
 3773TIP3   OH211324   0.532   3.894   0.305 -0.1612 -0.2803 -0.0313
 3773TIP3    H111325   0.575   3.820   0.347 -0.9453 -1.5132 -1.2940
 3773TIP3    H211326   0.465   3.922   0.368  1.1325  0.3889  1.1009
 3774TIP3   OH211327   4.046   4.435   1.904 -0.3119  0.0820  0.0243
 3774TIP3    H111328   4.096   4.358   1.876 -0.4240 -0.1117  0.3421
 3774TIP3    H211329   4.069   4.503   1.841 -0.0967 -0.1707 -0.1739
 3775TIP3   OH211330   0.663   1.428   4.166 -0.1796 -0.3586  0.1303
 3775TIP3    H111331   0.728   1.498   4.175  0.3614 -0.6482 -1.1857
 3775TIP3    H211332   0.653   1.417   4.071 -2.3565 -0.1643  0.2839
 3776TIP3   OH211333   0.415   2.531   0.266 -0.2086 -0.2534  0.2810
 3776TIP3    H111334   0.505   2.505   0.282  0.5894  2.3967  0.6058
 3776TIP3    H211335   0.378   2.547   0.353 -1.3542 -2.2018  0.2172
 3777TIP3   OH211336   2.349   4.678   2.558  0.2210  0.2202 -0.0439
 3777TIP3    H111337   2.296   4.662   2.636  2.0279 -1.1050  0.9896
 3777TIP3    H211338   2.402   4.754   2.581  2.1449 -1.3120  0.8689
 3778TIP3   OH211339   5.308   4.927   5.191 -0.0493  0.0229  0.2109
 3778TIP3    H111340   5.283   4.863   5.124 -0.2645  0.7562 -0.4374
 3778TIP3    H211341   5.384   4.889   5.234 -0.0153 -0.5509 -0.3392
 3779TIP3   OH211342   4.473   2.411   2.514  0.3644  0.0764  0.5801
 3779TIP3    H111343   4.438   2.461   2.440  0.0972 -0.3871  0.3917
 3779TIP3    H211344   4.554   2.457   2.537  0.6270  0.0347 -0.2165
 3780TIP3   OH211345   2.778   2.514   4.479 -0.6858  0.5072 -0.6976
 3780TIP3    H111346   2.717   2.587   4.470  0.7524  2.0895  1.3274
 3780TIP3    H211347   2.737   2.456   4.544 -1.4848 -0.1651 -1.7632
 3781TIP3   OH211348   3.310   2.708   0.404 -0.0798 -0.3723 -0.1696
 3781TIP3    H111349   3.353   2.789   0.431 -1.6024  0.2451  0.4980
 3781TIP3    H211350   3.227   2.737   0.365 -0.6405 -1.5925  0.0734
 3782TIP3   OH211351   0.042   2.065   5.045 -0.1205 -0.2774  0.1522
 3782TIP3    H111352  -0.043   2.063   5.089 -0.7598  0.3341 -0.9974
 3782TIP3    H211353   0.105   2.039   5.113 -0.8718  2.0261  1.8757
 3783TIP3   OH211354   5.532   4.004   2.251 -0.1102  0.0666 -0.2987
 3783TIP3    H111355   5.522   3.922   2.202 -1.6840  0.0575 -0.0026
 3783TIP3    H211356   5.452   4.011   2.303  1.7609 -0.2503  2.8141
 3784TIP3   OH211357   2.580   3.180   3.768 -0.1567 -0.2559 -0.0629
 3784TIP3    H111358   2.580   3.091   3.804 -2.7986 -1.8172 -3.3491
 3784TIP3    H211359   2.489   3.209   3.776  0.6705  2.3628  1.0713
 3785TIP3   OH211360   2.251   1.627   3.400 -0.0512 -0.5355  0.8287
 3785TIP3    H111361   2.208   1.543   3.379  2.6993 -1.8741  0.1293
 3785TIP3    H211362   2.344   1.606   3.405  0.6940  2.4125  1.2024
 3786TIP3   OH211363   4.799   5.752   0.804 -0.2178  0.0872 -0.3294
 3786TIP3    H111364   4.762   5.837   0.780 -0.2885 -0.1835 -1.2121
 3786TIP3    H211365   4.880   5.774   0.851 -0.1749  0.6400 -0.6528
 3787TIP3   OH211366   5.117   0.938   2.383  0.5353 -0.0993 -0.4190
 3787TIP3    H111367   5.172   0.885   2.440 -2.1123  0.2366  2.7454
 3787TIP3    H211368   5.148   1.028   2.396  0.7925 -0.1689 -0.5536
 3788TIP3   OH211369   3.182   0.066   3.452  0.1341 -0.3923  0.5204
 3788TIP3    H111370   3.145  -0.022   3.447  1.6600 -1.0228 -1.0487
 3788TIP3    H211371   3.121   0.121   3.402  0.5897 -1.1520 -0.9286
 3789TIP3   OH211372   2.704   4.119   3.023  0.1632  0.5527 -0.6099
 3789TIP3    H111373   2.614   4.151   3.020 -0.0900  0.2727  1.7473
 3789TIP3    H211374   2.697   4.024   3.020  0.2876  0.5031  0.1896
 3790TIP3   OH211375   3.089   5.124   4.567  0.3971 -0.7503 -0.2764
 3790TIP3    H111376   3.030   5.105   4.640 -0.4009  0.3460 -0.6118
 3790TIP3    H211377   3.164   5.067   4.582 -0.4179 -1.6515  0.5667
 3791TIP3   OH211378   4.550   3.496   0.221  0.1519 -0.1103 -0.4975
 3791TIP3    H111379   4.455   3.485   0.215 -0.0806  1.3729  0.0421
 3791TIP3    H211380   4.562   3.566   0.285  1.5100  0.9775 -1.8533
 3792TIP3   OH211381   4.681   3.703   4.180 -0.1601 -0.2601  0.6101
 3792TIP3    H111382   4.665   3.743   4.266 -0.4737  0.6397  0.1485
 3792TIP3    H211383   4.746   3.759   4.138 -1.2955  0.3532 -0.4184
 3793TIP3   OH211384   3.547   1.613   3.416  0.3032  0.1142 -0.2354
 3793TIP3    H111385   3.519   1.579   3.500  0.9952  2.9780  1.2850
 3793TIP3    H211386   3.630   1.568   3.398 -0.2186 -1.0551  0.2183
 3794TIP3   OH211387   4.689   3.341   0.773  0.1185  0.0977 -0.6574
 3794TIP3    H111388   4.752   3.406   0.804  0.3314 -1.8062  3.5421
 3794TIP3    H211389   4.740   3.261   0.760 -0.8064 -0.3811 -1.5358
 3795TIP3   OH211390   1.967   4.428   2.249 -0.2268  0.1931 -0.1578
 3795TIP3    H111391   1.995   4.453   2.162  0.1000 -0.0085 -0.1123
 3795TIP3    H211392   1.963   4.510   2.298  0.9938  0.1414  0.0393
 3796TIP3   OH211393   0.649   2.174   4.128 -0.0493 -0.0280 -0.2063
 3796TIP3    H111394   0.742   2.165   4.148 -0.3168  1.3815  2.0441
 3796TIP3    H211395   0.606   2.172   4.214 -2.1684 -1.2043 -1.2235
 3797TIP3   OH211396   1.015   0.158   2.283 -0.1785 -0.1608  0.2068
 3797TIP3    H111397   1.103   0.121   2.271 -0.5415 -1.2604  0.7473
 3797TIP3    H211398   1.024   0.251   2.262  1.5506  0.1528  2.0414
 3798TIP3   OH211399   3.067   3.012   2.376 -0.1382 -0.3476 -0.8395
 3798TIP3    H111400   2.980   3.010   2.416  0.8014  3.0495  1.8850
 3798TIP3    H211401   3.126   2.986   2.446  1.2939  0.9536 -1.5190
 3799TIP3   OH211402   6.183   1.257   0.652  0.7908  0.4459 -0.7207
 3799TIP3    H111403   6.277   1.267   0.638  0.7617  1.3452 -0.3206
 3799TIP3    H211404   6.160   1.177   0.605  2.0568 -0.6935  0.5202
 3800TIP3   OH211405   4.848   1.003   1.356  0.0858 -0.5272 -0.1349
 3800TIP3    H111406   4.827   1.002   1.262  2.7887 -1.7826 -0.8260
 3800TIP3    H211407   4.766   0.977   1.399 -0.9794 -0.8304 -2.1977
 3801TIP3   OH211408   3.667   5.690   3.102 -0.1575  0.7396  0.0019
 3801TIP3    H111409   3.692   5.720   3.014 -2.3807  0.9079 -0.6414
 3801TIP3    H211410   3.685   5.596   3.101 -2.5815  0.2001 -1.6576
 3802TIP3   OH211411   5.649   3.551   0.592  0.2178 -0.6903 -0.0470
 3802TIP3    H111412   5.656   3.456   0.580  0.1423 -0.7358  0.2647
 3802TIP3    H211413   5.711   3.571   0.662  1.6164 -0.2385 -1.3782
 3803TIP3   OH211414   1.612   1.896   3.404 -0.1946 -0.0465 -0.5430
 3803TIP3    H111415   1.550   1.827   3.427  0.0175  0.0700  0.4317
 3803TIP3    H211416   1.567   1.978   3.427 -0.8485  0.2295 -2.6305
 3804TIP3   OH211417   3.265   1.175   0.344  0.4300 -0.0930 -0.2300
 3804TIP3    H111418   3.172   1.165   0.364  0.7871 -1.4242  0.8759
 3804TIP3    H211419   3.266   1.217   0.257 -1.1771  0.5839  0.0317
 3805TIP3   OH211420   3.451   2.695   3.313 -0.0852 -0.1600 -0.3194
 3805TIP3    H111421   3.474   2.645   3.234 -2.1589  0.7716 -1.5875
 3805TIP3    H211422   3.492   2.780   3.300 -1.0150  0.2316 -0.7579
 3806TIP3   OH211423   0.493   2.391   2.776 -0.0107 -0.2628  0.0052
 3806TIP3    H111424   0.531   2.360   2.693 -1.0017 -2.6282  0.3794
 3806TIP3    H211425   0.570   2.408   2.831  0.6465  0.8234 -1.1640
 3807TIP3   OH211426   2.110   0.827   3.974  0.1272  0.3346  0.4094
 3807TIP3    H111427   2.021   0.833   3.940 -0.0089 -0.6461  0.5736
 3807TIP3    H211428   2.162   0.793   3.900  0.1965  0.0711  0.5765
 3808TIP3   OH211429   3.299   2.347   2.672  0.2729  0.3444 -0.0552
 3808TIP3    H111430   3.385   2.308   2.653 -0.0391 -0.4041  0.0177
 3808TIP3    H211431   3.244   2.272   2.697  0.2236  1.0466  2.2144
 3809TIP3   OH211432   3.413   4.233   4.952 -0.5806 -0.3021 -0.1200
 3809TIP3    H111433   3.460   4.313   4.929  0.4002 -1.0395 -0.7489
 3809TIP3    H211434   3.371   4.206   4.870 -1.9239  0.1990  0.3652
 3810TIP3   OH211435   2.572   2.301   1.153 -0.0558  0.1584 -0.3617
 3810TIP3    H111436   2.507   2.234   1.131 -0.1396  0.0016  0.3392
 3810TIP3    H211437   2.531   2.383   1.128 -0.0808 -0.0226 -0.9359
 3811TIP3   OH211438   1.592   0.512   1.633 -0.1064 -0.0895  0.2146
 3811TIP3    H111439   1.616   0.521   1.541 -0.8750 -0.9156 -0.0829
 3811TIP3    H211440   1.652   0.445   1.667 -0.6160 -0.6656 -0.0045
 3812TIP3   OH211441   2.690   4.803   3.955 -0.2780  0.7301 -0.3701
 3812TIP3    H111442   2.756   4.868   3.930  0.3838 -0.7028 -2.6505
 3812TIP3    H211443   2.611   4.830   3.908 -0.5780  0.9584  0.2523
 3813TIP3   OH211444   3.194   5.473   4.925 -0.4643 -0.3017  0.0794
 3813TIP3    H111445   3.165   5.436   5.008 -2.2079  0.2024 -0.2622
 3813TIP3    H211446   3.138   5.433   4.859  2.3425 -2.4320 -1.2397
 3814TIP3   OH211447   3.163   3.181   1.856 -0.0884  0.7374  0.2116
 3814TIP3    H111448   3.157   3.143   1.943 -0.5697 -1.5188 -0.7224
 3814TIP3    H211449   3.256   3.184   1.837 -0.0570 -1.1062 -0.0950
 3815TIP3   OH211450   3.436   3.397   1.664  0.1333 -0.2582 -0.4120
 3815TIP3    H111451   3.423   3.398   1.570 -1.7789  0.3646 -0.1935
 3815TIP3    H211452   3.490   3.474   1.683 -0.6664  0.4215 -0.8684
 3816TIP3   OH211453   5.882   2.216   4.685 -0.2599  0.4458  0.2344
 3816TIP3    H111454   5.801   2.168   4.701 -0.9756  1.5659  0.0815
 3816TIP3    H211455   5.898   2.263   4.767  0.3052  0.1307  0.3051
 3817TIP3   OH211456   4.049   2.508   2.337  0.0707  0.2034 -0.4680
 3817TIP3    H111457   4.072   2.436   2.278 -0.4623 -0.6266  0.3153
 3817TIP3    H211458   3.954   2.507   2.340  0.0934 -0.0356  0.7190
 3818TIP3   OH211459   6.307   3.890   1.907  0.3930  0.8718 -0.2560
 3818TIP3    H111460   6.352   3.949   1.846  0.9812 -0.1882 -0.8855
 3818TIP3    H211461   6.282   3.946   1.981  1.8236  1.7016 -0.3671
 3819TIP3   OH211462   5.423   3.723   0.959 -0.5063  0.2122  0.3343
 3819TIP3    H111463   5.487   3.778   1.003 -1.0368  1.2557 -0.1669
 3819TIP3    H211464   5.468   3.640   0.945  0.7865  0.9657 -0.1131
 3820TIP3   OH211465   2.248   4.824   0.638 -0.6212 -0.0394 -0.1651
 3820TIP3    H111466   2.232   4.894   0.701  0.7771 -0.6883  0.9631
 3820TIP3    H211467   2.234   4.743   0.688 -0.5023 -0.5673 -0.9677
 3821TIP3   OH211468   3.862   1.866   2.466  0.3003  0.4580  0.1943
 3821TIP3    H111469   3.952   1.840   2.483  0.7782  2.9369  2.0456
 3821TIP3    H211470   3.850   1.851   2.372  2.9826  0.9925 -0.3159
 3822TIP3   OH211471   5.530   0.126   3.337 -0.1444 -0.1301  0.6546
 3822TIP3    H111472   5.622   0.150   3.346  0.2856 -0.4267 -2.0863
 3822TIP3    H211473   5.528   0.032   3.355  0.1121 -0.1471  0.5998
 3823TIP3   OH211474   0.690   2.005   2.978 -0.0060  0.5956 -0.2056
 3823TIP3    H111475   0.635   2.054   2.917  1.6469  1.6498 -0.9251
 3823TIP3    H211476   0.662   1.914   2.968 -0.4396  0.8821 -1.8050
 3824TIP3   OH211477   3.235   4.396   3.945 -0.3946  0.5758 -0.2688
 3824TIP3    H111478   3.268   4.400   3.855  2.0465 -0.4861  0.4776
 3824TIP3    H211479   3.178   4.320   3.947  0.5576 -0.1739 -0.6698
 3825TIP3   OH211480   0.478   4.598   2.663  0.1104 -0.0076  0.6845
 3825TIP3    H111481   0.469   4.609   2.569 -0.1177  1.7104  0.8600
 3825TIP3    H211482   0.482   4.504   2.677 -1.1996 -0.3381 -0.9200
 3826TIP3   OH211483   1.666   3.780   3.193 -0.0110 -0.2807 -0.3006
 3826TIP3    H111484   1.734   3.743   3.249 -0.6791 -1.9473 -0.5312
 3826TIP3    H211485   1.714   3.833   3.129  0.8685  0.4401  0.9001
 3827TIP3   OH211486   3.822   4.010   0.039 -0.0327 -0.2537  0.7297
 3827TIP3    H111487   3.792   4.038   0.125  0.3499 -1.5908  1.3285
 3827TIP3    H211488   3.820   3.914   0.043 -0.8168 -0.3516 -1.0430
 3828TIP3   OH211489   2.114   2.065   1.458 -0.2544  0.2671 -0.0263
 3828TIP3    H111490   2.141   2.120   1.384  0.2084 -1.0238 -0.8610
 3828TIP3    H211491   2.051   2.004   1.420  0.5201 -0.8755  0.4643
 3829TIP3   OH211492   0.370   2.242   4.028  0.6582 -0.0876  0.0142
 3829TIP3    H111493   0.306   2.176   4.001 -0.5910  0.2995  1.8539
 3829TIP3    H211494   0.445   2.192   4.059  1.2421 -0.5507 -1.9732
 3830TIP3   OH211495   3.457   0.866   4.440 -0.4501 -0.4874  0.4100
 3830TIP3    H111496   3.387   0.921   4.476 -1.2972 -2.3380  1.7993
 3830TIP3    H211497   3.524   0.928   4.411 -1.2856  1.2513  1.9728
 3831TIP3   OH211498   0.947   5.855   3.165  0.2786 -0.3152  0.3079
 3831TIP3    H111499   0.951   5.933   3.109  0.5131  0.7389  1.7147
 3831TIP3    H211500   0.917   5.889   3.250  0.3997 -1.7737  0.9599
 3832TIP3   OH211501   1.398   4.833   2.736 -0.4151  0.4992  0.1024
 3832TIP3    H111502   1.350   4.911   2.761 -0.2521  0.5912  0.1278
 3832TIP3    H211503   1.443   4.857   2.654 -1.0210  0.1717 -0.3331
 3833TIP3   OH211504   3.291   0.102   2.994 -0.0213 -0.4717 -0.2253
 3833TIP3    H111505   3.297   0.183   3.045 -1.4047 -1.6596  2.0301
 3833TIP3    H211506   3.381   0.075   2.980  0.4483  1.2819 -0.7664
 3834TIP3   OH211507   1.990   5.180   3.585  0.0365 -0.2352  0.5434
 3834TIP3    H111508   2.007   5.207   3.495  1.1968  1.4642  1.2168
 3834TIP3    H211509   1.947   5.095   3.577  0.2610 -0.2018 -1.5981
 3835TIP3   OH211510   4.471   1.323   2.975  0.4129  0.6078  0.1465
 3835TIP3    H111511   4.549   1.374   2.998  1.3574 -1.7227  2.7957
 3835TIP3    H211512   4.494   1.233   2.996 -2.7380 -0.3106  0.2734
 3836TIP3   OH211513   3.667   1.174   1.777 -0.0266  0.3758 -0.3663
 3836TIP3    H111514   3.647   1.111   1.847  1.0015 -0.2641 -0.6234
 3836TIP3    H211515   3.583   1.191   1.735 -0.6750  0.7805  1.0142
 3837TIP3   OH211516   1.070   2.198   1.064 -0.2266  0.3227 -0.3132
 3837TIP3    H111517   1.031   2.203   0.977  1.1530 -2.3420 -1.2023
 3837TIP3    H211518   1.148   2.253   1.059  0.7010 -1.0086 -1.3455
 3838TIP3   OH211519   0.751   3.351   0.284 -0.2805 -0.4304  0.4784
 3838TIP3    H111520   0.785   3.414   0.220  1.3936  0.2675  1.9766
 3838TIP3    H211521   0.809   3.276   0.276  0.4140 -0.0394  1.6619
 3839TIP3   OH211522   6.293   2.585   0.853 -0.0205 -0.3528 -0.2848
 3839TIP3    H111523   6.294   2.663   0.797  2.2430 -0.7758 -0.9511
 3839TIP3    H211524   6.302   2.618   0.942 -2.0185  0.2471 -0.2634
 3840TIP3   OH211525   2.629   5.136   2.971 -0.8710 -0.2426  0.6757
 3840TIP3    H111526   2.718   5.105   2.985 -0.9065 -2.0134 -2.3035
 3840TIP3    H211527   2.639   5.213   2.916 -1.1710 -1.0052 -0.4761
 3841TIP3   OH211528   3.778   3.161   5.014  0.2301 -0.0966  0.7221
 3841TIP3    H111529   3.855   3.104   5.010  0.1525 -0.1243 -0.9721
 3841TIP3    H211530   3.814   3.250   5.011  0.2751 -0.0469  2.0078
 3842TIP3   OH211531   3.464   3.137   1.814 -0.3289  0.4331 -0.3506
 3842TIP3    H111532   3.466   3.232   1.801  0.1388  0.7376  1.5602
 3842TIP3    H211533   3.546   3.105   1.776 -0.3890  0.8221 -0.8123
 3843TIP3   OH211534   1.235   2.774   4.174 -0.3889 -0.7340 -0.2967
 3843TIP3    H111535   1.149   2.807   4.146  0.7321  0.8302 -2.1558
 3843TIP3    H211536   1.296   2.844   4.150  1.4961 -2.1052  0.3206
 3844TIP3   OH211537   5.634   2.769   4.665 -0.1623  0.4065 -0.0644
 3844TIP3    H111538   5.553   2.722   4.643  0.5822 -1.2784  0.6897
 3844TIP3    H211539   5.704   2.708   4.643  0.8411  1.1071  1.0704
 3845TIP3   OH211540   3.497   3.241   4.411  0.3306  0.5326  0.1035
 3845TIP3    H111541   3.525   3.209   4.325  2.3692 -0.9147  1.2164
 3845TIP3    H211542   3.467   3.163   4.457  0.7146  1.0263  1.2212
 3846TIP3   OH211543   2.939   3.376   0.361  0.0504 -0.3078 -0.5962
 3846TIP3    H111544   2.887   3.381   0.441 -0.3989 -1.4391 -0.7987
 3846TIP3    H211545   3.030   3.385   0.390 -0.1428 -0.1962 -0.0273
 3847TIP3   OH211546   3.449   1.145   2.256 -1.0509 -0.3023 -0.6152
 3847TIP3    H111547   3.523   1.178   2.206 -0.7003  2.0511  1.3086
 3847TIP3    H211548   3.469   1.053   2.270  1.0000  0.0334 -1.0023
 3848TIP3   OH211549   5.159   4.938   2.502 -0.0497  0.3070 -0.6551
 3848TIP3    H111550   5.109   4.870   2.456 -1.2630  1.1624 -0.6595
 3848TIP3    H211551   5.249   4.927   2.471 -0.3849 -0.7230 -1.3219
 3849TIP3   OH211552   1.812   2.318   2.779 -0.0849  0.2773  0.6006
 3849TIP3    H111553   1.730   2.281   2.745  1.0923 -0.4015 -1.6456
 3849TIP3    H211554   1.857   2.242   2.818  0.0901  0.3874  0.6112
 3850TIP3   OH211555   3.507   4.620   3.568 -0.2573  0.0591 -0.0604
 3850TIP3    H111556   3.537   4.533   3.594 -0.1022 -0.1487 -0.9105
 3850TIP3    H211557   3.441   4.604   3.501  0.4447  0.6000 -0.9147
 3851TIP3   OH211558   2.333   5.362   4.185  0.4223  0.0567 -0.0299
 3851TIP3    H111559   2.385   5.380   4.107 -0.3032 -0.8690 -0.7550
 3851TIP3    H211560   2.246   5.338   4.151 -0.0488  0.1193  1.0795
 3852TIP3   OH211561   0.248   5.701   4.032  0.5661  0.4988  0.1362
 3852TIP3    H111562   0.280   5.613   4.009 -0.2136  0.3785 -0.5524
 3852TIP3    H211563   0.320   5.741   4.081  1.1984 -0.2782 -0.1361
 3853TIP3   OH211564   5.629   4.945   1.304 -0.6026 -0.0262 -0.3489
 3853TIP3    H111565   5.600   4.883   1.372 -0.8854 -1.1515 -1.4679
 3853TIP3    H211566   5.553   4.955   1.247  0.2584 -0.7202 -1.6572
 3854TIP3   OH211567   3.445   3.450   4.806 -0.3504 -0.3091  0.3061
 3854TIP3    H111568   3.422   3.500   4.727 -1.3461 -1.8013 -0.3917
 3854TIP3    H211569   3.503   3.509   4.855  0.3478  0.6447 -1.5515
 3855TIP3   OH211570   0.936   2.346   0.484  0.4876  0.6265  0.0102
 3855TIP3    H111571   0.944   2.273   0.545  0.4148  1.0956  0.5793
 3855TIP3    H211572   0.898   2.306   0.405 -3.4340  0.6920  1.6293
 3856TIP3   OH211573   5.279   4.113   3.599  0.8885  0.0655  0.4335
 3856TIP3    H111574   5.264   4.194   3.648  3.7659  1.5432 -0.8536
 3856TIP3    H211575   5.257   4.136   3.508  1.4742 -0.6820  0.0945
 3857TIP3   OH211576   0.450   2.111   0.088  0.0056 -0.0275 -0.4144
 3857TIP3    H111577   0.462   2.116  -0.006 -1.7596 -2.5681 -0.8779
 3857TIP3    H211578   0.371   2.161   0.106 -0.7317 -1.0963 -0.6016
 3858TIP3   OH211579   0.737   0.335   1.165 -0.1205 -0.0851 -0.5012
 3858TIP3    H111580   0.773   0.251   1.193 -1.1322 -0.8040 -1.2737
 3858TIP3    H211581   0.708   0.320   1.075 -1.0679  0.8570 -0.3772
 3859TIP3   OH211582   2.893   0.125   0.926 -0.4260 -0.3364 -0.4361
 3859TIP3    H111583   2.940   0.045   0.904  0.4730 -0.4172  1.6119
 3859TIP3    H211584   2.809   0.094   0.960 -0.4608 -0.3531 -0.5353
 3860TIP3   OH211585   0.947   1.089   0.374  0.3270 -0.5619 -0.2369
 3860TIP3    H111586   0.992   1.004   0.370  0.5331 -0.4163 -1.0669
 3860TIP3    H211587   0.956   1.126   0.287  2.7879  1.6714  0.8440
 3861TIP3   OH211588   0.676   4.332   0.626  0.4630 -0.6040 -0.3390
 3861TIP3    H111589   0.697   4.321   0.719  0.8453 -1.9661 -0.5656
 3861TIP3    H211590   0.757   4.310   0.580 -0.8395 -4.3122 -1.1605
 3862TIP3   OH211591   5.621   1.598   1.571  0.1300 -0.3004  0.0942
 3862TIP3    H111592   5.677   1.675   1.565  0.8035 -0.8666 -1.3073
 3862TIP3    H211593   5.539   1.624   1.528 -0.4132  0.2526  1.4008
 3863TIP3   OH211594   4.863   4.233   4.252  0.1528  0.3261  0.9048
 3863TIP3    H111595   4.776   4.202   4.278  1.2638 -1.8409  2.3760
 3863TIP3    H211596   4.921   4.160   4.273  2.2332  1.3702 -0.8696
 3864TIP3   OH211597   0.709   1.921   0.872  0.7645 -0.1857  0.0292
 3864TIP3    H111598   0.743   1.916   0.962  1.2287 -0.6270 -0.1674
 3864TIP3    H211599   0.623   1.880   0.877  0.9575 -0.5828  0.1961
 3865TIP3   OH211600   1.377   1.362   1.165 -0.0524 -0.2278 -0.3639
 3865TIP3    H111601   1.282   1.373   1.156 -0.1715 -0.3945  0.6051
 3865TIP3    H211602   1.387   1.282   1.216  0.6300 -0.4875 -0.8939
 3866TIP3   OH211603   1.344   3.285   4.104 -0.3704  0.2273  0.1619
 3866TIP3    H111604   1.295   3.367   4.113  0.5921  0.9796 -1.0691
 3866TIP3    H211605   1.302   3.240   4.031 -0.0719  0.2670 -0.0390
 3867TIP3   OH211606   2.424   2.489   4.795  0.4198  0.6178 -0.2278
 3867TIP3    H111607   2.404   2.417   4.855 -1.4268  1.3437  0.1087
 3867TIP3    H211608   2.487   2.543   4.843  0.7379 -0.0267  0.0895
 3868TIP3   OH211609   1.369   0.493   4.640 -0.0160 -0.5424  0.0848
 3868TIP3    H111610   1.348   0.577   4.598 -1.3767 -0.4399  0.9316
 3868TIP3    H211611   1.285   0.456   4.665  0.6584 -1.4782  1.0768
 3869TIP3   OH211612   0.446   2.431   1.556 -0.3923 -0.5835  0.0855
 3869TIP3    H111613   0.456   2.482   1.636 -0.8737 -1.5035  0.7544
 3869TIP3    H211614   0.497   2.352   1.571 -0.7861 -0.9340 -0.3724
 3870TIP3   OH211615   5.960   3.296   1.731  0.7604  0.5236  0.0769
 3870TIP3    H111616   5.987   3.205   1.734 -0.1298  0.1319 -2.1166
 3870TIP3    H211617   6.041   3.346   1.747  1.6300 -0.6290 -0.6134
 3871TIP3   OH211618   5.722   1.682   0.496  0.0729 -0.1965 -0.3543
 3871TIP3    H111619   5.636   1.658   0.532  0.2680  1.2799  1.2072
 3871TIP3    H211620   5.771   1.600   0.495 -0.4283 -0.5709  1.4685
 3872TIP3   OH211621   1.783   5.880   3.941 -0.7123  0.5053 -0.2949
 3872TIP3    H111622   1.690   5.857   3.938 -0.4515 -0.9529  1.4998
 3872TIP3    H211623   1.821   5.820   4.004  0.8545  3.1559  1.4932
 3873TIP3   OH211624   3.122   3.075   0.276  0.9619 -0.4505  0.3100
 3873TIP3    H111625   3.033   3.099   0.251  0.9323 -0.4032  0.4624
 3873TIP3    H211626   3.113   3.034   0.362  0.7655 -2.6878 -0.7122
 3874TIP3   OH211627   0.625   0.421   3.797 -0.2204  0.3399 -0.2828
 3874TIP3    H111628   0.579   0.419   3.713 -1.4983  2.4911  0.3020
 3874TIP3    H211629   0.568   0.372   3.857 -0.1302  0.2272 -0.2882
 3875TIP3   OH211630   0.675   2.599   1.426  0.0247  0.1460  0.0679
 3875TIP3    H111631   0.736   2.670   1.445  0.5599  0.0727 -1.2280
 3875TIP3    H211632   0.658   2.558   1.511  1.5860  0.3243  0.4964
 3876TIP3   OH211633   1.930   1.135   3.779 -0.6581 -0.1740  0.0661
 3876TIP3    H111634   1.953   1.098   3.693  1.5607  2.3142 -0.5641
 3876TIP3    H211635   1.873   1.069   3.819 -0.3558 -2.2392 -2.5824
 3877TIP3   OH211636   1.543   1.553   1.090 -0.0203 -0.0077  0.0692
 3877TIP3    H111637   1.536   1.541   0.995 -1.2497  0.1669  0.1247
 3877TIP3    H211638   1.489   1.483   1.126  1.1547 -0.6299  0.6831
 3878TIP3   OH211639   1.996   3.924   3.154 -0.1599  0.2167  0.8143
 3878TIP3    H111640   1.919   3.979   3.172  0.8069  2.6183 -1.6216
 3878TIP3    H211641   1.969   3.871   3.079  0.0349 -0.0849  0.9605
 3879TIP3   OH211642   2.459   3.591   0.844  0.0724 -0.5004  0.3608
 3879TIP3    H111643   2.402   3.553   0.777  0.0943 -1.0215  0.6324
 3879TIP3    H211644   2.516   3.651   0.796  0.0215 -0.7950 -0.0749
 3880TIP3   OH211645   2.695   3.681   4.052  0.0934 -0.3306  0.0544
 3880TIP3    H111646   2.692   3.598   4.005 -0.3280 -0.4208  0.2337
 3880TIP3    H211647   2.629   3.672   4.121  0.7249 -0.2180  0.6842
 3881TIP3   OH211648   4.104   5.663   2.236 -0.4222 -0.3170 -0.1201
 3881TIP3    H111649   4.126   5.669   2.143  0.1480 -0.2546  0.0111
 3881TIP3    H211650   4.011   5.641   2.238 -0.6370  0.5039 -0.6905
 3882TIP3   OH211651   4.453   4.382   3.875 -0.3726  0.0828  0.1484
 3882TIP3    H111652   4.444   4.299   3.923 -2.5736  0.8752  1.2571
 3882TIP3    H211653   4.373   4.386   3.821  1.1322  0.1278 -2.2109
 3883TIP3   OH211654   2.884   5.764   0.995  0.6774 -0.2278 -0.6701
 3883TIP3    H111655   2.963   5.793   1.041 -0.8566  1.8646  0.8232
 3883TIP3    H211656   2.873   5.825   0.923  0.2809 -0.3288 -0.7009
 3884TIP3   OH211657   1.878   5.334   3.037  0.2887  0.8649 -0.4796
 3884TIP3    H111658   1.891   5.428   3.031 -0.4581  1.1064  1.1800
 3884TIP3    H211659   1.784   5.323   3.053  0.6020 -0.0586  0.9031
 3885TIP3   OH211660   3.600   4.586   0.825 -0.1062 -0.2141  0.1040
 3885TIP3    H111661   3.615   4.527   0.751 -0.8167 -0.3754  0.0816
 3885TIP3    H211662   3.687   4.606   0.858  0.2908  0.6489 -1.3943
 3886TIP3   OH211663   1.577   0.046   2.298 -0.0068 -0.9095  0.0775
 3886TIP3    H111664   1.623   0.073   2.377 -0.6361  1.2650 -0.2314
 3886TIP3    H211665   1.644   0.003   2.244  1.0019 -0.2008  0.7366
 3887TIP3   OH211666   2.122   0.659   4.648 -0.0874  0.7570  0.2043
 3887TIP3    H111667   2.165   0.574   4.646 -0.2310  0.6931 -0.1881
 3887TIP3    H211668   2.166   0.710   4.580 -0.6546  0.6758 -0.2376
 3888TIP3   OH211669   6.276   5.349   0.175  0.0149  0.0552  0.2855
 3888TIP3    H111670   6.342   5.368   0.109 -0.0119 -0.0264  0.2350
 3888TIP3    H211671   6.227   5.430   0.185  0.7118  0.4121  0.9920
 3889TIP3   OH211672   2.848   5.899   2.312  0.1860  0.1094 -0.2602
 3889TIP3    H111673   2.802   5.891   2.396  0.5805  0.8232  0.0380
 3889TIP3    H211674   2.861   5.993   2.301  0.4404 -0.0039 -0.9598
 3890TIP3   OH211675   2.103   5.372   4.053  0.1546  0.0143 -0.2317
 3890TIP3    H111676   2.080   5.450   4.103 -1.9100 -0.9442  0.3879
 3890TIP3    H211677   2.019   5.333   4.029  1.0958 -2.6393  0.4657
 3891TIP3   OH211678   2.106   5.957   4.284 -0.1114  0.2691 -0.1837
 3891TIP3    H111679   2.111   5.953   4.188  1.5825 -0.8623 -0.0919
 3891TIP3    H211680   2.196   5.944   4.313 -0.7749 -0.6031  1.6080
 3892TIP3   OH211681   2.581   2.427   2.958  0.2894  0.4341  0.1111
 3892TIP3    H111682   2.541   2.512   2.944 -2.8441 -0.7243  1.2019
 3892TIP3    H211683   2.580   2.415   3.053 -1.3165 -1.5985 -0.0831
 3893TIP3   OH211684   4.918   2.035   3.513 -0.5531  0.0073  0.4755
 3893TIP3    H111685   4.871   2.108   3.473 -1.4827 -0.1300  1.2904
 3893TIP3    H211686   4.865   1.958   3.492  0.3080 -0.4279 -0.1943
 3894TIP3   OH211687   1.965   5.401   5.035  0.5850  0.2421 -0.6362
 3894TIP3    H111688   2.057   5.427   5.035  0.0266  2.5514 -1.7649
 3894TIP3    H211689   1.927   5.448   5.110  0.8640 -3.4456  2.0819
 3895TIP3   OH211690   1.523   0.185   0.892  0.4741  0.0978 -0.5527
 3895TIP3    H111691   1.447   0.242   0.897  0.8157  0.6669 -1.6629
 3895TIP3    H211692   1.534   0.153   0.982 -0.5641  0.6563 -0.2064
 3896TIP3   OH211693   6.029   4.293   1.220 -1.1067  0.6983  0.2215
 3896TIP3    H111694   6.080   4.250   1.288  0.0022  1.5099 -0.0650
 3896TIP3    H211695   5.939   4.293   1.254 -0.9411 -0.7692  0.7242
 3897TIP3   OH211696   6.060   3.025   1.108  0.3441 -0.2492 -0.7989
 3897TIP3    H111697   5.991   3.064   1.055 -0.3478 -0.5173 -0.1110
 3897TIP3    H211698   6.120   3.097   1.127 -1.1550  0.6441  0.8477
 3898TIP3   OH211699   6.080   2.681   3.169 -0.2443 -0.3180 -0.0256
 3898TIP3    H111700   6.157   2.721   3.128 -1.0361  4.0177  2.1890
 3898TIP3    H211701   6.116   2.606   3.217  2.2395  0.3431 -0.6742
 3899TIP3   OH211702   4.223   3.580   2.009  0.1055 -0.0738 -0.1933
 3899TIP3    H111703   4.275   3.646   2.054 -0.4677  0.1438  0.1600
 3899TIP3    H211704   4.255   3.497   2.043 -0.2361  0.0834  0.5292
 3900TIP3   OH211705   5.743   0.552   3.274 -0.1815 -0.2653 -1.1321
 3900TIP3    H111706   5.652   0.583   3.275 -0.3739 -0.7578  0.6114
 3900TIP3    H211707   5.793   0.625   3.309 -0.3681 -1.0899  1.0065
 3901TIP3   OH211708   3.751   0.053   0.252  0.2193  0.7426  0.2401
 3901TIP3    H111709   3.825   0.083   0.305  0.9938  1.6642 -1.3035
 3901TIP3    H211710   3.700   0.132   0.235 -0.3471  0.3508  0.0998
 3902TIP3   OH211711   3.547   1.584   3.010  0.0038  0.0544 -0.0793
 3902TIP3    H111712   3.452   1.576   2.998  0.3497 -2.4324 -2.2020
 3902TIP3    H211713   3.558   1.653   3.075 -3.3844 -1.5001  2.4618
 3903TIP3   OH211714   5.660   5.688   0.113  0.2195  0.1554  0.2434
 3903TIP3    H111715   5.683   5.671   0.022 -0.3178  0.7044  0.0042
 3903TIP3    H211716   5.743   5.710   0.155  0.7287 -1.6093  0.2496
 3904TIP3   OH211717   3.699   0.842   4.657 -0.1328  0.0074 -0.4711
 3904TIP3    H111718   3.704   0.750   4.682  2.6499  0.0763 -0.5670
 3904TIP3    H211719   3.699   0.841   4.561  0.0650  0.1141 -0.4726
 3905TIP3   OH211720   2.746   4.856   4.488  0.2532  0.1951 -0.3470
 3905TIP3    H111721   2.736   4.779   4.431 -1.7060 -1.2526  1.7455
 3905TIP3    H211722   2.709   4.828   4.572  2.7377  2.3044  1.6090
 3906TIP3   OH211723   4.078   0.214   2.409 -0.3720 -0.2489 -0.6265
 3906TIP3    H111724   3.991   0.180   2.430 -0.6847  0.5139 -0.6615
 3906TIP3    H211725   4.090   0.193   2.316 -0.4033 -0.5941 -0.5551
 3907TIP3   OH211726   0.364   0.182   2.789  0.1761 -0.0203  0.0162
 3907TIP3    H111727   0.313   0.241   2.734  1.9791 -0.4866 -2.3145
 3907TIP3    H211728   0.323   0.096   2.776  0.6809 -0.1530 -0.7302
 3908TIP3   OH211729   5.812   1.787   0.733 -0.0877  0.0795 -0.0575
 3908TIP3    H111730   5.804   1.707   0.681 -1.2184 -0.2717  0.6124
 3908TIP3    H211731   5.843   1.757   0.818 -1.2737  0.2262  0.4519
 3909TIP3   OH211732   2.748   0.420   1.726 -0.6449 -0.1743 -0.3708
 3909TIP3    H111733   2.738   0.431   1.631  1.0700  2.7046 -0.3654
 3909TIP3    H211734   2.685   0.480   1.764  1.0390  1.3924  0.1265
 3910TIP3   OH211735   6.216   5.280   4.768  1.1968 -0.0336  0.1930
 3910TIP3    H111736   6.301   5.293   4.727  1.4706  1.3646  1.1483
 3910TIP3    H211737   6.234   5.226   4.845  1.0388 -0.6252 -0.1732
 3911TIP3   OH211738   0.962   5.284   4.591 -0.6806 -0.4620  0.2122
 3911TIP3    H111739   0.925   5.326   4.513 -1.7740 -0.3633  0.7693
 3911TIP3    H211740   0.986   5.357   4.648  2.3361 -0.4044 -0.9339
 3912TIP3   OH211741   4.901   2.741  -0.017  0.0635 -0.3646 -0.1483
 3912TIP3    H111742   4.929   2.679   0.049 -2.2673 -1.7729 -0.3643
 3912TIP3    H211743   4.864   2.814   0.033 -0.1388 -0.6501  0.1253
 3913TIP3   OH211744   4.290   4.638   1.520  0.1544  0.2564 -0.3585
 3913TIP3    H111745   4.278   4.722   1.477 -0.9160 -0.3508 -1.3036
 3913TIP3    H211746   4.222   4.582   1.483 -0.0765 -0.6287  1.2932
 3914TIP3   OH211747   1.864   4.401   4.034  0.6226  0.0083 -0.1463
 3914TIP3    H111748   1.909   4.333   4.084  1.4936  0.4282 -0.3369
 3914TIP3    H211749   1.778   4.364   4.016  1.5535 -1.6938 -1.4904
 3915TIP3   OH211750   0.797   4.053   0.502 -0.6885 -0.4318 -0.0085
 3915TIP3    H111751   0.869   4.116   0.507 -2.4677  1.7863 -0.7587
 3915TIP3    H211752   0.841   3.968   0.503  1.7723  0.6834  2.3310
 3916TIP3   OH211753   0.042   2.752   4.150 -0.2076 -0.0208 -0.0292
 3916TIP3    H111754   0.029   2.821   4.085  1.8789 -0.7849 -1.3504
 3916TIP3    H211755   0.048   2.799   4.233 -1.5258  1.1049 -0.5113
 3917TIP3   OH211756   2.198   4.833   1.423 -0.3634  0.4668  0.5265
 3917TIP3    H111757   2.103   4.836   1.435 -0.4083 -0.3957  0.4485
 3917TIP3    H211758   2.210   4.798   1.335  0.0305  0.9493  0.3817
 3918TIP3   OH211759   2.625   2.252   3.246 -0.1208 -0.1709  0.1258
 3918TIP3    H111760   2.548   2.240   3.302 -0.1238  1.0877  0.4197
 3918TIP3    H211761   2.700   2.244   3.306 -0.0710 -0.0946  0.0731
 3919TIP3   OH211762   0.036   3.396   2.347 -0.1714 -0.2416  0.4336
 3919TIP3    H111763   0.010   3.304   2.359  1.3619 -1.1985 -2.7161
 3919TIP3    H211764   0.041   3.408   2.253 -0.6182  3.2505  0.7119
 3920TIP3   OH211765   2.807   1.805   5.050  0.0228  0.4921 -0.4673
 3920TIP3    H111766   2.717   1.814   5.019  0.0182 -1.0593 -1.0023
 3920TIP3    H211767   2.856   1.871   5.001 -0.8532  1.5624  0.0566
 3921TIP3   OH211768   5.737   2.390   2.067  0.1684  0.3721  0.1504
 3921TIP3    H111769   5.679   2.400   1.991  1.9405  0.1869 -1.3031
 3921TIP3    H211770   5.713   2.304   2.103  0.0604 -0.0660 -0.9119
 3922TIP3   OH211771   1.512   2.989   2.271  0.2357 -0.3730 -0.2853
 3922TIP3    H111772   1.599   3.013   2.304 -0.1474  0.2078  0.3361
 3922TIP3    H211773   1.477   2.928   2.337  0.9389 -2.2078 -1.5245
 3923TIP3   OH211774   2.539   1.148   3.067  0.0172  0.3534  0.0986
 3923TIP3    H111775   2.603   1.078   3.054  1.4461  1.8716 -1.4560
 3923TIP3    H211776   2.460   1.116   3.024  0.9596  0.0908 -1.5224
 3924TIP3   OH211777   1.125   4.031   3.684  0.2380 -0.0146 -0.5575
 3924TIP3    H111778   1.103   4.058   3.595 -0.0429  0.3709 -0.3749
 3924TIP3    H211779   1.171   3.948   3.673  0.1573  0.0018 -1.0578
 3925TIP3   OH211780   3.649   4.679   1.495 -0.3180  0.1214 -0.2513
 3925TIP3    H111781   3.637   4.598   1.446 -0.9377  0.9399 -1.5066
 3925TIP3    H211782   3.580   4.677   1.561 -1.7685  0.6196 -1.6890
 3926TIP3   OH211783   2.968   3.872   3.880  0.4310 -0.1967 -0.1071
 3926TIP3    H111784   2.974   3.807   3.810  1.4098  1.3041 -1.4978
 3926TIP3    H211785   2.874   3.887   3.891  0.2738  0.0141 -1.5823
 3927TIP3   OH211786   2.738   0.984   3.265  0.3518  0.0062  0.0761
 3927TIP3    H111787   2.826   0.945   3.268 -0.4457 -1.8693  1.1648
 3927TIP3    H211788   2.736   1.033   3.183  2.4551  0.2351  0.1053
 3928TIP3   OH211789   3.641   5.037   0.423 -0.0491  0.0890  0.1636
 3928TIP3    H111790   3.667   4.963   0.478  1.1806 -0.0524 -0.5905
 3928TIP3    H211791   3.549   5.052   0.446 -0.7891 -2.5856 -0.6832
 3929TIP3   OH211792   4.480   1.589   0.569 -0.2852  0.1161  0.4763
 3929TIP3    H111793   4.565   1.552   0.593  0.7519  1.3760 -1.0582
 3929TIP3    H211794   4.473   1.669   0.620 -1.0084 -0.4559  1.3023
 3930TIP3   OH211795   5.172   0.771   1.293 -0.6659 -0.9049  0.2157
 3930TIP3    H111796   5.109   0.767   1.222 -0.5395  1.6125 -0.1364
 3930TIP3    H211797   5.254   0.739   1.255 -0.8003 -0.3557 -0.5426
 3931TIP3   OH211798   0.294   3.148   3.129  0.5571  0.1033  0.4080
 3931TIP3    H111799   0.330   3.085   3.067 -0.5126  1.9816 -2.3475
 3931TIP3    H211800   0.306   3.108   3.215  2.5357 -2.4752 -0.9445
 3932TIP3   OH211801   3.843   1.768   0.196 -0.6504 -0.5630  0.6345
 3932TIP3    H111802   3.922   1.815   0.226  0.3625 -1.4411 -0.5792
 3932TIP3    H211803   3.784   1.771   0.271 -0.6206  2.5730  0.6708
 3933TIP3   OH211804   1.947   0.241   2.817 -0.0147  0.2849  0.0186
 3933TIP3    H111805   1.977   0.162   2.861 -1.6774 -0.8112 -0.6929
 3933TIP3    H211806   1.949   0.308   2.884  1.8399 -0.2339  0.5319
 3934TIP3   OH211807   3.752   0.468   0.375 -0.6053  0.1805  0.4797
 3934TIP3    H111808   3.682   0.515   0.328 -1.0532 -1.3402 -0.4298
 3934TIP3    H211809   3.826   0.468   0.313 -0.8255 -0.8510  0.1993
 3935TIP3   OH211810   5.443   5.858   2.312  0.6393 -0.6033 -0.1343
 3935TIP3    H111811   5.386   5.830   2.384  2.6171 -0.7669  1.4372
 3935TIP3    H211812   5.470   5.947   2.336  0.1838 -0.0870 -1.4375
 3936TIP3   OH211813   6.183   5.148   3.557 -0.0161 -0.0358 -0.1032
 3936TIP3    H111814   6.183   5.194   3.641  1.9198 -1.8984  1.0266
 3936TIP3    H211815   6.092   5.120   3.546 -0.4187  0.7087  1.1041
 3937TIP3   OH211816   6.321   4.337   1.809 -0.1296 -0.4045 -0.8738
 3937TIP3    H111817   6.240   4.310   1.765 -2.1339 -0.5651  2.5661
 3937TIP3    H211818   6.302   4.424   1.843  1.2496 -0.3112 -0.2736
 3938TIP3   OH211819   6.270   2.374   5.000 -0.2872 -0.3438 -0.1821
 3938TIP3    H111820   6.206   2.442   5.021 -0.4537 -1.2519  2.7973
 3938TIP3    H211821   6.218   2.304   4.960 -0.7668 -0.1542  0.0936
 3939TIP3   OH211822   2.420   2.182   0.363 -0.1885 -0.8783  0.6888
 3939TIP3    H111823   2.367   2.124   0.309  1.3606 -0.7448 -1.0637
 3939TIP3    H211824   2.505   2.139   0.370  1.4146  1.5841 -1.6787
 3940TIP3   OH211825   1.627   5.619   3.238 -0.4810 -0.0208 -0.1183
 3940TIP3    H111826   1.566   5.676   3.285 -1.0224 -1.1782  0.6252
 3940TIP3    H211827   1.711   5.665   3.242 -1.0019  0.9614  0.0099
 3941TIP3   OH211828   0.275   4.860   0.151  0.2803  0.2690 -0.2129
 3941TIP3    H111829   0.353   4.910   0.128  0.0488  0.7268 -0.0362
 3941TIP3    H211830   0.254   4.810   0.073  1.5884 -0.9920  0.2054
 3942TIP3   OH211831   1.960   5.444   0.374 -0.0143  0.2525 -0.0342
 3942TIP3    H111832   2.025   5.375   0.356  0.3926  0.7623 -0.5577
 3942TIP3    H211833   1.920   5.461   0.289 -0.1748  0.6094  0.1136
 3943TIP3   OH211834   4.659   0.322   5.076 -0.2657 -0.1670  0.5083
 3943TIP3    H111835   4.680   0.242   5.027  1.7891  1.9466 -2.3819
 3943TIP3    H211836   4.597   0.369   5.020  0.2480  1.2431  1.0906
 3944TIP3   OH211837   3.985   0.270   4.075  0.0064 -0.2898 -0.4572
 3944TIP3    H111838   3.922   0.238   4.140 -0.4381 -0.0866 -0.7914
 3944TIP3    H211839   4.060   0.299   4.127  0.0128 -0.9479 -0.0842
 3945TIP3   OH211840   4.769   2.903   0.159 -0.2139  0.1597 -0.2853
 3945TIP3    H111841   4.766   2.971   0.226  1.0213 -0.1515  0.0958
 3945TIP3    H211842   4.714   2.832   0.194 -0.2397  0.3267  0.0145
 3946TIP3   OH211843   2.990   0.158   1.646 -0.0880 -0.8446 -0.0875
 3946TIP3    H111844   3.074   0.163   1.600  1.5254 -1.0419  2.6075
 3946TIP3    H211845   3.008   0.105   1.723 -3.4665 -3.3565 -0.8197
 3947TIP3   OH211846   5.007   5.066   4.574  0.5362  0.1018  0.0638
 3947TIP3    H111847   5.012   5.145   4.521 -0.5857 -1.3034 -2.2639
 3947TIP3    H211848   5.064   5.004   4.530  0.7105 -0.6864  1.3534
 3948TIP3   OH211849   5.266   5.614   4.658 -0.0810  0.8936 -0.9093
 3948TIP3    H111850   5.229   5.624   4.746  0.4085  0.1940 -0.6154
 3948TIP3    H211851   5.360   5.601   4.673 -0.4297 -3.1792 -1.2149
 3949TIP3   OH211852   5.725   2.634   0.465 -0.0160  0.6650  0.6973
 3949TIP3    H111853   5.757   2.714   0.424 -4.0471  0.6497 -3.3581
 3949TIP3    H211854   5.648   2.663   0.515  0.0499 -0.3633  1.4030
 3950TIP3   OH211855   1.562   2.981   2.656  0.1830  0.0611 -0.4370
 3950TIP3    H111856   1.548   2.893   2.622 -2.2055  0.6373 -1.1263
 3950TIP3    H211857   1.480   3.003   2.702  0.0897  2.4506 -1.5633
 3951TIP3   OH211858   1.509   3.868   2.589 -0.9940 -0.4373  0.4383
 3951TIP3    H111859   1.488   3.786   2.546 -1.8544 -0.4518  0.8613
 3951TIP3    H211860   1.423   3.910   2.604 -0.6522 -0.0380  1.3383
 3952TIP3   OH211861   2.626   4.751   4.721 -0.0913  0.0667  0.3393
 3952TIP3    H111862   2.534   4.730   4.705 -0.1795 -0.0606  0.9797
 3952TIP3    H211863   2.672   4.667   4.713  0.1965  0.3710 -1.4740
 3953TIP3   OH211864   5.544   5.994   3.687  0.2136 -1.0503 -0.0717
 3953TIP3    H111865   5.617   5.932   3.684 -0.0219 -1.3385  0.2319
 3953TIP3    H211866   5.489   5.964   3.759  0.4507 -0.1054  0.5280
 3954TIP3   OH211867   5.283   0.702   0.875 -0.2071  0.0923 -0.6467
 3954TIP3    H111868   5.298   0.663   0.788  1.2821 -2.1009  0.4936
 3954TIP3    H211869   5.237   0.634   0.924 -2.1620  1.7724 -0.0072
 3955TIP3   OH211870   2.240   0.085   2.167 -0.5622  0.7214 -0.3253
 3955TIP3    H111871   2.173   0.042   2.220  0.5503 -1.3997 -0.5644
 3955TIP3    H211872   2.201   0.089   2.080 -1.2459  1.6042 -0.0060
 3956TIP3   OH211873   2.941   3.741   2.187 -0.1117 -0.2578  0.0541
 3956TIP3    H111874   2.963   3.824   2.144  1.2294 -1.1783 -1.1327
 3956TIP3    H211875   2.947   3.760   2.281  3.1408  0.3160 -0.1573
 3957TIP3   OH211876   1.300   5.895   3.688 -0.5209  0.1058  0.1367
 3957TIP3    H111877   1.268   5.924   3.773 -0.2853 -0.0050  0.2652
 3957TIP3    H211878   1.253   5.949   3.624 -2.1548 -1.1220  0.2300
 3958TIP3   OH211879   5.179   1.582   0.702  0.1412  0.4567  0.3338
 3958TIP3    H111880   5.173   1.511   0.766  1.7515  1.2375  1.4320
 3958TIP3    H211881   5.150   1.543   0.620 -0.3522 -1.0622  1.1875
 3959TIP3   OH211882   0.923   2.360   1.642 -0.2878 -0.2777 -0.7959
 3959TIP3    H111883   0.842   2.412   1.645 -0.7149 -0.9698  0.4145
 3959TIP3    H211884   0.957   2.374   1.554 -0.6373  1.6791 -0.6755
 3960TIP3   OH211885   0.561   4.286   4.355 -0.7146  0.0504 -0.3567
 3960TIP3    H111886   0.466   4.285   4.372 -0.6173  0.1704  0.2383
 3960TIP3    H211887   0.579   4.377   4.329 -0.5907  0.3304  0.6475
 3961TIP3   OH211888   3.709   2.739   4.555  0.0008 -0.6515 -0.8279
 3961TIP3    H111889   3.710   2.834   4.564 -0.5155 -0.7686  0.8796
 3961TIP3    H211890   3.798   2.712   4.578 -0.3779 -0.6839  0.7532
 3962TIP3   OH211891   5.731   1.967   4.467 -0.0704  0.1871  0.4108
 3962TIP3    H111892   5.776   2.038   4.513  0.7050  0.6688 -1.0111
 3962TIP3    H211893   5.754   1.888   4.515  1.5042  0.5550  0.3139
 3963TIP3   OH211894   4.898   5.377   2.774 -0.2440 -0.1112  0.4917
 3963TIP3    H111895   4.943   5.420   2.701  0.4861 -2.0397 -0.2621
 3963TIP3    H211896   4.961   5.380   2.846  0.7332 -1.8337 -0.2352
 3964TIP3   OH211897   3.343   4.528   3.378 -0.1996 -0.4154 -0.0223
 3964TIP3    H111898   3.372   4.467   3.311  0.6862 -0.0984  0.0630
 3964TIP3    H211899   3.248   4.517   3.381 -0.2135 -0.6552 -1.1009
 3965TIP3   OH211900   5.575   4.204   0.233 -0.1247 -0.1022  0.1955
 3965TIP3    H111901   5.556   4.292   0.264 -2.1493  0.1292 -1.4330
 3965TIP3    H211902   5.523   4.146   0.289 -0.2500 -0.0886  0.0940
 3966TIP3   OH211903   4.084   0.657   3.529 -0.2132  0.4723  0.4411
 3966TIP3    H111904   4.169   0.615   3.532 -0.5485 -0.4263 -1.4618
 3966TIP3    H211905   4.022   0.589   3.555 -0.4861  0.7187  0.4489
 3967TIP3   OH211906   1.496   2.506   0.308  0.2574 -0.8338  0.3756
 3967TIP3    H111907   1.534   2.574   0.364  2.4708 -0.4458 -1.4742
 3967TIP3    H211908   1.550   2.429   0.325 -1.6279 -1.9327  1.7238
 3968TIP3   OH211909   0.472   3.428   2.280  0.4438  0.3650  0.3640
 3968TIP3    H111910   0.447   3.336   2.279  2.7725 -0.3512  1.3799
 3968TIP3    H211911   0.393   3.474   2.309 -1.3238 -1.0545 -1.8941
 3969TIP3   OH211912   3.457   4.031   4.668 -1.0399  0.5923  0.0162
 3969TIP3    H111913   3.546   4.065   4.679 -1.1785  1.0242 -0.1743
 3969TIP3    H211914   3.436   4.048   4.576 -2.1136  2.4663  0.5479
 3970TIP3   OH211915   4.144   4.669   0.315  0.5635 -0.0458 -0.0747
 3970TIP3    H111916   4.113   4.580   0.298 -1.1833  0.7136 -1.1877
 3970TIP3    H211917   4.172   4.668   0.407 -0.9284 -1.3507  0.4104
 3971TIP3   OH211918   2.496   2.865   1.046 -0.5093  0.1008  0.3379
 3971TIP3    H111919   2.460   2.881   1.133 -0.7427 -0.4214  0.3405
 3971TIP3    H211920   2.589   2.884   1.055 -0.3346 -0.9468  0.9806
 3972TIP3   OH211921   0.795   2.425   0.150 -0.0388 -0.1814  0.1004
 3972TIP3    H111922   0.749   2.448   0.231  3.3858  0.4754  2.0892
 3972TIP3    H211923   0.835   2.507   0.121  1.0970 -0.9556 -0.5891
 3973TIP3   OH211924   0.092   3.328   4.318 -0.0839  0.4614  0.3835
 3973TIP3    H111925   0.017   3.375   4.283 -1.1735 -1.0538  0.5971
 3973TIP3    H211926   0.080   3.331   4.413  0.0590  0.1184  0.4135
 3974TIP3   OH211927   5.340   5.149   3.773  0.2275  0.2534 -0.5424
 3974TIP3    H111928   5.331   5.184   3.685  2.7122 -0.2567 -1.0700
 3974TIP3    H211929   5.386   5.218   3.821 -1.7964  0.8681  0.6635
 3975TIP3   OH211930   6.167   3.735   4.859  0.2667 -0.3219  0.3575
 3975TIP3    H111931   6.210   3.672   4.801  1.5036  0.3320  0.5370
 3975TIP3    H211932   6.230   3.749   4.930  0.6123  2.1072 -0.3535
 3976TIP3   OH211933   3.142   2.520   2.782  0.2305 -0.2894  0.2662
 3976TIP3    H111934   3.168   2.531   2.873  1.2500  2.1287 -0.2312
 3976TIP3    H211935   3.201   2.454   2.747 -0.1963 -1.2644  1.3386
 3977TIP3   OH211936   0.956   1.595   0.757 -0.1132  0.1454  0.7457
 3977TIP3    H111937   0.887   1.562   0.815 -0.2053  0.1054  0.6134
 3977TIP3    H211938   0.925   1.575   0.669 -1.0623  2.2584  0.5447
 3978TIP3   OH211939   0.543   0.557   2.637 -0.1518  0.0626  0.1604
 3978TIP3    H111940   0.560   0.512   2.555  2.0171  0.4680  0.3208
 3978TIP3    H211941   0.513   0.644   2.611  1.3741  0.4934 -0.2668
 3979TIP3   OH211942   3.672   0.494   4.276  0.3853 -0.4490 -0.3035
 3979TIP3    H111943   3.693   0.424   4.214  0.1030  1.6315 -2.9380
 3979TIP3    H211944   3.745   0.555   4.269 -1.2129  1.4717 -1.1950
 3980TIP3   OH211945   1.942   5.054   4.966 -0.0740 -0.2083 -0.0940
 3980TIP3    H111946   2.004   5.032   5.035  0.8616  0.6757 -0.6383
 3980TIP3    H211947   1.989   5.039   4.884 -0.2374  1.3515 -0.5108
 3981TIP3   OH211948   0.244   5.754   0.903  0.4707 -0.1454 -0.1124
 3981TIP3    H111949   0.297   5.701   0.844  0.3067  0.6018 -0.9545
 3981TIP3    H211950   0.232   5.699   0.980 -0.0523 -1.5045 -1.1208
 3982TIP3   OH211951   3.079   5.018   0.340  0.3448  0.2702  0.1997
 3982TIP3    H111952   3.130   5.047   0.264 -0.0198  0.6863  0.1059
 3982TIP3    H211953   3.089   5.088   0.404  0.6304 -0.0690  0.5303
 3983TIP3   OH211954   4.014   4.798   0.760 -0.2173  0.0269  0.3298
 3983TIP3    H111955   4.014   4.860   0.687  0.0466 -1.0496 -0.6134
 3983TIP3    H211956   4.028   4.852   0.838 -0.6718  1.2158 -0.3963
 3984TIP3   OH211957   4.754   1.972   0.585  0.2828  0.3724 -0.2717
 3984TIP3    H111958   4.720   1.887   0.556 -0.4612  0.6397 -0.1928
 3984TIP3    H211959   4.737   1.974   0.679  2.3815 -0.3443  0.2009
 3985TIP3   OH211960   0.941   4.566   2.006 -0.0130 -0.3327 -0.5517
 3985TIP3    H111961   1.015   4.512   2.034 -0.1176 -0.7362 -1.0493
 3985TIP3    H211962   0.925   4.541   1.915 -0.3200  0.2488 -0.6662
 3986TIP3   OH211963   3.624   1.532   5.067  0.1622 -0.3294  0.2247
 3986TIP3    H111964   3.692   1.522   5.000  0.4628 -1.0685  0.6248
 3986TIP3    H211965   3.672   1.540   5.149 -0.2307 -1.9083  0.6413
 3987TIP3   OH211966   0.883   5.671   2.723 -0.0229  0.0619 -0.4345
 3987TIP3    H111967   0.869   5.745   2.783 -0.5175  0.8355 -1.4558
 3987TIP3    H211968   0.937   5.610   2.772  0.0379  0.9105  0.6017
 3988TIP3   OH211969   4.683   5.995   4.472 -0.6288  0.0452  0.2281
 3988TIP3    H111970   4.644   5.927   4.417  0.3686 -0.5476  0.2379
 3988TIP3    H211971   4.753   6.033   4.418  1.0143 -1.1994  1.3883
 3989TIP3   OH211972   0.828   5.103   0.431  0.2501  0.7099  0.8536
 3989TIP3    H111973   0.775   5.024   0.441 -0.3674  1.0294  0.1447
 3989TIP3    H211974   0.914   5.078   0.465 -0.4072  0.2643  2.2666
 3990TIP3   OH211975   1.846   5.795   2.053 -0.0094  0.1012  0.3856
 3990TIP3    H111976   1.773   5.794   2.115  1.0590 -0.7271  1.6809
 3990TIP3    H211977   1.860   5.703   2.030 -0.1627  0.3643 -0.8452
 3991TIP3   OH211978   3.889   1.958   4.151  0.4847 -0.5399  0.4471
 3991TIP3    H111979   3.811   2.014   4.149  0.7928 -0.1256 -0.1478
 3991TIP3    H211980   3.926   1.966   4.064 -0.3948 -3.0271 -0.2218
 3992TIP3   OH211981   2.976   0.820   4.773 -0.3087  0.4790  0.7840
 3992TIP3    H111982   2.955   0.864   4.691  2.1742 -0.1687 -0.3177
 3992TIP3    H211983   2.964   0.727   4.754  1.3212  0.2446  0.7402
 3993TIP3   OH211984   4.187   3.661   1.015 -0.8309 -0.1135  0.3210
 3993TIP3    H111985   4.214   3.641   1.104  0.4822 -0.1453 -0.0555
 3993TIP3    H211986   4.258   3.627   0.960  0.5644  3.5356 -0.4784
 3994TIP3   OH211987   5.303   5.434   0.447  0.2278  0.7913 -0.8765
 3994TIP3    H111988   5.314   5.500   0.515 -2.0835 -0.8453  1.2759
 3994TIP3    H211989   5.305   5.351   0.494 -0.9290 -0.4527 -2.8866
 3995TIP3   OH211990   2.208   1.413   3.152  0.0478 -0.5211 -0.2674
 3995TIP3    H111991   2.135   1.410   3.089 -2.4574  0.7832  2.3469
 3995TIP3    H211992   2.275   1.465   3.108 -2.0912  1.4385 -1.4572
 3996TIP3   OH211993   3.281   2.454   4.215  0.6263  0.1455 -0.0563
 3996TIP3    H111994   3.255   2.546   4.222  0.2034 -0.0311  0.8991
 3996TIP3    H211995   3.199   2.405   4.224  0.9121 -0.3382 -0.0406
 3997TIP3   OH211996   3.799   3.270   0.490 -0.4745  0.2263 -1.1733
 3997TIP3    H111997   3.727   3.274   0.427 -0.1644  0.0568 -1.5471
 3997TIP3    H211998   3.857   3.341   0.464 -0.2442  0.0283 -1.2054
 3998TIP3   OH211999   0.373   4.128   1.890 -1.0540 -0.2501  0.2354
 3998TIP3    H112000   0.325   4.150   1.969  1.5394 -0.4588  1.9938
 3998TIP3    H212001   0.405   4.039   1.905  1.4466  0.5431  0.0705
 3999TIP3   OH212002   3.638   1.115   0.764 -0.2029  0.0656 -0.0234
 3999TIP3    H112003   3.703   1.184   0.749  1.1855 -1.1451  0.1032
 3999TIP3    H212004   3.583   1.116   0.685  2.5941 -1.5838 -2.1907
 4000TIP3   OH212005   0.998   1.848   1.689  0.1561  0.4910  0.4545
 4000TIP3    H112006   1.014   1.755   1.678 -0.0099  0.4906  0.1754
 4000TIP3    H212007   1.074   1.891   1.650  0.0825  0.4735  0.2877
 4001TIP3   OH212008   4.325   5.123   4.671  0.9205 -0.4421  0.4429
 4001TIP3    H112009   4.237   5.088   4.689  0.6573  0.8584  1.8873
 4001TIP3    H212010   4.328   5.132   4.576  0.1210 -2.0757  0.2296
 4002TIP3   OH212011   4.428   5.103   1.354 -0.8539 -0.1870  0.1514
 4002TIP3    H112012   4.439   5.011   1.330 -0.1951 -0.2059  0.5104
 4002TIP3    H212013   4.388   5.101   1.441  1.2841 -0.1910  1.2128
 4003TIP3   OH212014   3.948   2.606   4.570  0.2650  0.5393  0.0894
 4003TIP3    H112015   3.908   2.623   4.485 -0.4337 -3.2412 -0.4876
 4003TIP3    H212016   4.043   2.614   4.555  0.1542 -0.2583 -1.1064
 4004TIP3   OH212017   4.422   4.909   4.797 -0.0433  0.2457 -0.1447
 4004TIP3    H112018   4.390   4.990   4.757  0.2990 -0.0724 -1.0758
 4004TIP3    H212019   4.425   4.846   4.726  2.2204  0.1318 -0.0146
 4005TIP3   OH212020   5.761   1.763   0.005 -0.5699  0.0060  0.1302
 4005TIP3    H112021   5.809   1.720   0.076 -1.8003  0.0859  1.0514
 4005TIP3    H212022   5.742   1.693  -0.057  2.6511  0.3418 -1.4613
 4006TIP3   OH212023   2.101   5.192   1.534  0.0967  0.3253 -0.1909
 4006TIP3    H112024   2.009   5.165   1.535  1.0648 -3.6103  0.3781
 4006TIP3    H212025   2.130   5.174   1.445  0.9363 -1.4548  0.3825
 4007TIP3   OH212026   2.460   5.041   1.921 -0.6966 -0.6006  0.1096
 4007TIP3    H112027   2.483   4.961   1.873 -0.0332 -1.5435  1.9008
 4007TIP3    H212028   2.542   5.069   1.960 -1.4015 -0.4588  1.5264
 4008TIP3   OH212029   6.224   1.456   1.286 -0.3885 -0.2647  0.1228
 4008TIP3    H112030   6.266   1.375   1.257  0.3555  0.0883  0.1993
 4008TIP3    H212031   6.237   1.458   1.381 -0.5345 -0.1272  0.1407
 4009TIP3   OH212032   1.293   5.587   1.355  0.2945  0.2220  0.1452
 4009TIP3    H112033   1.261   5.675   1.336  0.1344  0.4655  1.4264
 4009TIP3    H212034   1.222   5.529   1.330  0.2260  0.4922 -0.2847
 4010TIP3   OH212035   0.015   2.320   3.004 -0.0187 -0.5963 -0.0808
 4010TIP3    H112036   0.086   2.256   3.003  1.9443  1.3460  2.0610
 4010TIP3    H212037  -0.059   2.275   3.045 -0.2908 -2.7939 -2.7113
 4011TIP3   OH212038   4.251   4.228   4.947 -0.0454 -0.8640  0.2356
 4011TIP3    H112039   4.192   4.181   5.005  1.0295 -1.2923  1.0232
 4011TIP3    H212040   4.221   4.319   4.950 -0.6601 -1.0743  0.6121
 4012TIP3   OH212041   1.393   4.023   5.154  0.1861 -0.3531 -0.1572
 4012TIP3    H112042   1.468   3.970   5.182 -0.5137 -0.7768  0.9544
 4012TIP3    H212043   1.356   3.973   5.081 -0.1112 -1.1152  0.4954
 4013TIP3   OH212044   4.297   1.797   0.999 -0.2522 -0.1314  0.0036
 4013TIP3    H112045   4.225   1.855   1.024  0.2444  0.3577  0.3215
 4013TIP3    H212046   4.356   1.798   1.074  0.2879 -0.2006 -0.4171
 4014TIP3   OH212047   1.939   2.059   0.341  0.1438  0.3909 -0.0978
 4014TIP3    H112048   1.941   2.019   0.428  1.1003 -0.5456 -0.5389
 4014TIP3    H212049   1.948   2.153   0.358 -1.7624  0.4460  0.9249
 4015TIP3   OH212050   1.582   1.055   2.775 -0.9430 -0.4305 -0.7296
 4015TIP3    H112051   1.501   1.099   2.801 -0.9154  0.3083 -1.8322
 4015TIP3    H212052   1.553   0.983   2.720 -0.8767 -0.4547 -0.7321
 4016TIP3   OH212053   4.325   5.121   2.373  0.3988 -0.1404  0.2861
 4016TIP3    H112054   4.326   5.212   2.343 -0.8115  0.7793  2.7581
 4016TIP3    H212055   4.284   5.072   2.301 -0.1430  1.4833 -0.5477
 4017TIP3   OH212056   0.826   2.253   4.375 -0.4388  0.0628  0.2917
 4017TIP3    H112057   0.786   2.297   4.299 -0.4620 -1.8352 -0.8579
 4017TIP3    H212058   0.761   2.263   4.445 -1.1910  0.3724 -0.4324
 4018TIP3   OH212059   6.150   2.188   2.828 -0.0263  0.2677 -0.3313
 4018TIP3    H112060   6.194   2.145   2.901 -0.3286  1.7333  0.7601
 4018TIP3    H212061   6.217   2.192   2.759  0.2855 -1.0652 -0.1365
 4019TIP3   OH212062   0.521   0.103   3.929 -0.8794  0.4809 -0.6500
 4019TIP3    H112063   0.444   0.154   3.905 -0.8556  0.3025 -1.1191
 4019TIP3    H212064   0.486   0.019   3.959 -0.8426  0.1187 -1.5849
 4020TIP3   OH212065   4.609   0.811   4.292  0.8885  0.0654  0.5999
 4020TIP3    H112066   4.688   0.762   4.267  0.6886  0.1907 -0.3348
 4020TIP3    H212067   4.621   0.897   4.251  0.8997  0.5662  1.6157
 4021TIP3   OH212068   2.382   4.226   4.607 -0.1193 -0.0270 -0.1459
 4021TIP3    H112069   2.433   4.198   4.531  1.3086 -0.3151  0.8697
 4021TIP3    H212070   2.291   4.219   4.579  0.3689  0.0048 -1.8591
 4022TIP3   OH212071   4.883   0.640   0.011  0.4249  0.1431 -0.1088
 4022TIP3    H112072   4.937   0.671   0.084 -1.2494  2.4150  0.2902
 4022TIP3    H212073   4.801   0.612   0.052  0.4918 -1.2558 -0.8895
 4023TIP3   OH212074   4.603   0.972   3.847  0.3851 -0.0079  0.2707
 4023TIP3    H112075   4.640   0.896   3.803  1.1615  1.0290 -0.9237
 4023TIP3    H212076   4.512   0.947   3.864  1.4302 -2.4911  3.0088
 4024TIP3   OH212077   1.276   4.450   4.155 -0.7313  0.2339 -0.4666
 4024TIP3    H112078   1.321   4.445   4.071 -2.1780  0.5434 -1.2936
 4024TIP3    H212079   1.214   4.378   4.154 -0.2448 -0.2285  0.6791
 4025TIP3   OH212080   0.302   5.015   2.384 -0.2695 -0.6895  0.2348
 4025TIP3    H112081   0.328   4.960   2.459  1.5845 -1.8842 -1.1654
 4025TIP3    H212082   0.337   5.101   2.405  2.7750 -1.6398 -0.3695
 4026TIP3   OH212083   0.079   2.089   3.273 -0.0403  0.5739  0.3374
 4026TIP3    H112084  -0.007   2.108   3.236 -0.0160  0.0268 -0.0157
 4026TIP3    H212085   0.079   2.133   3.358 -0.2381  1.5272 -0.1481
 4027TIP3   OH212086   1.351   3.565   0.967 -0.4344  0.2765 -0.3611
 4027TIP3    H112087   1.400   3.619   0.905 -0.7405  1.6305  0.5320
 4027TIP3    H212088   1.388   3.587   1.052  0.3831 -1.9850 -0.0550
 4028TIP3   OH212089   5.196   2.590   0.018 -0.5547 -0.4762  0.3358
 4028TIP3    H112090   5.186   2.604   0.112 -0.0115  0.4970  0.2606
 4028TIP3    H212091   5.273   2.534   0.010  1.8470  2.5716  0.3466
 4029TIP3   OH212092   0.226   0.922   2.760 -0.0771  0.4925  0.3674
 4029TIP3    H112093   0.254   0.939   2.670 -0.2824 -0.0139  0.2085
 4029TIP3    H212094   0.131   0.939   2.759 -0.5700 -1.9392 -0.1337
 4030TIP3   OH212095   2.439   4.521   2.193  0.8906  0.3237 -0.0624
 4030TIP3    H112096   2.507   4.456   2.171  1.2910  0.4090  0.8846
 4030TIP3    H212097   2.392   4.535   2.111 -0.3299 -2.4455  0.0522
 4031TIP3   OH212098   4.644   0.503   2.896 -0.0310  0.6475 -0.0746
 4031TIP3    H112099   4.586   0.562   2.847 -0.9814 -0.8968 -0.9353
 4031TIP3    H212100   4.587   0.465   2.963  0.0549 -0.5851 -0.6693
 4032TIP3   OH212101   4.596   5.445   4.902 -0.1799 -0.1687 -0.0603
 4032TIP3    H112102   4.562   5.525   4.944  0.9778 -0.2422  1.0641
 4032TIP3    H212103   4.676   5.474   4.858  0.4445 -0.7747  0.6625
 4033TIP3   OH212104   2.729   1.756   3.489  0.2342 -0.1962  0.1071
 4033TIP3    H112105   2.756   1.676   3.443  1.8521  1.2490 -1.6021
 4033TIP3    H212106   2.747   1.737   3.581  0.2410 -1.9125 -0.1988
 4034TIP3   OH212107   5.573   2.349   4.359 -0.5103 -0.3407 -0.4384
 4034TIP3    H112108   5.529   2.434   4.349 -0.1021  0.0589  0.9619
 4034TIP3    H212109   5.665   2.371   4.368 -0.6919 -0.4516  4.2122
 4035TIP3   OH212110   0.369   4.188   3.801  0.4544 -0.3265 -0.0980
 4035TIP3    H112111   0.280   4.160   3.819  0.2426  0.0306 -0.5865
 4035TIP3    H212112   0.382   4.265   3.857  0.2066  0.0607 -0.5729
 4036TIP3   OH212113   4.521   0.657   4.036  0.1491 -0.0389 -0.1418
 4036TIP3    H112114   4.473   0.723   4.086 -0.9024 -0.2502 -0.8391
 4036TIP3    H212115   4.601   0.642   4.087 -0.0677  1.0311  0.5401
 4037TIP3   OH212116   4.355   1.830   5.088  0.1147 -0.0975  0.2982
 4037TIP3    H112117   4.383   1.921   5.083  0.1532 -0.1564 -2.0108
 4037TIP3    H212118   4.287   1.822   5.021 -0.6781 -1.5269  1.2048
 4038TIP3   OH212119   1.979   1.871   4.329  0.0724 -0.2833 -0.2815
 4038TIP3    H112120   2.034   1.906   4.260 -0.5504 -0.4174 -0.8564
 4038TIP3    H212121   1.927   1.802   4.287 -3.1300  2.1542 -0.7642
 4039TIP3   OH212122   5.213   1.562   2.564  0.0629 -0.3894  0.0364
 4039TIP3    H112123   5.182   1.558   2.473  0.1026  2.0677 -0.1471
 4039TIP3    H212124   5.297   1.607   2.559  0.1826 -0.4499  1.2776
 4040TIP3   OH212125   1.136   3.565   1.773  0.2932 -0.3840 -0.5664
 4040TIP3    H112126   1.148   3.543   1.681  0.1650  1.0320 -0.9489
 4040TIP3    H212127   1.089   3.490   1.810 -0.1417 -0.7265 -1.7715
 4041TIP3   OH212128   0.095   3.316   3.647  0.5290  0.2009 -0.2122
 4041TIP3    H112129   0.187   3.334   3.630  0.9479  0.5791  2.0527
 4041TIP3    H212130   0.058   3.295   3.562  2.1938  2.2554 -1.5570
 4042TIP3   OH212131   3.559   1.963   2.210 -0.1183 -0.2243 -0.1177
 4042TIP3    H112132   3.531   1.876   2.239 -0.1999 -0.1957 -0.1094
 4042TIP3    H212133   3.492   2.023   2.244 -0.6971 -0.2883 -1.0922
 4043TIP3   OH212134   1.984   1.840   5.147  0.3290  0.3446 -0.0768
 4043TIP3    H112135   1.899   1.852   5.103 -0.1261 -0.1726  0.6412
 4043TIP3    H212136   2.024   1.766   5.102  1.2582  1.7453 -1.6734
 4044TIP3   OH212137   1.147   0.791   1.956  0.1481 -0.7629 -0.5242
 4044TIP3    H112138   1.125   0.815   2.046 -0.2784 -1.9069 -0.3105
 4044TIP3    H212139   1.118   0.866   1.903  0.5378 -0.0185  0.2954
 4045TIP3   OH212140   4.969   3.087   4.326 -0.3539  0.2571  0.1526
 4045TIP3    H112141   4.962   3.163   4.384 -0.7623  0.3340  0.0024
 4045TIP3    H212142   4.878   3.057   4.315 -0.2461  0.0657 -0.2140
 4046TIP3   OH212143   2.469   4.553   3.239  0.1872 -0.0860  0.4660
 4046TIP3    H112144   2.526   4.591   3.172  0.3400 -1.0295  0.0478
 4046TIP3    H212145   2.426   4.628   3.279 -0.8170  0.4473 -1.5011
 4047TIP3   OH212146   5.875   1.010   0.418 -0.1073 -0.1882  0.2767
 4047TIP3    H112147   5.822   1.007   0.497 -0.8438  0.1842 -0.1870
 4047TIP3    H212148   5.919   1.095   0.422  1.6307 -1.0862  1.3785
 4048TIP3   OH212149   0.386   4.816   0.766  0.4507 -0.4220  0.2816
 4048TIP3    H112150   0.458   4.754   0.759 -0.6193 -1.7980  0.9903
 4048TIP3    H212151   0.422   4.898   0.732  2.2201 -1.1508  0.2735
 4049TIP3   OH212152   2.033   5.368   2.090 -0.1927  0.3584  0.7045
 4049TIP3    H112153   2.099   5.424   2.047  0.3366  1.7890  3.1982
 4049TIP3    H212154   1.998   5.423   2.160 -2.0292 -1.3920  1.2353
 4050TIP3   OH212155   2.638   3.651   1.096  0.2750  0.4240  0.4335
 4050TIP3    H112156   2.643   3.675   1.188 -0.2770  0.3281  0.4916
 4050TIP3    H212157   2.545   3.640   1.079  0.3564  0.6910 -0.2040
 4051TIP3   OH212158   0.322   1.490   3.408 -0.0705  0.3687  0.6581
 4051TIP3    H112159   0.368   1.413   3.443 -1.3671 -1.0870 -0.6431
 4051TIP3    H212160   0.324   1.476   3.313 -0.8834  1.6359  0.4444
 4052TIP3   OH212161   2.121   1.924   0.883 -0.2012  0.0342 -0.5705
 4052TIP3    H112162   2.188   1.870   0.842 -0.0573 -0.4990  0.3503
 4052TIP3    H212163   2.090   1.981   0.813  1.5620  0.6488 -0.9121
 4053TIP3   OH212164   0.311   1.307   3.185 -0.1927  0.2151 -0.0598
 4053TIP3    H112165   0.314   1.217   3.217 -0.0952 -0.2797 -1.4346
 4053TIP3    H212166   0.384   1.314   3.123 -1.0571  0.8051 -1.0451
 4054TIP3   OH212167   0.915   0.100   0.903  0.4383  0.5431  0.0169
 4054TIP3    H112168   0.952   0.028   0.852 -1.2908 -1.1862  1.0583
 4054TIP3    H212169   0.976   0.110   0.977 -0.4983 -1.5489  1.1500
 4055TIP3   OH212170   0.180   2.909   0.347  0.3439 -0.3662 -0.0715
 4055TIP3    H112171   0.183   2.818   0.317 -1.3413  0.3433 -2.6886
 4055TIP3    H212172   0.088   2.923   0.370  0.8291  0.3614  1.5989
 4056TIP3   OH212173   0.676   1.978   1.460  0.3512 -0.4691 -0.5003
 4056TIP3    H112174   0.767   1.958   1.440  0.9614 -1.3875  2.6827
 4056TIP3    H212175   0.633   1.893   1.464 -0.1315 -0.2004  0.1102
 4057TIP3   OH212176   4.427   5.974   1.897  0.0995  0.3699 -0.2788
 4057TIP3    H112177   4.429   5.880   1.916  1.0927  0.8179  2.0547
 4057TIP3    H212178   4.334   5.992   1.879 -0.3002 -0.8381  0.4126
 4058TIP3   OH212179   4.805   2.809   1.001  0.4474 -0.4844  0.1791
 4058TIP3    H112180   4.716   2.775   1.006  0.2017  0.2575  1.1565
 4058TIP3    H212181   4.808   2.878   1.068  1.5752 -0.0961 -0.2548
 4059TIP3   OH212182   2.598   0.605   5.168  0.2866  0.1285 -0.1452
 4059TIP3    H112183   2.584   0.700   5.165  2.9318  0.6032  0.3249
 4059TIP3    H212184   2.606   0.580   5.076  0.2368  0.4698 -0.2452
 4060TIP3   OH212185   5.431   2.564   2.234 -0.3774 -0.4236 -0.0700
 4060TIP3    H112186   5.397   2.623   2.167  0.3741  3.4926  2.6671
 4060TIP3    H212187   5.355   2.541   2.288 -0.1410  1.4692  1.1661
 4061TIP3   OH212188   1.816   3.581   1.863  0.2728 -0.4722  0.2261
 4061TIP3    H112189   1.828   3.486   1.861  0.1815 -0.5239  1.3566
 4061TIP3    H212190   1.901   3.616   1.891 -0.0196 -0.3100  0.9372
 4062TIP3   OH212191   3.825   1.547   4.749 -0.1036  0.5601  0.3865
 4062TIP3    H112192   3.894   1.557   4.683 -0.9670 -1.7977 -1.0043
 4062TIP3    H212193   3.745   1.575   4.704 -0.5393 -0.0358  0.7782
 4063TIP3   OH212194   1.932   3.169   1.494  0.7626 -0.1293 -0.1947
 4063TIP3    H112195   1.837   3.170   1.500  0.6480  1.4596 -1.4230
 4063TIP3    H212196   1.951   3.129   1.409  1.1000  0.9406 -0.6429
 4064TIP3   OH212197   2.523  -0.002   2.646 -0.7004 -0.1802  0.6824
 4064TIP3    H112198   2.463  -0.053   2.591  0.8185 -1.9976  0.6083
 4064TIP3    H212199   2.526   0.084   2.605 -3.2804  0.0219  0.7409
 4065TIP3   OH212200   2.883   5.057   3.910  0.0684  0.0103  0.5229
 4065TIP3    H112201   2.941   5.040   3.835 -0.2776 -2.1148  0.6697
 4065TIP3    H212202   2.939   5.101   3.974  0.4987  1.4007 -0.7487
 4066TIP3   OH212203   1.163   5.707   0.223  0.0066  0.9183 -0.3091
 4066TIP3    H112204   1.232   5.642   0.210  0.9225  1.8074 -0.0004
 4066TIP3    H212205   1.111   5.704   0.142 -0.2983 -0.5546 -0.0881
 4067TIP3   OH212206   0.814   1.816   0.582  0.3126  0.1198 -0.3737
 4067TIP3    H112207   0.746   1.865   0.627  1.3888  0.7817  0.5936
 4067TIP3    H212208   0.865   1.775   0.652  0.7101 -0.6350 -1.0845
 4068TIP3   OH212209   1.834   1.004   2.862  0.2992  0.4183 -0.8788
 4068TIP3    H112210   1.759   1.027   2.807  0.8403  1.9117 -1.0112
 4068TIP3    H212211   1.807   1.028   2.951 -0.4181 -1.6217 -0.4890
 4069TIP3   OH212212   4.554   3.709   0.410 -0.3166  0.1483  0.3978
 4069TIP3    H112213   4.544   3.750   0.495  0.3661  1.4446 -0.1228
 4069TIP3    H212214   4.513   3.770   0.348  1.7809  0.6846 -0.5431
 4070TIP3   OH212215   3.087   4.747   2.007 -0.2224 -0.3439 -1.0053
 4070TIP3    H112216   2.995   4.760   2.027  0.0742  1.7774 -0.8418
 4070TIP3    H212217   3.133   4.766   2.089  0.4323 -0.3979 -1.3516
 4071TIP3   OH212218   0.662   0.054   1.049  0.4928 -0.1047 -0.5965
 4071TIP3    H112219   0.717   0.069   0.972 -0.6441 -0.2458 -1.4618
 4071TIP3    H212220   0.714  -0.003   1.105  0.7714 -1.2058 -1.9311
 4072TIP3   OH212221   0.955   2.814   0.478 -0.5573 -0.2680 -0.9197
 4072TIP3    H112222   0.961   2.909   0.466 -0.7533 -0.0971  0.2125
 4072TIP3    H212223   0.906   2.783   0.402 -0.2475  0.4920 -1.4484
 4073TIP3   OH212224   5.271   4.073   2.272  0.2899 -0.3444  0.0056
 4073TIP3    H112225   5.188   4.105   2.236  0.2502 -1.6340 -1.1273
 4073TIP3    H212226   5.282   4.123   2.353 -0.5828  1.3039 -0.8235
 4074TIP3   OH212227   0.933   1.423   2.361  0.0612 -0.5228 -0.2457
 4074TIP3    H112228   0.985   1.408   2.440 -0.1921 -1.6018 -0.2725
 4074TIP3    H212229   0.979   1.494   2.316 -0.4734  1.0076  1.4577
 4075TIP3   OH212230   0.359   1.114   3.913 -0.1068  0.2618 -0.0059
 4075TIP3    H112231   0.395   1.066   3.988  0.4893 -1.1266 -1.1372
 4075TIP3    H212232   0.300   1.052   3.872 -0.9706  1.2611 -0.3016
 4076TIP3   OH212233   4.609   3.888   0.020 -0.2639  0.5624 -0.2048
 4076TIP3    H112234   4.595   3.935  -0.062 -0.0600  0.2247 -0.4358
 4076TIP3    H212235   4.643   3.955   0.080 -1.7322  1.1323  0.0367
 4077TIP3   OH212236   4.237   5.510   1.507  0.4749 -0.5386 -0.0471
 4077TIP3    H112237   4.190   5.589   1.533  3.0207  0.5602  1.6670
 4077TIP3    H212238   4.176   5.438   1.526 -0.3301  0.7358  2.6830
 4078TIP3   OH212239   4.260   2.147   2.013  0.2194 -0.3263  0.4147
 4078TIP3    H112240   4.185   2.140   1.954 -0.3272 -3.2700  1.2886
 4078TIP3    H212241   4.330   2.099   1.968  0.0928 -1.7297  1.6289
 4079TIP3   OH212242   5.313   5.797   3.353 -0.3635 -0.2154 -0.3073
 4079TIP3    H112243   5.333   5.818   3.262  0.1705  0.7201  0.0172
 4079TIP3    H212244   5.331   5.877   3.401  1.6366 -1.3516  0.9778
 4080TIP3   OH212245   2.929   3.623   0.161 -0.2482 -0.1003 -0.1407
 4080TIP3    H112246   2.904   3.531   0.156  1.1276 -0.4651 -1.0215
 4080TIP3    H212247   2.910   3.648   0.252 -1.2464 -1.0531 -0.0644
 4081TIP3   OH212248   4.291   0.968   1.387 -0.2589 -0.0807 -0.6930
 4081TIP3    H112249   4.265   0.879   1.363 -1.5297  0.2141 -0.4908
 4081TIP3    H212250   4.253   0.982   1.474  0.0024  0.6243 -0.6869
 4082TIP3   OH212251   2.534   2.475   1.491  0.3290 -0.3180 -0.1362
 4082TIP3    H112252   2.582   2.541   1.540  0.2079 -0.1247 -0.2768
 4082TIP3    H212253   2.454   2.461   1.542 -1.4642  2.3812 -1.9773
 4083TIP3   OH212254   5.436   4.514   4.633  0.7764 -0.1277 -0.1223
 4083TIP3    H112255   5.369   4.554   4.578  0.7243  1.8290  1.2753
 4083TIP3    H212256   5.517   4.560   4.609  0.6066  1.3381  1.9622
 4084TIP3   OH212257   4.882   1.530   5.033 -0.4544  0.1224  0.3380
 4084TIP3    H112258   4.971   1.505   5.058 -0.3686 -1.0724 -1.0151
 4084TIP3    H212259   4.893   1.590   4.959 -0.7624  1.0398  1.0176
 4085TIP3   OH212260   3.365   4.014   3.383  0.2541 -0.0337 -0.1195
 4085TIP3    H112261   3.338   3.923   3.369 -1.6081 -0.0443  2.7337
 4085TIP3    H212262   3.290   4.065   3.352  0.3013  0.3817  0.4431
 4086TIP3   OH212263   1.164   4.419   2.917 -0.3173  0.2150  0.4021
 4086TIP3    H112264   1.187   4.452   2.830 -0.7709  2.1702  0.9603
 4086TIP3    H212265   1.130   4.331   2.902 -1.0640  0.7802 -1.4981
 4087TIP3   OH212266   0.379   3.500   2.996  0.7462  0.3164  0.0267
 4087TIP3    H112267   0.302   3.556   3.011 -1.4212 -1.7476 -2.3131
 4087TIP3    H212268   0.453   3.553   3.024 -1.4950  2.2787  2.9445
 4088TIP3   OH212269   4.242   3.676   3.443  0.2390  0.1765  0.0120
 4088TIP3    H112270   4.205   3.608   3.500  0.2096  1.0026  0.9930
 4088TIP3    H212271   4.166   3.724   3.411  0.3268  0.4522  0.2177
 4089TIP3   OH212272   3.520   5.885   3.949  0.1427 -0.6245  0.1929
 4089TIP3    H112273   3.484   5.814   4.003 -0.1342 -1.6583 -1.2999
 4089TIP3    H212274   3.446   5.944   3.936 -0.0004 -0.7865  0.2656
 4090TIP3   OH212275   3.754   4.029   2.435 -0.4445  0.1099  0.3621
 4090TIP3    H112276   3.787   3.948   2.393 -0.4065  0.3911 -0.1648
 4090TIP3    H212277   3.783   4.099   2.376 -1.0755  0.4518  0.4549
 4091TIP3   OH212278   4.788   3.884   4.351  0.6684  0.2855  0.0200
 4091TIP3    H112279   4.804   3.832   4.429  2.1092  0.5089 -0.1015
 4091TIP3    H212280   4.773   3.972   4.383 -2.5274 -0.2422  0.2848
 4092TIP3   OH212281   1.752   1.143   1.609 -0.3397  0.6144  0.0024
 4092TIP3    H112282   1.758   1.056   1.570  0.6566  0.6318  0.0886
 4092TIP3    H212283   1.811   1.197   1.556 -0.1629  0.9918  0.5742
 4093TIP3   OH212284   1.062   0.069   1.145 -0.6618  0.0555 -0.1384
 4093TIP3    H112285   0.991   0.100   1.200 -2.3225 -1.1008 -1.4989
 4093TIP3    H212286   1.073  -0.023   1.169  0.6070  0.2723  0.2334
 4094TIP3   OH212287   2.210   5.673   3.111  0.2883 -0.0285 -0.2997
 4094TIP3    H112288   2.284   5.634   3.157  0.7487  0.2893 -0.7562
 4094TIP3    H212289   2.133   5.643   3.159  0.5433 -2.2064 -1.1236
 4095TIP3   OH212290   3.693   0.587   3.439 -0.3916 -0.1462 -0.5213
 4095TIP3    H112291   3.749   0.518   3.474  0.1088 -0.3377 -1.6809
 4095TIP3    H212292   3.667   0.556   3.353  0.8545  1.6254 -1.5951
 4096TIP3   OH212293   5.600   5.624   4.232  0.0712  0.7590  0.3966
 4096TIP3    H112294   5.624   5.687   4.163 -0.3055  0.5366  0.0518
 4096TIP3    H212295   5.662   5.641   4.303  0.3749  1.0942  0.0596
 4097TIP3   OH212296   1.732   5.216   0.186 -0.1633 -0.0381  0.4671
 4097TIP3    H112297   1.743   5.124   0.163  0.7671 -0.1985  1.4892
 4097TIP3    H212298   1.658   5.217   0.247  0.5112 -0.2786  1.3173
 4098TIP3   OH212299   5.996   5.447   1.393 -0.2940 -0.3862 -0.9633
 4098TIP3    H112300   6.003   5.352   1.381 -0.3693 -0.6723  0.8237
 4098TIP3    H212301   5.962   5.456   1.483 -0.0691  1.3356 -1.0264
 4099TIP3   OH212302   2.246   5.731   2.849  0.1865 -0.0860  0.0418
 4099TIP3    H112303   2.242   5.716   2.943 -0.7851  0.6616  0.1421
 4099TIP3    H212304   2.176   5.794   2.832  0.4007 -0.1469 -1.1707
 4100TIP3   OH212305   5.919   2.348   3.234 -0.0195 -0.4355 -0.1283
 4100TIP3    H112306   5.874   2.319   3.154 -0.3015 -0.7730  0.1471
 4100TIP3    H212307   6.010   2.361   3.207 -0.5580  1.7702 -1.0649
 4101TIP3   OH212308   3.708   1.727   0.686 -0.0166 -0.4200 -0.2589
 4101TIP3    H112309   3.640   1.777   0.731 -1.0590 -1.6623 -0.4065
 4101TIP3    H212310   3.662   1.653   0.647  1.3234 -0.9335 -0.9383
 4102TIP3   OH212311   1.170   5.867   3.962  0.2793 -0.3158 -0.6055
 4102TIP3    H112312   1.090   5.901   4.001  0.8640 -0.1350  0.4747
 4102TIP3    H212313   1.192   5.790   4.015  1.3174  0.1816 -0.2934
 4103TIP3   OH212314   4.505   1.629   4.309  0.0164 -0.1551  0.8757
 4103TIP3    H112315   4.588   1.601   4.272 -0.5336 -1.1399  0.3424
 4103TIP3    H212316   4.508   1.598   4.400  0.6575  0.7556  1.1791
 4104TIP3   OH212317   5.299   2.153   1.888  0.4005 -0.0007 -0.3776
 4104TIP3    H112318   5.269   2.138   1.978 -0.1784 -0.4272 -0.6370
 4104TIP3    H212319   5.245   2.094   1.835  1.1724 -0.2111 -0.9390
 4105TIP3   OH212320   5.425   5.379   2.506  0.2871  0.6081 -0.4270
 4105TIP3    H112321   5.353   5.317   2.517  0.9661 -0.8621 -3.2727
 4105TIP3    H212322   5.386   5.456   2.465  0.1721  0.1049 -1.2881
 4106TIP3   OH212323   0.062   0.442   3.908  0.1469  0.3889 -0.2091
 4106TIP3    H112324   0.134   0.390   3.872 -2.4720 -2.3070 -2.0421
 4106TIP3    H212325   0.020   0.384   3.971 -0.1668  2.1031  1.2131
 4107TIP3   OH212326   6.265   3.468   3.805  0.0490 -0.0874  0.0253
 4107TIP3    H112327   6.324   3.442   3.734 -0.9513  2.4562 -1.8876
 4107TIP3    H212328   6.191   3.408   3.798  0.4664 -0.5707 -0.3400
 4108TIP3   OH212329   3.197   1.832   2.929  0.2548 -0.1411 -0.1716
 4108TIP3    H112330   3.213   1.892   3.002  0.7375 -0.5462  0.0644
 4108TIP3    H212331   3.269   1.849   2.868  0.3035 -0.3675 -0.1770
 4109TIP3   OH212332   5.710   3.477   4.677  0.2335 -0.7764 -0.1878
 4109TIP3    H112333   5.791   3.488   4.726 -0.2248  2.0060  0.1598
 4109TIP3    H212334   5.651   3.543   4.715 -0.9945 -0.2939 -2.7253
 4110TIP3   OH212335   4.200   4.495   4.923 -0.3429  0.2205 -0.1904
 4110TIP3    H112336   4.267   4.534   4.979 -0.7364 -0.0362  0.4657
 4110TIP3    H212337   4.233   4.509   4.834  0.0401  1.0913  0.0751
 4111TIP3   OH212338   3.951   1.712   4.958 -0.1125  0.0207 -0.1128
 4111TIP3    H112339   4.034   1.742   4.921 -0.8649  1.6042 -0.5903
 4111TIP3    H212340   3.903   1.677   4.883 -0.3303  0.1880 -0.0537
 4112TIP3   OH212341   1.949   2.553   3.454 -0.5998  0.1764 -0.0080
 4112TIP3    H112342   1.855   2.550   3.473 -0.4280  2.0820  1.3622
 4112TIP3    H212343   1.991   2.530   3.537  0.1233  1.9201  0.1588
 4113TIP3   OH212344   2.941   2.450   2.438 -0.1026  0.4509 -0.2521
 4113TIP3    H112345   3.027   2.491   2.447 -0.1230  0.4806 -0.1865
 4113TIP3    H212346   2.936   2.423   2.347  0.6568 -1.0399  0.1169
 4114TIP3   OH212347   3.655   0.718   1.388  0.2855  0.0662 -0.2256
 4114TIP3    H112348   3.673   0.771   1.310 -0.2187 -0.6128 -0.8217
 4114TIP3    H212349   3.581   0.761   1.430 -2.6448 -2.1153 -2.7266
 4115TIP3   OH212350   2.363   0.742   4.988 -0.5014  0.0542 -0.4525
 4115TIP3    H112351   2.342   0.833   5.012 -1.2162 -0.5853  1.6172
 4115TIP3    H212352   2.295   0.717   4.926 -1.4907  0.3442  0.4904
 4116TIP3   OH212353   1.917   0.781   2.742  0.1270 -0.0377  0.2079
 4116TIP3    H112354   1.826   0.753   2.726  0.2141 -0.6161  0.6944
 4116TIP3    H212355   1.909   0.870   2.777 -0.1364  0.7821 -1.7688
 4117TIP3   OH212356   6.069   0.282   1.224 -0.2853  0.2625  0.1686
 4117TIP3    H112357   6.039   0.285   1.315 -2.2424  0.4868 -0.4267
 4117TIP3    H212358   6.011   0.219   1.182  0.9777 -0.2791 -0.8138
 4118TIP3   OH212359   4.994   0.325   2.072 -0.0352 -0.0884  0.0352
 4118TIP3    H112360   4.987   0.411   2.114  2.2510 -0.4746  1.3975
 4118TIP3    H212361   5.065   0.335   2.009 -1.7172 -0.2481 -1.9788
 4119TIP3   OH212362   6.076   2.026   4.792 -0.3455 -0.0481  0.4384
 4119TIP3    H112363   6.008   2.090   4.768  1.3937  1.5192 -0.6627
 4119TIP3    H212364   6.157   2.078   4.794  1.3676 -2.4000 -1.7124
 4120TIP3   OH212365   2.019   3.245   0.407 -0.6203  0.4902  0.1581
 4120TIP3    H112366   2.053   3.315   0.463  0.8448  0.6998 -0.9237
 4120TIP3    H212367   2.034   3.277   0.318 -1.2539 -0.6030 -0.3614
 4121TIP3   OH212368   3.706   1.079   3.772 -0.1301  0.1209  0.3883
 4121TIP3    H112369   3.671   1.006   3.721 -2.2285 -0.4348  2.4325
 4121TIP3    H212370   3.795   1.051   3.795 -1.4415 -2.7681  2.6463
 4122TIP3   OH212371   4.065   2.185   4.748  0.2806 -0.1023 -0.1576
 4122TIP3    H112372   4.148   2.153   4.712 -0.7362 -1.6088 -1.2705
 4122TIP3    H212373   4.091   2.242   4.821  2.2847 -0.4276 -0.5597
 4123TIP3   OH212374   0.765   5.259   2.930 -0.3062 -0.1652 -0.8081
 4123TIP3    H112375   0.698   5.324   2.952 -0.9798 -1.1118  0.0387
 4123TIP3    H212376   0.836   5.277   2.992 -0.0093  0.4648 -1.3185
 4124TIP3   OH212377   1.280   0.274   3.800 -0.3353  0.0093 -0.0662
 4124TIP3    H112378   1.292   0.190   3.756 -2.3587 -0.2115 -0.2579
 4124TIP3    H212379   1.263   0.251   3.891 -0.6526  0.2301 -0.0682
 4125TIP3   OH212380   5.575   4.316   0.798  0.5825 -0.3368  0.0286
 4125TIP3    H112381   5.566   4.348   0.709 -0.9375  0.1095  0.3077
 4125TIP3    H212382   5.510   4.246   0.806 -1.5041  1.6317  1.6158
 4126TIP3   OH212383   6.298   2.288   0.480 -0.2614 -0.3469 -0.0454
 4126TIP3    H112384   6.262   2.264   0.565  5.3156  1.5612  3.3462
 4126TIP3    H212385   6.342   2.209   0.449 -1.9228 -0.9110 -1.1226
 4127TIP3   OH212386   4.789   3.093   2.112 -0.3108 -0.2074  0.1618
 4127TIP3    H112387   4.703   3.095   2.069  0.2904 -1.3101 -1.1752
 4127TIP3    H212388   4.772   3.121   2.202 -1.9061  0.5017 -0.3242
 4128TIP3   OH212389   4.705   5.202   1.457 -0.3413 -0.1511  0.3963
 4128TIP3    H112390   4.718   5.285   1.504  1.2587 -0.2535  0.1770
 4128TIP3    H212391   4.615   5.208   1.424 -0.5666  1.1052  1.1357
 4129TIP3   OH212392   4.047   1.190   1.107  0.0746 -0.3161  0.2631
 4129TIP3    H112393   4.041   1.118   1.044 -1.2746 -0.5762  0.6749
 4129TIP3    H212394   4.050   1.148   1.192 -0.1998  0.1033  0.4816
 4130TIP3   OH212395   1.576   0.094   1.160 -0.0234  1.1778 -0.4561
 4130TIP3    H112396   1.500   0.067   1.211  1.0400  2.1862  1.7984
 4130TIP3    H212397   1.627   0.014   1.148 -1.0935  0.6120 -1.4743
 4131TIP3   OH212398   4.656   4.457   3.661  0.1718  0.3933 -0.0357
 4131TIP3    H112399   4.658   4.553   3.653  2.3567  0.3885 -0.1477
 4131TIP3    H212400   4.622   4.441   3.749  0.1456  1.2890  0.1331
 4132TIP3   OH212401   6.347   1.029   3.392  0.2492  0.0251  0.0112
 4132TIP3    H112402   6.417   1.052   3.453 -0.3636 -0.0418  0.7476
 4132TIP3    H212403   6.292   1.108   3.388 -0.4540 -0.4275  0.5869
 4133TIP3   OH212404   2.508   1.628   0.851  0.6475 -0.5156 -0.5050
 4133TIP3    H112405   2.496   1.546   0.803  1.4959 -0.6549 -0.4920
 4133TIP3    H212406   2.468   1.694   0.794  1.2903 -0.7349 -1.2331
 4134TIP3   OH212407   6.092   0.579   1.737 -0.9061 -0.1099  0.2212
 4134TIP3    H112408   6.087   0.566   1.832  0.7508  0.8133  0.4618
 4134TIP3    H212409   6.004   0.610   1.713 -0.9939  0.8753  1.6707
 4135TIP3   OH212410   0.315   2.939   4.035  0.2377 -0.2486 -0.0269
 4135TIP3    H112411   0.261   3.001   4.084  0.8893  0.3794 -0.0979
 4135TIP3    H212412   0.329   2.981   3.950 -1.8846 -1.8229 -1.2759
 4136TIP3   OH212413   3.329   2.737   0.985 -0.6877  0.4301  0.2230
 4136TIP3    H112414   3.305   2.668   0.923  0.0338  0.4661 -0.0988
 4136TIP3    H212415   3.424   2.741   0.981 -0.6641  0.7447  1.0025
 4137TIP3   OH212416   6.218   3.150   2.101 -0.1501 -0.2555  0.0177
 4137TIP3    H112417   6.184   3.099   2.027 -0.1580 -0.4509  0.1551
 4137TIP3    H212418   6.298   3.190   2.067 -0.6404  0.4015 -0.3821
 4138TIP3   OH212419   5.243   3.822   2.395  0.0234 -0.1998 -0.2769
 4138TIP3    H112420   5.233   3.888   2.326  1.1863 -0.7432 -0.9929
 4138TIP3    H212421   5.310   3.859   2.453 -1.3922  0.5467  0.9635
 4139TIP3   OH212422   1.748   3.550   1.202  0.1940  0.0502 -0.2513
 4139TIP3    H112423   1.819   3.495   1.237  0.4855  0.0681 -0.8063
 4139TIP3    H212424   1.673   3.491   1.200  0.4954 -0.3224 -0.8080
 4140TIP3   OH212425   6.217   0.842   3.631 -0.2153  0.3181  0.2696
 4140TIP3    H112426   6.172   0.911   3.582  0.7674  0.8313  0.0655
 4140TIP3    H212427   6.179   0.846   3.718 -2.6964 -1.2486 -0.6220
 4141TIP3   OH212428   5.143   0.604   4.498 -0.1471  0.6041 -0.6464
 4141TIP3    H112429   5.082   0.629   4.568 -0.7785  1.8191 -1.6019
 4141TIP3    H212430   5.173   0.687   4.461  1.4835  0.0072 -0.7314
 4142TIP3   OH212431   2.420   4.044   0.614 -0.0538 -0.9766  0.1299
 4142TIP3    H112432   2.388   3.964   0.573 -2.3955 -0.7473  1.3362
 4142TIP3    H212433   2.465   4.091   0.544 -2.9944 -1.0679 -2.0105
 4143TIP3   OH212434   4.308   5.656   0.885  0.2594  0.0849  0.5638
 4143TIP3    H112435   4.380   5.718   0.872 -1.5530  2.2643  0.3061
 4143TIP3    H212436   4.312   5.599   0.809  0.3707  1.6196 -0.6270
 4144TIP3   OH212437   2.223   1.146   3.215 -0.2970 -0.3140 -0.6348
 4144TIP3    H112438   2.196   1.234   3.189  0.9261 -0.6346 -3.3470
 4144TIP3    H212439   2.246   1.103   3.132  2.5499 -2.0289  0.8961
 4145TIP3   OH212440   1.361   5.855   2.233  0.8733  0.3857  0.0382
 4145TIP3    H112441   1.292   5.876   2.297  1.1579 -0.8812  0.7854
 4145TIP3    H212442   1.321   5.790   2.176  0.9848  0.7208 -0.4257
 4146TIP3   OH212443   1.384   0.167   2.627  1.1422 -0.1845 -0.1883
 4146TIP3    H112444   1.384   0.200   2.538 -0.9702 -1.7623 -0.8530
 4146TIP3    H212445   1.296   0.185   2.660  1.2552 -1.3557  0.8607
 4147TIP3   OH212446   1.356   3.947   1.236  0.0074  0.3337  0.1200
 4147TIP3    H112447   1.310   3.973   1.316 -0.0287 -0.5890  0.4149
 4147TIP3    H212448   1.441   3.915   1.266  0.3401  0.7946 -0.3023
 4148TIP3   OH212449   5.083   3.095   2.989 -0.0389 -0.3582 -0.3236
 4148TIP3    H112450   5.106   3.169   2.933 -1.3259  1.3601  1.2939
 4148TIP3    H212451   5.167   3.057   3.013  0.5857 -0.5115 -2.5050
 4149TIP3   OH212452   2.699   1.076   1.427  0.5498 -0.1466  0.0224
 4149TIP3    H112453   2.717   1.161   1.466  0.5683 -0.6986  1.2343
 4149TIP3    H212454   2.631   1.038   1.482 -0.2646 -0.4756 -1.1598
 4150TIP3   OH212455   2.631   0.394   2.301 -0.6571  0.3798 -0.0950
 4150TIP3    H112456   2.661   0.417   2.389 -0.2986 -3.5362  0.9992
 4150TIP3    H212457   2.546   0.353   2.314 -1.7834  1.9423 -1.9584
 4151TIP3   OH212458   4.532   0.318   1.866  0.3421 -0.4444 -0.2032
 4151TIP3    H112459   4.584   0.296   1.789  1.9366 -0.1059  0.7291
 4151TIP3    H212460   4.443   0.290   1.844  0.9357 -1.1838 -1.8001
 4152TIP3   OH212461   2.780   4.364   4.497 -0.3665  0.4201 -0.2131
 4152TIP3    H112462   2.753   4.288   4.548  2.5085 -0.0828  0.7397
 4152TIP3    H212463   2.718   4.368   4.424 -0.7002 -2.7932 -0.2230
 4153TIP3   OH212464   2.048   3.031   1.249 -0.6960  0.1000 -0.2404
 4153TIP3    H112465   2.042   2.936   1.250 -1.8280  0.1373 -0.9689
 4153TIP3    H212466   2.100   3.052   1.172  1.3998  0.0339  1.1021
 4154TIP3   OH212467   3.508   3.289   3.781 -0.1636 -0.2959 -0.0950
 4154TIP3    H112468   3.520   3.194   3.789 -0.1068 -0.1629  2.1115
 4154TIP3    H212469   3.427   3.306   3.830  1.3520  1.1020  2.0464
 4155TIP3   OH212470   5.751   5.566   4.901  0.0042  0.2552 -0.0470
 4155TIP3    H112471   5.696   5.517   4.962  0.3329 -1.0850 -0.7799
 4155TIP3    H212472   5.822   5.505   4.879  2.7267  2.4107  2.0408
 4156TIP3   OH212473   3.297   3.425   4.304  0.4600  0.1632 -0.1164
 4156TIP3    H112474   3.380   3.380   4.319  0.6935  0.7585  0.3982
 4156TIP3    H212475   3.231   3.367   4.343  0.8780  0.8359  1.7031
 4157TIP3   OH212476   2.888   2.569   2.714 -0.2224 -0.1134  0.3491
 4157TIP3    H112477   2.983   2.562   2.726  0.1423  0.7857 -1.6282
 4157TIP3    H212478   2.870   2.517   2.635 -0.9603  1.6754 -0.7238
 4158TIP3   OH212479   5.296   0.770   2.504 -0.2326 -0.1345 -0.0264
 4158TIP3    H112480   5.269   0.729   2.587  0.2752 -0.9504 -0.2476
 4158TIP3    H212481   5.364   0.711   2.470 -0.1877  0.3835 -0.8487
 4159TIP3   OH212482   0.144   5.664   0.018  0.1530  0.0861  0.5367
 4159TIP3    H112483   0.207   5.665  -0.055  0.9185  0.9421  1.1891
 4159TIP3    H212484   0.175   5.732   0.077 -0.7401 -0.2725  1.4415
 4160TIP3   OH212485   2.432   3.147   4.791 -0.2646 -0.1574 -0.3487
 4160TIP3    H112486   2.354   3.098   4.815  0.3255 -1.5989 -1.2267
 4160TIP3    H212487   2.505   3.094   4.825  0.4106 -0.1166 -1.6563
 4161TIP3   OH212488   1.234   4.431   1.181  0.4445 -0.0097 -0.2124
 4161TIP3    H112489   1.163   4.367   1.177  1.7040 -1.4677 -0.6242
 4161TIP3    H212490   1.257   4.448   1.090  1.3056 -0.3891 -0.0771
 4162TIP3   OH212491   3.532   2.209   2.702  0.0559 -0.2893  0.0714
 4162TIP3    H112492   3.531   2.116   2.724 -1.2340 -0.1149  0.8236
 4162TIP3    H212493   3.621   2.238   2.724  0.0779 -1.0560  1.0673
 4163TIP3   OH212494   3.234   0.527   3.389 -0.2863 -0.7679 -0.6774
 4163TIP3    H112495   3.295   0.593   3.421 -0.7266 -1.1264  1.0072
 4163TIP3    H212496   3.230   0.462   3.459  0.3132 -2.7526 -2.3754
 4164TIP3   OH212497   1.872   3.042   0.754  0.2815  0.1237 -0.0116
 4164TIP3    H112498   1.811   3.080   0.691 -0.4969 -0.6365  0.2729
 4164TIP3    H212499   1.871   3.103   0.828 -0.1764  0.0805  0.0169
 4165TIP3   OH212500   1.001   1.397   0.462  0.0228 -0.2036 -0.0406
 4165TIP3    H112501   1.051   1.430   0.387  0.4226  1.2881  0.8343
 4165TIP3    H212502   0.919   1.365   0.424  1.3055 -2.0353 -1.4221
 4166TIP3   OH212503   1.887   2.485   0.622 -0.7019  0.0611  0.0399
 4166TIP3    H112504   1.890   2.391   0.601  1.4250  0.4538 -1.7720
 4166TIP3    H212505   1.878   2.528   0.538  2.2417  1.5564  0.3525
 4167TIP3   OH212506   3.930   3.466   4.406  0.4064 -0.5020  0.2611
 4167TIP3    H112507   3.900   3.423   4.326  0.0931 -3.0871  1.6502
 4167TIP3    H212508   4.023   3.481   4.392 -0.0968  1.3372 -1.4704
 4168TIP3   OH212509   2.717   3.975   2.707  0.0471  0.4151  0.1464
 4168TIP3    H112510   2.648   4.039   2.726  1.0524  0.9789  2.2858
 4168TIP3    H212511   2.693   3.898   2.758  0.0935 -0.0495 -0.5218
 4169TIP3   OH212512   0.650   3.943   5.076  0.5421  0.5078 -0.5652
 4169TIP3    H112513   0.738   3.924   5.107 -0.5449 -0.4044  2.3112
 4169TIP3    H212514   0.600   3.864   5.094 -1.3322  1.7314 -0.0580
 4170TIP3   OH212515   1.260   1.223   4.153  0.0375  0.1106 -0.7162
 4170TIP3    H112516   1.293   1.146   4.199 -2.5561 -1.8508 -1.9368
 4170TIP3    H212517   1.320   1.236   4.080 -0.3104 -1.7125 -1.3576
 4171TIP3   OH212518   5.064   4.173   2.128  0.8798  0.5097 -0.1523
 4171TIP3    H112519   5.029   4.230   2.058  0.2135 -0.5886 -0.7354
 4171TIP3    H212520   4.999   4.179   2.198  1.4327  1.4258  0.3104
 4172TIP3   OH212521   4.221   4.553   4.003  0.1302  0.3038 -0.0469
 4172TIP3    H112522   4.127   4.559   4.020  0.2525  1.2372  0.3096
 4172TIP3    H212523   4.263   4.599   4.075  0.8210  0.8233 -0.7583
 4173TIP3   OH212524   0.955   1.260   0.158 -0.0625 -0.7238 -0.3112
 4173TIP3    H112525   0.875   1.303   0.128 -0.5126  0.0106  1.7623
 4173TIP3    H212526   1.026   1.320   0.132 -0.4495 -0.0135  0.2421
 4174TIP3   OH212527   3.482   0.100   5.096  0.5151 -0.2794 -0.1284
 4174TIP3    H112528   3.467   0.172   5.157 -1.4993  0.3709 -1.2901
 4174TIP3    H212529   3.547   0.135   5.034  0.6929 -0.0331  0.1922
 4175TIP3   OH212530   2.397   3.111   5.213 -0.0377 -0.2400  0.4412
 4175TIP3    H112531   2.390   3.048   5.141 -2.1500  1.6051 -1.1151
 4175TIP3    H212532   2.470   3.168   5.189  0.2459 -0.5461  0.5672
 4176TIP3   OH212533   4.454   3.929   3.759 -0.0535  0.3306  0.6363
 4176TIP3    H112534   4.497   3.957   3.840  0.5382 -0.4857  0.6155
 4176TIP3    H212535   4.503   3.973   3.690  0.4307 -0.1718  0.6455
 4177TIP3   OH212536   6.310   0.945   4.297  0.2732  0.1458 -0.4994
 4177TIP3    H112537   6.280   1.036   4.300 -0.5734 -0.1536  1.1365
 4177TIP3    H212538   6.266   0.908   4.221 -2.7000  0.0497  1.1169
 4178TIP3   OH212539   2.786   2.077   4.971 -0.0438  0.0635 -0.0309
 4178TIP3    H112540   2.761   2.114   5.056 -1.6573 -1.4588  0.2203
 4178TIP3    H212541   2.703   2.065   4.925  0.7787  0.4744 -1.6678
 4179TIP3   OH212542   0.751   1.170   4.208  0.3728 -0.2455 -0.2040
 4179TIP3    H112543   0.719   1.256   4.182 -0.0077  0.1946  1.5933
 4179TIP3    H212544   0.842   1.168   4.180  0.3363  0.6773 -0.4011
 4180TIP3   OH212545   4.688   5.098   4.907 -0.3906  0.0579  0.3880
 4180TIP3    H112546   4.616   5.044   4.875 -2.2064  0.7578  2.9320
 4180TIP3    H212547   4.714   5.057   4.990  0.5969  1.1106  0.6398
 4181TIP3   OH212548   2.075   4.601   3.203  0.2313 -0.1484  0.2373
 4181TIP3    H112549   2.171   4.593   3.206  0.1114 -2.6758 -0.7665
 4181TIP3    H212550   2.048   4.586   3.294  0.7880  1.8259  0.7900
 4182TIP3   OH212551   1.255   0.289   1.890  0.6596 -0.2308 -0.5731
 4182TIP3    H112552   1.198   0.212   1.893 -0.4396  0.6044  1.7997
 4182TIP3    H212553   1.338   0.258   1.926  0.6439 -0.6052 -0.8447
 4183TIP3   OH212554   1.477   0.794   0.575 -0.4989 -0.1308  0.8026
 4183TIP3    H112555   1.435   0.773   0.658 -0.9719  2.2755  1.2440
 4183TIP3    H212556   1.504   0.886   0.584 -1.4816  0.5413 -2.0159
 4184TIP3   OH212557   3.082   4.563   0.777  0.0106  0.6615 -0.7830
 4184TIP3    H112558   3.014   4.629   0.786 -1.0572 -0.5891  0.9905
 4184TIP3    H212559   3.069   4.527   0.689 -3.6074 -1.4905  0.3998
 4185TIP3   OH212560   0.742   2.219   3.111  0.1932 -0.1449  0.5694
 4185TIP3    H112561   0.729   2.141   3.056 -0.9185 -0.6081  1.4442
 4185TIP3    H212562   0.783   2.185   3.191  0.9524  0.3892  0.4163
 4186TIP3   OH212563   1.793   5.866   0.718 -0.7185 -0.2831  0.2071
 4186TIP3    H112564   1.838   5.786   0.692  1.8901  0.8403  0.9423
 4186TIP3    H212565   1.851   5.905   0.783 -1.1174  2.9532 -1.2082
 4187TIP3   OH212566   1.289   2.832   0.141 -0.1203 -0.0713  0.2935
 4187TIP3    H112567   1.232   2.786   0.203 -0.4716  1.1064  0.8850
 4187TIP3    H212568   1.302   2.919   0.180  1.0192  0.1329 -0.4774
 4188TIP3   OH212569   1.746   5.958   1.402  0.0951  0.3149  0.4914
 4188TIP3    H112570   1.774   5.880   1.354  0.4451  0.4550  0.4625
 4188TIP3    H212571   1.650   5.953   1.403  0.0024  0.9395 -1.2941
 4189TIP3   OH212572   4.154   3.449   2.426  1.0073  0.2602  0.1876
 4189TIP3    H112573   4.148   3.373   2.368  1.1654  0.3170  0.0961
 4189TIP3    H212574   4.091   3.511   2.391 -0.2229 -0.4064  1.1417
 4190TIP3   OH212575   5.486   5.738   1.522  0.1519 -0.0986  0.2298
 4190TIP3    H112576   5.574   5.771   1.508  0.3888 -0.3987  0.9554
 4190TIP3    H212577   5.473   5.744   1.617 -1.1114  1.1979  0.0025
 4191TIP3   OH212578   3.568   4.908   3.494 -0.1855  0.5669 -0.0727
 4191TIP3    H112579   3.560   4.814   3.513 -0.5271  0.6242  0.0718
 4191TIP3    H212580   3.498   4.949   3.545  0.4355  0.9854  0.4650
 4192TIP3   OH212581   0.022   2.942   3.941  0.2147  0.1044 -0.4651
 4192TIP3    H112582   0.085   2.890   3.890  0.3975  0.4218 -0.5734
 4192TIP3    H212583  -0.063   2.921   3.902  0.2295 -0.4822 -0.1846
 4193TIP3   OH212584   3.102   4.434   1.948 -0.2172 -0.6206 -0.0593
 4193TIP3    H112585   3.111   4.495   1.875  0.7775  0.4932  0.9635
 4193TIP3    H212586   3.155   4.472   2.018 -0.9273 -1.8042  1.1605
 4194TIP3   OH212587   5.758   4.572   1.530 -0.3226 -0.4548  0.3776
 4194TIP3    H112588   5.803   4.563   1.446 -1.0535 -0.7492  0.0146
 4194TIP3    H212589   5.825   4.550   1.595  0.5049  0.6474 -0.0666
 4195TIP3   OH212590   4.079   3.662   3.690 -0.0750  0.2398  0.0938
 4195TIP3    H112591   4.015   3.729   3.712  0.2152  0.1937  1.1627
 4195TIP3    H212592   4.091   3.613   3.771 -0.0444 -0.9159 -0.5813
 4196TIP3   OH212593   2.160   1.675   3.653 -0.0057 -0.0130  0.1935
 4196TIP3    H112594   2.183   1.623   3.730  0.1275 -0.0698  0.1166
 4196TIP3    H212595   2.206   1.632   3.581 -0.4424 -0.1916  0.0160
 4197TIP3   OH212596   3.463   3.177   2.851 -0.4603 -0.1182 -0.0588
 4197TIP3    H112597   3.465   3.157   2.945 -1.6418  2.3475  0.5671
 4197TIP3    H212598   3.478   3.271   2.846  1.9488 -0.4995 -2.5736
 4198TIP3   OH212599   2.927   2.796   2.218  0.2043  0.7280  0.0150
 4198TIP3    H112600   2.873   2.856   2.167  0.9119  0.4912 -1.0492
 4198TIP3    H212601   2.898   2.808   2.308 -2.8141 -0.6399 -0.6778
 4199TIP3   OH212602   6.048   5.478   0.559  0.0905  0.1241  0.1595
 4199TIP3    H112603   6.039   5.385   0.540 -1.6373  0.2374  0.3378
 4199TIP3    H212604   6.082   5.480   0.649  0.6992 -0.3256 -0.0515
 4200TIP3   OH212605   3.624   1.574   4.587 -0.3503 -0.6971 -0.1623
 4200TIP3    H112606   3.550   1.521   4.615 -0.2962 -0.9396 -0.4721
 4200TIP3    H212607   3.649   1.538   4.502  0.5714 -1.0667  0.2572
 4201TIP3   OH212608   4.467   0.367   0.160 -0.6609 -0.1685  0.1889
 4201TIP3    H112609   4.372   0.353   0.163 -0.5768 -0.7696  0.1706
 4201TIP3    H212610   4.504   0.294   0.208 -0.1600 -0.4607 -0.6172
 4202TIP3   OH212611   0.515   2.065   4.369  0.3809  0.4292  0.2034
 4202TIP3    H112612   0.517   1.981   4.413  0.4878 -0.3349 -1.1992
 4202TIP3    H212613   0.463   2.121   4.427 -0.7086 -0.9316  0.6071
 4203TIP3   OH212614   4.917   2.038   4.733  0.2968  0.5910 -0.2543
 4203TIP3    H112615   4.996   1.997   4.766 -0.5619  0.5273  1.9083
 4203TIP3    H212616   4.891   2.100   4.802 -0.7289  1.6981 -1.5620
 4204TIP3   OH212617   1.436   5.798   3.327 -0.2865 -0.7938 -0.6736
 4204TIP3    H112618   1.476   5.798   3.414 -0.2602 -0.2926 -0.6809
 4204TIP3    H212619   1.394   5.884   3.320 -1.5398 -1.3802 -0.5902
 4205TIP3   OH212620   4.815   4.865   2.610 -0.1559 -0.0707  0.0413
 4205TIP3    H112621   4.886   4.929   2.606  0.3316 -0.4032  1.9598
 4205TIP3    H212622   4.817   4.833   2.701 -1.2999 -1.7557 -0.4709
 4206TIP3   OH212623   1.985   4.981   2.489  0.0086  0.7750  0.2547
 4206TIP3    H112624   1.936   5.023   2.559 -1.0142  2.3852 -1.3561
 4206TIP3    H212625   2.011   5.052   2.431 -0.7659 -0.6568 -1.9829
 4207TIP3   OH212626   1.325   0.123   4.116 -0.5696  0.3492 -0.1576
 4207TIP3    H112627   1.399   0.100   4.174 -0.4219  0.7078 -0.2026
 4207TIP3    H212628   1.328   0.218   4.110  0.7148  0.2507 -2.4248
 4208TIP3   OH212629   0.395   5.380   4.235 -0.3864  0.2398 -0.3320
 4208TIP3    H112630   0.365   5.308   4.179  1.8370  0.2000 -1.6118
 4208TIP3    H212631   0.331   5.450   4.220 -1.1548 -0.5965 -1.0826
 4209TIP3   OH212632   1.717   3.955   4.228  0.0136 -0.1636 -0.1070
 4209TIP3    H112633   1.745   3.964   4.137 -0.3754  0.7226 -0.1459
 4209TIP3    H212634   1.623   3.972   4.227  0.0766  0.2615  0.5120
 4210TIP3   OH212635   4.124   3.451   1.282  0.3948  0.0403 -0.4266
 4210TIP3    H112636   4.095   3.459   1.373  0.4842 -2.0839 -0.1488
 4210TIP3    H212637   4.043   3.437   1.232  0.4253  0.2303 -0.5286
 4211TIP3   OH212638   0.348   2.672   3.999 -0.0027  0.6105 -0.4295
 4211TIP3    H112639   0.324   2.761   4.024  1.3607  1.2372 -1.2496
 4211TIP3    H212640   0.288   2.650   3.928 -0.6379  0.6809  0.0668
 4212TIP3   OH212641   4.841   3.941   3.431 -0.5638 -0.0979  0.4147
 4212TIP3    H112642   4.914   3.879   3.424  1.0061  1.6828 -0.0098
 4212TIP3    H212643   4.820   3.944   3.524  0.9246  0.3965  0.7673
 4213TIP3   OH212644   0.917   2.223   3.616 -0.0436  0.2071 -0.1354
 4213TIP3    H112645   0.860   2.154   3.649 -0.1249 -0.5186 -1.7009
 4213TIP3    H212646   0.989   2.177   3.572  0.5805  1.1132 -0.1147
 4214TIP3   OH212647   6.052   4.613   3.541 -0.2442  0.7371  0.0886
 4214TIP3    H112648   6.121   4.651   3.595 -0.2417  0.4644  0.2776
 4214TIP3    H212649   6.060   4.519   3.553  0.6035  0.5754 -1.4108
 4215TIP3   OH212650   6.344   2.832   0.713 -0.0290 -0.1873 -0.0767
 4215TIP3    H112651   6.415   2.880   0.670  0.9083  0.6627  2.2695
 4215TIP3    H212652   6.265   2.859   0.665  0.7443  2.0232 -0.2170
 4216TIP3   OH212653   5.356   4.963   0.180 -0.6135 -0.0515  0.3651
 4216TIP3    H112654   5.417   4.890   0.165 -0.2616 -0.1104  1.9754
 4216TIP3    H212655   5.273   4.920   0.201 -0.2699 -0.0201  1.8669
 4217TIP3   OH212656   2.995   3.265   0.110  0.0230 -1.0322 -0.7458
 4217TIP3    H112657   2.994   3.329   0.181 -2.5642 -0.2890 -1.3464
 4217TIP3    H212658   3.081   3.275   0.070  0.2921  0.9129  0.2138
 4218TIP3   OH212659   2.313   1.259   0.098 -0.0162  0.3954  0.6141
 4218TIP3    H112660   2.405   1.271   0.120 -0.3352 -1.1726  3.1726
 4218TIP3    H212661   2.314   1.230   0.007  1.9273  1.2735  0.3139
 4219TIP3   OH212662   1.272   3.870   3.947  0.4687 -0.0224  0.4186
 4219TIP3    H112663   1.199   3.818   3.912  0.1049  0.7605 -0.0322
 4219TIP3    H212664   1.231   3.927   4.012  0.9971 -0.8296  1.4860
 4220TIP3   OH212665   1.788   4.742   0.363 -0.3718  0.1767  0.2538
 4220TIP3    H112666   1.755   4.824   0.401  1.1442  1.5153 -1.1148
 4220TIP3    H212667   1.878   4.735   0.396  0.7336  0.9850 -2.2546
 4221TIP3   OH212668   2.353   4.934   0.263  0.3140  0.1349 -0.4754
 4221TIP3    H112669   2.376   4.964   0.351 -1.3688 -1.6601  0.6556
 4221TIP3    H212670   2.260   4.956   0.254  0.3658 -0.0535 -1.6727
 4222TIP3   OH212671   3.091   2.220   2.109 -0.1972 -0.2695 -0.0992
 4222TIP3    H112672   3.052   2.235   2.023  1.3220 -0.2555 -0.8142
 4222TIP3    H212673   3.016   2.213   2.168 -1.2313  1.1058 -1.1834
 4223TIP3   OH212674   3.752   0.376   4.516  0.2214  0.0230  0.1290
 4223TIP3    H112675   3.734   0.285   4.490 -0.3687  0.4252 -0.9346
 4223TIP3    H212676   3.710   0.429   4.448  0.7936  1.0911  0.5870
 4224TIP3   OH212677   0.439   3.640   3.449  0.4212 -0.2250 -0.0877
 4224TIP3    H112678   0.475   3.557   3.480  1.7937  0.5620  0.5450
 4224TIP3    H212679   0.463   3.643   3.356  1.1228 -0.1849  0.0827
 4225TIP3   OH212680   1.806   0.916   0.570  0.3028  0.2238  0.4499
 4225TIP3    H112681   1.733   0.970   0.600  0.1530  0.1408  0.2345
 4225TIP3    H212682   1.873   0.979   0.544  0.9460  0.3101  2.1688
 4226TIP3   OH212683  -0.005   3.376   4.592  0.2497  0.4232 -0.1927
 4226TIP3    H112684  -0.051   3.351   4.672 -0.3907 -0.9978 -0.9752
 4226TIP3    H212685   0.075   3.418   4.623  0.0653 -0.1878  1.2011
 4227TIP3   OH212686   5.694   2.910   3.699 -0.2246 -0.4762  0.0431
 4227TIP3    H112687   5.632   2.864   3.643  0.5393 -0.5272 -0.7798
 4227TIP3    H212688   5.646   2.987   3.730 -0.5839 -0.3225 -0.8785
 4228TIP3   OH212689   2.414   2.062   0.808  0.6998 -0.9544 -0.5082
 4228TIP3    H112690   2.370   1.979   0.788 -0.0418 -0.0804 -2.7606
 4228TIP3    H212691   2.377   2.089   0.892 -2.3087 -0.8352 -1.7639
 4229TIP3   OH212692   1.839   5.318   4.162  0.3527 -0.0360 -0.1123
 4229TIP3    H112693   1.852   5.402   4.206  0.8359 -0.4296  0.5159
 4229TIP3    H212694   1.820   5.257   4.233  2.8412 -1.0250 -0.2118
 4230TIP3   OH212695   5.902   0.434   4.453  0.0285 -0.3958 -0.1389
 4230TIP3    H112696   5.900   0.403   4.543  2.4835 -1.7774 -0.4699
 4230TIP3    H212697   5.905   0.354   4.400 -0.7585  0.3905 -1.4466
 4231TIP3   OH212698   5.013   0.831   3.333 -0.3765 -0.0952  0.4248
 4231TIP3    H112699   4.977   0.767   3.394  1.3965 -0.0406  1.5818
 4231TIP3    H212700   5.096   0.794   3.304  0.1076  1.1140  0.1859
 4232TIP3   OH212701   6.304   0.473   1.221 -0.4604 -0.3951 -0.2445
 4232TIP3    H112702   6.228   0.416   1.230 -0.3017 -0.4171  1.2142
 4232TIP3    H212703   6.366   0.441   1.287  0.2331  0.5239 -0.4214
 4233TIP3   OH212704   4.384   2.868   4.863 -0.6397 -0.2376  0.3719
 4233TIP3    H112705   4.387   2.944   4.922  0.5052  0.3308 -0.3677
 4233TIP3    H212706   4.439   2.802   4.906 -0.2915 -0.0364  0.2477
 4234TIP3   OH212707   1.208   2.307   4.252 -0.2665  0.1145  0.3035
 4234TIP3    H112708   1.292   2.298   4.296  0.0273  1.4811  0.0817
 4234TIP3    H212709   1.177   2.394   4.278 -0.9652  0.1810 -0.6952
 4235TIP3   OH212710   1.490   4.509   1.053  0.1690 -0.0235  0.1275
 4235TIP3    H112711   1.464   4.420   1.079 -1.3459  0.5064  0.5275
 4235TIP3    H212712   1.505   4.503   0.959 -2.6243 -0.1661 -0.3947
 4236TIP3   OH212713   4.861   5.023   0.071  0.0747  0.5765 -0.8855
 4236TIP3    H112714   4.872   5.098   0.130  0.8947 -0.5509  0.4514
 4236TIP3    H212715   4.769   5.025   0.046 -0.6707  0.3047  1.5985
 4237TIP3   OH212716   3.011   1.339   1.903 -0.4780 -0.4501  0.0332
 4237TIP3    H112717   3.022   1.245   1.917 -1.3411 -0.4605  0.7376
 4237TIP3    H212718   2.988   1.373   1.989 -0.2883  0.3940 -0.2414
 4238TIP3   OH212719   0.605   3.431   4.405  0.2532  0.1318 -0.8825
 4238TIP3    H112720   0.516   3.457   4.428  0.3486 -0.3092  0.0622
 4238TIP3    H212721   0.658   3.508   4.423  0.5658 -0.6400  2.0849
 4239TIP3   OH212722   5.801   0.325   2.286 -0.0357 -0.0825  0.0278
 4239TIP3    H112723   5.730   0.387   2.272 -0.4694 -0.1869  1.5804
 4239TIP3    H212724   5.870   0.376   2.328 -0.5831 -0.7006  1.7679
 4240TIP3   OH212725   4.018   2.582   0.517  0.8303  0.1195 -0.3809
 4240TIP3    H112726   4.043   2.490   0.525 -0.0139 -0.0475  0.5750
 4240TIP3    H212727   4.094   2.624   0.477  1.2652 -0.9721 -0.7433
 4241TIP3   OH212728   4.886   2.430   2.900 -0.3474 -0.2260 -0.0753
 4241TIP3    H112729   4.905   2.513   2.945  1.6959 -0.6099 -0.1312
 4241TIP3    H212730   4.824   2.385   2.958  0.4857  0.2674  1.2527
 4242TIP3   OH212731   0.500   1.295   0.584 -0.2114 -0.3891 -0.3737
 4242TIP3    H112732   0.406   1.305   0.597  0.0830  1.7649  0.5224
 4242TIP3    H212733   0.539   1.365   0.637  1.9667 -2.0287  0.3384
 4243TIP3   OH212734   2.464   4.730   1.511  0.6145 -0.1996 -0.6715
 4243TIP3    H112735   2.439   4.639   1.525  0.6443  0.0226  1.0371
 4243TIP3    H212736   2.388   4.781   1.540  0.2305  0.3318 -2.4941
 4244TIP3   OH212737   4.983   3.010   3.544 -0.3579 -0.1608 -0.3025
 4244TIP3    H112738   5.028   3.089   3.513 -1.0701  0.2261 -0.3510
 4244TIP3    H212739   4.913   3.042   3.601 -1.3079 -0.6907 -1.1351
 4245TIP3   OH212740   0.430   5.065   1.265 -0.6645 -0.4665 -0.1320
 4245TIP3    H112741   0.473   5.108   1.339 -1.4351  1.4529 -0.7261
 4245TIP3    H212742   0.370   5.002   1.305  1.1512 -1.7097  0.7512
 4246TIP3   OH212743   4.602   1.298   4.421 -0.1580  0.1388  0.0910
 4246TIP3    H112744   4.560   1.273   4.503 -0.9245  0.1395 -0.2866
 4246TIP3    H212745   4.613   1.216   4.374 -0.1257  0.1881  0.0123
 4247TIP3   OH212746   1.177   3.171   3.419 -0.5751  0.5066 -0.0710
 4247TIP3    H112747   1.247   3.231   3.393  0.8442 -2.0672 -2.8011
 4247TIP3    H212748   1.121   3.165   3.341 -0.1362 -2.3175 -0.2426
 4248TIP3   OH212749   5.797   4.311   0.306  0.1047  0.9186 -0.0370
 4248TIP3    H112750   5.745   4.265   0.240  1.5859 -0.6415 -0.2157
 4248TIP3    H212751   5.849   4.374   0.256  1.1015 -0.1462 -0.4093
 4249TIP3   OH212752   4.738   0.986   4.843 -0.2395  0.1837 -0.1323
 4249TIP3    H112753   4.708   0.957   4.757 -1.2430 -0.5796  0.4427
 4249TIP3    H212754   4.660   1.025   4.883  0.0733  0.0550  0.6213
 4250TIP3   OH212755   1.337   5.528   1.625 -0.0937  0.5643  0.3980
 4250TIP3    H112756   1.268   5.529   1.692 -0.1779  3.2196  0.3778
 4250TIP3    H212757   1.289   5.523   1.542 -0.0872 -0.5016  0.4428
 4251TIP3   OH212758   1.297   2.596   0.977  0.4637 -0.6913 -0.5434
 4251TIP3    H112759   1.317   2.608   0.885 -0.6525 -1.0726 -0.8478
 4251TIP3    H212760   1.342   2.668   1.021  1.2068 -0.6455 -1.3454
 4252TIP3   OH212761   1.764   0.253   3.666 -0.2515  0.6915  0.2052
 4252TIP3    H112762   1.673   0.265   3.637 -0.0700  0.8322 -0.3005
 4252TIP3    H212763   1.778   0.158   3.662 -0.6988  0.5622  1.2683
 4253TIP3   OH212764   6.222   2.605   4.313  0.2947  0.5317  0.6562
 4253TIP3    H112765   6.190   2.542   4.249 -1.4582  1.0214  0.9861
 4253TIP3    H212766   6.294   2.650   4.269  1.3011 -1.3734  0.2677
 4254TIP3   OH212767   6.278   0.449   4.376  0.1110  0.5608 -0.0786
 4254TIP3    H112768   6.347   0.510   4.348  0.2522 -0.1173 -1.2709
 4254TIP3    H212769   6.306   0.364   4.343 -0.4645 -0.0410  0.9099
 4255TIP3   OH212770   4.413   0.578   3.350 -0.4601  0.9281  0.5573
 4255TIP3    H112771   4.396   0.616   3.436 -0.5682 -0.1649  1.0320
 4255TIP3    H212772   4.359   0.499   3.348  1.4649 -0.4476  0.4951
 4256TIP3   OH212773   6.300   5.482   1.579 -0.0533 -0.6577  0.4178
 4256TIP3    H112774   6.393   5.458   1.590  0.3548 -0.1905 -1.7110
 4256TIP3    H212775   6.269   5.426   1.509 -0.7627  0.7315 -0.4135
 4257TIP3   OH212776   0.548   3.182   4.472  0.8351 -0.5349 -0.1473
 4257TIP3    H112777   0.581   3.268   4.446 -1.2802  0.7914  1.2090
 4257TIP3    H212778   0.527   3.138   4.390  1.3847  0.4764 -0.8553
 4258TIP3   OH212779   4.280   1.894   2.713  0.2851 -0.2690  0.0530
 4258TIP3    H112780   4.319   1.906   2.627 -0.1151 -0.7797 -0.2052
 4258TIP3    H212781   4.208   1.833   2.698  0.5563 -0.7891  0.8454
 4259TIP3   OH212782   3.727   2.602   1.159  0.1039  0.3467 -0.3604
 4259TIP3    H112783   3.683   2.622   1.076 -0.6083  1.2083  0.2051
 4259TIP3    H212784   3.792   2.672   1.169 -0.1778  0.5596  0.0497
 4260TIP3   OH212785   3.343   3.213   2.605 -0.3497 -0.1026  0.0089
 4260TIP3    H112786   3.388   3.170   2.533 -0.3472  1.4832 -0.9596
 4260TIP3    H212787   3.397   3.193   2.682  1.3735  0.7750 -0.9218
 4261TIP3   OH212788   6.241   2.387   1.358  0.4037 -0.4281 -0.3522
 4261TIP3    H112789   6.220   2.480   1.350  0.2663 -0.2758  1.4545
 4261TIP3    H212790   6.326   2.385   1.401  0.2735 -1.1534 -0.1233
 4262TIP3   OH212791   1.833   0.833   3.219 -0.2782 -0.8489 -0.7481
 4262TIP3    H112792   1.777   0.828   3.296 -0.4256 -0.5627 -0.8361
 4262TIP3    H212793   1.809   0.756   3.166 -2.2703  0.5075 -1.9247
 4263TIP3   OH212794   1.792   4.322   4.747 -0.0720 -0.0685  0.4094
 4263TIP3    H112795   1.704   4.337   4.781 -0.3568  0.3151 -0.4840
 4263TIP3    H212796   1.810   4.398   4.693  0.4750 -0.5488 -0.0952
 4264TIP3   OH212797   1.260   2.807   5.106  0.5976 -0.1614 -0.6094
 4264TIP3    H112798   1.184   2.761   5.070  1.3685 -0.5400 -1.7729
 4264TIP3    H212799   1.288   2.867   5.037  0.6913  0.8120  0.2314
 4265TIP3   OH212800   3.230   5.575   3.660  0.0296 -0.1591 -0.1125
 4265TIP3    H112801   3.179   5.524   3.723  0.7729 -0.6411  0.1145
 4265TIP3    H212802   3.320   5.547   3.674  0.5157  1.5105  0.2806
 4266TIP3   OH212803   1.549   4.821   0.058 -0.3147  0.0410  0.3131
 4266TIP3    H112804   1.624   4.880   0.067 -1.2124  1.1663  0.5303
 4266TIP3    H212805   1.580   4.753  -0.003  1.2984 -0.2263  1.3693
 4267TIP3   OH212806   2.827   4.477   2.260  0.0822  0.2320 -0.2269
 4267TIP3    H112807   2.920   4.463   2.240  0.8978  1.0643  2.4655
 4267TIP3    H212808   2.781   4.419   2.201  2.3718 -0.7927 -1.1443
 4268TIP3   OH212809   5.813   5.732   1.195 -0.6523 -0.1221  0.3713
 4268TIP3    H112810   5.794   5.648   1.235 -1.4828  0.4754  1.2647
 4268TIP3    H212811   5.765   5.796   1.248 -0.1380  0.9026 -0.3585
 4269TIP3   OH212812   3.575   4.436   4.892  0.3309  0.2293  0.0631
 4269TIP3    H112813   3.635   4.370   4.856 -0.4010 -0.8230  0.7340
 4269TIP3    H212814   3.613   4.520   4.865  1.5614 -0.4444 -0.3675
 4270TIP3   OH212815   5.156   3.638   1.209 -0.5675  0.1176 -0.4570
 4270TIP3    H112816   5.086   3.703   1.225  0.2744  0.4269  2.6395
 4270TIP3    H212817   5.236   3.690   1.202 -0.1569 -0.4615 -0.1283
 4271TIP3   OH212818   2.439   5.878   4.071  0.3320 -0.1778 -0.3895
 4271TIP3    H112819   2.414   5.826   4.147 -0.1698  0.5433 -0.0472
 4271TIP3    H212820   2.377   5.851   4.003 -0.9593  1.0537  0.2366
 4272TIP3   OH212821   2.472   1.646   3.758  0.1348 -0.2303  0.5222
 4272TIP3    H112822   2.473   1.611   3.669  2.4364  0.0134  0.3962
 4272TIP3    H212823   2.414   1.586   3.807  2.2306 -3.0084 -0.1653
 4273TIP3   OH212824   4.564   2.050   1.520  0.6183 -0.0683  0.9646
 4273TIP3    H112825   4.632   2.079   1.581 -0.5690 -0.2429  2.4459
 4273TIP3    H212826   4.601   1.972   1.479  1.5399  0.1817  1.2837
 4274TIP3   OH212827   3.030   2.330   1.092 -0.2162  0.4583 -0.0415
 4274TIP3    H112828   3.061   2.386   1.162  1.4172  0.3363 -0.6146
 4274TIP3    H212829   3.021   2.243   1.132 -0.7872  0.7014  0.3652
 4275TIP3   OH212830   4.867   4.557   3.056  1.0840  0.2398 -0.0998
 4275TIP3    H112831   4.951   4.547   3.099  1.1928  0.4860 -0.2521
 4275TIP3    H212832   4.828   4.635   3.096  1.6707  1.1467 -1.2024
 4276TIP3   OH212833   1.432   3.565   5.203 -0.4509  0.3310  0.3067
 4276TIP3    H112834   1.467   3.478   5.220 -3.1655 -0.5672  1.8839
 4276TIP3    H212835   1.400   3.561   5.113  3.1011  1.1688 -1.1743
 4277TIP3   OH212836   4.408   2.496   0.441 -0.2748  0.3378  0.0522
 4277TIP3    H112837   4.498   2.497   0.409 -0.4777 -0.7568 -0.5621
 4277TIP3    H212838   4.414   2.455   0.527  0.0832  2.1290  0.9375
 4278TIP3   OH212839   5.198   5.781   0.261  0.0167 -0.4693  0.0842
 4278TIP3    H112840   5.255   5.709   0.235 -0.2425 -0.8460  0.5479
 4278TIP3    H212841   5.113   5.739   0.277 -0.8682  0.2865 -2.1815
 4279TIP3   OH212842   5.916   5.697   0.254  0.2855  0.7614  0.3694
 4279TIP3    H112843   6.008   5.682   0.231 -0.1198 -0.4430 -0.5577
 4279TIP3    H212844   5.892   5.621   0.307 -0.5592  0.3489 -0.5791
 4280TIP3   OH212845   5.112   1.583   4.368 -0.5873  0.0195  0.2409
 4280TIP3    H112846   5.136   1.597   4.276 -1.9305 -0.5073 -0.2200
 4280TIP3    H212847   5.020   1.609   4.373 -0.2282  1.1331  1.7228
 4281TIP3   OH212848   0.308   1.554   2.432 -0.2467 -0.0964 -0.6105
 4281TIP3    H112849   0.384   1.497   2.443  0.1373  0.4110 -0.5996
 4281TIP3    H212850   0.273   1.564   2.520 -1.8240 -2.3193 -0.8875
 4282TIP3   OH212851   1.559   2.154   4.719 -0.0417 -0.6747 -0.2801
 4282TIP3    H112852   1.532   2.089   4.654  0.7100 -0.1245 -1.1671
 4282TIP3    H212853   1.560   2.106   4.802  2.0611 -2.2349 -1.1267
 4283TIP3   OH212854   3.681   2.459   4.162 -0.3812 -0.7913  0.2800
 4283TIP3    H112855   3.653   2.549   4.177 -0.9539 -1.1200  1.2523
 4283TIP3    H212856   3.713   2.429   4.247 -0.4973 -1.6113  0.0465
 4284TIP3   OH212857   4.267   2.721   0.499  0.1447  0.1359 -0.4110
 4284TIP3    H112858   4.318   2.797   0.527  1.2811 -0.5141 -0.6897
 4284TIP3    H212859   4.331   2.651   0.488 -1.1443 -1.6832  2.4508
 4285TIP3   OH212860   5.185   5.267   1.510  0.3661  0.4290  0.3289
 4285TIP3    H112861   5.255   5.205   1.490  0.1758  0.3428 -0.0605
 4285TIP3    H212862   5.112   5.212   1.538 -0.4616  0.3232 -1.8481
 4286TIP3   OH212863   0.370   5.250   0.479 -0.0838 -0.1330 -0.1644
 4286TIP3    H112864   0.305   5.271   0.412  0.9156  0.5826 -0.9424
 4286TIP3    H212865   0.442   5.310   0.462  0.4747 -0.3965  1.1517
 4287TIP3   OH212866   4.000   1.041   4.798 -0.0514  0.1544  0.0983
 4287TIP3    H112867   3.973   1.131   4.819  0.0511 -0.2830  2.3406
 4287TIP3    H212868   3.923   0.988   4.821  0.0260 -0.3783 -0.8487
 4288TIP3   OH212869   3.460   4.845   4.917  0.1877  0.3421  0.8185
 4288TIP3    H112870   3.539   4.790   4.913  0.5872  0.9647 -0.2898
 4288TIP3    H212871   3.493   4.935   4.914 -0.5744  0.6074 -0.1833
 4289TIP3   OH212872   6.317   1.024   4.005 -0.0573  0.4313 -0.2337
 4289TIP3    H112873   6.341   1.116   3.994  1.9555 -0.2195 -2.3706
 4289TIP3    H212874   6.391   0.976   3.967 -0.8959 -2.0904  1.0909
 4290TIP3   OH212875   3.534   0.266   0.323  0.5205 -0.0643  0.1978
 4290TIP3    H112876   3.600   0.336   0.324  0.2282  0.2126  1.2207
 4290TIP3    H212877   3.480   0.283   0.400  0.8826 -1.8344  0.8868
 4291TIP3   OH212878   1.557   1.482   0.204 -0.2676 -0.4381 -0.5600
 4291TIP3    H112879   1.486   1.418   0.216  0.8738 -1.3256  2.0258
 4291TIP3    H212880   1.621   1.437   0.149 -0.9307 -0.2529 -1.5027
 4292TIP3   OH212881   5.456   2.437   0.463 -0.7161 -0.7000 -0.6150
 4292TIP3    H112882   5.418   2.504   0.520  0.9445 -0.6262  0.4714
 4292TIP3    H212883   5.486   2.368   0.523  1.5851 -0.3586 -1.2809
 4293TIP3   OH212884   6.001   2.348   5.132  0.0884 -0.4398  0.1310
 4293TIP3    H112885   6.028   2.429   5.177 -1.6808  0.1258  0.2358
 4293TIP3    H212886   5.983   2.287   5.204  1.4544 -0.9753  0.0511
 4294TIP3   OH212887   0.472   2.422   4.671 -0.2171  0.4339 -0.5227
 4294TIP3    H112888   0.524   2.445   4.749 -2.7245 -1.5170  1.9324
 4294TIP3    H212889   0.447   2.507   4.634  0.8596  1.4496  0.9470
 4295TIP3   OH212890   1.428   0.563   2.076 -0.2538 -0.0584 -0.3824
 4295TIP3    H112891   1.487   0.581   2.003 -1.0391 -0.0496 -1.0294
 4295TIP3    H212892   1.449   0.474   2.103 -0.4420 -0.3140 -1.0822
 4296TIP3   OH212893   3.411   4.546   2.466  0.3889 -0.2629  0.0001
 4296TIP3    H112894   3.357   4.601   2.408  0.2179 -0.1621  0.2539
 4296TIP3    H212895   3.458   4.488   2.406 -0.3786 -0.6933 -0.1916
 4297TIP3   OH212896   0.356   5.352   4.523  0.4961 -0.0482 -0.9058
 4297TIP3    H112897   0.381   5.260   4.535  2.3481  0.4939 -0.2526
 4297TIP3    H212898   0.362   5.365   4.428 -0.1549 -0.6808 -1.0463
 4298TIP3   OH212899   4.126   1.403   3.259  0.5137  0.0984 -0.5272
 4298TIP3    H112900   4.186   1.329   3.254 -0.3837 -0.6268 -0.9590
 4298TIP3    H212901   4.095   1.415   3.170 -0.4358  0.0697 -0.2129
 4299TIP3   OH212902   6.132   5.402   3.093  0.2951 -0.2898 -0.2658
 4299TIP3    H112903   6.086   5.393   3.009 -1.1093  0.6536  0.3770
 4299TIP3    H212904   6.194   5.329   3.093 -1.3648 -1.7914 -1.0783
 4300TIP3   OH212905   1.195   1.488   5.131  0.7019  0.6603  0.0604
 4300TIP3    H112906   1.191   1.395   5.109  2.6790  0.9433 -1.8311
 4300TIP3    H212907   1.107   1.521   5.115  0.6324 -0.3882 -1.9328
 4301TIP3   OH212908   1.299   3.826   3.335  0.0912  0.0648  0.2572
 4301TIP3    H112909   1.352   3.763   3.385  2.6556  0.5439 -1.6183
 4301TIP3    H212910   1.214   3.826   3.378  0.0899 -4.3013  0.6827
 4302TIP3   OH212911   3.936   5.867   3.905 -0.6954 -0.3187 -0.4423
 4302TIP3    H112912   3.897   5.788   3.943  1.6326 -1.0820  0.5098
 4302TIP3    H212913   3.949   5.845   3.813  1.6051 -1.8084  0.1766
 4303TIP3   OH212914   5.713   5.697   3.320  0.3383 -0.2460 -0.4118
 4303TIP3    H112915   5.783   5.679   3.258 -0.2055  1.4072 -1.5761
 4303TIP3    H212916   5.652   5.624   3.311  0.7423 -0.4988 -1.1157
 4304TIP3   OH212917   0.393   0.507   0.484 -0.5591  0.1428 -0.1657
 4304TIP3    H112918   0.383   0.497   0.578 -2.6175 -0.8365 -0.4369
 4304TIP3    H212919   0.438   0.590   0.473  0.3701 -0.0700  1.6842
 4305TIP3   OH212920   0.363   3.970   4.046  0.1521  0.8737  0.4709
 4305TIP3    H112921   0.399   3.946   3.961 -1.7122  1.6238 -0.5962
 4305TIP3    H212922   0.287   3.913   4.057  0.6954  0.3742  1.9358
 4306TIP3   OH212923   0.696   3.116   4.010  0.8247 -0.2060  0.1170
 4306TIP3    H112924   0.670   3.193   4.060  0.6081 -0.0471 -0.2401
 4306TIP3    H212925   0.786   3.134   3.983  0.3094  0.5455 -1.1572
 4307TIP3   OH212926   0.028   2.131   4.781 -0.7747 -0.6265  0.5153
 4307TIP3    H112927   0.071   2.103   4.862  2.0445 -0.3135 -0.7450
 4307TIP3    H212928   0.054   2.222   4.770 -1.2085 -0.6241 -0.6857
 4308TIP3   OH212929   1.616   5.770   2.307 -0.3268 -0.7474 -0.4197
 4308TIP3    H112930   1.533   5.784   2.262  0.0570 -1.3478 -1.3291
 4308TIP3    H212931   1.593   5.713   2.381 -0.8061 -0.4632 -0.3409
 4309TIP3   OH212932   4.314   0.088   3.407  0.4261  0.1904 -0.5578
 4309TIP3    H112933   4.344  -0.002   3.421  0.1235  0.3355  1.4145
 4309TIP3    H212934   4.245   0.081   3.341  0.3879 -1.0419 -0.4049
 4310TIP3   OH212935   2.522   1.615   5.200  0.1295 -0.2009  0.0521
 4310TIP3    H112936   2.496   1.592   5.111  1.1506  1.1392 -0.6214
 4310TIP3    H212937   2.576   1.693   5.190  0.7315 -0.3527  1.8018
 4311TIP3   OH212938   3.640   1.672   3.941  0.4121 -0.5927 -0.0622
 4311TIP3    H112939   3.647   1.692   4.034 -0.3386  1.0140 -0.3260
 4311TIP3    H212940   3.697   1.596   3.929  0.4995 -0.8486  1.7032
 4312TIP3   OH212941   1.452   5.326   4.574 -0.0902  0.0136 -0.4766
 4312TIP3    H112942   1.415   5.414   4.567 -0.8357 -0.3371 -1.1447
 4312TIP3    H212943   1.381   5.273   4.610  0.9464  0.0322  1.7092
 4313TIP3   OH212944   3.524   0.225   4.733  0.0132 -0.6003  0.5932
 4313TIP3    H112945   3.542   0.246   4.641 -1.1746 -1.1781  0.2060
 4313TIP3    H212946   3.487   0.306   4.768  2.1867  0.2373  1.1045
 4314TIP3   OH212947   4.746   3.901   2.555  0.1276  0.2248 -0.3216
 4314TIP3    H112948   4.833   3.902   2.595  0.3627 -0.4126 -0.8073
 4314TIP3    H212949   4.748   3.827   2.494 -0.9013 -0.0538 -0.0302
 4315TIP3   OH212950   3.841   3.836   1.148 -0.2335  0.1300 -0.1466
 4315TIP3    H112951   3.759   3.804   1.185 -0.6017  1.4008  0.1781
 4315TIP3    H212952   3.861   3.774   1.077 -0.3916 -1.3597  1.0534
 4316TIP3   OH212953   4.849   5.749   1.499 -0.3831  0.3809  0.9662
 4316TIP3    H112954   4.884   5.660   1.485  1.2878  1.2687 -1.1403
 4316TIP3    H212955   4.767   5.735   1.546 -0.2681 -2.2925  0.5667
 4317TIP3   OH212956   1.557   2.346   5.011 -0.3124 -0.1796 -0.0511
 4317TIP3    H112957   1.588   2.393   4.934  0.4958 -0.7814 -0.1017
 4317TIP3    H212958   1.624   2.280   5.028 -2.6488 -3.2328 -1.6606
 4318TIP3   OH212959   3.313   0.133   1.665  0.2072 -0.6951 -0.3492
 4318TIP3    H112960   3.279   0.082   1.591  1.4856 -1.1227 -0.6737
 4318TIP3    H212961   3.406   0.145   1.644  0.5586 -0.7014  1.1174
 4319TIP3   OH212962   4.776   2.983   1.263  0.3553  0.5908  1.2006
 4319TIP3    H112963   4.844   2.944   1.318  0.5699 -0.5407  0.1648
 4319TIP3    H212964   4.698   2.983   1.318 -0.0489 -2.7294  0.7965
 4320TIP3   OH212965   0.255   3.191   0.161 -0.5185  0.1751 -0.1821
 4320TIP3    H112966   0.283   3.244   0.086 -0.2991 -0.7934 -0.8054
 4320TIP3    H212967   0.239   3.104   0.124 -2.2586  0.1422  0.5532
 4321TIP3   OH212968   3.516   2.095   3.113  0.5083  0.3474 -0.4887
 4321TIP3    H112969   3.574   2.171   3.124 -0.5413  0.8390  2.1985
 4321TIP3    H212970   3.450   2.125   3.051 -0.4973  2.0878  1.3057
 4322TIP3   OH212971   2.835   1.561   1.286  0.4693 -0.5514  0.4775
 4322TIP3    H112972   2.772   1.577   1.356  1.1572  2.0621  0.6155
 4322TIP3    H212973   2.787   1.580   1.206 -0.1883 -3.1072  0.1966
 4323TIP3   OH212974   5.828   5.417   3.285 -0.1114  0.2169  0.2457
 4323TIP3    H112975   5.741   5.457   3.283  0.1036  0.6817  0.0248
 4323TIP3    H212976   5.873   5.454   3.209 -0.1516 -1.0057 -0.4023
 4324TIP3   OH212977   4.540   5.564   3.843 -0.2959  0.3333 -0.0177
 4324TIP3    H112978   4.456   5.609   3.847 -0.3807  0.1139  0.8572
 4324TIP3    H212979   4.557   5.535   3.933  1.0575  0.9935 -0.0307
 4325TIP3   OH212980   5.457   3.793   1.600 -0.1348  0.6705  0.2961
 4325TIP3    H112981   5.376   3.816   1.647 -0.0256 -0.0595  0.8734
 4325TIP3    H212982   5.452   3.698   1.592  0.1486  0.7339 -0.6506
 4326TIP3   OH212983   0.408   0.952   4.141 -0.2176  1.1081 -0.6224
 4326TIP3    H112984   0.477   0.903   4.186  1.7903  1.8878 -2.6174
 4326TIP3    H212985   0.341   0.967   4.207  1.8344  0.8479  1.6391
 4327TIP3   OH212986   0.244   1.461   5.162  0.4203 -0.1529 -0.3162
 4327TIP3    H112987   0.329   1.477   5.123  0.5599 -2.0424 -0.9010
 4327TIP3    H212988   0.234   1.529   5.228  2.8432 -0.5050  0.5025
 4328TIP3   OH212989   5.393   2.423   1.437  0.1865 -0.1032  0.0336
 4328TIP3    H112990   5.478   2.392   1.470 -0.7280 -0.7252  1.9620
 4328TIP3    H212991   5.385   2.511   1.473 -0.1577 -0.1926  0.1707
 4329TIP3   OH212992   5.456   3.500   3.396 -0.4998  0.3035 -0.5723
 4329TIP3    H112993   5.393   3.430   3.411 -0.2191  0.6254  2.8548
 4329TIP3    H212994   5.541   3.461   3.418  0.3381  0.4477 -3.2262
 4330TIP3   OH212995   5.855   0.578   0.387  0.1577  0.2813 -0.2003
 4330TIP3    H112996   5.937   0.533   0.366  0.3176 -0.2924  1.5261
 4330TIP3    H212997   5.793   0.507   0.404  0.0028  0.6826  1.0110
 4331TIP3   OH212998   5.301   5.848   1.317 -0.3725  0.2335 -0.1125
 4331TIP3    H112999   5.361   5.862   1.390 -0.7182  1.4051 -0.0285
 4331TIP3    H213000   5.216   5.877   1.350 -1.2846 -2.5305  0.1895
 4332TIP3   OH213001   2.699   5.929   1.156  1.1136 -0.4610  0.3227
 4332TIP3    H113002   2.640   5.960   1.087 -1.1351 -1.5947  1.6355
 4332TIP3    H213003   2.734   5.847   1.122 -0.8548 -1.5953  0.8969
 4333TIP3   OH213004   3.139   1.850   3.739  0.1491  0.0022 -0.1915
 4333TIP3    H113005   3.077   1.827   3.670 -3.8131  2.1889  2.2599
 4333TIP3    H213006   3.117   1.792   3.812 -1.3893  2.8250  1.7785
 4334TIP3   OH213007   5.906   3.831   2.178  0.5451  0.0641 -0.3699
 4334TIP3    H113008   5.937   3.748   2.213  1.5032 -0.3613 -2.0750
 4334TIP3    H213009   5.840   3.806   2.113 -1.3932  0.8292  1.2189
 4335TIP3   OH213010   2.421   4.246   4.068  0.0678 -0.6185 -0.2415
 4335TIP3    H113011   2.497   4.246   4.010 -0.5851  0.1023 -1.1242
 4335TIP3    H213012   2.363   4.312   4.032  0.1848  0.7980  1.9783
 4336TIP3   OH213013   0.784   1.982   4.584  0.4127  0.3827 -0.1463
 4336TIP3    H113014   0.734   2.059   4.558  0.0305  0.5705  1.0970
 4336TIP3    H213015   0.775   1.978   4.679 -0.5901 -1.8907 -0.2755
 4337TIP3   OH213016   3.416   2.912   1.340 -0.6990 -0.1671  0.0341
 4337TIP3    H113017   3.352   2.969   1.382  0.1016  1.3238 -0.6965
 4337TIP3    H213018   3.370   2.828   1.330 -1.2865 -0.2725  2.8103
 4338TIP3   OH213019   1.114   4.271   4.658 -0.0626 -0.2171  0.2611
 4338TIP3    H113020   1.026   4.273   4.620 -0.0656  0.8433  0.3032
 4338TIP3    H213021   1.120   4.184   4.697 -0.5109 -0.8825 -1.0849
 4339TIP3   OH213022   1.126   3.680   0.058  0.0486 -0.4915 -0.7541
 4339TIP3    H113023   1.036   3.693   0.086 -0.5673 -3.3434 -1.1125
 4339TIP3    H213024   1.148   3.593   0.090  2.1608 -0.4878 -2.0334
 4340TIP3   OH213025   5.954   1.675   3.049  0.4398 -0.3888  0.4998
 4340TIP3    H113026   5.876   1.632   3.085 -0.0391 -0.4222 -0.5531
 4340TIP3    H213027   5.949   1.660   2.955  2.6632 -1.9423  0.5608
 4341TIP3   OH213028   4.447   3.929   0.298  0.3404 -0.4437 -0.1762
 4341TIP3    H113029   4.518   3.993   0.294 -0.9177  1.0900  0.6393
 4341TIP3    H213030   4.371   3.979   0.329 -1.0345 -2.0745 -0.7201
 4342TIP3   OH213031   3.393   2.689   2.808 -0.2608 -0.5110 -0.2288
 4342TIP3    H113032   3.312   2.657   2.769 -1.5918  0.0742  1.9007
 4342TIP3    H213033   3.406   2.776   2.771 -0.5451 -0.6580 -0.6684
 4343TIP3   OH213034   3.390   4.635   4.656 -0.4501  0.6331  1.0363
 4343TIP3    H113035   3.359   4.545   4.667  0.0271  0.5601  1.9159
 4343TIP3    H213036   3.479   4.634   4.690  0.5798  0.8369 -1.4446
 4344TIP3   OH213037   4.822   5.689   4.991  0.6323  0.0133  0.1826
 4344TIP3    H113038   4.734   5.679   5.028 -0.4792  1.5963 -1.8561
 4344TIP3    H213039   4.814   5.656   4.901  1.5700  1.8891 -0.6498
 4345TIP3   OH213040   4.727   4.013   4.734 -0.2967 -0.4457  0.2293
 4345TIP3    H113041   4.746   3.929   4.777 -0.1870  0.0817  1.2282
 4345TIP3    H213042   4.798   4.024   4.672 -0.2079 -0.9999  0.2218
 4346TIP3   OH213043   0.906   1.321   1.965  0.0829 -0.2111 -0.4273
 4346TIP3    H113044   0.929   1.312   1.873 -3.0844 -1.8558 -1.1923
 4346TIP3    H213045   0.856   1.402   1.970  0.3920 -0.0365 -0.1151
 4347TIP3   OH213046   3.655   2.451   0.831  0.1291  0.1511 -0.0274
 4347TIP3    H113047   3.659   2.356   0.816  0.2335  0.1551 -0.0269
 4347TIP3    H213048   3.686   2.489   0.749 -4.4125  0.3190 -1.9637
 4348TIP3   OH213049   4.871   3.516   2.600  0.1134  0.1892  0.0640
 4348TIP3    H113050   4.843   3.425   2.613 -1.7330  0.3918 -1.9783
 4348TIP3    H213051   4.847   3.560   2.682 -2.6103 -0.4202 -0.2966
 4349TIP3   OH213052   5.585   1.562   4.110 -0.0115 -0.3363  0.3726
 4349TIP3    H113053   5.613   1.524   4.026 -0.2193 -0.0878  0.1916
 4349TIP3    H213054   5.653   1.534   4.172  1.0343  0.8179 -0.1925
 4350TIP3   OH213055   4.958   4.021   3.702 -0.1304 -0.1228  0.3148
 4350TIP3    H113056   4.984   4.028   3.794 -0.8074  1.0916  0.4421
 4350TIP3    H213057   4.944   4.112   3.674 -0.2800 -0.4921 -0.8926
 4351TIP3   OH213058   0.711   0.810   1.077 -0.3080 -0.2940  0.1230
 4351TIP3    H113059   0.685   0.882   1.135 -0.3721 -0.8554  0.7920
 4351TIP3    H213060   0.705   0.848   0.989  0.7607  0.8744  0.5250
 4352TIP3   OH213061   2.757   5.264   1.506 -0.1892 -0.0249  0.0078
 4352TIP3    H113062   2.758   5.190   1.444 -2.5318  0.6854 -1.0142
 4352TIP3    H213063   2.718   5.228   1.585  2.3363 -0.8039  0.9949
 4353TIP3   OH213064   4.048   3.684   0.028  0.4399 -0.2287  0.1507
 4353TIP3    H113065   4.125   3.728  -0.009  0.0554 -1.1838 -1.9349
 4353TIP3    H213066   4.064   3.684   0.123  1.6148  2.1213  0.0265
 4354TIP3   OH213067   1.093   1.044   1.811  0.3175  0.4840 -0.1601
 4354TIP3    H113068   1.171   1.098   1.818  1.3477 -0.6947 -1.8687
 4354TIP3    H213069   1.071   1.045   1.717  0.0241 -1.5502 -0.1554
 4355TIP3   OH213070   0.320   0.410   1.116 -0.1350 -0.0032 -0.3464
 4355TIP3    H113071   0.383   0.451   1.057 -0.5417  1.3891  0.1433
 4355TIP3    H213072   0.295   0.480   1.176  0.5512 -1.4403  1.7418
 4356TIP3   OH213073   5.379   4.049   2.966 -0.2141 -0.1766  0.0626
 4356TIP3    H113074   5.390   3.955   2.983  0.5479  0.4383  3.5565
 4356TIP3    H213075   5.468   4.081   2.950 -0.5726 -0.1333 -2.1513
 4357TIP3   OH213076   0.279   5.282   2.783  0.3200  0.3310 -0.4015
 4357TIP3    H113077   0.371   5.298   2.764  0.7811  0.3240  1.6177
 4357TIP3    H213078   0.278   5.254   2.874 -1.3403 -3.0675 -1.3197
 4358TIP3   OH213079   4.304   3.685   1.382 -0.5009  0.2286 -0.6930
 4358TIP3    H113080   4.344   3.674   1.296 -0.3950  0.5822 -0.6925
 4358TIP3    H213081   4.259   3.603   1.399 -0.9378  0.3369 -1.3023
 4359TIP3   OH213082   3.937   0.181   4.935  0.1192  0.2417  0.0525
 4359TIP3    H113083   3.924   0.086   4.941  0.5961  0.0785 -1.1446
 4359TIP3    H213084   3.869   0.218   4.991 -1.4978 -0.7481 -1.1563
 4360TIP3   OH213085   3.830   2.529   4.804  0.6222 -0.4113 -0.0085
 4360TIP3    H113086   3.896   2.537   4.734  0.4378 -2.1130 -0.4335
 4360TIP3    H213087   3.758   2.480   4.763  0.2543 -0.9198  1.2057
 4361TIP3   OH213088   2.403   0.528   2.915  0.3357 -0.0367 -0.6479
 4361TIP3    H113089   2.378   0.544   3.006 -0.4437 -2.3967 -0.3796
 4361TIP3    H213090   2.343   0.582   2.864  0.9122  1.4749  0.2006
 4362TIP3   OH213091   0.169   3.593   3.531 -0.4522 -0.4584  0.0804
 4362TIP3    H113092   0.255   3.626   3.506 -0.6222 -0.4102 -0.4561
 4362TIP3    H213093   0.167   3.600   3.627 -0.1107  0.1540  0.0441
 4363TIP3   OH213094   3.309   5.025   1.927  0.7787  0.2909 -0.2163
 4363TIP3    H113095   3.260   5.049   2.006  0.2553  2.0673 -1.0193
 4363TIP3    H213096   3.352   5.106   1.900  1.0911 -0.3228 -1.6488
 4364TIP3   OH213097   5.939   1.516   4.620  0.1093  0.0079 -0.0632
 4364TIP3    H113098   5.993   1.535   4.543  0.8871 -0.8846  0.2272
 4364TIP3    H213099   5.956   1.589   4.679  0.0806  0.3316 -0.4476
 4365TIP3   OH213100   0.197   0.181   3.087 -0.5665 -0.1096 -0.3655
 4365TIP3    H113101   0.155   0.110   3.136 -3.0862  1.1685 -0.4924
 4365TIP3    H213102   0.213   0.143   3.000  2.5188 -1.8974  0.8248
 4366TIP3   OH213103   4.836   3.515   0.253 -0.3543  0.5032 -0.0356
 4366TIP3    H113104   4.831   3.610   0.241  1.5177  1.0100  2.3660
 4366TIP3    H213105   4.929   3.496   0.261 -0.7701 -1.2577  1.3364
 4367TIP3   OH213106   4.424   0.500   5.012  0.5713  0.2097 -0.2255
 4367TIP3    H113107   4.489   0.569   5.021  0.1057  0.6952 -0.5267
 4367TIP3    H213108   4.393   0.483   5.101 -1.3568  2.3973 -0.3953
 4368TIP3   OH213109   2.062   0.816   0.282 -0.5342  0.0313 -0.1032
 4368TIP3    H113110   2.013   0.881   0.232  1.5963  1.2864 -0.7122
 4368TIP3    H213111   2.025   0.732   0.255 -2.1973  0.8838 -0.6275
 4369TIP3   OH213112   1.325   2.078   0.510  0.2001 -0.0701 -0.5483
 4369TIP3    H113113   1.396   2.134   0.541 -0.5640  1.3253 -1.2386
 4369TIP3    H213114   1.369   1.997   0.482  1.3797  0.3470  0.0383
 4370TIP3   OH213115   6.184   5.797   2.849  0.4962  0.5733 -0.0040
 4370TIP3    H113116   6.127   5.804   2.926  0.7896  0.6806  0.2070
 4370TIP3    H213117   6.126   5.814   2.774  0.3753  1.2874  0.2440
 4371TIP3   OH213118   3.055   5.737   4.932 -0.2351 -0.3125 -0.8102
 4371TIP3    H113119   3.112   5.796   4.980  0.4445 -1.3069 -0.3607
 4371TIP3    H213120   3.108   5.659   4.917 -1.8889 -1.8601  0.8454
 4372TIP3   OH213121   0.254   2.735   1.730 -0.7095  0.0654 -0.0195
 4372TIP3    H113122   0.277   2.730   1.637 -2.4718  0.4693 -0.5318
 4372TIP3    H213123   0.289   2.655   1.768 -0.0693 -0.1738 -1.0685
 4373TIP3   OH213124   4.691   3.290   1.630 -0.4104 -0.3903  0.5086
 4373TIP3    H113125   4.603   3.310   1.662 -0.1586  0.5700  0.6400
 4373TIP3    H213126   4.699   3.340   1.549 -0.1953 -0.9519  0.1762
 4374TIP3   OH213127   4.729   1.250   3.239 -0.8919  0.2992  0.6012
 4374TIP3    H113128   4.751   1.158   3.224  0.9214  0.7507  0.1434
 4374TIP3    H213129   4.779   1.274   3.318  1.1062  1.5971 -0.9374
 4375TIP3   OH213130   3.452   1.699   2.242 -0.0820  0.3010  0.4746
 4375TIP3    H113131   3.412   1.653   2.168 -0.9716 -0.6637  1.5135
 4375TIP3    H213132   3.527   1.645   2.265 -0.4662 -0.0231  0.9807
 4376TIP3   OH213133   4.670   2.782   4.680  0.4713  0.0730 -0.3432
 4376TIP3    H113134   4.663   2.832   4.760 -1.0809 -1.3227  0.4630
 4376TIP3    H213135   4.744   2.722   4.695  0.0216 -0.3615  0.1628
 4377TIP3   OH213136   3.912   0.500   2.641 -0.5099 -0.2045 -0.3328
 4377TIP3    H113137   3.874   0.481   2.726 -1.0195  0.1095 -0.4885
 4377TIP3    H213138   4.006   0.488   2.653 -0.4380  1.1344  0.6285
 4378TIP3   OH213139   1.977   3.925   3.968 -0.1943  0.0458 -0.3145
 4378TIP3    H113140   2.032   3.884   3.901  0.2561  1.2829 -0.7260
 4378TIP3    H213141   2.028   3.917   4.049  0.5477  1.0480 -0.6657
 4379TIP3   OH213142   0.700   0.055   4.982 -0.2235 -0.3541 -0.4915
 4379TIP3    H113143   0.613   0.019   4.968  0.1004 -0.7061 -1.7120
 4379TIP3    H213144   0.689   0.118   5.053 -1.1084 -1.6850  0.6114
 4380TIP3   OH213145   4.185   1.838   1.627 -0.4226 -0.5027  0.0996
 4380TIP3    H113146   4.103   1.788   1.621 -1.4872  0.7454  2.6466
 4380TIP3    H213147   4.215   1.846   1.536 -3.2129 -0.8626 -0.9596
 4381TIP3   OH213148   1.047   1.239   1.120  0.0022 -0.2084  0.6599
 4381TIP3    H113149   1.076   1.323   1.156 -0.6215 -0.5875  2.1091
 4381TIP3    H213150   1.101   1.227   1.041  0.2935  1.4040  0.5832
 4382TIP3   OH213151   0.542   1.536   1.357  0.2199  0.4897 -0.2559
 4382TIP3    H113152   0.504   1.516   1.271 -0.7616 -1.1696  0.5102
 4382TIP3    H213153   0.491   1.483   1.418  0.1659  2.4550  1.5140
 4383TIP3   OH213154   5.819   5.062   4.762  0.6483 -0.0049  0.0309
 4383TIP3    H113155   5.862   5.130   4.814  0.8133 -1.0821  1.3315
 4383TIP3    H213156   5.872   4.984   4.776  0.3234 -0.4771 -1.2653
 4384TIP3   OH213157   6.171   4.712   0.519  0.0153  0.0350  0.5697
 4384TIP3    H113158   6.104   4.656   0.479  0.4336 -0.8641  1.0881
 4384TIP3    H213159   6.157   4.798   0.480  0.7679 -0.9036 -1.9500
 4385TIP3   OH213160   1.240   5.788   1.798  0.0299 -0.0265 -0.0842
 4385TIP3    H113161   1.219   5.874   1.762 -0.9887 -0.6651 -1.1094
 4385TIP3    H213162   1.180   5.729   1.753  2.1680 -1.6078 -1.0385
 4386TIP3   OH213163   5.025   4.006   4.232 -0.1998 -0.2485 -0.2546
 4386TIP3    H113164   4.955   3.947   4.259 -0.0164 -0.3361  0.0393
 4386TIP3    H213165   5.096   3.948   4.203  0.6227 -0.2404  1.6159
 4387TIP3   OH213166   5.098   3.765   3.215 -0.4212 -0.7867  0.3009
 4387TIP3    H113167   5.140   3.848   3.193 -0.6057 -0.8070 -0.1356
 4387TIP3    H213168   5.092   3.718   3.131 -1.2360 -0.8235  0.3778
 4388TIP3   OH213169   4.616   2.305   0.317 -0.5489 -0.1661  0.2082
 4388TIP3    H113170   4.698   2.263   0.345 -0.6633 -0.8756 -0.5161
 4388TIP3    H213171   4.639   2.398   0.309 -0.1866 -0.1354  1.3978
 4389TIP3   OH213172   1.704   1.653   1.276  0.5029  0.1678  0.4708
 4389TIP3    H113173   1.668   1.592   1.212 -0.1561  1.8763 -0.8909
 4389TIP3    H213174   1.780   1.608   1.312  0.8768 -0.9197 -1.5042
 4390TIP3   OH213175   1.547   5.519   0.279 -0.0575 -0.2126 -0.0343
 4390TIP3    H113176   1.468   5.555   0.319 -0.5150  0.0101 -1.1044
 4390TIP3    H213177   1.517   5.480   0.197  1.2381  1.8476 -1.5859
 4391TIP3   OH213178   3.563   0.431   3.255  0.3487  0.7250 -0.0001
 4391TIP3    H113179   3.600   0.388   3.178 -0.8467 -1.3394  0.5236
 4391TIP3    H213180   3.469   0.420   3.246  0.2247 -0.6647  2.3324
 4392TIP3   OH213181   2.782   0.481   0.131 -0.3426  0.4730  0.2551
 4392TIP3    H113182   2.842   0.510   0.200  1.1237 -0.6762 -0.4656
 4392TIP3    H213183   2.704   0.534   0.143  0.9092  2.2226  1.0901
 4393TIP3   OH213184   1.959   2.992   2.554 -0.6508  0.5528 -0.0635
 4393TIP3    H113185   1.978   3.048   2.629  2.1484 -1.8062  1.1787
 4393TIP3    H213186   2.037   3.000   2.498 -0.4080 -1.5920 -0.0994
 4394TIP3   OH213187   5.850   4.670   3.898 -0.2670  0.0445  0.4335
 4394TIP3    H113188   5.880   4.749   3.853 -1.4258  0.1158 -0.2597
 4394TIP3    H213189   5.790   4.701   3.965  0.7251 -0.1359  1.4408
 4395TIP3   OH213190   2.925   3.172   1.730  0.1312 -0.0909 -0.4067
 4395TIP3    H113191   2.884   3.258   1.734  1.2409  0.5138 -1.5051
 4395TIP3    H213192   3.019   3.190   1.733  0.3649 -1.3179  0.0781
 4396TIP3   OH213193   0.615   0.939   3.641 -0.2346 -0.0763 -0.1030
 4396TIP3    H113194   0.635   0.913   3.551  2.5311  0.6460  0.2106
 4396TIP3    H213195   0.564   1.020   3.631 -1.0095 -0.6417 -0.9858
 4397TIP3   OH213196   3.861   4.199   4.039  0.2509 -0.3500  0.4863
 4397TIP3    H113197   3.951   4.209   4.008 -0.6413  3.1341 -1.5445
 4397TIP3    H213198   3.867   4.209   4.134  1.9608  0.1690  0.3608
 4398TIP3   OH213199   2.657   1.701   1.734  0.3604  0.3392  0.1179
 4398TIP3    H113200   2.579   1.756   1.730 -0.3777 -0.5976  0.9635
 4398TIP3    H213201   2.627   1.621   1.778  1.6137 -0.3595 -0.2570
 4399TIP3   OH213202   5.946   2.315   0.940 -0.4164  0.1594  0.2206
 4399TIP3    H113203   5.871   2.258   0.926 -0.7634  0.9995 -1.6028
 4399TIP3    H213204   5.974   2.297   1.030 -1.2360 -1.9810  0.0871
 4400TIP3   OH213205   0.986   5.154   4.911 -0.1061  0.1549 -0.5477
 4400TIP3    H113206   1.076   5.123   4.898  0.2063  0.0312  1.5349
 4400TIP3    H213207   0.933   5.074   4.912 -0.0412  0.1133 -0.4088
 4401TIP3   OH213208   4.484   5.163   2.910 -0.3965  1.0256 -0.1293
 4401TIP3    H113209   4.461   5.251   2.940 -1.1119  0.8565 -0.1685
 4401TIP3    H213210   4.483   5.109   2.989 -1.4940  0.7447 -0.3105
 4402TIP3   OH213211   3.970   3.856   2.927 -0.3863 -0.5380 -0.0987
 4402TIP3    H113212   3.951   3.876   2.835  0.2534 -0.2597 -0.1755
 4402TIP3    H213213   4.060   3.885   2.940 -0.7596  0.2583  0.8552
 4403TIP3   OH213214   0.580   0.736   0.427  0.2342  0.0518  0.0132
 4403TIP3    H113215   0.673   0.748   0.444  0.2106  0.6762 -0.2875
 4403TIP3    H213216   0.548   0.822   0.402 -0.9516  0.4238  2.5483
 4404TIP3   OH213217   2.765   2.821   5.102  0.1160 -0.0326 -0.7652
 4404TIP3    H113218   2.778   2.905   5.144 -0.6114  0.5005 -1.5700
 4404TIP3    H213219   2.820   2.760   5.151 -1.7743  0.2309  1.8725
 4405TIP3   OH213220   3.219   2.379   3.664 -0.0231  0.1173 -0.3868
 4405TIP3    H113221   3.296   2.418   3.624 -0.0448 -0.0811 -0.6222
 4405TIP3    H213222   3.248   2.294   3.695  0.1155  0.4509  0.4434
 4406TIP3   OH213223   3.351   1.547   2.048 -0.3647 -0.4074 -0.2618
 4406TIP3    H113224   3.267   1.533   2.092 -0.8933 -0.2696 -1.2075
 4406TIP3    H213225   3.376   1.460   2.017  0.2275 -0.5833  0.6773
 4407TIP3   OH213226   0.093   2.183   1.213 -0.2724  0.5966  0.3910
 4407TIP3    H113227   0.145   2.263   1.227  0.6780 -0.1801  1.4844
 4407TIP3    H213228   0.152   2.112   1.233 -0.6500 -0.4972 -2.0464
 4408TIP3   OH213229   2.167   5.001   1.729  0.4395  0.3747  0.0859
 4408TIP3    H113230   2.091   4.998   1.670  0.1490  0.0094  0.4746
 4408TIP3    H213231   2.241   5.022   1.672 -0.0025  1.0600 -0.2505
 4409TIP3   OH213232   5.937   0.981   3.756 -0.0714  0.1495  0.0226
 4409TIP3    H113233   5.975   0.955   3.839 -0.5664 -1.2607 -0.1592
 4409TIP3    H213234   5.865   0.919   3.742  0.4322 -0.0846 -1.7735
 4410TIP3   OH213235   5.646   5.663   2.337  0.0675  0.3665 -0.4011
 4410TIP3    H113236   5.560   5.704   2.337 -0.6763 -1.0100  1.7602
 4410TIP3    H213237   5.650   5.615   2.420  2.7630  0.0397 -0.6118
 4411TIP3   OH213238   0.168   0.241   4.358  0.1378  0.2092  0.0680
 4411TIP3    H113239   0.176   0.146   4.370  1.4560  0.2241 -0.4864
 4411TIP3    H213240   0.204   0.279   4.438 -0.3573  0.2509  0.2746
 4412TIP3   OH213241   3.191   4.602   1.401  0.0142 -0.6077  0.4848
 4412TIP3    H113242   3.278   4.568   1.378 -0.4367 -0.7677 -1.1288
 4412TIP3    H213243   3.195   4.618   1.495  1.7774 -0.6610  0.4465
 4413TIP3   OH213244   6.011   3.370   3.702  0.2037 -0.0099  0.1566
 4413TIP3    H113245   5.983   3.453   3.662 -0.7461 -0.7246 -0.7195
 4413TIP3    H213246   5.988   3.380   3.794 -1.3493  0.1381 -0.2191
 4414TIP3   OH213247   0.327   0.036   0.478  0.5890 -0.0993 -0.1080
 4414TIP3    H113248   0.381   0.109   0.450  0.4188 -0.3799 -1.2466
 4414TIP3    H213249   0.299  -0.005   0.396  0.2293 -1.1013  0.4999
 4415TIP3   OH213250   2.418   3.990   4.183 -0.1969  0.1733 -0.1157
 4415TIP3    H113251   2.454   4.004   4.271 -0.4658 -0.1436  0.0473
 4415TIP3    H213252   2.416   4.078   4.144  2.8992 -0.0513 -0.9918
 4416TIP3   OH213253   6.195   4.649   1.500  0.5036  0.5499 -0.8660
 4416TIP3    H113254   6.258   4.588   1.540 -0.5122  0.8349  1.3546
 4416TIP3    H213255   6.234   4.735   1.515 -1.0637  0.8815  2.1294
 4417TIP3   OH213256   5.088   4.546   0.839  0.1056 -1.0145 -0.1737
 4417TIP3    H113257   5.029   4.621   0.832 -0.3306 -1.3075  0.3252
 4417TIP3    H213258   5.153   4.572   0.904  0.3467 -0.8103 -0.4965
 4418TIP3   OH213259   5.084   0.382   0.188  0.5974  0.1200 -0.1035
 4418TIP3    H113260   4.997   0.344   0.187 -0.1275  1.4785  2.1976
 4418TIP3    H213261   5.135   0.323   0.244  0.6168  0.3294  0.1024
 4419TIP3   OH213262   2.621   5.099   1.295  0.2128 -0.3623  0.8751
 4419TIP3    H113263   2.536   5.143   1.290 -0.5753 -1.9352 -2.2027
 4419TIP3    H213264   2.600   5.006   1.298  1.8893 -0.8049  4.3985
 4420TIP3   OH213265   0.975   3.422   4.281  0.6979 -0.7127 -0.2835
 4420TIP3    H113266   1.035   3.383   4.345 -1.5403 -3.3003  0.4069
 4420TIP3    H213267   0.924   3.485   4.332  0.7026 -0.8361 -0.1255
 4421TIP3   OH213268   4.414   2.870   2.510 -0.2486 -0.0253  0.0840
 4421TIP3    H113269   4.327   2.884   2.549 -1.1768 -0.4406 -1.7141
 4421TIP3    H213270   4.404   2.790   2.459  1.2136 -0.0696 -0.1637
 4422TIP3   OH213271   0.940   3.289   0.874  0.2463  0.3923  0.3054
 4422TIP3    H113272   0.989   3.369   0.895  0.2980  0.1920  0.9684
 4422TIP3    H213273   0.862   3.294   0.929 -0.0774  0.3028 -0.1407
 4423TIP3   OH213274   4.397   0.174   4.603  0.1391  0.3781 -0.3508
 4423TIP3    H113275   4.355   0.251   4.640 -0.4942 -1.0230  2.1615
 4423TIP3    H213276   4.464   0.151   4.667  0.7710 -0.7683 -1.3821
 4424TIP3   OH213277   1.989   4.698   2.409 -0.3121  0.2228 -0.0053
 4424TIP3    H113278   1.933   4.666   2.480  0.4765 -0.5434  0.2876
 4424TIP3    H213279   2.000   4.791   2.427  1.2598 -0.2759  1.8713
 4425TIP3   OH213280   3.229   0.341   3.583 -0.1465 -0.0104 -0.1368
 4425TIP3    H113281   3.213   0.268   3.523  0.5109 -0.3912  0.1489
 4425TIP3    H213282   3.229   0.301   3.670  1.5162  0.1019 -0.0602
 4426TIP3   OH213283   4.881   0.589   2.832 -0.4131  0.5281 -0.7560
 4426TIP3    H113284   4.953   0.537   2.869  1.2080  1.1286 -2.8905
 4426TIP3    H213285   4.803   0.534   2.844  0.9490 -1.6713 -1.4141
 4427TIP3   OH213286   6.101   1.748   1.749  0.7572 -0.4704 -0.6126
 4427TIP3    H113287   6.034   1.681   1.729 -0.1259 -0.0218  0.7211
 4427TIP3    H213288   6.168   1.700   1.797 -0.0284 -0.3667  0.6259
 4428TIP3   OH213289   0.154   2.811   1.964 -0.6630 -0.1376  0.1104
 4428TIP3    H113290   0.087   2.743   1.966  1.0118 -1.8460  0.6267
 4428TIP3    H213291   0.192   2.805   1.876  1.3477 -1.8583  1.0035
 4429TIP3   OH213292   5.427   3.418   1.315  0.1157  0.3130  0.7779
 4429TIP3    H113293   5.341   3.457   1.328  0.0041  0.8530 -1.2388
 4429TIP3    H213294   5.486   3.493   1.308  0.7729 -0.0531  2.1958
 4430TIP3   OH213295   0.909   3.752   3.724  0.1023 -0.5386 -0.5382
 4430TIP3    H113296   0.903   3.666   3.682 -0.5446 -1.6198  1.6447
 4430TIP3    H213297   0.890   3.736   3.816  0.7075  1.8503  0.0848
 4431TIP3   OH213298   5.354   1.275   0.669  0.1346  0.4955  0.4913
 4431TIP3    H113299   5.416   1.203   0.680  0.5111  0.4701 -1.4357
 4431TIP3    H213300   5.399   1.352   0.703  1.2914  0.4797 -0.9142
 4432TIP3   OH213301   3.117   3.122   5.088 -0.2011 -0.4435 -0.0051
 4432TIP3    H113302   3.106   3.121   5.183 -0.5355 -1.4204 -0.0490
 4432TIP3    H213303   3.049   3.182   5.057 -1.4768 -1.7219  0.2199
 4433TIP3   OH213304   3.527   4.455   1.352 -1.2469 -0.0469 -0.9111
 4433TIP3    H113305   3.458   4.396   1.382 -1.5563 -0.1304 -1.7568
 4433TIP3    H213306   3.498   4.483   1.266 -0.5781  0.5042 -0.9611
 4434TIP3   OH213307   0.624   1.013   1.624 -0.3671 -0.0510 -0.0230
 4434TIP3    H113308   0.671   1.063   1.690 -0.9911  0.6279 -0.0719
 4434TIP3    H213309   0.628   0.922   1.654  2.0412 -0.2305 -0.6663
 4435TIP3   OH213310   2.539   0.779   3.582 -0.1103  0.6370  0.4279
 4435TIP3    H113311   2.539   0.809   3.673 -0.3463  1.0807  0.2866
 4435TIP3    H213312   2.471   0.831   3.539  0.1102  0.5532 -0.0405
 4436TIP3   OH213313   3.360   0.752   3.515  0.4456  0.7790 -0.0584
 4436TIP3    H113314   3.324   0.809   3.583  0.3534  0.1384  0.4374
 4436TIP3    H213315   3.395   0.677   3.563 -0.0814  0.0767 -0.7587
 4437TIP3   OH213316   0.909   1.301   3.550 -0.6366 -0.0417 -0.1011
 4437TIP3    H113317   0.853   1.258   3.486 -1.1438  1.5042 -0.7362
 4437TIP3    H213318   0.874   1.389   3.558  2.8060  1.7038 -1.9794
 4438TIP3   OH213319   3.667   2.873   3.886 -0.0937 -0.2728 -0.1663
 4438TIP3    H113320   3.599   2.806   3.882  0.0243 -0.3310 -1.6866
 4438TIP3    H213321   3.680   2.900   3.795  1.6742 -0.0214  0.1192
 4439TIP3   OH213322   0.096   3.345   3.138  0.4767 -0.1230 -0.1346
 4439TIP3    H113323   0.115   3.438   3.143 -1.0913  0.1364  2.1093
 4439TIP3    H213324   0.182   3.302   3.144  0.9984  1.1170  2.8342
 4440TIP3   OH213325   4.858   5.226   4.735 -0.1234 -0.1979 -0.1865
 4440TIP3    H113326   4.882   5.163   4.666  1.3635 -1.3261  1.2753
 4440TIP3    H213327   4.801   5.176   4.794 -1.2811  0.7180 -0.4971
 4441TIP3   OH213328   5.931   0.064   4.557 -0.0626 -0.1417  0.0801
 4441TIP3    H113329   5.948   0.008   4.633 -0.7411 -0.5615 -0.0778
 4441TIP3    H213330   5.944   0.153   4.590  0.4709 -0.3589  0.4718
 4442TIP3   OH213331   2.612   5.229   1.713 -0.2634  0.0262 -0.4671
 4442TIP3    H113332   2.535   5.180   1.742  0.1412 -0.4792 -0.2178
 4442TIP3    H213333   2.606   5.313   1.759 -0.2653 -0.3083  0.1511
 4443TIP3   OH213334   1.455   5.203   2.673  0.2510  0.2848 -0.2799
 4443TIP3    H113335   1.471   5.297   2.679 -0.1181  0.3428 -0.1522
 4443TIP3    H213336   1.443   5.187   2.579 -1.0654  0.6110 -0.1882
 4444TIP3   OH213337   4.650   0.038   3.181  0.3982  0.1769 -0.0839
 4444TIP3    H113338   4.714   0.088   3.131  0.2508 -0.4472 -0.9262
 4444TIP3    H213339   4.577   0.026   3.120  0.4283 -1.0265  0.0907
 4445TIP3   OH213340   6.365   4.936   4.221 -0.6555  0.2390  0.0493
 4445TIP3    H113341   6.303   4.864   4.226 -0.9640  0.5459  0.7062
 4445TIP3    H213342   6.328   5.005   4.277 -0.1911  0.7748 -0.2850
 4446TIP3   OH213343   1.440   2.566   1.725 -0.3190 -0.3828  0.0895
 4446TIP3    H113344   1.356   2.537   1.691  0.2615 -2.1700  0.0758
 4446TIP3    H213345   1.501   2.555   1.652 -0.2757  2.3868 -0.4231
 4447TIP3   OH213346   0.743   3.943   4.029 -0.3184  0.3940 -0.0678
 4447TIP3    H113347   0.706   4.031   4.033  0.2858  0.6514  0.1009
 4447TIP3    H213348   0.680   3.888   4.075 -0.3922  0.8514  0.3920
 4448TIP3   OH213349   0.475   3.457   1.639 -0.2502 -0.0993 -0.1398
 4448TIP3    H113350   0.510   3.420   1.721  0.9692  2.4620  0.6247
 4448TIP3    H213351   0.417   3.527   1.668  1.2607  1.7626 -1.3869
 4449TIP3   OH213352   3.580   1.063   3.227  0.2162 -0.3969  0.0093
 4449TIP3    H113353   3.604   1.068   3.135  0.8730  1.4351  0.2363
 4449TIP3    H213354   3.659   1.031   3.271  1.0450  1.7772  0.2624
 4450TIP3   OH213355   5.295   5.279   3.541 -0.2800  0.0772  0.0554
 4450TIP3    H113356   5.297   5.345   3.472 -0.6374 -0.0799 -0.1078
 4450TIP3    H213357   5.280   5.196   3.495  0.2063 -0.1240  0.2548
 4451TIP3   OH213358   6.073   3.941   3.897  0.1888 -0.1843  0.5190
 4451TIP3    H113359   6.002   3.901   3.946  0.9680  0.6201  2.3933
 4451TIP3    H213360   6.115   3.867   3.851 -1.2165 -0.7899  0.1635
 4452TIP3   OH213361   5.587   3.030   4.780  0.2931  0.4807 -0.3877
 4452TIP3    H113362   5.641   2.965   4.735  0.2743 -0.1486  0.4642
 4452TIP3    H213363   5.561   3.091   4.712  0.9740  0.0398 -1.0614
 4453TIP3   OH213364   0.955   0.027   2.679  0.3414  0.4077 -0.7882
 4453TIP3    H113365   0.972  -0.033   2.606  0.4204 -1.3666  0.6202
 4453TIP3    H213366   0.863   0.013   2.701  0.3168  0.9380 -0.5395
 4454TIP3   OH213367   6.311   0.712   1.427  0.3965  0.6511 -0.0024
 4454TIP3    H113368   6.348   0.634   1.384 -1.4058  0.1124 -0.6404
 4454TIP3    H213369   6.347   0.786   1.378  2.7473  0.3243  1.0799
 4455TIP3   OH213370   4.911   1.134   2.826 -0.6064 -0.3754  0.3440
 4455TIP3    H113371   4.865   1.050   2.825 -0.1722 -0.6502  1.5298
 4455TIP3    H213372   5.003   1.111   2.812 -0.5800 -0.0212 -0.0686
 4456TIP3   OH213373   0.094   4.148   3.793 -0.3428  0.2650 -0.3802
 4456TIP3    H113374   0.040   4.088   3.844 -1.8864 -0.5798 -2.8074
 4456TIP3    H213375   0.052   4.233   3.803  0.5573  0.5389  1.3132
 4457TIP3   OH213376   2.255   3.706   1.919 -0.3061  0.2948 -0.5087
 4457TIP3    H113377   2.249   3.737   1.829 -0.7641  0.2812 -0.4846
 4457TIP3    H213378   2.338   3.658   1.922 -0.4762 -0.0423 -1.0261
 4458TIP3   OH213379   5.800   0.783   0.572 -0.1740 -0.0682 -0.2819
 4458TIP3    H113380   5.704   0.785   0.565 -0.1424  1.3861 -0.7149
 4458TIP3    H213381   5.827   0.717   0.508 -0.7974  0.9888 -1.6890
 4459TIP3   OH213382   3.594   2.060   1.951 -0.7074  0.0596  0.5366
 4459TIP3    H113383   3.581   2.028   2.040 -0.7024  0.6267  0.7467
 4459TIP3    H213384   3.577   2.154   1.956 -0.1549  0.1928  0.0561
 4460TIP3   OH213385   0.410   0.330   5.059 -0.1854 -0.2704  0.5073
 4460TIP3    H113386   0.434   0.408   5.010  0.8808 -1.2159 -0.5411
 4460TIP3    H213387   0.493   0.299   5.096 -0.7113 -0.5034  1.5245
 4461TIP3   OH213388   5.110   1.147   1.063 -0.2337 -0.1833 -0.3743
 4461TIP3    H113389   5.139   1.111   1.146 -1.1216 -1.3707 -0.5642
 4461TIP3    H213390   5.128   1.241   1.070 -0.3745 -0.2533  1.1740
 4462TIP3   OH213391   2.550   4.196   1.515  0.3841 -0.2087  0.5445
 4462TIP3    H113392   2.619   4.185   1.580 -0.9042 -0.3348  1.9591
 4462TIP3    H213393   2.470   4.168   1.560 -1.2263  3.5068  0.3611
 4463TIP3   OH213394   2.374   4.464   3.895  0.2250 -0.1905 -0.3316
 4463TIP3    H113395   2.304   4.439   3.835  1.4243  0.0063 -1.8807
 4463TIP3    H213396   2.429   4.523   3.844  0.5007  1.1872  1.4604
 4464TIP3   OH213397   1.552   4.227   0.634 -0.2060 -0.2958 -0.5668
 4464TIP3    H113398   1.647   4.229   0.643 -0.2392 -0.8293 -0.0211
 4464TIP3    H213399   1.536   4.160   0.566 -0.1689  0.2350 -1.1039
 4465TIP3   OH213400   0.630   3.915   1.312 -0.1896 -0.3025  0.2120
 4465TIP3    H113401   0.547   3.961   1.322  0.7630  1.4593  0.2808
 4465TIP3    H213402   0.611   3.849   1.245 -2.2126 -1.4569  1.7793
 4466TIP3   OH213403   5.323   2.677   0.912 -0.1245  0.8710  0.2400
 4466TIP3    H113404   5.298   2.762   0.875  0.0200  0.1275 -1.6755
 4466TIP3    H213405   5.417   2.671   0.897  0.0928  0.8841  1.5141
 4467TIP3   OH213406   0.070   2.818   3.692 -0.3057 -0.6045  0.3977
 4467TIP3    H113407   0.074   2.732   3.652 -1.5602 -0.7218  0.4794
 4467TIP3    H213408  -0.021   2.828   3.718  0.2495 -0.1105  2.2913
 4468TIP3   OH213409   5.627   3.932   1.417  0.2319  0.2706 -0.1412
 4468TIP3    H113410   5.565   3.906   1.486  0.7318  0.4319  0.3754
 4468TIP3    H213411   5.619   4.027   1.414  0.8305  0.3391  0.2929
 4469TIP3   OH213412   3.209   1.849   1.590 -0.3912  0.2960  0.2946
 4469TIP3    H113413   3.113   1.847   1.587 -0.3632 -0.4409 -0.3960
 4469TIP3    H213414   3.237   1.807   1.509  0.5112 -0.8745  1.1583
 4470TIP3   OH213415   1.851   2.852   1.449  0.2512 -0.0462 -0.1759
 4470TIP3    H113416   1.845   2.943   1.479 -1.9141 -0.2592  0.2129
 4470TIP3    H213417   1.799   2.850   1.368 -1.6538 -1.3262  0.9845
 4471TIP3   OH213418   5.396   1.686   1.475  0.0956 -0.4553  0.1622
 4471TIP3    H113419   5.436   1.738   1.405 -0.5508  0.3833  0.3981
 4471TIP3    H213420   5.302   1.698   1.463 -0.0685 -1.5756  0.2325
 4472TIP3   OH213421   2.113   0.606   3.247  0.0664  0.0048  0.6454
 4472TIP3    H113422   2.022   0.579   3.237 -0.2427  1.4242 -0.8745
 4472TIP3    H213423   2.156   0.530   3.286 -1.3195 -1.5148 -0.6019
 4473TIP3   OH213424   3.676   4.930   1.049  0.3599  0.5921  0.3077
 4473TIP3    H113425   3.622   4.853   1.067 -0.7421  1.4615  0.8564
 4473TIP3    H213426   3.618   4.988   0.998  1.0125  1.2521  0.2980
 4474TIP3   OH213427   1.751   0.867   1.543  0.0137  0.1683  0.2727
 4474TIP3    H113428   1.793   0.826   1.467  1.1599  0.2454  0.8483
 4474TIP3    H213429   1.778   0.814   1.617  0.1514  0.9794  0.8149
 4475TIP3   OH213430   5.669   4.578   4.172 -0.4644 -0.3121  0.1238
 4475TIP3    H113431   5.610   4.523   4.223 -0.1416  2.0038  3.2368
 4475TIP3    H213432   5.611   4.630   4.117 -0.8168 -2.7454 -2.0493
 4476TIP3   OH213433   1.468   4.062   0.418 -0.0712  0.3383 -0.1437
 4476TIP3    H113434   1.516   4.131   0.371 -1.1463  1.2744  0.1044
 4476TIP3    H213435   1.410   4.024   0.353  0.2956 -0.1433 -0.2003
 4477TIP3   OH213436   4.673   3.128   2.967 -0.0232  0.0646 -0.6503
 4477TIP3    H113437   4.730   3.157   2.895 -1.7471  2.3688 -1.2112
 4477TIP3    H213438   4.585   3.127   2.929 -0.7767 -0.2660  1.0106
 4478TIP3   OH213439   4.190   1.116   4.304  0.3737 -0.2138  0.0860
 4478TIP3    H113440   4.209   1.209   4.320 -3.6280  0.7315  0.6399
 4478TIP3    H213441   4.153   1.086   4.387 -0.5452 -1.6091 -0.7929
 4479TIP3   OH213442   1.064   3.535   0.451 -0.1790 -0.3830  0.1435
 4479TIP3    H113443   1.034   3.486   0.527  0.7894 -0.5810  0.4081
 4479TIP3    H213444   1.093   3.469   0.388 -0.1689 -0.1953 -0.0535
 4480TIP3   OH213445   2.738   0.115   2.334  0.1737  0.0060 -0.3262
 4480TIP3    H113446   2.731   0.142   2.426  0.3835 -0.3442 -0.2054
 4480TIP3    H213447   2.675   0.170   2.288 -1.7155 -1.4606  0.3871
 4481TIP3   OH213448   5.418   5.953   3.928  0.1010  0.0540  0.6501
 4481TIP3    H113449   5.481   5.971   3.998  1.3547  0.4988 -0.5602
 4481TIP3    H213450   5.358   5.890   3.968  2.2774 -1.7374  1.3735
 4482TIP3   OH213451   6.353   2.703   4.699 -0.5608  0.4986 -0.3714
 4482TIP3    H113452   6.279   2.649   4.727 -0.2364  1.0722  1.7366
 4482TIP3    H213453   6.326   2.793   4.717 -0.3621  0.9511 -2.1156
 4483TIP3   OH213454   2.359   3.250   2.395 -0.2656  0.2266  0.6075
 4483TIP3    H113455   2.423   3.274   2.463  0.6881  0.9981 -0.5189
 4483TIP3    H213456   2.302   3.327   2.388  1.2125  1.2506 -1.2006
 4484TIP3   OH213457   5.356   4.955   3.057  0.5131 -0.2010  0.0829
 4484TIP3    H113458   5.449   4.968   3.078  0.5484 -0.8945  0.3823
 4484TIP3    H213459   5.356   4.926   2.966  0.6708 -1.1025  0.3581
 4485TIP3   OH213460   2.274   2.622   1.383  0.4003 -0.8484  0.2644
 4485TIP3    H113461   2.358   2.668   1.386 -1.7162  3.3582  2.7276
 4485TIP3    H213462   2.280   2.556   1.452  1.3799 -0.0578  0.9558
 4486TIP3   OH213463   5.906   3.834   0.846  0.1322 -0.3980  0.3423
 4486TIP3    H113464   5.855   3.912   0.871  1.1506  0.6896 -0.8258
 4486TIP3    H213465   5.997   3.864   0.848  0.4721 -1.3048 -1.0163
 4487TIP3   OH213466   2.920   5.266   2.161  0.2858  0.3794  0.0113
 4487TIP3    H113467   2.887   5.211   2.089 -0.6713  1.1325 -0.1585
 4487TIP3    H213468   2.846   5.273   2.221  0.5696  1.0315  0.2938
 4488TIP3   OH213469   3.321   2.660   3.554  0.3254 -0.1678  0.8111
 4488TIP3    H113470   3.355   2.658   3.465  0.4541 -1.6249  0.8656
 4488TIP3    H213471   3.237   2.706   3.547 -0.2558 -1.3431 -0.3006
 4489TIP3   OH213472   2.564   4.585   3.628  0.5518 -0.0639  0.0462
 4489TIP3    H113473   2.572   4.630   3.545  1.3534  0.4630  0.3989
 4489TIP3    H213474   2.478   4.610   3.662  0.6117  0.4577 -0.1903
 4490TIP3   OH213475   4.103   1.391   2.235  0.1906 -0.4827 -0.0440
 4490TIP3    H113476   4.094   1.298   2.257  1.5241 -0.5747  0.1829
 4490TIP3    H213477   4.191   1.414   2.264 -0.5533  1.1832  1.0353
 4491TIP3   OH213478   0.096   1.676   1.439 -0.4451  0.2691  0.4246
 4491TIP3    H113479   0.154   1.657   1.366 -2.4959 -1.8806 -0.8031
 4491TIP3    H213480   0.056   1.760   1.417 -1.2554 -0.4829 -1.1554
 4492TIP3   OH213481   0.536   3.381   0.470 -0.0540  0.1737 -0.0557
 4492TIP3    H113482   0.577   3.374   0.556  0.9916 -0.5981 -0.5920
 4492TIP3    H213483   0.603   3.349   0.409  0.3943  3.3831 -1.4962
 4493TIP3   OH213484   4.836   5.609   1.798 -0.0070  0.2195 -0.4901
 4493TIP3    H113485   4.874   5.584   1.883 -1.6322  0.9088  0.4782
 4493TIP3    H213486   4.828   5.527   1.750 -0.5514 -0.4149  0.6567
 4494TIP3   OH213487   6.232   5.346   3.347  0.0230  0.0423 -0.5631
 4494TIP3    H113488   6.176   5.300   3.409 -0.2073 -0.3372 -1.0503
 4494TIP3    H213489   6.173   5.373   3.276 -0.0350  1.8990  0.1373
 4495TIP3   OH213490   1.289   0.888   5.059  0.1692  0.4969  0.1682
 4495TIP3    H113491   1.268   0.903   5.151 -1.6897  0.9128 -0.3013
 4495TIP3    H213492   1.206   0.895   5.013  0.9220 -0.5765 -1.4559
 4496TIP3   OH213493   5.643   0.199   0.836  0.0908 -0.3351  0.0644
 4496TIP3    H113494   5.725   0.218   0.791  0.7313  1.8824  1.9391
 4496TIP3    H213495   5.659   0.116   0.881  0.9007 -0.4945 -0.4999
 4497TIP3   OH213496   3.100   1.056   1.958 -0.6015  0.3707 -0.0286
 4497TIP3    H113497   3.026   1.000   1.983  1.2632 -1.8585  0.8094
 4497TIP3    H213498   3.150   1.068   2.039  0.8098  0.5165 -0.8935
 4498TIP3   OH213499   3.874   1.405   1.019  0.2779 -0.3240  0.0182
 4498TIP3    H113500   3.925   1.481   0.992  0.5418 -0.7870 -0.8326
 4498TIP3    H213501   3.939   1.343   1.054  0.1423 -0.4055  0.1297
 4499TIP3   OH213502   2.133   3.383   5.041  0.7887  0.0662 -0.2989
 4499TIP3    H113503   2.133   3.356   5.133 -0.7317 -0.0594 -0.3072
 4499TIP3    H213504   2.046   3.421   5.027  0.7383 -0.5515 -1.8652
 4500TIP3   OH213505   3.706   0.335   1.109 -0.2130 -0.1391  0.0380
 4500TIP3    H113506   3.764   0.283   1.053  0.0539 -0.6021  0.7280
 4500TIP3    H213507   3.737   0.318   1.198 -2.0212 -1.2158  0.5149
 4501TIP3   OH213508   3.761   2.551   2.407  0.1051 -0.3955  0.6871
 4501TIP3    H113509   3.730   2.516   2.490  1.2786  0.3629  1.4594
 4501TIP3    H213510   3.770   2.645   2.421 -1.2242  0.0203 -0.8121
 4502TIP3   OH213511   0.798   2.469   2.020  0.1699  0.6158 -0.4160
 4502TIP3    H113512   0.762   2.551   1.986 -1.6985 -0.0328 -0.0864
 4502TIP3    H213513   0.783   2.406   1.950 -2.3928 -0.3969  0.9106
 4503TIP3   OH213514   2.575   4.472   0.229 -0.3720 -0.3103 -0.5783
 4503TIP3    H113515   2.601   4.426   0.149  1.2028  0.2269 -0.4004
 4503TIP3    H213516   2.645   4.453   0.292  1.0365  3.2439 -0.8494
 4504TIP3   OH213517   2.510   1.518   1.862 -0.3781 -0.3846  0.2208
 4504TIP3    H113518   2.429   1.490   1.818  0.2313 -0.4118 -0.9246
 4504TIP3    H213519   2.511   1.468   1.944 -2.2195  0.6498  0.9542
 4505TIP3   OH213520   5.743   4.778   1.110  0.2620  0.4863 -0.1174
 4505TIP3    H113521   5.812   4.716   1.085 -0.3450  0.0030 -0.6297
 4505TIP3    H213522   5.769   4.809   1.197 -1.1948 -3.1995  1.8584
 4506TIP3   OH213523   1.719   0.773   0.038 -0.0615  0.1324 -0.2746
 4506TIP3    H113524   1.788   0.742  -0.020 -0.4182  0.2150 -0.7506
 4506TIP3    H213525   1.696   0.697   0.091 -1.6470 -0.7820 -2.1235
 4507TIP3   OH213526   2.593   3.469   2.411 -0.6731 -0.0406 -0.3765
 4507TIP3    H113527   2.613   3.487   2.319  0.5078  0.9970  0.0684
 4507TIP3    H213528   2.666   3.415   2.442 -1.6554 -1.4194 -0.3279
 4508TIP3   OH213529   2.293   2.444   3.889  0.1440 -0.2883 -0.0204
 4508TIP3    H113530   2.224   2.389   3.925  0.6174 -1.0098 -0.2008
 4508TIP3    H213531   2.366   2.384   3.873  0.1269  0.1002 -1.6992
 4509TIP3   OH213532   4.800   0.392   4.366  0.2072  0.1113 -0.0941
 4509TIP3    H113533   4.842   0.329   4.424 -1.5111 -0.4618  0.6069
 4509TIP3    H213534   4.729   0.343   4.324 -0.4240  1.2678 -0.4442
 4510TIP3   OH213535   1.610   5.760   2.716 -0.8009  0.4227 -0.3951
 4510TIP3    H113536   1.535   5.702   2.707 -1.4806  1.4308 -1.6545
 4510TIP3    H213537   1.668   5.736   2.643 -0.3665  0.3159 -0.0201
 4511TIP3   OH213538   3.333   5.090   4.141  0.1974  0.1224  0.1709
 4511TIP3    H113539   3.284   5.017   4.104  0.4501 -0.9996  1.9290
 4511TIP3    H213540   3.399   5.111   4.074  1.3119 -2.4850  0.3261
 4512TIP3   OH213541   5.682   3.025   0.775  0.0570  0.7630  0.1118
 4512TIP3    H113542   5.768   3.007   0.814  0.2480  0.5428 -0.4119
 4512TIP3    H213543   5.649   2.940   0.749  0.5670  1.0493 -1.5483
 4513TIP3   OH213544   0.333   0.651   4.235 -0.0866 -0.2353  0.0858
 4513TIP3    H113545   0.425   0.667   4.256  0.5104  0.0929 -2.3833
 4513TIP3    H213546   0.332   0.560   4.205 -0.0643  0.4001 -1.9993
 4514TIP3   OH213547   4.109   2.442   4.296  0.2543  0.2523  0.6349
 4514TIP3    H113548   4.062   2.380   4.351 -1.3553  0.9518  0.1213
 4514TIP3    H213549   4.196   2.404   4.286  0.3691 -0.2669  2.9930
 4515TIP3   OH213550   3.520   3.068   2.454  0.0764 -0.0634  0.5627
 4515TIP3    H113551   3.586   3.089   2.521  0.2519 -0.6650  0.5774
 4515TIP3    H213552   3.515   2.973   2.454  1.6015 -0.2181 -1.7447
 4516TIP3   OH213553   6.287   2.045   4.200 -0.2398 -0.1751  0.2085
 4516TIP3    H113554   6.229   2.078   4.131  0.9044  3.6839  0.8375
 4516TIP3    H213555   6.256   2.088   4.280  1.4607 -0.6331  1.1636
 4517TIP3   OH213556   0.463   5.956   4.947  0.0999  0.1228 -0.1730
 4517TIP3    H113557   0.521   5.882   4.929 -0.3355 -0.6754  1.5023
 4517TIP3    H213558   0.401   5.957   4.874  0.3808 -0.8949 -0.4336
 4518TIP3   OH213559   5.472   1.660   0.630 -0.3409 -0.0375 -0.4518
 4518TIP3    H113560   5.384   1.623   0.639 -0.7239  0.5515 -1.5854
 4518TIP3    H213561   5.460   1.738   0.575  0.4834  1.7127  1.7293
 4519TIP3   OH213562   4.390   3.861   4.889 -0.1803 -0.3855 -0.3492
 4519TIP3    H113563   4.464   3.814   4.850 -0.4244 -0.4903 -0.6907
 4519TIP3    H213564   4.325   3.866   4.819  0.1678  1.2259 -0.6047
 4520TIP3   OH213565   4.845   4.831   1.320 -0.4058 -0.0550 -0.4492
 4520TIP3    H113566   4.891   4.799   1.398 -1.4378 -1.7723 -0.4753
 4520TIP3    H213567   4.872   4.922   1.312  0.1327  0.0363  1.6179
 4521TIP3   OH213568   5.928   3.607   0.033  0.3439 -0.1065 -0.2648
 4521TIP3    H113569   5.863   3.631  -0.032 -0.7728  1.3579  1.2997
 4521TIP3    H213570   5.897   3.523   0.068 -0.1514  0.0864 -0.2374
 4522TIP3   OH213571   5.309   4.862   2.792  0.1273  0.2027  0.0206
 4522TIP3    H113572   5.333   4.924   2.722  1.1567 -0.0037  0.1728
 4522TIP3    H213573   5.293   4.780   2.747 -1.3254  0.5769 -0.1920
 4523TIP3   OH213574   0.595   1.525   3.184  0.1148 -0.1635  0.3429
 4523TIP3    H113575   0.556   1.613   3.179  1.2844  0.3336 -3.7486
 4523TIP3    H213576   0.537   1.471   3.131  0.2586 -1.5707  1.5599
 4524TIP3   OH213577   0.564   3.458   3.586 -0.0892  0.2795  0.2674
 4524TIP3    H113578   0.521   3.373   3.581  0.3917 -0.1539  2.3762
 4524TIP3    H213579   0.545   3.490   3.674 -0.3670  2.4457 -0.5198
 4525TIP3   OH213580   3.851   5.606   2.146 -0.1611  0.1131  0.6249
 4525TIP3    H113581   3.780   5.543   2.157 -1.0979  1.5120  3.8329
 4525TIP3    H213582   3.825   5.659   2.071 -1.4628 -0.7090  0.4741
 4526TIP3   OH213583   1.713   3.053   2.451 -0.1021 -0.3121 -0.3260
 4526TIP3    H113584   1.654   3.068   2.524  0.0948  2.4716 -0.6167
 4526TIP3    H213585   1.796   3.029   2.492 -0.3391 -0.0779  0.3060
 4527TIP3   OH213586   3.358   2.342   4.827 -0.4993  0.7418  0.3240
 4527TIP3    H113587   3.377   2.426   4.869 -0.9621  0.5383  0.9476
 4527TIP3    H213588   3.302   2.296   4.889 -0.9982  0.3402 -0.4101
 4528TIP3   OH213589   6.134   3.858   0.360 -0.0948  0.7237 -0.2290
 4528TIP3    H113590   6.046   3.841   0.393  0.2135  0.2404  0.3625
 4528TIP3    H213591   6.144   3.953   0.363 -0.1457  0.7025  0.8929
 4529TIP3   OH213592   5.170   3.097   4.103 -0.0566  0.0991  0.2560
 4529TIP3    H113593   5.119   3.128   4.178 -0.9705  0.9391 -0.6709
 4529TIP3    H213594   5.208   3.176   4.065 -0.7671 -0.1232 -0.9747
 4530TIP3   OH213595   5.144   2.724   2.249  0.0825 -0.0828  0.5130
 4530TIP3    H113596   5.125   2.723   2.343 -0.2679  2.0068  0.5065
 4530TIP3    H213597   5.205   2.797   2.238 -1.3056  0.8950 -1.1141
 4531TIP3   OH213598   0.836   3.896   4.649 -0.2871 -0.2444 -0.1328
 4531TIP3    H113599   0.775   3.947   4.595 -0.6324  0.3251  0.7557
 4531TIP3    H213600   0.780   3.832   4.693 -0.2793  0.3260  0.7401
 4532TIP3   OH213601   1.779   2.440   5.189 -0.0045 -0.1047 -0.0776
 4532TIP3    H113602   1.731   2.498   5.129  1.0244  0.2621 -0.5752
 4532TIP3    H213603   1.790   2.359   5.139  3.3212  1.1126 -1.6260
 4533TIP3   OH213604   5.540   4.961   4.715  0.2886 -0.1662 -0.1481
 4533TIP3    H113605   5.628   4.987   4.739  0.0046 -0.2413  1.0398
 4533TIP3    H213606   5.499   5.040   4.681  0.4657  0.1401  0.3468
 4534TIP3   OH213607   5.055   2.660   2.779 -0.5529  0.2105  0.3120
 4534TIP3    H113608   4.985   2.595   2.778 -0.8309  0.4894  1.0294
 4534TIP3    H213609   5.043   2.708   2.861  1.9446 -1.3558  1.7549
 4535TIP3   OH213610   5.152   2.877   4.453  0.2733  0.4410 -0.5521
 4535TIP3    H113611   5.200   2.908   4.529  1.0902 -1.0726 -0.4059
 4535TIP3    H213612   5.095   2.949   4.429  0.5408  1.2174  1.0379
 4536TIP3   OH213613   1.442   4.844   1.437  0.6265  0.0803 -0.0059
 4536TIP3    H113614   1.446   4.866   1.530  0.1779 -0.9203  0.2641
 4536TIP3    H213615   1.401   4.758   1.434  0.8083  0.0101 -1.1242
 4537TIP3   OH213616   0.777   4.318   0.889 -0.5537  0.4120  0.1244
 4537TIP3    H113617   0.845   4.258   0.857 -1.1301  1.0419 -2.4472
 4537TIP3    H213618   0.825   4.398   0.912 -0.3888  1.0222 -2.1143
 4538TIP3   OH213619   1.047   0.465   5.052 -0.3253 -0.7759  0.2173
 4538TIP3    H113620   1.057   0.373   5.029  1.6779 -1.0335  1.7563
 4538TIP3    H213621   1.026   0.509   4.970  0.2772 -2.3986 -0.8539
 4539TIP3   OH213622   4.203   2.880   4.478  0.2936 -0.0564  0.4767
 4539TIP3    H113623   4.184   2.808   4.419 -0.0027  1.1365 -0.9382
 4539TIP3    H213624   4.268   2.933   4.431  0.5477  0.5685  1.4995
 4540TIP3   OH213625   3.004   3.526   2.010 -0.1891  0.0382 -0.1406
 4540TIP3    H113626   3.048   3.461   2.065  0.1587  0.7147  0.4042
 4540TIP3    H213627   2.985   3.599   2.070  1.0585  1.1929 -1.0887
 4541TIP3   OH213628   2.744   2.379   1.347 -0.0244 -0.0581  0.1851
 4541TIP3    H113629   2.708   2.344   1.266  0.6731 -3.7036  1.2572
 4541TIP3    H213630   2.673   2.429   1.386 -1.1923 -0.3602 -1.4570
 4542TIP3   OH213631   0.476   0.693   3.385  0.1555  0.6800  0.4331
 4542TIP3    H113632   0.473   0.626   3.453 -0.9152 -1.5819 -1.6707
 4542TIP3    H213633   0.384   0.708   3.362  0.5122  0.8270 -0.9936
 4543TIP3   OH213634   0.583   2.273   3.496 -0.1350 -0.2829  0.3798
 4543TIP3    H113635   0.665   2.234   3.466 -0.3020 -0.9836  0.8221
 4543TIP3    H213636   0.542   2.205   3.549 -1.5383 -0.3724 -0.7545
 4544TIP3   OH213637   5.117   5.952   4.211  0.1963 -0.3333 -0.3650
 4544TIP3    H113638   5.152   5.864   4.224 -1.2675 -0.8228  0.4222
 4544TIP3    H213639   5.193   6.009   4.221  0.7574 -1.3379  1.6227
 4545TIP3   OH213640   5.058   0.159   1.053 -0.6220  0.1726  0.2709
 4545TIP3    H113641   5.009   0.080   1.077  1.4036 -1.1427  0.3642
 4545TIP3    H213642   5.102   0.136   0.971  0.7294  0.8552  0.7760
 4546TIP3   OH213643   4.037   0.084   1.590  0.0988 -0.1312  0.2999
 4546TIP3    H113644   3.999   0.043   1.512  0.8704 -0.2591 -0.0176
 4546TIP3    H213645   4.029   0.019   1.659  0.2647 -0.3795  0.0866
 4547TIP3   OH213646   2.663   0.535   3.503 -0.5832  0.2059 -0.1613
 4547TIP3    H113647   2.630   0.492   3.581 -0.5098  1.9109  0.8798
 4547TIP3    H213648   2.618   0.620   3.501  1.4442  1.3548 -0.3771
 4548TIP3   OH213649   2.850   1.874   0.308 -0.1719  0.2430 -0.3132
 4548TIP3    H113650   2.864   1.853   0.400 -0.1670 -0.3327 -0.4385
 4548TIP3    H213651   2.857   1.790   0.263 -0.2417  0.5082 -0.8311
 4549TIP3   OH213652   1.656   0.894   1.237 -0.0284  0.2375 -0.3452
 4549TIP3    H113653   1.736   0.941   1.213 -0.5698  1.1942 -0.3560
 4549TIP3    H213654   1.640   0.835   1.164 -0.2601  1.2883 -1.1749
 4550TIP3   OH213655   3.986   5.172   5.002 -0.0026 -0.2842  0.1629
 4550TIP3    H113656   4.032   5.088   4.995 -1.2417 -0.9676 -0.0667
 4550TIP3    H213657   3.897   5.148   5.030  0.3384  1.1355  2.8213
 4551TIP3   OH213658   0.653   1.442   3.445 -0.3192  0.1533  0.0062
 4551TIP3    H113659   0.605   1.359   3.439  0.6319 -0.3978 -0.0388
 4551TIP3    H213660   0.649   1.478   3.356 -0.3784 -0.0365 -0.0681
 4552TIP3   OH213661   1.644   1.871   0.566 -0.8532 -0.4871  0.2997
 4552TIP3    H113662   1.560   1.850   0.525  0.1140  0.3722 -2.3364
 4552TIP3    H213663   1.648   1.966   0.565  0.6878 -0.5293 -0.8766
 4553TIP3   OH213664   1.589   3.237   3.528 -0.1527 -0.4757 -0.1493
 4553TIP3    H113665   1.538   3.158   3.545 -1.0184 -0.3051 -1.7177
 4553TIP3    H213666   1.541   3.281   3.458  1.8114  0.0302 -1.2449
 4554TIP3   OH213667   1.727   4.529   5.012  0.3043  0.5519  0.1890
 4554TIP3    H113668   1.798   4.593   5.016  0.1041  1.0891 -2.7153
 4554TIP3    H213669   1.649   4.580   4.988 -0.1488 -0.5428 -0.8023
 4555TIP3   OH213670   0.955   5.357   3.593  0.2667  0.1556  0.0647
 4555TIP3    H113671   1.023   5.359   3.526  0.7201  0.2751  0.5251
 4555TIP3    H213672   0.897   5.430   3.570  0.1418 -0.1029 -0.4748
 4556TIP3   OH213673   1.820   4.858   3.275 -0.3014  0.0072 -0.0089
 4556TIP3    H113674   1.830   4.794   3.205 -0.9801 -0.1496  0.0307
 4556TIP3    H213675   1.854   4.939   3.238 -0.9793  0.0098 -0.6559
 4557TIP3   OH213676   5.369   3.952   4.017  0.4327  0.6176  0.2318
 4557TIP3    H113677   5.322   4.029   4.050 -1.0102  0.4515 -1.3430
 4557TIP3    H213678   5.433   3.988   3.956 -1.3447  0.5426 -1.7832
 4558TIP3   OH213679   1.031   4.892   2.752 -0.5644  0.3574  0.6455
 4558TIP3    H113680   1.109   4.947   2.762 -0.2713  0.2732 -0.9119
 4558TIP3    H213681   0.960   4.955   2.735 -0.2665  0.3098 -0.9275
 4559TIP3   OH213682   3.026   3.981   4.356  0.1768 -0.2815  0.1723
 4559TIP3    H113683   2.983   3.896   4.361 -0.1929 -0.0249  1.8207
 4559TIP3    H213684   3.056   3.987   4.265 -1.1723 -1.4772 -0.3934
 4560TIP3   OH213685   3.931   2.784   1.090  0.0325 -0.7023 -0.1961
 4560TIP3    H113686   4.016   2.749   1.115  0.7305  0.3168 -1.0623
 4560TIP3    H213687   3.931   2.784   0.994 -1.0349 -0.9126 -0.2097
 4561TIP3   OH213688   5.682   2.192   0.966  0.5491 -0.3716  0.4023
 4561TIP3    H113689   5.676   2.216   1.059  1.5815  0.8916  0.1716
 4561TIP3    H213690   5.598   2.150   0.947 -1.2812  2.6907  0.9801
 4562TIP3   OH213691   3.438   1.164   0.931  0.3059 -0.2948 -0.5757
 4562TIP3    H113692   3.469   1.156   1.022 -1.3412 -0.8497 -0.0264
 4562TIP3    H213693   3.516   1.148   0.878  1.0313 -1.3172  0.7332
 4563TIP3   OH213694   6.275   3.677   0.552 -0.0585  0.1792  0.1912
 4563TIP3    H113695   6.215   3.705   0.483 -0.8785 -0.0539  0.8062
 4563TIP3    H213696   6.284   3.582   0.538  0.0105  0.1791  0.2340
 4564TIP3   OH213697   2.264   4.765   1.834  0.0648  1.0415  0.4390
 4564TIP3    H113698   2.254   4.859   1.818 -0.9524  0.7720 -0.6923
 4564TIP3    H213699   2.178   4.728   1.814  0.6257 -0.2106  0.2199
 4565TIP3   OH213700   0.052   4.961   0.755 -0.0530 -0.3333 -0.4615
 4565TIP3    H113701   0.106   5.035   0.783 -1.4752  0.3890  0.4416
 4565TIP3    H213702   0.073   4.891   0.817  0.0937 -0.1639 -0.3199
 4566TIP3   OH213703   0.153   3.105   2.442  0.4225  0.4156  0.0600
 4566TIP3    H113704   0.070   3.124   2.398  1.7492  1.5766 -2.1373
 4566TIP3    H213705   0.153   3.163   2.519 -0.3109  1.2982 -0.5754
 4567TIP3   OH213706   5.241   3.440   3.089 -0.0039 -0.4411 -0.0439
 4567TIP3    H113707   5.296   3.501   3.138 -0.2208  0.6848 -1.1443
 4567TIP3    H213708   5.289   3.424   3.008 -0.6498 -0.5272 -0.4234
 4568TIP3   OH213709   5.938   5.391   3.989 -0.3386 -0.3385  0.4475
 4568TIP3    H113710   5.968   5.473   3.949 -0.0291 -0.8735 -0.4729
 4568TIP3    H213711   6.006   5.327   3.964 -0.8407 -0.9815  0.7088
 4569TIP3   OH213712   5.206   4.628   2.607  0.2783  0.8991 -0.6122
 4569TIP3    H113713   5.258   4.577   2.546 -1.1144 -1.4706  0.0731
 4569TIP3    H213714   5.136   4.666   2.554  0.7804  1.3679 -0.9566
 4570TIP3   OH213715   0.502   5.498   3.495  0.0501 -0.0202  0.2670
 4570TIP3    H113716   0.444   5.521   3.423  0.4077  0.3092  0.0785
 4570TIP3    H213717   0.447   5.448   3.555 -0.5643  0.7254  0.3414
 4571TIP3   OH213718   3.811   5.509   4.548  0.0415  0.2909  0.8499
 4571TIP3    H113719   3.805   5.588   4.600 -1.8600  0.4528  0.4617
 4571TIP3    H213720   3.827   5.439   4.611  0.6749  0.8354  1.3041
 4572TIP3   OH213721   1.857   3.635   0.951  0.0120  0.2250  0.2360
 4572TIP3    H113722   1.826   3.648   1.041  0.2020  0.0873  0.3229
 4572TIP3    H213723   1.826   3.548   0.927  1.5035 -0.5058  0.8266
 4573TIP3   OH213724   1.245   0.579   3.999  0.2405  0.4543 -0.0547
 4573TIP3    H113725   1.256   0.666   4.038 -0.6018  1.1646 -1.3547
 4573TIP3    H213726   1.321   0.569   3.941  0.7191  0.0042  0.6335
 4574TIP3   OH213727   0.276   0.155   3.530 -0.1076 -0.1906  0.0016
 4574TIP3    H113728   0.357   0.200   3.552 -1.4317  2.4784 -0.1609
 4574TIP3    H213729   0.217   0.174   3.603 -0.5422 -2.4263  0.3223
 4575TIP3   OH213730   2.816   1.975   4.178 -0.5169  0.7848  0.6233
 4575TIP3    H113731   2.852   2.024   4.252  1.9222 -0.6411  0.4612
 4575TIP3    H213732   2.877   1.903   4.164 -1.8038  0.0419 -1.7406
 4576TIP3   OH213733   0.281   1.984   2.559  0.2592  0.7319  0.2084
 4576TIP3    H113734   0.209   1.922   2.571  1.4212 -0.3885  2.0067
 4576TIP3    H213735   0.246   2.051   2.501 -1.4831 -0.9256 -0.7703
 4577TIP3   OH213736   5.233   2.514   0.650 -0.3359  0.0536  0.1139
 4577TIP3    H113737   5.220   2.563   0.731 -0.2294 -0.7310  0.6067
 4577TIP3    H213738   5.146   2.511   0.610 -0.6913 -0.8140  0.9186
 4578TIP3   OH213739   4.976   3.257   4.564  0.4343 -0.6501  0.1243
 4578TIP3    H113740   4.995   3.229   4.654  1.6391 -0.4172 -0.0352
 4578TIP3    H213741   4.907   3.322   4.574  0.1084 -1.0890  0.8262
 4579TIP3   OH213742   3.782   5.403   2.980  0.0248  0.1405 -0.0069
 4579TIP3    H113743   3.858   5.371   2.931  0.6179 -0.3322  1.1732
 4579TIP3    H213744   3.707   5.359   2.939  0.5608 -0.6653 -0.1569
 4580TIP3   OH213745   2.295   5.015   3.642 -0.1810 -0.8309  0.9477
 4580TIP3    H113746   2.303   4.975   3.556 -0.0958 -0.8677  0.9723
 4580TIP3    H213747   2.314   5.108   3.628  0.3692 -0.9308  1.0179
 4581TIP3   OH213748   6.247   3.036   4.294  0.4080 -0.4908 -0.0650
 4581TIP3    H113749   6.324   2.991   4.327 -0.4420 -0.1040  2.6587
 4581TIP3    H213750   6.177   2.972   4.301 -0.2913  0.3778  1.4119
 4582TIP3   OH213751   3.058   0.166   2.397  0.0691 -0.0844 -0.2765
 4582TIP3    H113752   3.145   0.165   2.357  0.0357 -0.1746 -0.3471
 4582TIP3    H213753   2.999   0.139   2.327  0.1893 -1.8200  0.2436
 4583TIP3   OH213754   2.427   4.569   1.919 -0.5672  0.7759 -0.0438
 4583TIP3    H113755   2.378   4.642   1.880  1.7625  1.9934 -0.8774
 4583TIP3    H213756   2.487   4.541   1.850  0.9830  0.3919  1.4031
 4584TIP3   OH213757   4.414   5.313   1.633  0.1334 -1.0808 -0.0422
 4584TIP3    H113758   4.380   5.278   1.716 -1.7477 -0.9895 -0.7292
 4584TIP3    H213759   4.361   5.391   1.617  1.3875 -0.3370 -0.6932
 4585TIP3   OH213760   0.084   4.132   1.403  0.3985  0.6124  0.0755
 4585TIP3    H113761   0.073   4.091   1.317  2.0254  1.9818 -0.8622
 4585TIP3    H213762   0.043   4.218   1.393 -2.2634 -0.3241  1.7558
 4586TIP3   OH213763   4.863   1.315   3.441 -0.0808  0.1017  0.1198
 4586TIP3    H113764   4.929   1.349   3.380 -0.0219 -1.2525 -0.6182
 4586TIP3    H213765   4.808   1.391   3.462 -1.2996  0.2970 -3.1652
 4587TIP3   OH213766   3.593   5.710   4.691 -0.3372 -0.2507  0.3323
 4587TIP3    H113767   3.640   5.785   4.730  0.3978 -0.4872 -0.0649
 4587TIP3    H213768   3.565   5.658   4.766  0.4958 -0.3674  0.5824
 4588TIP3   OH213769   3.464   0.593   0.610  0.0346 -0.1702  0.6670
 4588TIP3    H113770   3.521   0.545   0.671 -1.5979  0.1406  2.5565
 4588TIP3    H213771   3.499   0.682   0.608 -0.1956 -0.0496  1.6029
 4589TIP3   OH213772   3.414   5.208   0.979 -0.1448  0.1632 -0.0530
 4589TIP3    H113773   3.340   5.250   0.934  0.9741  2.3446  0.0385
 4589TIP3    H213774   3.486   5.211   0.916  0.1830 -1.0138  0.2322
 4590TIP3   OH213775   4.444   3.552   5.111 -0.7152  0.3982  1.0702
 4590TIP3    H113776   4.447   3.646   5.093 -0.0434  0.0404 -1.0671
 4590TIP3    H213777   4.473   3.543   5.201  1.2532  2.1209  0.6815
 4591TIP3   OH213778   4.047   5.803   3.616 -0.0286 -0.4620  0.5926
 4591TIP3    H113779   4.021   5.770   3.531 -0.3591 -0.5541  0.7274
 4591TIP3    H213780   4.108   5.738   3.650 -0.1196 -0.5695  0.5495
 4592TIP3   OH213781   1.990   0.546   0.224  0.0333  0.0792  0.3456
 4592TIP3    H113782   1.932   0.526   0.297  0.1824 -0.6180  0.2747
 4592TIP3    H213783   1.999   0.464   0.175  1.2830  0.0922  0.4998
 4593TIP3   OH213784   6.113   1.530   3.869 -0.2320 -0.2579  0.3887
 4593TIP3    H113785   6.181   1.564   3.812 -1.2538  0.3627 -0.5005
 4593TIP3    H213786   6.072   1.459   3.820 -0.2699 -0.5924  0.8914
 4594TIP3   OH213787   0.512   1.372   2.481 -0.0725  0.3008 -0.2942
 4594TIP3    H113788   0.537   1.282   2.460  0.6053  1.2119 -4.1517
 4594TIP3    H213789   0.567   1.396   2.555 -0.3200 -2.4141  0.8866
 4595TIP3   OH213790   4.456   3.323   4.598 -0.0999 -0.4896 -0.6243
 4595TIP3    H113791   4.545   3.336   4.566  1.1012 -3.6844  0.9499
 4595TIP3    H213792   4.423   3.247   4.549 -0.7246 -1.2691  0.8992
 4596TIP3   OH213793   0.912   3.917   5.171 -0.0005 -0.4864 -0.0892
 4596TIP3    H113794   0.927   4.010   5.186 -1.5042  0.0705 -1.7376
 4596TIP3    H213795   0.999   3.883   5.148  0.3693  0.7744 -0.6670
 4597TIP3   OH213796   3.856   3.243   1.586 -0.2388  0.5637 -0.0517
 4597TIP3    H113797   3.814   3.157   1.592 -0.1054  0.3908 -1.4404
 4597TIP3    H213798   3.799   3.294   1.529  0.4454  0.9263 -0.4256
 4598TIP3   OH213799   0.849   3.651   5.032 -0.8276  0.1163  0.4068
 4598TIP3    H113800   0.885   3.708   5.099 -1.0383  1.5799 -0.6792
 4598TIP3    H213801   0.764   3.625   5.065 -1.7008  2.2563  0.0027
 4599TIP3   OH213802   0.355   5.473   3.279  0.1504  0.0721 -0.0009
 4599TIP3    H113803   0.292   5.406   3.307 -0.7925  0.6771 -0.6229
 4599TIP3    H213804   0.331   5.491   3.188 -0.2647  1.9721  0.4357
 4600TIP3   OH213805   3.458   5.687   4.452  0.2653 -0.1745 -0.0227
 4600TIP3    H113806   3.439   5.595   4.466  0.0003  0.2787  3.2735
 4600TIP3    H213807   3.525   5.709   4.518  0.9316  1.8138 -1.2506
 4601TIP3   OH213808   3.661   3.073   1.343 -0.0405  0.4587 -0.3346
 4601TIP3    H113809   3.635   3.166   1.346  0.3946  0.5495  1.8103
 4601TIP3    H213810   3.583   3.029   1.309 -0.1870  1.6064 -1.6014
 4602TIP3   OH213811   2.976   3.951   0.512 -0.3726 -0.0607  0.0325
 4602TIP3    H113812   3.042   3.996   0.564 -0.5039  0.2980 -0.1112
 4602TIP3    H213813   2.903   4.012   0.508 -0.5182 -0.2509 -0.2323
 4603TIP3   OH213814   5.929   5.200   0.485 -0.5626 -0.2209  0.2015
 4603TIP3    H113815   5.867   5.237   0.422 -0.3510  0.7389  0.5281
 4603TIP3    H213816   5.875   5.146   0.543 -1.0873  0.4790  0.3833
 4604TIP3   OH213817   4.256   3.919   2.942 -0.4003 -0.4693 -0.6131
 4604TIP3    H113818   4.308   3.998   2.924 -0.1293 -0.5621 -0.2496
 4604TIP3    H213819   4.263   3.907   3.036  0.1188 -1.3102 -0.7418
 4605TIP3   OH213820   6.366   2.868   3.211  0.1198 -0.0432  0.8402
 4605TIP3    H113821   6.314   2.882   3.290  1.2737 -0.1009  1.6336
 4605TIP3    H213822   6.362   2.951   3.164 -1.3074 -0.2892  0.4971
 4606TIP3   OH213823   1.976   0.407   3.551  0.7758 -0.1262  0.1535
 4606TIP3    H113824   1.905   0.348   3.577  1.2433 -0.3454  0.9536
 4606TIP3    H213825   2.016   0.365   3.475 -0.9301  0.7725 -1.3301
 4607TIP3   OH213826   3.299   3.698   1.972 -0.0894 -0.0392 -0.3568
 4607TIP3    H113827   3.219   3.724   1.927 -0.8015 -1.4177  0.0539
 4607TIP3    H213828   3.269   3.666   2.057  1.0124  0.4316  0.2234
 4608TIP3   OH213829   1.765   1.321   4.358  0.1783  0.0938 -0.2778
 4608TIP3    H113830   1.676   1.341   4.332  0.0999 -0.9427 -0.8743
 4608TIP3    H213831   1.755   1.266   4.437  0.3127  0.5265  0.0441
 4609TIP3   OH213832   5.452   0.927   1.852 -0.4546  0.4309 -0.3687
 4609TIP3    H113833   5.407   0.854   1.811  0.5358  0.4519 -1.5295
 4609TIP3    H213834   5.449   0.997   1.787  1.6866  0.2673 -0.7125
 4610TIP3   OH213835   0.180   2.636   3.472 -0.2642  0.2368 -0.2052
 4610TIP3    H113836   0.158   2.700   3.404 -0.5564 -0.3121 -0.6326
 4610TIP3    H213837   0.271   2.613   3.454  0.1652  1.2769  0.5625
 4611TIP3   OH213838   4.277   1.171   0.493  0.6003  0.0761  0.0098
 4611TIP3    H113839   4.302   1.081   0.470 -2.1326 -0.9634  0.6715
 4611TIP3    H213840   4.257   1.167   0.587  1.9620  1.8151  0.4255
 4612TIP3   OH213841   0.148   5.359   0.339  0.6412 -0.6643 -0.1958
 4612TIP3    H113842   0.142   5.454   0.350  2.3749 -0.5331 -0.1354
 4612TIP3    H213843   0.073   5.336   0.283 -0.6930  0.4943  1.0204
 4613TIP3   OH213844   4.803   1.155   2.451 -0.5506  0.2429  0.1953
 4613TIP3    H113845   4.822   1.144   2.358 -2.6561  0.6463 -0.3267
 4613TIP3    H213846   4.759   1.075   2.477 -2.1111  1.0716  0.2162
 4614TIP3   OH213847  -0.001   4.682   4.970 -0.0928 -0.1757 -0.3171
 4614TIP3    H113848   0.074   4.622   4.978 -0.1591 -0.2412 -0.1876
 4614TIP3    H213849   0.017   4.750   5.035  0.8333  0.8607 -1.6012
 4615TIP3   OH213850   3.389   1.964   2.776  0.9777  0.0355  0.1293
 4615TIP3    H113851   3.347   1.959   2.690 -0.8201 -1.1617  1.0165
 4615TIP3    H213852   3.479   1.936   2.760  0.4433 -1.0347 -1.2457
 4616TIP3   OH213853   3.724   4.641   4.794  0.4471 -0.3259  0.0137
 4616TIP3    H113854   3.807   4.605   4.824  0.4985 -1.7794 -1.7193
 4616TIP3    H213855   3.742   4.674   4.706 -0.4942  0.6052  0.1438
 4617TIP3   OH213856   2.396   3.471   4.971 -0.5715  0.6511  0.3582
 4617TIP3    H113857   2.306   3.446   4.992 -0.4420  0.4343  0.6586
 4617TIP3    H213858   2.413   3.548   5.025 -0.3516  0.2930  0.8035
 4618TIP3   OH213859   5.182   2.464   0.982  0.2536 -0.2222  0.2584
 4618TIP3    H113860   5.216   2.552   0.969  0.0957 -0.1200  0.5217
 4618TIP3    H213861   5.184   2.451   1.076 -0.5953 -0.1416  0.2996
 4619TIP3   OH213862   2.565   3.531   2.147  0.3353  0.0600  0.2733
 4619TIP3    H113863   2.480   3.487   2.148  1.3391 -2.0548  1.2416
 4619TIP3    H213864   2.593   3.526   2.056 -1.1574  2.1007 -0.3494
 4620TIP3   OH213865   0.464   4.209   0.876  0.2880 -0.1139  0.0669
 4620TIP3    H113866   0.500   4.126   0.843 -0.4648  0.1092 -1.4008
 4620TIP3    H213867   0.369   4.199   0.868  0.1687  0.6980  0.3961
 4621TIP3   OH213868   6.191   5.167   1.838 -0.3154  0.0155  0.1504
 4621TIP3    H113869   6.173   5.211   1.921 -2.4108 -0.5889  0.0768
 4621TIP3    H213870   6.242   5.090   1.862  1.1497  1.0909  0.5752
 4622TIP3   OH213871   6.203   2.651   1.395 -0.3328 -0.6437  0.1575
 4622TIP3    H113872   6.264   2.683   1.461 -0.7954 -1.5962  1.0848
 4622TIP3    H213873   6.207   2.715   1.325  0.3617  0.2668  1.0082
 4623TIP3   OH213874   0.595   1.522   0.735  0.4153 -0.2683  0.0953
 4623TIP3    H113875   0.610   1.574   0.657 -0.1673  1.2803  0.9680
 4623TIP3    H213876   0.522   1.566   0.779 -1.2440 -2.7824  0.0660
 4624TIP3   OH213877   0.205   4.237   3.076 -0.4739 -0.1625  0.0242
 4624TIP3    H113878   0.191   4.168   3.140 -2.2031 -1.2239 -1.3975
 4624TIP3    H213879   0.122   4.286   3.074  0.6245  1.8789  0.8284
 4625TIP3   OH213880   4.595   4.068   3.565  0.5263 -0.3362 -0.1405
 4625TIP3    H113881   4.583   3.983   3.522  2.7979 -0.3348 -0.8775
 4625TIP3    H213882   4.582   4.132   3.495  0.9939 -0.1759 -0.0782
 4626TIP3   OH213883   5.707   1.355   1.585  0.3153  0.1365 -0.3273
 4626TIP3    H113884   5.684   1.446   1.566 -0.1245 -0.0098 -0.5111
 4626TIP3    H213885   5.634   1.304   1.550  0.0626 -0.2256  0.6927
 4627TIP3   OH213886   4.198   5.512   1.814  0.7649  1.0957 -0.3490
 4627TIP3    H113887   4.209   5.498   1.720  1.5791 -0.5294 -0.0407
 4627TIP3    H213888   4.141   5.441   1.842  2.4901  0.0999  0.7776
 4628TIP3   OH213889   0.936   3.430   2.767  0.4681 -0.4909 -0.9729
 4628TIP3    H113890   1.010   3.476   2.728  1.3467 -0.6429  0.4132
 4628TIP3    H213891   0.870   3.498   2.781  1.4046  0.2335  0.2189
 4629TIP3   OH213892   3.551   1.800   3.177 -0.3527 -0.2827  0.2603
 4629TIP3    H113893   3.497   1.762   3.247  0.5736  0.0875  1.2019
 4629TIP3    H213894   3.532   1.894   3.181 -0.4627 -0.2882 -0.1334
 4630TIP3   OH213895   2.008   1.108   4.442  0.4208  0.0793  0.3127
 4630TIP3    H113896   2.049   1.158   4.371 -2.0287  1.7704 -0.0339
 4630TIP3    H213897   1.941   1.167   4.477  0.6131 -1.2102  3.1573
 4631TIP3   OH213898   0.656   0.760   1.949 -0.0309 -0.1561 -0.6282
 4631TIP3    H113899   0.634   0.744   1.858 -1.1501 -0.7053 -0.2786
 4631TIP3    H213900   0.721   0.831   1.946 -0.7833  0.5173 -1.7913
 4632TIP3   OH213901   6.057   2.310   1.182  0.1940  0.1291 -0.3733
 4632TIP3    H113902   5.981   2.368   1.197 -0.4711 -0.1938 -2.2808
 4632TIP3    H213903   6.107   2.316   1.264 -1.5723  0.8155  0.7289
 4633TIP3   OH213904   3.672   5.864   3.292 -0.4403  0.3554  0.3493
 4633TIP3    H113905   3.683   5.809   3.215  2.5663  0.2284  0.7584
 4633TIP3    H213906   3.649   5.803   3.362 -0.8392  0.1650  0.0596
 4634TIP3   OH213907   0.694   0.092   0.666 -0.3026  0.2797  0.4534
 4634TIP3    H113908   0.712   0.148   0.591  1.0134 -0.7040 -0.0036
 4634TIP3    H213909   0.764   0.027   0.665  0.3158  0.7820  3.0811
 4635TIP3   OH213910   2.946   3.693   3.672 -0.3883  0.9567 -0.1623
 4635TIP3    H113911   3.017   3.748   3.639  1.2584  0.3275  2.0880
 4635TIP3    H213912   2.976   3.603   3.655 -0.6992  0.6904  0.6614
 4636TIP3   OH213913   2.545   5.643   3.709 -0.5767  0.6871 -0.3882
 4636TIP3    H113914   2.493   5.695   3.648 -0.1168  1.9241  0.2423
 4636TIP3    H213915   2.592   5.708   3.761 -3.2598 -0.1084  3.4279
 4637TIP3   OH213916   2.790   0.800   1.114 -0.1616  0.4034  0.3203
 4637TIP3    H113917   2.851   0.830   1.181  0.3503 -0.8953  0.4686
 4637TIP3    H213918   2.780   0.706   1.131 -2.4843  0.6400  0.4926
 4638TIP3   OH213919   3.014   2.368   3.482  0.6956 -0.1312 -0.2145
 4638TIP3    H113920   2.923   2.350   3.506 -0.4507  2.1216 -2.3763
 4638TIP3    H213921   3.063   2.357   3.563 -1.7208 -0.0609  1.3660
 4639TIP3   OH213922   2.523   0.792   2.096 -0.0749  0.3823 -0.8072
 4639TIP3    H113923   2.468   0.842   2.036  0.0239  1.7143  0.1643
 4639TIP3    H213924   2.553   0.856   2.160  0.0832 -0.9168  0.4828
 4640TIP3   OH213925   6.251   5.615   2.450 -0.4437 -0.2329  0.1201
 4640TIP3    H113926   6.306   5.536   2.445 -1.5933 -0.9801 -1.5562
 4640TIP3    H213927   6.312   5.684   2.476  1.6922 -0.7361 -2.8971
 4641TIP3   OH213928   5.359   4.896   4.212  0.1541 -0.3311  0.0964
 4641TIP3    H113929   5.399   4.831   4.155 -0.4640 -0.2362 -0.4518
 4641TIP3    H213930   5.430   4.922   4.272  1.1454  0.4038 -1.3372
 4642TIP3   OH213931   4.758   4.432   4.499 -0.6793 -0.4953  0.0171
 4642TIP3    H113932   4.698   4.489   4.547 -0.6411 -0.2224 -0.2536
 4642TIP3    H213933   4.767   4.473   4.413 -1.6586 -1.5966 -0.6379
 4643TIP3   OH213934   3.919   4.552   4.612  0.6603  0.3437 -0.1008
 4643TIP3    H113935   3.992   4.502   4.576  0.5524  0.0653  0.0679
 4643TIP3    H213936   3.961   4.622   4.663  0.8316 -0.8414  1.4545
 4644TIP3   OH213937   2.954   1.970   0.777 -0.0378  0.3494 -0.0470
 4644TIP3    H113938   2.893   1.928   0.839 -0.7273 -2.0549 -2.1560
 4644TIP3    H213939   2.916   1.952   0.691  3.0340 -0.1976 -1.4181
 4645TIP3   OH213940   0.513   3.032   4.263  0.3964  0.3062 -0.4081
 4645TIP3    H113941   0.466   3.006   4.184 -0.8367 -0.0403  0.4033
 4645TIP3    H213942   0.602   2.999   4.251  0.1573  0.0308 -1.5264
 4646TIP3   OH213943   0.352   2.920   2.652 -0.0425 -0.1021 -0.0883
 4646TIP3    H113944   0.412   2.993   2.637 -0.6077  0.2478 -0.7262
 4646TIP3    H213945   0.265   2.957   2.635 -0.3305 -0.9487 -0.5147
 4647TIP3   OH213946   2.803   2.153   4.388  0.3480 -0.3905 -0.1908
 4647TIP3    H113947   2.709   2.170   4.398  0.1551 -0.6230 -1.4817
 4647TIP3    H213948   2.838   2.157   4.478 -1.2644 -2.5886  0.6382
 4648TIP3   OH213949   1.309   5.157   2.376  0.5135 -0.3119 -0.0322
 4648TIP3    H113950   1.386   5.157   2.319  0.2365  0.7791 -0.4392
 4648TIP3    H213951   1.278   5.067   2.375  2.7104 -1.1607  1.4315
 4649TIP3   OH213952   3.234   5.166   3.270 -0.3303  0.3898 -1.1268
 4649TIP3    H113953   3.326   5.183   3.251 -0.6612  1.2895 -1.9829
 4649TIP3    H213954   3.207   5.102   3.204  0.0883 -1.1685  0.1487
 4650TIP3   OH213955   4.070   0.909   3.639  0.2507  0.4246 -0.0624
 4650TIP3    H113956   4.165   0.906   3.634  0.1926 -0.4345 -0.7970
 4650TIP3    H213957   4.041   0.820   3.622 -0.7075  0.7952 -0.4973
 4651TIP3   OH213958   5.605   2.642   3.693 -0.2210  0.2176  0.0802
 4651TIP3    H113959   5.643   2.716   3.741  0.2228  1.3983 -1.9605
 4651TIP3    H213960   5.595   2.574   3.759 -0.2277  1.9245  1.9608
 4652TIP3   OH213961   6.150   2.341   2.400  0.1023  0.3223 -0.5630
 4652TIP3    H113962   6.237   2.382   2.397 -0.5171  2.0207  1.8630
 4652TIP3    H213963   6.124   2.334   2.308  1.6759  2.3632 -1.2573
 4653TIP3   OH213964   0.576   5.427   4.825  0.7104  0.6314  0.1463
 4653TIP3    H113965   0.616   5.481   4.757  0.4521  0.4789 -0.1302
 4653TIP3    H213966   0.650   5.393   4.875  0.9082  0.6832 -0.1073
 4654TIP3   OH213967   3.800   5.633   0.876 -0.3248  0.2258  0.2090
 4654TIP3    H113968   3.818   5.570   0.806 -1.2309  0.9030 -0.6749
 4654TIP3    H213969   3.885   5.647   0.918  0.5262  0.7120 -1.5677
 4655TIP3   OH213970   0.912   2.099   3.292 -0.1552  0.5405 -0.3423
 4655TIP3    H113971   1.003   2.093   3.263 -0.3379 -0.8941 -0.7010
 4655TIP3    H213972   0.883   2.008   3.298 -2.2682  0.9622 -2.5848
 4656TIP3   OH213973   5.871   5.821   4.933  0.0730 -0.2709  0.5048
 4656TIP3    H113974   5.825   5.737   4.935 -1.7687  0.6734 -0.1782
 4656TIP3    H213975   5.896   5.833   4.842 -3.1876  1.6341 -0.3087
 4657TIP3   OH213976   3.174   5.301   0.860  0.0799  0.0971 -0.1258
 4657TIP3    H113977   3.137   5.388   0.878  1.2605  0.4807  0.5557
 4657TIP3    H213978   3.104   5.240   0.883 -1.6212  0.8993 -2.7827
 4658TIP3   OH213979   0.224   1.608   2.716 -0.4685 -1.2886  0.1356
 4658TIP3    H113980   0.275   1.688   2.726 -1.7886 -0.4120 -0.0248
 4658TIP3    H213981   0.225   1.567   2.802 -1.4738 -0.0629  0.7515
 4659TIP3   OH213982   5.223   4.547   2.206 -0.7726  0.1104 -0.4299
 4659TIP3    H113983   5.289   4.537   2.276 -2.5155 -0.9177  1.1588
 4659TIP3    H213984   5.274   4.553   2.126  1.3408  1.2615  0.8910
 4660TIP3   OH213985   4.264   4.862   2.538  0.0231 -0.3502  0.2734
 4660TIP3    H113986   4.261   4.784   2.484  0.7288 -1.3271  1.5842
 4660TIP3    H213987   4.185   4.856   2.593 -0.9873  0.9167 -0.9620
 4661TIP3   OH213988   5.767   1.452   4.833 -0.4666 -0.0246  0.2290
 4661TIP3    H113989   5.800   1.527   4.883  0.4306 -0.7615  0.7734
 4661TIP3    H213990   5.818   1.454   4.752  0.1535 -0.5131  0.5963
 4662TIP3   OH213991   5.620   1.570   1.006  0.0808 -0.2109 -0.0712
 4662TIP3    H113992   5.652   1.546   1.093 -0.5615 -0.7093  0.0343
 4662TIP3    H213993   5.609   1.665   1.010 -2.7809 -0.4895  1.4037
 4663TIP3   OH213994   1.000   2.292  -0.012 -0.0969 -0.0794 -0.0469
 4663TIP3    H113995   0.951   2.213  -0.033  0.7412 -0.7363  0.4251
 4663TIP3    H213996   0.946   2.337   0.054  0.8137 -1.7924  1.9863
 4664TIP3   OH213997   2.737   4.866   1.518  0.3417 -0.2017 -0.6156
 4664TIP3    H113998   2.713   4.955   1.494  1.4285  0.7939  1.7577
 4664TIP3    H213999   2.660   4.813   1.493 -1.4426  1.7870  0.3689
 4665TIP3   OH214000   6.299   1.369   4.850 -0.1415 -0.3500 -0.1678
 4665TIP3    H114001   6.301   1.336   4.760  0.8671 -1.3229  0.1859
 4665TIP3    H214002   6.304   1.464   4.841  0.1214 -0.4454 -1.1383
 4666TIP3   OH214003   2.732   3.482   5.152  0.2461 -0.2532 -0.0887
 4666TIP3    H114004   2.774   3.556   5.109  1.5223 -1.0315 -0.2301
 4666TIP3    H214005   2.720   3.511   5.243  0.5463  0.2022 -0.1907
 4667TIP3   OH214006   0.834   2.768   1.545 -0.5354  0.1567 -0.1881
 4667TIP3    H114007   0.866   2.719   1.621 -1.5634  0.7393  0.6607
 4667TIP3    H214008   0.905   2.830   1.525 -0.5155  0.4521  0.7368
 4668TIP3   OH214009   5.960   1.551   2.067 -0.0474  0.6210  0.2256
 4668TIP3    H114010   5.894   1.532   2.133  2.0034 -0.5406  2.0883
 4668TIP3    H214011   5.959   1.475   2.009 -0.3204  0.5908  0.2693
 4669TIP3   OH214012   3.056   0.376   4.236  0.5166  0.4095 -0.0286
 4669TIP3    H114013   3.016   0.310   4.292  1.0162 -0.9203 -1.1791
 4669TIP3    H214014   3.021   0.358   4.149  1.7383  0.7537 -0.6184
 4670TIP3   OH214015   1.171   3.757   3.618  0.5547  1.3180 -0.1704
 4670TIP3    H114016   1.174   3.684   3.556  2.1127  1.6294 -0.5260
 4670TIP3    H214017   1.082   3.756   3.653 -0.0606  0.5076 -1.6675
 4671TIP3   OH214018   0.427   5.284   2.371  0.8868  0.5212 -0.2525
 4671TIP3    H114019   0.425   5.316   2.281 -0.2878 -0.1278 -0.4764
 4671TIP3    H214020   0.433   5.363   2.425 -0.4666  1.0515 -0.8477
 4672TIP3   OH214021   3.112   2.155   2.803  0.7924 -0.3874  0.4312
 4672TIP3    H114022   3.153   2.096   2.739 -1.3296 -2.3580  0.7446
 4672TIP3    H214023   3.026   2.174   2.766  1.0065  1.7125  0.8840
 4673TIP3   OH214024   2.956   4.856   0.126 -0.1475  0.0343  0.3918
 4673TIP3    H114025   2.868   4.840   0.162  0.7729 -2.6563  1.6994
 4673TIP3    H214026   3.002   4.902   0.196 -0.1924  0.5082  0.1138
 4674TIP3   OH214027   1.509   4.005   3.280  0.2871  0.3809  0.2948
 4674TIP3    H114028   1.546   3.925   3.243  2.4422  0.1081  2.7715
 4674TIP3    H214029   1.427   3.977   3.321  0.3835 -0.2908  0.0373
 4675TIP3   OH214030   5.972   4.702   0.910  0.2740  0.0552  0.1876
 4675TIP3    H114031   6.020   4.766   0.962 -0.0432  1.1470 -0.8345
 4675TIP3    H214032   5.953   4.746   0.828  1.4907 -1.8990 -1.2467
 4676TIP3   OH214033   3.802   0.186   2.601 -0.0413  0.4248 -0.1380
 4676TIP3    H114034   3.717   0.227   2.610  0.3093  1.1756 -0.1570
 4676TIP3    H214035   3.785   0.104   2.554 -0.6669  0.8483 -0.6632
 4677TIP3   OH214036   4.207   3.951   3.889  0.1778  0.4263 -0.2435
 4677TIP3    H114037   4.275   3.920   3.829  1.1545  1.0639  0.4770
 4677TIP3    H214038   4.206   4.046   3.876 -0.5919  0.4189 -0.2501
 4678TIP3   OH214039   3.338   2.233   1.617 -0.4047  0.3470 -0.0283
 4678TIP3    H114040   3.417   2.188   1.647 -1.2762 -1.5903 -0.5084
 4678TIP3    H214041   3.332   2.310   1.674  1.5207  0.2593  0.3617
 4679TIP3   OH214042   1.013   1.811   2.784  0.4011 -0.2123  0.2496
 4679TIP3    H114043   0.975   1.800   2.872  0.6773 -0.3775  0.3498
 4679TIP3    H214044   1.106   1.829   2.801  0.3874  0.0963  0.0034
 4680TIP3   OH214045   5.885   1.717   4.905  0.0409 -0.3091 -0.0210
 4680TIP3    H114046   5.826   1.786   4.937 -0.5831 -0.3277 -1.0567
 4680TIP3    H214047   5.908   1.667   4.983 -0.6708  0.2015  0.5376
 4681TIP3   OH214048   0.974   3.871   1.766 -0.0638 -0.1469  0.1687
 4681TIP3    H114049   0.932   3.797   1.723 -2.1256  0.6093  0.7672
 4681TIP3    H214050   1.052   3.890   1.713 -0.5665 -1.4961 -1.0892
 4682TIP3   OH214051   2.755   0.164   0.499 -0.1072  0.3114 -0.3470
 4682TIP3    H114052   2.816   0.090   0.494 -0.0921  0.2301  0.7506
 4682TIP3    H214053   2.673   0.125   0.531 -1.6449 -0.0806 -4.2521
 4683TIP3   OH214054   0.287   0.862   1.875 -0.1241  0.3823  0.7187
 4683TIP3    H114055   0.246   0.945   1.902  2.2009  1.4492  1.2384
 4683TIP3    H214056   0.326   0.827   1.955 -1.4698 -1.5312  0.6012
 4684TIP3   OH214057   2.299   3.810   0.981 -0.4369  0.0345 -0.2022
 4684TIP3    H114058   2.267   3.899   0.963  2.2161  1.6668  2.3368
 4684TIP3    H214059   2.377   3.801   0.926 -0.2570 -0.4211  0.1245
 4685TIP3   OH214060   3.579   0.124   1.708 -0.7448  0.2799  0.4648
 4685TIP3    H114061   3.589   0.032   1.732 -0.3171  0.1441 -0.2100
 4685TIP3    H214062   3.617   0.173   1.781 -0.9187 -0.0722  0.7975
 4686TIP3   OH214063   0.124   4.058   1.748  0.1364  0.0157  0.4927
 4686TIP3    H114064   0.181   4.065   1.825 -1.2166 -0.2006  1.5510
 4686TIP3    H214065   0.087   4.146   1.738 -0.9594 -0.3488  1.1333
 4687TIP3   OH214066   0.904   0.108   1.682  0.1161 -0.3357  0.4879
 4687TIP3    H114067   0.885   0.028   1.635 -0.3277 -0.0179  0.1201
 4687TIP3    H214068   0.885   0.087   1.774  0.4948 -0.7984  0.4645
 4688TIP3   OH214069   5.522   1.524   1.969 -0.6569 -0.8119  0.1011
 4688TIP3    H114070   5.457   1.472   2.016 -0.8438 -1.4958 -0.8900
 4688TIP3    H214071   5.595   1.464   1.956  0.4041  0.0816  1.6156
 4689TIP3   OH214072   5.788   5.880   2.005 -0.0797 -0.2164  0.7601
 4689TIP3    H114073   5.790   5.975   2.008  0.8326 -0.2062  0.1354
 4689TIP3    H214074   5.822   5.853   2.091 -0.5371  0.0135  1.0172
 4690TIP3   OH214075   4.969   4.632   4.669 -0.0968  0.4476  0.4134
 4690TIP3    H114076   4.898   4.626   4.606 -0.0122 -0.0957  0.3629
 4690TIP3    H214077   4.926   4.632   4.754 -0.0915 -3.3866  0.5749
 4691TIP3   OH214078   4.766   5.325   3.129 -0.2092 -0.8467  0.2531
 4691TIP3    H114079   4.725   5.245   3.162 -1.0931  0.0970  1.5678
 4691TIP3    H214080   4.831   5.348   3.195  1.5370 -1.5641 -1.1391
 4692TIP3   OH214081   6.266   1.676   3.694  0.6836  0.1259  0.5045
 4692TIP3    H114082   6.277   1.615   3.621 -2.0637  0.8426 -0.6585
 4692TIP3    H214083   6.248   1.760   3.652 -0.0685  0.7474  2.0048
 4693TIP3   OH214084   4.234   0.914   2.164  0.0506 -0.2903  0.4998
 4693TIP3    H114085   4.199   0.893   2.251 -0.1188 -0.4549  0.3930
 4693TIP3    H214086   4.287   0.837   2.142  0.4583 -0.0551  0.6485
 4694TIP3   OH214087   5.194   3.904   0.240 -0.0319  0.0797  0.1053
 4694TIP3    H114088   5.230   3.983   0.198  1.0624 -1.2868 -1.6663
 4694TIP3    H214089   5.177   3.844   0.168 -0.2257 -1.5684  1.4664
 4695TIP3   OH214090   0.340   3.951   0.077 -0.1816  0.6082  0.0117
 4695TIP3    H114091   0.393   3.901   0.139  0.4577 -0.3916 -1.2915
 4695TIP3    H214092   0.385   4.036   0.070 -0.9432  1.2112  1.7823
 4696TIP3   OH214093   1.084   2.283   5.032  0.4028 -0.5104 -0.1268
 4696TIP3    H114094   1.176   2.260   5.042  0.6174 -0.4185 -1.6670
 4696TIP3    H214095   1.043   2.204   4.997  0.3819  0.1684 -1.7086
 4697TIP3   OH214096   1.986   1.450   5.167  0.1863 -0.1464  0.5925
 4697TIP3    H114097   2.027   1.526   5.125 -1.1198  0.0899 -0.3575
 4697TIP3    H214098   1.897   1.450   5.132  0.2280 -2.2773  0.3671
 4698TIP3   OH214099   3.105   5.562   0.927 -0.0956  0.2232  0.9082
 4698TIP3    H114100   3.096   5.586   0.835 -1.9912 -1.1024  0.6703
 4698TIP3    H214101   3.022   5.589   0.967 -0.0730 -0.8859  1.7819
 4699TIP3   OH214102   5.955   2.306   0.504  0.2095  0.1650 -0.3226
 4699TIP3    H114103   5.886   2.272   0.561 -0.9088 -0.0485 -1.7228
 4699TIP3    H214104   6.011   2.358   0.561  0.1794 -1.4767  1.2848
 4700TIP3   OH214105   1.488   3.767   3.757 -0.0319 -0.3659  0.5366
 4700TIP3    H114106   1.456   3.833   3.818 -0.4770 -1.1501  1.1655
 4700TIP3    H214107   1.505   3.691   3.811 -0.1673 -0.9841 -0.2758
 4701TIP3   OH214108   2.344   0.016   4.817 -0.2174 -0.2347  0.1362
 4701TIP3    H114109   2.332   0.083   4.885  0.0951  0.1785 -0.2084
 4701TIP3    H214110   2.296  -0.060   4.850  2.7466 -1.2909  2.5574
 4702TIP3   OH214111   0.207   3.145   4.145 -0.7342 -0.4542 -0.1629
 4702TIP3    H114112   0.157   3.194   4.210 -1.6210 -2.2485  0.5760
 4702TIP3    H214113   0.167   3.169   4.061 -1.3663 -0.1878  0.2065
 4703TIP3   OH214114   0.479   3.285   4.819 -0.2989  0.0192 -0.2489
 4703TIP3    H114115   0.409   3.221   4.829 -0.1527 -0.1804 -0.4848
 4703TIP3    H214116   0.537   3.247   4.752  1.6373 -1.2325  1.9839
 4704TIP3   OH214117   2.535   3.221   2.602 -0.1862  0.1872  0.8247
 4704TIP3    H114118   2.623   3.188   2.616  0.3580  0.8665 -0.7790
 4704TIP3    H214119   2.489   3.203   2.685  1.3929 -0.2984  1.6343
 4705TIP3   OH214120   3.257   1.242   0.764  0.5744  0.7994  0.0324
 4705TIP3    H114121   3.316   1.204   0.829  0.9366 -0.2075 -0.8659
 4705TIP3    H214122   3.192   1.174   0.748 -0.3830  1.5946  0.4101
 4706TIP3   OH214123   1.124   5.030   4.173  0.5919  0.1846 -0.7068
 4706TIP3    H114124   1.158   5.108   4.128 -1.1233  1.9000  0.7785
 4706TIP3    H214125   1.033   5.023   4.143  0.1050  0.0306  0.7366
 4707TIP3   OH214126   5.747   0.140   2.484  0.0001  0.2941 -0.2261
 4707TIP3    H114127   5.746   0.207   2.417  0.1641  0.9449  0.4132
 4707TIP3    H214128   5.672   0.084   2.463 -0.3867  0.9120 -0.5207
 4708TIP3   OH214129   1.600   0.788   4.612 -0.4702 -0.1060  0.2260
 4708TIP3    H114130   1.663   0.753   4.676 -0.3423  0.7933  0.6028
 4708TIP3    H214131   1.550   0.853   4.661  0.7800  1.8723 -0.9790
 4709TIP3   OH214132   0.342   4.226   4.159  0.1843 -0.4533  0.2470
 4709TIP3    H114133   0.333   4.152   4.099 -2.2553  0.6198 -0.8941
 4709TIP3    H214134   0.299   4.197   4.239  0.1216 -0.6330  0.1501
 4710TIP3   OH214135   5.150   1.474   5.124  0.7864 -0.6914  0.2287
 4710TIP3    H114136   5.212   1.411   5.086  1.7360 -0.5073  1.4117
 4710TIP3    H214137   5.193   1.559   5.113  0.5922 -0.5207  0.7472
 4711TIP3   OH214138   4.078   0.289   4.663 -0.1807  0.0597  0.4374
 4711TIP3    H114139   4.084   0.377   4.625  1.2436  0.1662  0.8476
 4711TIP3    H214140   4.029   0.238   4.599  0.7303  0.6642 -0.7861
 4712TIP3   OH214141   1.101   4.554   3.217  0.0096 -0.4414  0.4456
 4712TIP3    H114142   1.155   4.480   3.188 -1.3326 -1.1829 -0.2596
 4712TIP3    H214143   1.088   4.606   3.138 -0.4317 -0.3663  0.5627
 4713TIP3   OH214144   5.098   0.010   0.819  0.1368 -0.7369 -0.0592
 4713TIP3    H114145   5.165   0.014   0.751  0.0108  1.4697 -0.1281
 4713TIP3    H214146   5.015   0.012   0.770  0.0216  2.0707  0.0554
 4714TIP3   OH214147   5.676   3.957   1.740  0.6843 -0.3644 -0.0177
 4714TIP3    H114148   5.717   3.988   1.660 -0.5622  0.9185 -0.2160
 4714TIP3    H214149   5.615   3.889   1.711  2.7934 -2.5449  0.3188
 4715TIP3   OH214150   1.000   2.250   1.885 -0.2629 -0.4936 -0.3377
 4715TIP3    H114151   0.964   2.273   1.800  1.6292 -1.8348 -1.5884
 4715TIP3    H214152   0.933   2.194   1.925 -2.3721  2.3133  0.3175
 4716TIP3   OH214153   0.203   3.192   2.706  0.1212  0.2702 -0.1962
 4716TIP3    H114154   0.159   3.259   2.759 -0.8353  0.1343 -0.7884
 4716TIP3    H214155   0.296   3.210   2.717 -0.1068  1.2999  0.1746
 4717TIP3   OH214156   2.641   1.048   5.012  0.4098  0.4545  0.2189
 4717TIP3    H114157   2.681   1.041   5.099  0.0023 -1.9326  0.2711
 4717TIP3    H214158   2.712   1.073   4.954  0.8873  1.1527  1.0857
 4718TIP3   OH214159   4.653   4.511   1.251  0.1035  0.1601  0.3946
 4718TIP3    H114160   4.628   4.532   1.341  2.3660  1.0708  0.8651
 4718TIP3    H214161   4.594   4.440   1.226 -0.6741 -0.0138  2.5417
 4719TIP3   OH214162   1.409   3.003   3.570 -0.5768 -0.7128 -0.0065
 4719TIP3    H114163   1.431   2.951   3.648  0.1477 -0.5552 -0.1010
 4719TIP3    H214164   1.313   2.999   3.565 -0.6389 -0.6499  0.9458
 4720TIP3   OH214165   2.618   4.671   2.445 -0.3322 -0.0236  0.1968
 4720TIP3    H114166   2.524   4.680   2.455 -0.0701  0.9258  2.3502
 4720TIP3    H214167   2.643   4.744   2.387 -0.9478 -0.6080 -0.8351
 4721TIP3   OH214168   1.588   1.258   2.252  0.7071 -0.1480 -0.7727
 4721TIP3    H114169   1.531   1.194   2.208 -0.6311  0.3749  0.1245
 4721TIP3    H214170   1.649   1.205   2.303  0.8077 -0.7235 -1.4756
 4722TIP3   OH214171   1.670   2.271   2.291 -0.2038 -0.5337  0.0134
 4722TIP3    H114172   1.704   2.304   2.208 -1.3385 -0.5005 -0.4562
 4722TIP3    H214173   1.745   2.274   2.351  0.6413 -0.5941 -1.0121
 4723TIP3   OH214174   4.613   3.046   2.377 -0.2048 -0.0532 -0.0786
 4723TIP3    H114175   4.545   2.983   2.402 -0.1919 -0.2342 -0.4910
 4723TIP3    H214176   4.689   3.022   2.430 -0.9416  1.1902  1.6353
 4724TIP3   OH214177   1.371   2.310   1.074  0.1312 -0.1248  0.0365
 4724TIP3    H114178   1.419   2.247   1.021  0.6164 -1.0263  1.4923
 4724TIP3    H214179   1.378   2.393   1.025  2.7882 -0.3175 -0.0469
 4725TIP3   OH214180   6.310   5.241   1.062  0.1867 -0.6910 -0.1904
 4725TIP3    H114181   6.379   5.176   1.065 -0.1710 -1.0889  3.2359
 4725TIP3    H214182   6.239   5.199   1.014  1.1341 -1.4942 -0.9205
 4726TIP3   OH214183   5.545   5.906   4.690  0.0533 -0.3547  0.7795
 4726TIP3    H114184   5.625   5.951   4.716 -0.6604  2.5739 -1.5779
 4726TIP3    H214185   5.478   5.942   4.747  0.1076 -1.7086  1.7494
 4727TIP3   OH214186   2.881   1.075   4.911 -0.2220 -0.5429  0.5308
 4727TIP3    H114187   2.934   1.104   4.985  0.5925 -0.3543 -0.1196
 4727TIP3    H214188   2.935   1.011   4.865 -1.3722 -1.9575  1.0335
 4728TIP3   OH214189   1.037   4.061   3.421  0.4217 -0.0003  0.4328
 4728TIP3    H114190   0.942   4.051   3.430  0.2807  1.4123  0.6371
 4728TIP3    H214191   1.055   4.042   3.329  0.0110 -0.6673  0.4805
 4729TIP3   OH214192   5.528   1.957   1.735  0.1354  0.1084 -0.2253
 4729TIP3    H114193   5.564   1.969   1.823 -0.7216 -0.1262  0.1720
 4729TIP3    H214194   5.435   1.942   1.750 -0.1671  0.9347 -1.2457
 4730TIP3   OH214195   0.320   4.210   1.189  0.6051 -0.7539 -0.6943
 4730TIP3    H114196   0.288   4.300   1.182  1.6096 -0.2754  0.4666
 4730TIP3    H214197   0.415   4.218   1.178  1.0317 -1.2892  1.9908
 4731TIP3   OH214198   0.265   0.674  -0.003  0.3631  0.0976 -0.3368
 4731TIP3    H114199   0.216   0.675   0.079  0.5741 -0.7579 -0.1837
 4731TIP3    H214200   0.289   0.765  -0.019 -0.3860  0.3821  0.1230
 4732TIP3   OH214201   1.132   5.759   0.788  0.4385 -0.2247 -0.3124
 4732TIP3    H114202   1.226   5.771   0.772  0.7486 -0.2660  1.3104
 4732TIP3    H214203   1.110   5.680   0.739  1.4912 -0.7950  0.0948
 4733TIP3   OH214204   4.116   5.356   0.397 -0.3072 -0.4064  0.0059
 4733TIP3    H114205   4.060   5.304   0.340 -0.7972 -0.2210  0.3178
 4733TIP3    H214206   4.184   5.390   0.339  1.2949 -3.1071  0.1266
 4734TIP3   OH214207   0.149   0.361   4.639 -0.0518  0.0513  0.3833
 4734TIP3    H114208   0.114   0.450   4.639 -0.3166 -0.0490 -0.0757
 4734TIP3    H214209   0.177   0.346   4.729  1.7154  1.2742  0.0920
 4735TIP3   OH214210   5.298   5.225   2.792 -0.7719 -0.1088  0.4515
 4735TIP3    H114211   5.392   5.208   2.805 -1.2603 -1.0727  3.9010
 4735TIP3    H214212   5.281   5.197   2.702  2.3141  0.6398 -0.4952
 4736TIP3   OH214213   0.984   4.738   1.123 -0.9310  0.2269 -0.2063
 4736TIP3    H114214   0.935   4.820   1.122  0.4909  1.1319 -2.6366
 4736TIP3    H214215   1.047   4.748   1.195 -0.5041  1.4479 -0.7336
 4737TIP3   OH214216   2.885   3.033   4.862  0.5088  0.1953 -0.3978
 4737TIP3    H114217   2.945   3.049   4.790  2.9031 -1.7083  1.0096
 4737TIP3    H214218   2.911   3.096   4.929  0.5238 -0.2292 -0.0023
 4738TIP3   OH214219   2.072   5.487   4.471 -0.2330 -0.3738  0.1623
 4738TIP3    H114220   2.072   5.400   4.511  0.1910  0.1685  1.3773
 4738TIP3    H214221   2.153   5.528   4.501  0.3260 -0.0870 -1.6270
 4739TIP3   OH214222   3.052   5.008   2.456  0.7469  0.3261 -0.2490
 4739TIP3    H114223   2.987   5.075   2.478 -0.7120 -1.0556 -0.1853
 4739TIP3    H214224   3.000   4.934   2.425  2.3055 -0.8551 -0.1372
 4740TIP3   OH214225   5.918   1.612   5.150  0.0953  0.5185  0.3306
 4740TIP3    H114226   5.999   1.623   5.199 -1.4976  0.9290  3.1438
 4740TIP3    H214227   5.888   1.523   5.173 -0.5127  0.5762 -0.2056
 4741TIP3   OH214228   4.986   4.657   0.089  0.2305  0.1496  0.2255
 4741TIP3    H114229   4.959   4.717   0.159 -2.0895 -1.1252  0.5120
 4741TIP3    H214230   4.945   4.694   0.010  1.2191  0.5064 -0.1329
 4742TIP3   OH214231   0.481   3.972   2.408  0.1590  0.7143 -0.0177
 4742TIP3    H114232   0.427   4.051   2.402 -0.4300  0.2034 -2.1389
 4742TIP3    H214233   0.455   3.919   2.333  3.6682  0.4922 -1.2687
 4743TIP3   OH214234   0.702   0.884   4.169  0.9776 -0.1941  0.5470
 4743TIP3    H114235   0.685   0.978   4.175 -1.5831 -0.6875  2.5243
 4743TIP3    H214236   0.766   0.876   4.098  0.5042  2.9296 -0.3768
 4744TIP3   OH214237   4.778   4.453   2.517 -0.2739  0.1478 -0.1284
 4744TIP3    H114238   4.727   4.372   2.526 -3.3619  1.8203 -1.0559
 4744TIP3    H214239   4.801   4.477   2.606  0.0687 -1.3530  0.2114
 4745TIP3   OH214240   5.717   1.209   4.377  0.0343 -0.1002  0.7958
 4745TIP3    H114241   5.663   1.130   4.383  1.9370 -1.5095  0.1990
 4745TIP3    H214242   5.787   1.195   4.440  1.4530  0.2284 -0.6517
 4746TIP3   OH214243   2.021   5.508   0.087 -0.7106 -0.2572 -0.3156
 4746TIP3    H114244   2.091   5.570   0.065 -0.1308  0.0399  2.0989
 4746TIP3    H214245   1.942   5.562   0.092 -0.3614  0.1770  0.9155
 4747TIP3   OH214246   4.284   1.520   0.889 -0.3734 -0.1521 -0.6306
 4747TIP3    H114247   4.377   1.502   0.873 -0.5019 -0.6708 -0.8152
 4747TIP3    H214248   4.280   1.615   0.901 -0.1549  0.2094 -3.0134
 4748TIP3   OH214249   5.310   2.026   2.554  0.1100 -0.7726 -0.1437
 4748TIP3    H114250   5.330   2.102   2.499 -0.9728  1.2601  2.0932
 4748TIP3    H214251   5.236   1.985   2.511 -0.3698  0.4491 -0.5278
 4749TIP3   OH214252   3.058   2.102   1.252 -0.4689 -0.3556  0.0101
 4749TIP3    H114253   3.011   2.021   1.269 -2.8243  1.2230  1.6650
 4749TIP3    H214254   3.066   2.143   1.338  1.1138  0.9458 -0.7151
 4750TIP3   OH214255   1.761   2.049   0.970  0.0353 -0.2207  0.1437
 4750TIP3    H114256   1.761   1.959   1.005 -0.0752 -0.2167  0.1530
 4750TIP3    H214257   1.841   2.088   1.006  0.0281 -0.2819  0.2274
 4751TIP3   OH214258   2.738   0.305   3.804 -0.6766 -0.7650 -0.3802
 4751TIP3    H114259   2.678   0.255   3.859  0.1928 -1.9242 -0.4501
 4751TIP3    H214260   2.724   0.272   3.716  0.2103 -1.2204 -0.3629
 4752TIP3   OH214261   4.863   3.051   0.357 -0.3811 -0.2189  0.0471
 4752TIP3    H114262   4.840   3.008   0.439 -0.5902 -0.9126 -0.3691
 4752TIP3    H214263   4.946   3.012   0.331  0.7290  1.4615  0.9573
 4753TIP3   OH214264   0.654   1.871   4.224 -0.2852  0.0921 -0.1586
 4753TIP3    H114265   0.592   1.945   4.220 -0.1978  0.1602 -0.2455
 4753TIP3    H214266   0.632   1.827   4.306 -0.2026  0.3328 -0.0073
 4754TIP3   OH214267   1.975   0.601   0.822  0.3121 -0.1226 -0.3590
 4754TIP3    H114268   2.032   0.678   0.823  2.3760 -1.5452 -1.3450
 4754TIP3    H214269   1.929   0.606   0.739 -1.0643  1.0075  0.4200
 4755TIP3   OH214270   5.899   5.538   4.550  0.3230  0.1978 -0.1865
 4755TIP3    H114271   5.919   5.472   4.483 -2.3450 -2.5305  1.3797
 4755TIP3    H214272   5.828   5.589   4.512  0.2880  0.0926 -0.2648
 4756TIP3   OH214273   1.192   5.624   3.715 -0.7053 -0.6164 -0.0872
 4756TIP3    H114274   1.197   5.587   3.627  1.6754  0.0959 -0.3123
 4756TIP3    H214275   1.229   5.712   3.706  0.9111 -1.0353  1.8662
 4757TIP3   OH214276   2.007   3.165   2.754  0.3214  0.1130 -0.3391
 4757TIP3    H114277   2.041   3.251   2.779  0.5291 -0.5198  1.7309
 4757TIP3    H214278   1.970   3.129   2.834  2.9142 -2.9659 -0.2942
 4758TIP3   OH214279   6.263   0.750   2.734  0.4972  0.5934 -0.2673
 4758TIP3    H114280   6.346   0.703   2.735  0.5811  0.7411 -0.3502
 4758TIP3    H214281   6.209   0.703   2.798  1.1538  1.3991  0.9341
 4759TIP3   OH214282   0.592   4.985   2.115  0.3386 -0.1314  0.7968
 4759TIP3    H114283   0.618   5.075   2.098  1.3238 -0.6835 -0.9249
 4759TIP3    H214284   0.671   4.933   2.099 -0.2623 -1.3182  1.5258
 4760TIP3   OH214285   2.908   5.773   3.747  0.0281 -0.1284 -0.2039
 4760TIP3    H114286   2.916   5.678   3.758  2.8853 -0.1138 -1.2548
 4760TIP3    H214287   2.971   5.809   3.809  0.2887  0.9607 -1.0779
 4761TIP3   OH214288   1.423   1.683   4.663  0.3512 -0.1540 -0.3162
 4761TIP3    H114289   1.376   1.670   4.746 -0.1000 -0.6136 -0.6340
 4761TIP3    H214290   1.413   1.776   4.645 -0.1284 -0.1749 -0.1881
 4762TIP3   OH214291   3.505   3.250   1.140  0.6452 -0.1889  0.4556
 4762TIP3    H114292   3.544   3.271   1.224 -0.4079  1.9295  0.4670
 4762TIP3    H214293   3.413   3.276   1.148  0.0945 -1.5342 -0.8039
 4763TIP3   OH214294   4.676   1.436   2.090  0.3047 -0.4671 -0.2350
 4763TIP3    H114295   4.602   1.493   2.065  0.6951 -0.4315 -1.3675
 4763TIP3    H214296   4.635   1.352   2.109  0.0439 -0.7773 -1.9623
 4764TIP3   OH214297   5.044   5.321   4.952  0.1251  0.4571  0.6557
 4764TIP3    H114298   4.960   5.328   4.908 -0.2119 -1.4186  0.9349
 4764TIP3    H214299   5.056   5.228   4.967  1.9198  0.7483  1.2891
 4765TIP3   OH214300   3.967   5.273   0.844 -0.0691  0.3746  0.1723
 4765TIP3    H114301   4.059   5.247   0.852  0.0683  0.7060 -0.3108
 4765TIP3    H214302   3.967   5.341   0.776 -0.7261  0.1011 -0.1068
 4766TIP3   OH214303   3.779   4.274   0.912  0.0753  0.0674  0.2889
 4766TIP3    H114304   3.684   4.265   0.923  0.0653  0.7618  0.8144
 4766TIP3    H214305   3.813   4.185   0.924 -0.2228  0.2391  3.0455
 4767TIP3   OH214306   4.756   5.351   4.224 -0.3641  0.6708 -0.1192
 4767TIP3    H114307   4.698   5.321   4.294 -0.4275 -0.5139 -0.6487
 4767TIP3    H214308   4.803   5.272   4.197  0.0051  1.2091 -1.0916
 4768TIP3   OH214309   5.767   5.327   0.299 -0.1882 -0.2209  0.5129
 4768TIP3    H114310   5.674   5.321   0.278  0.0506 -0.7443 -0.4578
 4768TIP3    H214311   5.811   5.283   0.226  0.9120  1.2323  0.2657
 4769TIP3   OH214312   5.092   4.767   1.223 -0.0497  0.6631  0.2683
 4769TIP3    H114313   5.008   4.803   1.249 -0.1213  1.2550 -0.7512
 4769TIP3    H214314   5.157   4.830   1.255 -0.0872  0.9586 -0.2313
 4770TIP3   OH214315   6.351   0.717   3.073 -0.1374  0.4475 -0.1051
 4770TIP3    H114316   6.285   0.649   3.087  0.7310 -0.4377 -0.2319
 4770TIP3    H214317   6.365   0.718   2.978  1.1806 -0.4956  0.0556
 4771TIP3   OH214318   4.413   1.703   1.999 -0.5601  0.1105 -0.0754
 4771TIP3    H114319   4.347   1.770   1.981  0.7310  1.3863 -0.2086
 4771TIP3    H214320   4.480   1.717   1.933 -0.4327 -1.6138 -0.3779
 4772TIP3   OH214321   4.363   3.384   1.019 -0.5576  0.0057  0.2818
 4772TIP3    H114322   4.320   3.390   1.105  0.0781 -0.4774  0.6400
 4772TIP3    H214323   4.389   3.293   1.011 -1.6813 -0.2354 -0.9716
 4773TIP3   OH214324   4.362   1.271   4.086  0.0343 -0.0041 -0.3754
 4773TIP3    H114325   4.443   1.314   4.059 -0.6847  2.0073  0.5107
 4773TIP3    H214326   4.294   1.337   4.074 -1.4774 -1.5457 -0.8144
 4774TIP3   OH214327   2.743   3.113   2.777  0.5789  0.0385 -0.3939
 4774TIP3    H114328   2.707   3.122   2.865 -0.1304 -0.7029 -0.5955
 4774TIP3    H214329   2.764   3.020   2.770 -0.9146 -0.2351 -1.5819
 4775TIP3   OH214330   0.160   1.573   0.276 -0.4615 -0.1411  0.0967
 4775TIP3    H114331   0.087   1.608   0.224  0.3273 -0.7451 -1.4829
 4775TIP3    H214332   0.226   1.642   0.273 -0.3006 -0.2979  0.0498
 4776TIP3   OH214333   2.093   1.868   3.357  0.3220 -0.2787  0.0162
 4776TIP3    H114334   2.135   1.787   3.386  0.7318 -0.5967 -1.3849
 4776TIP3    H214335   2.163   1.917   3.314 -0.7802 -1.0740 -2.8919
 4777TIP3   OH214336   1.341   0.623   0.418 -0.2139 -0.5032 -0.0657
 4777TIP3    H114337   1.376   0.558   0.479 -0.5643  0.5018  1.2630
 4777TIP3    H214338   1.361   0.707   0.459  2.2867  0.3929 -2.8334
 4778TIP3   OH214339   1.707   2.406   4.778  0.1516  0.0370 -0.3238
 4778TIP3    H114340   1.714   2.435   4.687  3.0498 -0.6041 -0.3916
 4778TIP3    H214341   1.673   2.316   4.771 -0.8465  0.4176 -0.6415
 4779TIP3   OH214342   4.779   3.611   2.825  0.0842  0.4995 -0.7066
 4779TIP3    H114343   4.706   3.670   2.845  1.6079  2.2906 -0.1384
 4779TIP3    H214344   4.827   3.603   2.908  1.2304  0.3964 -1.3588
 4780TIP3   OH214345   2.634   0.244   2.559  0.4680 -0.1825 -0.3062
 4780TIP3    H114346   2.708   0.299   2.583  0.4835 -0.0141 -0.7229
 4780TIP3    H214347   2.558   0.291   2.592  0.5802 -0.5899  0.5367
 4781TIP3   OH214348   4.939   3.776   2.367 -0.5292  0.7534 -0.4268
 4781TIP3    H114349   5.029   3.798   2.342 -0.0786 -0.1022  0.3810
 4781TIP3    H214350   4.949   3.707   2.432 -1.8024  0.0981 -0.9048
 4782TIP3   OH214351   4.682   3.001   4.863  0.6376 -0.2013  0.3521
 4782TIP3    H114352   4.706   3.080   4.815 -0.1488 -0.5920 -0.7193
 4782TIP3    H214353   4.632   3.033   4.939  1.9431  0.4221  0.9892
 4783TIP3   OH214354   1.945   0.127   4.401  0.1918 -0.2659 -0.0573
 4783TIP3    H114355   1.936   0.032   4.395 -0.6166 -0.1887 -0.2324
 4783TIP3    H214356   2.026   0.141   4.450 -0.5454 -1.0593  1.4521
 4784TIP3   OH214357   5.195   4.146   4.086 -0.2181 -0.7191  0.0654
 4784TIP3    H114358   5.130   4.117   4.151 -0.7460  0.2729  0.0109
 4784TIP3    H214359   5.143   4.190   4.019  0.6244  2.1741  1.1467
 4785TIP3   OH214360   1.547   0.738   2.234  0.3620  0.0567 -0.5629
 4785TIP3    H114361   1.632   0.744   2.191  1.0518 -1.4598  0.4858
 4785TIP3    H214362   1.497   0.677   2.179  0.6097 -0.4594 -0.2312
 4786TIP3   OH214363   3.177   3.569   4.614  0.5691  0.7061 -0.0201
 4786TIP3    H114364   3.264   3.557   4.577  0.6304  0.0647  0.3141
 4786TIP3    H214365   3.164   3.663   4.614  1.2189  0.8028 -0.1792
 4787TIP3   OH214366   2.179   3.053   1.595  0.2506 -0.4066  0.3788
 4787TIP3    H114367   2.091   3.091   1.587  0.2416 -0.4670  0.1904
 4787TIP3    H214368   2.166   2.960   1.581  0.3061 -0.4526  0.6250
 4788TIP3   OH214369   0.259   4.487   0.076  0.0336  0.7263  0.0069
 4788TIP3    H114370   0.355   4.476   0.075 -0.0248 -0.0395  0.8983
 4788TIP3    H214371   0.241   4.524   0.163 -0.6558 -1.2541  0.7678
 4789TIP3   OH214372   4.287   1.965   3.221 -0.3119  0.3603  0.2293
 4789TIP3    H114373   4.264   2.057   3.235 -1.9972  0.3336 -1.8824
 4789TIP3    H214374   4.228   1.917   3.279 -0.0397  0.5700  0.6843
 4790TIP3   OH214375   3.898   1.898   5.152 -0.1781 -0.2514  0.7000
 4790TIP3    H114376   3.900   1.813   5.108 -1.6244  0.7067 -1.3853
 4790TIP3    H214377   3.884   1.961   5.081 -0.3587  1.6235  2.3178
 4791TIP3   OH214378   4.510   0.503   1.620  0.0642 -0.4501 -0.0407
 4791TIP3    H114379   4.532   0.462   1.536 -0.1697  0.0000 -0.3250
 4791TIP3    H214380   4.422   0.472   1.640 -0.2768  0.2182 -0.4577
 4792TIP3   OH214381   3.601   2.710   4.269 -0.6377  0.2903  0.1316
 4792TIP3    H114382   3.629   2.738   4.356 -1.1370 -1.2082  0.8084
 4792TIP3    H214383   3.541   2.779   4.240  0.9819  1.7479  0.1509
 4793TIP3   OH214384   3.187   1.156   2.200 -0.4202  0.3958 -0.5198
 4793TIP3    H114385   3.163   1.110   2.280  1.1945 -0.1403 -0.3079
 4793TIP3    H214386   3.281   1.172   2.208 -0.1771  0.1899 -2.3568
 4794TIP3   OH214387   6.080   1.013   1.379 -0.7774  0.3263  0.0248
 4794TIP3    H114388   6.069   0.919   1.387 -1.6137  0.3403 -0.8321
 4794TIP3    H214389   6.009   1.051   1.430 -0.9710  0.4821 -0.3574
 4795TIP3   OH214390   3.802   2.208   0.041 -0.4254 -0.1417  0.1488
 4795TIP3    H114391   3.744   2.204  -0.036 -0.9797 -0.3210  0.5625
 4795TIP3    H214392   3.755   2.263   0.103  0.2417  0.3884  0.1849
 4796TIP3   OH214393   3.017   3.778   2.443 -0.1253  0.2373 -0.5360
 4796TIP3    H114394   3.070   3.856   2.463  1.0895 -0.1565 -1.9951
 4796TIP3    H214395   2.955   3.772   2.515  2.9985 -0.3540  2.3473
 4797TIP3   OH214396   0.566   4.307   2.105  0.6091 -0.1941  0.0160
 4797TIP3    H114397   0.513   4.343   2.034 -0.9050 -1.1423  0.6036
 4797TIP3    H214398   0.587   4.218   2.076 -2.5417 -1.7216  1.8644
 4798TIP3   OH214399   5.935   2.503   0.293  0.4136 -0.7509  0.0608
 4798TIP3    H114400   5.894   2.450   0.361  0.8929 -0.8188  0.2998
 4798TIP3    H214401   5.896   2.590   0.303 -0.6771 -1.1497 -0.5939
 4799TIP3   OH214402   0.265   0.384   2.617 -0.4858 -0.1420 -0.1143
 4799TIP3    H114403   0.228   0.376   2.530  0.3222 -0.7336 -0.4158
 4799TIP3    H214404   0.339   0.445   2.606 -0.7545  0.2631  0.2811
 4800TIP3   OH214405   3.071   1.399   2.751 -0.2881 -0.4455 -0.2265
 4800TIP3    H114406   3.089   1.421   2.660  0.8842 -0.4702 -0.0091
 4800TIP3    H214407   3.143   1.341   2.777 -0.0785  0.3255  0.9984
 4801TIP3   OH214408   3.975   1.149   3.518  0.3530  0.0340 -0.1484
 4801TIP3    H114409   3.958   1.104   3.435  1.1523 -0.7848  0.1233
 4801TIP3    H214410   4.003   1.080   3.578  1.0817  0.8135  0.4281
 4802TIP3   OH214411   0.186   5.642   2.337  0.0190 -0.0538 -0.3354
 4802TIP3    H114412   0.171   5.648   2.243  2.3534 -0.1492 -0.7759
 4802TIP3    H214413   0.269   5.595   2.345 -0.3270 -0.4040  1.7989
 4803TIP3   OH214414   4.894   2.130   4.199 -0.2779  0.1380 -0.2185
 4803TIP3    H114415   4.943   2.050   4.217  0.5728  0.4468 -1.0629
 4803TIP3    H214416   4.828   2.135   4.268  0.0127 -1.0035  0.1473
 4804TIP3   OH214417   0.654   2.350   1.207  0.1608  0.3238 -0.7611
 4804TIP3    H114418   0.630   2.389   1.291 -1.0516  0.1090 -0.9988
 4804TIP3    H214419   0.729   2.294   1.228  0.2113  0.6805  0.0708
 4805TIP3   OH214420   1.676   4.719   4.525 -0.7252 -0.0837  0.4553
 4805TIP3    H114421   1.706   4.766   4.447 -0.8790  1.6452  1.3993
 4805TIP3    H214422   1.629   4.643   4.490  1.8397 -1.0766 -1.0755
 4806TIP3   OH214423   3.181   2.725   4.302  0.2765  0.3000 -0.9121
 4806TIP3    H114424   3.153   2.690   4.386  1.1669  0.6802 -0.4443
 4806TIP3    H214425   3.102   2.764   4.264  0.2943  2.0143  0.7061
 4807TIP3   OH214426   5.494   0.109   4.241 -0.3916  0.5353  0.5957
 4807TIP3    H114427   5.458   0.129   4.155 -1.2401 -0.6404  0.6419
 4807TIP3    H214428   5.494   0.013   4.245 -0.2607  0.5669  1.8489
 4808TIP3   OH214429   2.261   5.271   4.747  0.2184 -0.5241 -0.0780
 4808TIP3    H114430   2.227   5.351   4.787  1.9087  0.7625 -1.0760
 4808TIP3    H214431   2.212   5.261   4.666 -0.6612 -1.0823  0.5005
 4809TIP3   OH214432   1.318   1.319   3.874 -0.4857 -0.0203  0.1194
 4809TIP3    H114433   1.273   1.403   3.861 -0.4021 -0.0322 -0.2452
 4809TIP3    H214434   1.263   1.256   3.827  0.7648  0.2035 -1.7391
 4810TIP3   OH214435   3.803   4.784   2.819  0.2660  0.5071 -0.5405
 4810TIP3    H114436   3.761   4.810   2.902 -0.6974  2.5967 -1.6026
 4810TIP3    H214437   3.770   4.696   2.802  0.8612 -0.1695  1.4985
 4811TIP3   OH214438   4.719   0.100   4.039 -0.0884 -0.0747  0.1895
 4811TIP3    H114439   4.679   0.151   3.969  1.1410 -0.5301 -0.8709
 4811TIP3    H214440   4.665   0.021   4.045  0.1223 -0.2787 -0.6014
 4812TIP3   OH214441   5.111   1.046   1.312 -0.4608  0.5358 -0.1667
 4812TIP3    H114442   5.016   1.051   1.323 -0.3430  1.4523  0.5951
 4812TIP3    H214443   5.134   0.959   1.344 -1.1945 -0.2485 -1.6938
 4813TIP3   OH214444   1.637   2.149   2.682  0.2093 -0.0807  0.0386
 4813TIP3    H114445   1.543   2.159   2.667  0.5651  2.0380 -1.1344
 4813TIP3    H214446   1.654   2.057   2.661 -1.0943  0.2337 -2.8947
 4814TIP3   OH214447   0.331   3.531   2.674  0.3542 -0.0863 -0.3815
 4814TIP3    H114448   0.377   3.597   2.726  0.0882 -2.4568  3.2846
 4814TIP3    H214449   0.241   3.533   2.707  0.7764 -3.4643  1.5466
 4815TIP3   OH214450   1.521   0.180   3.485 -0.2258 -0.1415 -0.7221
 4815TIP3    H114451   1.453   0.122   3.451 -0.1425  0.0983 -1.3201
 4815TIP3    H214452   1.474   0.260   3.509 -0.1266  0.1298 -1.4008
 4816TIP3   OH214453   1.023   4.248   4.106 -0.3935 -0.1426 -0.3139
 4816TIP3    H114454   0.987   4.189   4.040 -0.7097 -0.9452  0.5584
 4816TIP3    H214455   0.949   4.273   4.161 -0.1402  0.5444 -0.2648
 4817TIP3   OH214456   2.038   5.018   1.953  0.3338 -0.1445 -0.4014
 4817TIP3    H114457   2.079   5.010   1.867 -0.1395 -1.0499 -0.5587
 4817TIP3    H214458   1.963   5.075   1.939  0.8690  0.5808 -0.3547
 4818TIP3   OH214459   6.105   5.666   3.895 -0.0169  0.6035 -0.2722
 4818TIP3    H114460   6.033   5.714   3.854 -0.5391  0.1429  0.0974
 4818TIP3    H214461   6.184   5.712   3.866 -0.3815  0.4403 -1.5847
 4819TIP3   OH214462   0.775   4.298   1.599 -0.4382 -0.1410 -0.1141
 4819TIP3    H114463   0.816   4.289   1.685  0.2378  0.3069 -0.3855
 4819TIP3    H214464   0.771   4.209   1.565  2.1632 -0.0444 -0.9167
 4820TIP3   OH214465   5.628   1.416   0.786 -0.5858  0.2834  0.1296
 4820TIP3    H114466   5.629   1.498   0.736 -2.7712 -0.3639 -1.1197
 4820TIP3    H214467   5.637   1.444   0.877 -2.0943  2.0205 -0.1927
 4821TIP3   OH214468   4.346   5.886   0.585  0.1128  0.5499  0.4788
 4821TIP3    H114469   4.427   5.925   0.552  0.0673 -0.9262 -1.5314
 4821TIP3    H214470   4.280   5.955   0.575  1.0590  1.8207  2.2667
 4822TIP3   OH214471   4.117   3.824   2.491 -0.4512  0.0181  0.0182
 4822TIP3    H114472   4.142   3.829   2.399  0.4351 -1.1293  0.1677
 4822TIP3    H214473   4.200   3.811   2.537 -1.1739 -3.3254  0.5991
 4823TIP3   OH214474   3.100   5.184   1.355 -0.0566  0.0360 -0.3161
 4823TIP3    H114475   3.036   5.231   1.302 -0.9013  0.2547  0.8523
 4823TIP3    H214476   3.136   5.251   1.414  0.6240 -0.2627 -0.3858
 4824TIP3   OH214477   1.165   1.571   0.936  0.1410  0.6049  0.0281
 4824TIP3    H114478   1.217   1.650   0.927  1.3152  0.0197  1.2980
 4824TIP3    H214479   1.086   1.588   0.885  1.8298  1.2666 -2.5231
 4825TIP3   OH214480   2.657   4.335   4.892  1.1331 -0.1243 -0.5237
 4825TIP3    H114481   2.651   4.338   4.988  0.1025 -0.6807 -0.5551
 4825TIP3    H214482   2.577   4.378   4.862 -0.2126 -2.7703 -1.0770
 4826TIP3   OH214483   1.807   5.836   4.588 -0.3747  0.2734 -0.1851
 4826TIP3    H114484   1.778   5.838   4.497 -0.3523 -1.1880 -0.2503
 4826TIP3    H214485   1.761   5.909   4.629 -1.3435  0.1995 -1.0852
 4827TIP3   OH214486   3.838   0.266   1.327 -0.1116  0.1613 -0.4939
 4827TIP3    H114487   3.862   0.177   1.354  0.5479  0.3652 -0.3912
 4827TIP3    H214488   3.918   0.302   1.289 -0.5287  0.5185 -1.0489
 4828TIP3   OH214489   4.302   1.376   4.361 -0.3508  0.0544 -0.0427
 4828TIP3    H114490   4.366   1.414   4.421  0.6868 -0.8809 -0.5299
 4828TIP3    H214491   4.328   1.407   4.275 -1.8478  1.4066 -0.0627
 4829TIP3   OH214492   2.194   3.290   1.819 -0.1898  0.0972 -0.3040
 4829TIP3    H114493   2.137   3.347   1.870  0.5208  0.0729  0.5406
 4829TIP3    H214494   2.166   3.201   1.841 -1.0163  0.0922 -1.2951
 4830TIP3   OH214495   6.197   5.262   4.026  0.0959  0.2611  0.4665
 4830TIP3    H114496   6.286   5.288   4.049  0.0477  0.5195  0.3656
 4830TIP3    H214497   6.203   5.169   4.008  0.0938 -0.0082  1.7455
 4831TIP3   OH214498   0.976   3.114   2.862  0.3178  0.2090  0.4895
 4831TIP3    H114499   0.951   3.186   2.920  1.0975  2.1830 -1.5051
 4831TIP3    H214500   0.904   3.108   2.800  0.3203 -0.6822  0.5635
 4832TIP3   OH214501   4.222   5.848   4.069  0.0796 -0.2648  0.2222
 4832TIP3    H114502   4.127   5.838   4.067 -0.0589  0.7301  1.1939
 4832TIP3    H214503   4.256   5.766   4.033 -1.1019 -1.5465  1.8951
 4833TIP3   OH214504   3.197   3.001   4.090  0.7354 -0.0941  0.1322
 4833TIP3    H114505   3.167   2.956   4.011 -1.4495 -1.1418  1.4755
 4833TIP3    H214506   3.183   3.094   4.072  0.3221 -0.3170 -0.7355
 4834TIP3   OH214507   5.129   2.211   3.176 -0.5798  0.0768  0.5191
 4834TIP3    H114508   5.071   2.247   3.242 -0.8932  0.2510  0.1552
 4834TIP3    H214509   5.110   2.117   3.176 -0.4796  0.0572  0.7711
 4835TIP3   OH214510   1.298   5.121   0.586 -0.0783 -0.5109  0.3257
 4835TIP3    H114511   1.353   5.115   0.664  1.3503  0.8649 -0.5161
 4835TIP3    H214512   1.357   5.104   0.513 -0.3905  2.2464 -0.6855
 4836TIP3   OH214513   3.888   1.151   0.256 -0.0678  0.1986  0.2603
 4836TIP3    H114514   3.967   1.196   0.227 -0.0137 -0.1490 -0.1493
 4836TIP3    H214515   3.920   1.074   0.303 -0.1597  0.5438  0.8990
 4837TIP3   OH214516   2.828   1.690   4.042  0.6801 -0.0352 -0.1132
 4837TIP3    H114517   2.912   1.736   4.053  0.1736  1.1034 -0.8529
 4837TIP3    H214518   2.849   1.598   4.058  2.2022  0.1494 -0.8983
 4838TIP3   OH214519   5.817   1.223   3.854 -0.1356  0.4631 -0.6450
 4838TIP3    H114520   5.904   1.197   3.886 -0.9116 -2.2530 -0.4684
 4838TIP3    H214521   5.805   1.171   3.775 -2.9144 -2.1079  1.2130
 4839TIP3   OH214522   3.961   1.701   0.798 -0.1883  0.1704  0.3484
 4839TIP3    H114523   3.973   1.613   0.762  1.9694  0.5470 -0.0029
 4839TIP3    H214524   3.876   1.729   0.765 -1.5009 -2.2303  1.4966
 4840TIP3   OH214525   1.806   2.470   3.973  0.0199  0.1140  0.5672
 4840TIP3    H114526   1.878   2.481   3.911  2.3673 -0.0966  3.0577
 4840TIP3    H214527   1.764   2.388   3.946  2.4393 -1.2222  0.5676
 4841TIP3   OH214528   1.274   2.331   0.037 -0.4958 -0.1838  0.5226
 4841TIP3    H114529   1.198   2.307  -0.016  0.3822 -0.0656 -0.8532
 4841TIP3    H214530   1.295   2.252   0.087 -2.0261  0.0512  1.6003
 4842TIP3   OH214531   1.671   0.631   3.708  0.4940  0.2749 -0.0729
 4842TIP3    H114532   1.755   0.616   3.751 -0.1293 -0.5090  0.9412
 4842TIP3    H214533   1.683   0.596   3.620  1.7602  1.7829 -0.5305
 4843TIP3   OH214534   1.565   0.321   4.488  0.8983 -0.3531 -0.2868
 4843TIP3    H114535   1.607   0.404   4.467 -0.4535 -0.1698 -2.6295
 4843TIP3    H214536   1.525   0.335   4.574 -0.0399  1.7708 -0.9944
 4844TIP3   OH214537   2.222   0.225   3.689 -0.1587  0.0985 -0.3849
 4844TIP3    H114538   2.314   0.211   3.709 -0.2838 -0.5175 -0.2259
 4844TIP3    H214539   2.208   0.180   3.605 -0.1072  0.9544 -0.8610
 4845TIP3   OH214540   5.656   5.505   1.913 -0.8829  0.5836 -0.4085
 4845TIP3    H114541   5.673   5.590   1.875  2.2237  0.3801  0.3047
 4845TIP3    H214542   5.603   5.523   1.991  0.4314  1.9917  0.1944
 4846TIP3   OH214543   1.575   3.934   1.403  0.1739 -0.6664 -0.1794
 4846TIP3    H114544   1.664   3.914   1.431 -0.0593 -1.5124  0.0073
 4846TIP3    H214545   1.537   3.983   1.476  0.1564 -1.2338  0.1995
 4847TIP3   OH214546   6.001   0.031   3.256 -0.1626  0.2834 -0.3202
 4847TIP3    H114547   5.960   0.100   3.203 -0.9495  0.3141  0.2906
 4847TIP3    H214548   5.927  -0.024   3.284  0.5110 -1.1305 -1.2335
 4848TIP3   OH214549   2.385   3.683   3.938  0.4291 -0.9538  0.0724
 4848TIP3    H114550   2.412   3.637   4.017 -0.3858 -0.6393  0.5434
 4848TIP3    H214551   2.289   3.681   3.941  0.3077  1.9147  0.8044
 4849TIP3   OH214552   2.536   3.965   3.483  0.2380  0.2719 -0.0681
 4849TIP3    H114553   2.532   3.921   3.398  0.6344 -1.8999  0.9969
 4849TIP3    H214554   2.616   3.933   3.524  0.3293  1.6906  0.9536
 4850TIP3   OH214555   0.782   5.910   0.459  0.6315 -0.3041  0.0962
 4850TIP3    H114556   0.805   5.824   0.496  0.2245  0.0834  1.3194
 4850TIP3    H214557   0.831   5.915   0.377 -0.6801 -2.4100 -0.9027
 4851TIP3   OH214558   2.172   0.173   4.534 -0.1740  0.5834 -0.7361
 4851TIP3    H114559   2.223   0.092   4.532 -1.4316 -0.2420 -2.1382
 4851TIP3    H214560   2.236   0.242   4.513  0.5815 -0.2785 -1.3716
 4852TIP3   OH214561   4.754   5.423   2.415  0.6901  0.2656  0.0955
 4852TIP3    H114562   4.731   5.425   2.322  0.5218  1.3299  0.1436
 4852TIP3    H214563   4.703   5.351   2.451  1.8964 -1.1637 -0.9113
 4853TIP3   OH214564   1.864   1.619   2.647 -0.2441 -0.1718  0.1787
 4853TIP3    H114565   1.778   1.621   2.604 -0.8243 -0.1170  1.2896
 4853TIP3    H214566   1.864   1.536   2.695 -0.6407  0.8407  2.0329
 4854TIP3   OH214567   0.921   5.674   4.062 -0.1755 -0.1594  0.3772
 4854TIP3    H114568   0.924   5.768   4.078 -0.6101 -0.1292  0.2951
 4854TIP3    H214569   0.865   5.664   3.984  0.9652 -0.3856 -0.4415
 4855TIP3   OH214570   5.488   5.681   2.653 -0.5337 -0.4127 -0.1963
 4855TIP3    H114571   5.393   5.675   2.641 -0.5337 -0.0710 -0.3721
 4855TIP3    H214572   5.512   5.767   2.618 -0.3910  0.2119  1.3351
 4856TIP3   OH214573   3.613   5.440   2.442 -0.1854  0.6140 -0.3186
 4856TIP3    H114574   3.680   5.379   2.473 -1.5604  0.3329  2.4094
 4856TIP3    H214575   3.600   5.501   2.515 -0.9525  2.3622 -1.8391
 4857TIP3   OH214576   5.313   4.333   4.254  1.0092 -0.7990  0.0305
 4857TIP3    H114577   5.306   4.283   4.335  1.4616 -1.1613 -0.1422
 4857TIP3    H214578   5.267   4.279   4.189  0.2224 -0.2744  0.1425
 4858TIP3   OH214579   5.175   5.666   1.106  0.3890 -0.3724  0.7273
 4858TIP3    H114580   5.113   5.705   1.168 -0.2041 -2.2006  1.3482
 4858TIP3    H214581   5.241   5.623   1.162  0.4847 -1.0726  0.0914
 4859TIP3   OH214582   5.005   3.295   3.176  0.2552 -0.3008 -0.3673
 4859TIP3    H114583   5.071   3.354   3.140 -1.6008  1.7148 -0.6980
 4859TIP3    H214584   5.003   3.220   3.115 -1.6109  2.2095 -3.7790
 4860TIP3   OH214585   0.197   4.651   4.372  0.0859 -0.6444  0.4466
 4860TIP3    H114586   0.102   4.651   4.375  0.0875 -1.6034  1.9132
 4860TIP3    H214587   0.223   4.697   4.453  0.9311  2.2070 -1.2829
 4861TIP3   OH214588   3.708   1.253   3.467 -0.0307  0.0086  0.4026
 4861TIP3    H114589   3.775   1.187   3.485  0.0299 -0.7567 -2.2305
 4861TIP3    H214590   3.749   1.312   3.405 -1.5644 -0.0972 -0.7664
 4862TIP3   OH214591   5.192   3.559   0.945  0.1088 -0.1921 -0.6836
 4862TIP3    H114592   5.148   3.566   1.030  2.3564 -1.1933  0.6544
 4862TIP3    H214593   5.257   3.629   0.945  2.2397 -2.0394 -0.1325
 4863TIP3   OH214594   0.328   2.517   1.014 -0.1872  0.2692  0.1581
 4863TIP3    H114595   0.393   2.493   0.949 -0.2874  0.6553 -0.0873
 4863TIP3    H214596   0.332   2.447   1.079  0.6623  0.4227  0.2888
 4864TIP3   OH214597   2.003   2.258   0.969  0.2695  0.0237 -0.0469
 4864TIP3    H114598   2.082   2.252   0.914  0.6207  0.2681  0.4268
 4864TIP3    H214599   1.965   2.343   0.948  0.0941 -0.1214 -0.3231
 4865TIP3   OH214600   3.908   3.031   1.271 -0.1555 -0.0314 -0.0693
 4865TIP3    H114601   3.814   3.033   1.288  0.0054  0.5425  0.7886
 4865TIP3    H214602   3.921   2.951   1.220 -1.1581  0.0867 -0.5343
 4866TIP3   OH214603   2.709   5.645   1.331 -0.2931 -0.5880  0.0604
 4866TIP3    H114604   2.789   5.697   1.322 -0.6417  0.0730  0.6338
 4866TIP3    H214605   2.692   5.644   1.425 -2.4740  1.7132 -0.2016
 4867TIP3   OH214606   5.297   0.470   1.640  0.3149 -0.5532  0.0186
 4867TIP3    H114607   5.392   0.471   1.626  0.0856 -1.2008 -1.9160
 4867TIP3    H214608   5.272   0.563   1.639  0.7445 -0.4299 -1.1621
 4868TIP3   OH214609   1.150   5.082   1.772 -0.1745  0.2147 -0.1602
 4868TIP3    H114610   1.082   5.131   1.819 -1.1741 -1.6467  0.4108
 4868TIP3    H214611   1.222   5.075   1.835  1.3206  3.4917 -1.2516
 4869TIP3   OH214612   5.527   5.219   4.474  0.4651 -0.3040 -0.0041
 4869TIP3    H114613   5.574   5.203   4.392  0.6250 -0.6753  0.1590
 4869TIP3    H214614   5.572   5.295   4.512 -1.0293  1.3539 -1.3339
 4870TIP3   OH214615   1.774   3.168   0.528 -0.0126  0.2089 -0.2681
 4870TIP3    H114616   1.712   3.189   0.458 -0.2512 -2.1177 -0.8189
 4870TIP3    H214617   1.860   3.175   0.486 -0.1371 -0.8333 -0.7086
 4871TIP3   OH214618   1.494   4.135   3.664 -0.1811 -0.7651 -0.1309
 4871TIP3    H114619   1.550   4.058   3.657  0.7055 -0.1564  0.1876
 4871TIP3    H214620   1.522   4.179   3.745 -0.9049 -0.2900 -0.1274
 4872TIP3   OH214621   3.812   5.700   1.510  0.3754 -0.6784 -0.0348
 4872TIP3    H114622   3.772   5.778   1.473  2.4462  0.3475 -0.2787
 4872TIP3    H214623   3.811   5.635   1.440  0.9008 -0.0001 -0.6840
 4873TIP3   OH214624   3.729   4.813   0.720  0.1968  0.0947  0.1681
 4873TIP3    H114625   3.756   4.896   0.760 -0.6335 -1.3151  4.0894
 4873TIP3    H214626   3.812   4.766   0.706  0.5073  0.3565  1.0274
 4874TIP3   OH214627   3.230   3.932   1.366 -0.3235 -0.4935  0.0731
 4874TIP3    H114628   3.198   3.990   1.435 -0.5903  1.4061 -1.5382
 4874TIP3    H214629   3.155   3.875   1.346 -0.7277 -0.0807  0.3832
 4875TIP3   OH214630   6.221   1.220   3.018 -0.1156  0.5190 -0.3967
 4875TIP3    H114631   6.212   1.128   3.043 -0.8603  0.7337  0.1635
 4875TIP3    H214632   6.142   1.238   2.968  0.5609  0.5590 -1.4715
 4876TIP3   OH214633   0.201   2.426   3.244 -0.6676 -0.2482  0.6349
 4876TIP3    H114634   0.192   2.518   3.222  1.5559 -0.0565  0.2997
 4876TIP3    H214635   0.151   2.380   3.175 -0.5923  0.6445 -0.0331
 4877TIP3   OH214636   1.448   0.072   5.076  0.3380  0.2858  0.2450
 4877TIP3    H114637   1.531   0.029   5.091  0.6386  1.3280  1.7882
 4877TIP3    H214638   1.383   0.016   5.120  0.6171  0.9286  1.5143
 4878TIP3   OH214639   4.544   5.622   2.473 -0.3183  0.0981  0.0552
 4878TIP3    H114640   4.493   5.603   2.552  1.0719  1.4282  1.3484
 4878TIP3    H214641   4.633   5.594   2.495 -0.1781 -0.8914 -1.6312
 4879TIP3   OH214642   5.064   0.451   3.636  0.3902 -0.0252  0.1903
 4879TIP3    H114643   5.110   0.387   3.582  0.1865  0.1987 -0.2487
 4879TIP3    H214644   5.016   0.397   3.699 -0.3391 -0.3456 -0.6175
 4880TIP3   OH214645   4.081   3.683   4.702 -0.1090  0.3528  0.2102
 4880TIP3    H114646   4.050   3.643   4.621 -1.7119 -0.5258  1.1755
 4880TIP3    H214647   4.157   3.630   4.728  0.5280  0.7615 -0.7955
 4881TIP3   OH214648   1.934   4.803   3.912  0.0700 -0.5574 -0.6940
 4881TIP3    H114649   1.845   4.817   3.881 -0.6392  0.8089  1.6492
 4881TIP3    H214650   1.959   4.887   3.951  1.3020 -1.6940  1.1429
 4882TIP3   OH214651   1.692   2.606   2.140  0.1994 -0.1427  0.2394
 4882TIP3    H114652   1.728   2.636   2.223  0.2393  1.1768 -0.2204
 4882TIP3    H214653   1.648   2.684   2.104 -1.7374 -1.2684  0.0406
 4883TIP3   OH214654   0.520   1.220   3.717 -0.1978 -0.1536  0.2350
 4883TIP3    H114655   0.463   1.174   3.779 -1.9892  0.3279 -0.9621
 4883TIP3    H214656   0.488   1.311   3.719  0.5271  0.1205 -0.4890
 4884TIP3   OH214657   4.174   3.474   3.874  0.1904 -0.1864  0.1175
 4884TIP3    H114658   4.151   3.404   3.812  0.1236  0.1142 -0.1998
 4884TIP3    H214659   4.237   3.434   3.933  0.1136 -0.5325 -0.0329
 4885TIP3   OH214660   3.441   2.436   0.507  0.1123 -0.2676 -0.1528
 4885TIP3    H114661   3.349   2.436   0.480 -0.1491 -0.2252  0.7027
 4885TIP3    H214662   3.465   2.529   0.508 -0.3429 -0.1293  1.2094
 4886TIP3   OH214663   2.719   5.809   4.221 -0.3560 -0.6363 -0.2824
 4886TIP3    H114664   2.745   5.894   4.186 -0.4011 -0.3385  0.3860
 4886TIP3    H214665   2.640   5.786   4.173  0.2823 -0.8353 -1.2549
 4887TIP3   OH214666   5.194   3.042   1.961  0.0022  0.5739 -0.1010
 4887TIP3    H114667   5.275   3.015   2.004  0.0284  1.5397  0.4698
 4887TIP3    H214668   5.219   3.116   1.907 -0.6884  1.5648  0.8975
 4888TIP3   OH214669   0.936   5.365   4.340 -0.0107 -0.3666 -0.4095
 4888TIP3    H114670   0.841   5.368   4.334 -0.0816  1.7471  0.8690
 4888TIP3    H214671   0.966   5.385   4.251 -0.7613 -0.2570 -0.6444
 4889TIP3   OH214672   6.373   3.430   2.080  0.1351  0.3510 -0.1178
 4889TIP3    H114673   6.397   3.374   2.007 -0.7126 -0.9469  0.5652
 4889TIP3    H214674   6.278   3.432   2.079 -0.0555 -1.8443  2.4430
 4890TIP3   OH214675   2.033   3.326   3.847 -0.1094 -0.3526  0.8012
 4890TIP3    H114676   1.968   3.295   3.785  1.0492  0.7265 -1.0389
 4890TIP3    H214677   2.021   3.271   3.924 -0.9174 -2.4727 -0.7467
 4891TIP3   OH214678   1.130   0.379   2.203 -0.1119 -0.7191  0.2332
 4891TIP3    H114679   1.188   0.454   2.215  0.5552 -1.3502  1.1073
 4891TIP3    H214680   1.048   0.416   2.170  0.0073  0.4564  1.2206
 4892TIP3   OH214681   0.637   4.000   2.905 -0.4526  0.2005  0.1898
 4892TIP3    H114682   0.563   3.985   2.964  0.7255 -0.8249  1.4418
 4892TIP3    H214683   0.695   3.926   2.919  0.5558  0.6801 -1.2170
 4893TIP3   OH214684   5.289   1.806   2.823  0.0983 -0.4092  0.4642
 4893TIP3    H114685   5.353   1.836   2.759  0.2617 -1.6880 -0.0163
 4893TIP3    H214686   5.232   1.881   2.837  0.7102  0.2313 -0.3699
 4894TIP3   OH214687   0.757   1.866   3.570 -0.0409 -0.1688  0.0813
 4894TIP3    H114688   0.849   1.849   3.551  0.4807  0.2686  1.9513
 4894TIP3    H214689   0.708   1.811   3.509  1.5009 -3.2142  1.4234
 4895TIP3   OH214690   6.218   3.427   4.194 -0.2749 -0.0298 -0.1352
 4895TIP3    H114691   6.124   3.436   4.212 -0.4657 -2.1000  0.1010
 4895TIP3    H214692   6.223   3.360   4.126  1.0369  0.2511 -0.3436
 4896TIP3   OH214693   0.855   2.418   3.456  0.6031  0.2484  0.2024
 4896TIP3    H114694   0.762   2.423   3.478  0.3315 -2.3397  0.0012
 4896TIP3    H214695   0.890   2.354   3.518  2.0452  0.4376 -0.3748
 4897TIP3   OH214696   5.215   1.297   3.997  0.1596  0.8571 -0.5771
 4897TIP3    H114697   5.288   1.274   3.939  0.8159  1.1644  0.1063
 4897TIP3    H214698   5.253   1.359   4.059 -1.0194  2.0838 -1.0341
 4898TIP3   OH214699   1.892   4.049   1.210  0.1298  0.3282  0.4283
 4898TIP3    H114700   1.844   4.095   1.279 -0.7443  2.2715 -1.3498
 4898TIP3    H214701   1.950   4.116   1.173  1.8400 -1.1118  0.3564
 4899TIP3   OH214702   1.904   0.593   3.860 -0.4595  0.8852  0.5601
 4899TIP3    H114703   1.921   0.615   3.952 -0.7105  1.2262  0.5255
 4899TIP3    H214704   1.986   0.555   3.829 -0.7522 -0.3724  1.2620
 4900TIP3   OH214705   3.467   1.956   1.733 -0.6135 -0.9737  0.0015
 4900TIP3    H114706   3.532   1.920   1.673 -1.9504 -1.3538 -1.2577
 4900TIP3    H214707   3.519   1.993   1.805  1.2113  1.2189 -2.2475
 4901TIP3   OH214708   2.412   4.214   0.106  0.6613 -0.0211 -0.1283
 4901TIP3    H114709   2.390   4.307   0.109 -0.3822 -0.2708  0.6347
 4901TIP3    H214710   2.407   4.191   0.014 -0.3041  0.4155 -0.1945
 4902TIP3   OH214711   5.262   2.250   0.825  0.3020  0.0281 -1.1397
 4902TIP3    H114712   5.319   2.191   0.874  0.9001  0.4639 -1.3035
 4902TIP3    H214713   5.247   2.323   0.885 -0.0115 -0.0355 -1.1353
 4903TIP3   OH214714   1.840   2.265   0.113 -0.0913  0.1486 -0.1042
 4903TIP3    H114715   1.829   2.359   0.105 -0.5468  0.1557  0.5551
 4903TIP3    H214716   1.935   2.253   0.116 -0.0370  0.7161  1.1163
 4904TIP3   OH214717   2.596   4.343   4.274  0.0503  0.0504 -0.3888
 4904TIP3    H114718   2.544   4.344   4.194  2.0162  0.0759 -1.7263
 4904TIP3    H214719   2.650   4.264   4.267 -0.5492 -0.5872  1.4864
 4905TIP3   OH214720   2.002   3.965   1.506  0.2171 -0.4989  0.2598
 4905TIP3    H114721   2.070   4.006   1.454 -0.5458  0.2966 -0.1453
 4905TIP3    H214722   1.948   4.038   1.537 -1.9704 -1.2181 -1.5820
 4906TIP3   OH214723   1.256   1.651   1.512 -0.3740  0.2706  0.6156
 4906TIP3    H114724   1.335   1.601   1.490  1.4114  1.9423  2.7103
 4906TIP3    H214725   1.212   1.597   1.577  0.0153  0.1309  0.7706
 4907TIP3   OH214726   2.435   2.969   3.581 -0.2549 -0.0862  0.1053
 4907TIP3    H114727   2.342   2.985   3.566  0.2819  1.7280 -1.7253
 4907TIP3    H214728   2.439   2.936   3.671 -2.7325 -1.1820 -0.1041
 4908TIP3   OH214729   5.044   0.665   4.132 -0.3876  0.1173 -0.9979
 4908TIP3    H114730   5.054   0.672   4.037  1.3870 -1.6072 -1.0180
 4908TIP3    H214731   5.134   0.669   4.165 -0.9725  0.5869  0.6078
 4909TIP3   OH214732   5.493   5.466   1.474  0.4295  0.4930  0.2159
 4909TIP3    H114733   5.491   5.560   1.488  1.3914  1.0336 -2.6348
 4909TIP3    H214734   5.542   5.432   1.549 -0.8323  2.0687  1.8482
 4910TIP3   OH214735   5.780   0.004   2.916 -0.2897 -0.0011  0.2338
 4910TIP3    H114736   5.786   0.043   3.003 -2.2735 -1.8784  1.3193
 4910TIP3    H214737   5.870   0.006   2.882  0.3666  1.5962  1.9063
 4911TIP3   OH214738   3.302   2.921   0.036 -0.3066  0.1679 -0.3729
 4911TIP3    H114739   3.244   2.883   0.103  0.2242  0.1292  0.0706
 4911TIP3    H214740   3.264   3.006   0.016 -0.0865  0.4730  0.4852
 4912TIP3   OH214741   1.658   2.539   0.835 -0.1957  0.7143 -0.0690
 4912TIP3    H114742   1.595   2.466   0.831  0.1619  0.4489 -1.0011
 4912TIP3    H214743   1.744   2.497   0.835  0.0004  1.1039  0.5003
 4913TIP3   OH214744   5.642   4.790   2.504 -0.1775  0.3085  0.2532
 4913TIP3    H114745   5.615   4.750   2.587 -0.5206  2.6023  1.3104
 4913TIP3    H214746   5.737   4.773   2.501 -0.5819 -2.3592 -0.4292
 4914TIP3   OH214747   0.755   0.232   3.530  0.0174  0.7262  0.8146
 4914TIP3    H114748   0.815   0.157   3.528  2.0773  2.2660 -1.4974
 4914TIP3    H214749   0.802   0.298   3.582 -1.7852  0.5131  2.8638
 4915TIP3   OH214750   5.347   3.444   0.768  0.0401 -0.2606 -0.0354
 4915TIP3    H114751   5.415   3.433   0.835 -0.3534  1.1767  0.6507
 4915TIP3    H214752   5.269   3.470   0.817 -1.1726 -2.2587 -0.7590
 4916TIP3   OH214753   0.276   0.267   3.939  0.1047  0.0418 -0.3128
 4916TIP3    H114754   0.281   0.333   4.009  0.3741 -1.0553  0.7434
 4916TIP3    H214755   0.229   0.194   3.979 -0.1720 -0.4293 -1.4583
 4917TIP3   OH214756   5.593   3.245   0.568 -0.0942 -0.3291  0.7463
 4917TIP3    H114757   5.616   3.176   0.630 -0.6752 -0.5228  0.7469
 4917TIP3    H214758   5.500   3.260   0.582 -0.4624 -1.0237 -0.7228
 4918TIP3   OH214759   5.822   2.506   1.239  0.1133 -0.6903 -0.9531
 4918TIP3    H114760   5.842   2.583   1.292  0.4697 -0.3001 -1.6462
 4918TIP3    H214761   5.778   2.446   1.300 -0.9901  0.4142 -0.6433
 4919TIP3   OH214762   0.045   5.082   1.381 -0.1222  0.4112 -0.1197
 4919TIP3    H114763   0.037   5.042   1.294 -1.5511 -0.4325  0.3649
 4919TIP3    H214764   0.029   5.175   1.366  1.4344  0.5790 -1.0025
 4920TIP3   OH214765   4.839   4.023   1.706 -0.6985  0.2252 -0.1611
 4920TIP3    H114766   4.821   4.043   1.798  1.6073  1.8443  0.0361
 4920TIP3    H214767   4.866   3.932   1.705  0.5870  0.5662  1.0368
 4921TIP3   OH214768   0.019   2.412   3.502  0.2846  0.3086  0.0177
 4921TIP3    H114769  -0.010   2.435   3.590  0.8762 -0.5948  0.4655
 4921TIP3    H214770   0.084   2.478   3.480  0.3974  0.3346  0.4152
 4922TIP3   OH214771   6.338   3.118   0.883 -0.6348  0.2458  0.1567
 4922TIP3    H114772   6.363   3.174   0.810  2.1678 -1.1052 -0.0451
 4922TIP3    H214773   6.296   3.042   0.841  1.0090 -0.5482 -0.1330
 4923TIP3   OH214774   2.522   2.704   2.160  0.7757 -0.2498 -0.0481
 4923TIP3    H114775   2.561   2.791   2.154  1.7010 -0.6112  0.4663
 4923TIP3    H214776   2.556   2.668   2.242  0.9050 -1.3316 -0.5556
 4924TIP3   OH214777   4.358   5.137   0.211 -0.3614  0.7338  0.0399
 4924TIP3    H114778   4.352   5.043   0.229  0.8964 -0.1663 -3.5589
 4924TIP3    H214779   4.294   5.152   0.141  0.7384  2.1756 -0.6939
 4925TIP3   OH214780   5.230   0.336   0.499 -0.3219  0.3057  0.4561
 4925TIP3    H114781   5.187   0.256   0.469 -0.4581 -0.3939  2.4014
 4925TIP3    H214782   5.323   0.320   0.484 -0.4038  0.0715  0.1924
 4926TIP3   OH214783   3.171   4.983   3.488 -0.0666  0.1280  0.2292
 4926TIP3    H114784   3.181   5.035   3.409  0.7235  0.5636  0.6101
 4926TIP3    H214785   3.158   4.894   3.456 -3.5511  0.7668 -0.5150
 4927TIP3   OH214786   0.274   4.832   3.566 -0.2336 -0.2155  0.3137
 4927TIP3    H114787   0.247   4.817   3.476 -0.2468  1.6888 -0.0462
 4927TIP3    H214788   0.191   4.838   3.615 -0.2172 -2.5348  0.7514
 4928TIP3   OH214789   6.347   5.888   0.865  0.2256 -0.7378  0.5700
 4928TIP3    H114790   6.269   5.835   0.883  0.4814 -0.7271  1.7684
 4928TIP3    H214791   6.420   5.827   0.875  0.4085 -0.6045  0.0490
 4929TIP3   OH214792   2.637   4.823   1.865 -0.3394 -0.5051 -0.6251
 4929TIP3    H114793   2.710   4.860   1.815 -0.1327  0.5828  0.4325
 4929TIP3    H214794   2.637   4.730   1.843  0.2835 -0.2099 -1.9577
 4930TIP3   OH214795   2.196   3.081   1.025  0.1730 -0.1609 -0.0466
 4930TIP3    H114796   2.259   3.149   1.004  0.4284 -0.9866 -2.1659
 4930TIP3    H214797   2.232   3.002   0.985 -2.0305 -0.7156 -1.0566
 4931TIP3   OH214798   2.588   3.040   0.808 -0.0386 -0.0691 -0.6846
 4931TIP3    H114799   2.655   3.030   0.876 -0.2480 -1.7887 -0.6728
 4931TIP3    H214800   2.505   3.043   0.855 -0.2851 -2.4903 -0.8450
 4932TIP3   OH214801   3.679   2.799   4.835 -0.0579  0.3946 -0.2053
 4932TIP3    H114802   3.697   2.716   4.791  0.0052 -0.1127  0.7590
 4932TIP3    H214803   3.744   2.859   4.798  1.8072 -0.6926  1.1034
 4933TIP3   OH214804   4.735   4.987   4.082 -0.1004 -0.5166  0.2304
 4933TIP3    H114805   4.660   5.022   4.034  1.4179  0.6865 -1.4055
 4933TIP3    H214806   4.803   5.053   4.072  2.1688 -2.8383 -0.9842
 4934TIP3   OH214807   5.894   4.516   2.112 -0.7208 -0.8183 -0.0224
 4934TIP3    H114808   5.906   4.576   2.039 -2.1836  1.0931  1.2325
 4934TIP3    H214809   5.962   4.449   2.099  2.8186  2.4346 -0.1160
 4935TIP3   OH214810   0.038   5.511   5.026  0.0824  0.0932  0.3635
 4935TIP3    H114811   0.107   5.448   5.004  0.2457  0.3573  0.1103
 4935TIP3    H214812   0.007   5.484   5.112 -0.3069 -0.7289 -0.0239
 4936TIP3   OH214813   6.001   5.439   4.789  0.1807 -0.3333  0.0041
 4936TIP3    H114814   5.955   5.436   4.706  1.2105  0.6349 -0.6204
 4936TIP3    H214815   6.081   5.389   4.774  0.6736  0.3767  0.1986
 4937TIP3   OH214816   3.180   0.173   4.999 -0.1715 -0.0826  0.2504
 4937TIP3    H114817   3.143   0.259   5.015 -1.3415 -0.6880  0.9596
 4937TIP3    H214818   3.268   0.177   5.037  0.6579  1.4431 -1.6550
 4938TIP3   OH214819   0.813   0.750   2.694 -0.0506  0.1590  0.1878
 4938TIP3    H114820   0.794   0.672   2.643  1.6810 -0.4468  0.3950
 4938TIP3    H214821   0.906   0.767   2.679  0.5859 -0.0918  3.1131
 4939TIP3   OH214822   0.728   0.348   0.784 -0.5832  0.0997  0.5617
 4939TIP3    H114823   0.661   0.357   0.716  0.2282 -1.4047 -0.4885
 4939TIP3    H214824   0.741   0.254   0.793  2.7044  0.3010 -0.6561
 4940TIP3   OH214825   5.457   5.396   3.943  0.4779  0.2103 -0.2303
 4940TIP3    H114826   5.405   5.427   3.869  0.4577  0.5929 -0.0538
 4940TIP3    H214827   5.547   5.418   3.920  0.6252 -0.8401 -0.7360
 4941TIP3   OH214828   2.892   5.007   4.733 -0.3920  0.0679 -0.0556
 4941TIP3    H114829   2.797   5.003   4.738 -0.4537  1.7115  0.6879
 4941TIP3    H214830   2.916   4.937   4.673 -2.0477 -0.5112 -0.0834
 4942TIP3   OH214831   1.518   4.954   2.517 -0.2398 -0.3335  0.1548
 4942TIP3    H114832   1.596   4.900   2.506 -1.1121 -1.8798  1.2772
 4942TIP3    H214833   1.465   4.936   2.440  0.2888  0.4029 -0.4025
 4943TIP3   OH214834   4.438   3.097   0.956  0.1808  0.0829 -0.3533
 4943TIP3    H114835   4.431   3.002   0.965 -1.9134  0.2090 -0.2931
 4943TIP3    H214836   4.447   3.112   0.862  1.9603 -0.1964 -0.2733
 4944TIP3   OH214837   4.594   2.808   4.196  0.3706 -0.0362  0.3378
 4944TIP3    H114838   4.509   2.773   4.170  0.6757  0.7709 -1.9598
 4944TIP3    H214839   4.650   2.730   4.204  0.0081 -0.4069 -0.5804
 4945TIP3   OH214840   4.725   0.127   2.501  0.0899  0.1030 -0.0094
 4945TIP3    H114841   4.724   0.086   2.588  1.1245 -0.5991 -0.3000
 4945TIP3    H214842   4.638   0.111   2.465 -1.1684  2.4031  1.7563
 4946TIP3   OH214843   5.686   0.613   2.258  0.2967 -0.6987 -0.0684
 4946TIP3    H114844   5.758   0.669   2.288  0.1908 -1.1043  0.9811
 4946TIP3    H214845   5.610   0.670   2.257  0.5294 -0.3927 -0.6944
 4947TIP3   OH214846   0.992   0.735   1.072 -0.4404 -0.5620 -0.3621
 4947TIP3    H114847   0.995   0.651   1.026 -1.2034 -0.2229 -1.0522
 4947TIP3    H214848   0.900   0.744   1.100 -0.0339 -0.6786  1.0888
 4948TIP3   OH214849   4.036   5.461   0.632 -0.5833  0.7210 -0.3349
 4948TIP3    H114850   4.088   5.541   0.640  0.7794 -0.3142  3.2310
 4948TIP3    H214851   4.070   5.419   0.553  0.3680  2.5090 -0.9358
 4949TIP3   OH214852   2.959   4.052   1.247  0.0143 -0.7033 -0.1330
 4949TIP3    H114853   2.932   4.053   1.155  0.9177  0.6878 -0.4080
 4949TIP3    H214854   2.942   4.141   1.278 -1.5689 -1.4992  1.4717
 4950TIP3   OH214855   2.216   2.391   0.807  0.2108 -0.9888  0.2526
 4950TIP3    H114856   2.250   2.326   0.746 -0.2192 -0.9410 -0.0407
 4950TIP3    H214857   2.256   2.474   0.779 -2.1140 -0.4359 -1.7543
 4951TIP3   OH214858   5.138   2.067   2.153  0.6218 -0.1186  0.1103
 4951TIP3    H114859   5.149   2.008   2.228  2.1910 -0.4976 -0.3756
 4951TIP3    H214860   5.046   2.092   2.155  0.5566 -0.3493  1.9971
 4952TIP3   OH214861   5.809   2.581   0.974  0.0637  0.4308 -0.4578
 4952TIP3    H114862   5.848   2.510   0.923  2.0529  1.5332 -0.5485
 4952TIP3    H214863   5.818   2.552   1.065  1.9514  1.0000 -0.4122
 4953TIP3   OH214864   3.298   1.742   1.331  0.3164  0.0765  0.2662
 4953TIP3    H114865   3.257   1.663   1.296 -2.4449  1.3558  0.3572
 4953TIP3    H214866   3.370   1.760   1.271  1.1307 -2.5352  0.3207
 4954TIP3   OH214867   3.139   2.506   4.998 -0.1028 -0.0207 -0.1448
 4954TIP3    H114868   3.092   2.550   5.068 -1.7620 -0.1412 -1.1311
 4954TIP3    H214869   3.195   2.574   4.960 -1.3434  0.8033 -0.5401
 4955TIP3   OH214870   0.103   3.204   3.895 -0.3635 -0.6115  0.1644
 4955TIP3    H114871   0.098   3.228   3.802 -0.7541 -0.9041  0.1070
 4955TIP3    H214872   0.069   3.114   3.898 -1.1072 -0.3244  0.6955
 4956TIP3   OH214873   0.261   4.254   4.409  0.0764 -1.0999  0.2624
 4956TIP3    H114874   0.217   4.325   4.456  1.2357 -0.3499  0.2715
 4956TIP3    H214875   0.290   4.194   4.478  0.4279 -0.7890  0.3896
 4957TIP3   OH214876   1.496   1.630   3.528 -0.0554  0.1452 -0.6936
 4957TIP3    H114877   1.424   1.674   3.483 -0.0351  0.4886 -0.3956
 4957TIP3    H214878   1.488   1.538   3.502  0.6777  0.5236 -2.3521
 4958TIP3   OH214879   4.599   5.559   4.541 -0.4243 -0.2068 -0.1170
 4958TIP3    H114880   4.506   5.549   4.559 -0.2286 -0.6784  0.6370
 4958TIP3    H214881   4.628   5.627   4.602 -0.4516  0.5955 -0.9695
 4959TIP3   OH214882   6.281   4.718   3.856 -0.3070  0.3182  0.0474
 4959TIP3    H114883   6.232   4.637   3.847  0.5176 -0.1179 -0.7217
 4959TIP3    H214884   6.361   4.693   3.902 -0.4130  0.8567  0.5412
 4960TIP3   OH214885   4.523   1.521   1.215 -0.2102 -0.3427  0.5060
 4960TIP3    H114886   4.555   1.543   1.302 -0.8419  1.5111  0.3121
 4960TIP3    H214887   4.440   1.476   1.231 -0.5907  0.4750  0.8613
 4961TIP3   OH214888   6.270   4.965   3.365  0.2735 -0.2253 -0.2281
 4961TIP3    H114889   6.361   4.938   3.355  0.1628 -0.4994 -0.4888
 4961TIP3    H214890   6.256   5.026   3.292  0.5467  0.6166  0.4014
 4962TIP3   OH214891   4.518   2.912   0.487 -0.0045  0.1736 -0.4276
 4962TIP3    H114892   4.542   2.821   0.504  2.5816  0.4750 -1.9299
 4962TIP3    H214893   4.495   2.914   0.394 -0.4978  0.9659 -0.2968
 4963TIP3   OH214894   4.173   4.009   4.197 -0.3612 -0.2377 -0.7589
 4963TIP3    H114895   4.144   4.099   4.214  0.9447  0.1667 -0.5379
 4963TIP3    H214896   4.182   4.004   4.102  1.4478  0.5275 -0.6758
 4964TIP3   OH214897   3.040   1.901   2.332 -0.2013 -0.1448 -0.0873
 4964TIP3    H114898   2.969   1.838   2.345 -0.4746  0.3253  0.7407
 4964TIP3    H214899   2.998   1.978   2.295 -0.3091  0.5184  1.3673
 4965TIP3   OH214900   0.645   4.086   3.738 -0.1706  0.4006  0.2716
 4965TIP3    H114901   0.563   4.122   3.771  0.2568  0.2050  1.5766
 4965TIP3    H214902   0.714   4.140   3.777  0.3531  0.3267 -0.5038
 4966TIP3   OH214903   0.571   1.099   2.488  0.3926  0.6000  0.3231
 4966TIP3    H114904   0.651   1.064   2.447  0.4646  0.2449  0.7627
 4966TIP3    H214905   0.595   1.115   2.579 -0.6307 -1.5942  1.0410
 4967TIP3   OH214906   2.188   4.086   1.363 -0.2736 -0.2060  0.9334
 4967TIP3    H114907   2.281   4.064   1.353 -0.3366 -0.4815  0.9400
 4967TIP3    H214908   2.167   4.137   1.285 -0.2490 -0.5980  0.6669
 4968TIP3   OH214909   4.955   4.136   2.927  0.6259 -0.5127 -0.2889
 4968TIP3    H114910   4.991   4.128   2.838  0.1826  0.9820 -0.6242
 4968TIP3    H214911   5.007   4.206   2.967 -0.8738  0.6580 -0.2838
 4969TIP3   OH214912   3.922   1.655   0.449  0.3329 -0.2151  0.5249
 4969TIP3    H114913   3.860   1.597   0.493  0.7662 -0.1022  1.3075
 4969TIP3    H214914   3.894   1.656   0.358 -1.8202  1.0900  1.1141
 4970TIP3   OH214915   2.655   2.052   0.402  0.2809 -0.5381  0.1441
 4970TIP3    H114916   2.713   1.977   0.389  0.9950 -0.2292  1.3949
 4970TIP3    H214917   2.652   2.064   0.497  0.4423  1.2124 -0.0364
 4971TIP3   OH214918   5.101   2.987   0.245  0.0076  0.2380 -0.1285
 4971TIP3    H114919   5.110   2.951   0.156 -0.1093 -0.9733  0.3337
 4971TIP3    H214920   5.159   2.933   0.299 -1.5435 -0.4750  0.9082
 4972TIP3   OH214921   2.978   5.689   1.814 -0.4659  0.5429 -0.6325
 4972TIP3    H114922   2.901   5.701   1.870  1.0379  0.6706  1.5363
 4972TIP3    H214923   2.966   5.602   1.775 -0.1846 -0.9606  2.3561
 4973TIP3   OH214924   3.851   3.777   2.267 -0.6030 -0.6234  0.1604
 4973TIP3    H114925   3.916   3.846   2.257 -2.0810  0.6813 -0.8831
 4973TIP3    H214926   3.886   3.703   2.216  0.2782 -0.1353  0.0370
 4974TIP3   OH214927   1.798   0.758   2.100  0.1013 -0.1949 -0.3622
 4974TIP3    H114928   1.883   0.716   2.113 -0.1397 -0.9979 -1.2658
 4974TIP3    H214929   1.794   0.777   2.007 -1.6677 -2.3926 -0.8454
 4975TIP3   OH214930   3.846   2.908   2.450 -0.2686 -0.2641  0.2186
 4975TIP3    H114931   3.822   2.977   2.512  0.2910 -0.0950  0.2540
 4975TIP3    H214932   3.765   2.858   2.437 -0.7223  0.4707  0.0974
 4976TIP3   OH214933   1.138   2.351   3.739  0.0895  0.1823 -0.1943
 4976TIP3    H114934   1.174   2.316   3.820 -0.2189 -2.1845 -1.0177
 4976TIP3    H214935   1.064   2.294   3.719 -0.6776  1.5606 -1.4404
 4977TIP3   OH214936   4.108   1.979   1.093  0.2065 -0.5692 -0.2389
 4977TIP3    H114937   4.068   1.949   1.174  0.5755 -2.7374 -0.7858
 4977TIP3    H214938   4.143   2.065   1.114 -0.4864 -0.6934  1.6385
 4978TIP3   OH214939   6.192   4.109   0.429  0.2941  0.2419 -0.3034
 4978TIP3    H114940   6.259   4.166   0.468  0.2131 -0.1680  0.4559
 4978TIP3    H214941   6.117   4.167   0.415  0.5219  0.5209 -0.3812
 4979TIP3   OH214942   1.197   4.359   3.427 -0.3302  0.1728 -0.6021
 4979TIP3    H114943   1.177   4.334   3.337 -1.1467  1.6129 -0.8519
 4979TIP3    H214944   1.138   4.305   3.480 -1.2772  0.7220 -1.0642
 4980TIP3   OH214945   2.113   0.076   1.889  0.2496 -0.6421  0.4659
 4980TIP3    H114946   2.029   0.069   1.934 -0.1355 -0.2183 -0.1620
 4980TIP3    H214947   2.108   0.159   1.841  0.7816 -0.8987 -0.0551
 4981TIP3   OH214948   3.131   0.286   0.437  0.3289 -0.1201 -0.3855
 4981TIP3    H114949   3.123   0.210   0.493  0.5349  0.7051  0.7963
 4981TIP3    H214950   3.224   0.311   0.442  0.5391 -0.5352 -1.7815
 4982TIP3   OH214951   6.109   0.433   3.799 -0.2463 -0.5339 -0.6643
 4982TIP3    H114952   6.178   0.420   3.734  0.3471 -1.4646  0.1388
 4982TIP3    H214953   6.145   0.498   3.860 -1.4869  1.7466 -2.1852
 4983TIP3   OH214954   3.833   0.653   1.628  0.1072 -0.4213 -0.3039
 4983TIP3    H114955   3.809   0.743   1.648  0.1395 -0.2677 -0.9471
 4983TIP3    H214956   3.753   0.602   1.643  0.4561 -0.5253  1.4882
 4984TIP3   OH214957   1.078   4.019   4.751 -0.3009 -0.8304 -0.0362
 4984TIP3    H114958   0.995   3.971   4.743 -0.0046 -1.1852 -1.2788
 4984TIP3    H214959   1.141   3.953   4.781 -0.1563 -0.9385 -0.5603
 4985TIP3   OH214960   5.456   3.653   2.704 -0.4971 -0.4940 -0.9265
 4985TIP3    H114961   5.464   3.687   2.793  1.0542 -1.4796 -0.6424
 4985TIP3    H214962   5.436   3.729   2.651 -1.7140  0.0711  0.2792
 4986TIP3   OH214963   0.573   0.511   2.065  0.0952 -0.0011 -0.0738
 4986TIP3    H114964   0.483   0.478   2.055 -0.1305 -1.1475  3.9461
 4986TIP3    H214965   0.565   0.606   2.055 -1.9907  0.1219  1.8673
 4987TIP3   OH214966   1.164   1.990   0.694  1.1732 -0.3500 -0.4795
 4987TIP3    H114967   1.204   2.021   0.613 -0.1526  0.8294 -0.7313
 4987TIP3    H214968   1.096   2.055   0.713  2.4874  0.3495  2.4843
 4988TIP3   OH214969   5.231   5.292   4.382  0.2978 -0.0233 -0.2426
 4988TIP3    H114970   5.193   5.364   4.433  0.5446 -0.2692  0.2945
 4988TIP3    H214971   5.308   5.266   4.431 -0.6804 -1.7525  0.4600
 4989TIP3   OH214972   5.988   4.738   2.274 -0.0791  0.5640 -0.3335
 4989TIP3    H114973   5.956   4.747   2.364 -1.0876 -0.7392 -0.5226
 4989TIP3    H214974   5.953   4.654   2.245 -0.7349  1.4660 -2.3315
 4990TIP3   OH214975   2.194   3.818   4.172  0.0550  0.0062 -0.2199
 4990TIP3    H114976   2.281   3.854   4.159  0.4916 -0.6168  0.8427
 4990TIP3    H214977   2.206   3.748   4.237 -1.2589  0.0429  0.0954
 4991TIP3   OH214978   0.930   3.296   2.497  0.2118 -0.2724 -0.8931
 4991TIP3    H114979   0.893   3.225   2.443  1.7936  0.1234 -2.5766
 4991TIP3    H214980   0.913   3.268   2.587 -0.3906 -2.1347 -1.5334
 4992TIP3   OH214981   4.398   2.409   5.183  0.4938  0.4050 -0.3472
 4992TIP3    H114982   4.394   2.502   5.206 -0.4428  0.6284 -1.3032
 4992TIP3    H214983   4.403   2.409   5.087  1.2248 -0.5215 -0.3202
 4993TIP3   OH214984   4.455   5.677   2.908 -0.1120 -0.0683  0.2210
 4993TIP3    H114985   4.528   5.682   2.970 -1.0148  1.5872  1.2612
 4993TIP3    H214986   4.451   5.764   2.869 -0.3184 -0.7343 -1.3000
 4994TIP3   OH214987   4.724   1.913   4.564 -0.2823 -0.1623  0.1860
 4994TIP3    H114988   4.770   1.935   4.645 -2.4624  2.0662  0.9343
 4994TIP3    H214989   4.770   1.836   4.530  1.2639 -0.6246  3.0593
 4995TIP3   OH214990   5.509   3.034   4.432 -0.3495  0.1426 -0.4836
 4995TIP3    H114991   5.586   2.985   4.405 -0.3515 -0.7896  1.0754
 4995TIP3    H214992   5.436   2.988   4.391 -0.3281 -1.0557  0.7358
 4996TIP3   OH214993   1.176   3.341   2.413  0.4653 -0.3393  0.5896
 4996TIP3    H114994   1.203   3.254   2.384 -1.9904 -0.6645 -1.0141
 4996TIP3    H214995   1.083   3.331   2.436  0.1444  1.8126  0.4459
 4997TIP3   OH214996   0.644   1.462   1.684 -0.6364 -0.1582  0.5713
 4997TIP3    H114997   0.594   1.431   1.760 -1.3763  0.0870  0.1932
 4997TIP3    H214998   0.580   1.464   1.612  0.0523 -0.3963 -0.0650
 4998TIP3   OH214999   2.908   5.487   3.754  0.8511 -0.1778 -0.0385
 4998TIP3    H115000   2.967   5.412   3.759  0.3505 -0.5244  1.1109
 4998TIP3    H215001   2.850   5.466   3.681  0.0161 -1.4782  0.9444
 4999TIP3   OH215002   6.256   5.139   4.437  0.4044  0.1888 -0.1776
 4999TIP3    H115003   6.286   5.138   4.528  0.3188 -1.1325 -0.1344
 4999TIP3    H215004   6.319   5.194   4.391  0.0091  1.5043  0.8163
 5000TIP3   OH215005   4.555   4.994   0.875  0.1992 -0.0114 -0.4129
 5000TIP3    H115006   4.477   4.943   0.898 -0.8279  1.0208 -1.4945
 5000TIP3    H215007   4.563   4.985   0.780  0.9699  0.4952 -0.4043
 5001TIP3   OH215008   6.309   5.760   4.685 -0.0647  0.2582 -0.0168
 5001TIP3    H115009   6.399   5.745   4.712 -0.4394 -2.5771  0.0531
 5001TIP3    H215010   6.260   5.764   4.767 -0.1304  0.7579 -0.0784
 5002TIP3   OH215011   5.309   3.245   1.803  0.2206  0.1357 -0.0638
 5002TIP3    H115012   5.292   3.314   1.867 -1.7553  0.1113 -0.4775
 5002TIP3    H215013   5.399   3.258   1.776  0.8531  0.6467  2.1120
 5003TIP3   OH215014   0.468   1.202  -0.012 -0.2343 -0.2060  0.1264
 5003TIP3    H115015   0.384   1.248  -0.012  1.0342  2.2448  0.6589
 5003TIP3    H215016   0.456   1.132   0.052 -2.1860 -0.6190 -0.5988
 5004TIP3   OH215017   4.109   3.917   1.224 -0.3503 -0.2378  0.7494
 5004TIP3    H115018   4.094   4.009   1.246  0.0897 -0.1090  0.5156
 5004TIP3    H215019   4.021   3.878   1.222 -0.9960  1.0132 -2.8642
 5005TIP3   OH215020   6.088   4.279   1.645 -0.4378 -0.7765 -0.0393
 5005TIP3    H115021   6.118   4.209   1.586 -1.4443 -0.0203 -1.5071
 5005TIP3    H215022   5.996   4.291   1.624 -0.6840 -0.0851  1.3278
 5006TIP3   OH215023   5.741   5.188   2.572 -0.1853  0.5656  0.3710
 5006TIP3    H115024   5.751   5.164   2.480 -1.4467  1.4989 -0.0316
 5006TIP3    H215025   5.831   5.193   2.605  0.2463 -1.7943 -0.2351
 5007TIP3   OH215026   6.098   1.012   4.812 -0.0559 -0.0436  0.2423
 5007TIP3    H115027   6.091   1.000   4.717 -1.4821  1.4153  0.1144
 5007TIP3    H215028   6.036   0.948   4.848  0.7053 -0.8046  0.2215
 5008TIP3   OH215029   6.297   4.783   2.239 -0.4866 -0.2498 -0.2311
 5008TIP3    H115030   6.362   4.812   2.175 -0.6954  1.7863  0.4073
 5008TIP3    H215031   6.348   4.765   2.318 -0.4741 -0.6986 -0.3380
 5009TIP3   OH215032   1.854   5.509   3.616 -0.5366  0.3676  0.1571
 5009TIP3    H115033   1.803   5.477   3.542  0.0990 -0.8415  0.2186
 5009TIP3    H215034   1.941   5.526   3.580 -0.5771  1.0099  0.3582
 5010TIP3   OH215035   4.558   1.541   0.876 -0.9528 -0.1583  0.1241
 5010TIP3    H115036   4.635   1.560   0.823 -1.3704 -0.2359 -0.5228
 5010TIP3    H215037   4.569   1.449   0.901 -0.7007 -0.0904  0.2725
 5011TIP3   OH215038   6.138   5.113   0.692 -0.2698  0.0437 -0.1931
 5011TIP3    H115039   6.121   5.148   0.605  0.4291 -0.5567 -0.5945
 5011TIP3    H215040   6.226   5.076   0.686 -0.3059 -0.2286  0.6996
 5012TIP3   OH215041   4.430   4.953   1.821  0.0930 -0.6188 -0.5594
 5012TIP3    H115042   4.437   4.878   1.880  0.8546 -0.1413 -0.0151
 5012TIP3    H215043   4.519   4.966   1.789 -0.2930 -0.7901 -1.7357
 5013TIP3   OH215044   4.457   3.010   1.683 -0.2914 -0.2583  0.3580
 5013TIP3    H115045   4.498   2.959   1.613 -1.3495 -0.3303 -0.2373
 5013TIP3    H215046   4.428   3.090   1.640 -0.5533 -0.1015  0.8177
 5014TIP3   OH215047   1.270   1.704   3.370 -0.5815 -0.6493 -0.1184
 5014TIP3    H115048   1.187   1.656   3.359 -0.0208 -1.7234  0.1594
 5014TIP3    H215049   1.289   1.738   3.283 -1.4297 -0.1922 -0.1396
 5015TIP3   OH215050   6.350   3.900   3.162 -0.1773 -0.2639  0.1458
 5015TIP3    H115051   6.261   3.934   3.156 -0.5197 -1.2268 -0.3933
 5015TIP3    H215052   6.405   3.969   3.125 -0.7309  0.1987  0.1799
 5016TIP3   OH215053   1.501   4.589   0.534 -0.4370 -0.0474 -0.0786
 5016TIP3    H115054   1.478   4.674   0.497  2.4474  0.4195 -1.0195
 5016TIP3    H215055   1.433   4.530   0.502 -0.6634  1.2808 -2.2334
 5017TIP3   OH215056   1.093   0.874   4.044  0.0740  0.0149 -0.4136
 5017TIP3    H115057   1.159   0.883   3.975  0.3246 -1.5202 -0.3925
 5017TIP3    H215058   1.009   0.872   3.998  0.1747 -0.0622 -0.5933
 5018TIP3   OH215059   3.914   3.581   3.219  0.0712  0.4250  0.1212
 5018TIP3    H115060   3.855   3.542   3.154 -0.7171  1.8853 -0.0755
 5018TIP3    H215061   3.921   3.514   3.287  0.6624 -1.0132 -1.2771
 5019TIP3   OH215062   6.122   2.631   5.014 -0.0406  0.1911 -0.5297
 5019TIP3    H115063   6.040   2.663   4.976  0.1557 -1.1354 -2.1784
 5019TIP3    H215064   6.180   2.707   5.013 -0.4186  0.4900 -1.8588
 5020TIP3   OH215065   2.438   0.249   3.031  0.2533 -0.3948  0.1098
 5020TIP3    H115066   2.505   0.317   3.040 -0.4848  0.4567 -0.5508
 5020TIP3    H215067   2.359   0.288   3.070 -0.1383 -0.9294 -0.1341
 5021TIP3   OH215068   2.163   5.497   3.565 -0.3760  0.1882  0.5419
 5021TIP3    H115069   2.172   5.410   3.527 -1.9529 -0.2703  1.1758
 5021TIP3    H215070   2.199   5.488   3.654 -0.5082  0.1978  0.5960
 5022TIP3   OH215071   4.035   2.122   1.873 -0.6356  0.1447 -0.3808
 5022TIP3    H115072   3.954   2.095   1.831 -1.3961  0.9258  0.5217
 5022TIP3    H215073   4.019   2.214   1.897  1.1311  0.8460 -1.6663
 5023TIP3   OH215074   6.195   2.377   4.114 -0.3383  0.1308 -0.5117
 5023TIP3    H115075   6.178   2.293   4.071 -0.4191 -1.0972  1.7567
 5023TIP3    H215076   6.284   2.399   4.089 -0.2733 -0.7069 -1.0629
 5024TIP3   OH215077   4.170   3.391   2.816  0.7082 -0.1297  0.3494
 5024TIP3    H115078   4.249   3.442   2.833  0.4048  0.6059 -0.3923
 5024TIP3    H215079   4.106   3.455   2.787  1.1343 -1.1665 -3.4517
 5025TIP3   OH215080   2.234   3.157   3.504  0.6054 -0.0097  0.1566
 5025TIP3    H115081   2.174   3.209   3.451 -0.5433  1.5151  2.7872
 5025TIP3    H215082   2.307   3.215   3.522  0.7118 -0.3169  0.7304
 5026TIP3   OH215083   5.643   0.552   1.980 -0.0850 -0.1580  0.3774
 5026TIP3    H115084   5.660   0.582   2.070  1.9783 -1.3921  0.4532
 5026TIP3    H215085   5.691   0.470   1.972 -2.3906 -1.4731 -1.0678
 5027TIP3   OH215086   2.882   4.674   0.436 -0.1197 -0.0822 -0.3080
 5027TIP3    H115087   2.821   4.744   0.461  0.9207  0.6380  0.2904
 5027TIP3    H215088   2.879   4.613   0.509  0.0629  0.0824 -0.1619
 5028TIP3   OH215089   5.220   2.454   2.401 -0.2276 -0.0065 -0.7692
 5028TIP3    H115090   5.125   2.457   2.409 -0.0737  2.0861  1.4663
 5028TIP3    H215091   5.252   2.451   2.492  1.8683 -1.4696 -1.4704
 5029TIP3   OH215092   1.281   4.468   4.815 -0.6686 -0.0134 -0.3362
 5029TIP3    H115093   1.261   4.554   4.777  0.0803  0.8713  1.1866
 5029TIP3    H215094   1.220   4.408   4.772 -0.4079  1.0642 -2.2824
 5030TIP3   OH215095   0.027   0.071   5.001  0.1094 -0.0599 -0.1550
 5030TIP3    H115096   0.052   0.143   4.943  0.0122 -1.0742 -1.4834
 5030TIP3    H215097  -0.041   0.109   5.057  1.2441  1.3597  0.3392
 5031TIP3   OH215098   2.485   2.855   4.248 -0.0574  0.0287  0.6452
 5031TIP3    H115099   2.464   2.936   4.202  0.4125 -0.0465  0.2871
 5031TIP3    H215100   2.515   2.796   4.179 -1.0418 -0.6843  0.8038
 5032TIP3   OH215101   2.557   1.530   1.501  0.1152  0.3323  0.2839
 5032TIP3    H115102   2.504   1.537   1.581  0.7359  0.1975  0.7182
 5032TIP3    H215103   2.587   1.620   1.485 -2.0850  0.8723 -1.2820
 5033TIP3   OH215104   2.743   2.234   3.502  0.1007  0.1005 -0.0447
 5033TIP3    H115105   2.784   2.148   3.492  0.4619  0.4654 -1.9280
 5033TIP3    H215106   2.726   2.241   3.596  1.3349 -1.4459  0.3335
 5034TIP3   OH215107   5.953   4.761   4.625  0.1794  0.1818 -0.6561
 5034TIP3    H115108   5.969   4.848   4.588 -4.7737  1.7594  0.1606
 5034TIP3    H215109   5.985   4.768   4.715  1.1579  0.6059 -1.0199
 5035TIP3   OH215110   3.206   2.042   3.948 -0.3650  0.2257 -0.2096
 5035TIP3    H115111   3.236   1.998   3.869  1.8587  1.2869 -0.0270
 5035TIP3    H215112   3.286   2.069   3.993 -1.4989  3.7000  0.0682
 5036TIP3   OH215113   1.570   2.823   3.094  0.0711  0.1625  0.3407
 5036TIP3    H115114   1.646   2.872   3.126  0.7438 -0.0411 -0.8811
 5036TIP3    H215115   1.600   2.784   3.012  0.1754 -3.7110  2.0023
 5037TIP3   OH215116   0.111   3.974   2.355 -0.4869  0.3539 -0.4225
 5037TIP3    H115117   0.173   4.039   2.388  0.3119  0.3631 -1.8746
 5037TIP3    H215118   0.166   3.903   2.322 -1.2470  0.2381 -1.4876
 5038TIP3   OH215119   1.694   4.761   3.740 -0.5467  0.1085 -0.3189
 5038TIP3    H115120   1.671   4.669   3.749  0.7689 -0.2345 -0.2135
 5038TIP3    H215121   1.612   4.808   3.753 -0.8656 -0.9423  1.8937
 5039TIP3   OH215122   4.613   5.532   0.827  0.1458 -0.0407  0.0120
 5039TIP3    H115123   4.664   5.611   0.846 -0.7119  0.5852 -0.2490
 5039TIP3    H215124   4.677   5.461   0.831  1.2824  0.8479 -1.4701
 5040TIP3   OH215125   2.784   0.905   0.144 -0.3753 -0.0686  0.1713
 5040TIP3    H115126   2.827   0.822   0.164 -1.1454 -0.4323  0.3435
 5040TIP3    H215127   2.787   0.954   0.226 -0.3876 -0.1401  0.2147
 5041TIP3   OH215128   4.897   5.055   0.672 -0.3496 -0.1419  0.1592
 5041TIP3    H115129   4.962   5.124   0.682  1.4046 -1.7839  0.7598
 5041TIP3    H215130   4.860   5.044   0.760 -0.4723 -0.1143  0.1112
 5042TIP3   OH215131   0.554   3.775   1.074 -0.0332  0.5064  0.5283
 5042TIP3    H115132   0.627   3.819   1.030  0.3220 -1.6099 -1.1504
 5042TIP3    H215133   0.504   3.734   1.004  0.2087 -2.5333  1.9525
 5043TIP3   OH215134   5.892   1.611   0.182  0.7727  0.4948  0.1023
 5043TIP3    H115135   5.835   1.536   0.163  0.1050  1.3861 -1.6809
 5043TIP3    H215136   5.926   1.593   0.269 -1.0550 -0.8195  0.6268
 5044TIP3   OH215137   3.298   3.043   1.125  0.8258 -0.3384  0.3585
 5044TIP3    H115138   3.372   3.005   1.172  1.1019  0.5115  0.6151
 5044TIP3    H215139   3.225   2.983   1.143  1.5241 -1.3893 -0.2047
 5045TIP3   OH215140   3.471   5.396   2.826 -0.4301  0.1933 -0.4466
 5045TIP3    H115141   3.420   5.378   2.905  1.3413  0.4167  0.8094
 5045TIP3    H215142   3.455   5.488   2.808  0.7408  0.7107  0.9198
 5046TIP3   OH215143   0.339   0.050   4.713  0.1059 -0.2547  0.0264
 5046TIP3    H115144   0.389   0.047   4.632 -0.1709 -0.5746 -0.1358
 5046TIP3    H215145   0.271  -0.017   4.702 -0.5210  0.3574  0.1322
 5047TIP3   OH215146   5.554   5.941   2.853 -0.5772 -0.4053  0.0817
 5047TIP3    H115147   5.511   6.019   2.818  0.0235  0.9597  2.1731
 5047TIP3    H215148   5.589   5.896   2.776  2.0699  3.2084 -1.0928
 5048TIP3   OH215149   2.163   1.097   2.506 -0.1242 -0.6018 -0.1291
 5048TIP3    H115150   2.103   1.152   2.456 -0.0648  1.1794  1.6374
 5048TIP3    H215151   2.250   1.124   2.477 -0.1172 -0.7903 -0.2849
 5049TIP3   OH215152   0.193   2.081   4.312 -0.1890 -0.1070  0.1061
 5049TIP3    H115153   0.098   2.077   4.313 -0.1633 -2.2357 -0.7197
 5049TIP3    H215154   0.217   2.064   4.220  0.9903  0.4453  0.2921
 5050TIP3   OH215155   5.863   2.759   3.869  0.1183  0.0957  0.7294
 5050TIP3    H115156   5.812   2.817   3.812 -0.9516 -1.5132 -0.0060
 5050TIP3    H215157   5.802   2.732   3.937  1.0287  0.9507  1.9291
 5051TIP3   OH215158   4.771   1.789   2.978  0.0066 -0.5791 -0.4706
 5051TIP3    H115159   4.834   1.799   2.907 -0.6285 -0.5336 -1.0395
 5051TIP3    H215160   4.712   1.720   2.949 -0.6214 -0.1435 -0.2672
 5052TIP3   OH215161   6.017   1.477   3.595 -0.3077  0.1485  0.3567
 5052TIP3    H115162   6.064   1.528   3.529 -0.5473  1.3307  1.0781
 5052TIP3    H215163   5.950   1.431   3.545 -0.1691  0.6339 -0.2980
 5053TIP3   OH215164   3.309   0.579   0.357 -0.0473 -0.1743  0.5159
 5053TIP3    H115165   3.395   0.611   0.385 -0.6502  2.2763 -0.2088
 5053TIP3    H215166   3.265   0.555   0.439  0.8474 -0.2152  1.0022
 5054TIP3   OH215167   1.223   1.331   1.820 -0.6115  0.1433  0.4374
 5054TIP3    H115168   1.315   1.350   1.800 -0.1370 -1.3286  1.0669
 5054TIP3    H215169   1.186   1.304   1.736 -0.4083  0.5168  0.2264
 5055TIP3   OH215170   1.443   5.350   1.285 -0.0739 -0.5668  0.2469
 5055TIP3    H115171   1.409   5.307   1.363  0.4672 -0.4375  0.5597
 5055TIP3    H215172   1.396   5.434   1.281 -2.2872 -1.7889 -1.2360
 5056TIP3   OH215173   0.807   5.637   1.760  0.4364  0.1470  0.6224
 5056TIP3    H115174   0.824   5.727   1.734 -1.2001  0.4042  0.3756
 5056TIP3    H215175   0.797   5.641   1.855  2.8441 -0.2202  0.9582
 5057TIP3   OH215176   5.099   1.354   1.825 -0.3826 -0.1706  0.5854
 5057TIP3    H115177   5.184   1.388   1.852  0.3003 -0.8170 -0.6859
 5057TIP3    H215178   5.096   1.266   1.860 -0.7880  0.0549  1.1293
 5058TIP3   OH215179   4.878   0.128   0.192  0.1728  0.1985 -0.2812
 5058TIP3    H115180   4.909   0.112   0.103 -2.7995  1.5153 -1.7157
 5058TIP3    H215181   4.790   0.089   0.193  0.4367 -0.5150  2.4027
 5059TIP3   OH215182   0.521   5.830   1.898  0.1494  0.3512  0.0566
 5059TIP3    H115183   0.609   5.851   1.868 -0.1170  0.2858 -0.7998
 5059TIP3    H215184   0.479   5.915   1.913 -0.0517  0.4205 -0.8009
 5060TIP3   OH215185   4.625   0.238   4.243  0.1753 -0.3771  0.2106
 5060TIP3    H115186   4.672   0.177   4.186 -0.7178 -0.9609  0.0791
 5060TIP3    H215187   4.534   0.235   4.212 -0.1840 -0.1489  1.2020
 5061TIP3   OH215188   5.581   3.894   1.106  0.4021 -0.0606  0.2858
 5061TIP3    H115189   5.514   3.954   1.138 -1.0440 -1.1074 -0.6892
 5061TIP3    H215190   5.659   3.949   1.097 -0.1363  1.0694  1.9364
 5062TIP3   OH215191   3.902   1.273   1.676  0.5820 -0.9164 -0.2439
 5062TIP3    H115192   3.938   1.340   1.734 -0.1800  1.2832 -2.1482
 5062TIP3    H215193   3.848   1.218   1.734  0.5745  0.6051  1.2831
 5063TIP3   OH215194   4.935   3.805   1.340 -0.2091 -0.2698  0.6518
 5063TIP3    H115195   4.846   3.834   1.321 -0.8379 -1.9384  0.8852
 5063TIP3    H215196   4.931   3.771   1.429  0.4962 -0.9792  0.4200
 5064TIP3   OH215197   3.932   1.033   3.040 -0.2987  0.1758  0.7819
 5064TIP3    H115198   3.860   1.037   2.977  0.7822 -0.9101 -0.5671
 5064TIP3    H215199   4.011   1.033   2.987  0.6586 -0.6570  2.1400
 5065TIP3   OH215200   1.832   1.431   0.750 -0.4955  0.0243  0.1812
 5065TIP3    H115201   1.915   1.384   0.742 -0.2046  0.6398 -0.5953
 5065TIP3    H215202   1.853   1.521   0.725 -1.6437 -0.0551 -1.1831
 5066TIP3   OH215203   0.104   0.704   3.598  0.5585 -0.0941 -0.2511
 5066TIP3    H115204   0.016   0.741   3.596  0.6530  0.2523  1.1046
 5066TIP3    H215205   0.089   0.609   3.591  0.0723 -0.0523  0.1661
 5067TIP3   OH215206   1.449   5.066   0.840  0.1609  0.3827  0.0891
 5067TIP3    H115207   1.482   5.152   0.865  0.9666  0.5250 -1.3957
 5067TIP3    H215208   1.420   5.027   0.923 -1.0630  2.4075  0.6642
 5068TIP3   OH215209   0.110   4.452   3.705  0.1328  0.6128 -0.1878
 5068TIP3    H115210   0.092   4.452   3.799  1.7648  0.2134  0.1538
 5068TIP3    H215211   0.182   4.513   3.694 -0.1403  0.7729 -1.2131
 5069TIP3   OH215212   2.561   3.803   0.433 -0.4428  0.4623 -0.8253
 5069TIP3    H115213   2.605   3.842   0.358  0.1347  1.2433 -0.1017
 5069TIP3    H215214   2.523   3.722   0.400  1.5937 -0.2751 -1.4589
 5070TIP3   OH215215   2.208   5.693   4.603  0.0437 -0.5404  0.0562
 5070TIP3    H115216   2.150   5.764   4.576 -0.2739 -1.1018 -0.8036
 5070TIP3    H215217   2.295   5.720   4.574  0.2730  0.3750  1.4878
 5071TIP3   OH215218   0.966   4.648   2.710 -0.6112  0.1523 -0.0659
 5071TIP3    H115219   0.887   4.644   2.764  0.7601  1.2109  2.1463
 5071TIP3    H215220   0.995   4.739   2.716  0.7358 -0.1907 -0.8888
 5072TIP3   OH215221   2.696   0.233   3.294 -0.2800  0.2864 -0.6515
 5072TIP3    H115222   2.664   0.163   3.237 -0.0319  0.9214 -1.6051
 5072TIP3    H215223   2.655   0.312   3.261  1.8559  1.0672 -1.6651
 5073TIP3   OH215224   6.012   0.101   1.603  0.3470  0.4181  0.1330
 5073TIP3    H115225   5.973   0.185   1.578  0.2816  0.4694  0.4063
 5073TIP3    H215226   6.097   0.125   1.641 -0.4706  0.5301  2.0119
 5074TIP3   OH215227   5.049   3.571   1.467 -0.3281  0.0779  0.0134
 5074TIP3    H115228   5.060   3.559   1.373  0.7021 -1.7115  0.3279
 5074TIP3    H215229   5.133   3.548   1.505 -1.6125 -2.4514  1.6115
 5075TIP3   OH215230   1.659   0.459   3.290  0.6569 -0.5552  0.2727
 5075TIP3    H115231   1.661   0.397   3.363  0.8690 -0.6688  0.1685
 5075TIP3    H215232   1.568   0.490   3.289 -0.1098 -2.6129 -1.1359
 5076TIP3   OH215233   4.471   4.292   4.543 -0.4219 -0.2532 -0.0359
 5076TIP3    H115234   4.529   4.327   4.610 -0.6776 -1.2417  0.7211
 5076TIP3    H215235   4.388   4.279   4.587 -0.6873 -0.6150 -0.6318
 5077TIP3   OH215236   4.973   5.558   2.050 -0.2272  0.3654 -0.6624
 5077TIP3    H115237   4.989   5.511   2.131  0.1562 -1.3257 -1.6772
 5077TIP3    H215238   4.995   5.649   2.070  0.7319 -0.1693  0.8565
 5078TIP3   OH215239   4.049   0.231   1.906 -0.1100  0.6133  0.4314
 5078TIP3    H115240   4.001   0.191   1.833 -1.2766  1.4897  0.6892
 5078TIP3    H215241   4.133   0.185   1.907 -0.4846 -0.1574 -0.7799
 5079TIP3   OH215242   3.679   2.725   1.419  0.7012 -0.5935 -0.3186
 5079TIP3    H115243   3.590   2.694   1.434  0.3766  0.7196  0.7236
 5079TIP3    H215244   3.713   2.670   1.349 -1.3764 -0.3229 -1.6286
 5080TIP3   OH215245   2.695   5.963   0.805 -0.5200  0.0852  0.0583
 5080TIP3    H115246   2.639   6.021   0.856 -0.6931 -0.2052  0.1992
 5080TIP3    H215247   2.644   5.943   0.727 -0.5642 -0.0839  0.1306
 5081TIP3   OH215248   1.957   3.363   0.159  0.3689  0.2678 -0.4907
 5081TIP3    H115249   1.976   3.269   0.160  1.0900  0.4010 -1.1234
 5081TIP3    H215250   1.886   3.373   0.096 -1.1418 -0.0875  1.0610
 5082TIP3   OH215251   5.232   4.337   0.999  0.0053  0.4012 -0.1052
 5082TIP3    H115252   5.199   4.249   0.984 -1.1413  0.2382  2.6457
 5082TIP3    H215253   5.169   4.394   0.955 -0.3903 -0.0991 -0.2013
 5083TIP3   OH215254   2.817   1.295   3.930  0.7838  0.1602  0.2627
 5083TIP3    H115255   2.792   1.310   3.839 -1.5262  0.0555  0.8325
 5083TIP3    H215256   2.869   1.372   3.954 -1.5351  1.9566 -0.1410
 5084TIP3   OH215257   1.676   3.844   4.615  0.1349 -0.3959 -0.1324
 5084TIP3    H115258   1.711   3.925   4.579  0.3395 -0.3275  0.2202
 5084TIP3    H215259   1.690   3.851   4.709 -2.5338  0.5041  0.3028
 5085TIP3   OH215260   5.002   5.057   2.221 -0.4669  0.2525  0.1050
 5085TIP3    H115261   5.080   5.112   2.226  0.1793 -0.6364 -0.0817
 5085TIP3    H215262   4.947   5.087   2.293 -2.1125  4.1051 -2.3718
 5086TIP3   OH215263   5.434   3.381   2.172 -0.8377  0.1008  0.1153
 5086TIP3    H115264   5.487   3.311   2.133 -0.6647 -0.7802  1.8279
 5086TIP3    H215265   5.358   3.388   2.115 -0.6418 -1.1769 -0.3393
 5087TIP3   OH215266   1.869   5.604   0.567 -0.3351 -0.2781 -0.1917
 5087TIP3    H115267   1.887   5.551   0.489 -0.0745  0.0761 -0.3762
 5087TIP3    H215268   1.821   5.545   0.625  0.4706 -0.9103 -0.1438
 5088TIP3   OH215269   2.697   4.871   0.448 -0.0546 -0.2065  0.1717
 5088TIP3    H115270   2.611   4.848   0.484  0.4577  0.7335  2.1278
 5088TIP3    H215271   2.734   4.933   0.511  1.8797 -0.2313 -0.8587
 5089TIP3   OH215272   5.644   0.270   3.812  0.0729  0.3525  0.4685
 5089TIP3    H115273   5.694   0.296   3.890 -0.8623  3.7464  0.1279
 5089TIP3    H215274   5.574   0.214   3.846  0.9852 -0.0691  1.7184
 5090TIP3   OH215275   5.937   5.847   0.488 -0.2417 -0.0007 -0.0196
 5090TIP3    H115276   6.021   5.887   0.467  0.1940 -0.1700  1.3529
 5090TIP3    H215277   5.910   5.804   0.406  0.5296  0.8611 -0.7470
 5091TIP3   OH215278   3.362   4.044   0.409  0.2879 -0.3626  0.5504
 5091TIP3    H115279   3.428   4.104   0.373 -2.2619  1.4798 -1.4226
 5091TIP3    H215280   3.351   3.977   0.342 -0.8325  0.1636  0.1907
 5092TIP3   OH215281   5.906   5.886   3.821  0.0264  0.2668 -0.6216
 5092TIP3    H115282   5.949   5.918   3.742  1.2469  1.0711  0.3163
 5092TIP3    H215283   5.905   5.962   3.880 -2.0811  0.0782 -0.3317
 5093TIP3   OH215284   3.781   0.086   4.706 -0.0671  0.1643  0.3626
 5093TIP3    H115285   3.704   0.139   4.722  0.8167  0.8521  2.9977
 5093TIP3    H215286   3.833   0.095   4.787  1.5669 -2.2595 -0.2983
 5094TIP3   OH215287   5.298   4.184   1.914  0.2407 -0.2149  0.1659
 5094TIP3    H115288   5.258   4.128   1.980  0.2453  0.2085  0.5289
 5094TIP3    H215289   5.353   4.245   1.963  1.6963 -1.0588 -0.3468
 5095TIP3   OH215290   6.079   5.768   1.863 -0.7484 -0.2670  0.1898
 5095TIP3    H115291   6.104   5.682   1.895  0.2706 -0.2087 -0.3771
 5095TIP3    H215292   6.063   5.820   1.942  1.0654 -0.2977  0.6329
 5096TIP3   OH215293   6.100   4.022   0.828 -0.5186 -0.0782 -0.3337
 5096TIP3    H115294   6.172   4.010   0.766 -0.6709 -1.3813 -0.2788
 5096TIP3    H215295   6.056   4.102   0.799  0.5865  0.4041 -0.7234
 5097TIP3   OH215296   2.861   4.959   1.748  1.1057 -0.2155 -0.0845
 5097TIP3    H115297   2.854   4.920   1.661  2.9208  0.8163 -0.7462
 5097TIP3    H215298   2.950   4.994   1.752  0.3042  1.9210  1.2567
 5098TIP3   OH215299   0.260   3.354   1.016 -0.0004  0.1239 -0.5952
 5098TIP3    H115300   0.200   3.365   1.089  0.2019  2.3659 -0.7038
 5098TIP3    H215301   0.230   3.418   0.950  1.9654  0.7164 -0.9846
 5099TIP3   OH215302   4.400   5.934   0.247 -0.4680 -0.5666 -0.6404
 5099TIP3    H115303   4.318   5.915   0.202 -0.3057 -0.4334 -0.9901
 5099TIP3    H215304   4.457   5.970   0.180 -1.0623  2.0868  0.1650
 5100TIP3   OH215305   1.923   0.664   0.560  0.2273 -0.6673 -0.4404
 5100TIP3    H115306   1.891   0.751   0.584 -0.9165 -0.3328 -2.8525
 5100TIP3    H215307   1.850   0.624   0.512  1.3902 -2.2449 -0.9770
 5101TIP3   OH215308   0.886   5.232   3.836  0.0451 -0.3549  0.0765
 5101TIP3    H115309   0.916   5.241   3.746 -0.4639  1.7919  0.0848
 5101TIP3    H215310   0.894   5.138   3.855  1.8703 -0.5750 -1.5805
 5102TIP3   OH215311   3.661   5.633   0.386  0.3245  0.5071  0.1657
 5102TIP3    H115312   3.716   5.674   0.319 -0.4127  0.2237 -0.6358
 5102TIP3    H215313   3.572   5.641   0.352 -0.0370  0.0977  0.9851
 5103TIP3   OH215314   3.979   5.117   3.774 -0.2440 -0.2527 -0.0161
 5103TIP3    H115315   3.960   5.108   3.680  2.2983 -0.3286 -0.6067
 5103TIP3    H215316   3.893   5.117   3.816 -1.4539 -0.5515 -2.3073
 5104TIP3   OH215317   3.268   0.998   5.149 -0.6558  0.1495 -0.2608
 5104TIP3    H115318   3.358   0.990   5.182 -1.1143  0.5173  1.1628
 5104TIP3    H215319   3.268   0.947   5.068  1.0662  0.8773 -0.7763
 5105TIP3   OH215320   2.283   2.032   3.227 -0.0313  0.5931  0.3136
 5105TIP3    H115321   2.334   1.966   3.180 -0.5442 -0.2815  0.9528
 5105TIP3    H215322   2.257   2.095   3.160  1.6195  0.9074 -0.0821
 5106TIP3   OH215323   4.105   5.740   0.308 -0.3335  0.0862  0.0594
 5106TIP3    H115324   4.078   5.747   0.216 -1.3710  0.7416  0.3958
 5106TIP3    H215325   4.034   5.692   0.350  0.0988 -0.1379  0.5332
 5107TIP3   OH215326   4.509   5.452   3.328 -0.5826 -0.3108  0.6264
 5107TIP3    H115327   4.589   5.500   3.350 -0.5584  0.2006 -0.5097
 5107TIP3    H215328   4.467   5.436   3.412  1.0934 -1.2941  1.3450
 5108TIP3   OH215329   5.861   1.386   3.104  0.1666 -0.6644  0.0491
 5108TIP3    H115330   5.771   1.396   3.074  0.3585 -1.6457 -0.9487
 5108TIP3    H215331   5.912   1.382   3.023  1.1426  0.1437  0.6084
 5109TIP3   OH215332   4.584   0.878   4.648  0.7268  0.1923 -0.5557
 5109TIP3    H115333   4.577   0.871   4.553  1.4468  0.7623 -0.6561
 5109TIP3    H215334   4.499   0.914   4.675  0.5974  0.2293 -1.0015
 5110TIP3   OH215335   4.365   3.314   2.511 -0.7171 -0.2293  0.8143
 5110TIP3    H115336   4.297   3.378   2.490 -0.4731  0.3899  1.8646
 5110TIP3    H215337   4.319   3.245   2.559 -0.6821 -0.0151  1.1583
 5111TIP3   OH215338   0.162   4.077   2.834  0.0925 -0.8316 -0.3921
 5111TIP3    H115339   0.247   4.065   2.793  1.2755 -1.3357  2.0424
 5111TIP3    H215340   0.172   4.156   2.888 -1.2572 -0.4494 -0.6516
 5112TIP3   OH215341   5.892   1.282   0.315 -0.1329  0.2213 -0.5986
 5112TIP3    H115342   5.920   1.214   0.254 -0.3864 -0.6047  0.1782
 5112TIP3    H215343   5.796   1.282   0.309 -0.1055  1.1551 -1.2596
 5113TIP3   OH215344   4.655   2.639   2.877  0.2896 -0.4832 -0.6448
 5113TIP3    H115345   4.610   2.579   2.937  0.3713  1.5215  1.6049
 5113TIP3    H215346   4.715   2.688   2.934 -0.1939  2.1054 -2.1929
 5114TIP3   OH215347   2.596   2.747   0.235 -0.0783 -0.1902 -0.0000
 5114TIP3    H115348   2.547   2.698   0.169 -1.3334  2.1260 -0.9034
 5114TIP3    H215349   2.682   2.704   0.238 -0.4784 -1.2689 -2.0801
 5115TIP3   OH215350   4.618   5.585   4.134  0.5513  0.3117  0.1389
 5115TIP3    H115351   4.682   5.519   4.161  1.0421  0.6585 -0.1732
 5115TIP3    H215352   4.534   5.539   4.141  0.7711  0.0344  1.0955
 5116TIP3   OH215353   5.248   4.232   0.444 -0.5721 -0.1300  0.1733
 5116TIP3    H115354   5.209   4.193   0.522 -1.8893  0.5313 -0.1222
 5116TIP3    H215355   5.338   4.251   0.469 -0.8972 -0.1695  1.4569
 5117TIP3   OH215356   0.686   0.107   0.017  0.3723  0.4356 -0.5104
 5117TIP3    H115357   0.678   0.195   0.053 -2.3217 -0.7124  2.1321
 5117TIP3    H215358   0.744   0.061   0.078 -0.5740 -0.3406 -0.1635
 5118TIP3   OH215359   1.850   5.570   4.610  0.0118  0.0286 -0.1849
 5118TIP3    H115360   1.838   5.664   4.604  0.6609  0.3585  2.4390
 5118TIP3    H215361   1.938   5.553   4.576 -0.2975  0.2726 -1.1272
 5119TIP3   OH215362   4.902   1.528   1.066 -0.3231 -0.3259 -0.0401
 5119TIP3    H115363   4.929   1.546   1.156 -0.7293  2.4789 -0.3684
 5119TIP3    H215364   4.824   1.474   1.074 -0.2267 -0.2955  1.2835
 5120TIP3   OH215365   3.293   0.944   0.642  0.4146  0.2412 -0.1914
 5120TIP3    H115366   3.224   0.901   0.592  1.8067  2.2123 -4.3153
 5120TIP3    H215367   3.248   1.010   0.694 -1.0765 -1.5229  0.8950
 5121TIP3   OH215368   1.739   0.039   0.197  0.0133 -0.2216  0.6300
 5121TIP3    H115369   1.711  -0.021   0.128  0.6379  0.6052 -0.3839
 5121TIP3    H215370   1.820   0.001   0.230 -0.2192 -0.5539  0.8215
 5122TIP3   OH215371   2.111   4.931   0.887  0.2145  0.0067 -0.0595
 5122TIP3    H115372   2.203   4.927   0.912  0.1636 -0.1510  0.1059
 5122TIP3    H215373   2.064   4.940   0.969  0.0985  0.3620 -0.1656
 5123TIP3   OH215374   5.351   1.309   5.033 -0.7080 -0.5077  0.0877
 5123TIP3    H115375   5.438   1.295   5.069 -1.0194 -0.7427  0.7652
 5123TIP3    H215376   5.365   1.313   4.938  0.1620  0.4255  0.2426
 5124TIP3   OH215377   6.211   1.994   2.024 -0.2122  0.1330 -0.0703
 5124TIP3    H115378   6.203   2.042   1.942  1.4132  1.3181  0.4117
 5124TIP3    H215379   6.135   2.022   2.076 -1.3943 -0.8223 -1.2040
 5125TIP3   OH215380   0.645   5.072   4.448  0.2017  0.2106 -0.2029
 5125TIP3    H115381   0.704   5.005   4.485  1.0297  1.0429  0.0064
 5125TIP3    H215382   0.584   5.091   4.519  1.3512  1.2867  0.5299
 5126TIP3   OH215383  -0.005   5.983   3.864  0.0521 -0.2854 -0.0375
 5126TIP3    H115384   0.029   5.897   3.838  0.6893  0.2953 -1.2456
 5126TIP3    H215385   0.062   6.045   3.832 -2.6004  1.0535 -3.7225
 5127TIP3   OH215386   3.060   0.811   0.513  0.3320 -0.2579 -0.7403
 5127TIP3    H115387   3.088   0.723   0.538 -1.8385 -0.5133  1.1246
 5127TIP3    H215388   2.967   0.814   0.537  0.5314  2.7958  0.0301
 5128TIP3   OH215389   2.077   1.737   2.966 -0.1538 -0.5234 -0.3525
 5128TIP3    H115390   2.160   1.701   2.933  0.1263 -0.2706  0.0674
 5128TIP3    H215391   2.041   1.787   2.893 -0.6314 -1.7672 -1.0150
 5129TIP3   OH215392   2.715   1.972   3.874 -0.4534  0.1899 -0.1137
 5129TIP3    H115393   2.800   2.006   3.902 -0.6095 -0.0296  0.6390
 5129TIP3    H215394   2.733   1.881   3.849 -0.6267 -0.1150  0.8632
 5130TIP3   OH215395   2.576   2.584   0.591  0.0248 -0.0711 -0.3230
 5130TIP3    H115396   2.664   2.549   0.608  0.1161  0.3660  0.1571
 5130TIP3    H215397   2.590   2.679   0.586 -0.6766  0.1902  1.5895
 5131TIP3   OH215398   0.202   0.504   3.140  0.0893 -0.2083 -0.0186
 5131TIP3    H115399   0.178   0.596   3.129  2.5628  0.6010  0.7267
 5131TIP3    H215400   0.228   0.476   3.052  0.7498  0.2603  0.0231
 5132TIP3   OH215401   2.028   5.221   0.074  0.5892  0.0199 -0.1217
 5132TIP3    H115402   2.030   5.305   0.028  0.2134 -0.5368 -1.1908
 5132TIP3    H215403   1.950   5.227   0.131 -0.4870 -0.2540 -1.5122
 5133TIP3   OH215404   1.074   0.175   4.568 -0.0314  0.0884  0.5361
 5133TIP3    H115405   1.036   0.128   4.494  0.0515 -0.5332  0.8845
 5133TIP3    H215406   1.149   0.222   4.531  0.1363 -0.3861  0.2619
 5134TIP3   OH215407   1.078   3.969   3.162  0.1890  0.4987 -0.2244
 5134TIP3    H115408   1.047   3.926   3.082  0.1116  0.0469  0.0408
 5134TIP3    H215409   1.158   3.922   3.185  0.4183  0.8765 -0.2428
 5135TIP3   OH215410   0.192   4.688   1.365  0.4256 -0.1674  0.2886
 5135TIP3    H115411   0.148   4.759   1.411  0.1824 -0.7499  0.9804
 5135TIP3    H215412   0.279   4.722   1.346  0.3829  0.2428  0.7944
 5136TIP3   OH215413   0.669   0.083   4.342 -0.2881  0.2301  0.3274
 5136TIP3    H115414   0.746   0.059   4.290 -0.5634 -0.0695  0.0547
 5136TIP3    H215415   0.705   0.133   4.416  0.4911 -2.4379  1.8584
 5137TIP3   OH215416   0.297   5.639   1.395 -0.8507  0.0848 -0.3843
 5137TIP3    H115417   0.378   5.651   1.444  0.0690  0.4656 -1.9102
 5137TIP3    H215418   0.259   5.559   1.431 -0.3782  0.5148  1.1224
 5138TIP3   OH215419   3.653   1.465   1.135  0.6322  0.4743  0.4119
 5138TIP3    H115420   3.644   1.410   1.213  1.1548  1.1706  0.9762
 5138TIP3    H215421   3.733   1.433   1.093 -0.0787 -0.4296 -0.2831
 5139TIP3   OH215422   3.117   2.697   2.031  0.1771  0.2801 -0.4426
 5139TIP3    H115423   3.072   2.753   2.094 -1.9611 -0.0626 -1.5832
 5139TIP3    H215424   3.169   2.758   1.979 -0.7994  1.0192 -0.5882
 5140TIP3   OH215425   5.460   4.053   0.825  0.3988 -0.1907 -0.7400
 5140TIP3    H115426   5.485   3.969   0.785  0.1902 -1.1066  0.9720
 5140TIP3    H215427   5.451   4.034   0.918 -2.4157  1.0682 -0.6539
 5141TIP3   OH215428   4.746   1.065   1.720  0.4854  0.4550 -0.6139
 5141TIP3    H115429   4.748   1.155   1.752  0.0735  0.0982  0.4338
 5141TIP3    H215430   4.823   1.023   1.760 -1.2967 -0.6280  1.9070
 5142TIP3   OH215431   1.506   5.840   3.964 -0.0431  0.1813  0.1096
 5142TIP3    H115432   1.428   5.789   3.939  0.6156 -0.4696 -0.6584
 5142TIP3    H215433   1.508   5.833   4.060 -1.6684  1.3312  0.2576
 5143TIP3   OH215434   0.157   2.042   4.035  0.1203 -0.3297  0.2516
 5143TIP3    H115435   0.075   2.072   4.073  0.4288  0.7412  0.0940
 5143TIP3    H215436   0.130   1.975   3.972 -0.3723 -2.4126  2.5171
 5144TIP3   OH215437   4.348   3.177   4.832  0.0725  0.4245 -0.6153
 5144TIP3    H115438   4.412   3.234   4.789 -0.6086  1.1548 -0.6739
 5144TIP3    H215439   4.395   3.144   4.909  1.0258 -0.2562 -1.4523
 5145TIP3   OH215440   6.169   1.869   2.692  0.1208  1.3318  0.4863
 5145TIP3    H115441   6.184   1.899   2.782 -1.2643  1.5811  0.6511
 5145TIP3    H215442   6.101   1.927   2.658 -2.0334 -1.0113  0.5106
 5146TIP3   OH215443   3.962   1.312   4.196 -0.0445 -0.2230 -0.5573
 5146TIP3    H115444   4.008   1.233   4.166  0.0219 -0.2319 -0.4373
 5146TIP3    H215445   3.897   1.279   4.259  1.5606 -0.0050  1.3363
 5147TIP3   OH215446   4.267   5.171   1.815  0.0362  0.2905  0.0618
 5147TIP3    H115447   4.251   5.213   1.899  0.6462 -0.4028  0.5466
 5147TIP3    H215448   4.309   5.088   1.838 -1.1539 -0.6023 -0.8539
 5148TIP3   OH215449   0.576   5.906   3.459 -0.4439 -0.3311  0.1517
 5148TIP3    H115450   0.553   5.872   3.372  0.2150 -1.5296  0.4162
 5148TIP3    H215451   0.521   5.856   3.520 -0.0383 -0.3607  0.4971
 5149TIP3   OH215452   2.749   3.440   1.920 -0.4825 -0.3084  0.5124
 5149TIP3    H115453   2.834   3.475   1.946 -1.5618  2.1490  1.0247
 5149TIP3    H215454   2.742   3.357   1.967  0.9746  0.2050  1.7188
 5150TIP3   OH215455   3.425   1.416   0.190  0.3832  0.2849 -0.0524
 5150TIP3    H115456   3.519   1.410   0.210  0.1766 -0.3680  0.8162
 5150TIP3    H215457   3.398   1.325   0.176 -0.1428  0.4562 -0.1542
 5151TIP3   OH215458   5.728   1.475   3.874  0.0846 -0.4511  0.2228
 5151TIP3    H115459   5.811   1.505   3.912  1.3272 -1.1895 -1.7069
 5151TIP3    H215460   5.740   1.380   3.864 -1.5663 -0.7872  1.1608
 5152TIP3   OH215461   6.062   0.718   1.511  0.7065  0.8175  0.3061
 5152TIP3    H115462   6.073   0.659   1.586  1.5983  0.8194  0.1849
 5152TIP3    H215463   6.148   0.721   1.469  0.3773  1.3074 -0.3592
 5153TIP3   OH215464   5.368   0.465   4.593  0.1977 -0.7129  0.3473
 5153TIP3    H115465   5.382   0.387   4.540  1.9593  0.0678 -0.4590
 5153TIP3    H215466   5.318   0.524   4.536  0.6656 -0.4914  0.1593
 5154TIP3   OH215467   1.856   4.210   1.540  0.3428 -0.3652  0.4021
 5154TIP3    H115468   1.791   4.182   1.604 -0.7165 -0.2615 -0.5874
 5154TIP3    H215469   1.807   4.217   1.458  1.2013  1.5191 -0.0066
 5155TIP3   OH215470   2.712   3.874   0.215  0.1867 -0.3248  0.1785
 5155TIP3    H115471   2.782   3.840   0.160 -0.7707 -0.7093 -0.8401
 5155TIP3    H215472   2.633   3.864   0.162 -0.3199  2.4389  0.3059
 5156TIP3   OH215473   0.938   0.072   0.187  0.1157  0.0172 -0.1249
 5156TIP3    H115474   0.933  -0.021   0.206  1.9529 -0.1792 -0.4483
 5156TIP3    H215475   0.994   0.108   0.255 -0.0071  0.7566 -0.4023
 5157TIP3   OH215476   1.253   2.060   4.893 -0.0429 -0.5068 -0.5363
 5157TIP3    H115477   1.347   2.052   4.878 -0.3837 -0.4987 -3.2074
 5157TIP3    H215478   1.215   1.987   4.844 -1.5338  0.9502 -1.6887
 5158TIP3   OH215479   2.440   5.564   3.204  0.5062 -0.4530  0.7075
 5158TIP3    H115480   2.467   5.485   3.250  0.0727  0.1692  2.0943
 5158TIP3    H215481   2.505   5.630   3.230  0.1249 -0.0325  0.6036
 5159TIP3   OH215482   3.093   4.196   1.585 -0.4871  0.3188  0.5030
 5159TIP3    H115483   3.003   4.206   1.553 -0.3689 -0.2622 -0.0422
 5159TIP3    H215484   3.095   4.109   1.624  0.1522 -0.2020 -0.6287
 5160TIP3   OH215485   2.643   1.386   3.137 -0.1347  0.8061 -0.5544
 5160TIP3    H115486   2.586   1.309   3.134  1.4286 -0.3853 -0.8643
 5160TIP3    H215487   2.715   1.366   3.077  1.4663  1.5420  1.0149
 5161TIP3   OH215488   3.352   2.803   1.914 -0.3150 -0.4731  0.1022
 5161TIP3    H115489   3.383   2.882   1.959  0.0022 -0.6709  0.2320
 5161TIP3    H215490   3.352   2.827   1.821  0.0256 -0.4017  0.1194
 5162TIP3   OH215491   2.140   0.408   2.046 -0.3344  0.2776  0.6941
 5162TIP3    H115492   2.148   0.420   1.951  0.5625 -3.1566  0.2054
 5162TIP3    H215493   2.225   0.432   2.081 -0.4209  0.8112  0.5454
 5163TIP3   OH215494   5.390   3.475   0.508  0.0176  0.0591  0.3520
 5163TIP3    H115495   5.474   3.516   0.529  1.0640 -2.3160  1.1664
 5163TIP3    H215496   5.363   3.432   0.589 -1.9265  0.6100  0.0544
 5164TIP3   OH215497   1.707   4.069   2.605 -0.5021  0.8711  0.4480
 5164TIP3    H115498   1.762   4.094   2.530 -1.9001  1.0964 -0.5562
 5164TIP3    H215499   1.650   3.999   2.570 -1.4639  1.2756  1.1565
 5165TIP3   OH215500   2.823   0.832   3.549 -0.1894  0.1287  0.4583
 5165TIP3    H115501   2.735   0.798   3.567  0.5540 -2.4876 -0.3159
 5165TIP3    H215502   2.823   0.849   3.454  0.2589 -0.3936  0.3570
 5166TIP3   OH215503   5.089   0.165   2.307  0.3947 -0.4625  0.5293
 5166TIP3    H115504   5.036   0.221   2.250  1.2857  0.5635  0.6567
 5166TIP3    H215505   5.136   0.227   2.363 -0.4598 -1.4358  2.3987
 5167TIP3   OH215506   0.636   2.804   2.424 -0.6003 -0.3443 -0.1210
 5167TIP3    H115507   0.686   2.746   2.366  1.7672  1.6034 -0.2265
 5167TIP3    H215508   0.587   2.860   2.364  1.7441  1.5814 -0.4121
 5168TIP3   OH215509   2.543   3.272   5.069 -0.1346 -0.1092 -0.3220
 5168TIP3    H115510   2.484   3.339   5.034 -0.4387 -0.4747 -0.5106
 5168TIP3    H215511   2.628   3.316   5.074 -0.4424  0.4668  0.0781
 5169TIP3   OH215512   1.857   5.705   4.114  0.1067 -0.0732 -0.3511
 5169TIP3    H115513   1.828   5.668   4.198  0.7648 -1.7765 -0.8176
 5169TIP3    H215514   1.953   5.707   4.121  0.1031  1.3171 -0.4756
 5170TIP3   OH215515   3.817   4.568   3.307  0.5613 -0.7030 -0.2960
 5170TIP3    H115516   3.883   4.583   3.240  0.0002 -2.0752 -1.1974
 5170TIP3    H215517   3.777   4.485   3.283  1.1764 -1.8991  2.4168
 5171TIP3   OH215518   1.371   6.006   2.833 -0.0105  0.1397  0.0171
 5171TIP3    H115519   1.432   5.957   2.888  1.2072  0.9910 -0.5243
 5171TIP3    H215520   1.339   5.942   2.770  0.2521 -0.3426  0.3627
 5172TIP3   OH215521   3.483   5.711   2.154 -0.0985 -0.5463  0.4382
 5172TIP3    H115522   3.420   5.774   2.120  0.0171 -0.8583 -0.3870
 5172TIP3    H215523   3.540   5.762   2.212  0.1676  0.1729 -0.4262
 5173TIP3   OH215524   4.570   4.542   4.088  0.0289  0.2839  0.2162
 5173TIP3    H115525   4.515   4.611   4.124  0.7377  0.5706  0.7746
 5173TIP3    H215526   4.522   4.511   4.011 -0.5541  1.0244  0.2680
 5174TIP3   OH215527   5.960   1.816   1.293 -0.0196 -0.0151 -0.6618
 5174TIP3    H115528   6.051   1.845   1.292  0.7012 -2.0833  0.0719
 5174TIP3    H215529   5.964   1.725   1.322 -2.2848 -0.3216 -1.1236
 5175TIP3   OH215530   0.040   4.671   2.457 -0.0846 -0.0330 -0.1160
 5175TIP3    H115531  -0.046   4.631   2.472  0.5994 -0.7728  2.4401
 5175TIP3    H215532   0.040   4.748   2.513  0.1421  1.2766 -1.8440
 5176TIP3   OH215533   3.497   0.931   4.868  0.0490 -0.7933 -0.1619
 5176TIP3    H115534   3.403   0.943   4.875  0.0357 -1.0890  0.2393
 5176TIP3    H215535   3.510   0.884   4.786  0.0524  1.3331 -1.4472
 5177TIP3   OH215536   5.854   0.891   2.220  0.6016 -0.2638 -0.2757
 5177TIP3    H115537   5.798   0.938   2.282 -0.5085 -1.4358 -0.3594
 5177TIP3    H215538   5.856   0.947   2.142 -0.1230 -0.0282 -0.1285
 5178TIP3   OH215539   1.262   4.553   2.653 -0.0926  0.6435  0.5034
 5178TIP3    H115540   1.174   4.585   2.635  0.4445  1.4575 -0.7860
 5178TIP3    H215541   1.306   4.627   2.696  0.6899  1.1359 -1.0952
 5179TIP3   OH215542   2.625   1.395   4.811  0.1795  0.3300 -0.1521
 5179TIP3    H115543   2.711   1.376   4.848  0.4662  2.1997  0.2225
 5179TIP3    H215544   2.643   1.445   4.732 -0.5113  3.9377  1.7578
 5180TIP3   OH215545   3.232   4.547   4.964 -0.1241  0.5449 -0.3719
 5180TIP3    H115546   3.306   4.586   5.010 -0.0909  2.2795 -1.7800
 5180TIP3    H215547   3.176   4.622   4.941 -0.5172 -0.3172 -2.4322
 5181TIP3   OH215548   5.044   5.483   2.560 -0.0290 -0.3857 -0.1128
 5181TIP3    H115549   5.099   5.410   2.530  0.7536  0.3403 -0.5021
 5181TIP3    H215550   5.102   5.559   2.557 -1.0751  0.4157 -0.5388
 5182TIP3   OH215551   0.438   0.807   3.829 -0.1303  0.2418 -0.9016
 5182TIP3    H115552   0.492   0.849   3.763  1.1093 -1.2201 -0.8855
 5182TIP3    H215553   0.500   0.781   3.898 -0.9799 -0.6468 -0.4416
 5183TIP3   OH215554   2.790   1.416   4.548 -0.1153  0.3327  0.4422
 5183TIP3    H115555   2.845   1.491   4.569  0.4618 -0.1615  0.7478
 5183TIP3    H215556   2.845   1.361   4.493  0.0495 -0.6096  1.5041
 5184TIP3   OH215557   1.518   1.984   4.941 -0.1830 -0.1386 -0.1297
 5184TIP3    H115558   1.487   1.975   5.031  0.1609  1.5506  0.1942
 5184TIP3    H215559   1.564   1.902   4.922 -0.1201 -0.4410  1.2820
 5185TIP3   OH215560   5.571   3.276   1.761 -0.2761  0.4615  0.1694
 5185TIP3    H115561   5.587   3.325   1.680 -0.2809 -0.7318 -0.5771
 5185TIP3    H215562   5.627   3.199   1.754 -1.0644 -0.1944  0.8071
 5186TIP3   OH215563   3.119   1.650   5.129  0.3653 -0.3780  0.1755
 5186TIP3    H115564   3.139   1.557   5.141 -0.4519 -0.8025 -1.4530
 5186TIP3    H215565   3.054   1.670   5.197  0.3103 -1.0852  0.3325
 5187TIP3   OH215566   3.103   3.504   4.133 -0.0656  0.4692  0.3207
 5187TIP3    H115567   3.023   3.457   4.157 -0.6326  2.2899  2.2523
 5187TIP3    H215568   3.158   3.499   4.211  0.2162  2.2348  0.2680
 5188TIP3   OH215569   2.085   1.438   4.686 -0.4439  0.1519 -0.4482
 5188TIP3    H115570   2.088   1.528   4.718  0.4232  0.0564 -0.2136
 5188TIP3    H215571   2.146   1.437   4.612 -1.3018  0.0161 -1.1629
 5189TIP3   OH215572   4.085   0.591   0.874  0.0315  0.1304 -0.5618
 5189TIP3    H115573   4.078   0.646   0.953  2.6116 -1.5731  1.0133
 5189TIP3    H215574   4.009   0.534   0.878 -0.3687  0.6945  0.1809
 5190TIP3   OH215575   1.338   5.546   0.508  0.3007  0.0366 -0.1814
 5190TIP3    H115576   1.374   5.458   0.501 -0.7604 -0.4489  0.2400
 5190TIP3    H215577   1.249   5.533   0.540  0.5840  1.3399  1.2570
 5191TIP3   OH215578   2.501   3.608   3.457  0.5152  0.1165 -0.2855
 5191TIP3    H115579   2.572   3.587   3.517  1.5358  3.1687 -0.2496
 5191TIP3    H215580   2.436   3.653   3.510 -0.7857 -1.2579 -0.6351
 5192TIP3   OH215581   0.719   2.043   3.870  0.1841 -0.4634 -0.2723
 5192TIP3    H115582   0.725   2.084   3.956  0.7636 -1.1400  0.0245
 5192TIP3    H215583   0.696   2.114   3.811 -1.5425 -0.2174  0.6274
 5193TIP3   OH215584   4.531   5.137   0.403 -0.0819  0.4389  0.1716
 5193TIP3    H115585   4.487   5.099   0.479  0.4732  0.2178  0.3844
 5193TIP3    H215586   4.465   5.135   0.334 -1.4596  3.0066  1.2964
 5194TIP3   OH215587   2.614   2.132   0.667 -0.1416  0.0079  0.3544
 5194TIP3    H115588   2.625   2.192   0.741  0.8057 -0.3220  0.4985
 5194TIP3    H215589   2.542   2.075   0.694  0.3499 -0.2632  1.1397
 5195TIP3   OH215590   4.968   5.567   3.463  0.6578  0.1634  0.6660
 5195TIP3    H115591   4.979   5.662   3.454 -0.6177  0.2600 -0.0971
 5195TIP3    H215592   4.904   5.558   3.534  0.3857 -0.1127  0.3830
 5196TIP3   OH215593   4.468   1.818   0.726  0.5607 -0.5660  0.1582
 5196TIP3    H115594   4.442   1.781   0.811 -2.2074  0.1486 -0.2705
 5196TIP3    H215595   4.526   1.890   0.748  0.4464 -0.8231  1.4067
 5197TIP3   OH215596   5.253   5.084   3.349  0.0858  0.4518 -0.2193
 5197TIP3    H115597   5.195   5.040   3.288 -1.1496  0.4886  0.8937
 5197TIP3    H215598   5.306   5.014   3.387  0.0426  0.2801 -0.4755
 5198TIP3   OH215599   1.702   0.496   2.845 -0.1091 -0.6365 -0.0805
 5198TIP3    H115600   1.621   0.453   2.875  0.4526 -0.9463  1.0734
 5198TIP3    H215601   1.729   0.445   2.769 -1.0927 -0.4194 -0.5914
 5199TIP3   OH215602   2.636   0.755   4.889 -0.1791  0.1544  0.0896
 5199TIP3    H115603   2.553   0.761   4.937 -0.2446  1.3935 -0.1493
 5199TIP3    H215604   2.657   0.846   4.866  2.0987  0.0889  1.6049
 5200TIP3   OH215605   0.052   1.818   1.810  0.0804  0.6211  0.2698
 5200TIP3    H115606   0.029   1.882   1.742 -1.1672 -0.3490 -0.2645
 5200TIP3    H215607   0.088   1.744   1.761  0.3812  0.4197  0.7896
 5201TIP3   OH215608   2.761   5.716   4.506  0.6838 -0.1808 -0.2226
 5201TIP3    H115609   2.739   5.745   4.417 -2.2968  0.6932  0.6660
 5201TIP3    H215610   2.833   5.772   4.533  0.9802  0.2101 -1.7320
 5202TIP3   OH215611   6.201   2.812   1.181  0.3718  0.1868 -0.3216
 5202TIP3    H115612   6.149   2.882   1.142  1.7411  1.1368 -0.4888
 5202TIP3    H215613   6.265   2.789   1.115  0.5634 -0.5412  0.1064
 5203TIP3   OH215614   1.946   2.504   4.858 -0.2021  0.0610  0.0103
 5203TIP3    H115615   1.856   2.485   4.833  0.3745 -0.6379 -1.6658
 5203TIP3    H215616   1.996   2.427   4.831  1.2289  1.3345 -1.1396
 5204TIP3   OH215617   0.450   0.797   2.576 -0.4734 -0.6648  0.2923
 5204TIP3    H115618   0.512   0.838   2.636  0.3918  0.0924 -1.0500
 5204TIP3    H215619   0.398   0.870   2.542  1.3138 -0.5077 -2.3934
 5205TIP3   OH215620   5.407   0.643   0.359 -0.0951  0.6793  0.5318
 5205TIP3    H115621   5.358   0.684   0.288 -1.4597  0.0697  1.0834
 5205TIP3    H215622   5.451   0.569   0.318  0.4694  1.2989  0.0029
 5206TIP3   OH215623   0.826   0.838   1.451 -0.1977 -0.6082  0.6778
 5206TIP3    H115624   0.818   0.923   1.407  0.8845  0.0993  1.7649
 5206TIP3    H215625   0.738   0.800   1.446 -1.5329  1.8848  2.6395
 5207TIP3   OH215626   1.235   3.035   0.946 -0.5184  0.2592  0.4682
 5207TIP3    H115627   1.198   3.117   0.977 -1.3911  0.2138 -0.4152
 5207TIP3    H215628   1.217   2.972   1.016 -1.0390  0.5220  0.5740
 5208TIP3   OH215629   4.912   1.650   4.789 -0.0880  0.5447 -0.3196
 5208TIP3    H115630   4.830   1.667   4.743  0.3251  1.7928 -0.6314
 5208TIP3    H215631   4.977   1.642   4.720 -0.1420 -1.9531 -0.1678
 5209TIP3   OH215632   1.676   0.306   0.690 -0.0300  0.7301  0.1259
 5209TIP3    H115633   1.700   0.371   0.757 -0.4536  0.5935  0.4159
 5209TIP3    H215634   1.633   0.236   0.739  2.3559 -0.8427  0.1374
 5210TIP3   OH215635   3.291   5.763   1.725 -0.2824 -0.7946 -0.2856
 5210TIP3    H115636   3.251   5.679   1.703 -0.1524 -0.8117 -0.4573
 5210TIP3    H215637   3.357   5.741   1.790  1.0595 -1.0959 -1.7002
 5211TIP3   OH215638   4.355   4.532   0.106  0.0799  0.0378 -0.0406
 5211TIP3    H115639   4.420   4.567   0.044 -1.7249 -0.1809 -2.2048
 5211TIP3    H215640   4.282   4.504   0.050 -1.1538 -1.3515  2.1392
 5212TIP3   OH215641   1.569   3.715   0.857  0.3000 -0.1605  0.0222
 5212TIP3    H115642   1.616   3.655   0.914 -0.4951 -0.3923  0.4432
 5212TIP3    H215643   1.636   3.748   0.796  1.5416  1.3619  2.0835
 5213TIP3   OH215644   2.105   1.401   3.499  0.2456 -0.1924  0.1025
 5213TIP3    H115645   2.040   1.410   3.429 -0.0275  2.0439  0.5738
 5213TIP3    H215646   2.054   1.410   3.580  1.0483  0.9402  0.4887
 5214TIP3   OH215647   0.962   4.293   0.541  0.1462 -0.8227 -0.2799
 5214TIP3    H115648   1.045   4.314   0.584  0.4102  0.2176 -1.2719
 5214TIP3    H215649   0.981   4.296   0.448 -1.5050  1.8222 -0.6386
 5215TIP3   OH215650   2.741   0.582   4.697  0.1664  0.2127 -0.0066
 5215TIP3    H115651   2.735   0.653   4.761  0.8264  0.5014 -0.2560
 5215TIP3    H215652   2.833   0.558   4.696  0.1440  0.1342 -0.7674
 5216TIP3   OH215653   1.112   1.240   3.159  0.5144  0.3892 -0.0705
 5216TIP3    H115654   1.175   1.224   3.090 -1.2498 -2.4172 -1.2187
 5216TIP3    H215655   1.027   1.243   3.114 -0.5890 -0.4536  1.8418
 5217TIP3   OH215656   1.445   3.667   3.498  0.4055  0.9024 -0.5867
 5217TIP3    H115657   1.508   3.599   3.521  1.2183  1.7604 -0.2069
 5217TIP3    H215658   1.420   3.706   3.582 -0.9238  0.3371 -0.6948
 5218TIP3   OH215659   0.669   0.934   0.857 -0.6557 -0.0688  0.2702
 5218TIP3    H115660   0.628   1.019   0.841 -1.4964 -0.6086 -0.5638
 5218TIP3    H215661   0.763   0.951   0.849 -0.7241  1.0665  1.6095
 5219TIP3   OH215662   3.421  -0.021   4.670 -0.0786 -0.1224 -0.2463
 5219TIP3    H115663   3.384  -0.041   4.756  0.8474  0.4508  0.3130
 5219TIP3    H215664   3.465   0.063   4.683 -1.1042  0.6669 -1.6533
 5220TIP3   OH215665   5.286   5.475   3.740  0.6981  0.3655 -0.1679
 5220TIP3    H115666   5.290   5.412   3.667  0.4830  0.1669 -0.0089
 5220TIP3    H215667   5.339   5.549   3.710  0.6900  0.2453 -0.4897
 5221TIP3   OH215668   2.802   1.357   3.664  0.0648 -0.4737  0.4819
 5221TIP3    H115669   2.854   1.292   3.616  0.6552 -0.9027  1.6524
 5221TIP3    H215670   2.716   1.354   3.623  0.5018 -0.9318 -0.4386
 5222TIP3   OH215671   1.897   0.212   3.910  0.0499 -0.4164 -0.0920
 5222TIP3    H115672   1.983   0.182   3.880 -0.0257 -0.3035 -0.4360
 5222TIP3    H215673   1.855   0.246   3.830  0.2422  0.8467  0.3256
 5223TIP3   OH215674   5.191   0.687   2.757  0.0399 -0.4304  0.6105
 5223TIP3    H115675   5.201   0.606   2.807 -0.4812 -0.3283  0.8818
 5223TIP3    H215676   5.186   0.756   2.824  1.5893 -0.0355  0.3691
 5224TIP3   OH215677   0.929   2.265   4.683 -0.3304 -0.0666  0.4802
 5224TIP3    H115678   0.969   2.219   4.610  1.8782  2.0875  0.2113
 5224TIP3    H215679   0.835   2.266   4.663  0.2053  0.4763 -2.3590
 5225TIP3   OH215680   6.324   2.600   1.986  0.5359 -0.0117 -0.1888
 5225TIP3    H115681   6.384   2.551   1.930 -0.0886  0.3331 -1.1979
 5225TIP3    H215682   6.237   2.568   1.961  0.2248  0.3755  0.3724
 5226TIP3   OH215683   0.784   3.281   1.563  0.6488 -0.7361 -0.4313
 5226TIP3    H115684   0.801   3.202   1.614  0.3388  0.3218  1.3993
 5226TIP3    H215685   0.690   3.280   1.548  0.4036 -0.0030  0.9012
 5227TIP3   OH215686   4.391   4.582   5.105  0.2936 -0.0959 -0.0688
 5227TIP3    H115687   4.470   4.528   5.105  0.7957  0.6129 -0.6264
 5227TIP3    H215688   4.371   4.595   5.198  0.5534 -0.6809  0.0721
 5228TIP3   OH215689   6.322   5.417   2.809  0.3508  0.2624  0.2578
 5228TIP3    H115690   6.399   5.472   2.804 -0.4235  1.3134 -0.8615
 5228TIP3    H215691   6.328   5.373   2.894  1.8982  0.6965  0.3963
 5229TIP3   OH215692   6.051   4.174   4.426 -0.2479 -0.4095 -0.5316
 5229TIP3    H115693   6.013   4.161   4.340 -1.8962  0.1464  0.0793
 5229TIP3    H215694   5.982   4.215   4.478  1.6924  2.2452  0.1887
 5230TIP3   OH215695   3.092   4.456   3.441  0.4250  0.2875 -0.4101
 5230TIP3    H115696   3.015   4.467   3.496  0.8407 -1.4391  0.5956
 5230TIP3    H215697   3.122   4.367   3.460  1.7416  0.3523 -1.9710
 5231TIP3   OH215698   5.454   4.826   2.287  0.1201  0.4596 -0.2037
 5231TIP3    H115699   5.524   4.805   2.349 -1.7715  0.5596  2.0999
 5231TIP3    H215700   5.450   4.750   2.229  0.7758 -0.4655  0.9209
 5232TIP3   OH215701   0.059   3.332   0.611  0.4506  0.3594 -0.4357
 5232TIP3    H115702   0.134   3.331   0.552  0.2486 -0.3759 -0.6884
 5232TIP3    H215703  -0.008   3.281   0.566 -0.3930  1.4564 -0.4589
 5233TIP3   OH215704   0.182   5.121   3.808 -0.2132 -0.6624  0.1199
 5233TIP3    H115705   0.133   5.049   3.768  0.8538 -1.0392 -0.5553
 5233TIP3    H215706   0.243   5.150   3.740 -0.9384  1.2177  0.2087
 5234TIP3   OH215707   1.446   4.813   4.359  0.4112  0.3688 -0.1406
 5234TIP3    H115708   1.494   4.731   4.372 -1.1919 -0.6267 -0.2030
 5234TIP3    H215709   1.375   4.790   4.299 -1.6264  1.1620  1.8545
 5235TIP3   OH215710   5.252   1.009   2.840  0.3645 -0.3048  0.3112
 5235TIP3    H115711   5.229   1.099   2.817  0.8677 -0.2079  0.1898
 5235TIP3    H215712   5.323   1.018   2.903 -1.6820 -0.5031  2.8606
 5236TIP3   OH215713   5.891   5.445   1.679  0.0040  0.2509  0.3665
 5236TIP3    H115714   5.831   5.518   1.691  0.4719  0.7622 -0.3246
 5236TIP3    H215715   5.948   5.448   1.756  0.2584  0.8545  0.1598
 5237TIP3   OH215716   3.694   5.376   2.062 -0.2321  0.0151 -0.3335
 5237TIP3    H115717   3.745   5.314   2.011  1.3308 -1.7836  3.0763
 5237TIP3    H215718   3.607   5.336   2.067 -0.6174  0.5727 -2.0630
 5238TIP3   OH215719   4.489   0.128   1.174 -0.2498 -0.5215 -0.1232
 5238TIP3    H115720   4.428   0.202   1.181  0.1040 -0.2442  0.0471
 5238TIP3    H215721   4.436   0.057   1.138 -0.3591  0.1058 -1.2673
 5239TIP3   OH215722   3.883   0.651   4.233  0.2527  0.4135  0.0308
 5239TIP3    H115723   3.968   0.608   4.246 -0.0770 -0.7989 -1.4918
 5239TIP3    H215724   3.887   0.686   4.144  0.5254  3.7597  1.2223
 5240TIP3   OH215725   2.466   3.622   4.232 -0.0985  0.2560 -0.2381
 5240TIP3    H115726   2.506   3.685   4.293 -0.1930 -0.1702  0.2641
 5240TIP3    H215727   2.438   3.550   4.287  0.7249 -0.6021 -0.9084
 5241TIP3   OH215728   1.208   3.605   1.362 -0.3855  0.5065 -0.0434
 5241TIP3    H115729   1.239   3.664   1.293  1.3113 -0.2210  0.0666
 5241TIP3    H215730   1.285   3.587   1.415 -1.2902 -0.3477  1.0219
 5242TIP3   OH215731   5.850   2.140   4.988 -0.4861  0.0856 -0.0683
 5242TIP3    H115732   5.863   2.234   5.003 -2.1812  0.1807  0.9831
 5242TIP3    H215733   5.787   2.136   4.916 -1.9451 -0.1906  1.1963
 5243TIP3   OH215734   1.988   4.506   3.447  0.1267 -0.7787  0.4435
 5243TIP3    H115735   1.928   4.553   3.506  3.1698 -0.6102  3.7382
 5243TIP3    H215736   1.994   4.418   3.484  1.8068 -0.8130  0.1376
 5244TIP3   OH215737   0.105   2.517   3.996  0.0165 -0.4104  0.0722
 5244TIP3    H115738   0.190   2.477   3.978  0.2961 -0.2242  0.9198
 5244TIP3    H215739   0.126   2.593   4.050 -0.5855  0.3925 -0.8035
 5245TIP3   OH215740   5.359   2.207   2.328 -0.2067 -0.8255 -0.4099
 5245TIP3    H115741   5.296   2.276   2.349  0.0981  0.0317 -2.0648
 5245TIP3    H215742   5.311   2.146   2.272  0.4689  0.0489 -2.0277
 5246TIP3   OH215743   5.339   1.635   1.745  0.2169 -0.0819 -0.8540
 5246TIP3    H115744   5.366   1.613   1.656  2.0945 -2.0273  0.1152
 5246TIP3    H215745   5.385   1.572   1.800  1.0575  2.5724  1.7140
 5247TIP3   OH215746   4.844   1.280   1.467  0.4990  0.2843 -0.6725
 5247TIP3    H115747   4.836   1.185   1.469 -0.9825  0.3217  2.6683
 5247TIP3    H215748   4.753   1.311   1.464  0.7724  1.4672  1.2146
 5248TIP3   OH215749   0.506   1.444   4.621  0.4006 -0.0545 -0.1200
 5248TIP3    H115750   0.483   1.537   4.622  1.7559  0.3133 -1.0100
 5248TIP3    H215751   0.448   1.406   4.555  1.6235  0.6979 -1.7024
 5249TIP3   OH215752   5.377   4.529   4.901 -0.2012  0.0026  0.6244
 5249TIP3    H115753   5.397   4.516   4.808 -0.5404  0.4307  0.4866
 5249TIP3    H215754   5.394   4.444   4.941 -0.4438 -0.3043  0.0945
 5250TIP3   OH215755   0.364   3.689   0.594  0.9110  0.0442  0.4112
 5250TIP3    H115756   0.306   3.614   0.590  2.1625 -1.0163  1.2257
 5250TIP3    H215757   0.345   3.739   0.515  0.5906 -1.5526 -0.5487
 5251TIP3   OH215758   4.354   5.861   3.499  0.2558  0.1576  0.4628
 5251TIP3    H115759   4.343   5.868   3.404 -2.0092 -0.5814  0.6293
 5251TIP3    H215760   4.304   5.934   3.535  1.1112  0.4456  1.1071
 5252TIP3   OH215761   0.294   3.145   5.114  0.0557  1.2868  0.8309
 5252TIP3    H115762   0.280   3.118   5.023 -1.1189 -1.4149  1.6911
 5252TIP3    H215763   0.214   3.193   5.137 -0.4915  0.3761  0.9102
 5253TIP3   OH215764   0.105   6.007   4.182  0.6958  0.0876  0.0967
 5253TIP3    H115765   0.067   5.989   4.268 -0.1178  1.2887  0.0176
 5253TIP3    H215766   0.147   5.925   4.156  0.2739 -0.5257  1.2914
 5254TIP3   OH215767   1.773   5.690   1.335 -0.2389 -0.2785  0.4426
 5254TIP3    H115768   1.705   5.630   1.303 -0.6877  1.0565 -1.2672
 5254TIP3    H215769   1.855   5.645   1.314 -0.5638 -1.0077  0.6861
 5255TIP3   OH215770   5.751   2.210   0.684 -0.1289 -0.3247 -0.6733
 5255TIP3    H115771   5.746   2.144   0.615 -0.2432 -0.1149 -0.8687
 5255TIP3    H215772   5.673   2.264   0.671  0.5255  0.5244 -1.2123
 5256TIP3   OH215773   2.846   5.086   0.606  0.3093  0.0864  0.1130
 5256TIP3    H115774   2.843   5.122   0.695 -0.7037 -0.7603  0.4339
 5256TIP3    H215775   2.881   5.158   0.553  1.2699  0.4836  1.2411
 5257TIP3   OH215776   4.064   0.097   3.881  0.3998  0.4597  0.6016
 5257TIP3    H115777   3.995   0.030   3.887  1.7407 -1.4122 -2.3337
 5257TIP3    H215778   4.048   0.154   3.956 -1.9691 -2.0833  2.2650
 5258TIP3   OH215779   2.964   4.648   2.776 -0.0356  0.7089 -0.1581
 5258TIP3    H115780   2.880   4.617   2.743 -2.3449  2.3644  3.4893
 5258TIP3    H215781   3.010   4.569   2.802 -0.1379 -0.2686 -2.6682
 5259TIP3   OH215782   0.392   3.768   5.035 -0.4383 -0.4053  0.6573
 5259TIP3    H115783   0.387   3.674   5.018  2.7793 -0.4550 -0.6892
 5259TIP3    H215784   0.393   3.808   4.948  1.6551  0.5386  1.0512
 5260TIP3   OH215785   1.315   2.545   2.252  0.0924  0.7207 -0.5806
 5260TIP3    H115786   1.401   2.530   2.290  0.1674  0.0558 -0.9998
 5260TIP3    H215787   1.306   2.477   2.185 -1.0717  0.2837 -0.0074
 5261TIP3   OH215788   2.961   3.143   1.307 -0.3826  0.1457 -0.1627
 5261TIP3    H115789   2.944   3.205   1.235  0.9856  0.2910 -0.4091
 5261TIP3    H215790   3.032   3.184   1.357 -1.0567 -0.1392  1.0602
 5262TIP3   OH215791   1.284   1.573   0.359  0.0245  0.4987 -0.0819
 5262TIP3    H115792   1.347   1.521   0.410 -2.1260 -0.0150  2.2265
 5262TIP3    H215793   1.243   1.631   0.423 -2.0916  0.5773 -1.4187
 5263TIP3   OH215794   0.326   1.564   2.133 -0.1060 -0.0236 -0.7271
 5263TIP3    H115795   0.334   1.565   2.229 -1.0849  1.7897 -0.6188
 5263TIP3    H215796   0.259   1.630   2.114  1.9605  1.6596 -2.8087
 5264TIP3   OH215797   3.648   2.441   2.168  0.3312 -0.2373  0.0790
 5264TIP3    H115798   3.689   2.507   2.224 -1.4318  0.0078  1.1379
 5264TIP3    H215799   3.630   2.487   2.086  0.0700  0.3006  0.4338
 5265TIP3   OH215800   1.637   3.311   2.985 -0.1219 -0.1063  0.2643
 5265TIP3    H115801   1.648   3.271   3.072 -0.5289 -0.1950  0.2773
 5265TIP3    H215802   1.582   3.387   3.001  1.5216  1.1013  0.4085
 5266TIP3   OH215803   3.084   3.804   4.134  0.2295  0.2271  0.1364
 5266TIP3    H115804   3.120   3.715   4.136 -0.6291 -0.1517 -0.3644
 5266TIP3    H215805   3.011   3.798   4.072  0.2880  1.3338 -0.0496
 5267TIP3   OH215806   3.874   4.728   3.756  0.3391  0.2375  0.1668
 5267TIP3    H115807   3.934   4.796   3.726 -0.0381 -0.1649 -1.6042
 5267TIP3    H215808   3.887   4.656   3.694 -2.0333  0.1778 -0.3264
 5268TIP3   OH215809   2.644   3.412   1.628  0.6232 -0.1663 -0.0028
 5268TIP3    H115810   2.600   3.377   1.706  1.1292 -0.8057 -0.0007
 5268TIP3    H215811   2.661   3.504   1.649 -0.1774 -0.0624  0.2283
 5269TIP3   OH215812   4.763   0.608   0.565 -0.8472 -0.5873  0.4398
 5269TIP3    H115813   4.710   0.647   0.496  0.5861 -0.0303 -0.3927
 5269TIP3    H215814   4.853   0.615   0.533 -0.2365 -1.2941  1.8989
 5270TIP3   OH215815   0.166   0.220   0.950 -0.4383 -0.1056 -0.1048
 5270TIP3    H115816   0.225   0.282   0.992  0.0306 -0.3720 -0.3544
 5270TIP3    H215817   0.096   0.273   0.913 -0.5448  0.1815  0.5054
 5271TIP3   OH215818   1.989   3.760   5.081 -0.5656  0.0609 -0.3218
 5271TIP3    H115819   2.018   3.744   4.991 -1.6540  0.3466 -0.7408
 5271TIP3    H215820   2.056   3.817   5.118 -0.2022  0.0934 -1.0104
 5272TIP3   OH215821   0.083   3.474   5.047 -0.4872 -0.0447 -0.4255
 5272TIP3    H115822   0.065   3.567   5.031 -0.2054  0.4313  1.6507
 5272TIP3    H215823   0.178   3.469   5.055 -0.5968  0.0269  1.8611
 5273TIP3   OH215824   1.201   3.743   2.758 -0.0301 -0.2052  0.1041
 5273TIP3    H115825   1.295   3.724   2.762  0.0856 -0.1572 -1.6790
 5273TIP3    H215826   1.193   3.814   2.694 -1.1152  1.2294  1.7162
 5274TIP3   OH215827   4.160   0.290   4.316  0.2355  0.0519  0.0853
 5274TIP3    H115828   4.122   0.238   4.387  0.2269  0.1339  0.1416
 5274TIP3    H215829   4.228   0.234   4.279 -1.4889 -1.0720 -1.5850
 5275TIP3   OH215830   4.394   1.753   0.064  0.0502 -0.5478 -0.2362
 5275TIP3    H115831   4.391   1.716   0.153 -0.3207 -0.9775 -0.4215
 5275TIP3    H215832   4.319   1.813   0.061  0.5169  0.0527 -0.0110
 5276TIP3   OH215833   3.306   1.566   4.295 -0.0506  0.9094  0.4755
 5276TIP3    H115834   3.312   1.542   4.203 -2.9507 -0.1015  0.4656
 5276TIP3    H215835   3.270   1.655   4.294  1.6822  1.6479  0.6581
 5277TIP3   OH215836   3.899   0.157   0.988  0.0422 -0.2089 -0.3475
 5277TIP3    H115837   3.989   0.146   0.958  0.7818  0.1996  1.5487
 5277TIP3    H215838   3.882   0.078   1.041 -0.0803  0.5187  0.7215
 5278TIP3   OH215839   0.706   5.161   2.471 -0.0459 -0.1012 -0.0777
 5278TIP3    H115840   0.625   5.187   2.428  0.2960  0.6991 -0.2656
 5278TIP3    H215841   0.769   5.150   2.399  0.2696  0.2632  0.1376
 5279TIP3   OH215842   5.697   3.731   2.007 -0.0406  0.2087  0.1506
 5279TIP3    H115843   5.706   3.638   2.030  0.2446 -0.3096 -1.8910
 5279TIP3    H215844   5.604   3.743   1.990 -0.4291  0.8473  2.3811
 5280TIP3   OH215845   1.991   1.223   2.339  0.5528  0.4732  0.0982
 5280TIP3    H115846   2.025   1.253   2.255  2.0208  0.4250  0.6438
 5280TIP3    H215847   1.944   1.298   2.375  0.8950  0.8560 -0.2557
 5281TIP3   OH215848   1.553   1.752   1.483 -0.2461 -0.8635  0.1921
 5281TIP3    H115849   1.468   1.719   1.455 -0.4761 -1.0943  1.1276
 5281TIP3    H215850   1.612   1.728   1.412 -1.1778  0.4648 -1.0876
 5282TIP3   OH215851   5.759   3.331   1.550 -0.1869  0.6042  0.3896
 5282TIP3    H115852   5.799   3.309   1.465 -1.4189  0.9496 -0.2957
 5282TIP3    H215853   5.831   3.320   1.613  0.5129 -0.6005 -0.5532
 5283TIP3   OH215854   6.054   2.468   0.735 -0.1135 -0.5543 -0.0217
 5283TIP3    H115855   6.140   2.500   0.762  0.3834 -1.9823  0.1800
 5283TIP3    H215856   6.029   2.405   0.803 -0.9170 -0.8161 -0.5419
 5284TIP3   OH215857   1.833   2.042   4.500 -0.0521 -0.0127  0.0121
 5284TIP3    H115858   1.804   1.972   4.559 -0.9413 -1.1721 -1.6942
 5284TIP3    H215859   1.899   2.000   4.445  0.5234  0.9518 -0.0487
 5285TIP3   OH215860   3.505   0.761   5.069 -0.4251 -0.2879 -0.1635
 5285TIP3    H115861   3.502   0.812   4.988 -1.9533  0.5732  0.3944
 5285TIP3    H215862   3.499   0.827   5.138 -0.0430 -1.0805  0.6320
 5286TIP3   OH215863   4.024   5.413   3.344  0.1618  0.5940 -0.4009
 5286TIP3    H115864   4.088   5.434   3.412 -0.3055  1.1251 -0.1146
 5286TIP3    H215865   4.054   5.330   3.308 -0.0214 -0.1168  1.0130
 5287TIP3   OH215866   0.345   3.192   2.267 -0.0751  0.2460 -0.2341
 5287TIP3    H115867   0.332   3.139   2.188  0.3547  1.4971 -1.1800
 5287TIP3    H215868   0.298   3.144   2.336 -1.5867 -0.2205 -1.5131
 5288TIP3   OH215869   5.078   2.027   1.291  0.1670 -0.5365  0.5767
 5288TIP3    H115870   5.065   1.932   1.290  0.4620 -0.6418 -2.6315
 5288TIP3    H215871   5.014   2.061   1.228  1.7855  1.0757 -0.2941
 5289TIP3   OH215872   0.324   0.025   1.344 -0.3885  0.4709  0.3429
 5289TIP3    H115873   0.363  -0.061   1.330  0.1420  0.2276  2.8395
 5289TIP3    H215874   0.385   0.086   1.303 -1.5719 -0.3146 -2.9009
 5290TIP3   OH215875   2.132   4.882   3.440  0.3480  0.1492  0.3516
 5290TIP3    H115876   2.096   4.830   3.511  2.2798 -1.0881  0.4894
 5290TIP3    H215877   2.097   4.970   3.455 -1.6949 -0.7189  1.0405
 5291TIP3   OH215878   2.843   3.393   4.166  0.2108  0.7912 -0.2100
 5291TIP3    H115879   2.795   3.357   4.241  0.6393  0.7086  0.0298
 5291TIP3    H215880   2.784   3.381   4.092  0.2767 -0.2520 -0.1088
 5292TIP3   OH215881   5.455   1.824   4.608 -0.2504  0.0720 -0.5847
 5292TIP3    H115882   5.547   1.842   4.627 -0.8293 -0.6201  4.1965
 5292TIP3    H215883   5.455   1.735   4.572  0.9444 -1.2148  2.2551
 5293TIP3   OH215884   1.445   4.859   3.443 -0.0971  0.0729  0.3255
 5293TIP3    H115885   1.515   4.800   3.414 -0.1260  0.0418  0.3190
 5293TIP3    H215886   1.365   4.807   3.435  0.1305 -0.7659  2.7307
 5294TIP3   OH215887   2.188   1.901   2.065  0.2778 -0.1965  0.4382
 5294TIP3    H115888   2.155   1.912   2.155  0.3567 -1.4895  0.6400
 5294TIP3    H215889   2.217   1.989   2.040 -3.0612  1.0282  0.3387
 5295TIP3   OH215890   1.304   0.478   1.642  0.1019  0.4728 -0.1726
 5295TIP3    H115891   1.399   0.480   1.626  0.3610  0.4416  1.2257
 5295TIP3    H215892   1.295   0.428   1.724 -1.2774 -1.1383 -1.2415
 5296TIP3   OH215893   2.491   1.390   1.260  0.5232 -0.0312  1.0534
 5296TIP3    H115894   2.484   1.462   1.323  1.6010 -0.0207  1.1766
 5296TIP3    H215895   2.553   1.422   1.195  2.0443 -1.3393  1.8113
 5297TIP3   OH215896   6.214   5.080   2.739  0.5610  0.9712 -0.1893
 5297TIP3    H115897   6.233   5.109   2.828 -1.3177 -2.0795  1.3852
 5297TIP3    H215898   6.289   5.026   2.715  0.2475  0.3003  0.3205
 5298TIP3   OH215899   3.925   0.837   4.425  0.1448 -0.5581 -0.8718
 5298TIP3    H115900   3.870   0.896   4.373  2.4995 -0.0265 -2.9378
 5298TIP3    H215901   3.917   0.752   4.382 -1.6699 -1.3861  0.9198
 5299TIP3   OH215902   3.701   5.782   0.611 -0.3281 -0.4529 -0.0631
 5299TIP3    H115903   3.684   5.743   0.525  0.5769  1.5842 -1.2158
 5299TIP3    H215904   3.676   5.713   0.673 -1.4202 -1.8277 -1.9155
 5300TIP3   OH215905   1.677   3.964   0.208  0.3995 -0.1014  0.3858
 5300TIP3    H115906   1.708   3.992   0.122  0.4327 -0.1083  0.3954
 5300TIP3    H215907   1.748   3.987   0.268 -0.1901  1.1762  0.6239
 5301TIP3   OH215908   4.609   0.707   0.354  0.1209  0.6799  0.0245
 5301TIP3    H115909   4.535   0.681   0.298  0.8485  0.9679 -1.1153
 5301TIP3    H215910   4.610   0.803   0.348  0.9482  0.6485 -0.4741
 5302TIP3   OH215911   6.033   4.587   3.246  0.9468  0.2020  0.7369
 5302TIP3    H115912   6.127   4.572   3.238  0.9438 -0.0541  1.1685
 5302TIP3    H215913   6.021   4.620   3.335  0.9900  3.0659 -0.1980
 5303TIP3   OH215914   2.520   4.109   4.829 -0.2585  0.2314 -0.4189
 5303TIP3    H115915   2.600   4.159   4.848 -0.1689  0.0061 -0.2038
 5303TIP3    H215916   2.461   4.173   4.790 -0.3363  0.6361  0.3396
 5304TIP3   OH215917   5.888   4.906   3.714  0.0428 -0.2189  0.6002
 5304TIP3    H115918   5.807   4.887   3.667 -0.3459 -0.8760  1.5163
 5304TIP3    H215919   5.956   4.902   3.646 -0.4890 -1.2483  0.1048
 5305TIP3   OH215920   4.960   1.693   3.730 -0.2529 -0.3359 -0.1990
 5305TIP3    H115921   4.971   1.621   3.793 -0.2156 -1.4735 -1.4753
 5305TIP3    H215922   4.914   1.761   3.780 -0.6415 -1.3874  0.9224
 5306TIP3   OH215923   4.620   0.797   1.685  0.1507  0.3474 -0.1299
 5306TIP3    H115924   4.628   0.841   1.600 -1.6172  0.1552 -0.4451
 5306TIP3    H215925   4.574   0.860   1.740  0.3229  0.0551  0.3481
 5307TIP3   OH215926   4.432   4.261   1.401  0.1179  0.4285 -0.2202
 5307TIP3    H115927   4.473   4.341   1.435  1.7697  0.7581 -2.7485
 5307TIP3    H215928   4.447   4.195   1.469  2.1057  1.3498  0.2928
 5308TIP3   OH215929   6.158   5.625   0.144  0.1334  0.6815 -0.2806
 5308TIP3    H115930   6.253   5.635   0.131  0.7889 -3.9604 -1.0066
 5308TIP3    H215931   6.124   5.608   0.056 -1.1053  0.7744  0.1730
 5309TIP3   OH215932   3.506   2.329   1.865 -0.0552 -0.4592  0.6625
 5309TIP3    H115933   3.447   2.354   1.936  1.2811 -0.1458  1.7199
 5309TIP3    H215934   3.499   2.400   1.801  0.5290  0.5122  1.6452
 5310TIP3   OH215935   2.575   5.410   0.466  0.3108  0.6469  0.3443
 5310TIP3    H115936   2.669   5.409   0.483  0.2500 -0.6000  0.7289
 5310TIP3    H215937   2.559   5.331   0.415 -0.5444  0.8193  0.3273
 5311TIP3   OH215938   2.212   5.468   2.744  0.2061 -0.2725 -0.2585
 5311TIP3    H115939   2.303   5.438   2.733  0.4147  0.5696 -0.9874
 5311TIP3    H215940   2.221   5.561   2.768 -0.4362 -0.5516  1.1793
 5312TIP3   OH215941   3.317   0.984   3.278  0.0088  0.3449  0.7843
 5312TIP3    H115942   3.401   1.028   3.281  0.3116 -0.2541  1.4351
 5312TIP3    H215943   3.324   0.914   3.343 -0.5312 -0.5177 -0.0507
 5313TIP3   OH215944   1.838   2.847   0.510  0.0139 -0.0702  0.4056
 5313TIP3    H115945   1.860   2.894   0.591 -0.7903  1.2699 -0.1298
 5313TIP3    H215946   1.757   2.801   0.530  0.3264 -0.5196  0.6529
 5314TIP3   OH215947   3.141   5.015   2.836  0.2308  0.4201  0.6650
 5314TIP3    H115948   3.162   4.958   2.762  0.8266  1.3596  0.0933
 5314TIP3    H215949   3.203   4.989   2.904 -1.0791 -1.2672  1.3177
 5315TIP3   OH215950   3.007   5.131   4.968  0.3268 -0.1026  0.7099
 5315TIP3    H115951   3.008   5.129   4.872  0.6641  0.2643  0.7037
 5315TIP3    H215952   3.069   5.063   4.994  1.1938  0.6409  0.6481
 5316TIP3   OH215953   1.191   3.142   4.296 -0.2181 -0.4875  0.8532
 5316TIP3    H115954   1.211   3.157   4.203 -0.4061  0.8899  1.0194
 5316TIP3    H215955   1.277   3.144   4.339 -0.2153 -0.1998  0.8327
 5317TIP3   OH215956   1.570   2.513   1.205  0.6220 -0.1066  0.3976
 5317TIP3    H115957   1.652   2.501   1.156  1.6059  0.6853  1.7863
 5317TIP3    H215958   1.501   2.503   1.139  1.7712 -1.9213 -0.5953
 5318TIP3   OH215959   4.706   5.028   1.785  0.3288  1.0325 -0.2890
 5318TIP3    H115960   4.688   5.064   1.871 -1.2011 -0.0412 -0.1276
 5318TIP3    H215961   4.681   5.097   1.723  0.8277  1.5596  0.0879
 5319TIP3   OH215962   0.617   3.663   2.723 -0.2239 -0.2390  0.1490
 5319TIP3    H115963   0.623   3.695   2.633 -0.4282  0.2274  0.3007
 5319TIP3    H215964   0.663   3.728   2.775 -0.1761 -0.4675  0.3945
 5320TIP3   OH215965   0.186   1.478   4.717  0.6227 -0.6239 -0.1691
 5320TIP3    H115966   0.168   1.570   4.734  1.3663 -0.7164  1.2383
 5320TIP3    H215967   0.231   1.447   4.795 -0.4652 -2.4445 -0.2127
 5321TIP3   OH215968   0.080   5.940   5.150 -0.2583 -0.5786 -0.0978
 5321TIP3    H115969   0.081   6.029   5.116 -0.0948 -1.5110 -2.7595
 5321TIP3    H215970  -0.012   5.913   5.145 -0.3739 -0.4824  1.0673
 5322TIP3   OH215971   5.860   0.736   4.053 -0.2518 -0.4235  0.0459
 5322TIP3    H115972   5.912   0.675   4.105  0.6889 -1.5788 -2.0872
 5322TIP3    H215973   5.812   0.680   3.992  0.3740  0.8856 -1.7604
 5323TIP3   OH215974   2.529   0.987   0.039  0.2878 -0.8308 -0.4146
 5323TIP3    H115975   2.609   0.936   0.053 -0.0518 -0.9395  1.3638
 5323TIP3    H215976   2.520   1.039   0.118 -1.7175 -1.2453 -0.3223
 5324TIP3   OH215977   2.367   4.247   2.015 -0.4374  0.2339 -0.2418
 5324TIP3    H115978   2.291   4.265   1.959  1.2679  5.6023 -1.4304
 5324TIP3    H215979   2.342   4.282   2.100 -0.2067 -0.4116  0.0908
 5325TIP3   OH215980   1.843   3.735   3.459  0.8087  0.1869 -0.3635
 5325TIP3    H115981   1.928   3.700   3.487  1.6398  1.4799 -1.1658
 5325TIP3    H215982   1.798   3.660   3.421  2.0025 -0.3271 -0.8219
 5326TIP3   OH215983   4.714   5.813   2.116  0.7345  0.2386 -0.4637
 5326TIP3    H115984   4.700   5.748   2.047  1.8003 -2.3719  1.6039
 5326TIP3    H215985   4.799   5.791   2.153  0.2728  1.6262  1.5908
 5327TIP3   OH215986   0.185   4.661   1.742 -0.4097  0.4260 -0.2669
 5327TIP3    H115987   0.112   4.714   1.774 -0.4664  0.2423 -0.0853
 5327TIP3    H215988   0.260   4.687   1.796 -0.9806 -1.4473  1.6072
 5328TIP3   OH215989   2.320   5.323   0.068  0.7423  0.3723  0.2569
 5328TIP3    H115990   2.247   5.323   0.131  1.4464 -0.9205  1.1264
 5328TIP3    H215991   2.310   5.240   0.020 -0.7277  2.0273 -2.5534
 5329TIP3   OH215992   5.466   0.348   4.822  0.0654  0.2132  0.5553
 5329TIP3    H115993   5.430   0.394   4.746 -0.7131  1.1976  1.4909
 5329TIP3    H215994   5.400   0.283   4.844 -0.4558  0.9975  1.3461
 5330TIP3   OH215995   1.003   4.106   0.858  0.0803  0.1749  0.4758
 5330TIP3    H115996   1.049   4.097   0.775 -0.9825 -1.6534  0.0241
 5330TIP3    H215997   1.060   4.061   0.921 -0.5077 -1.1483  0.1145
 5331TIP3   OH215998   5.545   2.182   4.566  0.3616 -0.7434  0.0756
 5331TIP3    H115999   5.567   2.238   4.491  1.2957 -0.3677  0.6056
 5331TIP3    H216000   5.454   2.158   4.552  0.2084  0.1750 -0.6403
 5332TIP3   OH216001   4.704   0.193   2.970 -0.9892  0.2358 -0.1861
 5332TIP3    H116002   4.628   0.146   2.939 -2.9531  2.8732  0.2752
 5332TIP3    H216003   4.714   0.267   2.910 -0.7344  1.6410  1.4725
 5333TIP3   OH216004   2.998   0.870   4.489 -0.2990 -0.2952 -0.1849
 5333TIP3    H116005   3.017   0.941   4.427  0.2822  0.2653  0.6218
 5333TIP3    H216006   3.007   0.790   4.437  2.6112 -0.0021 -0.3080
 5334TIP3   OH216007   5.327   2.638   4.905  0.1013 -0.3655 -0.7778
 5334TIP3    H116008   5.244   2.630   4.859 -0.3008  0.6213 -0.2498
 5334TIP3    H216009   5.393   2.618   4.839 -0.5182 -0.2968 -1.4252
 5335TIP3   OH216010   2.800   3.155   3.287  0.0014 -0.1843 -0.3207
 5335TIP3    H116011   2.808   3.161   3.192  3.4370  0.1887 -0.1563
 5335TIP3    H216012   2.772   3.242   3.315  2.0566  0.7170 -0.8839
 5336TIP3   OH216013   4.516   1.616   5.034 -0.8381 -0.0293 -0.6900
 5336TIP3    H116014   4.479   1.703   5.041  0.4059  0.5487 -0.9968
 5336TIP3    H216015   4.492   1.572   5.116  0.2726  1.3077  0.4016
 5337TIP3   OH216016   2.117   1.914   2.330  0.1485  0.1980 -0.2235
 5337TIP3    H116017   2.168   1.876   2.401  0.3432 -1.5066 -1.2380
 5337TIP3    H216018   2.063   1.981   2.373  1.0047 -0.0716  1.3480
 5338TIP3   OH216019   0.401   2.623   3.051 -0.3377 -0.4756  0.1771
 5338TIP3    H116020   0.352   2.597   2.974 -1.6540  0.6841  0.5812
 5338TIP3    H216021   0.415   2.542   3.099 -2.1873 -0.8204  0.2055
 5339TIP3   OH216022   3.193   0.695   3.147  0.1099 -0.0906 -0.2661
 5339TIP3    H116023   3.226   0.618   3.193  0.7515 -0.7726 -1.7899
 5339TIP3    H216024   3.175   0.663   3.058  0.6097  1.5678 -0.9879
 5340TIP3   OH216025   0.306   0.976   1.567  0.0129 -0.5429 -0.4106
 5340TIP3    H116026   0.401   0.986   1.562  0.0238 -0.2859  0.1624
 5340TIP3    H216027   0.271   1.054   1.523  0.0783 -0.1799  0.1655
 5341TIP3   OH216028   2.108   3.555   4.660  0.4367  0.6096  0.4437
 5341TIP3    H116029   2.107   3.630   4.720  0.8028 -1.0494  2.6589
 5341TIP3    H216030   2.061   3.486   4.707 -1.0610 -0.2188 -2.0806
 5342TIP3   OH216031   2.636   4.334   2.111  0.0987 -0.2099 -0.1790
 5342TIP3    H116032   2.600   4.332   2.022 -0.1107 -1.3032 -0.0902
 5342TIP3    H216033   2.670   4.245   2.124  1.9411  0.5014  0.1071
 5343TIP3   OH216034   0.859   5.125   2.693 -0.3707  0.2700  0.5411
 5343TIP3    H116035   0.801   5.153   2.622  0.1782 -0.4225 -0.2025
 5343TIP3    H216036   0.839   5.184   2.765 -2.8345 -0.6635  0.7075
 5344TIP3   OH216037   1.674   0.913   4.082  0.3513 -0.1675  0.3644
 5344TIP3    H116038   1.676   0.835   4.136 -3.9697  0.5791  2.0057
 5344TIP3    H216039   1.699   0.984   4.140  0.4224  0.1162 -0.0052
 5345TIP3   OH216040   0.896   1.597   1.958  0.5107  0.3901 -0.0215
 5345TIP3    H116041   0.828   1.664   1.963 -0.9170 -0.9856 -0.2532
 5345TIP3    H216042   0.957   1.620   2.028 -0.7163  1.0856  0.8670
 5346TIP3   OH216043   2.761   2.342   3.797  0.2674  0.2362  0.2163
 5346TIP3    H116044   2.730   2.329   3.887  0.7423  2.1194  0.7165
 5346TIP3    H216045   2.824   2.272   3.783 -0.5657 -0.6910  0.9742
 5347TIP3   OH216046   3.496   5.614   1.895 -0.4475  0.1552  0.0700
 5347TIP3    H116047   3.471   5.657   1.976  0.3218 -2.0845  1.5864
 5347TIP3    H216048   3.577   5.568   1.916 -0.6729 -1.1678 -1.7070
 5348TIP3   OH216049   4.502   5.011   3.919 -0.7692  0.6447  0.0101
 5348TIP3    H116050   4.417   4.966   3.922 -0.2193 -0.6934 -2.0954
 5348TIP3    H216051   4.492   5.076   3.850 -0.1005  0.5358 -0.1883
 5349TIP3   OH216052   5.358   1.275   0.395  0.6101  0.0098 -0.1274
 5349TIP3    H116053   5.369   1.267   0.490  1.0364  0.0940 -0.1667
 5349TIP3    H216054   5.446   1.262   0.360  0.6424  1.0525 -0.4421
 5350TIP3   OH216055   4.836   1.125   4.280 -0.3769  0.3450 -1.1190
 5350TIP3    H116056   4.798   1.106   4.195 -0.0877 -0.6361 -1.0392
 5350TIP3    H216057   4.913   1.179   4.260  0.1601 -0.5514 -1.5674
 5351TIP3   OH216058   0.870   0.722   0.459  0.6971  0.1107  0.0133
 5351TIP3    H116059   0.886   0.705   0.552  0.4997  0.6426  0.1454
 5351TIP3    H216060   0.939   0.673   0.414  1.0307  0.1637  0.4569
 5352TIP3   OH216061   4.710   0.165   4.726  0.2879 -0.2118  0.2578
 5352TIP3    H116062   4.805   0.164   4.718  0.1776 -0.3768 -1.4391
 5352TIP3    H216063   4.688   0.257   4.739  0.5983  0.0571 -0.9815
 5353TIP3   OH216064   3.028   3.490   1.207  0.2026  0.0500 -0.3102
 5353TIP3    H116065   3.040   3.584   1.221  0.0821  0.3151 -1.8492
 5353TIP3    H216066   2.956   3.466   1.266  1.2574  0.5671  1.2688
 5354TIP3   OH216067   4.693   5.799   1.169 -0.7573  0.0447 -0.0140
 5354TIP3    H116068   4.659   5.865   1.109 -0.3179 -1.4008 -1.9781
 5354TIP3    H216069   4.625   5.731   1.171 -0.4274 -0.2809  0.5532
 5355TIP3   OH216070   0.374   0.437   1.482  0.0774  0.4535 -0.0076
 5355TIP3    H116071   0.379   0.365   1.545 -1.3869 -0.7627 -1.1927
 5355TIP3    H216072   0.451   0.427   1.428  0.5619  0.5928  0.6425
 5356TIP3   OH216073   4.691   0.343   0.367  0.5426 -0.3869  0.1065
 5356TIP3    H116074   4.723   0.347   0.457 -0.5745 -2.7577  0.6837
 5356TIP3    H216075   4.750   0.280   0.324 -1.6105 -2.8745  0.5205
 5357TIP3   OH216076   4.463   3.183   0.693  0.8395 -0.4075  0.9204
 5357TIP3    H116077   4.396   3.249   0.675 -0.5377 -2.3057 -1.6935
 5357TIP3    H216078   4.546   3.227   0.676  0.2354  1.5925  2.7833
 5358TIP3   OH216079   2.697   4.753   0.212 -0.1489  0.4352 -0.8018
 5358TIP3    H116080   2.626   4.689   0.224  1.3268 -1.2600 -0.5554
 5358TIP3    H216081   2.703   4.798   0.296  0.5835 -1.1331  0.0531
 5359TIP3   OH216082   4.108   5.300   4.502  0.1252  0.3169 -0.1959
 5359TIP3    H116083   4.067   5.245   4.569 -1.8403 -0.7262 -2.1264
 5359TIP3    H216084   4.106   5.388   4.539 -3.4500  0.2478  0.1139
 5360TIP3   OH216085   4.987   5.817   2.143 -0.7624 -0.7254  0.0016
 5360TIP3    H116086   5.064   5.821   2.085 -1.0561  0.2002 -0.3424
 5360TIP3    H216087   5.001   5.886   2.207 -0.4401 -1.7487  1.0668
 5361TIP3   OH216088   4.377   2.307   4.498 -0.1529 -0.5865 -0.2578
 5361TIP3    H116089   4.294   2.261   4.489 -0.4706  0.1911 -1.5731
 5361TIP3    H216090   4.434   2.266   4.433  0.4625 -1.0106  0.5284
 5362TIP3   OH216091   4.867   2.941   3.019  0.0420  0.1448 -0.0032
 5362TIP3    H116092   4.803   3.010   3.004  1.3259  1.8841  1.9192
 5362TIP3    H216093   4.952   2.983   3.005  0.8829 -0.8896  1.5990
 5363TIP3   OH216094   4.410   3.868   0.886  0.2077 -0.4449 -0.8288
 5363TIP3    H116095   4.402   3.822   0.970  1.6374 -0.2439 -0.5500
 5363TIP3    H216096   4.325   3.857   0.844 -0.2839 -1.2057  0.3156
 5364TIP3   OH216097   0.746   0.787   5.143  0.0739  0.3296 -0.6020
 5364TIP3    H116098   0.770   0.703   5.181  0.2539  0.5632 -0.1955
 5364TIP3    H216099   0.780   0.784   5.054  0.6012  0.2027 -0.3996
 5365TIP3   OH216100   3.087   3.983   2.659  0.1022  0.3275  0.3064
 5365TIP3    H116101   3.146   3.943   2.722 -0.9999 -0.4625  0.8811
 5365TIP3    H216102   3.026   4.034   2.713 -1.4703 -1.1532  0.0395
 5366TIP3   OH216103   1.272   1.899   2.800  0.0795  0.1738 -0.4545
 5366TIP3    H116104   1.279   1.992   2.818 -0.6647 -0.0406  1.1072
 5366TIP3    H216105   1.360   1.874   2.771  0.6023  1.1374  0.2390
 5367TIP3   OH216106   3.395   1.363   4.992 -0.2254  0.1774 -0.3211
 5367TIP3    H116107   3.330   1.349   5.061  0.0985  1.4704  0.2869
 5367TIP3    H216108   3.471   1.400   5.038  0.8796 -1.1284 -1.0494
 5368TIP3   OH216109   3.572   4.616   0.325 -0.5487 -1.1120  0.1453
 5368TIP3    H116110   3.652   4.665   0.306  0.1729 -1.8046  1.3050
 5368TIP3    H216111   3.544   4.582   0.240  0.4788 -0.9831 -0.2584
 5369TIP3   OH216112   5.681   3.950   4.945 -0.4772  0.1598 -0.2735
 5369TIP3    H116113   5.637   4.007   4.882  0.0287  0.6686 -0.1847
 5369TIP3    H216114   5.768   3.989   4.955 -0.1742 -0.5527 -0.0936
 5370TIP3   OH216115   2.484   4.956   3.816 -0.1165 -0.5329 -0.3192
 5370TIP3    H116116   2.544   5.029   3.829  1.0947 -1.3345 -1.1654
 5370TIP3    H216117   2.416   4.991   3.758  0.3000 -0.0047 -0.4966
 5371TIP3   OH216118   3.190   2.431   0.379 -0.9657 -0.3851 -0.3897
 5371TIP3    H116119   3.205   2.525   0.387 -0.5308 -0.4500 -0.4306
 5371TIP3    H216120   3.148   2.421   0.293  0.1175 -0.3533 -0.9381
 5372TIP3   OH216121   4.401   1.632   3.457  0.0090  0.5459 -0.6900
 5372TIP3    H116122   4.496   1.623   3.449  0.0866  0.0894  0.5526
 5372TIP3    H216123   4.367   1.546   3.433  0.2138 -0.6710  2.8122
 5373TIP3   OH216124   0.172   1.282   0.656 -0.4177  0.3505  0.2627
 5373TIP3    H116125   0.168   1.358   0.598 -1.3597 -0.8202 -1.2996
 5373TIP3    H216126   0.168   1.318   0.744 -1.2480  2.1064 -0.4528
 5374TIP3   OH216127   5.512   5.025   0.427  0.0079 -1.0197 -0.2914
 5374TIP3    H116128   5.455   5.055   0.356 -1.5895  0.4244  1.4919
 5374TIP3    H216129   5.480   4.937   0.447 -2.6329  0.2061  1.4995
 5375TIP3   OH216130   1.282   3.621   4.445  0.3243  0.3721  0.0704
 5375TIP3    H116131   1.218   3.689   4.425 -0.5456 -0.8476 -1.5899
 5375TIP3    H216132   1.354   3.637   4.384 -0.2701 -0.6529 -0.9420
 5376TIP3   OH216133   3.760   5.879   2.512  0.0208  0.3164  0.6925
 5376TIP3    H116134   3.728   5.969   2.506  1.3658  0.7670 -0.2355
 5376TIP3    H216135   3.835   5.884   2.571  1.3086  0.2046 -0.8583
 5377TIP3   OH216136   5.100   0.363   0.734 -0.3578 -0.0757 -0.0572
 5377TIP3    H116137   5.012   0.368   0.698 -0.6569  0.5116  0.7075
 5377TIP3    H216138   5.156   0.343   0.659 -0.8971  1.4898 -0.9184
 5378TIP3   OH216139   2.664   2.640   4.900 -0.4866 -0.3899  0.4697
 5378TIP3    H116140   2.714   2.708   4.945 -0.4853 -0.1481  0.1009
 5378TIP3    H216141   2.699   2.640   4.811 -1.7779  0.3999 -0.0471
 5379TIP3   OH216142   6.148   5.517   0.823 -0.2052  0.0149  0.4404
 5379TIP3    H116143   6.101   5.455   0.879 -0.3145 -0.4940 -0.2034
 5379TIP3    H216144   6.219   5.550   0.879 -0.4831 -0.2664  0.9722
 5380TIP3   OH216145   2.561   5.678   0.652  0.1626 -0.3630  0.7781
 5380TIP3    H116146   2.549   5.635   0.566 -1.3514  0.7553  0.3853
 5380TIP3    H216147   2.650   5.712   0.649 -0.2648  0.7236 -0.8779
 5381TIP3   OH216148   3.638   2.536   2.656 -0.4506 -0.3437 -1.2854
 5381TIP3    H116149   3.663   2.458   2.705  2.9362  2.0836  1.3924
 5381TIP3    H216150   3.558   2.566   2.698  0.3750 -0.3515  0.4056
 5382TIP3   OH216151   5.757   3.665   2.849  0.6413  0.0923  0.8390
 5382TIP3    H116152   5.729   3.742   2.898 -1.0003  0.3258 -0.3872
 5382TIP3    H216153   5.709   3.593   2.889 -0.4684  0.2386 -0.1793
 5383TIP3   OH216154   6.010   0.071   2.229 -0.1207  0.0876 -0.0805
 5383TIP3    H116155   6.101   0.094   2.250  0.4181  0.5729 -2.6380
 5383TIP3    H216156   5.959   0.107   2.302  1.7311 -0.4791  1.5778
 5384TIP3   OH216157   4.372   1.387   4.977  0.1096  0.0449 -0.3144
 5384TIP3    H116158   4.298   1.432   5.017 -0.3191 -0.8805 -0.0375
 5384TIP3    H216159   4.446   1.446   4.990 -0.4417  0.6733  0.0147
 5385TIP3   OH216160   6.273   0.054   3.647  0.0945  0.3335  0.6547
 5385TIP3    H116161   6.281   0.039   3.741  1.0674  0.3959  0.5897
 5385TIP3    H216162   6.210  -0.011   3.617  0.6088 -0.4124  1.1762
 5386TIP3   OH216163   2.746   4.064   4.667 -0.0842 -0.1155  0.1544
 5386TIP3    H116164   2.683   4.036   4.733  0.8959 -0.2323  1.0564
 5386TIP3    H216165   2.831   4.045   4.705  0.5143  0.2743 -0.9446
 5387TIP3   OH216166   2.346   4.270   2.322  0.1063  0.4890  0.1305
 5387TIP3    H116167   2.426   4.320   2.337  0.5868 -0.4606  0.8507
 5387TIP3    H216168   2.288   4.297   2.394  0.3568  0.0312  0.5058
 5388TIP3   OH216169   2.371   4.814   3.321  0.2052 -0.0093  0.3362
 5388TIP3    H116170   2.291   4.848   3.363  1.1435  2.0708  0.5820
 5388TIP3    H216171   2.435   4.883   3.335  1.8654 -1.3335 -0.4916
 5389TIP3   OH216172   4.289   3.866   3.202 -0.3780  0.1804  0.5996
 5389TIP3    H116173   4.250   3.798   3.257 -1.6695  0.9911  0.7302
 5389TIP3    H216174   4.383   3.853   3.210 -0.5982 -1.6799  0.5054
 5390TIP3   OH216175   0.685   4.657   4.391 -1.0097  0.2662 -0.2733
 5390TIP3    H116176   0.760   4.695   4.346 -0.4490 -1.1525 -0.6149
 5390TIP3    H216177   0.638   4.608   4.323  0.1103 -2.2924  0.6459
 5391TIP3   OH216178   1.040   3.747   2.990 -0.0896  0.3321 -0.3167
 5391TIP3    H116179   1.085   3.745   2.906 -0.0879 -0.0360 -0.3102
 5391TIP3    H216180   1.072   3.669   3.036 -1.3952 -0.4400 -0.6629
 5392TIP3   OH216181   2.535   0.329   0.958 -0.2093 -0.5816 -0.2044
 5392TIP3    H116182   2.500   0.348   0.871 -1.8561  0.1826  0.5747
 5392TIP3    H216183   2.537   0.414   1.002  0.3896 -0.9950  0.5914
 5393TIP3   OH216184   3.611   3.499   0.415  0.0240 -0.2545 -0.2241
 5393TIP3    H116185   3.529   3.487   0.367  0.0348 -1.3369  0.0049
 5393TIP3    H216186   3.624   3.594   0.416 -0.6042 -0.1382 -1.2870
 5394TIP3   OH216187   5.618   2.568   4.926 -0.5021 -0.7531  0.4387
 5394TIP3    H116188   5.637   2.662   4.930  0.1808 -0.8640 -0.0437
 5394TIP3    H216189   5.637   2.536   5.015 -1.1519 -0.3647  0.7211
 5395TIP3   OH216190   4.257   2.679   4.304  0.1637 -0.1734 -0.0924
 5395TIP3    H116191   4.170   2.640   4.302 -0.2490  0.7403 -1.0998
 5395TIP3    H216192   4.316   2.606   4.324 -0.6089 -1.2833 -1.6161
 5396TIP3   OH216193   0.507   0.980   0.203  0.0794 -0.5536  0.0998
 5396TIP3    H116194   0.566   1.038   0.251 -0.6683 -1.2824  1.9716
 5396TIP3    H216195   0.565   0.926   0.149  0.9812 -0.1436  0.6445
 5397TIP3   OH216196   3.632   3.854   2.096 -0.0263 -0.2043 -0.1906
 5397TIP3    H116197   3.646   3.882   2.006 -0.5172  0.4747 -0.0637
 5397TIP3    H216198   3.711   3.882   2.142  0.0677 -0.2275 -0.3389
 5398TIP3   OH216199   5.299   0.055   3.145 -0.3632 -0.2523  0.2868
 5398TIP3    H116200   5.322   0.145   3.167  0.1526 -0.0693 -0.9149
 5398TIP3    H216201   5.378   0.004   3.164  0.3125  0.0059 -1.6027
 5399TIP3   OH216202   1.299   2.308   2.528 -0.0149 -0.1438 -0.0835
 5399TIP3    H116203   1.254   2.349   2.454  0.7612 -0.2935 -0.6580
 5399TIP3    H216204   1.231   2.256   2.572 -0.9435  1.4636  0.4703
 5400TIP3   OH216205   5.042   4.292   1.851  0.2167  0.4580  0.1011
 5400TIP3    H116206   5.095   4.215   1.831 -0.7210  0.0876 -1.0903
 5400TIP3    H216207   5.087   4.364   1.807  0.2750  0.3170 -0.0708
 5401TIP3   OH216208   4.466   5.255   0.920 -0.6586 -0.5739 -0.2570
 5401TIP3    H116209   4.506   5.329   0.873 -0.6346 -0.1446  0.4253
 5401TIP3    H216210   4.517   5.179   0.891  1.7026  0.1226  1.6529
 5402TIP3   OH216211   0.844   4.450   1.358  0.1757 -0.0313 -0.6827
 5402TIP3    H116212   0.824   4.409   1.442  1.1553 -0.5645 -0.6905
 5402TIP3    H216213   0.852   4.544   1.378  1.4444 -0.2787  0.0366
 5403TIP3   OH216214   1.357   0.764   1.774 -0.0671  0.4137 -0.1862
 5403TIP3    H116215   1.287   0.758   1.839  0.1885  0.2374  0.0725
 5403TIP3    H216216   1.336   0.696   1.709  1.5280 -1.8173  1.4946
 5404TIP3   OH216217   1.243   1.137   0.422  0.3678 -0.4934  0.6653
 5404TIP3    H116218   1.150   1.119   0.430 -0.0705  1.4970  0.4875
 5404TIP3    H216219   1.272   1.158   0.511  1.3984 -3.9990  1.3183
 5405TIP3   OH216220   5.480   0.635   3.289  0.1456 -0.2199 -0.4056
 5405TIP3    H116221   5.390   0.613   3.266 -0.2342 -0.9516  1.6056
 5405TIP3    H216222   5.476   0.724   3.322  0.5489  0.5014 -2.1479
 5406TIP3   OH216223   3.590   0.755   1.786 -0.0616 -0.3214  0.5081
 5406TIP3    H116224   3.591   0.737   1.880 -1.5257 -0.7103  0.4654
 5406TIP3    H216225   3.566   0.671   1.746 -0.1639  0.0225 -0.1604
 5407TIP3   OH216226   0.248   3.542   1.784  0.0594 -0.0550 -0.1378
 5407TIP3    H116227   0.161   3.582   1.786  0.8284  1.7420 -0.8444
 5407TIP3    H216228   0.277   3.544   1.875 -1.3755 -2.5396  0.4798
 5408TIP3   OH216229   6.134   5.323   2.076  0.3433 -0.2402 -0.4648
 5408TIP3    H116230   6.058   5.371   2.110  0.1920  0.0538 -1.2042
 5408TIP3    H216231   6.179   5.292   2.155  0.3101  0.8979  0.0228
 5409TIP3   OH216232   5.401   5.605   0.200  0.1994  0.7924 -0.0948
 5409TIP3    H116233   5.490   5.635   0.182 -0.2738  2.1383 -0.3019
 5409TIP3    H216234   5.390   5.528   0.145  1.7509 -0.3556  1.0953
 5410TIP3   OH216235   5.813   2.263   3.740 -0.0912  0.0692 -0.4573
 5410TIP3    H116236   5.844   2.318   3.669  1.8127  1.7169  1.5353
 5410TIP3    H216237   5.746   2.315   3.784 -1.5397 -1.0935 -1.1515
 5411TIP3   OH216238   1.567   5.078   3.581  0.4536 -0.4884 -0.2295
 5411TIP3    H116239   1.525   5.029   3.511  0.8642  0.8879 -1.4938
 5411TIP3    H216240   1.661   5.066   3.565  0.5541  0.4729 -0.3919
 5412TIP3   OH216241   1.823   2.826   1.809 -0.3842  0.2687 -0.1087
 5412TIP3    H116242   1.853   2.769   1.879  2.8700 -0.6106 -2.0405
 5412TIP3    H216243   1.785   2.767   1.744  0.3078  0.6106 -0.8376
 5413TIP3   OH216244   4.001   1.474   1.838 -0.2452 -0.2624 -0.1113
 5413TIP3    H116245   4.073   1.471   1.775  0.1389  0.3984  0.2793
 5413TIP3    H216246   3.986   1.567   1.853 -0.5319 -0.4083  0.5416
 5414TIP3   OH216247   2.363   3.015   1.267 -0.2842  0.1285 -0.0266
 5414TIP3    H116248   2.268   3.026   1.258 -0.0877  1.1442 -1.1558
 5414TIP3    H216249   2.381   3.038   1.358 -1.0835  0.2241  0.1158
 5415TIP3   OH216250   4.359   5.261   4.337 -0.1951  0.1735  0.0825
 5415TIP3    H116251   4.284   5.298   4.384 -1.9565 -2.1415 -0.7301
 5415TIP3    H216252   4.434   5.278   4.394 -1.4937  1.5718  1.4654
 5416TIP3   OH216253   1.842   1.230   2.088  0.4898  0.3834 -0.7974
 5416TIP3    H116254   1.850   1.170   2.162 -0.4142  1.0246 -0.1439
 5416TIP3    H216255   1.749   1.226   2.064  0.8009  0.0627 -2.0188
 5417TIP3   OH216256   4.336   4.513   1.251 -0.6427  0.6664  0.2546
 5417TIP3    H116257   4.363   4.435   1.300 -0.5620  1.1450  0.9968
 5417TIP3    H216258   4.243   4.499   1.233 -0.2833 -0.2938 -0.9770
 5418TIP3   OH216259   5.590   3.420   5.145 -0.1042 -0.1502 -0.4670
 5418TIP3    H116260   5.562   3.479   5.074  0.9110 -0.6608 -1.3186
 5418TIP3    H216261   5.645   3.356   5.102  4.0514  1.8753  1.2985
 5419TIP3   OH216262   3.061   2.172   0.440 -0.0119 -0.5325  0.0354
 5419TIP3    H116263   3.086   2.256   0.402 -2.7311  0.4193  0.1430
 5419TIP3    H216264   3.002   2.134   0.375  1.6960 -2.7593 -0.3346
 5420TIP3   OH216265   2.328   2.515   3.319 -0.0069  0.0162  0.0563
 5420TIP3    H116266   2.352   2.606   3.336  2.7695 -0.4557 -0.7124
 5420TIP3    H216267   2.314   2.511   3.225  0.1790 -0.3871  0.0424
 5421TIP3   OH216268   0.348   3.029   3.770 -0.3497  0.1815  0.3893
 5421TIP3    H116269   0.289   3.052   3.698  0.7995  0.1060 -0.5979
 5421TIP3    H216270   0.430   3.072   3.748  1.1224 -2.7246 -0.2137
 5422TIP3   OH216271   2.406   0.729   1.342  0.0121 -0.0445  0.0479
 5422TIP3    H116272   2.435   0.783   1.268  1.8971 -0.3253  0.5478
 5422TIP3    H216273   2.341   0.784   1.387  1.2206  1.4842  0.0360
 5423TIP3   OH216274   5.751   0.272   3.371  0.5635 -0.5332  0.1980
 5423TIP3    H116275   5.831   0.249   3.418  0.9095  1.1835  0.5017
 5423TIP3    H216276   5.769   0.358   3.333 -0.7866 -0.5597 -0.5599
 5424TIP3   OH216277   2.497   2.363   3.661  0.2002  1.0248 -0.9596
 5424TIP3    H116278   2.483   2.351   3.567 -0.9643 -0.8971 -0.6085
 5424TIP3    H216279   2.540   2.448   3.669  2.0451  0.4178 -3.3651
 5425TIP3   OH216280   5.918   3.232   0.973  0.9333 -0.6596  0.5003
 5425TIP3    H116281   5.823   3.235   0.986  0.7629 -1.0218 -0.5500
 5425TIP3    H216282   5.949   3.318   1.002  0.1406 -0.1236 -0.1764
 5426TIP3   OH216283   3.137   2.230   4.979 -0.0738  0.1968 -0.6456
 5426TIP3    H116284   3.105   2.205   5.066 -0.7501  0.4249 -0.8284
 5426TIP3    H216285   3.121   2.324   4.974  1.1002  0.4294 -0.5433
 5427TIP3   OH216286   5.106   4.332   3.033  0.5126 -0.4371 -0.5680
 5427TIP3    H116287   5.190   4.322   3.078  0.6215 -0.8169 -0.8542
 5427TIP3    H216288   5.102   4.425   3.010 -0.1980  0.0999  1.5078
 5428TIP3   OH216289   4.007   3.790   3.367 -0.1774  0.5290  0.0450
 5428TIP3    H116290   3.935   3.846   3.395 -0.0989  0.2918  0.7502
 5428TIP3    H216291   3.966   3.727   3.307 -0.9543 -0.7256  1.7941
 5429TIP3   OH216292   5.587   3.578   4.147 -0.0765  0.4588  0.2829
 5429TIP3    H116293   5.605   3.510   4.212 -0.4264  1.3873  1.3957
 5429TIP3    H216294   5.664   3.579   4.090  1.3813  1.2659  2.1696
 5430TIP3   OH216295   2.364   1.653   2.384 -0.0823 -0.0483 -0.3696
 5430TIP3    H116296   2.338   1.713   2.454 -0.0158  1.5061 -1.6229
 5430TIP3    H216297   2.283   1.636   2.336  0.1590  0.1254 -0.8329
 5431TIP3   OH216298   3.245   1.193   2.845  0.7297  0.3271 -0.5233
 5431TIP3    H116299   3.236   1.120   2.906  0.8901 -1.3039 -2.3624
 5431TIP3    H216300   3.324   1.239   2.874 -0.5007  1.0910  1.9044
 5432TIP3   OH216301   0.035   2.787   1.566  0.3233  0.5441  0.4196
 5432TIP3    H116302   0.111   2.744   1.607  1.1424 -0.0112 -1.5679
 5432TIP3    H216303   0.071   2.830   1.489 -1.5229 -0.6820 -1.2190
 5433TIP3   OH216304   2.364   2.750   4.709 -0.0001  0.0980 -0.0677
 5433TIP3    H116305   2.366   2.656   4.726 -1.0423  0.4835  2.6894
 5433TIP3    H216306   2.454   2.772   4.685  0.5156 -1.4403  0.3487
 5434TIP3   OH216307   2.052   4.154   2.423 -0.6421  0.3528 -0.0979
 5434TIP3    H116308   2.054   4.220   2.353  0.8783 -1.7445 -2.2031
 5434TIP3    H216309   1.975   4.100   2.402  0.0857 -0.5617 -0.4620
 5435TIP3   OH216310   2.734   1.725   3.767  0.1779 -0.0126 -0.8164
 5435TIP3    H116311   2.769   1.696   3.851  0.5327 -1.2219 -1.3495
 5435TIP3    H216312   2.640   1.710   3.773  0.0756  0.7979 -0.3058
 5436TIP3   OH216313   4.530   2.543   3.299  0.7006  0.7223  0.4388
 5436TIP3    H116314   4.463   2.609   3.281  1.4094  1.2052 -0.4762
 5436TIP3    H216315   4.492   2.490   3.370 -1.0330  0.4378 -0.6330
 5437TIP3   OH216316   5.541   1.257   3.193 -0.6983 -0.5795  0.0231
 5437TIP3    H116317   5.565   1.335   3.243 -1.5033 -0.5991  0.4608
 5437TIP3    H216318   5.560   1.184   3.252 -0.9147 -0.6527  0.0012
 5438TIP3   OH216319   0.877   1.501   3.156 -0.2868 -0.9138  0.2676
 5438TIP3    H116320   0.783   1.508   3.173 -0.3827  0.4549 -0.6500
 5438TIP3    H216321   0.883   1.457   3.072 -0.0656 -1.6367  0.6540
 5439TIP3   OH216322   4.135   3.230   3.774  0.0738 -0.7055 -0.0689
 5439TIP3    H116323   4.088   3.175   3.837 -0.3882 -0.8111 -0.4994
 5439TIP3    H216324   4.224   3.195   3.774 -0.0771 -1.1039  0.0674
 5440TIP3   OH216325   1.631   1.525   0.492 -0.2108 -0.0632  0.1319
 5440TIP3    H116326   1.580   1.448   0.516  0.2740 -0.6570 -0.7291
 5440TIP3    H216327   1.652   1.513   0.400  0.5564  0.7043  0.1946
 5441TIP3   OH216328   0.935   2.067   4.881  0.1110 -0.4991  0.1051
 5441TIP3    H116329   0.965   2.122   4.809  1.7255  1.6715  2.2546
 5441TIP3    H216330   1.004   2.001   4.891  0.1664 -0.4580  0.0010
 5442TIP3   OH216331   2.338   1.993   5.136 -0.3769  0.2944  0.2104
 5442TIP3    H116332   2.354   1.922   5.075 -0.2612  0.1524  0.4063
 5442TIP3    H216333   2.411   1.989   5.198 -0.5588  0.3593  0.4309
 5443TIP3   OH216334   2.744   3.857   5.146  0.4772  0.1554 -0.4347
 5443TIP3    H116335   2.790   3.781   5.111 -0.0675 -0.1804 -0.4341
 5443TIP3    H216336   2.813   3.923   5.159  1.0722 -0.5751  0.2258
 5444TIP3   OH216337   4.080   0.097   3.606 -0.0886 -0.0102  0.2076
 5444TIP3    H116338   4.091   0.092   3.701  1.2156  1.1255  0.1431
 5444TIP3    H216339   4.168   0.084   3.570 -0.8604 -2.6227 -0.9949
 5445TIP3   OH216340   3.501   1.432   1.749 -0.4724 -0.0673 -0.1014
 5445TIP3    H116341   3.454   1.400   1.826 -1.2879 -0.1008 -0.5959
 5445TIP3    H216342   3.432   1.468   1.693  0.3605  2.7293  0.4757
 5446TIP3   OH216343   2.290   2.546   3.060 -0.1370  0.4070 -0.3320
 5446TIP3    H116344   2.226   2.614   3.044  1.0869  1.5889 -0.3770
 5446TIP3    H216345   2.370   2.578   3.019  0.7860 -0.4876  0.7004
 5447TIP3   OH216346   2.537   5.973   0.103 -0.3630 -0.1544  0.2444
 5447TIP3    H116347   2.494   6.020   0.032 -0.0487  0.4127  0.4130
 5447TIP3    H216348   2.471   5.969   0.173  0.2314  1.9234  1.0189
 5448TIP3   OH216349   2.357   2.343   4.349  0.1856  0.0183 -0.4542
 5448TIP3    H116350   2.307   2.359   4.429  0.7027  0.4218 -0.2063
 5448TIP3    H216351   2.298   2.290   4.295 -1.0088  1.5115 -0.6879
 5449TIP3   OH216352   3.024   2.538   3.802  0.0305  0.0696 -0.4526
 5449TIP3    H116353   3.084   2.489   3.746  0.7868  0.2835  0.1509
 5449TIP3    H216354   2.953   2.477   3.820 -0.3984  0.0949 -1.8851
 5450TIP3   OH216355   3.564   0.549   0.188  0.0743  0.2019 -0.2039
 5450TIP3    H116356   3.536   0.476   0.133  2.4279 -0.3558 -0.7883
 5450TIP3    H216357   3.555   0.626   0.132 -2.4778  0.4479  0.4352
 5451TIP3   OH216358   0.422   5.530   2.500 -0.5119 -0.1699  0.3426
 5451TIP3    H116359   0.377   5.589   2.561 -1.2000  0.6389 -0.8912
 5451TIP3    H216360   0.511   5.525   2.534 -0.6505  0.9466  0.9396
 5452TIP3   OH216361   5.096   0.263   1.632 -0.3759  0.1014  0.2971
 5452TIP3    H116362   5.067   0.332   1.692 -2.0530  0.0150 -0.3689
 5452TIP3    H216363   5.079   0.182   1.680 -2.9680 -0.0376 -0.7087
 5453TIP3   OH216364   2.075   4.725   3.679  0.1165 -0.2269  0.0133
 5453TIP3    H116365   2.034   4.753   3.761  2.1469 -1.0270  1.3721
 5453TIP3    H216366   2.096   4.633   3.694 -0.9054 -0.8529 -2.0523
 5454TIP3   OH216367   0.726   5.927   1.736  0.2558 -0.7087  0.2391
 5454TIP3    H116368   0.681   6.011   1.737  1.8401  0.1810  0.1854
 5454TIP3    H216369   0.733   5.904   1.644  0.0997 -0.7462  0.2368
 5455TIP3   OH216370   1.698   5.173   4.979  0.6001  0.6359  0.6375
 5455TIP3    H116371   1.792   5.164   4.994  0.7509  1.8130  0.5152
 5455TIP3    H216372   1.671   5.242   5.040  0.2623  1.9250 -0.8994
 5456TIP3   OH216373   0.413   4.683   4.764 -0.5543 -0.0896  0.0470
 5456TIP3    H116374   0.451   4.660   4.849 -0.2501 -2.6321 -0.6956
 5456TIP3    H216375   0.474   4.747   4.726  1.5163 -1.9156  0.1003
 5457TIP3   OH216376   4.879   4.638   4.217 -0.1037  0.2542  0.0686
 5457TIP3    H116377   4.906   4.686   4.139  0.5923 -0.9846 -0.4737
 5457TIP3    H216378   4.952   4.579   4.236 -0.3829  0.3125  1.4905
 5458TIP3   OH216379   5.390   0.059   0.222  0.1647 -0.3729 -0.1558
 5458TIP3    H116380   5.335   0.083   0.147 -0.7821 -1.3123  0.1986
 5458TIP3    H216381   5.405  -0.035   0.210 -0.7864 -0.7351  1.3081
 5459TIP3   OH216382   5.396   1.793   4.881 -0.0091  0.9539 -0.2692
 5459TIP3    H116383   5.427   1.702   4.873 -0.4858  0.6810  0.7544
 5459TIP3    H216384   5.401   1.828   4.793  0.6354  0.0748 -0.6024
 5460TIP3   OH216385   4.894   1.537   0.375  0.1109  0.0632 -0.2943
 5460TIP3    H116386   4.939   1.620   0.394 -0.5196  0.4460 -0.4152
 5460TIP3    H216387   4.828   1.530   0.444  1.0947 -1.0686  0.5524
 5461TIP3   OH216388   3.452   2.040   2.471 -0.3291  0.4871  0.3219
 5461TIP3    H116389   3.529   1.991   2.502 -0.8817 -0.6235 -0.0359
 5461TIP3    H216390   3.489   2.121   2.435  0.7796 -0.4859 -0.8039
 5462TIP3   OH216391   2.507   0.793   3.850 -0.3052  0.6467  0.6150
 5462TIP3    H116392   2.460   0.828   3.925 -0.6872  0.9014  0.2556
 5462TIP3    H216393   2.535   0.705   3.879 -0.9970  0.4912  0.8265
 5463TIP3   OH216394   4.969   3.767   1.640 -0.4734  0.3610  0.6661
 5463TIP3    H116395   4.936   3.729   1.721  0.9363 -0.4461  0.8813
 5463TIP3    H216396   4.986   3.692   1.583  0.1115  0.8149  0.2299
 5464TIP3   OH216397   3.080   2.233   1.503 -0.5237 -0.4108  0.1820
 5464TIP3    H116398   3.174   2.230   1.521 -0.5632  1.1844  0.7461
 5464TIP3    H216399   3.049   2.311   1.549 -1.5691  0.9062 -2.5426
 5465TIP3   OH216400   1.685   4.125   1.733  0.0129 -0.1416  0.1342
 5465TIP3    H116401   1.666   4.065   1.806 -1.0639 -0.2636 -0.2185
 5465TIP3    H216402   1.603   4.127   1.683  0.1092  1.4413  0.0053
 5466TIP3   OH216403   0.456   3.412   3.261  0.2203  0.1688 -0.5399
 5466TIP3    H116404   0.424   3.359   3.187 -1.9855  1.8494 -0.9138
 5466TIP3    H216405   0.466   3.500   3.224  3.0103  0.2592  0.2525
 5467TIP3   OH216406   3.499   4.622   4.378 -0.2382 -0.5643 -0.4363
 5467TIP3    H116407   3.525   4.680   4.450 -0.5796 -2.1760  1.0543
 5467TIP3    H216408   3.500   4.678   4.301  0.4117  1.1775  0.7675
 5468TIP3   OH216409   5.038   2.605   3.242  0.5123  0.4595  0.3478
 5468TIP3    H116410   5.011   2.519   3.274 -0.3379  0.3828 -0.5168
 5468TIP3    H216411   5.001   2.667   3.305 -0.1800  0.2558  0.1566
 5469TIP3   OH216412   4.111   5.802   4.399  0.0367 -0.2238  0.2350
 5469TIP3    H116413   4.124   5.805   4.494  1.4621  0.5291  0.0344
 5469TIP3    H216414   4.017   5.815   4.388 -0.3469 -1.5763  1.5839
 5470TIP3   OH216415   2.602   1.605   2.234 -0.4203  0.1583 -0.4101
 5470TIP3    H116416   2.517   1.607   2.279 -0.5006  0.0132 -0.5547
 5470TIP3    H216417   2.588   1.657   2.155 -0.9216 -1.3867 -1.3857
 5471TIP3   OH216418   6.007   2.280   1.825 -0.9884  0.2001 -0.0348
 5471TIP3    H116419   5.919   2.251   1.801 -0.7227 -1.3258  0.7126
 5471TIP3    H216420   6.064   2.208   1.797  0.1567  1.5281 -1.3054
 5472TIP3   OH216421   3.006   5.838   4.643  0.0458 -0.0989 -0.0492
 5472TIP3    H116422   2.981   5.799   4.727  3.7098 -0.7624  0.9409
 5472TIP3    H216423   3.055   5.917   4.667  2.4204 -1.0478 -1.3574
 5473TIP3   OH216424   0.574   3.754   0.048 -0.4610 -0.4564  0.1456
 5473TIP3    H116425   0.601   3.815  -0.021 -2.1267  0.4952  0.2831
 5473TIP3    H216426   0.590   3.801   0.129 -0.4974 -0.7286  0.3109
 5474TIP3   OH216427   5.964   1.665   0.968  0.0614 -0.1685  0.4111
 5474TIP3    H116428   5.962   1.593   0.905  1.2096  0.4232 -0.3211
 5474TIP3    H216429   6.040   1.646   1.023 -0.0013  0.1711  0.6176
 5475TIP3   OH216430   1.827   4.571   0.975  0.2276  0.0965  1.1841
 5475TIP3    H116431   1.850   4.543   0.887  1.1932  2.5766  0.5644
 5475TIP3    H216432   1.744   4.617   0.966  0.0908 -0.0421  1.6626
 5476TIP3   OH216433   6.025   4.192   2.407  0.0033  0.2364 -0.3279
 5476TIP3    H116434   6.079   4.207   2.329 -0.0488  0.4418 -0.3250
 5476TIP3    H216435   5.951   4.140   2.376 -0.4403  1.0069 -0.5767
 5477TIP3   OH216436   2.572   3.469   3.769 -0.1240 -0.4104  0.0397
 5477TIP3    H116437   2.505   3.530   3.803 -0.5298 -1.4210  1.1431
 5477TIP3    H216438   2.591   3.412   3.843  1.2241 -0.8034 -0.5833
 5478TIP3   OH216439   3.984   1.319   5.119  0.5463 -0.3191 -0.1120
 5478TIP3    H116440   3.992   1.233   5.160 -1.3865 -0.0920  0.8542
 5478TIP3    H216441   4.050   1.373   5.162  0.2387 -0.7453  0.9232
 5479TIP3   OH216442   1.482   1.285   5.058  0.4628  0.2301 -0.4087
 5479TIP3    H116443   1.502   1.349   4.990 -0.4776 -1.1491 -2.0809
 5479TIP3    H216444   1.501   1.200   5.017 -0.8176 -0.6916  0.8044
 5480TIP3   OH216445   1.154   3.364   2.906 -0.0578 -0.1305 -0.5011
 5480TIP3    H116446   1.071   3.339   2.866 -0.6998  1.5290 -0.2934
 5480TIP3    H216447   1.194   3.423   2.842 -0.5756  1.6463  0.7348
 5481TIP3   OH216448   1.639   1.296   4.768  0.7281  0.0839  0.0421
 5481TIP3    H116449   1.646   1.202   4.753 -0.6582 -0.1372  0.6091
 5481TIP3    H216450   1.566   1.323   4.713 -1.2650  0.1304  2.5246
 5482TIP3   OH216451   3.912   0.345   3.827  0.1741  0.0178 -0.1407
 5482TIP3    H116452   3.912   0.339   3.922  1.8042  1.8053  0.0322
 5482TIP3    H216453   3.882   0.259   3.797 -0.7128 -0.4590  1.9646
 5483TIP3   OH216454   1.456   4.271   1.189  0.3681  0.1324  0.4264
 5483TIP3    H116455   1.420   4.182   1.192  1.2046 -0.2460 -0.4779
 5483TIP3    H216456   1.380   4.328   1.204 -1.0977 -0.5737 -3.1371
 5484TIP3   OH216457   1.889   4.175   0.736 -0.4405 -0.4748 -0.2500
 5484TIP3    H116458   1.957   4.146   0.675 -0.3460  0.7287 -0.7525
 5484TIP3    H216459   1.849   4.094   0.768  0.5155 -1.1706 -0.7615
 5485TIP3   OH216460   3.819   2.884   2.043  0.1457  0.2123  0.8558
 5485TIP3    H116461   3.877   2.867   2.116  0.3245 -2.1111  0.2582
 5485TIP3    H216462   3.877   2.913   1.972  0.3051 -0.0505  0.8785
 5486TIP3   OH216463   3.871   1.809   2.882  0.7566  0.4598 -0.1965
 5486TIP3    H116464   3.800   1.761   2.840  0.8892 -0.9976  1.1626
 5486TIP3    H216465   3.829   1.859   2.952  0.9798  0.1173  0.1844
 5487TIP3   OH216466   4.501   1.641   3.104  0.0654 -0.3029 -0.6118
 5487TIP3    H116467   4.461   1.646   3.017 -1.7797 -0.6422  0.1573
 5487TIP3    H216468   4.576   1.583   3.093 -0.9046 -1.4026 -1.7109
 5488TIP3   OH216469   4.656   2.052   1.912 -0.1305  0.3044 -0.6591
 5488TIP3    H116470   4.739   2.098   1.911  0.5833 -0.9284 -0.5045
 5488TIP3    H216471   4.638   2.031   1.820  0.2996 -0.3898 -0.5919
 5489TIP3   OH216472   2.859   4.306   1.882 -0.6126  0.1624  0.1022
 5489TIP3    H116473   2.940   4.354   1.897 -0.9518  0.9697 -0.5678
 5489TIP3    H216474   2.850   4.249   1.959  0.8408 -0.3254 -0.0560
 5490TIP3   OH216475   5.199   5.450   1.314  0.1073 -0.8696 -0.3776
 5490TIP3    H116476   5.105   5.461   1.301  0.1507 -2.1060 -2.0938
 5490TIP3    H216477   5.205   5.387   1.386 -0.3081  0.1007  0.5548
 5491TIP3   OH216478   4.290   1.626   2.893  0.5327  0.2287  0.1160
 5491TIP3    H116479   4.228   1.664   2.831  0.8782  0.1824 -0.2633
 5491TIP3    H216480   4.236   1.594   2.965  0.2886  2.0922  0.7997
 5492TIP3   OH216481   5.853   3.823   0.575 -0.0821 -0.0380  0.2582
 5492TIP3    H116482   5.865   3.805   0.669 -1.5390  1.4551  0.7811
 5492TIP3    H216483   5.840   3.918   0.571  0.7426  0.0381 -1.5769
 5493TIP3   OH216484   4.046   4.452   2.807  0.3378 -0.2877 -0.0574
 5493TIP3    H116485   4.040   4.365   2.846  0.0763 -0.5315 -0.6213
 5493TIP3    H216486   3.956   4.472   2.780  0.4913 -0.0781 -0.4215
 5494TIP3   OH216487   0.586   0.701   0.739 -0.0321  0.0031 -0.1169
 5494TIP3    H116488   0.641   0.768   0.779 -0.2264 -0.0954  0.3253
 5494TIP3    H216489   0.604   0.708   0.645  0.9047 -0.1748  0.0366
 5495TIP3   OH216490   0.168   0.605   0.804  0.5151 -0.4919  0.5496
 5495TIP3    H116491   0.211   0.545   0.744  0.2405  1.2427 -1.4911
 5495TIP3    H216492   0.080   0.568   0.815  0.2493 -0.3374 -0.9083
 5496TIP3   OH216493   1.055   2.986   1.366  0.2579 -0.1089  0.3282
 5496TIP3    H116494   1.087   2.938   1.442 -0.2205  0.6854  1.0589
 5496TIP3    H216495   1.022   2.918   1.307  3.0662 -0.9544 -0.4162
 5497TIP3   OH216496   3.861   5.076   2.587  0.5506 -0.0181 -0.1374
 5497TIP3    H116497   3.914   5.064   2.665  0.4403  0.9690  0.1048
 5497TIP3    H216498   3.771   5.065   2.617  0.5370 -0.2193 -0.2490
 5498TIP3   OH216499   4.119   1.348   4.562  0.2301 -0.0442 -0.4866
 5498TIP3    H116500   4.129   1.254   4.575  1.2269 -0.4106 -3.3162
 5498TIP3    H216501   4.181   1.370   4.492 -0.1509  2.6809 -0.0923
 5499TIP3   OH216502   1.632   0.110   3.989 -0.0852 -0.0447  0.6603
 5499TIP3    H116503   1.579   0.185   3.960 -0.8308 -0.3268  1.2762
 5499TIP3    H216504   1.719   0.147   4.006  0.0501  0.3482 -0.7527
 5500TIP3   OH216505   6.356   5.608   3.458  0.4413 -0.2321  0.1794
 5500TIP3    H116506   6.418   5.542   3.488  0.2809 -0.0133  1.0183
 5500TIP3    H216507   6.270   5.575   3.484  0.4596  0.9321  1.8654
 5501TIP3   OH216508   6.240   2.590   0.399 -0.2923  0.8724  0.1483
 5501TIP3    H116509   6.152   2.611   0.430 -0.0494  0.1638  1.3539
 5501TIP3    H216510   6.248   2.496   0.412  0.6130  0.9089 -0.0788
 5502TIP3   OH216511   2.809   1.350   0.652 -0.2566  0.0053 -0.5490
 5502TIP3    H116512   2.900   1.379   0.643 -0.0339  0.1887  1.6384
 5502TIP3    H216513   2.796   1.344   0.747 -2.4831 -0.1836 -0.8236
 5503TIP3   OH216514   0.499   4.680   5.048 -0.2852  0.6733 -0.4546
 5503TIP3    H116515   0.433   4.747   5.067  0.0240  0.4565  1.5041
 5503TIP3    H216516   0.484   4.611   5.112  1.0729  0.0503 -0.7646
 5504TIP3   OH216517   1.231   5.206   4.667  0.0105 -0.2295 -0.1189
 5504TIP3    H116518   1.267   5.134   4.616  1.3512 -0.6075  1.2967
 5504TIP3    H216519   1.150   5.229   4.621  0.5880 -1.2689 -1.7530
 5505TIP3   OH216520   3.661   2.349   5.009 -0.0013 -0.2012 -0.4114
 5505TIP3    H116521   3.589   2.303   5.051 -0.6788  1.8567  0.8362
 5505TIP3    H216522   3.646   2.337   4.915 -0.2752 -2.2210 -0.1540
 5506TIP3   OH216523   3.857   0.020   2.360 -0.2173 -0.1949 -0.1570
 5506TIP3    H116524   3.858   0.082   2.288 -0.4816  0.2831  0.2392
 5506TIP3    H216525   3.823  -0.061   2.323 -0.6832  0.1518 -0.4865
 5507TIP3   OH216526   1.056   2.153   4.454  0.5959 -0.2016  0.0358
 5507TIP3    H116527   0.976   2.185   4.414 -0.0028  0.7838  1.8919
 5507TIP3    H216528   1.123   2.163   4.386 -0.7220 -0.5164 -1.3530
 5508TIP3   OH216529   0.572   4.437   1.283  0.2397 -0.5653  0.2132
 5508TIP3    H116530   0.667   4.436   1.292  0.5819 -1.1881 -2.5859
 5508TIP3    H216531   0.554   4.376   1.212 -2.2294 -0.1238  0.3826
 5509TIP3   OH216532   0.541   0.798   4.815  0.0550 -0.3376 -0.2976
 5509TIP3    H116533   0.547   0.788   4.910 -2.9104  0.0991  0.0103
 5509TIP3    H216534   0.459   0.844   4.800 -0.0781 -1.2953 -3.1527
 5510TIP3   OH216535   5.808   4.051   3.660  1.1665  0.2845 -0.2212
 5510TIP3    H116536   5.851   4.036   3.745  1.5164 -0.1693 -0.4734
 5510TIP3    H216537   5.854   4.127   3.624 -0.7030  2.1647  1.1226
 5511TIP3   OH216538   1.447   4.736   2.986  0.3268  0.3223 -0.3505
 5511TIP3    H116539   1.415   4.646   2.993  0.3415  0.2622 -1.0620
 5511TIP3    H216540   1.457   4.751   2.893 -0.8842  1.4887 -0.3157
 5512TIP3   OH216541   3.768   0.690   0.681 -0.1997 -0.3927  0.1532
 5512TIP3    H116542   3.803   0.600   0.682  0.3593 -0.1803  0.1115
 5512TIP3    H216543   3.720   0.696   0.598  1.4131 -0.0524 -0.8073
 5513TIP3   OH216544   3.107   5.697   2.321  0.4940 -0.1259  0.0247
 5513TIP3    H116545   3.130   5.707   2.228  1.2161  0.4736  0.2562
 5513TIP3    H216546   3.110   5.787   2.355  0.0993 -0.3293  0.5982
 5514TIP3   OH216547   3.599   3.598   5.046  0.0210  0.1023  0.1884
 5514TIP3    H116548   3.600   3.608   5.142  1.2500  1.6045  0.0573
 5514TIP3    H216549   3.682   3.553   5.027 -0.1436 -0.0395 -0.1906
 5515TIP3   OH216550   5.296   5.243   2.223  0.3105 -0.4625  0.7288
 5515TIP3    H116551   5.331   5.331   2.211  0.0095 -0.4751 -0.4463
 5515TIP3    H216552   5.341   5.190   2.156  0.1059 -1.0799  1.0689
 5516TIP3   OH216553   2.465   3.490   3.021 -0.4423  0.1913  0.2562
 5516TIP3    H116554   2.423   3.509   3.105  0.1826  0.6521  0.4748
 5516TIP3    H216555   2.475   3.576   2.980 -1.9943 -0.1266 -0.9255
 5517TIP3   OH216556   4.862   3.696   4.634 -0.5605 -0.2334  0.6007
 5517TIP3    H116557   4.951   3.710   4.602 -0.3743 -0.8394  0.8466
 5517TIP3    H216558   4.862   3.732   4.723 -1.1225  1.5990 -0.0984
 5518TIP3   OH216559   2.383   2.901   2.684  0.1138 -0.1206  0.0237
 5518TIP3    H116560   2.385   2.975   2.743 -0.6992 -0.4980  0.5478
 5518TIP3    H216561   2.363   2.939   2.598 -2.5953  0.1054  0.6551
 5519TIP3   OH216562   6.282   1.009   0.830  0.1801  0.0631  0.1436
 5519TIP3    H116563   6.192   1.026   0.855  1.2908  1.1864  3.9916
 5519TIP3    H216564   6.285   1.031   0.737 -3.3410  0.4375 -0.0219
 5520TIP3   OH216565   4.179   5.684   0.630 -0.2993 -0.4917 -0.6215
 5520TIP3    H116566   4.120   5.749   0.668 -0.5190 -1.1954  0.2939
 5520TIP3    H216567   4.262   5.730   0.618 -0.7594  0.2450 -1.0068
 5521TIP3   OH216568   1.414   2.177   1.332 -0.1293 -0.2404 -0.8610
 5521TIP3    H116569   1.407   2.210   1.242 -0.4998 -1.1785 -1.1852
 5521TIP3    H216570   1.364   2.096   1.332  1.2317 -1.1082 -0.2207
 5522TIP3   OH216571   1.566   2.769   0.071  0.1601  0.2925 -0.3940
 5522TIP3    H116572   1.485   2.798   0.112  1.0718 -0.2660  2.0166
 5522TIP3    H216573   1.545   2.683   0.034  0.5638 -2.1556  4.3147
 5523TIP3   OH216574   5.026   0.583   2.571 -0.8014  0.3953  0.0134
 5523TIP3    H116575   4.954   0.554   2.626 -1.2402  2.1557  0.4330
 5523TIP3    H216576   5.081   0.635   2.629  0.2301 -0.0090 -0.5669
 5524TIP3   OH216577   0.635   1.768   2.689 -0.1980  0.4675 -0.2343
 5524TIP3    H116578   0.663   1.690   2.641  0.4821 -0.3468  1.4298
 5524TIP3    H216579   0.582   1.817   2.625  0.1613 -0.8559 -1.6117
 5525TIP3   OH216580   0.625   2.872   5.102  0.3930 -0.0517 -0.2416
 5525TIP3    H116581   0.547   2.914   5.137 -0.8528 -1.9965 -0.5091
 5525TIP3    H216582   0.614   2.877   5.007  1.4808  1.1671 -0.3267
 5526TIP3   OH216583   3.197   1.039   1.236  0.3918  0.3154  0.4601
 5526TIP3    H116584   3.290   1.059   1.230  0.3306  0.3239 -0.5786
 5526TIP3    H216585   3.183   0.967   1.174 -0.2905  0.2910  0.6265
 5527TIP3   OH216586   0.361   0.355   0.758 -0.3225 -0.4861  0.1054
 5527TIP3    H116587   0.382   0.264   0.737 -2.7440 -1.1407  0.1136
 5527TIP3    H216588   0.408   0.373   0.839 -0.4558 -2.0269  0.5507
 5528TIP3   OH216589   5.054   2.694   0.258  0.0813  0.4195 -0.1600
 5528TIP3    H116590   5.001   2.714   0.335 -0.6805  0.0833 -0.5795
 5528TIP3    H216591   5.024   2.607   0.231  0.2788  0.5712 -0.8802
 5529TIP3   OH216592   2.891   4.280   1.371  0.4955  0.5575  0.5241
 5529TIP3    H116593   2.917   4.339   1.300 -1.4478  0.1256 -0.5910
 5529TIP3    H216594   2.834   4.333   1.426 -0.4660  0.0346  0.0564
 5530TIP3   OH216595   1.710   3.342   1.763  0.1184 -0.5565 -0.8408
 5530TIP3    H116596   1.689   3.249   1.753  0.8388 -0.6763 -1.3038
 5530TIP3    H216597   1.758   3.364   1.684  1.3656 -0.1993 -0.0120
 5531TIP3   OH216598   0.570   5.056   2.929  0.4506 -0.3766 -0.0008
 5531TIP3    H116599   0.537   5.030   3.015 -0.8122  0.8774 -0.0778
 5531TIP3    H216600   0.634   5.125   2.947  1.4406 -1.2691  0.0080
 5532TIP3   OH216601   0.939   1.922   1.386  0.3182  0.1212 -0.1025
 5532TIP3    H116602   0.954   1.839   1.432 -0.5149 -0.1991 -0.3947
 5532TIP3    H216603   1.014   1.931   1.327  0.2972 -0.5382 -0.2366
 5533TIP3   OH216604   5.944   0.865  -0.014 -0.1232  0.3263 -0.6674
 5533TIP3    H116605   5.940   0.839   0.078 -0.0270  1.2809 -0.3809
 5533TIP3    H216606   5.940   0.783  -0.063 -1.1396 -0.1414  0.1618
 5534TIP3   OH216607   4.658   2.818   1.540 -0.2824 -0.0590  0.5749
 5534TIP3    H116608   4.667   2.821   1.635 -1.8894  1.2541  0.7369
 5534TIP3    H216609   4.615   2.734   1.522  1.4918 -1.0714  0.8007
 5535TIP3   OH216610   5.029   1.345   4.189  0.2310  0.1679 -0.4766
 5535TIP3    H116611   5.091   1.306   4.127 -1.1709 -3.1039 -0.0528
 5535TIP3    H216612   5.082   1.361   4.268  0.9757 -0.6403 -0.7876
 5536TIP3   OH216613   1.675   2.144   4.303  0.1772 -0.2600  0.2274
 5536TIP3    H116614   1.735   2.108   4.369  2.3368  0.1135 -1.4335
 5536TIP3    H216615   1.616   2.200   4.353  0.4064 -1.5934  2.1025
 5537TIP3   OH216616   0.400   2.670   0.739 -0.3236 -0.1939  0.0854
 5537TIP3    H116617   0.481   2.719   0.754  0.3631 -0.6446 -1.8702
 5537TIP3    H216618   0.424   2.579   0.756 -0.6069 -0.2563  0.1504
 5538TIP3   OH216619   3.232   0.697   0.017 -0.1317  0.3168 -0.6810
 5538TIP3    H116620   3.304   0.731   0.069  0.6298  1.1511 -2.2044
 5538TIP3    H216621   3.229   0.603   0.038 -0.3802  0.7424  1.4057
 5539TIP3   OH216622   0.926   2.804   1.188 -0.0975  0.9144  0.3495
 5539TIP3    H116623   0.923   2.846   1.102 -2.4083  1.3172  0.5721
 5539TIP3    H216624   0.977   2.724   1.174  2.6446  2.6498 -0.5450
 5540TIP3   OH216625   1.325   0.205   4.428 -0.4377  0.1856 -0.1405
 5540TIP3    H116626   1.304   0.286   4.381  0.6338 -0.1439 -1.2531
 5540TIP3    H216627   1.420   0.204   4.433 -0.4411 -0.9529 -0.0414
 5541TIP3   OH216628   5.757   4.471   0.936 -0.7882 -0.6129 -0.1394
 5541TIP3    H116629   5.684   4.433   0.887 -2.1450  0.5753  0.8791
 5541TIP3    H216630   5.795   4.536   0.877 -2.6623  1.0982  0.4119
 5542TIP3   OH216631   1.069   0.165   5.086  0.3892 -0.2576  0.3645
 5542TIP3    H116632   0.999   0.104   5.110  0.0477  0.0925  0.2609
 5542TIP3    H216633   1.069   0.165   4.991  0.0250  0.3185  0.3626
 5543TIP3   OH216634   0.147   5.882   1.373 -0.1389 -0.3778  0.5228
 5543TIP3    H116635   0.200   5.902   1.450  0.0828 -1.5489  0.6977
 5543TIP3    H216636   0.185   5.801   1.339 -0.6814 -0.2491 -0.4116
 5544TIP3   OH216637   2.148   4.552   0.709 -0.1219  0.6315  0.5883
 5544TIP3    H116638   2.209   4.484   0.680 -0.8579 -0.1060  0.7226
 5544TIP3    H216639   2.144   4.542   0.804 -0.4434  0.6831  0.5808
 5545TIP3   OH216640   0.046   0.097   2.561 -0.0539  0.0354  0.3068
 5545TIP3    H116641   0.038   0.025   2.498  1.4281 -1.1079  1.3639
 5545TIP3    H216642   0.092   0.166   2.512 -1.2780  0.2291 -0.6421
 5546TIP3   OH216643   0.668   3.684   4.391 -0.2359  0.2950 -0.6013
 5546TIP3    H116644   0.687   3.768   4.432 -0.3745  0.4340 -0.8204
 5546TIP3    H216645   0.627   3.707   4.307 -0.1526  0.0115 -0.7207
 5547TIP3   OH216646   3.707   1.367   3.749  0.7575  0.0313 -0.4243
 5547TIP3    H116647   3.666   1.404   3.671 -0.3157 -0.9271 -0.3347
 5547TIP3    H216648   3.672   1.279   3.756 -0.6308  0.6917  2.1574
 5548TIP3   OH216649   3.789   5.106   4.697 -0.3664 -0.0868  0.3621
 5548TIP3    H116650   3.805   5.196   4.726  1.2581  0.4621 -1.9356
 5548TIP3    H216651   3.782   5.112   4.602 -0.8733 -2.3176  0.1960
 5549TIP3   OH216652   0.514   5.052   0.080 -0.7395  0.2091 -0.0970
 5549TIP3    H116653   0.540   5.058  -0.012  0.6537 -3.4821 -0.1157
 5549TIP3    H216654   0.585   5.093   0.128 -1.1694  1.5839 -0.5771
 5550TIP3   OH216655   1.567   4.274   4.149 -0.3027  0.3637 -0.1390
 5550TIP3    H116656   1.550   4.223   4.228  0.1527  0.2844 -0.0928
 5550TIP3    H216657   1.555   4.365   4.177 -0.7306  0.3048 -0.1264
 5551TIP3   OH216658   1.658   3.652   1.620  0.3479  0.4247  0.3250
 5551TIP3    H116659   1.725   3.705   1.577  0.9294  1.3995  2.3484
 5551TIP3    H216660   1.700   3.620   1.700 -1.1751 -0.0822  0.9522
 5552TIP3   OH216661   0.295   5.120   3.522  0.0562  0.1267  0.2678
 5552TIP3    H116662   0.293   5.031   3.487  1.5317  0.2937 -0.2829
 5552TIP3    H216663   0.381   5.128   3.563  0.2154  1.5160 -0.2931
 5553TIP3   OH216664   5.056   0.231   4.409 -0.3294 -0.2383  0.3881
 5553TIP3    H116665   5.048   0.252   4.316  1.9296  0.4561  0.2955
 5553TIP3    H216666   5.112   0.154   4.411  0.0809  0.0782  1.2022
 5554TIP3   OH216667   5.321   4.903   1.353 -0.2833  0.0053 -0.0546
 5554TIP3    H116668   5.371   4.838   1.403  1.1080 -0.2834 -1.7035
 5554TIP3    H216669   5.373   4.983   1.359  0.7281 -0.4328 -2.2155
 5555TIP3   OH216670   0.096   3.377   1.255  0.0424  0.0590  0.2566
 5555TIP3    H116671   0.053   3.295   1.231 -0.9774  0.7573 -0.3751
 5555TIP3    H216672   0.152   3.353   1.329 -1.5324 -0.8758  1.2145
 5556TIP3   OH216673   2.123   3.670   3.259 -0.5191 -0.0112 -0.3426
 5556TIP3    H116674   2.074   3.741   3.302 -0.6157 -0.0639 -0.3639
 5556TIP3    H216675   2.115   3.689   3.165 -1.3716 -0.5784 -0.3987
 5557TIP3   OH216676   0.945   3.060   0.713 -0.3571  0.0201 -0.5839
 5557TIP3    H116677   0.952   3.135   0.773  0.8711  1.1216 -2.0429
 5557TIP3    H216678   0.929   3.099   0.627 -2.4845 -1.5454 -0.9717
 5558TIP3   OH216679   3.403   1.864   3.636  0.4187  0.9106 -0.0152
 5558TIP3    H116680   3.434   1.785   3.591 -0.0281  1.6667 -1.7069
 5558TIP3    H216681   3.312   1.844   3.658  0.2038  1.0811 -0.7453
 5559TIP3   OH216682   1.844   0.165   3.157  0.2466 -0.4973  0.4677
 5559TIP3    H116683   1.862   0.093   3.096 -0.1056 -0.5962  0.4757
 5559TIP3    H216684   1.808   0.121   3.235 -1.7216 -0.1949 -0.2116
 5560TIP3   OH216685  -0.009   5.347   2.555  0.2782  0.6495  0.4173
 5560TIP3    H116686   0.067   5.289   2.562  0.1622  0.4560  0.0711
 5560TIP3    H216687  -0.025   5.376   2.645 -1.1976 -1.8198  1.0726
 5561TIP3   OH216688   5.085   2.722   1.621 -0.6453  0.1480 -0.0768
 5561TIP3    H116689   5.095   2.748   1.712  0.5842 -0.3991 -0.0412
 5561TIP3    H216690   5.068   2.804   1.575  0.9753  0.7619  0.3421
 5562TIP3   OH216691   2.084   4.058   0.582 -0.0068  0.8707  0.7544
 5562TIP3    H116692   2.147   4.100   0.523 -0.8480  0.0934 -0.7420
 5562TIP3    H216693   2.135   3.993   0.630  0.3235  0.0971 -0.5998
 5563TIP3   OH216694   4.909   5.164   2.473 -0.0562  0.0500  0.4924
 5563TIP3    H116695   4.883   5.202   2.557  0.0554  1.9890 -0.2889
 5563TIP3    H216696   4.960   5.234   2.430 -0.9656 -0.5014 -1.5948
 5564TIP3   OH216697   4.311   3.252   1.263  0.1576  0.3961 -0.5258
 5564TIP3    H116698   4.231   3.303   1.262 -0.0376  0.0971 -0.2450
 5564TIP3    H216699   4.346   3.262   1.352  0.4214  0.5103 -0.6400
 5565TIP3   OH216700   4.479   0.015   4.400  0.8235  0.1574 -0.2828
 5565TIP3    H116701   4.449   0.036   4.488 -3.3880 -2.4316 -0.8141
 5565TIP3    H216702   4.518   0.096   4.368  0.3419  1.9084  3.1084
 5566TIP3   OH216703   2.608   4.961   2.341  0.1663  0.0569 -0.7572
 5566TIP3    H116704   2.564   5.012   2.409 -1.4095 -1.5973 -0.4438
 5566TIP3    H216705   2.538   4.935   2.281  1.0430 -0.9810 -1.3685
 5567TIP3   OH216706   0.135   3.029   3.549 -0.0453  0.5739 -0.0916
 5567TIP3    H116707   0.127   2.955   3.609  1.1688  0.3059 -0.2420
 5567TIP3    H216708   0.046   3.044   3.518 -0.3858 -0.5081  0.3197
 5568TIP3   OH216709   4.454   5.416   3.038  0.1140  0.4537  0.8840
 5568TIP3    H116710   4.485   5.410   3.128  1.1200  0.1854  0.5347
 5568TIP3    H216711   4.468   5.507   3.014  1.7765  0.1129  0.3667
 5569TIP3   OH216712   4.965   5.495   5.153 -0.5801  0.2504 -0.1354
 5569TIP3    H116713   4.999   5.433   5.089  0.3992  0.8449 -0.2047
 5569TIP3    H216714   4.952   5.576   5.104 -2.0020  0.0834 -0.0818
 5570TIP3   OH216715   2.395   5.783   0.837  0.8396 -0.2082  0.4324
 5570TIP3    H116716   2.477   5.734   0.847  0.0777 -1.5198  0.3342
 5570TIP3    H216717   2.391   5.803   0.743 -0.3140 -2.6314 -0.0990
 5571TIP3   OH216718   0.865   2.047   0.448 -0.2167  0.4221 -0.3388
 5571TIP3    H116719   0.866   1.962   0.493 -0.0771  1.1424  1.0689
 5571TIP3    H216720   0.787   2.091   0.482 -0.8236  0.5328 -1.7619
 5572TIP3   OH216721   3.928   5.021   0.339  0.3416 -0.3634  0.5240
 5572TIP3    H116722   3.845   5.045   0.381  0.6033  0.2845  0.6902
 5572TIP3    H216723   3.949   5.096   0.284  0.9159 -0.4394  0.6359
 5573TIP3   OH216724   5.894   3.331   0.146  0.0882 -0.2718 -0.8601
 5573TIP3    H116725   5.986   3.308   0.160 -0.2427 -0.4965  1.2654
 5573TIP3    H216726   5.868   3.378   0.226 -1.3292  0.8542 -1.9180
 5574TIP3   OH216727   3.996   3.082   0.497  0.2089 -0.3834 -0.3890
 5574TIP3    H116728   4.061   3.144   0.466  0.6685 -1.0465 -0.7789
 5574TIP3    H216729   3.917   3.134   0.510  0.4184  0.1780 -1.2781
 5575TIP3   OH216730   3.827   2.851   5.160 -0.5374 -0.0148 -0.6335
 5575TIP3    H116731   3.736   2.882   5.163 -0.5246  0.0950 -1.3336
 5575TIP3    H216732   3.820   2.756   5.161 -0.5963 -0.0301  0.9002
 5576TIP3   OH216733   5.403   3.381   4.730  0.2007  0.2774 -0.2770
 5576TIP3    H116734   5.452   3.453   4.691 -0.4251 -0.9793 -3.8060
 5576TIP3    H216735   5.311   3.402   4.713 -0.2765  0.4485  2.1884
 5577TIP3   OH216736   6.313   3.671   0.254  0.9136  0.2992 -0.3866
 5577TIP3    H116737   6.338   3.726   0.179  2.6869  2.5613  1.6902
 5577TIP3    H216738   6.226   3.702   0.279  0.2415 -0.5776 -1.5313
 5578TIP3   OH216739   0.044   0.261   0.121 -0.4524  0.0937  0.5148
 5578TIP3    H116740   0.115   0.205   0.089 -1.4012 -0.8988  0.1082
 5578TIP3    H216741   0.088   0.323   0.180  0.7538 -0.4715  0.2485
 5579TIP3   OH216742   5.724   1.885   3.537  0.3466 -0.7574  0.0152
 5579TIP3    H116743   5.642   1.881   3.487  0.9878 -1.4628 -1.0103
 5579TIP3    H216744   5.696   1.899   3.628 -0.9599 -1.7659 -0.1951
 5580TIP3   OH216745   1.708   4.791   1.414 -0.0719 -0.3643  0.2011
 5580TIP3    H116746   1.673   4.790   1.503 -0.6304 -1.3959 -0.0101
 5580TIP3    H216747   1.638   4.830   1.361  0.6681  1.2309  0.3487
 5581TIP3   OH216748   5.466   0.788   2.260 -0.2327  0.6989  0.0299
 5581TIP3    H116749   5.399   0.818   2.199  0.7296  1.0161 -0.8940
 5581TIP3    H216750   5.452   0.840   2.339 -1.7061  0.0446  0.2374
 5582TIP3   OH216751   1.463   4.160   3.071  0.2231  0.1838 -0.3436
 5582TIP3    H116752   1.506   4.121   2.995  2.2087  0.1362  0.7520
 5582TIP3    H216753   1.479   4.098   3.142 -0.1028  1.0510  0.5026
 5583TIP3   OH216754   5.829   5.261   2.848 -0.0810 -0.1837  0.2897
 5583TIP3    H116755   5.863   5.202   2.915 -0.2832 -0.6763 -0.0338
 5583TIP3    H216756   5.895   5.260   2.779  0.4923  0.9236  0.8088
 5584TIP3   OH216757   4.527   0.686   0.989  0.5542 -0.1632 -0.4437
 5584TIP3    H116758   4.517   0.592   0.976  1.2319 -0.1166 -1.3395
 5584TIP3    H216759   4.528   0.724   0.901 -0.3270  0.7579 -0.0831
 5585TIP3   OH216760   4.257   5.658   4.965  0.6905  0.2799  0.2490
 5585TIP3    H116761   4.343   5.636   5.000  0.4212  0.1233  0.8153
 5585TIP3    H216762   4.208   5.576   4.969  1.1353 -0.1746 -1.9687
 5586TIP3   OH216763   3.211   4.713   4.111  0.7996  0.6666  0.0024
 5586TIP3    H116764   3.271   4.677   4.046  1.5478  1.5024  0.2037
 5586TIP3    H216765   3.176   4.792   4.071 -2.3432 -1.1496 -1.2388
 5587TIP3   OH216766   1.395   1.940   4.583 -0.3873 -0.6628 -0.2029
 5587TIP3    H116767   1.306   1.939   4.619 -0.0136 -2.1925  0.7527
 5587TIP3    H216768   1.386   1.986   4.499 -2.1585 -1.1984 -0.3486
 5588TIP3   OH216769   5.198   5.129   4.156 -0.4628 -0.0822 -0.4177
 5588TIP3    H116770   5.260   5.056   4.154 -0.6276 -0.2884  0.8234
 5588TIP3    H216771   5.214   5.172   4.240 -2.7556 -0.8698  0.5266
 5589TIP3   OH216772   2.774   2.944   0.988  0.2616 -0.7697 -0.0033
 5589TIP3    H116773   2.786   2.857   0.950  1.3871 -0.3335 -0.6826
 5589TIP3    H216774   2.860   2.985   0.983  0.1151 -0.1557  1.7072
 5590TIP3   OH216775   2.477   2.522   0.094  0.1510  0.6282  0.6909
 5590TIP3    H116776   2.469   2.447   0.035  0.8748  0.0960  1.2525
 5590TIP3    H216777   2.430   2.495   0.173 -0.9392  1.3954  0.3196
 5591TIP3   OH216778   5.916   2.412   4.884  0.0078 -0.5195  0.0542
 5591TIP3    H116779   5.969   2.398   4.963  0.9877 -0.7641 -0.6348
 5591TIP3    H216780   5.843   2.467   4.914  0.7167 -0.0684  0.9979
 5592TIP3   OH216781   4.899   4.831   1.745  0.1202  0.1943  0.2678
 5592TIP3    H116782   4.947   4.809   1.825  0.1508  0.2655  0.2687
 5592TIP3    H216783   4.826   4.886   1.774 -0.7278 -0.9675  0.4406
 5593TIP3   OH216784   0.905   5.652   3.784  0.4077 -0.4814 -0.5173
 5593TIP3    H116785   0.887   5.600   3.706  0.4357 -1.6598  0.2457
 5593TIP3    H216786   1.001   5.657   3.787  0.4472  2.1530 -2.1910
 5594TIP3   OH216787   4.158   4.782   1.323 -0.0267 -0.1369  0.0037
 5594TIP3    H116788   4.139   4.703   1.273  0.6489  1.4050 -2.9171
 5594TIP3    H216789   4.226   4.827   1.272 -2.4463  3.7630 -0.1688
 5595TIP3   OH216790   0.212   4.230   0.479  0.1300 -0.3371 -0.8149
 5595TIP3    H116791   0.119   4.245   0.466  0.1310 -0.0019 -0.4418
 5595TIP3    H216792   0.255   4.305   0.437  0.1962 -0.0787 -0.2968
 5596TIP3   OH216793   1.900   4.052   3.473 -0.8931 -0.7399 -0.0420
 5596TIP3    H116794   1.991   4.050   3.503 -0.8081 -2.3694 -0.3109
 5596TIP3    H216795   1.849   4.016   3.546 -1.2547 -0.4188 -0.1286
 5597TIP3   OH216796   0.996   4.685   1.418 -0.3504 -0.2884 -0.5285
 5597TIP3    H116797   1.021   4.702   1.509 -2.1789  0.7044 -0.1568
 5597TIP3    H216798   1.043   4.751   1.367  1.3707 -1.3978 -0.4566
 5598TIP3   OH216799   1.228   2.538   4.609 -1.2006  0.2652  0.3052
 5598TIP3    H116800   1.273   2.456   4.633 -0.4262  0.5390 -0.1525
 5598TIP3    H216801   1.196   2.522   4.520  0.7314  1.1340 -0.6045
 5599TIP3   OH216802   2.710   2.375   2.181  0.3860  0.0501 -0.5184
 5599TIP3    H116803   2.734   2.282   2.177 -1.1455 -0.3260 -3.3512
 5599TIP3    H216804   2.788   2.421   2.151  0.1526 -0.5951 -2.1985
 5600TIP3   OH216805   2.052   1.189   2.792  0.1100 -0.0627 -0.1178
 5600TIP3    H116806   2.101   1.153   2.718  0.7098 -0.0068  0.2437
 5600TIP3    H216807   2.000   1.116   2.825 -1.4636  0.3041 -1.6146
 5601TIP3   OH216808   5.421   2.621   4.565 -0.5298  0.5179  0.3306
 5601TIP3    H116809   5.468   2.541   4.590  1.5171  1.8383  1.0056
 5601TIP3    H216810   5.437   2.631   4.471 -2.3298 -0.7815 -0.1472
 5602TIP3   OH216811   0.215   4.556   0.347  0.0746  0.1196 -0.7254
 5602TIP3    H116812   0.278   4.509   0.402  1.3472  0.3714 -1.9163
 5602TIP3    H216813   0.228   4.648   0.369 -0.8183  0.1042 -0.0478
 5603TIP3   OH216814   2.352   4.568   4.994 -0.1199 -0.1000  0.7151
 5603TIP3    H116815   2.261   4.538   4.995 -0.1705  0.0650  1.0450
 5603TIP3    H216816   2.390   4.524   4.918 -0.3773 -0.4650  0.7925
 5604TIP3   OH216817   3.307   5.780   1.453 -0.3875 -0.1349 -0.0928
 5604TIP3    H116818   3.387   5.729   1.441 -0.2763  0.0940 -0.3212
 5604TIP3    H216819   3.300   5.791   1.548 -0.6284 -0.9219 -0.0135
 5605TIP3   OH216820   1.961   0.009   1.315  0.1788 -0.0013  0.2968
 5605TIP3    H116821   1.978   0.104   1.315  0.0701  0.0189 -0.2467
 5605TIP3    H216822   2.028  -0.027   1.373 -1.3141  0.6773  2.5662
 5606TIP3   OH216823   3.619   4.260   3.967  0.2072 -0.2835 -0.0761
 5606TIP3    H116824   3.603   4.217   3.883  1.2530 -0.2394 -0.3105
 5606TIP3    H216825   3.714   4.267   3.973  0.1484 -0.3210  1.1385
 5607TIP3   OH216826   4.958   4.377   0.345  0.7583  0.0113 -0.3032
 5607TIP3    H116827   4.927   4.328   0.421  0.8564 -0.5932 -0.6469
 5607TIP3    H216828   4.895   4.449   0.336  1.0663  0.4268  0.6827
 5608TIP3   OH216829   1.647   1.848   4.535 -0.0461  0.3531  0.3299
 5608TIP3    H116830   1.559   1.869   4.566 -0.1314  0.6658 -0.1071
 5608TIP3    H216831   1.634   1.778   4.472 -0.0121  0.5602  0.0895
 5609TIP3   OH216832   4.564   0.037   1.433  0.5809 -0.3638  0.1544
 5609TIP3    H116833   4.644  -0.014   1.439 -0.2187 -1.9540 -1.6313
 5609TIP3    H216834   4.557   0.060   1.340  0.1263  1.7567  0.6551
 5610TIP3   OH216835   3.257   4.277   0.812 -0.3590 -0.4380  0.0071
 5610TIP3    H116836   3.299   4.282   0.898  1.4235  0.6005 -0.8822
 5610TIP3    H216837   3.169   4.312   0.826  0.2511  0.6921  1.2049
 5611TIP3   OH216838   2.053   4.646   1.723  0.5372  0.0419  0.3273
 5611TIP3    H116839   2.050   4.717   1.658  0.8408 -0.7964 -0.6208
 5611TIP3    H216840   1.961   4.621   1.734  0.4082  0.6875  0.8037
 5612TIP3   OH216841   0.465   4.684   1.266  0.1846  0.3627  0.3504
 5612TIP3    H116842   0.530   4.726   1.323  2.0337  1.3970 -2.3070
 5612TIP3    H216843   0.487   4.591   1.269 -0.0740  0.3216  1.6348
 5613TIP3   OH216844   2.039   4.478   1.987  0.3328 -0.5323  0.2930
 5613TIP3    H116845   2.119   4.491   1.936 -0.2181 -1.7004 -0.9114
 5613TIP3    H216846   2.005   4.567   2.000  1.2421 -0.1060 -0.1239
 5614TIP3   OH216847   0.821   3.551   1.283  0.4461  0.3871 -0.1258
 5614TIP3    H116848   0.856   3.604   1.211 -2.3288  0.9796 -1.1513
 5614TIP3    H216849   0.789   3.616   1.346 -0.7319 -0.0692 -0.2390
 5615TIP3   OH216850   1.755   2.760   3.757  0.0210  0.7891 -0.3693
 5615TIP3    H116851   1.850   2.767   3.758  0.0492  0.3754  0.1974
 5615TIP3    H216852   1.737   2.684   3.701  0.0153  0.9203 -0.5485
 5616TIP3   OH216853   0.028   3.107   1.391 -0.4969  0.1764 -0.3690
 5616TIP3    H116854   0.108   3.054   1.387 -0.1762  0.5380  0.7879
 5616TIP3    H216855  -0.019   3.085   1.311 -0.0994 -1.4119 -0.2029
 5617TIP3   OH216856   4.400   4.144   0.659  0.0649  0.2816 -0.2534
 5617TIP3    H116857   4.306   4.137   0.642  0.4058  0.0099 -2.1903
 5617TIP3    H216858   4.410   4.226   0.706 -1.0249  0.8719 -1.0210
 5618TIP3   OH216859   1.253   3.992   2.647 -1.2234 -0.1207  0.1493
 5618TIP3    H116860   1.191   3.993   2.573 -0.5516  0.9361 -0.4167
 5618TIP3    H216861   1.281   4.083   2.656  0.5336 -0.6292  0.1603
 5619TIP3   OH216862   0.328   0.474   1.839  0.3184  0.7903 -0.2917
 5619TIP3    H116863   0.278   0.472   1.921 -0.5781  0.9564 -0.8182
 5619TIP3    H216864   0.319   0.385   1.804  0.2431  0.8728 -0.4789
 5620TIP3   OH216865   5.946   3.390   4.790 -0.3063 -0.0950 -0.3022
 5620TIP3    H116866   6.036   3.396   4.756 -0.3292 -1.2459 -0.6211
 5620TIP3    H216867   5.953   3.326   4.861 -0.6876  0.5948  0.3596
 5621TIP3   OH216868   5.853   0.628   5.106  0.0481 -0.0661 -0.2953
 5621TIP3    H116869   5.824   0.675   5.183 -0.0690  1.1660 -1.0625
 5621TIP3    H216870   5.782   0.566   5.087 -0.6659  0.7634 -0.3611
 5622TIP3   OH216871   1.666   3.625   5.028  0.3524  0.0590  0.3375
 5622TIP3    H116872   1.580   3.596   5.059 -0.1999  0.8490 -0.3945
 5622TIP3    H216873   1.672   3.591   4.939  0.5186  0.5351  0.1630
 5623TIP3   OH216874   6.080   3.017   1.399 -0.5343 -0.0611 -0.4022
 5623TIP3    H116875   6.079   2.980   1.311 -0.2456  0.2782 -0.5544
 5623TIP3    H216876   6.173   3.020   1.423 -0.4392  1.5507 -0.8385
 5624TIP3   OH216877   2.249   1.524   3.866 -0.3626 -0.3925  0.2991
 5624TIP3    H116878   2.236   1.549   3.957 -0.4918  0.7235 -0.0103
 5624TIP3    H216879   2.205   1.439   3.858 -2.4044  0.5664  0.7238
 5625TIP3   OH216880   0.510   5.069   4.210 -0.6195 -0.3943  0.2273
 5625TIP3    H116881   0.572   5.044   4.279 -0.7496  0.0476  0.5054
 5625TIP3    H216882   0.437   5.008   4.222 -0.3465 -0.7608  0.0485
 5626TIP3   OH216883   1.110   4.943   3.540  0.0397 -0.1687  0.2540
 5626TIP3    H116884   1.205   4.931   3.540  0.1247  0.1524 -2.1459
 5626TIP3    H216885   1.077   4.874   3.598  1.5862 -1.9657 -0.9029
 5627TIP3   OH216886   3.679   1.109   2.920  0.1617  0.1719 -0.3746
 5627TIP3    H116887   3.609   1.047   2.900 -2.2573  2.6243  0.0087
 5627TIP3    H216888   3.690   1.159   2.839  3.3498 -1.7194 -1.2922
 5628TIP3   OH216889   4.357   4.329   0.307  0.3006 -0.2133  0.1145
 5628TIP3    H116890   4.339   4.422   0.293 -1.3197 -0.5141 -0.1082
 5628TIP3    H216891   4.366   4.293   0.219 -0.2201 -0.4417  0.1459
 5629TIP3   OH216892   4.710   4.201   1.536  1.1709 -0.0156 -0.3613
 5629TIP3    H116893   4.762   4.143   1.592 -0.2649 -0.1582  0.8821
 5629TIP3    H216894   4.653   4.142   1.487 -0.3211  0.2987  0.9309
 5630TIP3   OH216895   1.628   4.272   3.885 -0.3112 -0.1052 -0.2343
 5630TIP3    H116896   1.679   4.193   3.900 -1.2805 -0.5952  0.6900
 5630TIP3    H216897   1.585   4.288   3.970 -1.2881  0.5520 -0.8375
 5631TIP3   OH216898   4.034   3.011   5.060 -0.8004 -0.0386 -0.5181
 5631TIP3    H116899   3.973   2.949   5.102  0.1128 -1.6799 -1.5123
 5631TIP3    H216900   4.092   2.956   5.008  2.2939  1.3151  1.2196
 5632TIP3   OH216901   2.514   0.782   0.788  0.5961  0.3822  0.2147
 5632TIP3    H116902   2.513   0.739   0.703  4.0873  1.4268 -0.4920
 5632TIP3    H216903   2.572   0.728   0.842 -0.7823  0.2737  1.6824
 5633TIP3   OH216904   5.535   0.707   5.021 -0.0875 -0.2761  0.2416
 5633TIP3    H116905   5.495   0.717   5.107  1.1315 -1.5635  1.0033
 5633TIP3    H216906   5.470   0.741   4.960 -1.9510 -1.4486  1.4690
 5634TIP3   OH216907   0.397   5.975   0.843 -0.2871 -0.1575 -0.1957
 5634TIP3    H116908   0.314   5.940   0.875 -0.8864  1.7097  0.4099
 5634TIP3    H216909   0.446   5.998   0.922  0.7816 -1.1032 -0.5527
 5635TIP3   OH216910   4.195   2.490   0.792  0.1599 -0.0099  0.1458
 5635TIP3    H116911   4.136   2.415   0.783  0.4957 -0.4333  1.2829
 5635TIP3    H216912   4.267   2.470   0.732  1.0991 -1.4938  1.6524
 5636TIP3   OH216913   2.646   3.176   3.028 -0.4261 -0.2896  0.0887
 5636TIP3    H116914   2.673   3.267   3.012  0.3238 -0.4710  0.3009
 5636TIP3    H216915   2.617   3.176   3.120 -2.0676  0.1124 -0.3934
 5637TIP3   OH216916   5.494   1.679   2.190 -0.3879  0.3323 -0.6162
 5637TIP3    H116917   5.519   1.635   2.108  2.0901 -0.5933  0.5180
 5637TIP3    H216918   5.415   1.728   2.168  0.2557  0.2353 -3.5867
 5638TIP3   OH216919   4.120   5.927   4.651  0.7291 -0.0951  0.6111
 5638TIP3    H116920   4.095   6.019   4.663  0.1919 -0.0083 -0.9268
 5638TIP3    H216921   4.198   5.916   4.705  0.5616  1.1602  1.1364
 5639TIP3   OH216922   1.064   3.043   3.177 -0.2825  0.0858 -0.1521
 5639TIP3    H116923   1.105   2.958   3.192 -0.2775  0.2631  0.9146
 5639TIP3    H216924   1.000   3.027   3.109  1.5695 -0.1862 -1.9139
 5640TIP3   OH216925   3.383   3.844   4.440  0.6255  0.2463  0.2508
 5640TIP3    H116926   3.381   3.936   4.411 -1.2593 -0.2802 -1.5650
 5640TIP3    H216927   3.429   3.797   4.370 -0.8852 -0.5413 -0.2705
 5641TIP3   OH216928   2.060   5.147   4.556 -0.4710 -0.5103 -0.1635
 5641TIP3    H116929   2.018   5.186   4.633  0.9774 -0.5986  0.7078
 5641TIP3    H216930   1.992   5.149   4.488 -1.4706  0.4905  0.8176
 5642TIP3   OH216931   0.800   5.411   1.287  0.2787 -0.3761 -0.2447
 5642TIP3    H116932   0.709   5.428   1.313 -0.0371 -1.1389 -0.8420
 5642TIP3    H216933   0.838   5.367   1.363  0.5927  1.2639  0.6016
 5643TIP3   OH216934   5.379   5.012   2.103 -0.2649 -0.3466  0.0353
 5643TIP3    H116935   5.335   4.938   2.062  0.2458 -0.6407  0.0033
 5643TIP3    H216936   5.419   4.975   2.182  0.1149 -0.1437 -0.0576
 5644TIP3   OH216937   5.263   5.519   3.381 -0.0787 -0.3292  0.1332
 5644TIP3    H116938   5.170   5.512   3.359  0.1348 -0.6383 -0.7036
 5644TIP3    H216939   5.281   5.614   3.382 -0.6547 -0.2140  1.4458
 5645TIP3   OH216940   1.727   5.560   1.655 -0.0447  0.3044  0.3191
 5645TIP3    H116941   1.733   5.467   1.673 -0.1535  0.3258  0.4600
 5645TIP3    H216942   1.738   5.602   1.740  3.0910  0.5409 -0.0702
 5646TIP3   OH216943   2.609   0.774   3.057  0.1253 -0.3338 -0.4791
 5646TIP3    H116944   2.525   0.729   3.064 -0.3055  0.1661 -1.9406
 5646TIP3    H216945   2.618   0.822   3.139 -0.1245 -1.8457  0.4694
 5647TIP3   OH216946   6.237   1.708   2.035  0.7115  0.0666 -0.6537
 5647TIP3    H116947   6.183   1.671   2.104  2.3579  0.5290  0.9443
 5647TIP3    H216948   6.235   1.642   1.965 -1.3704 -0.1897 -0.4194
 5648TIP3   OH216949   2.619   0.651   1.881 -0.2457  0.0208  0.4033
 5648TIP3    H116950   2.571   0.724   1.920 -0.1883  0.3448 -0.1172
 5648TIP3    H216951   2.685   0.627   1.946  0.3457  1.0481  0.1895
 5649TIP3   OH216952   5.098   3.239   1.556 -0.7967 -0.2776 -0.4754
 5649TIP3    H116953   5.177   3.198   1.591 -0.1855  0.1095 -1.3638
 5649TIP3    H216954   5.096   3.325   1.596 -1.3514 -0.6690  0.3584
 5650TIP3   OH216955   3.777   3.355   2.834 -0.4478 -0.5916 -0.2685
 5650TIP3    H116956   3.844   3.416   2.801 -0.6281 -1.4558 -2.3924
 5650TIP3    H216957   3.827   3.278   2.861 -0.4667 -0.6963 -0.5301
 5651TIP3   OH216958   4.489   1.236   2.190  0.1095 -0.3596 -0.2371
 5651TIP3    H116959   4.474   1.198   2.276  1.9753  1.8540  1.1855
 5651TIP3    H216960   4.403   1.232   2.148 -1.4912  0.5527  2.6342
 5652TIP3   OH216961   5.758   0.071   3.652  0.4246 -0.3488  0.3195
 5652TIP3    H116962   5.837   0.096   3.699 -0.8620  0.9950  1.8715
 5652TIP3    H216963   5.692   0.134   3.680 -0.5903  0.2606 -2.9192
 5653TIP3   OH216964   3.081   3.277   4.378 -0.3383  0.3331 -0.0315
 5653TIP3    H116965   3.018   3.206   4.392  1.5511 -1.0468  2.1193
 5653TIP3    H216966   3.046   3.350   4.428 -0.1578 -0.5092  1.3839
 5654TIP3   OH216967   1.384   1.844   4.067  0.3982  0.0990 -0.2697
 5654TIP3    H116968   1.323   1.914   4.089  0.7999  0.8102 -1.3251
 5654TIP3    H216969   1.461   1.861   4.121  1.3237  1.7502 -1.9935
 5655TIP3   OH216970   0.379   2.309   1.196  0.8694 -0.2186  0.1447
 5655TIP3    H116971   0.360   2.232   1.249  1.3935  0.3216  1.1479
 5655TIP3    H216972   0.474   2.307   1.184  0.8722  0.2221  0.0841
 5656TIP3   OH216973   2.972   0.897   2.166 -0.2527  0.0303  0.2189
 5656TIP3    H116974   2.950   0.851   2.247  0.6991 -0.9162 -0.0330
 5656TIP3    H216975   2.892   0.944   2.143 -0.4818  0.4889  1.8083
 5657TIP3   OH216976   4.298   5.848   1.572  1.0020 -0.6166  0.0523
 5657TIP3    H116977   4.275   5.897   1.493 -0.3407 -0.6057  0.4307
 5657TIP3    H216978   4.216   5.808   1.601  1.7223 -1.6426  0.7523
 5658TIP3   OH216979   2.168   1.838   4.078  0.1238 -0.2878  0.3626
 5658TIP3    H116980   2.190   1.745   4.076 -0.6041 -0.4689  0.5578
 5658TIP3    H216981   2.233   1.879   4.021  0.0374 -1.0010 -0.2677
 5659TIP3   OH216982   6.186   0.937   3.051  0.4810 -0.2538  0.1809
 5659TIP3    H116983   6.246   0.862   3.049 -1.1362 -1.5979  0.0626
 5659TIP3    H216984   6.105   0.904   3.014 -0.5246  1.3718  0.8165
 5660TIP3   OH216985   4.877   3.871   0.847  0.8259 -0.1618  0.0427
 5660TIP3    H116986   4.964   3.858   0.886  1.0930  0.9751 -0.1407
 5660TIP3    H216987   4.858   3.788   0.804  2.1611 -0.1966 -0.5589
 5661TIP3   OH216988   0.007   1.268   3.923 -0.5918  0.4236 -0.5357
 5661TIP3    H116989   0.078   1.322   3.889  0.7849 -1.3338 -0.6247
 5661TIP3    H216990  -0.065   1.280   3.861  0.7775 -0.2756 -2.3234
 5662TIP3   OH216991   1.166   0.931   1.016 -0.6065 -0.0666  0.3159
 5662TIP3    H116992   1.120   0.849   1.035 -0.4805 -0.2809 -0.2822
 5662TIP3    H216993   1.106   0.999   1.046 -2.1616 -0.2675 -2.0789
 5663TIP3   OH216994   1.086   2.416   2.396 -0.4206  0.1027  0.3569
 5663TIP3    H116995   1.124   2.483   2.339 -2.4182 -0.7111 -2.1310
 5663TIP3    H216996   1.009   2.458   2.435 -0.1037  0.0748  1.0313
 5664TIP3   OH216997   6.303   5.865   3.586 -0.3474 -0.3323 -0.6027
 5664TIP3    H116998   6.357   5.818   3.649 -0.7763  0.3664  0.3004
 5664TIP3    H216999   6.288   5.802   3.515 -1.0659 -1.6367  0.6639
 5665TIP3   OH217000   1.740   5.283   1.753  0.3123 -0.3064 -0.3435
 5665TIP3    H117001   1.765   5.249   1.840  0.6439 -1.9646 -1.0378
 5665TIP3    H217002   1.657   5.239   1.734  0.2980 -0.0319 -0.9112
 5666TIP3   OH217003   1.822   2.124   3.845  0.1449  0.3439 -0.1213
 5666TIP3    H117004   1.813   2.044   3.794 -1.2722  0.2740  0.1785
 5666TIP3    H217005   1.759   2.185   3.805  1.4781  1.4545 -0.5913
 5667TIP3   OH217006   3.503   3.235   4.113 -0.7400 -0.1588 -0.2824
 5667TIP3    H117007   3.572   3.295   4.085 -1.7070  0.7791 -0.7209
 5667TIP3    H217008   3.422   3.277   4.087 -1.6329 -0.1132  2.2576
 5668TIP3   OH217009   3.722   3.379   3.117 -0.1536 -0.2554 -0.5097
 5668TIP3    H117010   3.716   3.392   3.022 -0.4222 -2.1474 -0.7786
 5668TIP3    H217011   3.634   3.353   3.143  0.2577 -1.1283  0.0295
 5669TIP3   OH217012   3.791   1.398   2.414 -0.2660 -0.3946 -0.2640
 5669TIP3    H117013   3.870   1.355   2.385  1.3834  1.9770  0.3872
 5669TIP3    H217014   3.794   1.394   2.510 -0.5237  0.3510 -0.2110
 5670TIP3   OH217015   4.925   2.444   5.141  0.3641  0.2774 -0.4674
 5670TIP3    H117016   4.850   2.459   5.198  1.3411  0.6860  0.7521
 5670TIP3    H217017   4.888   2.408   5.061 -0.9831 -1.2053  0.7575
 5671TIP3   OH217018   5.987   4.096   1.825  0.0278  0.4947  0.0792
 5671TIP3    H117019   5.971   4.141   1.742 -1.6542  0.8070  0.5359
 5671TIP3    H217020   5.960   4.006   1.809 -1.6234  0.8657  0.6587
 5672TIP3   OH217021   0.891   4.851   2.344  0.2413  0.2064 -0.0418
 5672TIP3    H117022   0.805   4.863   2.384  0.6899 -0.8291  1.3194
 5672TIP3    H217023   0.928   4.939   2.340 -0.4656  0.5323  0.3527
 5673TIP3   OH217024   0.547   5.334   1.890 -0.1505  0.3903 -0.1628
 5673TIP3    H117025   0.520   5.420   1.857  0.8668  0.9087  0.2884
 5673TIP3    H217026   0.574   5.286   1.811  0.8539  1.0958 -0.2802
 5674TIP3   OH217027   1.262   5.729   5.049  0.3317 -0.6634 -0.7017
 5674TIP3    H117028   1.237   5.642   5.079 -1.9993 -0.1364 -0.9119
 5674TIP3    H217029   1.334   5.754   5.107 -0.6049 -1.7470  1.0510
 5675TIP3   OH217030   1.202   2.842   1.563  1.0286 -0.0883  0.0304
 5675TIP3    H117031   1.163   2.816   1.647  2.0228 -1.0322  0.2168
 5675TIP3    H217032   1.293   2.861   1.584  1.0624  0.5892 -0.6794
 5676TIP3   OH217033   3.137   0.505   3.833 -0.2372 -0.0021  0.8136
 5676TIP3    H117034   3.116   0.571   3.768 -0.8792 -0.7332  0.2570
 5676TIP3    H217035   3.167   0.554   3.909 -3.2503  1.1299  1.4022
 5677TIP3   OH217036   2.638   3.083   1.874  0.1440 -0.2884  0.1784
 5677TIP3    H117037   2.670   3.132   1.950 -0.2866  0.1223  0.1021
 5677TIP3    H217038   2.713   3.075   1.816 -0.1386  1.7050 -0.5488
 5678TIP3   OH217039   0.835   0.334   1.550  0.0505 -0.4953  0.4420
 5678TIP3    H117040   0.851   0.409   1.607  1.0833  1.0375 -1.7120
 5678TIP3    H217041   0.891   0.265   1.586  1.7649  0.8574  0.5407
 5679TIP3   OH217042   1.934   1.386   3.702 -0.2756  0.7843 -0.8343
 5679TIP3    H117043   1.852   1.423   3.734 -1.5192 -1.1760 -1.5933
 5679TIP3    H217044   1.941   1.301   3.745  1.2521  0.7829 -1.0037
 5680TIP3   OH217045   1.672   1.519   3.752  0.1069  0.5044 -0.2407
 5680TIP3    H117046   1.627   1.574   3.687 -0.1209  1.2299  0.5219
 5680TIP3    H217047   1.635   1.431   3.738 -0.6127  0.8382 -0.4843
 5681TIP3   OH217048   1.075   5.514   1.709 -0.1026 -0.3654  0.3066
 5681TIP3    H117049   0.980   5.518   1.718 -0.1786 -1.5650  0.2268
 5681TIP3    H217050   1.106   5.485   1.795  0.4493  2.5023  1.1840
 5682TIP3   OH217051   3.402   0.559   3.696 -0.4767  0.4751  0.1913
 5682TIP3    H117052   3.345   0.483   3.686 -0.8833  0.7511  0.4029
 5682TIP3    H217053   3.377   0.597   3.780  0.5317  0.1720  0.6484
 5683TIP3   OH217054   1.713   1.793   1.039  0.4816 -0.4898 -0.6621
 5683TIP3    H117055   1.721   1.754   1.126  0.5210 -0.7286 -0.7706
 5683TIP3    H217056   1.641   1.745   0.998 -0.5008  0.6055 -0.2458
 5684TIP3   OH217057   3.450   1.740   5.116 -0.3794  0.0075  0.1263
 5684TIP3    H117058   3.458   1.737   5.212  1.3336 -0.9910 -0.0084
 5684TIP3    H217059   3.498   1.664   5.086  0.5671  1.2335 -1.6234
 5685TIP3   OH217060   4.495   2.982   4.626  0.1289 -0.2887 -0.3706
 5685TIP3    H117061   4.466   2.987   4.717  1.1727  0.7599 -0.0705
 5685TIP3    H217062   4.550   2.904   4.622 -0.9089 -1.0392 -0.4181
 5686TIP3   OH217063   5.685   3.475   4.407  0.1440 -0.1430 -0.1868
 5686TIP3    H117064   5.702   3.463   4.500 -0.2600 -2.1589 -0.3345
 5686TIP3    H217065   5.628   3.402   4.384  1.6886 -0.7398 -2.4047
 5687TIP3   OH217066   3.192   4.009   2.320  0.6923 -0.3231  0.1496
 5687TIP3    H117067   3.241   3.930   2.296  0.4407 -0.0320 -1.4161
 5687TIP3    H217068   3.258   4.070   2.352  1.0591 -0.6995  0.1123
 5688TIP3   OH217069   3.951   1.761   2.209 -0.3812 -0.0316 -0.0134
 5688TIP3    H117070   4.039   1.734   2.234 -0.7056  0.8641  2.3081
 5688TIP3    H217071   3.941   1.728   2.120  1.7471 -1.4178  0.1802
 5689TIP3   OH217072   5.229   4.565   1.364 -0.4835  0.1268  0.1014
 5689TIP3    H117073   5.179   4.486   1.381  0.4236 -0.1240  1.8395
 5689TIP3    H217074   5.163   4.631   1.342 -1.3647 -0.7421  0.0827
 5690TIP3   OH217075   5.290   3.082   2.694  0.6562  0.0845  0.4581
 5690TIP3    H117076   5.225   3.141   2.732 -0.8076 -1.0870 -0.1399
 5690TIP3    H217077   5.348   3.140   2.644 -1.2202  0.9544 -0.7979
 5691TIP3   OH217078   3.085   3.992   5.192  0.5899  0.0204  0.2786
 5691TIP3    H117079   3.062   4.033   5.108  2.7196 -0.7052 -0.7228
 5691TIP3    H217080   3.091   4.064   5.254  0.4677  0.7421 -0.5337
 5692TIP3   OH217081   1.668   3.522   2.081  0.3313  0.8184 -0.7166
 5692TIP3    H117082   1.724   3.563   2.015 -0.1344  0.5943 -1.2560
 5692TIP3    H217083   1.586   3.502   2.035  0.3588 -0.2520 -0.3324
 5693TIP3   OH217084   2.698   4.362   3.414 -0.1619  0.3236  0.6748
 5693TIP3    H117085   2.625   4.337   3.357  1.0783 -3.3843  0.4431
 5693TIP3    H217086   2.755   4.416   3.359 -0.9816  0.2456 -0.2619
 5694TIP3   OH217087   3.225   0.854   2.107 -0.2846 -0.1560  0.3174
 5694TIP3    H117088   3.140   0.890   2.132  0.1723 -0.0442  1.8197
 5694TIP3    H217089   3.210   0.812   2.022 -2.0202 -0.8160  0.9201
 5695TIP3   OH217090   3.887   0.989   3.311 -0.3550  0.1590  0.1191
 5695TIP3    H117091   3.914   1.002   3.220  0.7800 -2.0554  0.0692
 5695TIP3    H217092   3.882   0.894   3.321  1.3583  0.2392  2.8481
 5696TIP3   OH217093   5.737   5.152   4.278 -0.0671  0.1668 -0.5771
 5696TIP3    H117094   5.716   5.237   4.239 -0.7421 -0.4166 -1.5483
 5696TIP3    H217095   5.820   5.165   4.323  0.5967  0.9752 -1.9675
 5697TIP3   OH217096   5.991   1.346   2.859 -0.2062  0.1453 -0.4986
 5697TIP3    H117097   5.933   1.363   2.784  0.8562  0.2275 -1.3163
 5697TIP3    H217098   6.059   1.412   2.852  1.8378 -1.9377 -1.4834
 5698TIP3   OH217099   1.336   0.035   1.277 -0.5268 -0.3685  0.4337
 5698TIP3    H117100   1.297   0.071   1.357 -1.5687  1.6783 -0.9205
 5698TIP3    H217101   1.263   0.002   1.226  0.0592 -1.0850  0.0371
 5699TIP3   OH217102   3.658   0.307   1.909  0.2464  0.0703  0.0707
 5699TIP3    H117103   3.585   0.278   1.964  0.0688  0.2952 -0.0429
 5699TIP3    H217104   3.676   0.396   1.938  0.4856  0.0101  0.1061
 5700TIP3   OH217105   1.718   4.815   2.751 -0.1349  0.1596  0.9989
 5700TIP3    H117106   1.658   4.888   2.769  1.0415  1.5288 -0.3472
 5700TIP3    H217107   1.805   4.853   2.762  0.5012 -0.9827  0.0455
 5701TIP3   OH217108   0.531   4.446   0.108 -0.4824  0.0343  1.0400
 5701TIP3    H117109   0.553   4.469   0.018 -2.4536  0.4767  0.6269
 5701TIP3    H217110   0.610   4.466   0.158  0.7030 -0.3707 -0.5910
 5702TIP3   OH217111   2.727   5.668   1.904 -0.0385  0.1097  0.3571
 5702TIP3    H117112   2.677   5.587   1.914  0.7486 -0.7760 -2.0825
 5702TIP3    H217113   2.665   5.729   1.863  0.0912 -0.0742 -0.1106
 5703TIP3   OH217114   4.828   5.832   2.957  0.4084  0.4815  0.3176
 5703TIP3    H117115   4.893   5.789   2.902  0.7521  0.8192  0.4617
 5703TIP3    H217116   4.780   5.759   2.997  0.0352  0.2342 -0.5582
 5704TIP3   OH217117   1.330   1.724   1.200 -0.2444 -0.2823  0.2626
 5704TIP3    H117118   1.408   1.687   1.160 -0.5860 -0.6854 -0.0470
 5704TIP3    H217119   1.306   1.798   1.144 -0.1398 -0.2187  0.3026
 5705TIP3   OH217120   0.862   5.712   1.307 -0.2193 -0.5250 -0.0660
 5705TIP3    H117121   0.897   5.765   1.236  2.8798 -2.0331  0.1895
 5705TIP3    H217122   0.828   5.634   1.264 -0.7728 -0.2859 -0.0738
 5706TIP3   OH217123   2.582   4.346   0.538  0.0890 -0.3438  0.4228
 5706TIP3    H117124   2.550   4.295   0.464 -1.3178 -0.1870  0.8962
 5706TIP3    H217125   2.659   4.298   0.568 -0.4946 -1.5226  0.1052
 5707TIP3   OH217126   6.124   4.214   3.566  0.2653  0.0561 -0.0396
 5707TIP3    H117127   6.199   4.268   3.541  1.0406 -1.5718 -1.5186
 5707TIP3    H217128   6.049   4.256   3.524  0.6622  0.6080 -0.2136
 5708TIP3   OH217129   5.992   5.163   3.788  0.1033  0.2927  0.1324
 5708TIP3    H117130   5.973   5.069   3.791  0.8623 -0.0461 -2.6419
 5708TIP3    H217131   5.910   5.204   3.762  0.0589  0.2451  0.1996
 5709TIP3   OH217132   0.082   5.559   0.669 -0.2881 -0.3535 -0.4774
 5709TIP3    H117133   0.065   5.506   0.746 -0.4050 -1.8796 -1.5255
 5709TIP3    H217134   0.176   5.578   0.673 -0.1380 -1.1031 -0.3729
 5710TIP3   OH217135   4.186   4.177   1.901  0.0859 -0.6426  0.0115
 5710TIP3    H117136   4.243   4.184   1.824  0.1533 -1.2412  0.0031
 5710TIP3    H217137   4.171   4.083   1.911  0.7898 -0.6507  1.2386
 5711TIP3   OH217138   0.092   5.319   1.829 -0.0649  0.1513  0.0631
 5711TIP3    H117139   0.006   5.278   1.828 -0.0362  0.0975 -0.3414
 5711TIP3    H217140   0.147   5.258   1.879 -0.1329 -0.0848 -0.1452
 5712TIP3   OH217141   2.074   4.248   2.685 -0.8171  0.0329  0.1352
 5712TIP3    H117142   2.078   4.212   2.597 -0.9017  0.3512 -0.0037
 5712TIP3    H217143   2.119   4.332   2.679 -0.2932 -0.2131  0.5404
 5713TIP3   OH217144   0.367   0.896   4.526  0.3583 -0.2976  0.0716
 5713TIP3    H117145   0.296   0.929   4.471  0.3448  0.0934  0.3244
 5713TIP3    H217146   0.410   0.974   4.560  1.3319 -0.5073 -0.6144
 5714TIP3   OH217147   0.476   3.938   1.646  0.1740 -0.1258 -0.8543
 5714TIP3    H117148   0.423   3.870   1.604  0.0039 -1.7833  1.7910
 5714TIP3    H217149   0.418   4.014   1.653 -0.5275 -0.5927 -1.4973
 5715TIP3   OH217150   2.120   4.103   4.539 -0.4776  0.3677 -0.0892
 5715TIP3    H117151   2.093   4.194   4.527 -1.5260  0.1912  0.8158
 5715TIP3    H217152   2.073   4.055   4.470  1.3323  0.6920 -1.6257
 5716TIP3   OH217153   2.412   1.033   2.283  0.3622  0.2201  0.2068
 5716TIP3    H117154   2.438   0.975   2.354  0.1801  1.9616  1.7755
 5716TIP3    H217155   2.494   1.060   2.242  0.6291  0.7385  1.0546
 5717TIP3   OH217156   1.453   3.906   4.446 -0.5179 -0.0438 -0.0258
 5717TIP3    H117157   1.513   3.885   4.517 -1.4177  0.1951  0.8242
 5717TIP3    H217158   1.402   3.980   4.479 -0.2406  0.7644 -1.3345
 5718TIP3   OH217159   1.182   2.583   3.987  0.0243 -0.0459  0.1955
 5718TIP3    H117160   1.155   2.606   3.898 -1.6121 -1.1015  0.3951
 5718TIP3    H217161   1.197   2.668   4.030  1.4023  0.4771 -1.2142
 5719TIP3   OH217162   1.092   3.487   0.931 -0.1938 -0.0036 -0.4900
 5719TIP3    H117163   1.183   3.509   0.951 -0.0095 -0.4580 -0.8216
 5719TIP3    H217164   1.041   3.544   0.989  0.2843  0.7619 -0.8102
 5720TIP3   OH217165   0.273   4.464   1.141 -0.0873  0.3834 -0.2857
 5720TIP3    H117166   0.305   4.530   1.203  0.3254  0.1225 -0.2170
 5720TIP3    H217167   0.298   4.498   1.055  0.8532 -0.0662 -0.2030
 5721TIP3   OH217168   3.537   3.529   1.003 -0.6324 -0.0788  0.4091
 5721TIP3    H117169   3.568   3.440   1.015 -3.2482 -1.1531 -0.2088
 5721TIP3    H217170   3.541   3.567   1.091 -2.6119 -1.9583  1.4060
 5722TIP3   OH217171   0.899   5.823   2.105 -0.2885 -0.0042  0.1445
 5722TIP3    H117172   0.836   5.758   2.136 -1.5880  1.6337  1.0447
 5722TIP3    H217173   0.856   5.907   2.117  1.3946  1.0659 -0.8895
 5723TIP3   OH217174   5.696   3.066   3.029 -0.4117 -0.6135  0.5050
 5723TIP3    H117175   5.769   3.076   2.968 -0.5611  0.3390  0.4742
 5723TIP3    H217176   5.736   3.033   3.109 -0.1010 -1.1130  0.1482
 5724TIP3   OH217177   2.455   5.670   1.194  0.0145  0.1599 -0.0125
 5724TIP3    H117178   2.491   5.671   1.105 -0.1019  1.7629 -0.0679
 5724TIP3    H217179   2.531   5.686   1.250 -0.2654  1.5723 -0.0032
 5725TIP3   OH217180   5.232   0.737   3.155 -0.1159  0.0789  0.2752
 5725TIP3    H117181   5.200   0.659   3.201  0.4332  0.1434  0.7852
 5725TIP3    H217182   5.162   0.760   3.094 -0.0235 -1.1743 -0.3267
 5726TIP3   OH217183   2.947   0.497   0.359 -0.1814 -0.3505  0.3708
 5726TIP3    H117184   2.914   0.497   0.449 -0.7704 -3.2173  0.2420
 5726TIP3    H217185   3.009   0.423   0.356  1.7355  1.1966 -0.9781
 5727TIP3   OH217186   0.806   1.733   3.823 -0.2091  0.4176  0.5112
 5727TIP3    H117187   0.830   1.825   3.817  0.7205  0.1683  0.2464
 5727TIP3    H217188   0.710   1.733   3.825 -0.2104  1.4467  1.6241
 5728TIP3   OH217189   1.783   1.166   0.863 -0.2072  0.0332 -0.0410
 5728TIP3    H117190   1.701   1.202   0.898 -0.8360 -0.5887 -0.8449
 5728TIP3    H217191   1.806   1.225   0.792  0.7021  0.8979  0.9391
 5729TIP3   OH217192   4.814   0.637   1.556 -0.1898 -0.1646 -0.7039
 5729TIP3    H117193   4.872   0.602   1.490  0.6063  2.5190 -1.5778
 5729TIP3    H217194   4.847   0.726   1.572 -2.0983  0.2962  1.1735
 5730TIP3   OH217195   5.225   0.071   4.737 -0.1618 -0.3446  0.3433
 5730TIP3    H117196   5.213   0.153   4.690  1.0544 -0.8238 -0.9155
 5730TIP3    H217197   5.233   0.096   4.829  0.5579  0.9977 -0.0540
 5731TIP3   OH217198   1.612   0.619   4.102 -0.9807  0.3748 -0.3594
 5731TIP3    H117199   1.571   0.657   4.180  0.2096  3.2019 -0.9871
 5731TIP3    H217200   1.705   0.614   4.123 -0.7684  0.3327 -1.2584
 5732TIP3   OH217201   1.222   4.043   2.079 -0.4866  0.3673  0.1309
 5732TIP3    H117202   1.148   4.047   2.140 -0.9802  0.0814 -0.4464
 5732TIP3    H217203   1.216   3.956   2.040  0.8936 -0.1533  0.9874
 5733TIP3   OH217204   5.212   4.896   4.466 -0.2771 -0.0709 -0.5330
 5733TIP3    H117205   5.262   4.897   4.384 -1.9152 -1.4699 -1.6163
 5733TIP3    H217206   5.195   4.803   4.482  2.3745 -0.1253  2.9818
 5734TIP3   OH217207   0.976   2.618   0.059  0.4124  0.1361 -0.6626
 5734TIP3    H117208   1.044   2.623   0.126 -0.0906 -2.0685  0.0907
 5734TIP3    H217209   1.019   2.649  -0.021  1.4270  1.4763  0.3534
 5735TIP3   OH217210   3.311   1.598   2.692  0.4100  0.1941  0.3742
 5735TIP3    H117211   3.291   1.639   2.607  0.7908 -0.2044  0.0866
 5735TIP3    H217212   3.334   1.508   2.670 -0.5234 -0.2150  1.0102
 5736TIP3   OH217213   3.005   3.961   0.126 -0.0743  0.5525 -0.5988
 5736TIP3    H117214   3.074   3.928   0.184  1.7747  0.4658 -2.7487
 5736TIP3    H217215   2.987   3.888   0.067 -0.5065  1.2795 -1.3776
 5737TIP3   OH217216   2.338   1.018   0.712 -0.3713  0.9719 -0.1809
 5737TIP3    H117217   2.374   1.032   0.625 -0.5652  1.2015 -0.2280
 5737TIP3    H217218   2.401   0.962   0.756 -0.0072  1.2929 -0.2911
 5738TIP3   OH217219   5.623   2.244   1.234 -0.1687  0.2312  0.5150
 5738TIP3    H117220   5.529   2.261   1.240 -0.4702 -0.5299 -1.2166
 5738TIP3    H217221   5.643   2.190   1.310 -1.1604  0.3130  0.8500
 5739TIP3   OH217222   0.837   4.822   3.360  0.1351 -0.1020 -0.7429
 5739TIP3    H117223   0.878   4.909   3.367 -0.4031  0.0455  1.0705
 5739TIP3    H217224   0.852   4.796   3.269 -0.9468  2.5049 -1.7572
 5740TIP3   OH217225   4.759   4.070   1.955  0.0254  0.3720  0.5381
 5740TIP3    H117226   4.775   3.994   2.011 -1.7116 -2.5238 -2.5512
 5740TIP3    H217227   4.671   4.099   1.979 -1.3543 -1.8175 -1.4356
 5741TIP3   OH217228   0.105   5.318   4.692  0.0200 -0.0127  0.4103
 5741TIP3    H117229   0.188   5.336   4.737  0.6504  4.0487 -1.9301
 5741TIP3    H217230   0.131   5.299   4.602 -1.5583  1.3932 -0.3783
 5742TIP3   OH217231   0.514   4.085   4.877  0.4562 -0.0972 -0.0117
 5742TIP3    H117232   0.574   4.029   4.926 -0.2174  0.2769  1.2895
 5742TIP3    H217233   0.555   4.171   4.879  1.2868 -0.4046 -1.6578
 5743TIP3   OH217234   0.062   3.846   0.083 -0.0589 -0.0126 -0.6971
 5743TIP3    H117235   0.055   3.808  -0.004  0.3222 -1.6194 -0.0612
 5743TIP3    H217236   0.126   3.917   0.075 -0.5059  0.2805 -1.8293
 5744TIP3   OH217237   5.774   2.521   4.479 -0.2357 -0.3709 -0.0405
 5744TIP3    H117238   5.867   2.537   4.494  0.1714 -1.5963 -1.0903
 5744TIP3    H217239   5.745   2.472   4.556  0.0782 -0.3440  0.0944
 5745TIP3   OH217240   5.358   3.685   3.752  0.0493 -0.4138  0.3537
 5745TIP3    H117241   5.304   3.734   3.690  1.3608 -1.5185 -1.7744
 5745TIP3    H217242   5.439   3.735   3.757  0.0057 -0.4018  1.1498
 5746TIP3   OH217243   3.222   0.422   0.116  0.1701 -0.2496 -0.4940
 5746TIP3    H117244   3.291   0.377   0.067 -0.1124  0.6212 -1.7423
 5746TIP3    H217245   3.265   0.454   0.195  1.2399  0.3355 -1.2823
 5747TIP3   OH217246   0.714   1.343   0.389 -0.1310  0.0681 -0.1607
 5747TIP3    H117247   0.633   1.346   0.440  0.3184  1.8745  0.5273
 5747TIP3    H217248   0.694   1.391   0.308  0.2516  0.5933  0.0482
 5748TIP3   OH217249   4.759   4.385   2.238  0.2234 -0.3451 -0.1441
 5748TIP3    H117250   4.845   4.416   2.207 -0.0246 -0.1076 -0.6072
 5748TIP3    H217251   4.754   4.415   2.329  0.2512  0.4342 -0.3972
 5749TIP3   OH217252   0.184   1.068   3.610  0.1663  0.3085  0.5030
 5749TIP3    H117253   0.135   1.146   3.634 -0.7387 -0.2884  0.6078
 5749TIP3    H217254   0.208   1.027   3.693 -0.2918 -0.0999  0.4373
 5750TIP3   OH217255   1.491   3.295   2.207  0.4077  0.3187 -0.0651
 5750TIP3    H117256   1.427   3.353   2.166 -1.9121 -0.9214  1.5471
 5750TIP3    H217257   1.458   3.283   2.296  1.8855 -1.8488  0.2566
 5751TIP3   OH217258   0.877   4.830   4.710  0.1504  0.6870 -0.4449
 5751TIP3    H117259   0.877   4.745   4.664 -0.3179  0.2436  0.3403
 5751TIP3    H217260   0.920   4.890   4.650  0.3849 -0.0876 -1.0707
 5752TIP3   OH217261   0.829   0.449   4.798  0.1683  0.3922  0.0535
 5752TIP3    H117262   0.916   0.465   4.761 -0.0715  0.1808 -0.6098
 5752TIP3    H217263   0.830   0.357   4.822  0.7638  0.8008  1.7927
 5753TIP3   OH217264   5.154   4.906   3.875  0.6265  0.2123  0.0534
 5753TIP3    H117265   5.126   4.931   3.963  0.3479 -1.0718  0.3560
 5753TIP3    H217266   5.198   4.983   3.841 -1.7460  1.7663  0.2258
 5754TIP3   OH217267   3.976   4.006   1.548 -0.2091 -0.4572  0.0276
 5754TIP3    H117268   3.884   4.029   1.537  0.3381  2.3988  0.5273
 5754TIP3    H217269   3.975   3.928   1.604 -2.3053 -0.8872 -0.5418
 5755TIP3   OH217270   1.306   4.487   0.386 -0.0809 -0.9376  0.5340
 5755TIP3    H117271   1.221   4.529   0.396  0.0871 -0.7276  1.1521
 5755TIP3    H217272   1.314   4.469   0.292 -0.4358 -0.1830  0.3573
 5756TIP3   OH217273   2.528   1.589   3.015 -0.0068  0.0760 -0.2442
 5756TIP3    H117274   2.569   1.524   3.072  0.9488  0.3986 -0.5546
 5756TIP3    H217275   2.578   1.669   3.031 -1.4410  0.8649  0.4551
 5757TIP3   OH217276   2.820   2.780   4.310  0.1550 -0.1795 -0.2808
 5757TIP3    H117277   2.839   2.718   4.380 -1.3639  2.3135  2.5690
 5757TIP3    H217278   2.734   2.754   4.278 -0.1952  0.0551  0.4567
 5758TIP3   OH217279   0.793   3.952   3.549  0.1618 -0.0907 -0.1652
 5758TIP3    H117280   0.829   3.899   3.621 -2.5187 -0.6021  0.9155
 5758TIP3    H217281   0.721   4.000   3.589  0.3130  1.7290 -1.9524
 5759TIP3   OH217282   1.945   2.064   2.478  0.3223  0.2226  0.5274
 5759TIP3    H117283   1.914   2.016   2.555 -1.2717  0.6505  0.1958
 5759TIP3    H217284   1.899   2.148   2.482  0.2747  0.2894 -0.8195
 5760TIP3   OH217285   2.997   0.381   2.031  0.4472 -0.8411 -0.6406
 5760TIP3    H117286   3.064   0.432   2.076  0.3228 -0.9935 -0.2828
 5760TIP3    H217287   3.036   0.360   1.946  0.3421  0.2046 -0.9652
 5761TIP3   OH217288   2.546   3.834   1.454 -0.3190 -0.4161  0.1704
 5761TIP3    H117289   2.626   3.884   1.440 -0.5240  0.3690  1.5368
 5761TIP3    H217290   2.480   3.879   1.401 -0.2600  0.1251  0.5409
 5762TIP3   OH217291   2.146   2.366   0.065 -0.4865 -0.4763 -0.2372
 5762TIP3    H117292   2.134   2.361  -0.029 -0.9276 -1.9311 -0.1226
 5762TIP3    H217293   2.152   2.460   0.084  1.3688 -0.1860 -1.9166
 5763TIP3   OH217294   3.489   3.694   2.880 -0.4065  0.1358  0.4037
 5763TIP3    H117295   3.493   3.603   2.850  0.0315  0.2674  0.0557
 5763TIP3    H217296   3.537   3.743   2.814 -3.1446  1.0438 -1.0707
 5764TIP3   OH217297   6.065   3.445   0.763  0.3449  0.0288 -0.8009
 5764TIP3    H117298   6.033   3.355   0.758 -0.9646  0.5027 -1.3137
 5764TIP3    H217299   6.089   3.467   0.673  4.1821 -0.9747 -0.1855
 5765TIP3   OH217300   3.452   5.885   3.492 -0.3117 -0.4311 -0.3323
 5765TIP3    H117301   3.521   5.943   3.525 -0.2320  0.0681 -1.3515
 5765TIP3    H217302   3.386   5.885   3.562  0.9548 -1.3969  0.9300
 5766TIP3   OH217303   2.590   0.394   4.894  0.3215 -0.4587  1.0277
 5766TIP3    H117304   2.513   0.363   4.846 -1.1576  2.3301  1.3910
 5766TIP3    H217305   2.649   0.427   4.825  1.0881 -2.1627  0.7901
 5767TIP3   OH217306   5.582   3.003   2.324  0.5324  0.3845 -0.3121
 5767TIP3    H117307   5.617   3.056   2.396  0.9763 -0.1903 -0.0934
 5767TIP3    H217308   5.659   2.980   2.272  0.4450 -0.5676 -0.0478
 5768TIP3   OH217309   2.623   2.373   4.656 -0.4165  0.1728  0.1074
 5768TIP3    H117310   2.596   2.303   4.596  0.5789 -0.4281  0.3391
 5768TIP3    H217311   2.541   2.411   4.686 -0.9715 -0.6399 -0.3290
 5769TIP3   OH217312   3.007   5.409   2.583 -0.4096  0.3648 -0.5140
 5769TIP3    H117313   3.092   5.432   2.545  0.5581  1.5407  2.1637
 5769TIP3    H217314   2.944   5.461   2.533  0.1471 -1.4799 -3.4261
 5770TIP3   OH217315   5.013   0.707   0.247 -0.1949  0.3117  0.0018
 5770TIP3    H117316   4.961   0.782   0.276 -0.5717 -0.3820  1.1741
 5770TIP3    H217317   5.100   0.743   0.231 -0.7221  1.2606 -0.8639
 5771TIP3   OH217318   6.320   5.888   2.602 -0.6800  0.1919  0.3585
 5771TIP3    H117319   6.232   5.924   2.609 -0.1000  1.8944 -0.5547
 5771TIP3    H217320   6.344   5.867   2.693 -1.1146  2.0569  0.9492
 5772TIP3   OH217321   1.177   5.073   3.142 -0.0652  0.1489  0.0760
 5772TIP3    H117322   1.142   4.988   3.116 -0.7343  0.6712 -0.8043
 5772TIP3    H217323   1.126   5.099   3.218 -0.1031 -0.0731  0.1258
 5773TIP3   OH217324   3.678   4.893   3.837 -0.1618  0.1632 -0.0030
 5773TIP3    H117325   3.602   4.889   3.779  0.6222  0.6337 -1.0858
 5773TIP3    H217326   3.741   4.833   3.798 -0.0893 -0.5060  1.0906
 5774TIP3   OH217327   0.657   3.714   1.504  0.0635 -0.5349 -0.3825
 5774TIP3    H117328   0.566   3.687   1.514 -0.5469  0.8302 -1.8632
 5774TIP3    H217329   0.653   3.795   1.453  1.9751  0.6937  1.2552
 5775TIP3   OH217330   6.018   4.935   5.120  0.4310 -0.1824 -0.0380
 5775TIP3    H117331   5.972   5.016   5.142  0.8144  0.0538 -0.0903
 5775TIP3    H217332   5.994   4.874   5.189  1.9785  0.6828  1.3094
 5776TIP3   OH217333   5.562   1.064   1.186 -0.6203  0.0341 -0.0359
 5776TIP3    H117334   5.628   0.999   1.161  1.7297  3.0864 -2.6418
 5776TIP3    H217335   5.507   1.074   1.109 -1.8642  0.1482  0.8394
 5777TIP3   OH217336   6.004   4.521   0.412 -0.2113  0.5020  0.0632
 5777TIP3    H117337   6.003   4.445   0.471 -0.9789 -0.8783 -1.6320
 5777TIP3    H217338   6.069   4.498   0.346 -0.5770  1.2543 -0.5625
 5778TIP3   OH217339   0.350   2.599   4.958  0.2707  0.5616  0.1465
 5778TIP3    H117340   0.432   2.553   4.940 -0.3340  0.1107 -1.6534
 5778TIP3    H217341   0.370   2.691   4.942  0.5306  0.5066  0.1503
 5779TIP3   OH217342   1.084   0.129   4.265  0.1731  0.2114  0.4190
 5779TIP3    H117343   1.172   0.092   4.259 -0.4161 -1.3478  0.8798
 5779TIP3    H217344   1.094   0.220   4.238  1.7120 -0.2499 -0.7138
 5780TIP3   OH217345   1.935   4.771   3.019  0.6860 -0.2252  0.0712
 5780TIP3    H117346   2.008   4.760   3.080  1.3869  0.9775 -0.5122
 5780TIP3    H217347   1.884   4.690   3.027 -0.1972  0.5075  3.4757
 5781TIP3   OH217348   5.567   3.505   1.605  0.7683  0.1168 -0.0037
 5781TIP3    H117349   5.587   3.526   1.697  0.2161  0.8441 -0.0486
 5781TIP3    H217350   5.648   3.466   1.572  0.3478 -2.1023  1.3673
 5782TIP3   OH217351   0.696   3.436   2.115  0.4547  0.2002 -0.2961
 5782TIP3    H117352   0.645   3.436   2.196  2.0322 -0.8882  0.7702
 5782TIP3    H217353   0.758   3.364   2.126  0.8104  0.1075 -2.4395
 5783TIP3   OH217354   5.917   3.305   2.162  0.5026  0.2546  0.2385
 5783TIP3    H117355   5.966   3.242   2.109 -1.5660 -1.0522 -0.2128
 5783TIP3    H217356   5.925   3.271   2.252  0.6707  0.2318  0.2167
 5784TIP3   OH217357   4.026   5.789   2.828  0.0527  0.4432 -0.0477
 5784TIP3    H117358   4.089   5.755   2.891 -0.7685  0.0699  0.5946
 5784TIP3    H217359   4.067   5.774   2.742  0.2294 -1.1218  0.2696
 5785TIP3   OH217360   5.275   4.482   0.637 -0.9019  0.4874 -0.0756
 5785TIP3    H117361   5.237   4.423   0.572  1.3983 -0.9623 -0.2258
 5785TIP3    H217362   5.213   4.481   0.709 -1.7733 -0.7409 -0.7971
 5786TIP3   OH217363   0.437   4.402   3.108 -0.2665 -0.2333 -0.3419
 5786TIP3    H117364   0.454   4.367   3.195 -0.0134 -2.2803 -1.1590
 5786TIP3    H217365   0.352   4.368   3.083 -1.1266  1.7143 -0.2920
 5787TIP3   OH217366   4.024   4.863   1.544 -0.1293 -0.1315  0.5210
 5787TIP3    H117367   3.934   4.860   1.512  0.7245  1.6835 -2.5358
 5787TIP3    H217368   4.075   4.824   1.473  1.6753  1.1341  1.0566
 5788TIP3   OH217369   2.044   0.386   4.099 -0.0420 -0.0354 -0.3903
 5788TIP3    H117370   1.978   0.318   4.085 -0.9990  0.3792  1.6693
 5788TIP3    H217371   2.032   0.412   4.191  2.1833  0.9249 -0.3158
 5789TIP3   OH217372   2.298   2.465   1.664  0.2670  0.4455 -0.0837
 5789TIP3    H117373   2.210   2.504   1.669  0.0589  0.2222 -1.6136
 5789TIP3    H217374   2.348   2.510   1.732 -0.6515  1.5923 -0.1386
 5790TIP3   OH217375   1.455   4.353   3.519  0.2933 -0.8138  0.3436
 5790TIP3    H117376   1.430   4.270   3.559  0.0619 -2.4393 -2.8088
 5790TIP3    H217377   1.379   4.377   3.465  0.3918  1.4624  1.0994
 5791TIP3   OH217378   6.048   3.432   2.536 -0.4589 -0.6402  0.3998
 5791TIP3    H117379   6.054   3.513   2.587  0.5038  0.1720 -0.9490
 5791TIP3    H217380   6.113   3.374   2.576  2.5157  1.0364 -1.6102
 5792TIP3   OH217381   3.754   1.896   3.369  0.0045  0.0771  0.1374
 5792TIP3    H117382   3.769   1.884   3.463 -2.2812 -0.1394  0.5481
 5792TIP3    H217383   3.699   1.822   3.344  0.6003  0.1122 -1.4106
 5793TIP3   OH217384   0.197   5.557   4.309 -0.0345  0.5461  0.7769
 5793TIP3    H117385   0.143   5.580   4.384  1.6877  0.3515  2.1507
 5793TIP3    H217386   0.270   5.620   4.312  1.0587 -0.6513  0.4083
 5794TIP3   OH217387   3.086   3.708   3.263  0.0909 -0.0147 -0.1352
 5794TIP3    H117388   3.048   3.795   3.264 -1.0540 -0.4533 -1.6106
 5794TIP3    H217389   3.167   3.716   3.314 -1.4303  1.1882  2.2667
 5795TIP3   OH217390   3.744   5.749   1.882  0.5124  0.2170  0.1537
 5795TIP3    H117391   3.713   5.832   1.919 -1.1166 -0.4922  0.4879
 5795TIP3    H217392   3.774   5.772   1.794  3.2533  1.7084  1.3352
 5796TIP3   OH217393   5.984   4.540   1.651 -0.7796  0.1573  0.3277
 5796TIP3    H117394   6.011   4.450   1.668 -0.2795  0.4455  1.1143
 5796TIP3    H217395   6.065   4.584   1.622 -0.7161  0.6782  1.2766
 5797TIP3   OH217396   5.816   0.593   1.697  0.5682 -0.2895 -0.0945
 5797TIP3    H117397   5.758   0.590   1.773 -0.4883 -0.4221 -0.8873
 5797TIP3    H217398   5.759   0.572   1.622  1.5342  0.0609 -0.9483
 5798TIP3   OH217399   1.438   3.590   3.997  0.3255  0.3422 -0.2332
 5798TIP3    H117400   1.518   3.591   4.049  0.3538 -4.0132  0.1495
 5798TIP3    H217401   1.367   3.593   4.061  0.2031  0.9267 -0.3850
 5799TIP3   OH217402   1.087   3.269   2.126 -0.0528  0.0475  0.6843
 5799TIP3    H117403   1.155   3.224   2.177  0.3456  0.3895  0.4617
 5799TIP3    H217404   1.134   3.339   2.081 -0.3214 -0.5289 -0.5125
 5800TIP3   OH217405   3.466   5.326   3.221 -0.0611 -0.0792 -0.4198
 5800TIP3    H117406   3.465   5.414   3.260  0.5824  0.2989 -1.2364
 5800TIP3    H217407   3.413   5.334   3.142 -0.7890 -0.6719 -0.0035
 5801TIP3   OH217408   4.443   0.653   4.470  0.3815  0.1565  0.5836
 5801TIP3    H117409   4.467   0.696   4.388  0.1468 -0.3283  0.2566
 5801TIP3    H217410   4.399   0.722   4.520  1.4754  0.7506  0.7506
 5802TIP3   OH217411   5.506   2.011   3.249 -0.7412  0.4460 -0.1910
 5802TIP3    H117412   5.439   2.076   3.270  0.5466  1.7426  0.0681
 5802TIP3    H217413   5.483   1.934   3.301 -1.7073  1.0615  0.3045
 5803TIP3   OH217414   4.751   0.463   3.728 -0.1112 -0.5088 -0.3138
 5803TIP3    H117415   4.667   0.437   3.764  0.9260 -0.8901  2.0420
 5803TIP3    H217416   4.816   0.417   3.783  1.6370 -0.2865 -2.0660
 5804TIP3   OH217417   4.990   1.899   0.924 -0.2235  0.4408 -0.1677
 5804TIP3    H117418   5.007   1.981   0.877 -0.7368  0.5808 -0.1183
 5804TIP3    H217419   5.075   1.856   0.930 -0.0048  0.8298 -0.4637
 5805TIP3   OH217420   1.686   2.803   0.922 -0.0759 -0.3268  0.0097
 5805TIP3    H117421   1.658   2.713   0.905  0.6911 -0.7186  0.7311
 5805TIP3    H217422   1.776   2.807   0.889  0.0884  0.0027  0.4825
 5806TIP3   OH217423   1.031   4.622   4.910  0.6312 -0.0545  0.1910
 5806TIP3    H117424   1.108   4.660   4.869  0.2947  0.1094 -0.3036
 5806TIP3    H217425   0.957   4.658   4.860  0.2703 -0.7062  0.2436
 5807TIP3   OH217426   5.536   3.144   3.781  0.1573  0.5649  0.2119
 5807TIP3    H117427   5.572   3.232   3.780  1.3893  0.1850  2.9518
 5807TIP3    H217428   5.474   3.144   3.854  2.1836 -1.4829  2.0704
 5808TIP3   OH217429   1.148   4.901   1.274 -0.1700  0.2088  0.3941
 5808TIP3    H117430   1.167   4.943   1.358  1.8195  1.6272 -0.6651
 5808TIP3    H217431   1.082   4.958   1.234 -1.3937 -0.6694  1.0885
 5809TIP3   OH217432   5.202   1.904   1.735 -0.0322 -0.0966 -0.1386
 5809TIP3    H117433   5.109   1.890   1.752 -0.5930  0.3106 -2.5248
 5809TIP3    H217434   5.239   1.816   1.724 -0.6308 -0.2051 -1.4068
 5810TIP3   OH217435   3.546   0.819   3.950 -0.5365 -0.1006  0.1719
 5810TIP3    H117436   3.484   0.746   3.943 -0.9002  0.3035 -1.3016
 5810TIP3    H217437   3.604   0.809   3.875 -0.9600  1.4162 -0.4198
 5811TIP3   OH217438   4.745   0.600   2.138  0.3586 -0.0314  0.1665
 5811TIP3    H117439   4.776   0.541   2.207  2.8419 -0.5917 -1.3085
 5811TIP3    H217440   4.780   0.686   2.162  0.7576 -0.1175 -0.1000
 5812TIP3   OH217441   6.263   4.172   4.181  0.3833 -0.4529  0.4225
 5812TIP3    H117442   6.280   4.149   4.090 -0.7171  0.5557 -0.0566
 5812TIP3    H217443   6.203   4.104   4.212  0.0434 -0.2870  0.1264
 5813TIP3   OH217444   1.523   5.912   0.861  0.1135  0.1411 -0.8836
 5813TIP3    H117445   1.483   5.866   0.788  0.7149  0.6367 -1.5452
 5813TIP3    H217446   1.611   5.934   0.829  1.0700 -1.2295  0.6299
 5814TIP3   OH217447   1.309   3.465   2.068 -0.0253 -0.4453 -0.2809
 5814TIP3    H117448   1.278   3.549   2.102 -0.8593 -0.9067  0.1320
 5814TIP3    H217449   1.284   3.467   1.975 -0.0174 -0.2300 -0.2797
 5815TIP3   OH217450   5.985   1.042   0.867  0.0322 -0.1299  0.2125
 5815TIP3    H117451   6.002   0.952   0.840 -2.5393 -0.3244 -1.0604
 5815TIP3    H217452   5.943   1.034   0.952 -0.2840 -0.1553  0.0560
 5816TIP3   OH217453   1.754   4.682   2.120  0.4041  0.2589  0.5951
 5816TIP3    H117454   1.739   4.595   2.082  2.1204 -0.1110  0.6917
 5816TIP3    H217455   1.824   4.720   2.067 -2.0738  2.7368 -1.1803
 5817TIP3   OH217456   5.000   3.917   0.468  0.2675 -0.0365 -0.1440
 5817TIP3    H117457   4.972   4.007   0.486 -0.1220 -0.2800  0.5132
 5817TIP3    H217458   5.084   3.926   0.423  1.5479  0.6074  2.2559
 5818TIP3   OH217459   0.123   3.950   4.265 -0.7073 -0.5350 -0.1132
 5818TIP3    H117460   0.105   3.997   4.183 -0.3294 -0.8737 -0.3973
 5818TIP3    H217461   0.055   3.979   4.325 -0.8598 -0.1143 -0.4833
 5819TIP3   OH217462   0.862   2.479   4.045 -0.2919  0.2492 -0.3024
 5819TIP3    H117463   0.830   2.526   3.967 -1.5144  0.2634  0.1737
 5819TIP3    H217464   0.883   2.549   4.107  0.3390  0.2274 -0.4880
 5820TIP3   OH217465   0.075   5.058   0.208  0.3694 -0.0259 -0.3071
 5820TIP3    H117466   0.076   5.069   0.304 -0.9589  0.2037 -0.2971
 5820TIP3    H217467   0.133   4.985   0.192  1.4001  0.5626  0.5873
 5821TIP3   OH217468   4.484   4.131   3.011  0.1924  0.2200  0.2931
 5821TIP3    H117469   4.499   4.115   2.918 -1.0851  0.0239  0.1086
 5821TIP3    H217470   4.565   4.173   3.041  1.3515 -1.3277 -0.4895
 5822TIP3   OH217471   0.881   0.916   3.302 -0.0367  0.0158  0.5342
 5822TIP3    H117472   0.789   0.910   3.326 -0.2203 -0.9463 -0.3577
 5822TIP3    H217473   0.907   1.004   3.328 -1.3093  0.4371  0.4142
 5823TIP3   OH217474   1.564   1.678   1.740 -0.5972 -0.3149 -0.3340
 5823TIP3    H117475   1.627   1.745   1.768 -0.0138 -1.1784  0.4992
 5823TIP3    H217476   1.530   1.711   1.657  0.6866  0.3616 -0.6293
 5824TIP3   OH217477   2.712   1.111   4.545  0.1225 -0.0274 -0.1276
 5824TIP3    H117478   2.774   1.183   4.558  0.4703 -0.6713  2.3314
 5824TIP3    H217479   2.754   1.054   4.480  0.5025  1.2484 -1.0265
 5825TIP3   OH217480   5.535   5.491   5.033 -0.1841  0.4691 -0.3548
 5825TIP3    H117481   5.494   5.411   5.001  0.0098  0.9136 -1.7518
 5825TIP3    H217482   5.551   5.473   5.126  0.4526 -1.3529 -0.7679
 5826TIP3   OH217483   5.724   2.173   2.505  0.2866 -0.0359  0.0314
 5826TIP3    H117484   5.704   2.265   2.491  1.0863 -0.0083 -1.0511
 5826TIP3    H217485   5.684   2.152   2.589 -2.3748  0.5518 -0.9914
 5827TIP3   OH217486   1.850   5.781   3.256  0.0134  0.0178 -0.3460
 5827TIP3    H117487   1.925   5.750   3.306 -0.9956 -0.3079  1.0206
 5827TIP3    H217488   1.836   5.871   3.285  0.8319  0.6452 -1.7878
 5828TIP3   OH217489   5.228   4.991   1.785 -0.0934 -0.4516 -1.2560
 5828TIP3    H117490   5.294   4.946   1.731  0.7367 -1.1926  0.3076
 5828TIP3    H217491   5.231   4.946   1.869 -0.5891  1.3471 -0.2218
 5829TIP3   OH217492   2.492   5.870   1.752  0.2453  0.2732 -0.2626
 5829TIP3    H117493   2.474   5.962   1.731  0.9152  0.4842  0.0452
 5829TIP3    H217494   2.474   5.863   1.846 -0.1272  0.0055 -0.3528
 5830TIP3   OH217495   2.797   5.696   0.499 -0.7218  0.1987  0.0227
 5830TIP3    H117496   2.856   5.761   0.536 -1.1626  0.1343  0.8779
 5830TIP3    H217497   2.766   5.735   0.417 -0.2599  0.6496  0.0577
 5831TIP3   OH217498   4.250   2.986   0.624 -0.3182  0.1296  0.4088
 5831TIP3    H117499   4.325   3.041   0.601  0.2274 -0.4929  0.6914
 5831TIP3    H217500   4.184   3.007   0.557  0.0880  0.7050  0.1806
 5832TIP3   OH217501   0.381   1.441   4.160 -0.3555  0.3818 -0.8224
 5832TIP3    H117502   0.387   1.482   4.073  1.7136  1.7587 -0.0914
 5832TIP3    H217503   0.467   1.454   4.199 -1.6809  1.2707  2.0968
 5833TIP3   OH217504   1.390   1.085   2.438 -0.0247  0.1665  0.0953
 5833TIP3    H117505   1.345   1.072   2.522 -0.4856  1.7128  0.1206
 5833TIP3    H217506   1.472   1.129   2.461  0.4289 -0.5129 -0.1745
 5834TIP3   OH217507   1.610   2.258   3.237 -0.1453 -0.1892  0.4860
 5834TIP3    H117508   1.557   2.262   3.158 -0.3009  1.8585  0.6409
 5834TIP3    H217509   1.698   2.238   3.206 -0.4544 -0.8047 -0.0365
 5835TIP3   OH217510   4.131   5.954   1.828 -0.4294  0.7805  0.0760
 5835TIP3    H117511   4.169   5.995   1.750 -0.4024  0.4926 -0.0620
 5835TIP3    H217512   4.058   6.011   1.851 -0.3739  0.9239 -0.0990
 5836TIP3   OH217513   4.573   0.942   2.295  0.4722  0.2196 -0.0330
 5836TIP3    H117514   4.556   0.942   2.201  2.2901  2.9548 -0.4532
 5836TIP3    H217515   4.655   0.893   2.304  0.8619  0.8693 -0.0179
 5837TIP3   OH217516   0.854   0.007   1.933  0.0210  0.0678  0.1283
 5837TIP3    H117517   0.775  -0.035   1.899 -1.0320  0.5146  1.9193
 5837TIP3    H217518   0.824   0.090   1.970  1.2993  0.2130  0.9139
 5838TIP3   OH217519   3.508   1.876   4.475  0.7030 -0.2873  0.4464
 5838TIP3    H117520   3.430   1.901   4.425  2.0275  1.9689 -0.6858
 5838TIP3    H217521   3.474   1.830   4.552 -1.9010  2.1888  0.9544
 5839TIP3   OH217522   3.686   3.622   0.704  0.2910 -0.1207 -0.6640
 5839TIP3    H117523   3.773   3.661   0.709  0.5553 -0.4428 -2.2390
 5839TIP3    H217524   3.680   3.587   0.615 -0.9183 -1.3711 -0.1278
 5840TIP3   OH217525   5.416   4.007   4.664  0.2226 -0.1146  0.0177
 5840TIP3    H117526   5.412   4.049   4.750 -1.9269  2.0882 -1.0354
 5840TIP3    H217527   5.507   4.021   4.635  0.1843  1.8937  0.6823
 5841TIP3   OH217528   6.367   4.641   4.674  0.5336  0.7544 -0.3865
 5841TIP3    H117529   6.352   4.634   4.768  0.6935 -1.0670 -0.4676
 5841TIP3    H217530   6.281   4.626   4.635  0.9884 -1.9483 -0.5858
 5842TIP3   OH217531   3.889   1.722   1.941 -0.3532 -0.0593  0.5684
 5842TIP3    H117532   3.889   1.813   1.913  0.3563 -0.7701 -1.9901
 5842TIP3    H217533   3.797   1.696   1.936 -0.2938 -0.0561 -0.8353
 5843TIP3   OH217534   6.302   1.139   1.275 -0.6652  0.6135  0.4608
 5843TIP3    H117535   6.356   1.061   1.285  0.9180  1.3894 -1.4215
 5843TIP3    H217536   6.215   1.112   1.305 -0.4844 -2.2481 -1.2470
 5844TIP3   OH217537   5.861   4.400   3.849 -0.1708  0.2008 -0.5720
 5844TIP3    H117538   5.864   4.382   3.755  1.7560 -0.0825 -0.4814
 5844TIP3    H217539   5.819   4.486   3.855 -0.9623 -0.0829 -1.6203
 5845TIP3   OH217540   4.619   5.098   3.185 -0.3123  0.0783 -0.0863
 5845TIP3    H117541   4.654   5.010   3.169 -2.1633 -0.8246  0.5497
 5845TIP3    H217542   4.585   5.094   3.274  1.9217  2.2938  1.0063
 5846TIP3   OH217543   5.989   0.005   1.338 -0.4309  0.1679 -0.1181
 5846TIP3    H117544   5.971   0.009   1.432  0.3642 -1.4899  0.1306
 5846TIP3    H217545   6.081   0.031   1.329  0.2048 -1.9249 -0.1372
 5847TIP3   OH217546   1.892   3.500   5.136 -0.6641  0.0945  0.2442
 5847TIP3    H117547   1.810   3.519   5.090 -0.2286  0.9229 -0.2134
 5847TIP3    H217548   1.927   3.586   5.160  1.6217  0.0204 -2.3331
 5848TIP3   OH217549   4.484   3.281   3.158 -0.1049  0.3943  0.2832
 5848TIP3    H117550   4.466   3.204   3.104 -1.4515  0.2026  0.9401
 5848TIP3    H217551   4.554   3.253   3.217  0.0632 -0.0160 -0.1081
 5849TIP3   OH217552   4.717   2.997   4.389 -0.3488  0.1395  0.5069
 5849TIP3    H117553   4.675   2.947   4.319  0.6604 -1.6705  1.1209
 5849TIP3    H217554   4.691   2.953   4.470  1.4838 -0.1334  0.9969
 5850TIP3   OH217555   1.862   2.329   2.477 -0.4623 -0.2230  0.0190
 5850TIP3    H117556   1.825   2.363   2.559 -2.1383  2.0555 -1.5486
 5850TIP3    H217557   1.954   2.354   2.480 -0.9580  1.7870  0.3611
 5851TIP3   OH217558   4.491   4.740   4.511  0.1572 -0.0124  0.4244
 5851TIP3    H117559   4.551   4.771   4.442  0.3158 -0.4140  0.3801
 5851TIP3    H217560   4.404   4.761   4.478  0.2595  0.2966  0.3475
 5852TIP3   OH217561   1.135   5.294   2.990  0.3820 -0.0771  0.3108
 5852TIP3    H117562   1.074   5.330   3.054  0.1783  1.9302 -0.9203
 5852TIP3    H217563   1.138   5.200   3.009 -1.3687  0.1230  1.8049
 5853TIP3   OH217564   1.459   3.582   2.675 -0.1178 -0.1270  0.8404
 5853TIP3    H117565   1.545   3.603   2.638 -0.1307  2.1335  1.9202
 5853TIP3    H217566   1.477   3.558   2.766 -0.6560  0.7753  1.1917
 5854TIP3   OH217567   4.571   4.519   0.748  0.1240  0.1123  0.4367
 5854TIP3    H117568   4.539   4.564   0.826 -1.6093  0.3702 -0.3821
 5854TIP3    H217569   4.633   4.581   0.709  1.6077 -0.3333  1.9648
 5855TIP3   OH217570   2.907   0.500   3.317  0.6196 -0.7666  0.4421
 5855TIP3    H117571   2.976   0.546   3.366  1.3657 -1.1607 -0.2188
 5855TIP3    H217572   2.830   0.506   3.374  1.1984 -0.3437  1.2110
 5856TIP3   OH217573   4.409   1.162   4.638 -0.6111 -0.3228 -0.0356
 5856TIP3    H117574   4.430   1.140   4.729  0.4526  1.3832  0.1790
 5856TIP3    H217575   4.368   1.249   4.643  0.0928  0.1090 -1.2299
 5857TIP3   OH217576   4.192   2.330   3.107 -0.7911  0.6460  0.4817
 5857TIP3    H117577   4.166   2.401   3.166 -0.7582  1.0938 -0.0339
 5857TIP3    H217578   4.110   2.287   3.083 -1.0418  1.8043 -0.8286
 5858TIP3   OH217579   3.440   5.368   4.461 -0.3897  0.4987  0.1826
 5858TIP3    H117580   3.461   5.292   4.405  1.9090  0.8268  0.4825
 5858TIP3    H217581   3.398   5.330   4.538 -0.4106 -0.3412 -0.2291
 5859TIP3   OH217582   1.402   4.445   3.039 -0.0893  0.0167  0.2724
 5859TIP3    H117583   1.443   4.365   3.071 -0.4061  0.6618  2.5092
 5859TIP3    H217584   1.312   4.421   3.021 -0.4234  0.0121  1.8062
 5860TIP3   OH217585   1.128   0.426   4.367 -0.5673 -0.8066  0.3252
 5860TIP3    H117586   1.053   0.420   4.426 -0.9341  3.7419  0.7508
 5860TIP3    H217587   1.092   0.410   4.280 -1.4985 -1.0942  0.7546
 5861TIP3   OH217588   2.412   0.039   1.878  0.7871 -0.2081 -0.4264
 5861TIP3    H117589   2.320   0.011   1.879  0.5061  0.6682  0.0484
 5861TIP3    H217590   2.415   0.110   1.814  1.3048 -0.7388 -1.0016
 5862TIP3   OH217591   0.313  -0.003   1.003  1.6033  0.4483  0.2101
 5862TIP3    H117592   0.342   0.023   0.916  0.9160  1.0601  0.1558
 5862TIP3    H217593   0.269   0.074   1.038 -0.0850 -0.4660  0.2230
 5863TIP3   OH217594   5.874   3.515   5.114  0.7041 -0.3599 -0.1298
 5863TIP3    H117595   5.788   3.542   5.146  1.5758  0.8755  1.2816
 5863TIP3    H217596   5.878   3.549   5.025  0.7306  1.9912  0.7002
 5864TIP3   OH217597   5.699   4.097   4.362 -0.0499 -0.2183  0.1622
 5864TIP3    H117598   5.767   4.156   4.329 -0.3185  0.0125  0.0119
 5864TIP3    H217599   5.675   4.044   4.287 -0.5435  0.1939  0.0215
 5865TIP3   OH217600   1.787   0.425   0.457 -0.3566 -0.4494  0.0768
 5865TIP3    H117601   1.755   0.406   0.545 -2.6205 -1.6078 -0.8823
 5865TIP3    H217602   1.725   0.379   0.399  1.4656 -0.3596 -2.1038
 5866TIP3   OH217603   1.148   3.679   0.685 -0.3042 -0.1335  0.1443
 5866TIP3    H117604   1.167   3.672   0.592  1.2545 -0.4303  0.4715
 5866TIP3    H217605   1.083   3.611   0.701 -0.9298  0.2144 -0.7943
 5867TIP3   OH217606   6.252   3.728   1.478 -0.8307 -0.4647 -0.1050
 5867TIP3    H117607   6.243   3.633   1.472 -1.6884 -0.3716 -0.4910
 5867TIP3    H217608   6.255   3.757   1.387  1.5659 -0.2796 -0.0227
 5868TIP3   OH217609   6.173   4.076   0.037  0.0166 -0.0139 -0.3020
 5868TIP3    H117610   6.106   4.020   0.077 -0.4317  0.1223 -0.8550
 5868TIP3    H217611   6.256   4.044   0.074 -0.3412 -0.2229  0.3421
 5869TIP3   OH217612   0.484   4.174   0.017 -0.1949  0.0556  0.3377
 5869TIP3    H117613   0.518   4.234   0.083 -0.8094  1.1362 -0.3010
 5869TIP3    H217614   0.466   4.229  -0.059  1.5836 -1.3391 -1.1848
 5870TIP3   OH217615   3.326   5.417   4.216 -0.2285 -0.4999  0.8460
 5870TIP3    H117616   3.341   5.398   4.308  0.4487 -1.0614  0.6252
 5870TIP3    H217617   3.315   5.331   4.175  2.3954 -0.4634 -0.0920
 5871TIP3   OH217618   2.788   1.048   2.993  0.0777 -0.4674  0.3919
 5871TIP3    H117619   2.850   0.991   2.948  1.2077  1.2181 -0.2839
 5871TIP3    H217620   2.809   1.136   2.962 -0.7225  0.4964  2.4032
 5872TIP3   OH217621   1.689   3.913   4.877  0.5881 -0.0228 -0.0188
 5872TIP3    H117622   1.681   3.859   4.955  1.3782  0.0081  0.0983
 5872TIP3    H217623   1.780   3.944   4.879  0.9488 -0.8995 -1.5117
 5873TIP3   OH217624   0.793   5.856   4.323 -0.6508 -0.3951  0.8172
 5873TIP3    H117625   0.721   5.861   4.386 -0.6924 -1.2900  0.8659
 5873TIP3    H217626   0.845   5.781   4.353 -0.1176 -0.2137  0.3531
 5874TIP3   OH217627   3.160   2.607   1.569  0.4278 -0.2887  0.6537
 5874TIP3    H117628   3.117   2.566   1.494 -0.0011 -2.4004  1.9710
 5874TIP3    H217629   3.097   2.673   1.600  0.3260  0.1307 -0.4148
 5875TIP3   OH217630   3.637   1.867   2.626 -0.2073  0.2950  0.5906
 5875TIP3    H117631   3.683   1.800   2.678  0.1353  0.2169  0.1900
 5875TIP3    H217632   3.682   1.867   2.542 -0.1598  1.0917  0.6157
 5876TIP3   OH217633   5.626   2.893   0.337  0.2899 -0.1927 -0.7432
 5876TIP3    H117634   5.586   2.878   0.423 -0.6690  2.1843 -0.6975
 5876TIP3    H217635   5.551   2.903   0.278  0.8762  0.6310 -1.3681
 5877TIP3   OH217636   4.602   4.819   1.431 -0.4599 -0.4216  0.4488
 5877TIP3    H117637   4.599   4.780   1.518  1.1477 -0.1513  0.6623
 5877TIP3    H217638   4.692   4.803   1.401  0.7841  4.1140  1.0385
 5878TIP3   OH217639   1.395   5.761   0.689 -0.3673  0.0175 -0.1340
 5878TIP3    H117640   1.425   5.692   0.748 -1.4238  0.7394  1.2942
 5878TIP3    H217641   1.365   5.715   0.611  1.4223 -0.9325 -0.3274
 5879TIP3   OH217642   1.338   4.142   4.579 -0.3375  0.0663  0.4688
 5879TIP3    H117643   1.362   4.099   4.660 -1.1600 -3.1224 -0.8059
 5879TIP3    H217644   1.253   4.182   4.597 -1.5481 -2.4365  0.7256
 5880TIP3   OH217645   4.126   1.677   4.313 -0.3210 -0.4998  0.0360
 5880TIP3    H117646   4.204   1.733   4.307 -0.2988 -0.5327  0.0134
 5880TIP3    H217647   4.139   1.612   4.245 -0.3090 -0.5796  0.1138
 5881TIP3   OH217648   3.710   1.399   0.225 -0.2626 -0.6808  0.9442
 5881TIP3    H117649   3.743   1.310   0.235 -0.9639 -1.1063 -0.2182
 5881TIP3    H217650   3.730   1.421   0.134 -0.3548  0.2446  1.1385
 5882TIP3   OH217651   3.259   2.003   3.145 -0.4024 -0.0891 -0.4104
 5882TIP3    H117652   3.210   2.081   3.173  0.0666  0.2366 -0.4761
 5882TIP3    H217653   3.349   2.035   3.133 -0.7382 -0.0011 -3.1946
 5883TIP3   OH217654   0.560   2.433   2.453  0.0147 -0.2225  0.7505
 5883TIP3    H117655   0.468   2.413   2.431 -0.3315  0.2807  1.6850
 5883TIP3    H217656   0.611   2.380   2.392 -0.8998 -0.8733  0.5228
 5884TIP3   OH217657   1.308   2.963   4.893 -0.2703 -0.6957  0.3628
 5884TIP3    H117658   1.335   3.051   4.918  2.9082 -0.9046 -1.7592
 5884TIP3    H217659   1.379   2.931   4.837 -1.6506 -4.3384  0.4225
 5885TIP3   OH217660   4.045   0.975   0.919 -0.4728 -0.6313  0.6112
 5885TIP3    H117661   4.066   0.896   0.968 -0.2868 -0.8695  0.1566
 5885TIP3    H217662   3.968   0.952   0.868  0.9529 -1.3187 -1.3416
 5886TIP3   OH217663   5.415   2.879   0.161  0.2253 -0.4206  0.3100
 5886TIP3    H117664   5.364   2.903   0.084  0.5801 -1.4919 -0.2754
 5886TIP3    H217665   5.349   2.856   0.227 -0.0715  0.1306  0.2139
 5887TIP3   OH217666   4.095   0.751   1.087  0.7109  0.2382  0.3757
 5887TIP3    H117667   4.162   0.729   1.152 -0.0161  0.0512  1.0730
 5887TIP3    H217668   4.026   0.794   1.138 -0.2200 -0.6197 -0.1412
 5888TIP3   OH217669   5.598   2.744   0.868  0.0365 -0.2245  0.1211
 5888TIP3    H117670   5.595   2.786   0.954 -1.7025 -1.3583  0.6581
 5888TIP3    H217671   5.656   2.668   0.881 -1.2823 -1.1656  0.6951
 5889TIP3   OH217672   5.861   0.308   4.942  0.1633  0.1153 -0.4974
 5889TIP3    H117673   5.828   0.383   4.992  0.0757 -0.1301 -0.1807
 5889TIP3    H217674   5.792   0.290   4.878 -0.1742 -0.1859 -0.0579
 5890TIP3   OH217675   1.603   0.658   1.890 -0.5698 -0.0938  0.0901
 5890TIP3    H117676   1.685   0.697   1.860 -1.0575  1.9375  1.1912
 5890TIP3    H217677   1.545   0.663   1.815 -0.0360 -0.4960 -0.3553
 5891TIP3   OH217678   0.065   0.646   4.302  0.7840  0.4255 -0.0922
 5891TIP3    H117679   0.154   0.659   4.269 -0.5943  3.0551 -3.2110
 5891TIP3    H217680   0.056   0.712   4.371  1.3044 -0.1306  0.5346
 5892TIP3   OH217681   3.666   5.018   1.643  0.7502 -0.1998 -1.0681
 5892TIP3    H117682   3.617   5.049   1.567 -1.1039 -0.2922  0.0278
 5892TIP3    H217683   3.613   4.947   1.678  1.0984  0.4246  0.8271
 5893TIP3   OH217684   6.026   4.281   2.025  0.0225  0.0738 -0.1380
 5893TIP3    H117685   6.010   4.256   1.934  0.2950  0.7825 -0.3895
 5893TIP3    H217686   6.041   4.198   2.071  1.5162 -0.1978 -1.0599
 5894TIP3   OH217687   1.679   3.116   1.108 -0.4464 -0.0201  0.2282
 5894TIP3    H117688   1.625   3.041   1.133  0.8133 -0.2371  2.6710
 5894TIP3    H217689   1.637   3.190   1.152 -0.9543  0.5168 -1.1236
 5895TIP3   OH217690   3.872   0.930   0.699 -0.4399  0.7416 -0.4075
 5895TIP3    H117691   3.831   0.844   0.688 -0.5355  0.8440 -0.8734
 5895TIP3    H217692   3.801   0.987   0.728  0.0643  0.1968  2.1192
 5896TIP3   OH217693   5.749   0.342   0.124 -0.2218  0.0863 -0.3029
 5896TIP3    H117694   5.756   0.259   0.075 -3.3896 -1.8313  2.1345
 5896TIP3    H217695   5.815   0.334   0.193  1.0117  0.7225 -1.3388
 5897TIP3   OH217696   2.188   2.545   0.382  0.1712  0.0976 -0.2394
 5897TIP3    H117697   2.280   2.527   0.363  0.3110 -0.4657  0.8803
 5897TIP3    H217698   2.190   2.602   0.459 -0.4214 -0.3629  0.1285
 5898TIP3   OH217699   2.850   2.583   0.226 -0.1804 -0.0143 -0.5108
 5898TIP3    H117700   2.839   2.552   0.136 -0.0324 -0.5707 -0.3421
 5898TIP3    H217701   2.814   2.513   0.280 -0.9669  0.6575 -0.1537
 5899TIP3   OH217702   4.149   5.340   2.298  0.0275  0.0506 -0.4809
 5899TIP3    H117703   4.070   5.293   2.321  0.0173  0.4740  0.3776
 5899TIP3    H217704   4.180   5.377   2.380  0.5645  0.7259 -0.9738
 5900TIP3   OH217705   4.843   4.427   1.443 -0.8430 -0.1220 -0.0762
 5900TIP3    H117706   4.790   4.449   1.366 -1.8808 -0.8793  0.3907
 5900TIP3    H217707   4.805   4.345   1.475  0.3534 -0.4558  0.5431
 5901TIP3   OH217708   4.177   4.620   3.329  0.1507  0.3485 -0.1200
 5901TIP3    H117709   4.252   4.591   3.380  0.2597  0.6430 -0.1077
 5901TIP3    H217710   4.151   4.544   3.277  0.0042  0.0268  0.4169
 5902TIP3   OH217711   0.619   2.203   2.602  0.2921 -0.1330  0.3825
 5902TIP3    H117712   0.609   2.280   2.546 -1.5727 -0.5880  0.0322
 5902TIP3    H217713   0.709   2.209   2.635 -0.2646  3.0645  1.6865
 5903TIP3   OH217714   3.327   5.703   1.062  0.1510 -1.0292 -0.1784
 5903TIP3    H117715   3.359   5.629   1.114  1.5148 -0.8224 -0.6810
 5903TIP3    H217716   3.272   5.662   0.995 -0.2354 -1.4519  0.3855
 5904TIP3   OH217717   1.979   4.811   4.728  0.2837  0.1648  0.1438
 5904TIP3    H117718   2.037   4.778   4.797 -0.0882 -1.8125 -0.4338
 5904TIP3    H217719   2.030   4.803   4.647 -0.1118  0.2505 -0.1200
 5905TIP3   OH217720   1.140   1.492   1.202  0.1058 -0.4243  0.1387
 5905TIP3    H117721   1.173   1.556   1.265  0.9510  0.5367 -1.2278
 5905TIP3    H217722   1.133   1.540   1.119 -1.9078 -1.3877 -0.3264
 5906TIP3   OH217723   3.613   4.136   3.258 -0.2587  0.0755 -0.3522
 5906TIP3    H117724   3.533   4.086   3.243  0.7255 -1.5991 -0.2940
 5906TIP3    H217725   3.632   4.176   3.173 -0.6122 -0.3304 -0.6259
 5907TIP3   OH217726   0.603   1.117   1.999 -0.0828  0.0361  0.0096
 5907TIP3    H117727   0.670   1.062   1.958 -0.4004  0.1315 -0.6540
 5907TIP3    H217728   0.642   1.145   2.082  0.5189 -0.2747 -0.1617
 5908TIP3   OH217729   3.335   4.354   5.197  0.9310  0.2658  0.3590
 5908TIP3    H117730   3.327   4.341   5.102  3.3082  0.1232  0.1139
 5908TIP3    H217731   3.390   4.431   5.206  1.6564 -0.3576  1.5946
 5909TIP3   OH217732   0.895   5.135   2.285 -0.6007 -0.1829  0.0955
 5909TIP3    H117733   0.842   5.149   2.207  2.1887 -3.3109 -2.6950
 5909TIP3    H217734   0.972   5.190   2.273  1.5131 -3.1688 -1.4071
 5910TIP3   OH217735   4.197   5.264   2.045 -0.2022 -0.0780  0.0905
 5910TIP3    H117736   4.172   5.314   2.122  0.9504  2.6119 -1.1320
 5910TIP3    H217737   4.195   5.172   2.073  0.3582  0.7979  3.3204
 5911TIP3   OH217738   1.051   2.550   1.960 -0.1515 -0.0953 -0.2720
 5911TIP3    H117739   0.970   2.510   1.991  0.3834 -1.5953 -0.7394
 5911TIP3    H217740   1.114   2.478   1.955  1.4350  1.1611  0.7395
 5912TIP3   OH217741   0.542   1.371   1.920 -0.1528 -0.1695  0.1714
 5912TIP3    H117742   0.561   1.284   1.955  0.9997  0.8069  2.1432
 5912TIP3    H217743   0.576   1.431   1.986 -1.1576  1.7920 -1.0122
 5913TIP3   OH217744   2.348   0.379   4.466 -0.0332  0.1183 -0.1909
 5913TIP3    H117745   2.380   0.469   4.471  0.1079  0.0091  1.7543
 5913TIP3    H217746   2.337   0.362   4.372  0.3328  2.0065 -0.6143
 5914TIP3   OH217747   2.993   3.129   2.919  0.0044 -0.6531 -0.1271
 5914TIP3    H117748   2.911   3.173   2.895 -0.1888 -1.3726 -0.8334
 5914TIP3    H217749   3.023   3.175   2.997 -1.1744 -0.4976  0.2474
 5915TIP3   OH217750   6.140   2.414   4.482  0.7083  0.0634 -0.3565
 5915TIP3    H117751   6.164   2.479   4.416  1.3551  1.6524  1.3498
 5915TIP3    H217752   6.131   2.464   4.563  0.1912 -1.8450  0.8399
 5916TIP3   OH217753   3.903   3.118   2.870  0.1480  0.0411 -0.7309
 5916TIP3    H117754   3.870   3.042   2.917  1.3386 -0.3974 -0.5701
 5916TIP3    H217755   3.997   3.102   2.861  0.4139  1.4629 -0.7544
 5917TIP3   OH217756   4.266   2.216   2.469  0.6879  0.3952 -0.5228
 5917TIP3    H117757   4.335   2.282   2.475  0.4032  0.7122 -0.7047
 5917TIP3    H217758   4.226   2.231   2.383  1.6350 -1.0083 -1.2686
 5918TIP3   OH217759   3.574   5.287   0.778 -0.2793 -0.2534 -0.0934
 5918TIP3    H117760   3.631   5.349   0.733 -0.8964  1.6948  1.6343
 5918TIP3    H217761   3.491   5.291   0.730 -0.1424 -0.1946 -0.3275
 5919TIP3   OH217762   5.422   4.115   5.004  0.0886 -0.4050  0.4238
 5919TIP3    H117763   5.451   4.159   4.924  1.3504  1.6203  1.8839
 5919TIP3    H217764   5.493   4.131   5.066 -2.4155  1.3990  3.0469
 5920TIP3   OH217765   1.792   1.419   1.760 -0.3349  0.3336 -0.9604
 5920TIP3    H117766   1.741   1.348   1.798  0.0214 -0.2410 -1.5344
 5920TIP3    H217767   1.736   1.455   1.691 -0.3540  0.3282 -0.9475
 5921TIP3   OH217768   2.882   0.294   2.884  0.1503  0.8186 -0.4350
 5921TIP3    H117769   2.824   0.234   2.837 -1.0623  1.0690  0.6843
 5921TIP3    H217770   2.822   0.357   2.925  1.2395  1.2363  0.5501
 5922TIP3   OH217771   4.620   5.285   5.117  0.5903 -0.7888 -0.7575
 5922TIP3    H117772   4.561   5.214   5.092  0.6849 -1.0566 -0.2284
 5922TIP3    H217773   4.627   5.339   5.038 -0.8274 -0.4299 -0.6697
 5923TIP3   OH217774   1.723   5.272   3.934  0.4367 -0.3638 -0.4737
 5923TIP3    H117775   1.806   5.266   3.888  1.4228 -0.4430  1.2140
 5923TIP3    H217776   1.746   5.309   4.020 -1.2362 -0.5860  0.1086
 5924TIP3   OH217777   5.857   5.620   2.995 -0.1839 -0.0097 -0.2153
 5924TIP3    H117778   5.905   5.558   2.940 -0.8871 -1.8265  1.1284
 5924TIP3    H217779   5.766   5.613   2.966 -0.3535 -0.0319  0.3021
 5925TIP3   OH217780   1.096   5.279   0.424 -0.1833 -0.3281 -0.2323
 5925TIP3    H117781   1.072   5.343   0.491 -1.8475 -1.0671 -0.0694
 5925TIP3    H217782   1.141   5.209   0.472 -3.3683 -1.9659  0.6171
 5926TIP3   OH217783   3.897   4.170   0.523  0.1778  0.3177  0.1717
 5926TIP3    H117784   3.884   4.079   0.549 -3.7272  0.6452  0.0551
 5926TIP3    H217785   3.952   4.207   0.591  0.8986 -1.8501  0.8515
 5927TIP3   OH217786   4.696   1.349   1.079  0.0935  0.0057 -0.4607
 5927TIP3    H117787   4.680   1.258   1.105  0.6408  0.6471  2.4767
 5927TIP3    H217788   4.631   1.399   1.128  0.7625  1.3041 -0.8697
 5928TIP3   OH217789   4.603   3.477   2.073 -0.1022  0.2129  0.0873
 5928TIP3    H117790   4.691   3.506   2.097  0.1393  0.1931 -0.7476
 5928TIP3    H217791   4.582   3.410   2.139  0.8883 -0.4512 -0.2354
 5929TIP3   OH217792   3.045   4.725   4.826 -0.6419  0.6510  0.1790
 5929TIP3    H117793   3.004   4.639   4.828  3.7487 -1.7293 -0.2565
 5929TIP3    H217794   3.041   4.753   4.735  0.0455 -0.3243 -0.1616
 5930TIP3   OH217795   2.614   5.218   4.510 -0.2615  0.5358  0.0597
 5930TIP3    H117796   2.710   5.211   4.505 -0.3086 -1.4057  1.0105
 5930TIP3    H217797   2.582   5.135   4.475 -1.5909  1.0024  0.1332
 5931TIP3   OH217798   6.347   3.720   0.840  0.3020 -0.1676  0.3204
 5931TIP3    H117799   6.364   3.807   0.876 -1.6972  0.8449 -0.9560
 5931TIP3    H217800   6.335   3.735   0.746  0.2486 -1.8853  0.0175
 5932TIP3   OH217801   4.048   5.739   0.950  0.0029 -0.6334 -0.7128
 5932TIP3    H117802   4.059   5.833   0.965  0.9135 -0.6257 -1.3649
 5932TIP3    H217803   4.135   5.708   0.926 -0.0703 -1.8454  0.4774
 5933TIP3   OH217804   1.644   0.095   2.846  0.0354 -0.3135  0.5111
 5933TIP3    H117805   1.643   0.146   2.927  2.3164 -0.4787  0.7061
 5933TIP3    H217806   1.556   0.105   2.810 -0.0918  2.3769  1.3860
 5934TIP3   OH217807   0.906   4.549   1.740 -0.4257 -0.0253  0.2694
 5934TIP3    H117808   0.984   4.605   1.733  0.2021 -0.9395 -0.1551
 5934TIP3    H217809   0.835   4.604   1.706  0.5262 -0.1715 -2.1674
 5935TIP3   OH217810   2.152   1.464   2.599  0.1079  0.3274  0.0718
 5935TIP3    H117811   2.061   1.492   2.590 -0.8228 -2.2974  0.4720
 5935TIP3    H217812   2.189   1.474   2.511 -1.6567 -1.8457 -1.0263
 5936TIP3   OH217813   0.362   1.576   0.849  0.2184  1.0068  0.5106
 5936TIP3    H117814   0.281   1.525   0.851  0.0466  1.2877  1.6298
 5936TIP3    H217815   0.347   1.641   0.780 -0.3446  0.7917  0.4191
 5937TIP3   OH217816   2.740   1.737   2.768 -0.0718  0.1213  0.8385
 5937TIP3    H117817   2.725   1.801   2.838  0.6710  0.6321  0.5343
 5937TIP3    H217818   2.835   1.732   2.759  0.0106 -2.4311  2.1367
 5938TIP3   OH217819   2.242   5.354   2.444 -0.0348  0.2217  0.3765
 5938TIP3    H117820   2.291   5.424   2.486  0.2373 -0.1951  0.7651
 5938TIP3    H217821   2.151   5.367   2.472  0.2786 -0.5851  1.8551
 5939TIP3   OH217822   3.092   2.890   1.264 -0.0422 -0.0407  0.2346
 5939TIP3    H117823   3.054   2.978   1.259  0.3711  0.1419  0.3004
 5939TIP3    H217824   3.128   2.884   1.352  3.0275  1.0307 -0.8083
 5940TIP3   OH217825   3.298   3.300   2.324 -0.6278 -0.0303 -0.2081
 5940TIP3    H117826   3.383   3.283   2.283 -0.1012 -1.7706  1.3981
 5940TIP3    H217827   3.311   3.273   2.415 -1.9558  2.8534  0.9432
 5941TIP3   OH217828   2.156   3.658   4.403 -0.4824  0.3217  0.3170
 5941TIP3    H117829   2.114   3.635   4.486 -0.0120 -0.2733  0.3992
 5941TIP3    H217830   2.242   3.690   4.428 -0.6142  0.8591  0.1007
 5942TIP3   OH217831   3.457   0.072   3.403 -0.2796 -0.5309 -0.3960
 5942TIP3    H117832   3.363   0.054   3.411  0.1690 -3.5731 -0.7150
 5942TIP3    H217833   3.463   0.139   3.335 -2.3253  2.4480  2.0915
 5943TIP3   OH217834   3.160   5.474   1.295  0.2369  0.0119  0.0810
 5943TIP3    H117835   3.094   5.408   1.275 -0.8978  0.0497  3.2078
 5943TIP3    H217836   3.110   5.550   1.324  1.5996  0.5675  1.0760
 5944TIP3   OH217837   0.086   4.469   0.864 -0.2748  0.5951  0.3224
 5944TIP3    H117838   0.148   4.526   0.819 -0.5222  0.3817 -0.2892
 5944TIP3    H217839   0.002   4.514   0.858 -0.5994 -0.0984 -0.7006
 5945TIP3   OH217840   2.754   2.105   3.039  0.0670  0.5063 -0.3938
 5945TIP3    H117841   2.689   2.168   3.071 -0.0617  0.4225 -0.4898
 5945TIP3    H217842   2.702   2.036   2.999  0.0361 -1.0765  2.1534
 5946TIP3   OH217843   4.823   3.532   0.935 -0.0399 -0.0680  0.2662
 5946TIP3    H117844   4.854   3.569   0.852 -0.4935 -0.2205  0.0294
 5946TIP3    H217845   4.737   3.571   0.949 -0.2234 -0.5025  0.3648
 5947TIP3   OH217846   4.514   3.286   2.276  0.1781 -0.1599  0.3546
 5947TIP3    H117847   4.535   3.193   2.278  0.9477  0.0238  1.0539
 5947TIP3    H217848   4.459   3.300   2.353 -1.5725 -0.3966 -0.7999
 5948TIP3   OH217849   2.483   2.364   1.873 -0.0548 -0.0697 -0.1092
 5948TIP3    H117850   2.466   2.376   1.967  0.1881 -0.2450 -0.0425
 5948TIP3    H217851   2.474   2.452   1.836  0.5132  0.1178  0.1831
 5949TIP3   OH217852   0.382   3.704   1.492  0.1859 -0.1499 -0.1100
 5949TIP3    H117853   0.370   3.672   1.403  0.3675 -1.7489  0.4000
 5949TIP3    H217854   0.309   3.765   1.506 -1.1670 -1.5839 -0.6159
 5950TIP3   OH217855   6.066   5.524   3.548 -0.6428  0.5250 -0.1303
 5950TIP3    H117856   6.093   5.491   3.633 -0.5525  1.0789  0.0636
 5950TIP3    H217857   6.013   5.454   3.510  1.4754 -0.8388 -0.7521
 5951TIP3   OH217858   0.721   2.545   1.731 -0.5775  0.2484 -0.2391
 5951TIP3    H117859   0.764   2.610   1.788  1.4689 -0.7887 -0.4980
 5951TIP3    H217860   0.628   2.555   1.750 -0.0333 -0.0747  3.3684
 5952TIP3   OH217861   3.852   4.732   2.006 -0.2466  0.1913 -0.3315
 5952TIP3    H117862   3.839   4.779   1.924  0.9667  3.6647  1.2950
 5952TIP3    H217863   3.767   4.736   2.050 -0.0809  1.1219 -0.0914
 5953TIP3   OH217864   5.423   2.451  -0.022  0.4649 -0.5244 -0.2485
 5953TIP3    H117865   5.501   2.396  -0.033 -0.1520 -1.5591  0.3991
 5953TIP3    H217866   5.441   2.503   0.057  0.7786 -0.2422 -0.4995
 5954TIP3   OH217867   1.454   0.953   1.574 -0.1076 -0.5000  0.1110
 5954TIP3    H117868   1.419   0.895   1.641 -1.7300 -0.9946 -1.1022
 5954TIP3    H217869   1.541   0.916   1.554 -0.5674 -1.7499  0.2962
 5955TIP3   OH217870   1.992   3.400   1.224 -0.1629  0.1075 -0.2893
 5955TIP3    H117871   2.035   3.472   1.178  1.3202 -0.3995  0.2337
 5955TIP3    H217872   2.061   3.363   1.279 -1.4164 -0.4587  0.9498
 5956TIP3   OH217873   1.531   3.336   1.250 -0.0942 -0.0342 -0.2297
 5956TIP3    H117874   1.477   3.344   1.329  0.7124 -0.8988  0.4284
 5956TIP3    H217875   1.468   3.325   1.179 -0.8710 -4.0269  0.8342
 5957TIP3   OH217876   6.302   5.330   1.317 -0.7429 -0.2395 -0.0020
 5957TIP3    H117877   6.317   5.303   1.227  0.4744 -0.0586  0.1340
 5957TIP3    H217878   6.256   5.414   1.309  0.5211  0.4334 -0.4872
 5958TIP3   OH217879   0.061   5.724   3.810  0.0106 -0.4196 -0.4979
 5958TIP3    H117880   0.067   5.639   3.766  0.4721 -0.7339  0.1611
 5958TIP3    H217881   0.126   5.720   3.880  1.3053  1.1216 -1.5308
 5959TIP3   OH217882   5.944   3.877   0.057  0.0281  0.1890 -0.5171
 5959TIP3    H117883   5.955   3.782   0.048 -3.6489 -0.3788 -0.3955
 5959TIP3    H217884   5.889   3.887   0.135  0.7893  2.5042 -0.2112
 5960TIP3   OH217885   1.189   0.801   2.979  0.0354  0.1417 -0.0027
 5960TIP3    H117886   1.143   0.739   3.037  0.1094  0.6561  0.6234
 5960TIP3    H217887   1.274   0.760   2.964  0.2305  0.2604  0.7254
 5961TIP3   OH217888   3.981   0.927   1.255  0.0718  0.3233  0.1673
 5961TIP3    H117889   4.032   0.955   1.330 -0.8851  0.2815  0.8573
 5961TIP3    H217890   3.890   0.948   1.278 -0.2874 -0.0823 -0.7947
 5962TIP3   OH217891   5.690   4.026   4.625  0.2498 -0.1623 -1.0555
 5962TIP3    H117892   5.666   4.041   4.533 -2.9341 -5.3534 -1.4800
 5962TIP3    H217893   5.758   3.958   4.621 -0.5477 -1.0817  0.3568
 5963TIP3   OH217894   5.804   1.812   2.193  0.1373  0.4054  0.3796
 5963TIP3    H117895   5.806   1.726   2.152 -1.3050 -0.6307  2.3190
 5963TIP3    H217896   5.886   1.817   2.243  0.3164  0.2597  0.1023
 5964TIP3   OH217897   2.238   3.219   3.106 -0.0148  0.4582 -0.0339
 5964TIP3    H117898   2.148   3.189   3.093 -0.4631  2.2147 -1.2741
 5964TIP3    H217899   2.250   3.291   3.044  1.8720  1.0556  0.9096
 5965TIP3   OH217900   5.083   4.941   3.198  0.2095 -0.6006  0.0052
 5965TIP3    H117901   5.146   4.910   3.132  0.0454  1.0304 -0.9688
 5965TIP3    H217902   5.001   4.898   3.174  0.6229 -1.6530  0.4348
 5966TIP3   OH217903   4.702   2.498   1.301  0.1867 -0.8832  0.5069
 5966TIP3    H117904   4.750   2.418   1.280 -1.8679 -2.1990  0.6458
 5966TIP3    H217905   4.753   2.537   1.373  2.1089 -1.1596 -0.6267
 5967TIP3   OH217906   5.378   3.985   3.326  0.3465 -0.1053 -0.1218
 5967TIP3    H117907   5.305   4.008   3.269  0.2182 -2.4045 -0.9805
 5967TIP3    H217908   5.402   4.067   3.369 -1.4383  1.0960 -1.3061
 5968TIP3   OH217909   0.071   4.300   0.224 -0.2561  0.6520  0.5467
 5968TIP3    H117910   0.082   4.210   0.191 -2.1123  0.3732  0.5696
 5968TIP3    H217911   0.109   4.355   0.156 -1.2975 -0.0649 -0.6600
 5969TIP3   OH217912   3.107   5.192   0.095 -0.4262  0.0925  0.1427
 5969TIP3    H117913   3.153   5.116   0.058 -3.0267 -1.0236 -1.0212
 5969TIP3    H217914   3.128   5.264   0.036 -0.5102 -0.4920 -0.6205
 5970TIP3   OH217915   6.176   0.488   4.612  0.1424 -0.0133 -0.2256
 5970TIP3    H117916   6.208   0.480   4.522 -1.8606  3.0335 -1.3592
 5970TIP3    H217917   6.248   0.529   4.659  0.8661 -0.7626 -0.6564
 5971TIP3   OH217918   0.459   5.099   0.930 -0.1006  0.7267 -0.5608
 5971TIP3    H117919   0.510   5.085   1.010 -2.7581 -2.3460  0.8504
 5971TIP3    H217920   0.500   5.041   0.865 -1.9025 -2.2893  0.7686
 5972TIP3   OH217921   4.637   5.355   1.790  0.2124 -0.2619  0.2673
 5972TIP3    H117922   4.571   5.358   1.721  0.2648  0.6514  0.2487
 5972TIP3    H217923   4.635   5.442   1.829  1.0670 -0.3772  0.5930
 5973TIP3   OH217924   4.467   4.742   2.000 -0.0843 -0.5337 -0.2706
 5973TIP3    H117925   4.529   4.672   1.982  0.8116 -0.1430  1.1013
 5973TIP3    H217926   4.388   4.698   2.032 -0.4575 -1.0179 -1.7844
 5974TIP3   OH217927   4.924   1.709   3.231 -0.0699  0.3703  0.0284
 5974TIP3    H117928   4.991   1.778   3.231 -0.1518  0.5131 -1.9217
 5974TIP3    H217929   4.868   1.730   3.156 -0.1894 -1.7283 -0.5304
 5975TIP3   OH217930   1.587   5.358   3.059  0.0499 -0.6621 -0.4375
 5975TIP3    H117931   1.582   5.442   3.104  1.3129  0.1314 -1.6797
 5975TIP3    H217932   1.545   5.296   3.118 -0.1573  0.6932  0.8879
 5976TIP3   OH217933   4.408   3.024   3.014 -0.2066 -0.2933 -0.2755
 5976TIP3    H117934   4.419   2.972   2.935 -0.6692  0.8779 -1.1415
 5976TIP3    H217935   4.483   3.000   3.069  1.8336  0.9629 -2.2796
 5977TIP3   OH217936   0.685   3.662   4.755 -0.1350  0.5096 -0.1318
 5977TIP3    H117937   0.595   3.666   4.788 -0.7920  0.7292 -1.8201
 5977TIP3    H217938   0.738   3.644   4.832 -1.5440  1.1173  1.0425
 5978TIP3   OH217939   4.767   3.422   4.259 -0.3308 -0.0264  0.4389
 5978TIP3    H117940   4.718   3.498   4.229  0.7020  1.4670  2.2889
 5978TIP3    H217941   4.841   3.416   4.199  0.5879  1.6316  1.3254
 5979TIP3   OH217942   1.894   1.652   3.591 -0.6671 -0.2651 -0.2841
 5979TIP3    H117943   1.868   1.571   3.635 -0.4479  0.3804  1.0953
 5979TIP3    H217944   1.987   1.660   3.611 -0.1283 -0.8308 -2.3603
 5980TIP3   OH217945   4.227   3.256   0.410  0.1264  0.7802  0.2697
 5980TIP3    H117946   4.252   3.348   0.406 -0.6252  0.9909  0.1541
 5980TIP3    H217947   4.285   3.212   0.348  0.4136  1.1905  0.2437
 5981TIP3   OH217948   0.049   0.579   1.983 -0.6422  0.8177 -0.1525
 5981TIP3    H117949  -0.007   0.653   2.006 -1.1533  1.3344 -2.6689
 5981TIP3    H217950   0.126   0.589   2.039 -0.4212  3.6650 -0.7864
 5982TIP3   OH217951   1.541   1.848   3.844  0.1858 -0.0283  0.0898
 5982TIP3    H117952   1.494   1.846   3.927  1.5775  1.4369  0.9786
 5982TIP3    H217953   1.472   1.845   3.777 -0.9631 -1.0388  1.2800
 5983TIP3   OH217954   3.567   3.420   2.484 -0.0682 -0.3174  0.2542
 5983TIP3    H117955   3.662   3.417   2.473 -0.0037 -0.5382  0.8447
 5983TIP3    H217956   3.532   3.409   2.395  0.4789  2.2163 -0.3484
 5984TIP3   OH217957   5.811   4.053   2.314 -0.0695  0.4052 -0.8731
 5984TIP3    H117958   5.848   3.971   2.282  0.0833 -0.2122  0.7753
 5984TIP3    H217959   5.721   4.053   2.283 -0.0755 -0.4024 -0.8760
 5985TIP3   OH217960   3.423   4.681   3.918  0.1806 -0.0244 -0.3467
 5985TIP3    H117961   3.401   4.605   3.865 -1.6813  0.2585 -0.0638
 5985TIP3    H217962   3.479   4.647   3.988 -1.7970 -1.4761  0.6411
 5986TIP3   OH217963   4.330   1.247   2.759 -0.0701  0.3535 -0.5353
 5986TIP3    H117964   4.365   1.299   2.831 -0.1038  0.8948 -0.9052
 5986TIP3    H217965   4.286   1.310   2.702 -0.8717 -0.1983 -0.5452
 5987TIP3   OH217966   3.855   0.300   0.054 -0.2474  0.7255  0.0845
 5987TIP3    H117967   3.820   0.234  -0.006  1.9766  1.0483 -1.7026
 5987TIP3    H217968   3.836   0.384   0.012 -0.6472  1.1036  0.9884
 5988TIP3   OH217969   1.367   5.498   2.129  0.3603 -0.0859  0.2660
 5988TIP3    H117970   1.459   5.474   2.134  0.9413  2.0164  0.5108
 5988TIP3    H217971   1.334   5.489   2.219  0.3804 -0.5855  0.2260
 5989TIP3   OH217972   6.077   2.811   0.053 -0.5277  0.1044  0.0418
 5989TIP3    H117973   6.155   2.848   0.011 -1.3612  0.7081 -1.0175
 5989TIP3    H217974   6.075   2.852   0.139  1.5232 -1.5754  0.9825
 5990TIP3   OH217975   2.068   5.716   3.416  0.0365 -0.3008  0.8092
 5990TIP3    H117976   2.149   5.766   3.416 -1.0875  1.6094  1.2110
 5990TIP3    H217977   2.093   5.630   3.449  1.6587  0.6534  2.2237
 5991TIP3   OH217978   0.228   0.464   3.406  0.4679  0.1771  0.1783
 5991TIP3    H117979   0.214   0.509   3.322 -0.7542  1.0708  0.8356
 5991TIP3    H217980   0.163   0.395   3.407  2.5318 -1.9418 -0.9586
 5992TIP3   OH217981   5.093   5.266   0.677 -0.1480  0.2587 -0.4639
 5992TIP3    H117982   5.181   5.237   0.651  0.5460  0.0584  1.8509
 5992TIP3    H217983   5.109   5.334   0.742 -1.7342  0.6123 -0.4229
 5993TIP3   OH217984   0.180   5.074   1.007  0.0387 -0.0258 -0.1762
 5993TIP3    H117985   0.157   4.982   1.022  0.6665 -0.0138  0.9908
 5993TIP3    H217986   0.275   5.077   1.019  0.4817  0.2679 -3.0654
 5994TIP3   OH217987   3.112   4.806   1.224 -0.8456  0.1327 -0.0996
 5994TIP3    H117988   3.132   4.760   1.305 -0.8502  0.1824 -0.0706
 5994TIP3    H217989   3.188   4.863   1.209  0.6014 -2.0465 -1.7063
 5995TIP3   OH217990   1.845   1.353   2.721 -0.0067 -0.1464 -0.6462
 5995TIP3    H117991   1.783   1.322   2.787  0.4088 -1.0281 -0.6733
 5995TIP3    H217992   1.923   1.300   2.733  0.8548  1.1067 -0.4707
 5996TIP3   OH217993   4.613   1.187   0.584 -0.1991  0.0991  0.1304
 5996TIP3    H117994   4.548   1.222   0.645  1.3851  1.0888  1.3197
 5996TIP3    H217995   4.635   1.262   0.528 -0.2352 -0.2972 -0.4281
 5997TIP3   OH217996   6.181   3.680   4.105  0.0927  0.0887  0.5855
 5997TIP3    H117997   6.201   3.596   4.146 -1.3861  0.1505  1.4965
 5997TIP3    H217998   6.196   3.666   4.012 -0.7038 -1.3687  0.6510
 5998TIP3   OH217999   2.512   1.599   4.130  0.0410  0.5009  0.5528
 5998TIP3    H118000   2.431   1.609   4.079 -1.2402 -0.3525  2.3159
 5998TIP3    H218001   2.539   1.689   4.149 -0.1823  0.8084 -0.4895
 5999TIP3   OH218002   4.750   1.320   2.684  0.6141  0.4771 -0.3706
 5999TIP3    H118003   4.782   1.290   2.598 -1.7720 -2.4294 -0.4185
 5999TIP3    H218004   4.796   1.264   2.747 -0.7931 -0.4786 -0.1377
 6000TIP3   OH218005   2.175   5.581   1.969 -0.5185 -0.1158  0.0866
 6000TIP3    H118006   2.183   5.618   1.881  0.3350 -0.6960 -0.0883
 6000TIP3    H218007   2.265   5.576   2.001 -0.5042 -2.6630 -0.1545
 6001TIP3   OH218008   0.934   1.049   3.694 -0.5995 -0.1811  0.3837
 6001TIP3    H118009   0.914   1.123   3.636  0.9643 -1.8088 -2.4469
 6001TIP3    H218010   1.018   1.073   3.735 -1.6037  0.8744  1.9610
 6002TIP3   OH218011   6.006   5.904   1.121 -0.2260 -0.0074 -0.3525
 6002TIP3    H118012   5.949   5.833   1.150  1.6102 -2.2302 -1.8247
 6002TIP3    H218013   6.078   5.905   1.184 -1.8611  3.0134  1.6990
 6003TIP3   OH218014   5.746   1.832   1.121 -0.2457 -0.1361 -0.0731
 6003TIP3    H118015   5.778   1.892   1.054 -0.2422  0.2919  0.3061
 6003TIP3    H218016   5.822   1.814   1.176 -0.5885  0.7331  0.7184
 6004TIP3   OH218017   2.405   5.029   0.508 -1.1005  0.0138  0.0102
 6004TIP3    H118018   2.423   5.097   0.573 -0.2065  0.2981 -0.5215
 6004TIP3    H218019   2.328   4.983   0.542 -0.9938  0.5289  0.9756
 6005TIP3   OH218020   3.323   1.855   4.268  0.2231  0.0375  0.1939
 6005TIP3    H118021   3.251   1.918   4.267  0.8495  0.7971  1.2250
 6005TIP3    H218022   3.379   1.882   4.196 -0.1274 -0.0943 -0.1339
 6006TIP3   OH218023   1.350   0.924   3.241  0.6393  0.5506  0.0406
 6006TIP3    H118024   1.413   0.978   3.194  0.7463 -0.3726 -0.9183
 6006TIP3    H218025   1.289   0.894   3.173 -0.9087  1.4869  0.9424
 6007TIP3   OH218026   3.326   4.923   0.216 -0.5707 -0.1345 -0.5179
 6007TIP3    H118027   3.320   4.830   0.195 -0.2983 -0.1260 -0.6348
 6007TIP3    H218028   3.312   4.967   0.133 -0.4566 -0.0751 -0.5043
 6008TIP3   OH218029   3.429   3.121   3.127 -0.0122 -0.1153  0.5029
 6008TIP3    H118030   3.485   3.045   3.112 -0.2581 -0.4164  1.0787
 6008TIP3    H218031   3.349   3.085   3.164 -0.0802  0.4407  0.9118
 6009TIP3   OH218032   5.915   4.456   0.090  0.3390 -0.2528 -0.0354
 6009TIP3    H118033   5.992   4.512   0.100 -0.2111  0.3089  1.1545
 6009TIP3    H218034   5.948   4.379   0.042  1.7003 -0.1390  0.6618
 6010TIP3   OH218035   3.922   0.492   0.596  0.1018 -0.0959  0.5355
 6010TIP3    H118036   4.013   0.480   0.570 -0.3873 -0.7058 -0.9797
 6010TIP3    H218037   3.871   0.448   0.528 -1.3295  0.1600  1.3986
 6011TIP3   OH218038   3.384   1.993   5.013 -0.0431  0.0246  0.0630
 6011TIP3    H118039   3.432   2.063   5.057  0.1884  0.3787 -0.7443
 6011TIP3    H218040   3.396   1.917   5.071  1.3157  0.1579  0.0028
 6012TIP3   OH218041   0.012   0.806   0.990 -0.0383  0.7505  0.0381
 6012TIP3    H118042  -0.002   0.897   0.965  2.3951  0.8294 -1.4448
 6012TIP3    H218043   0.062   0.769   0.917  1.8416 -0.8825  2.0105
 6013TIP3   OH218044   0.922   3.171   4.150 -0.0022 -0.5403 -0.5649
 6013TIP3    H118045   0.990   3.185   4.085  1.4179 -1.7649  0.5850
 6013TIP3    H218046   0.912   3.256   4.194  1.6053 -0.6039 -0.0222
 6014TIP3   OH218047   5.419   3.202   1.483  0.0879 -0.4334 -0.3884
 6014TIP3    H118048   5.424   3.278   1.426 -2.0057  0.5461  0.6432
 6014TIP3    H218049   5.425   3.237   1.571 -0.7802 -1.4615  0.1084
 6015TIP3   OH218050   4.119   4.221   3.986  0.1611 -0.0556  0.1036
 6015TIP3    H118051   4.204   4.229   4.030 -0.0406  1.2151  0.2928
 6015TIP3    H218052   4.127   4.277   3.909  0.3510 -1.9127 -1.2921
 6016TIP3   OH218053   0.202   1.385   3.731  0.3859  0.2777  0.4473
 6016TIP3    H118054   0.147   1.395   3.654 -0.8479 -0.2449  1.2337
 6016TIP3    H218055   0.232   1.474   3.750  0.7942  0.3981 -0.6801
 6017TIP3   OH218056   3.428   5.633   4.033  0.1859 -0.7300  0.5970
 6017TIP3    H118057   3.445   5.607   3.943 -0.6036  0.4522  0.0872
 6017TIP3    H218058   3.386   5.556   4.072  0.0428 -1.0596 -0.1892
 6018TIP3   OH218059   4.490   3.539   2.620 -0.0131  0.3383  0.2078
 6018TIP3    H118060   4.485   3.455   2.575 -2.0260  0.7590 -0.4677
 6018TIP3    H218061   4.510   3.516   2.711  2.5328 -0.6190 -0.5060
 6019TIP3   OH218062   2.924   2.559   1.878  0.5372  0.1038 -0.4077
 6019TIP3    H118063   2.840   2.586   1.915 -0.3817 -1.0379 -1.5482
 6019TIP3    H218064   2.987   2.624   1.910 -0.4826  0.1324  1.7122
 6020TIP3   OH218065   4.180   0.665   1.931 -0.0043 -0.3949  0.2480
 6020TIP3    H118066   4.138   0.612   1.864  0.3489 -0.8839  0.4125
 6020TIP3    H218067   4.189   0.751   1.890 -0.2208 -0.5606 -0.1574
 6021TIP3   OH218068   5.972   2.564   1.559 -0.3790  0.5567  0.1414
 6021TIP3    H118069   6.007   2.540   1.645 -1.1806 -1.4360 -0.0307
 6021TIP3    H218070   6.047   2.602   1.513  0.8197 -0.9407  0.7687
 6022TIP3   OH218071   5.438   2.626   4.279  0.3336  0.0671 -0.0736
 6022TIP3    H118072   5.521   2.639   4.233  0.8483  1.1134  1.1151
 6022TIP3    H218073   5.381   2.695   4.246  0.4577  0.3430  0.2836
 6023TIP3   OH218074   0.524   2.227   5.042  0.2818  0.5226 -0.5054
 6023TIP3    H118075   0.449   2.200   4.988  0.3754  0.9915 -0.8730
 6023TIP3    H218076   0.503   2.195   5.130  0.2604 -0.5135 -0.8675
 6024TIP3   OH218077   3.745   0.761   0.959  0.1447 -0.5128 -0.4296
 6024TIP3    H118078   3.651   0.764   0.942  0.1852 -1.9226 -1.0210
 6024TIP3    H218079   3.785   0.744   0.874  1.1881  2.7333 -0.7065
 6025TIP3   OH218080   1.131   1.532   3.767  0.2149 -0.8136 -0.6787
 6025TIP3    H118081   1.071   1.572   3.705 -1.1212  0.7536  1.4781
 6025TIP3    H218082   1.074   1.499   3.837  1.7310 -1.3065  0.3689
 6026TIP3   OH218083   4.356   4.889   2.979  0.4277  0.3760  0.2380
 6026TIP3    H118084   4.289   4.904   3.046 -0.2752 -0.4455 -0.2553
 6026TIP3    H218085   4.344   4.797   2.953  1.3405  0.3960 -0.3082
 6027TIP3   OH218086   5.978   1.323   1.927 -0.1400 -0.3657  0.7131
 6027TIP3    H118087   5.899   1.313   1.875  0.8998  2.2803 -1.6372
 6027TIP3    H218088   6.038   1.256   1.893 -0.4408 -0.5279  0.5010
 6028TIP3   OH218089   0.098   1.759   3.392 -0.4330 -0.1162  0.1541
 6028TIP3    H118090   0.025   1.748   3.454 -1.4350  0.7066 -0.8341
 6028TIP3    H218091   0.142   1.839   3.423 -0.7741  0.1469 -0.0282
 6029TIP3   OH218092   3.986   0.656   4.863  0.5669  0.2016 -0.2630
 6029TIP3    H118093   3.897   0.630   4.838  0.6062  0.0517 -0.2454
 6029TIP3    H218094   3.973   0.731   4.920  0.4148 -0.3011  0.3773
 6030TIP3   OH218095   0.458   1.787   3.180 -0.0709 -0.0855  0.4573
 6030TIP3    H118096   0.368   1.820   3.188  0.0899  0.1946  1.1733
 6030TIP3    H218097   0.465   1.758   3.089 -0.3822  1.4016 -0.0659
 6031TIP3   OH218098   1.022   3.080   0.408 -0.2993 -0.0016 -0.2894
 6031TIP3    H118099   1.001   3.118   0.322  2.4631 -1.8612 -1.9856
 6031TIP3    H218100   1.072   3.148   0.453 -3.5895  1.8178  0.9161
 6032TIP3   OH218101   3.017   4.830   4.566 -0.2843 -0.0250 -0.2729
 6032TIP3    H118102   2.965   4.799   4.492  1.9981 -1.8824 -1.2038
 6032TIP3    H218103   3.103   4.851   4.529  0.3953  0.6833  1.5783
 6033TIP3   OH218104   1.282   3.152   1.328  0.4320 -0.3524  0.9644
 6033TIP3    H118105   1.267   3.218   1.260  1.5777  0.5716  1.5657
 6033TIP3    H218106   1.201   3.102   1.331  0.2043 -0.1218 -0.7592
 6034TIP3   OH218107   3.756   5.514   3.716 -0.5414 -0.0365 -0.5922
 6034TIP3    H118108   3.761   5.469   3.800  2.4600 -1.4636 -1.3839
 6034TIP3    H218109   3.749   5.607   3.738  1.1382 -0.2881  1.3227
 6035TIP3   OH218110   3.049   3.054   4.607  0.5330 -0.1340  0.7676
 6035TIP3    H118111   3.103   2.976   4.614  0.2327 -0.3568  0.6175
 6035TIP3    H218112   3.007   3.047   4.521  3.4944  2.1076 -1.0915
 6036TIP3   OH218113   1.692   4.436   1.984  0.5046 -0.0444 -0.7187
 6036TIP3    H118114   1.613   4.412   2.033  0.8635  1.9356  0.9965
 6036TIP3    H218115   1.749   4.360   1.990 -0.9098 -1.1979 -1.2800
 6037TIP3   OH218116   3.075   1.297   3.092  0.2056 -0.0021 -0.2350
 6037TIP3    H118117   3.036   1.378   3.123 -1.3476  0.0148 -2.0390
 6037TIP3    H218118   3.042   1.287   3.003  0.9560 -2.2433 -0.3269
 6038TIP3   OH218119   2.842   1.705   2.369  0.2201  0.3730  0.3794
 6038TIP3    H118120   2.772   1.671   2.313  0.5192 -3.1749  1.8599
 6038TIP3    H218121   2.800   1.716   2.455  0.5376  2.5739  0.3191
 6039TIP3   OH218122   4.963   3.414   1.768  0.0041  0.0542  0.2840
 6039TIP3    H118123   4.879   3.404   1.723  0.5026 -2.5540 -0.2678
 6039TIP3    H218124   4.958   3.352   1.841  1.3554 -0.0222  0.3440
 6040TIP3   OH218125   4.862   0.835   2.318 -0.0849 -0.0453 -0.0139
 6040TIP3    H118126   4.956   0.852   2.328  0.6873 -1.7851 -2.9660
 6040TIP3    H218127   4.838   0.782   2.393  1.9369 -1.6276 -0.4120
 6041TIP3   OH218128   0.405   5.399   2.128  0.1218 -0.2995  0.1298
 6041TIP3    H118129   0.447   5.367   2.049 -1.7967  0.6406 -1.3537
 6041TIP3    H218130   0.411   5.494   2.121 -2.1513 -0.1378 -0.1326
 6042TIP3   OH218131   4.888   3.162   0.768  0.2537 -0.0638  0.1852
 6042TIP3    H118132   4.971   3.204   0.793 -0.1145  0.3803  0.7009
 6042TIP3    H218133   4.857   3.122   0.849  0.4488 -1.0845 -0.2387
 6043TIP3   OH218134   5.221   0.375   1.897  0.3230 -0.2357 -0.1714
 6043TIP3    H118135   5.238   0.434   1.823 -1.9227 -0.9722 -1.3612
 6043TIP3    H218136   5.256   0.422   1.973  0.5911  1.6168 -1.3675
 6044TIP3   OH218137   3.055   3.104   3.384 -0.5354 -0.4504  0.0553
 6044TIP3    H118138   2.973   3.120   3.337 -0.4340 -0.1312 -0.0205
 6044TIP3    H218139   3.046   3.156   3.464 -0.5479 -0.6864  0.2074
 6045TIP3   OH218140   5.494   1.152   4.769 -0.2607 -0.3678 -0.6550
 6045TIP3    H118141   5.457   1.071   4.804 -0.5148  0.0017 -0.0429
 6045TIP3    H218142   5.586   1.132   4.755  0.1519 -0.1880  1.4390
 6046TIP3   OH218143   2.220   5.600   0.286  0.0576  0.2825  0.5892
 6046TIP3    H118144   2.124   5.600   0.288  0.0242  2.1899  2.4358
 6046TIP3    H218145   2.245   5.524   0.338 -0.3945 -0.5648 -0.3773
 6047TIP3   OH218146   4.492   4.916   0.593 -0.0252  0.3836 -0.7403
 6047TIP3    H118147   4.415   4.885   0.641 -0.0637  0.1622 -0.9464
 6047TIP3    H218148   4.471   4.899   0.501  0.7387 -0.7257 -0.7248
 6048TIP3   OH218149   6.098   4.549   4.507 -0.2610 -0.1645 -0.2486
 6048TIP3    H118150   6.024   4.515   4.458  0.2252  1.4815 -2.2785
 6048TIP3    H218151   6.063   4.625   4.554 -0.4282 -0.9644  0.9525
 6049TIP3   OH218152   4.849   4.814   3.178 -0.6405  0.8654  0.3829
 6049TIP3    H118153   4.784   4.829   3.109 -1.3106  1.0704  1.0525
 6049TIP3    H218154   4.801   4.827   3.260 -0.0511 -0.1737  0.9099
 6050TIP3   OH218155   6.247   2.654   2.418  0.3566 -0.1177  0.0916
 6050TIP3    H118156   6.168   2.610   2.384 -1.7851  1.6378  2.3865
 6050TIP3    H218157   6.278   2.598   2.488  0.3284 -0.1863  0.0489
 6051TIP3   OH218158   5.039   3.624   3.862 -0.2416  0.5078 -0.1198
 6051TIP3    H118159   4.999   3.693   3.914  0.7020  1.2532 -0.3618
 6051TIP3    H218160   5.099   3.669   3.802  1.3775 -0.5754  0.5857
 6052TIP3   OH218161   0.669   2.487   0.378 -0.0954 -0.0147 -0.2410
 6052TIP3    H118162   0.660   2.392   0.380  1.0967 -0.1472  2.1461
 6052TIP3    H218163   0.688   2.512   0.468  1.2006  2.3233 -1.0632
 6053TIP3   OH218164   6.204   0.688   2.474  0.4537 -0.1025 -0.2739
 6053TIP3    H118165   6.238   0.599   2.476 -0.4148 -0.4835 -1.2490
 6053TIP3    H218166   6.200   0.715   2.565 -3.4987 -2.7376  0.5855
 6054TIP3   OH218167   1.723   3.511   4.784 -0.5358  0.1193 -0.1386
 6054TIP3    H118168   1.691   3.506   4.694 -0.9481 -1.1417  0.0568
 6054TIP3    H218169   1.816   3.486   4.778 -0.6619 -0.3625 -0.1782
 6055TIP3   OH218170   6.045   5.494   2.800 -0.5445 -0.1627 -0.0107
 6055TIP3    H118171   6.033   5.523   2.710  0.6862  1.9447  0.4557
 6055TIP3    H218172   6.138   5.473   2.807 -0.1969  1.6059  1.2555
 6056TIP3   OH218173   2.260   2.590   4.154 -0.1720 -0.1351 -0.3150
 6056TIP3    H118174   2.170   2.556   4.154  0.0395 -1.0348  2.8373
 6056TIP3    H218175   2.313   2.518   4.119 -0.2631 -1.4791  2.0712
 6057TIP3   OH218176   4.976   1.573   3.958 -0.1149  0.0771  0.0615
 6057TIP3    H118177   4.981   1.497   4.017  2.8475  0.9676  1.1259
 6057TIP3    H218178   5.022   1.643   4.005 -2.9093  2.6880 -0.7709
 6058TIP3   OH218179   1.873   1.608   0.513  0.1106  0.3638 -0.3228
 6058TIP3    H118180   1.877   1.548   0.438 -2.3718 -0.6737  0.2812
 6058TIP3    H218181   1.784   1.599   0.546  1.1730  0.5708  2.9278
 6059TIP3   OH218182   3.301   4.276   1.393 -0.6073 -0.1696 -0.0171
 6059TIP3    H118183   3.258   4.288   1.309 -1.7967  1.1637  0.7428
 6059TIP3    H218184   3.230   4.280   1.458  0.3253 -0.7194  1.0850
 6060TIP3   OH218185   4.465   5.390   0.469 -0.3425  0.5306 -0.4572
 6060TIP3    H118186   4.511   5.316   0.429  0.0378 -0.1800  1.2445
 6060TIP3    H218187   4.400   5.349   0.526 -1.0184  1.5331 -0.4932
 6061TIP3   OH218188   5.889   3.681   4.862  0.4880  0.4308  0.2260
 6061TIP3    H118189   5.974   3.665   4.823  1.7758 -0.7013  3.1782
 6061TIP3    H218190   5.906   3.746   4.931 -1.0979  0.4382  0.6561
 6062TIP3   OH218191   5.033   0.223   3.044  0.7910  0.3197 -0.4696
 6062TIP3    H118192   4.942   0.221   3.015  0.8663  0.1026 -0.6901
 6062TIP3    H218193   5.073   0.147   3.001  1.8379  2.0987 -2.8232
 6063TIP3   OH218194   0.136   0.710   0.261  0.3602 -0.3205  0.6962
 6063TIP3    H118195   0.174   0.798   0.265 -1.7660  0.8156 -1.6467
 6063TIP3    H218196   0.048   0.721   0.296 -0.5049 -1.0998 -1.1262
 6064TIP3   OH218197   5.732   0.797   3.744 -0.2745  0.2819 -0.1313
 6064TIP3    H118198   5.774   0.712   3.735 -1.1163  0.0408 -2.4893
 6064TIP3    H218199   5.652   0.779   3.794 -0.3194 -0.2822 -0.3991
 6065TIP3   OH218200   4.027   3.360   4.778  0.1048 -0.3597 -0.1187
 6065TIP3    H118201   4.055   3.382   4.867  0.8832  1.3128 -0.7371
 6065TIP3    H218202   4.105   3.321   4.738  0.4013  0.7816 -0.6782
 6066TIP3   OH218203   5.150   4.021   3.119 -0.1246 -0.0848  0.2098
 6066TIP3    H118204   5.077   4.017   3.057 -0.2785  0.7079  0.3338
 6066TIP3    H218205   5.225   4.047   3.067 -0.0330 -0.3997  0.1791
 6067TIP3   OH218206   4.541   0.209   3.795  0.3115  1.2994 -0.0769
 6067TIP3    H118207   4.486   0.267   3.848 -1.9000  0.6210 -1.4955
 6067TIP3    H218208   4.520   0.233   3.704 -0.0219 -1.0924 -0.6905
 6068TIP3   OH218209   5.544   2.061   1.452 -0.2534 -0.4399  0.2390
 6068TIP3    H118210   5.609   1.993   1.471 -0.2191 -0.3690  0.3759
 6068TIP3    H218211   5.487   2.062   1.529  0.8991  1.0231  1.1394
 6069TIP3   OH218212   0.301   2.560   0.498  0.2056  0.3176  0.4017
 6069TIP3    H118213   0.295   2.599   0.585  0.3659  1.5938 -0.1346
 6069TIP3    H218214   0.326   2.469   0.514  1.6045  0.8812  1.6389
 6070TIP3   OH218215   3.640   2.635   1.692 -0.1242  0.2978  0.3909
 6070TIP3    H118216   3.556   2.591   1.698 -0.3061  0.5026 -0.4408
 6070TIP3    H218217   3.677   2.605   1.609  0.5774  0.2873  0.6965
 6071TIP3   OH218218   4.771   1.132   0.097 -0.2513  0.5934  0.1372
 6071TIP3    H118219   4.778   1.078   0.019 -2.7520 -0.2585  0.4296
 6071TIP3    H218220   4.853   1.181   0.099  1.0757 -1.3930 -1.4611
 6072TIP3   OH218221   6.169   3.671   1.034 -0.0077 -0.1806  0.4439
 6072TIP3    H118222   6.235   3.668   1.104 -0.7801  2.7037  1.4360
 6072TIP3    H218223   6.220   3.666   0.953  1.3631  0.8978  1.1998
 6073TIP3   OH218224   2.747   4.063   2.122 -0.8343  0.1787 -0.5182
 6073TIP3    H118225   2.831   4.025   2.094 -0.4484  0.8495 -0.2940
 6073TIP3    H218226   2.692   3.987   2.139 -0.3698 -0.2724 -0.9585
 6074TIP3   OH218227   6.319   4.672   0.175 -0.0640 -0.5642 -0.2904
 6074TIP3    H118228   6.392   4.697   0.233 -0.4670 -0.4178  0.1571
 6074TIP3    H218229   6.275   4.755   0.155  0.5518 -0.4932 -1.4817
 6075TIP3   OH218230   1.418   4.997   3.015  0.0887  0.2940 -0.3448
 6075TIP3    H118231   1.423   4.901   3.018 -1.0854  0.2432  0.9601
 6075TIP3    H218232   1.338   5.018   3.062  1.4102  2.0083  1.3111
 6076TIP3   OH218233   3.415   3.832   2.268  0.0256  0.8686  0.2097
 6076TIP3    H118234   3.485   3.855   2.206  1.2627 -0.1818  1.1579
 6076TIP3    H218235   3.379   3.750   2.234  0.6736  0.3163  0.8311
 6077TIP3   OH218236   3.032   0.129   3.037 -0.1954  0.2533  0.7320
 6077TIP3    H118237   2.985   0.203   2.998 -1.1602 -1.7479 -2.2439
 6077TIP3    H218238   3.115   0.127   2.990 -1.3593 -2.1693 -1.4981
 6078TIP3   OH218239   2.211   0.961   1.062 -0.2015  0.8325  0.0773
 6078TIP3    H118240   2.233   1.052   1.040  1.2356  0.3795 -0.4308
 6078TIP3    H218241   2.293   0.923   1.093 -0.8135 -0.2844  0.3876
 6079TIP3   OH218242   6.293   4.340   0.510  0.4512 -0.0799 -0.2591
 6079TIP3    H118243   6.225   4.355   0.575 -0.2941  1.3966 -1.3138
 6079TIP3    H218244   6.344   4.421   0.510  2.6235 -1.3590  0.9195
 6080TIP3   OH218245   3.698   1.008   0.091 -0.0555 -0.3506  0.0856
 6080TIP3    H118246   3.750   1.011   0.010  1.6374 -1.9854  1.0301
 6080TIP3    H218247   3.746   1.064   0.152  0.6704 -1.9228  0.9911
 6081TIP3   OH218248   4.202   0.177   3.131 -0.0869 -0.1288  0.1521
 6081TIP3    H118249   4.161   0.127   3.060 -0.4375  2.2595 -1.4677
 6081TIP3    H218250   4.293   0.190   3.102 -0.4676  1.6330 -0.3937
 6082TIP3   OH218251   0.605   5.442   0.443 -0.1265 -0.4154  0.6075
 6082TIP3    H118252   0.529   5.500   0.436 -0.4537 -0.9276 -0.1625
 6082TIP3    H218253   0.664   5.470   0.373  0.5282  0.1391  1.3516
 6083TIP3   OH218254   5.250   0.193   4.976 -0.0874  0.3016  0.6795
 6083TIP3    H118255   5.332   0.187   5.025 -0.0241 -0.2097  0.5091
 6083TIP3    H218256   5.184   0.159   5.037 -0.4080  1.9939  1.3468
 6084TIP3   OH218257   5.503   4.327   0.535  0.0424  0.1388 -0.2080
 6084TIP3    H118258   5.539   4.383   0.466 -1.0919  1.3230  0.1215
 6084TIP3    H218259   5.459   4.388   0.594  0.7339 -0.8826  1.4127
 6085TIP3   OH218260   4.653   4.496   3.327  0.4208  0.4298  0.4885
 6085TIP3    H118261   4.693   4.557   3.388 -0.9479  0.1739  1.6855
 6085TIP3    H218262   4.726   4.440   3.298  1.3060  1.3237  0.9283
 6086TIP3   OH218263   2.828   2.480   0.673  0.4015 -0.3258  0.4139
 6086TIP3    H118264   2.838   2.457   0.581 -0.1549  0.9809  0.0012
 6086TIP3    H218265   2.907   2.445   0.715  0.4333 -1.3430 -0.4593
 6087TIP3   OH218266   5.558   5.393   3.575 -0.1308 -0.5204 -0.2534
 6087TIP3    H118267   5.497   5.386   3.502 -0.8996  0.7729  0.2363
 6087TIP3    H218268   5.549   5.483   3.605 -0.0159 -1.0852  1.5799
 6088TIP3   OH218269   3.918   1.830   3.585 -0.3430 -0.0988 -0.6801
 6088TIP3    H118270   4.010   1.854   3.572 -0.3666  1.9195  1.9982
 6088TIP3    H218271   3.922   1.743   3.626  0.3612 -0.1451 -0.8367
 6089TIP3   OH218272   0.886   3.739   0.154  0.1336 -0.4836  0.1099
 6089TIP3    H118273   0.832   3.667   0.120  0.1989 -1.2244  1.4957
 6089TIP3    H218274   0.870   3.739   0.248 -1.4152  2.6280 -0.0264
 6090TIP3   OH218275   5.201   0.445   0.984 -0.2800  0.0702  0.0563
 6090TIP3    H118276   5.193   0.395   0.903  0.5477  2.7773 -1.8421
 6090TIP3    H218277   5.114   0.443   1.023 -0.7836 -0.9959 -1.0604
 6091TIP3   OH218278   0.131   2.131   2.426  0.1543 -0.1487 -0.6405
 6091TIP3    H118279   0.045   2.091   2.413 -0.2960  0.6947 -0.3325
 6091TIP3    H218280   0.148   2.178   2.344  0.4961 -0.6329 -0.8473
 6092TIP3   OH218281  -0.023   3.082   3.045  0.4424  0.1299 -0.0433
 6092TIP3    H118282   0.001   3.052   2.957  1.6107 -2.7399  1.1661
 6092TIP3    H218283   0.054   3.130   3.076  1.4353 -1.7834  0.6190
 6093TIP3   OH218284   3.358   2.317   2.129  0.2992  0.0517  0.3400
 6093TIP3    H118285   3.319   2.387   2.076 -1.6421 -0.3519  1.1431
 6093TIP3    H218286   3.283   2.263   2.155  1.2782 -0.2457  2.7649
 6094TIP3   OH218287   0.645   0.083   2.684  0.0078  0.3421  0.1651
 6094TIP3    H118288   0.622  -0.010   2.685 -1.2478  0.6031 -0.9478
 6094TIP3    H218289   0.594   0.122   2.754  0.6379  0.1886  0.7211
 6095TIP3   OH218290   0.965   2.685   2.991  0.6042  0.0358 -0.3517
 6095TIP3    H118291   0.983   2.608   3.045  1.3624  0.3285 -0.1688
 6095TIP3    H218292   0.901   2.656   2.927  0.8084 -0.7200 -0.2163
 6096TIP3   OH218293   0.100   2.386   4.577 -0.2642  0.0438  0.5533
 6096TIP3    H118294   0.104   2.446   4.652  0.6571  0.4457  0.1919
 6096TIP3    H218295   0.054   2.436   4.509 -0.3689 -0.0200  0.5770
 6097TIP3   OH218296   3.475   0.036   0.604  0.2096  0.4255 -0.6826
 6097TIP3    H118297   3.422   0.061   0.680 -1.1094 -0.3330 -1.3308
 6097TIP3    H218298   3.472  -0.059   0.603  1.7433  0.3473 -0.6562
 6098TIP3   OH218299   5.619   1.220   4.046 -0.5726 -0.0496  0.2373
 6098TIP3    H118300   5.694   1.211   3.987 -1.0514  0.7397 -0.5112
 6098TIP3    H218301   5.650   1.276   4.117 -0.6424  0.8409 -0.4231
 6099TIP3   OH218302   4.915   3.470   2.109 -0.0140 -0.5823  0.6666
 6099TIP3    H118303   4.935   3.392   2.056 -1.3306 -0.9702  0.7036
 6099TIP3    H218304   4.887   3.535   2.045 -2.0819 -1.2056  0.8657
 6100TIP3   OH218305   2.619   5.541   1.565 -0.3759  0.5019  0.4798
 6100TIP3    H118306   2.591   5.535   1.656 -1.8617  0.4160  0.0485
 6100TIP3    H218307   2.601   5.454   1.528 -2.7926  1.3906 -0.6551
 6101TIP3   OH218308   4.322   0.786   4.170  0.5094 -0.4874 -0.2274
 6101TIP3    H118309   4.254   0.738   4.218 -0.4217 -1.0210 -1.9828
 6101TIP3    H218310   4.320   0.874   4.207 -1.9081 -0.1936 -0.8841
 6102TIP3   OH218311   3.996   4.524   5.170  0.2015 -0.1714  0.0449
 6102TIP3    H118312   3.922   4.475   5.206 -1.0111 -0.4531 -2.5432
 6102TIP3    H218313   4.059   4.457   5.145  0.6190 -0.0478  0.7522
 6103TIP3   OH218314   3.145   3.857   4.608 -0.0102  0.0569  0.1200
 6103TIP3    H118315   3.231   3.879   4.571  0.0733 -0.9290 -0.3063
 6103TIP3    H218316   3.083   3.875   4.538 -0.1870  0.9330  0.4854
 6104TIP3   OH218317   1.800   2.221   0.741 -0.2423  0.4487 -0.2403
 6104TIP3    H118318   1.888   2.186   0.732 -0.3255 -0.1157  0.9800
 6104TIP3    H218319   1.772   2.196   0.829 -1.2211  1.5246 -0.2055
 6105TIP3   OH218320   1.076   5.167   0.778 -0.2859 -0.3932 -0.6093
 6105TIP3    H118321   1.069   5.261   0.762  1.1145 -0.1819 -0.0719
 6105TIP3    H218322   1.144   5.137   0.718  0.5069 -0.7358  0.4274
 6106TIP3   OH218323   3.259   5.447   0.502  0.0792 -0.5281 -0.0729
 6106TIP3    H118324   3.291   5.452   0.412 -1.9353 -0.7544 -0.8516
 6106TIP3    H218325   3.311   5.378   0.542 -0.1726 -1.6468 -1.5987
 6107TIP3   OH218326   2.133   1.927   3.810 -1.1136  0.0293  0.0831
 6107TIP3    H118327   2.206   1.870   3.784 -0.0657  1.4772 -0.2715
 6107TIP3    H218328   2.059   1.897   3.757 -1.8326 -3.6589  2.7525
 6108TIP3   OH218329   0.113   3.997   4.670 -0.3570  0.2071  0.0987
 6108TIP3    H118330   0.081   4.028   4.586 -1.3699 -0.3224  0.2649
 6108TIP3    H218331   0.043   4.020   4.732  0.0249 -0.1101  0.6613
 6109TIP3   OH218332   3.281   4.221   2.506  0.2482 -0.2075 -0.8278
 6109TIP3    H118333   3.373   4.224   2.530 -0.1060  0.7517  0.5565
 6109TIP3    H218334   3.239   4.175   2.579 -0.5236  0.4564 -0.8416
 6110TIP3   OH218335   2.786   2.955   0.189  0.2921  0.1020 -0.2894
 6110TIP3    H118336   2.806   2.982   0.278  0.1802 -1.0186  0.0894
 6110TIP3    H218337   2.705   2.905   0.196  1.4485 -1.9298 -0.6538
 6111TIP3   OH218338   3.130   3.505   2.484  0.1362 -0.2729  0.0903
 6111TIP3    H118339   3.134   3.470   2.573  1.6610 -2.2681 -0.6986
 6111TIP3    H218340   3.088   3.590   2.495  2.4089  0.6875  3.0859
 6112TIP3   OH218341   3.453   0.955   1.431  0.3892 -0.1133  0.0021
 6112TIP3    H118342   3.501   0.975   1.351  0.9408  0.0906  0.3786
 6112TIP3    H218343   3.391   0.886   1.405  0.2190  0.2948 -0.7071
 6113TIP3   OH218344   0.076   2.002   0.845 -0.0306  0.1304 -0.5387
 6113TIP3    H118345   0.001   1.945   0.827 -0.1644  0.3706 -0.7446
 6113TIP3    H218346   0.060   2.035   0.934  0.9256 -1.5110  0.2921
 6114TIP3   OH218347   2.123   3.647   2.205  0.2487 -0.0757  0.0616
 6114TIP3    H118348   2.075   3.674   2.126 -0.4102  0.9420  0.7818
 6114TIP3    H218349   2.153   3.729   2.243 -0.9667 -0.4054  1.8213
 6115TIP3   OH218350   0.161   1.873   2.866  0.1159 -0.4468  0.5136
 6115TIP3    H118351   0.170   1.855   2.959  0.7491  0.4381  0.6464
 6115TIP3    H218352   0.162   1.969   2.860  1.5304 -0.4919 -0.5111
 6116TIP3   OH218353   6.295   4.267   3.109  0.0889  0.4087  0.0367
 6116TIP3    H118354   6.230   4.197   3.100  0.5858 -0.2059  1.0115
 6116TIP3    H218355   6.309   4.298   3.020  0.4185 -1.2700 -0.5397
 6117TIP3   OH218356   3.520   1.012   2.008  0.2214  0.1888 -0.1879
 6117TIP3    H118357   3.607   1.025   2.046  0.5123 -0.2937 -0.6550
 6117TIP3    H218358   3.512   0.917   2.001 -0.5745  0.2099  0.3559
 6118TIP3   OH218359   5.748   2.440   1.579 -0.2873  0.3901 -0.2666
 6118TIP3    H118360   5.820   2.496   1.552 -0.6600  0.8077 -0.4086
 6118TIP3    H218361   5.721   2.475   1.664 -1.3898  1.2848 -0.9524
 6119TIP3   OH218362   3.502   2.978   4.506  0.4822  0.6214  0.0511
 6119TIP3    H118363   3.485   2.913   4.573  3.2695 -0.5046 -0.2152
 6119TIP3    H218364   3.451   2.948   4.430  0.4082 -0.2959  0.4558
 6120TIP3   OH218365   1.563   4.740   1.166 -0.0420  0.4756  0.3664
 6120TIP3    H118366   1.531   4.674   1.105  0.5014  2.0462 -1.7530
 6120TIP3    H218367   1.510   4.728   1.244 -1.9658 -0.5629 -1.0061
 6121TIP3   OH218368   4.543   4.542   1.496 -0.6938 -0.2841 -0.6393
 6121TIP3    H118369   4.586   4.565   1.578 -0.9682  2.9615 -1.2813
 6121TIP3    H218370   4.450   4.553   1.514 -0.9138 -1.6222 -0.8539
 6122TIP3   OH218371   0.293   2.253   3.729 -0.0421 -0.2816 -0.3480
 6122TIP3    H118372   0.273   2.344   3.752  0.5361  0.4977 -2.6866
 6122TIP3    H218373   0.388   2.246   3.740  0.2176  0.0479 -2.0982
 6123TIP3   OH218374   5.754   4.958   4.049  0.1378 -0.3029 -0.3621
 6123TIP3    H118375   5.740   5.036   4.103 -1.1280 -1.1732  0.6290
 6123TIP3    H218376   5.694   4.970   3.975  1.1404  0.4090 -1.0955
 6124TIP3   OH218377   6.207   4.916   0.137  0.5487 -0.2275  0.3051
 6124TIP3    H118378   6.280   4.978   0.140 -0.0617  0.5113  0.2715
 6124TIP3    H218379   6.161   4.938   0.056 -0.5884  0.3602  1.0695
 6125TIP3   OH218380   0.036   1.542   2.238 -0.5601  0.7719  0.3852
 6125TIP3    H118381   0.053   1.631   2.206 -0.4975  1.0596  1.1830
 6125TIP3    H218382   0.083   1.538   2.321 -1.0705  0.2015  0.6531
 6126TIP3   OH218383   0.816   4.747   3.080 -0.0818  0.0942  0.5558
 6126TIP3    H118384   0.757   4.678   3.113 -0.5485  0.6536  0.9135
 6126TIP3    H218385   0.794   4.755   2.988 -0.4321  0.1559  0.6415
 6127TIP3   OH218386   0.613   4.428   3.654  0.2803 -0.2219  0.3793
 6127TIP3    H118387   0.669   4.486   3.601  0.6897 -0.5117  0.4875
 6127TIP3    H218388   0.650   4.434   3.742 -1.1706  1.2502  0.9350
 6128TIP3   OH218389   6.317   4.084   4.464  0.5760 -0.8256 -0.0091
 6128TIP3    H118390   6.223   4.083   4.481 -0.0494 -2.2844 -2.9269
 6128TIP3    H218391   6.336   4.174   4.438  0.2786 -0.2367  1.6862
 6129TIP3   OH218392   1.042   0.416   4.099 -0.0395 -0.4202  0.2234
 6129TIP3    H118393   1.113   0.463   4.056 -0.3018 -0.8583 -0.7208
 6129TIP3    H218394   0.976   0.405   4.030 -0.9714 -0.1261  1.0502
 6130TIP3   OH218395   1.017   3.747   4.449  0.5171 -0.2551  0.1934
 6130TIP3    H118396   0.959   3.818   4.478 -0.6305 -1.0574 -0.0652
 6130TIP3    H218397   0.968   3.667   4.468  0.4267 -0.8957 -2.3654
 6131TIP3   OH218398   5.494   4.716   1.406 -0.4228 -0.1765  0.5062
 6131TIP3    H118399   5.445   4.705   1.325  2.2842  2.6475 -1.7778
 6131TIP3    H218400   5.528   4.629   1.426 -2.2343 -1.1980 -0.5492
 6132TIP3   OH218401   3.511   4.396   2.256  0.0259  0.4569 -0.5745
 6132TIP3    H118402   3.533   4.311   2.218  1.0078  0.3359  0.2377
 6132TIP3    H218403   3.592   4.446   2.251  0.4723  0.1504  2.1110
 6133TIP3   OH218404   4.358   0.458   4.659  0.1370 -0.3248  0.0446
 6133TIP3    H118405   4.384   0.515   4.586  1.7685  0.6747  1.3201
 6133TIP3    H218406   4.341   0.519   4.731 -1.0153 -1.3104  0.6341
 6134TIP3   OH218407   4.013   1.594   4.546 -0.0911  0.4815  0.2752
 6134TIP3    H118408   4.041   1.605   4.455 -0.9378  1.4682  0.1196
 6134TIP3    H218409   4.029   1.502   4.565 -0.8687  0.0168 -1.2018
 6135TIP3   OH218410   3.755   3.130   2.598  0.3554 -0.2898 -0.3401
 6135TIP3    H118411   3.720   3.116   2.686 -0.6368 -0.9247 -0.8123
 6135TIP3    H218412   3.838   3.175   2.611 -0.2744  0.5630  0.8623
 6136TIP3   OH218413   5.957   0.242   0.369  0.1768  0.3999  0.9428
 6136TIP3    H118414   6.001   0.293   0.436  1.7000  1.8597 -1.0452
 6136TIP3    H218415   5.890   0.193   0.416  3.6801 -1.8255  4.2080
 6137TIP3   OH218416   1.453   2.055   3.111  0.0748  0.4002 -0.4584
 6137TIP3    H118417   1.400   1.975   3.118  0.1280  0.3079 -1.0456
 6137TIP3    H218418   1.403   2.121   3.159 -0.2040  0.1268 -0.3667
 6138TIP3   OH218419   0.431   4.624   3.434 -0.2495 -0.5038  0.2261
 6138TIP3    H118420   0.448   4.530   3.422 -0.1742 -0.6753  1.6024
 6138TIP3    H218421   0.408   4.655   3.346  0.5208 -1.6430 -0.3999
 6139TIP3   OH218422   0.321   5.311   4.867 -0.1373 -0.0789  0.1834
 6139TIP3    H118423   0.299   5.340   4.955  0.9128  0.1348  0.3934
 6139TIP3    H218424   0.399   5.362   4.843 -1.4832  1.2820 -1.6335
 6140TIP3   OH218425   5.706   3.261   4.082  0.0954 -0.1705  0.0600
 6140TIP3    H118426   5.681   3.284   4.172  1.4587  0.3565  0.3346
 6140TIP3    H218427   5.706   3.166   4.080 -0.4385 -0.1844  0.4672
 6141TIP3   OH218428   1.679   2.763   1.237  0.0367  0.1414  0.6187
 6141TIP3    H118429   1.710   2.779   1.147  2.3159 -0.1370  1.2848
 6141TIP3    H218430   1.628   2.682   1.230  0.2237  0.0908 -0.4119
 6142TIP3   OH218431   2.991   5.878   0.526 -0.4365  0.0496 -0.2042
 6142TIP3    H118432   2.972   5.919   0.442 -0.5533 -0.0202 -0.2127
 6142TIP3    H218433   3.058   5.934   0.565 -0.6130  0.2628 -0.2029
 6143TIP3   OH218434   2.475   3.273   3.536 -0.1185  0.5241 -0.5579
 6143TIP3    H118435   2.507   3.189   3.569  1.2621  1.0512 -0.5093
 6143TIP3    H218436   2.489   3.334   3.608  0.5927  1.1631 -1.2176
 6144TIP3   OH218437   3.122   3.510   3.577  0.2627 -0.0447  0.1625
 6144TIP3    H118438   3.207   3.549   3.601  1.0131 -0.3685 -1.8231
 6144TIP3    H218439   3.136   3.416   3.584  0.3413 -0.1252 -1.0025
 6145TIP3   OH218440   5.067   3.266   3.519  0.8279 -0.7850 -0.0260
 6145TIP3    H118441   5.161   3.275   3.509  1.1126 -4.1727 -1.8664
 6145TIP3    H218442   5.030   3.310   3.443  0.6478  2.1869  1.6259
 6146TIP3   OH218443   3.861   1.702   4.262 -0.4590 -0.1497 -0.1558
 6146TIP3    H118444   3.844   1.791   4.234  0.6733 -0.6987 -2.8531
 6146TIP3    H218445   3.949   1.705   4.301  1.2859 -0.5995 -3.6577
 6147TIP3   OH218446   3.887   5.275   2.394  0.0694  0.7054 -0.1752
 6147TIP3    H118447   3.891   5.227   2.476 -2.0540  2.2441  0.9151
 6147TIP3    H218448   3.820   5.230   2.343  0.2258  0.7179 -0.3939
 6148TIP3   OH218449   5.792   4.525   0.668 -0.4447  0.7683  0.3240
 6148TIP3    H118450   5.831   4.440   0.645 -2.4362 -0.1130  0.0506
 6148TIP3    H218451   5.848   4.589   0.623  0.5303 -0.4458 -0.2769
 6149TIP3   OH218452   1.958   3.979   4.337 -0.2695  0.3175 -0.2371
 6149TIP3    H118453   1.896   3.962   4.266 -0.4023 -1.3521  0.2314
 6149TIP3    H218454   2.022   3.909   4.329  2.5990  2.8505 -1.7194
 6150TIP3   OH218455   3.877   2.808   2.802 -0.6180 -0.5647 -0.0435
 6150TIP3    H118456   3.962   2.819   2.844 -1.5003  0.5827  1.5660
 6150TIP3    H218457   3.895   2.757   2.723  1.6557  0.2826 -0.1343
 6151TIP3   OH218458   2.079   4.942   0.163  0.2002  0.0341 -0.5969
 6151TIP3    H118459   2.070   4.970   0.254  0.8206 -0.2730 -0.4339
 6151TIP3    H218460   2.073   5.023   0.112  1.9454  0.5126 -0.1364
 6152TIP3   OH218461   0.549   3.762   4.159  0.1964  0.1871 -0.5616
 6152TIP3    H118462   0.495   3.689   4.128  0.2273 -0.3092  0.5146
 6152TIP3    H218463   0.493   3.809   4.221  0.1193  1.1973 -1.3668
 6153TIP3   OH218464   4.286   4.990   4.241 -0.4603  0.0897 -0.6484
 6153TIP3    H118465   4.258   5.025   4.157 -1.5849 -0.1416 -0.3796
 6153TIP3    H218466   4.327   5.064   4.286 -0.0813  0.2751 -1.2918
 6154TIP3   OH218467   3.245   5.483   2.444  0.7122  0.0401  0.5222
 6154TIP3    H118468   3.304   5.454   2.375 -1.4492 -1.5937 -0.7800
 6154TIP3    H218469   3.181   5.538   2.400 -0.1444 -0.2308  1.3831
 6155TIP3   OH218470   3.064   5.190   4.068  0.1788 -0.0471  0.1309
 6155TIP3    H118471   3.056   5.275   4.113 -0.2220 -0.0561  0.0810
 6155TIP3    H218472   3.104   5.133   4.132  1.6537  0.5122 -0.2596
 6156TIP3   OH218473   2.337   4.364   0.641  0.4674  0.3821  1.0154
 6156TIP3    H118474   2.426   4.384   0.613  1.0108  0.3299  2.6077
 6156TIP3    H218475   2.315   4.282   0.596  0.6797  1.1160 -0.4625
 6157TIP3   OH218476   5.917   2.043   3.097 -0.4393  0.2495 -0.1194
 6157TIP3    H118477   5.850   2.112   3.103 -0.8585 -0.2690  2.2199
 6157TIP3    H218478   5.868   1.962   3.088  0.0457  0.1442 -2.4191
 6158TIP3   OH218479   4.263   0.363   1.654  0.4782 -0.3454 -0.1047
 6158TIP3    H118480   4.223   0.287   1.611  0.0899 -0.8907  1.1986
 6158TIP3    H218481   4.196   0.397   1.713  1.2248 -0.0249  0.5840
 6159TIP3   OH218482   3.769   5.263   4.234 -0.0530 -0.5340 -0.2479
 6159TIP3    H118483   3.738   5.240   4.146  0.9717 -0.1845 -0.7110
 6159TIP3    H218484   3.779   5.358   4.232 -1.6612 -0.2862  0.8080
 6160TIP3   OH218485   1.855   4.613   2.633 -0.0302  0.2578  0.5862
 6160TIP3    H118486   1.773   4.660   2.616 -0.4752 -0.9298 -0.7503
 6160TIP3    H218487   1.837   4.562   2.712 -0.7071 -0.2193  0.1395
 6161TIP3   OH218488   2.749   5.080   2.004  0.2094  0.6860 -0.5352
 6161TIP3    H118489   2.795   4.999   2.028  1.8381  0.8905 -2.7381
 6161TIP3    H218490   2.756   5.085   1.909 -1.9088  2.2566 -0.6773
 6162TIP3   OH218491   1.377   5.248   5.122 -0.5738 -0.2708 -0.1235
 6162TIP3    H118492   1.382   5.191   5.045  1.1855 -1.4616  0.8175
 6162TIP3    H218493   1.466   5.279   5.135 -1.4823  2.9321 -0.6703
 6163TIP3   OH218494   5.418   1.357   2.195  0.3568 -0.5634 -0.0347
 6163TIP3    H118495   5.470   1.401   2.263 -1.0792  0.2001  0.6148
 6163TIP3    H218496   5.374   1.285   2.241 -0.8272  0.1146 -0.0721
 6164TIP3   OH218497   5.342   1.450   3.066  0.1645 -0.3461  0.0465
 6164TIP3    H118498   5.287   1.372   3.074  1.8753 -1.5758  0.4178
 6164TIP3    H218499   5.431   1.416   3.068  0.9561  1.4545 -1.7719
 6165TIP3   OH218500   5.213   0.451   4.268 -0.1149  0.4025  0.0197
 6165TIP3    H118501   5.250   0.376   4.316  1.2458  0.9908 -0.0699
 6165TIP3    H218502   5.178   0.508   4.337 -0.4072  0.0837  0.1409
 6166TIP3   OH218503   2.072   3.787   1.161 -0.1052  0.1695 -0.1216
 6166TIP3    H118504   2.035   3.870   1.189 -1.9046 -0.6169 -0.0442
 6166TIP3    H218505   2.167   3.803   1.156 -0.4528  2.2998 -0.4957
 6167TIP3   OH218506   0.322   2.485   0.000  0.1602  0.2098 -0.2125
 6167TIP3    H118507   0.395   2.496  -0.060 -0.1549 -0.5558 -0.7504
 6167TIP3    H218508   0.362   2.489   0.087  0.9600 -0.8447 -0.5055
 6168TIP3   OH218509   0.196   4.793   2.094 -0.0126  0.0708 -0.1757
 6168TIP3    H118510   0.163   4.805   2.005  3.3525 -2.0474 -1.9089
 6168TIP3    H218511   0.227   4.879   2.120  3.5329  0.0286 -3.3002
 6169TIP3   OH218512   0.589   3.979   0.740 -0.2659  0.1081 -0.1605
 6169TIP3    H118513   0.538   3.918   0.685  1.7959 -0.3811 -1.6499
 6169TIP3    H218514   0.634   4.035   0.678  0.2721  1.1678  1.1418
 6170TIP3   OH218515   1.467   1.010   2.196 -0.5049  0.2024  0.1407
 6170TIP3    H118516   1.424   1.036   2.277 -1.3216 -1.6156  0.3344
 6170TIP3    H218517   1.487   0.917   2.208  1.0800  0.3431 -1.0151
 6171TIP3   OH218518   4.269   5.888   2.371 -0.4981  0.2465 -0.4356
 6171TIP3    H118519   4.233   5.829   2.304 -0.1196 -0.9969  0.4475
 6171TIP3    H218520   4.363   5.891   2.353 -0.6698  1.6863 -1.3078
 6172TIP3   OH218521   4.137   2.738   3.824  0.0052  0.1065  0.5368
 6172TIP3    H118522   4.093   2.802   3.880  1.3093  1.5125  0.0282
 6172TIP3    H218523   4.188   2.684   3.885 -0.0182  0.4370  0.8534
 6173TIP3   OH218524   1.117   5.172   1.047 -0.2823 -0.5495  0.0255
 6173TIP3    H118525   1.061   5.177   0.969 -0.0564  0.7489 -0.0793
 6173TIP3    H218526   1.196   5.129   1.016  0.9272  2.3169 -1.2302
 6174TIP3   OH218527   0.800   2.727   4.713  0.1888 -0.1107  0.0007
 6174TIP3    H118528   0.840   2.642   4.735  0.5286 -0.0893 -0.5217
 6174TIP3    H218529   0.777   2.719   4.621 -1.1711 -0.1773  0.3174
 6175TIP3   OH218530   4.305   4.992   1.567  0.1440  0.0104 -0.6493
 6175TIP3    H118531   4.213   4.971   1.581 -0.0784  1.1561 -0.3656
 6175TIP3    H218532   4.344   4.993   1.654  0.5657 -0.9920 -0.8015
 6176TIP3   OH218533   5.733   4.697   3.038  0.0161  0.3761 -0.0443
 6176TIP3    H118534   5.789   4.764   2.999  2.2296 -2.2114 -1.7478
 6176TIP3    H218535   5.766   4.615   3.001 -1.9631 -1.7557  2.5359
 6177TIP3   OH218536   2.747   5.169   4.159  0.2552 -0.2775 -0.3372
 6177TIP3    H118537   2.779   5.148   4.247 -1.1301 -2.1994 -0.2252
 6177TIP3    H218538   2.822   5.207   4.114  1.5708 -1.1208  1.0704
 6178TIP3   OH218539   2.099   4.467   5.076  0.1510 -0.0274  0.8486
 6178TIP3    H118540   2.029   4.514   5.120  1.3773 -0.0307  2.9365
 6178TIP3    H218541   2.067   4.377   5.071  0.1096 -0.1042  2.1092
 6179TIP3   OH218542   5.690   5.762   3.731 -0.4314 -0.2158  0.2133
 6179TIP3    H118543   5.764   5.810   3.767 -0.4607  0.3512 -0.4695
 6179TIP3    H218544   5.691   5.678   3.777 -0.6718  0.6032  1.7803
 6180TIP3   OH218545   3.701   4.716   2.555 -0.5789  0.0026  0.1555
 6180TIP3    H118546   3.709   4.775   2.630  1.0024  0.5673 -0.4147
 6180TIP3    H218547   3.612   4.728   2.524 -1.2365 -0.1617  1.8510
 6181TIP3   OH218548   4.456   4.598   2.549  0.0838  0.1215 -0.1792
 6181TIP3    H118549   4.471   4.576   2.457  1.2108  2.4038 -0.6085
 6181TIP3    H218550   4.364   4.625   2.552 -0.0858 -0.4107 -0.5419
 6182TIP3   OH218551   6.146   2.268   3.730 -0.3076 -0.1455  0.5749
 6182TIP3    H118552   6.120   2.357   3.709  0.1507 -0.2437 -0.4442
 6182TIP3    H218553   6.079   2.238   3.793  0.0437  1.2089  1.6543
 6183TIP3   OH218554   2.499   2.110   3.749  0.6923 -0.3309  0.1571
 6183TIP3    H118555   2.586   2.087   3.784  1.1409  2.7772  1.4791
 6183TIP3    H218556   2.508   2.202   3.723 -1.8710 -0.3192 -0.9507
 6184TIP3   OH218557   0.591   1.763   2.947  0.0465 -0.2634 -0.0262
 6184TIP3    H118558   0.586   1.790   2.856 -0.3686  1.3030  0.4253
 6184TIP3    H218559   0.639   1.680   2.945 -1.4780 -1.1683 -1.8146
 6185TIP3   OH218560   0.593   2.920   1.552 -0.5863  0.0161 -0.1964
 6185TIP3    H118561   0.655   2.848   1.556 -0.0049  0.5505  0.7627
 6185TIP3    H218562   0.612   2.964   1.468 -1.4018 -1.3104 -1.1180
 6186TIP3   OH218563   1.051   4.870   3.024 -0.5195  0.2833  0.2643
 6186TIP3    H118564   0.963   4.840   3.044 -1.3385  2.5949  0.3574
 6186TIP3    H218565   1.062   4.854   2.930 -1.1281  0.1917  0.2096
 6187TIP3   OH218566   3.530   4.749   2.890  0.0475 -0.1059 -0.5475
 6187TIP3    H118567   3.527   4.697   2.970 -0.3367  0.7437  0.0090
 6187TIP3    H218568   3.456   4.718   2.838 -0.5809  0.3231  0.0685
 6188TIP3   OH218569   5.996   0.195   3.474  0.4743  0.2071 -0.1043
 6188TIP3    H118570   6.033   0.139   3.405  1.6120  1.7144 -0.7821
 6188TIP3    H218571   6.055   0.183   3.548 -0.1770 -0.6459  0.2962
 6189TIP3   OH218572   2.702   4.541   3.867  0.0130  0.3183 -0.3841
 6189TIP3    H118573   2.664   4.550   3.779 -1.2248 -0.2626  0.0726
 6189TIP3    H218574   2.724   4.631   3.892 -2.1857  0.8534 -0.1983
 6190TIP3   OH218575   0.769   5.192   1.678  0.1567  0.2761  0.3143
 6190TIP3    H118576   0.816   5.205   1.761  0.8769 -1.1849  0.1638
 6190TIP3    H218577   0.837   5.192   1.611 -0.3724  0.9483 -0.2407
 6191TIP3   OH218578   2.115   3.727   2.959 -0.4236  0.4601 -0.1975
 6191TIP3    H118579   2.194   3.716   2.907 -0.9899  2.5299 -1.6035
 6191TIP3    H218580   2.043   3.711   2.898 -1.1086  0.5324  0.5654
 6192TIP3   OH218581   0.258   1.836   3.831 -0.2600 -0.7809  0.4269
 6192TIP3    H118582   0.220   1.782   3.899  0.2019  0.4958  1.7481
 6192TIP3    H218583   0.349   1.848   3.858 -0.5093  1.1759  0.5588
 6193TIP3   OH218584   0.567   1.871   0.159  0.1878 -0.2163  0.0341
 6193TIP3    H118585   0.536   1.959   0.139  0.9118  0.0006 -0.1749
 6193TIP3    H218586   0.549   1.821   0.079 -3.3267 -1.1671  1.2678
 6194TIP3   OH218587   6.024   2.668   0.553 -0.4427 -0.6197  0.1680
 6194TIP3    H118588   5.943   2.683   0.505 -0.3803  0.8274  0.4740
 6194TIP3    H218589   6.007   2.588   0.604 -0.6075 -2.0278 -1.9432
 6195TIP3   OH218590   4.085   2.850   3.162  0.5741 -0.1372 -0.2833
 6195TIP3    H118591   4.045   2.766   3.141  1.3248 -1.0212  1.5453
 6195TIP3    H218592   4.026   2.889   3.226  1.0083 -0.0103  0.0449
 6196TIP3   OH218593   3.851   4.889   1.789  0.5145  0.3180  0.6026
 6196TIP3    H118594   3.777   4.907   1.731  0.5372  0.3935  0.5961
 6196TIP3    H218595   3.928   4.894   1.732  0.5195  0.1793  0.5976
 6197TIP3   OH218596   3.132   1.045   4.244 -0.1952 -0.1290  0.3139
 6197TIP3    H118597   3.206   1.104   4.257  0.1081 -0.9425  2.7575
 6197TIP3    H218598   3.167   0.973   4.191  0.3705  0.1795  0.2662
 6198TIP3   OH218599   4.177   1.882   4.909  0.1239  0.1109  0.3987
 6198TIP3    H118600   4.132   1.897   4.826 -2.1886 -0.7963  1.3871
 6198TIP3    H218601   4.186   1.968   4.948  0.3412  0.4381 -0.3560
 6199TIP3   OH218602   4.881   2.145   2.207  0.0316 -0.1557 -0.1915
 6199TIP3    H118603   4.800   2.197   2.203 -0.4408 -0.8577  0.1009
 6199TIP3    H218604   4.910   2.154   2.297  1.3169  1.6194 -0.7333
 6200TIP3   OH218605  -0.021   4.396   1.145 -0.1254  0.0642  0.4383
 6200TIP3    H118606   0.021   4.385   1.230 -0.5639  1.9995  0.9766
 6200TIP3    H218607   0.050   4.387   1.081  0.6252  0.6967  1.1644
 6201TIP3   OH218608   4.980   4.033   4.614  0.6372  0.1119 -0.0240
 6201TIP3    H118609   5.025   4.025   4.530 -0.6765 -1.7320 -0.6254
 6201TIP3    H218610   5.040   4.082   4.670  1.4362  1.6091 -2.1018
 6202TIP3   OH218611   4.770   0.071   5.018 -0.1848 -0.2674 -0.2642
 6202TIP3    H118612   4.806   0.002   4.962  2.3394  0.5398  0.2232
 6202TIP3    H218613   4.720   0.024   5.085  0.6677 -1.5586 -0.5017
 6203TIP3   OH218614   2.500   2.134   1.726  0.2282 -0.9111  0.1112
 6203TIP3    H118615   2.417   2.155   1.684 -0.5271 -2.0317  0.9855
 6203TIP3    H218616   2.508   2.198   1.797 -0.0055 -0.9456  0.1696
 6204TIP3   OH218617   0.313   0.721   2.976 -0.4673  0.3284 -0.3746
 6204TIP3    H118618   0.392   0.704   3.026 -0.0831  0.0572 -1.0541
 6204TIP3    H218619   0.314   0.816   2.962 -1.5077  0.6819  1.6159
 6205TIP3   OH218620   1.225   1.343   2.356  0.5140  0.6499  0.4967
 6205TIP3    H118621   1.279   1.265   2.341  0.9893  1.0397  0.1410
 6205TIP3    H218622   1.207   1.377   2.268 -0.9134  0.1388  0.5579
 6206TIP3   OH218623   4.066   5.072   2.903  0.1674 -0.0396  0.9060
 6206TIP3    H118624   4.112   5.155   2.892 -1.4183  0.6365 -1.6184
 6206TIP3    H218625   4.046   5.067   2.996  1.4254  1.7751  1.3157
 6207TIP3   OH218626   0.804   2.656   3.824 -0.2436  0.3334 -0.5191
 6207TIP3    H118627   0.840   2.673   3.737 -0.4246  0.9698 -0.4743
 6207TIP3    H218628   0.783   2.743   3.859 -0.7070  0.0451 -0.0692
 6208TIP3   OH218629   3.221   4.922   3.939 -0.2934  0.2562  0.0668
 6208TIP3    H118630   3.160   4.922   3.866  1.6666 -1.5649 -1.7278
 6208TIP3    H218631   3.306   4.944   3.899  1.0017 -1.6393  1.5723
 6209TIP3   OH218632   0.502   0.186   0.319 -0.6947  0.5858  0.0552
 6209TIP3    H118633   0.577   0.127   0.331 -2.3127 -1.2763  1.7759
 6209TIP3    H218634   0.467   0.163   0.233 -0.8665 -0.4972  0.3946
 6210TIP3   OH218635   3.859   2.987   4.717 -0.2751 -0.0664 -0.0345
 6210TIP3    H118636   3.953   2.993   4.701 -0.2699  1.2071  0.3380
 6210TIP3    H218637   3.821   3.060   4.668 -1.0727 -0.5577 -0.1670
 6211TIP3   OH218638   4.979   5.061   1.629  0.0233  0.8656  0.1396
 6211TIP3    H118639   4.906   5.008   1.661  0.6288 -1.3637 -1.9375
 6211TIP3    H218640   5.047   5.051   1.696 -0.1943 -0.2584  0.2005
 6212TIP3   OH218641   4.217   3.022   1.135 -0.3570  0.1412  0.3450
 6212TIP3    H118642   4.272   3.097   1.157 -0.7847  0.2197  1.1680
 6212TIP3    H218643   4.198   2.980   1.218 -0.2653 -0.7932 -0.0927
 6213TIP3   OH218644   2.286   5.333   0.401 -0.0587  0.2583  0.0395
 6213TIP3    H118645   2.337   5.374   0.471 -0.5391  0.3535  0.3356
 6213TIP3    H218646   2.320   5.244   0.395 -0.2910  0.1240  0.6705
 6214TIP3   OH218647   6.047   3.077   0.296  0.1802 -0.5225 -0.0506
 6214TIP3    H118648   6.125   3.131   0.290  0.2188 -0.5492  0.1993
 6214TIP3    H218649   5.986   3.128   0.349  0.3019 -0.8244  0.3803
 6215TIP3   OH218650   1.971   5.932   0.951  0.1211 -1.0230  0.6171
 6215TIP3    H118651   1.949   5.842   0.972  0.7595 -0.9459  1.7378
 6215TIP3    H218652   2.061   5.942   0.981  0.2773 -0.1987 -0.0952
 6216TIP3   OH218653   5.301   2.697   3.926  1.1046  0.1212  0.1665
 6216TIP3    H118654   5.377   2.665   3.975  1.9870  0.6132 -0.8431
 6216TIP3    H218655   5.247   2.619   3.912  0.4256  0.0754  2.5312
 6217TIP3   OH218656   4.061   3.668   4.093 -0.2504 -0.1408 -0.1382
 6217TIP3    H118657   4.125   3.671   4.021  0.1083  1.6336  0.2226
 6217TIP3    H218658   4.110   3.630   4.166  0.6231  1.6914  0.2941
 6218TIP3   OH218659   5.636   0.450   5.038 -0.2066 -0.7185  0.2454
 6218TIP3    H118660   5.601   0.419   4.954  0.7638  0.1915 -0.5333
 6218TIP3    H218661   5.587   0.529   5.056  0.5756 -0.1017 -0.2394
 6219TIP3   OH218662   1.936   5.061   4.046  0.6003 -0.0845  0.3139
 6219TIP3    H118663   1.906   5.146   4.079 -0.1699  0.1005 -0.8048
 6219TIP3    H218664   2.021   5.080   4.006  1.0734 -0.1178  1.2895
 6220TIP3   OH218665   3.201   5.503   1.664 -0.1978 -0.3166 -0.0175
 6220TIP3    H118666   3.114   5.490   1.628 -0.6731 -2.2123  1.5998
 6220TIP3    H218667   3.211   5.431   1.727  2.0507  0.5742  0.7274
 6221TIP3   OH218668   0.207   4.476   2.433 -0.2718  0.3454  0.0506
 6221TIP3    H118669   0.289   4.525   2.419 -0.0838  0.2816  0.8465
 6221TIP3    H218670   0.141   4.544   2.446  0.0251  0.4281  1.3582
 6222TIP3   OH218671   1.736   4.353   2.463 -0.1251  0.4282 -0.0483
 6222TIP3    H118672   1.760   4.413   2.533  0.6505  0.8169 -0.6298
 6222TIP3    H218673   1.818   4.337   2.416 -0.2703 -1.2598  0.2222
 6223TIP3   OH218674   0.487   1.244   4.380  0.3857 -0.5632  0.0385
 6223TIP3    H118675   0.405   1.293   4.370  1.2432  1.0859  0.5820
 6223TIP3    H218676   0.520   1.234   4.291  0.6832  0.7773 -0.0213
 6224TIP3   OH218677  -0.009   4.418   5.176  0.0668 -0.2832 -0.1707
 6224TIP3    H118678   0.042   4.453   5.103 -2.3904  0.1005 -1.8252
 6224TIP3    H218679   0.043   4.439   5.253  1.4722  1.8039 -1.5703
 6225TIP3   OH218680   6.049   3.442   1.134 -0.2240 -0.4445 -0.1091
 6225TIP3    H118681   6.082   3.522   1.093 -1.0038 -0.5436 -0.9653
 6225TIP3    H218682   5.969   3.469   1.178  0.1484 -0.5191  0.6341
 6226TIP3   OH218683   3.683   4.290   3.020 -0.0362  0.1564  0.0788
 6226TIP3    H118684   3.614   4.289   2.954  0.4071  2.6117 -0.5070
 6226TIP3    H218685   3.762   4.266   2.971 -0.3360 -2.4572  0.7092
 6227TIP3   OH218686   2.000   2.319   0.339 -0.1210 -0.3516  0.2042
 6227TIP3    H118687   1.967   2.408   0.353  0.0622 -0.3658  0.7389
 6227TIP3    H218688   2.088   2.331   0.306 -0.9070 -0.2964 -2.0096
 6228TIP3   OH218689   4.661   5.934   1.754  0.0256  0.4348  0.3059
 6228TIP3    H118690   4.701   5.995   1.691  0.8709 -1.4922 -1.1539
 6228TIP3    H218691   4.729   5.922   1.821  0.0239  0.7389  0.3663
 6229TIP3   OH218692   1.555   4.579   3.312 -0.0837  0.3703 -0.0359
 6229TIP3    H118693   1.547   4.505   3.372  0.4982 -2.1970 -2.8807
 6229TIP3    H218694   1.471   4.584   3.267  0.9221 -0.9506 -2.2681
 6230TIP3   OH218695   0.204   2.936   0.064 -0.1272  0.0606 -0.0525
 6230TIP3    H118696   0.284   2.897   0.029 -1.1900 -0.4842 -1.9954
 6230TIP3    H218697   0.166   2.867   0.118  0.0590 -0.1419 -0.1773
 6231TIP3   OH218698   4.388   1.587   4.060  0.4143 -0.1285 -0.5346
 6231TIP3    H118699   4.471   1.541   4.044 -0.0275 -0.8999 -0.6490
 6231TIP3    H218700   4.408   1.650   4.130  0.6181 -1.6816  0.8550
 6232TIP3   OH218701   0.723   1.552   2.552 -0.3886  0.0224 -0.1563
 6232TIP3    H118702   0.818   1.562   2.553 -0.3631 -0.2320  0.3242
 6232TIP3    H218703   0.704   1.507   2.470 -0.0350 -0.4478  0.0151
 6233TIP3   OH218704   2.240   3.369   2.889 -0.3637 -0.3515  0.4529
 6233TIP3    H118705   2.319   3.421   2.897  0.0742 -0.8421 -0.5179
 6233TIP3    H218706   2.204   3.392   2.803 -0.0492 -1.7587 -0.0891
 6234TIP3   OH218707   5.282   0.643   3.633 -0.0479 -0.7017 -0.2028
 6234TIP3    H118708   5.207   0.584   3.637 -0.2387 -0.4192  0.5662
 6234TIP3    H218709   5.358   0.584   3.624 -0.3384 -0.9925 -0.8313
 6235TIP3   OH218710   2.910   1.204   2.393  0.2860 -0.5601 -0.2777
 6235TIP3    H118711   2.975   1.140   2.420 -0.3356 -1.2413 -0.3867
 6235TIP3    H218712   2.887   1.179   2.304  1.5017  1.0143 -1.0961
 6236TIP3   OH218713   4.451   5.355   2.265 -0.0903  0.2378  0.2012
 6236TIP3    H118714   4.384   5.366   2.198 -2.8942 -0.3364  2.6833
 6236TIP3    H218715   4.445   5.434   2.318 -0.3330 -0.7315  1.6798
 6237TIP3   OH218716   5.906   4.718   2.527 -0.4273 -0.5826  0.7918
 6237TIP3    H118717   5.958   4.784   2.573  2.0692 -0.7939 -1.4355
 6237TIP3    H218718   5.931   4.635   2.569  1.0170 -0.6588 -0.1232
 6238TIP3   OH218719   4.446   2.488   4.264  0.3063  0.0055  0.2034
 6238TIP3    H118720   4.516   2.519   4.321  1.5220  0.1381 -1.3043
 6238TIP3    H218721   4.487   2.422   4.209 -0.4984  0.7342 -1.3475
 6239TIP3   OH218722   1.438   3.786   2.010 -0.0153 -0.3096  0.0858
 6239TIP3    H118723   1.466   3.722   1.944 -1.0013  1.6979 -2.4284
 6239TIP3    H218724   1.348   3.808   1.985  0.2905  2.0440  0.8464
 6240TIP3   OH218725   5.245   2.253   2.947  0.1748  0.9473  0.2584
 6240TIP3    H118726   5.205   2.253   3.034  0.4209  0.5508  0.3776
 6240TIP3    H218727   5.223   2.167   2.911  0.4266  0.9478  0.0978
 6241TIP3   OH218728   1.180   4.899   2.097 -0.2487  0.3126  0.0517
 6241TIP3    H118729   1.085   4.889   2.104 -0.1259 -0.2122  1.1890
 6241TIP3    H218730   1.208   4.825   2.043 -0.3229 -0.4461  1.0381
 6242TIP3   OH218731   2.797   0.738   0.529  0.0712  0.3314 -0.1324
 6242TIP3    H118732   2.797   0.647   0.559  0.8484 -0.8224 -3.2429
 6242TIP3    H218733   2.716   0.746   0.477  0.1471  1.3269 -0.1132
 6243TIP3   OH218734   5.364   4.733   3.234  0.7177  0.0376 -0.4975
 6243TIP3    H118735   5.337   4.759   3.322 -2.7010 -1.2971 -1.0100
 6243TIP3    H218736   5.414   4.809   3.201 -1.4978  2.3507  1.0766
 6244TIP3   OH218737   3.683   3.089   0.974 -0.1217  0.0332  0.3143
 6244TIP3    H118738   3.632   3.158   1.017  0.4258  2.0002 -1.9634
 6244TIP3    H218739   3.769   3.093   1.016 -0.0717  0.8089  0.1500
 6245TIP3   OH218740   3.059   2.744   1.010 -0.0080  0.0409 -0.1495
 6245TIP3    H118741   3.064   2.791   1.093  0.2835  0.0362 -0.1634
 6245TIP3    H218742   3.146   2.755   0.971 -0.0413 -0.2338 -0.3026
 6246TIP3   OH218743   2.809   3.393   2.974  0.1006  0.2659 -1.2986
 6246TIP3    H118744   2.903   3.376   2.978  0.5875  2.8392 -0.1583
 6246TIP3    H218745   2.802   3.488   2.964 -2.3687  0.7442  2.8625
 6247TIP3   OH218746   4.757   4.994   0.430 -0.2908 -0.5521 -0.5260
 6247TIP3    H118747   4.680   5.049   0.441 -0.6099 -1.1069  0.0913
 6247TIP3    H218748   4.811   5.013   0.507 -0.0503 -0.5486 -0.6943
 6248TIP3   OH218749   1.644   3.185   3.252 -0.0538  0.0305  0.3144
 6248TIP3    H118750   1.730   3.224   3.238  0.4180 -1.6691 -2.0709
 6248TIP3    H218751   1.658   3.117   3.317  0.7665 -1.1876 -1.0886
 6249TIP3   OH218752   4.132   2.718   2.883  0.0814  0.3149  0.5453
 6249TIP3    H118753   4.087   2.677   2.957 -0.8445 -0.1467 -0.2540
 6249TIP3    H218754   4.215   2.670   2.876 -0.5855 -0.8264  0.2076
 6250TIP3   OH218755   1.526   4.374   4.773  0.4726  0.2754  0.1946
 6250TIP3    H118756   1.491   4.338   4.691  1.1223 -1.4058  0.6309
 6250TIP3    H218757   1.457   4.433   4.804 -0.4527 -0.2639 -0.7631
 6251TIP3   OH218758   4.518   4.008   1.475 -0.2559  0.0415 -0.0176
 6251TIP3    H118759   4.518   3.948   1.549 -0.9367  1.1095  0.8827
 6251TIP3    H218760   4.541   3.954   1.400  0.0394 -1.1500  0.9063
 6252TIP3   OH218761   4.193   4.548   2.418 -0.3831  0.1561  0.8253
 6252TIP3    H118762   4.211   4.541   2.324  1.2579  0.4822  1.0842
 6252TIP3    H218763   4.104   4.583   2.423 -0.7976 -0.6537 -0.5918
 6253TIP3   OH218764   3.899   2.044   2.671  0.3793  0.1557 -0.3501
 6253TIP3    H118765   3.833   2.029   2.739  0.2797  2.0045  0.0148
 6253TIP3    H218766   3.871   1.988   2.598 -1.5703  0.8061 -0.1596
 6254TIP3   OH218767   5.298   0.607   0.612 -0.1780  0.1145 -0.3928
 6254TIP3    H118768   5.326   0.517   0.628 -0.8562 -0.1951 -0.8974
 6254TIP3    H218769   5.347   0.634   0.534  1.7401  0.9899  1.0354
 6255TIP3   OH218770   5.920   1.765   3.393 -0.5467 -0.1610 -0.4316
 6255TIP3    H118771   5.879   1.781   3.308  0.4897 -1.2630 -1.1691
 6255TIP3    H218772   5.854   1.792   3.457 -1.2190  1.0038 -1.5716
 6256TIP3   OH218773   3.906   3.429   1.804  0.0758  0.7042 -0.2154
 6256TIP3    H118774   3.931   3.394   1.890 -1.0202 -0.0014 -0.1781
 6256TIP3    H218775   3.891   3.352   1.750  0.7189  1.1512 -1.0428
 6257TIP3   OH218776   4.373   0.945   0.380 -0.6851 -0.2486 -0.6645
 6257TIP3    H118777   4.410   1.000   0.311 -1.8061  1.1971 -0.1577
 6257TIP3    H218778   4.331   0.873   0.333  0.8659 -0.7600 -1.3326
 6258TIP3   OH218779   2.514   5.500   1.808  0.2957  0.5025 -1.1073
 6258TIP3    H118780   2.436   5.471   1.762  0.1384 -0.0019 -0.5221
 6258TIP3    H218781   2.483   5.530   1.893  0.9864 -1.8786  0.0476
 6259TIP3   OH218782   3.078   1.804   2.059  0.3288  0.5732 -0.1048
 6259TIP3    H118783   3.108   1.831   2.146 -1.6859  0.6885  0.6027
 6259TIP3    H218784   2.983   1.805   2.065  0.1468 -0.3048 -2.0596
 6260TIP3   OH218785   5.067   1.597   3.471 -0.3376 -0.1552  0.7225
 6260TIP3    H118786   5.018   1.601   3.389  1.1904  0.2361 -0.2093
 6260TIP3    H218787   5.004   1.625   3.538 -1.5727 -0.3629 -0.3175
 6261TIP3   OH218788   4.824   3.489   5.049 -0.1590  0.3206  0.1658
 6261TIP3    H118789   4.731   3.470   5.036  0.1215 -1.3859  0.4690
 6261TIP3    H218790   4.839   3.473   5.142  0.8576 -1.4897 -0.2740
 6262TIP3   OH218791   0.411   3.919   3.455  0.4647 -0.3102  0.1553
 6262TIP3    H118792   0.419   3.827   3.433  2.2210 -0.5874  1.6968
 6262TIP3    H218793   0.494   3.958   3.427  0.3258  0.5007  0.8259
 6263TIP3   OH218794   4.706   3.498   1.434 -0.8406  0.9395  0.3388
 6263TIP3    H118795   4.799   3.491   1.410 -0.8667 -1.7244  0.7189
 6263TIP3    H218796   4.668   3.554   1.366  0.4713 -0.4305 -1.6236
 6264TIP3   OH218797   2.720   3.314   1.194 -0.3455  0.1541 -0.8390
 6264TIP3    H118798   2.736   3.288   1.103 -0.7130 -0.3106 -0.7768
 6264TIP3    H218799   2.625   3.310   1.204 -0.2645 -0.5808 -0.2171
 6265TIP3   OH218800   1.485   1.330   3.466 -0.3634 -0.0668  0.3298
 6265TIP3    H118801   1.491   1.239   3.495 -0.6331 -0.1268  0.2020
 6265TIP3    H218802   1.401   1.335   3.419  0.1615 -0.0361 -0.6405
 6266TIP3   OH218803   6.112   3.778   2.968  0.3603 -0.1159 -0.1068
 6266TIP3    H118804   6.089   3.865   2.936 -3.2501 -1.2187 -1.0074
 6266TIP3    H218805   6.062   3.768   3.049 -0.6126 -1.8468 -0.8567
 6267TIP3   OH218806   3.121   1.478   0.964  0.5414 -0.5198  0.1422
 6267TIP3    H118807   3.085   1.515   0.883  0.9205  1.1441  0.7098
 6267TIP3    H218808   3.196   1.426   0.935 -0.2805 -1.2938 -0.7122
 6268TIP3   OH218809   1.638   1.907   4.135  0.1252  0.3368 -0.2563
 6268TIP3    H118810   1.728   1.884   4.114 -0.7991 -2.7393 -1.3961
 6268TIP3    H218811   1.644   1.992   4.178  3.5544  0.1767 -0.1669
 6269TIP3   OH218812   1.469   3.380   2.461 -0.3160 -0.4771 -0.0302
 6269TIP3    H118813   1.418   3.460   2.452 -1.4509 -1.2082 -0.2839
 6269TIP3    H218814   1.504   3.384   2.550 -0.5374  0.1967  0.0344
 6270TIP3   OH218815   3.053   5.887   3.936 -0.1430  0.0349 -0.4177
 6270TIP3    H118816   3.132   5.934   3.962  2.2090 -2.9202 -1.6765
 6270TIP3    H218817   2.990   5.906   4.006  2.6430  0.1652  2.2956
 6271TIP3   OH218818   5.672   2.026   3.773  0.0862  0.0628  0.6696
 6271TIP3    H118819   5.732   2.087   3.732 -1.3183 -0.3189 -2.1811
 6271TIP3    H218820   5.650   2.066   3.858  2.1831  1.5115  0.5800
 6272TIP3   OH218821   5.059   5.961   2.367 -0.5239  0.0165  0.2682
 6272TIP3    H118822   5.097   5.885   2.411 -0.9115 -0.1845  0.2622
 6272TIP3    H218823   5.134   6.017   2.346 -0.0723 -0.9922 -0.9548
 6273TIP3   OH218824   5.315   2.691   1.457  0.3941 -0.2667 -0.5439
 6273TIP3    H118825   5.370   2.741   1.518  0.4910 -0.0095 -0.8424
 6273TIP3    H218826   5.227   2.697   1.495  0.2668  0.7665 -0.9606
 6274TIP3   OH218827   1.844   1.957   4.946  0.2062  0.2628  0.6559
 6274TIP3    H118828   1.800   1.915   4.872 -0.6009 -1.1190  1.8665
 6274TIP3    H218829   1.932   1.975   4.913  0.1919 -1.2478 -0.3379
 6275TIP3   OH218830   4.245   3.155   2.688 -0.4293 -0.1444 -0.7547
 6275TIP3    H118831   4.205   3.068   2.691 -0.7830  0.0303 -0.3089
 6275TIP3    H218832   4.192   3.208   2.748 -0.2313  0.3852 -1.0410
 6276TIP3   OH218833   0.341   1.885   4.517 -0.5051  0.3299 -0.1913
 6276TIP3    H118834   0.296   1.858   4.436  0.5763  0.9555 -1.0367
 6276TIP3    H218835   0.349   1.980   4.509  0.6927  0.2681  0.0606
 6277TIP3   OH218836   4.597   0.781   0.715 -0.3643 -0.2449  0.3079
 6277TIP3    H118837   4.502   0.773   0.714 -0.4895  1.1436 -0.0838
 6277TIP3    H218838   4.629   0.698   0.678 -1.3599 -1.2139  1.5371
 6278TIP3   OH218839   1.082   3.193   1.086  0.7968  0.4461 -0.3013
 6278TIP3    H118840   1.032   3.228   1.012 -0.1667 -1.8952 -0.8312
 6278TIP3    H218841   1.034   3.222   1.163  0.0610  0.3763 -0.7208
 6279TIP3   OH218842   5.109   0.458   2.913  0.3706 -0.1450 -0.0286
 6279TIP3    H118843   5.171   0.407   2.861  1.5837 -0.4567  1.6633
 6279TIP3    H218844   5.077   0.398   2.980 -1.6350  0.0782 -0.7009
 6280TIP3   OH218845   1.765   1.746   4.775 -0.4756  0.1287  0.4082
 6280TIP3    H118846   1.734   1.786   4.693 -0.2114 -1.7181 -0.6461
 6280TIP3    H218847   1.781   1.655   4.752 -0.9015 -0.5649  2.6909
 6281TIP3   OH218848   1.192   3.394   0.168  0.4133 -0.1598  0.0791
 6281TIP3    H118849   1.281   3.423   0.187  0.2908 -1.3202  2.7897
 6281TIP3    H218850   1.176   3.322   0.229 -2.5242  0.2706 -0.0442
 6282TIP3   OH218851   4.402   0.632   3.611  0.3986  0.1344 -0.3387
 6282TIP3    H118852   4.383   0.718   3.648  0.7139  0.5687 -1.1724
 6282TIP3    H218853   4.430   0.579   3.686  0.6381  0.8820  0.1077
 6283TIP3   OH218854   3.008   4.001   2.099 -0.0478 -0.1200  0.0471
 6283TIP3    H118855   3.046   4.014   2.012  0.5351  0.4071  0.3758
 6283TIP3    H218856   3.084   4.000   2.158 -0.4953  0.2136  0.6286
 6284TIP3   OH218857   2.269   5.759   3.830 -0.9169  0.0549 -0.1114
 6284TIP3    H118858   2.315   5.811   3.764  0.6071 -0.2061  0.6835
 6284TIP3    H218859   2.277   5.668   3.799 -1.4296  0.0607 -0.2667
 6285TIP3   OH218860   5.675   5.671   4.507 -0.1335  0.2874 -0.1117
 6285TIP3    H118861   5.645   5.757   4.477 -0.1767 -0.2693 -1.7352
 6285TIP3    H218862   5.606   5.641   4.567 -0.7948  0.7808 -0.6089
 6286TIP3   OH218863   4.326   2.832   0.842 -0.5500 -0.2428  0.3879
 6286TIP3    H118864   4.311   2.877   0.759 -0.8115 -0.5526  0.2639
 6286TIP3    H218865   4.238   2.808   0.872 -0.4825  0.0975  0.8873
 6287TIP3   OH218866   1.507   2.117   2.042  0.0163 -0.6568  0.2548
 6287TIP3    H118867   1.448   2.139   2.114 -0.8772 -1.6049 -0.1660
 6287TIP3    H218868   1.455   2.130   1.963  0.3344 -1.6002 -0.1221
 6288TIP3   OH218869   0.612   4.677   0.685 -0.1257  0.1615 -0.3325
 6288TIP3    H118870   0.675   4.650   0.752 -1.1047 -0.2963  0.4329
 6288TIP3    H218871   0.642   4.634   0.605  1.3302  1.0922 -0.3130
 6289TIP3   OH218872   0.969   4.252   1.859  0.2330  0.2367 -0.0224
 6289TIP3    H118873   0.953   4.334   1.907 -1.0953 -0.9762  1.7583
 6289TIP3    H218874   0.967   4.184   1.927 -1.2508 -1.5295 -1.7100
 6290TIP3   OH218875   3.126   1.045   2.459 -0.3428 -0.4178 -0.2506
 6290TIP3    H118876   3.098   0.960   2.493  0.6905 -1.5741 -2.1023
 6290TIP3    H218877   3.208   1.063   2.505 -0.4843 -0.5023  0.0344
 6291TIP3   OH218878   1.510   4.472   0.778  0.9413  0.1220  0.3941
 6291TIP3    H118879   1.505   4.382   0.745 -2.1017  0.1437  0.4852
 6291TIP3    H218880   1.506   4.527   0.700 -0.2707  0.1458  0.4512
 6292TIP3   OH218881   6.297   3.781   2.418 -0.2656  0.0329  0.0229
 6292TIP3    H118882   6.370   3.834   2.385  0.1792 -0.5170  0.0978
 6292TIP3    H218883   6.246   3.841   2.473 -0.1126  0.5366 -0.3841
 6293TIP3   OH218884   2.234   4.935   2.685  0.4680 -0.1096 -0.7808
 6293TIP3    H118885   2.299   4.985   2.735 -1.2680  2.8701 -1.2392
 6293TIP3    H218886   2.256   4.950   2.594 -0.9226  1.1749 -0.9527
 6294TIP3   OH218887   4.182   0.606   3.879  0.3972 -0.3017  0.0416
 6294TIP3    H118888   4.099   0.642   3.909  0.2010  0.1787 -1.0106
 6294TIP3    H218889   4.232   0.683   3.849  2.0887 -0.2966  2.5789
 6295TIP3   OH218890   1.310   0.710   4.844  0.5242 -1.1079 -0.2240
 6295TIP3    H118891   1.246   0.762   4.892 -0.9885 -2.0628 -1.1039
 6295TIP3    H218892   1.390   0.716   4.895 -0.1553  0.4478  0.7185
 6296TIP3   OH218893   2.014   3.759   1.989  0.1696  0.1779  0.0247
 6296TIP3    H118894   2.104   3.744   1.959  0.0495 -0.0065 -0.2405
 6296TIP3    H218895   2.007   3.854   1.995  0.3964  0.1927  0.0870
 6297TIP3   OH218896   0.644   4.841   1.404 -0.1216 -0.0942  0.0982
 6297TIP3    H118897   0.706   4.841   1.331 -2.0624  0.3089 -1.6191
 6297TIP3    H218898   0.609   4.930   1.405 -1.7393 -0.7105  0.0910
 6298TIP3   OH218899   4.371   4.594   0.984 -0.2450 -0.2464  0.2973
 6298TIP3    H118900   4.369   4.534   1.058 -0.8222 -0.6966 -0.0755
 6298TIP3    H218901   4.279   4.602   0.956  0.0118 -0.4205 -0.6307
 6299TIP3   OH218902   4.115   2.458   3.348  0.2229  0.3970  0.1391
 6299TIP3    H118903   4.157   2.536   3.386  0.3841  0.7679 -0.7536
 6299TIP3    H218904   4.055   2.428   3.415  0.9523  0.6477  0.9305
 6300TIP3   OH218905   0.172   1.193   1.452 -0.1761 -0.3220  0.0620
 6300TIP3    H118906   0.077   1.196   1.467 -0.4038  2.4750 -1.2887
 6300TIP3    H218907   0.182   1.218   1.360  1.9272  0.5331  0.4758
 6301TIP3   OH218908   1.744   3.962   0.868  0.5219  0.1817  0.6469
 6301TIP3    H118909   1.740   3.893   0.935 -1.5382  0.1616  0.5746
 6301TIP3    H218910   1.665   4.015   0.884  0.2052  0.4261 -1.4945
 6302TIP3   OH218911   1.447   1.126   1.303 -0.2326  0.2681 -0.5171
 6302TIP3    H118912   1.448   1.073   1.383  0.6841  1.1753  0.1104
 6302TIP3    H218913   1.491   1.071   1.237  1.2197  0.4174  0.2720
 6303TIP3   OH218914   3.369   1.021   2.622 -0.3749 -0.2898 -0.0012
 6303TIP3    H118915   3.440   1.085   2.610 -1.3849  0.8570 -0.0899
 6303TIP3    H218916   3.329   1.046   2.705 -0.1167 -1.4973  0.4934
 6304TIP3   OH218917   6.086   3.475   0.485 -0.4274 -0.0951 -0.6261
 6304TIP3    H118918   6.010   3.502   0.434 -0.1155 -0.6650 -1.4058
 6304TIP3    H218919   6.105   3.386   0.456 -0.2865 -0.4636  0.5457
 6305TIP3   OH218920   4.575   2.632   1.104 -0.5811  0.3574  0.1448
 6305TIP3    H118921   4.515   2.681   1.160  1.9503  1.0413  2.5322
 6305TIP3    H218922   4.618   2.570   1.163  0.5026 -0.6523 -1.6044
 6306TIP3   OH218923   0.402   2.703   2.262 -0.0960  0.3963  0.2819
 6306TIP3    H118924   0.460   2.665   2.328 -0.3241 -0.2736  0.1058
 6306TIP3    H218925   0.314   2.685   2.294 -0.2108 -0.2808 -0.3968
 6307TIP3   OH218926   1.532   3.309   2.728  0.1331  0.3435  0.0818
 6307TIP3    H118927   1.465   3.242   2.742 -0.8687  1.2936  0.0721
 6307TIP3    H218928   1.581   3.313   2.810 -0.0855 -0.0949  0.2322
 6308TIP3   OH218929   4.563   4.374   2.817 -0.6584 -0.2807 -0.0536
 6308TIP3    H118930   4.487   4.367   2.759 -0.4060  0.8379 -0.5496
 6308TIP3    H218931   4.525   4.377   2.905 -1.1165 -0.8808 -0.2266
 6309TIP3   OH218932   6.318   2.487   2.615 -0.0665 -0.5083  0.4378
 6309TIP3    H118933   6.381   2.415   2.626  0.8721  0.3027  0.5216
 6309TIP3    H218934   6.284   2.502   2.703 -0.7064 -1.2327  0.3206
 6310TIP3   OH218935   0.880   5.881   0.824  0.0967  0.2055  0.7324
 6310TIP3    H118936   0.845   5.806   0.873  0.2613  0.8405  1.8709
 6310TIP3    H218937   0.973   5.861   0.813 -0.5595 -1.6713 -2.6437
 6311TIP3   OH218938   1.126   2.851   0.695  0.0999 -0.0913  0.0163
 6311TIP3    H118939   1.059   2.861   0.628 -0.0748 -0.0090  0.2037
 6311TIP3    H218940   1.136   2.938   0.733  1.2238  0.1972 -0.8723
 6312TIP3   OH218941   3.464   0.896   0.205 -0.9615 -0.7945  0.1891
 6312TIP3    H118942   3.537   0.957   0.195 -1.1570 -0.5979 -0.0354
 6312TIP3    H218943   3.474   0.834   0.133 -0.5708 -1.2356  0.6071
 6313TIP3   OH218944   4.344   2.008   1.769  0.5688 -0.4245  0.5981
 6313TIP3    H118945   4.276   1.948   1.742 -0.6194  0.2337  1.9839
 6313TIP3    H218946   4.406   2.010   1.695 -1.9604  0.5757 -1.6659
 6314TIP3   OH218947   0.375   0.899   1.124  0.4775 -0.2224  0.1161
 6314TIP3    H118948   0.440   0.968   1.135 -2.0599  2.3727  0.1303
 6314TIP3    H218949   0.368   0.887   1.029 -0.5460  1.2015 -0.0333
 6315TIP3   OH218950   0.251   1.524   0.536 -0.1521  0.0095 -0.6089
 6315TIP3    H118951   0.222   1.612   0.562  0.7339  0.0320  0.3544
 6315TIP3    H218952   0.249   1.525   0.440 -1.7172  0.5393 -0.5928
 6316TIP3   OH218953   5.397   0.784   1.635  0.6980 -0.1114  0.2591
 6316TIP3    H118954   5.434   0.734   1.563  0.3435 -0.6015  0.4109
 6316TIP3    H218955   5.348   0.854   1.593 -0.0692 -0.7933 -0.0036
 6317TIP3   OH218956   4.808   4.650   1.065 -0.0392  0.0551  0.3789
 6317TIP3    H118957   4.761   4.583   1.115  0.6337  0.2814  1.3230
 6317TIP3    H218958   4.853   4.702   1.131  1.1369  0.1575 -0.4866
 6318TIP3   OH218959   4.557   5.582   1.921 -0.6082 -0.1863 -0.3744
 6318TIP3    H118960   4.462   5.575   1.934 -0.7473 -1.5400 -1.8997
 6318TIP3    H218961   4.567   5.616   1.833  0.3499  0.3072 -0.0914
 6319TIP3   OH218962   4.621   5.301   4.483 -0.0831  0.2536  0.8730
 6319TIP3    H118963   4.630   5.396   4.494  1.2858 -0.0135  2.3723
 6319TIP3    H218964   4.663   5.263   4.560  0.7135 -1.6162 -0.3955
 6320TIP3   OH218965   4.919   2.835   3.369  0.4870 -0.0158  0.2854
 6320TIP3    H118966   4.832   2.864   3.342 -0.4117 -1.0443  1.9127
 6320TIP3    H218967   4.945   2.898   3.437  0.3330 -0.6063  0.8953
 6321TIP3   OH218968   5.965   5.415   4.289 -1.5536  0.0651  0.2507
 6321TIP3    H118969   5.994   5.328   4.318 -0.0147  0.7115  0.7759
 6321TIP3    H218970   5.967   5.411   4.194 -0.5611 -0.2076  0.2741
 6322TIP3   OH218971   4.390   5.444   4.130  0.0845 -0.0940 -0.3755
 6322TIP3    H118972   4.389   5.357   4.170  0.0478 -0.1814 -0.5621
 6322TIP3    H218973   4.318   5.491   4.171  0.5856  0.1052  0.2875
 6323TIP3   OH218974   3.164   4.652   1.751 -0.3811  0.1425 -0.2538
 6323TIP3    H118975   3.157   4.718   1.820 -0.8148 -0.1834  0.0224
 6323TIP3    H218976   3.075   4.641   1.719 -0.6323 -1.5787  0.9242
 6324TIP3   OH218977   0.096   5.346   0.836  0.1143 -0.4347 -0.4546
 6324TIP3    H118978   0.190   5.345   0.853  0.2676 -2.4267 -1.1827
 6324TIP3    H218979   0.056   5.340   0.923  0.6823 -0.3347 -0.1851
 6325TIP3   OH218980   3.633   2.703   0.427 -0.4653  0.3897  0.0700
 6325TIP3    H118981   3.717   2.744   0.409 -0.0448 -0.6083 -0.2799
 6325TIP3    H218982   3.571   2.776   0.433  0.5605  1.2045  1.2023
 6326TIP3   OH218983   3.249   3.466   0.991  0.1308  0.1760 -0.9530
 6326TIP3    H118984   3.235   3.547   1.041 -1.6324 -0.4906 -0.2772
 6326TIP3    H218985   3.325   3.485   0.936  0.9362  1.6270  0.5483
 6327TIP3   OH218986   6.303   5.602   1.028  0.2181 -0.2514 -0.2075
 6327TIP3    H118987   6.389   5.601   1.069  0.1011 -0.4009  0.0365
 6327TIP3    H218988   6.245   5.638   1.095 -0.3901 -2.5725  0.6110
 6328TIP3   OH218989   1.347   3.772   1.727 -0.1575 -0.1644  0.4074
 6328TIP3    H118990   1.271   3.728   1.766  0.0259 -2.0268 -1.1659
 6328TIP3    H218991   1.400   3.701   1.692  2.1463  1.1231  1.0751
 6329TIP3   OH218992   5.048   4.712   2.390  0.4365  0.3570  0.3602
 6329TIP3    H118993   4.953   4.707   2.390  0.2092  3.3324  0.1494
 6329TIP3    H218994   5.073   4.693   2.299 -0.0956  1.2229  0.0260
 6330TIP3   OH218995   5.512   5.320   0.268  0.3770 -0.4375 -0.6149
 6330TIP3    H118996   5.490   5.345   0.179 -2.0533 -1.8332 -0.5013
 6330TIP3    H218997   5.451   5.371   0.323  0.8048 -0.7172  0.1299
 6331TIP3   OH218998   3.237   0.741   2.761 -0.0835 -0.2802 -0.0838
 6331TIP3    H118999   3.280   0.781   2.685 -0.7220 -1.6732 -1.2281
 6331TIP3    H219000   3.165   0.801   2.782 -1.6947 -1.2666 -2.4480
 6332TIP3   OH219001   0.366   2.098   3.220  0.1479 -0.0778  0.1665
 6332TIP3    H119002   0.422   2.050   3.280 -0.5741 -1.3647 -0.1499
 6332TIP3    H219003   0.279   2.097   3.261  0.0475  0.7004  0.0012
 6333TIP3   OH219004   6.239   1.489   2.847  0.3336  0.4628  0.3819
 6333TIP3    H119005   6.333   1.473   2.842  0.2625  0.0208  0.4031
 6333TIP3    H219006   6.226   1.533   2.931  0.5005  0.3690  0.4565
 6334TIP3   OH219007   4.033   2.212   0.325  0.0084 -0.5486  0.5243
 6334TIP3    H119008   4.102   2.235   0.387 -0.1878 -2.5888  1.5681
 6334TIP3    H219009   3.952   2.239   0.367  0.0165  0.3420  0.0117
 6335TIP3   OH219010   6.023   1.835   2.335  0.3332  0.0281 -0.5226
 6335TIP3    H119011   6.114   1.834   2.304  0.6001 -0.6259  0.2217
 6335TIP3    H219012   6.025   1.894   2.411  0.1640 -0.0702 -0.4422
 6336TIP3   OH219013   5.739   1.753   2.486  0.2340  0.2273 -0.1023
 6336TIP3    H119014   5.761   1.813   2.414 -1.5312 -0.4367 -1.2799
 6336TIP3    H219015   5.677   1.802   2.540 -0.6389 -0.2190 -0.6590
 6337TIP3   OH219016   3.266   2.536   0.809  0.0295 -0.0794 -0.3964
 6337TIP3    H119017   3.192   2.490   0.768  0.6049 -0.0037 -1.5725
 6337TIP3    H219018   3.323   2.467   0.841  0.4691 -0.1998 -1.3911
 6338TIP3   OH219019   0.827   1.036   1.888 -0.5022  0.2842  0.0526
 6338TIP3    H119020   0.919   1.016   1.904 -0.6028 -0.0733  0.1866
 6338TIP3    H219021   0.829   1.107   1.823 -0.1365  0.1254 -0.1103
 6339TIP3   OH219022   2.640   0.146   3.994 -0.2197  0.0681 -0.0109
 6339TIP3    H119023   2.652   0.052   3.998 -0.6379 -0.0914 -1.8791
 6339TIP3    H219024   2.676   0.178   4.077 -0.3772 -1.7357  0.8025
 6340TIP3   OH219025   2.333   1.338   0.556  0.1407  0.5103  0.5010
 6340TIP3    H119026   2.322   1.415   0.501 -0.7520  0.7251  0.9532
 6340TIP3    H219027   2.392   1.366   0.626 -1.2075  1.2174  1.4061
 6341TIP3   OH219028   2.864   4.107   2.391  0.0988  0.5318 -0.2989
 6341TIP3    H119029   2.953   4.073   2.386  0.2143  0.2509  2.2581
 6341TIP3    H219030   2.831   4.102   2.301  1.8897 -1.4622 -0.9305
 6342TIP3   OH219031   5.442   0.209   5.135  0.1740  0.2793  0.5721
 6342TIP3    H119032   5.534   0.202   5.162  0.1441  0.0565  0.6232
 6342TIP3    H219033   5.404   0.271   5.197 -0.7399 -2.8098  3.4300
 6343TIP3   OH219034   2.911   0.196   4.386  0.1327 -0.1322  0.1458
 6343TIP3    H119035   2.821   0.226   4.373 -0.1765 -0.0651  2.0823
 6343TIP3    H219036   2.924   0.199   4.481  2.0927 -0.4175 -0.0568
 6344TIP3   OH219037   2.472   2.656   2.873 -0.0448  0.4658 -0.2668
 6344TIP3    H119038   2.525   2.717   2.923  1.0733  0.0884 -0.9646
 6344TIP3    H219039   2.439   2.709   2.799  1.3394  0.1300 -1.1534
 6345TIP3   OH219040   2.446   5.393   1.056 -0.4307  0.4482  0.0722
 6345TIP3    H119041   2.380   5.429   0.996 -1.3080 -1.3838 -0.1369
 6345TIP3    H219042   2.418   5.424   1.143 -0.8083  0.7507 -0.1504
 6346TIP3   OH219043   5.644   3.601   4.946 -0.1173 -0.5002 -0.3877
 6346TIP3    H119044   5.586   3.655   4.891 -0.6535 -0.0467  0.5941
 6346TIP3    H219045   5.732   3.625   4.918 -0.3795 -1.1709 -1.8799
 6347TIP3   OH219046   3.869   4.015   0.883  0.5211  0.4289  0.3502
 6347TIP3    H119047   3.964   4.022   0.871  0.7079  0.2570  1.5690
 6347TIP3    H219048   3.859   3.958   0.960 -0.5253  1.6919  1.1960
 6348TIP3   OH219049   4.897   1.791   4.410 -0.4611 -0.0803  0.1478
 6348TIP3    H119050   4.868   1.797   4.319 -1.2770  0.4805  0.4278
 6348TIP3    H219051   4.959   1.863   4.421  0.6136 -0.9111 -0.2882
 6349TIP3   OH219052   3.598   1.753   4.189  0.4773  0.4981 -0.4076
 6349TIP3    H119053   3.574   1.844   4.207  1.9360  0.8452 -0.0209
 6349TIP3    H219054   3.657   1.730   4.261  0.6916 -0.5176 -0.8901
 6350TIP3   OH219055   5.465   3.574   0.102 -0.5731 -0.3696 -0.0572
 6350TIP3    H119056   5.522   3.596   0.176 -1.7353 -1.1083  1.1011
 6350TIP3    H219057   5.383   3.546   0.143 -1.0393 -1.3784 -1.6207
 6351TIP3   OH219058   2.312   1.020   5.014 -0.1406  0.0137  0.6863
 6351TIP3    H119059   2.237   1.026   4.954 -0.4093  0.1047  1.0255
 6351TIP3    H219060   2.337   1.111   5.031 -0.1767 -0.0054  0.8470
 6352TIP3   OH219061   5.628   1.287   5.044  0.4063  0.1535 -0.8393
 6352TIP3    H119062   5.710   1.326   5.072  0.9733 -1.2341 -0.4680
 6352TIP3    H219063   5.639   1.271   4.951  0.5271  0.0516 -0.8079
 6353TIP3   OH219064   6.064   2.926   0.703 -0.3608  1.0159  0.3049
 6353TIP3    H119065   6.050   2.837   0.672  4.1445 -0.4459  1.7442
 6353TIP3    H219066   6.008   2.933   0.780 -2.2991  0.2662 -0.9576
 6354TIP3   OH219067   5.556   1.121   1.601 -0.1342  0.1438 -0.2342
 6354TIP3    H119068   5.609   1.042   1.606 -2.0310 -1.1720  0.0090
 6354TIP3    H219069   5.495   1.106   1.529 -1.0210  1.0584  0.2851
 6355TIP3   OH219070   4.983   4.473   2.076  0.2014 -0.0472  0.3195
 6355TIP3    H119071   5.064   4.483   2.125  0.3834  1.1342 -0.1812
 6355TIP3    H219072   5.011   4.442   1.990 -0.1009 -1.9556  0.8765
 6356TIP3   OH219073   1.621   4.564   0.255 -0.2338  0.3488 -0.0899
 6356TIP3    H119074   1.704   4.612   0.259 -0.0214 -0.0430  0.3373
 6356TIP3    H219075   1.561   4.616   0.309 -0.0431  0.2171  0.2571
 6357TIP3   OH219076   3.026   5.274   0.424 -0.4062 -0.3958 -0.3788
 6357TIP3    H119077   3.112   5.316   0.423 -0.5235 -0.1557 -0.4683
 6357TIP3    H219078   2.967   5.341   0.459 -0.4239 -0.8188  0.4330
 6358TIP3   OH219079   3.687   0.808   3.693 -0.3721  0.0869  0.4517
 6358TIP3    H119080   3.762   0.766   3.651 -0.0263 -1.7829  2.7148
 6358TIP3    H219081   3.616   0.799   3.630  0.5996 -0.7230 -0.5648
 6359TIP3   OH219082   5.704   0.383   0.507 -0.2246 -0.3706 -0.2611
 6359TIP3    H119083   5.612   0.395   0.529  0.0563  1.8453 -0.0463
 6359TIP3    H219084   5.738   0.324   0.574 -1.2644 -0.4278  0.2254
 6360TIP3   OH219085   3.195   1.804   0.649  0.3572  0.0555  0.1310
 6360TIP3    H119086   3.106   1.778   0.675  0.3680  0.9139  1.0828
 6360TIP3    H219087   3.191   1.899   0.644  1.2706  0.1074  0.3457
 6361TIP3   OH219088   0.158   1.284   4.205 -0.1353  0.0549  0.8617
 6361TIP3    H119089   0.221   1.356   4.199  1.4405 -1.2708  0.6089
 6361TIP3    H219090   0.131   1.268   4.114 -0.6206  0.4310  0.9372
 6362TIP3   OH219091   2.263   1.843   2.559  0.3262  0.2030  0.4978
 6362TIP3    H119092   2.224   1.921   2.597  2.5528  1.9910 -0.6096
 6362TIP3    H219093   2.303   1.798   2.634 -1.8811 -0.5388  1.3063
 6363TIP3   OH219094   4.673   4.895   2.239  0.3808  0.2407  0.3899
 6363TIP3    H119095   4.702   4.816   2.284 -1.8492 -0.4173  0.8149
 6363TIP3    H219096   4.622   4.862   2.165  0.7665  1.3147 -0.3796
 6364TIP3   OH219097   2.156   0.606   2.752 -0.0288 -0.7419  0.0623
 6364TIP3    H119098   2.103   0.682   2.728 -0.2092 -1.2108 -1.0706
 6364TIP3    H219099   2.107   0.564   2.823 -0.0984 -0.0002  0.4620
 6365TIP3   OH219100   4.533   2.072   4.396 -0.2471  0.1329  0.4878
 6365TIP3    H119101   4.609   2.029   4.437  1.0128  0.6662 -1.1844
 6365TIP3    H219102   4.523   2.028   4.312 -1.1462  0.7765  0.2503
 6366TIP3   OH219103   4.493   4.257   1.729  0.6242 -0.0366  0.1386
 6366TIP3    H119104   4.465   4.165   1.730 -1.9160  0.6097 -1.8051
 6366TIP3    H219105   4.577   4.255   1.683  0.7395 -1.4173  0.3683
 6367TIP3   OH219106   0.427   0.345   4.617 -0.1167 -0.6662  0.4757
 6367TIP3    H119107   0.411   0.420   4.559  0.2359 -1.0749 -0.1632
 6367TIP3    H219108   0.345   0.296   4.615 -0.0020 -0.8466  0.0639
 6368TIP3   OH219109   5.181   4.823   0.340  0.4698  0.6035  0.3437
 6368TIP3    H119110   5.194   4.845   0.432  1.3751  1.7889 -0.0570
 6368TIP3    H219111   5.087   4.835   0.325  0.4076  0.9049  0.9777
 6369TIP3   OH219112   4.159   3.178   4.228  0.2202 -0.1480 -0.6083
 6369TIP3    H119113   4.207   3.110   4.180  0.6208 -0.3984  0.1318
 6369TIP3    H219114   4.167   3.153   4.320 -2.6845 -1.0806 -0.5114
 6370TIP3   OH219115   2.397   4.470   1.579 -0.1782  0.2903  0.1620
 6370TIP3    H119116   2.391   4.415   1.501 -0.0443 -0.0713  0.4063
 6370TIP3    H219117   2.312   4.461   1.622 -0.3407  0.6852 -0.0685
 6371TIP3   OH219118   4.329   4.868   0.959 -0.0345 -0.2580 -0.0085
 6371TIP3    H119119   4.361   4.808   1.027  0.4035  0.4031  0.3768
 6371TIP3    H219120   4.297   4.944   1.007 -0.8204 -0.2827 -0.4825
 6372TIP3   OH219121   2.113   2.788   1.589  0.0466 -0.1431  0.5293
 6372TIP3    H119122   2.161   2.710   1.559 -2.0857 -2.4596  2.6455
 6372TIP3    H219123   2.029   2.782   1.544 -0.3890  0.5938  1.2352
 6373TIP3   OH219124   5.548   0.188   1.340  0.1497  0.9173 -0.1698
 6373TIP3    H119125   5.474   0.228   1.295  0.4307 -0.6732 -2.1624
 6373TIP3    H219126   5.625   0.223   1.296  0.4042 -1.4669 -1.7756
 6374TIP3   OH219127   1.300   0.149   2.303  0.0648 -0.1557  0.0096
 6374TIP3    H119128   1.253   0.233   2.300  1.3574  0.6174  0.7816
 6374TIP3    H219129   1.385   0.167   2.264  0.0277 -1.3689 -0.6988
 6375TIP3   OH219130   2.317   3.487   3.296 -0.0718  0.3147  0.3286
 6375TIP3    H119131   2.396   3.522   3.338 -0.1091  1.0386 -0.1819
 6375TIP3    H219132   2.260   3.563   3.287 -0.4600 -0.0288 -0.1318
 6376TIP3   OH219133   2.076   4.194   5.059 -0.1781 -0.3693 -0.1390
 6376TIP3    H119134   1.981   4.190   5.070 -0.1360 -0.1168  0.3805
 6376TIP3    H219135   2.110   4.120   5.110  0.0020  0.5912  1.1816
 6377TIP3   OH219136   3.381   5.110   1.588  0.4494  0.3742  0.0137
 6377TIP3    H119137   3.383   5.173   1.661 -2.4587  0.0380  0.5296
 6377TIP3    H219138   3.363   5.163   1.511  0.5056  0.4421  0.0478
 6378TIP3   OH219139   1.485   4.364   2.157  0.3342  0.5313  0.4057
 6378TIP3    H119140   1.475   4.329   2.246  2.9327  0.8749  0.9128
 6378TIP3    H219141   1.499   4.286   2.103 -0.6447  0.3633  0.3772
 6379TIP3   OH219142   2.191   0.740   0.540  1.0172 -0.1535 -0.4989
 6379TIP3    H119143   2.111   0.687   0.544  1.3418 -0.6146 -0.1386
 6379TIP3    H219144   2.167   0.814   0.484  0.5620 -0.6787 -1.0097
 6380TIP3   OH219145   4.417   4.544   3.500 -0.1070 -0.5259 -0.6148
 6380TIP3    H119146   4.511   4.561   3.500 -0.0758 -0.6838 -0.0204
 6380TIP3    H219147   4.410   4.448   3.506 -0.3030 -0.5596 -1.2967
 6381TIP3   OH219148   1.949   3.370   4.813 -0.3518 -0.0324  0.0471
 6381TIP3    H119149   1.930   3.308   4.743 -0.2524  1.4012 -1.3222
 6381TIP3    H219150   1.930   3.323   4.894  0.0424 -1.9277 -0.9164
 6382TIP3   OH219151   3.750   3.087   3.639 -0.4643 -0.4452 -0.3672
 6382TIP3    H119152   3.710   3.172   3.654 -0.7437 -0.6612  0.1164
 6382TIP3    H219153   3.836   3.107   3.602 -0.2255  0.0647  0.4485
 6383TIP3   OH219154   5.818   2.938   3.275  0.2941  0.5762 -0.1574
 6383TIP3    H119155   5.739   2.940   3.329  0.1085 -1.5918 -0.2399
 6383TIP3    H219156   5.882   2.989   3.324 -0.6055  0.7769  0.8488
 6384TIP3   OH219157   4.824   2.234   0.660  0.3662 -0.7776  0.2269
 6384TIP3    H119158   4.781   2.164   0.612 -1.0133  0.1186  0.1029
 6384TIP3    H219159   4.916   2.228   0.634 -0.4459  0.3050 -3.4226
 6385TIP3   OH219160   1.614   4.283   0.292 -0.1403  0.4431  0.9368
 6385TIP3    H119161   1.698   4.237   0.298 -0.3191  0.1405  1.2613
 6385TIP3    H219162   1.637   4.376   0.291  0.2673  0.3444 -0.4471
 6386TIP3   OH219163   0.247   4.595   0.658  0.0136  0.5854  0.0309
 6386TIP3    H119164   0.272   4.688   0.662  0.4524  0.4547  0.5375
 6386TIP3    H219165   0.320   4.553   0.614  0.2324  0.3483  0.6133
 6387TIP3   OH219166   1.405   2.989   4.014 -0.5501 -0.1509 -0.5669
 6387TIP3    H119167   1.431   3.081   4.023 -1.6872  0.2425 -1.1311
 6387TIP3    H219168   1.399   2.974   3.920  0.2339 -1.0014 -0.5027
 6388TIP3   OH219169   4.643   2.294   4.608  0.7164  0.3922 -0.6458
 6388TIP3    H119170   4.615   2.202   4.602  1.6559 -0.1757  2.1404
 6388TIP3    H219171   4.564   2.344   4.587 -0.1040 -1.0666 -1.2017
 6389TIP3   OH219172   1.956   5.863   0.466  0.2749 -0.3953 -0.8197
 6389TIP3    H119173   2.049   5.863   0.491 -0.0136  0.4111  0.3844
 6389TIP3    H219174   1.917   5.794   0.520  0.2082 -0.8726 -1.4754
 6390TIP3   OH219175   1.174   1.537   3.068  0.1650 -1.0603  0.0126
 6390TIP3    H119176   1.199   1.457   3.022 -1.1705 -1.3308 -0.2784
 6390TIP3    H219177   1.157   1.508   3.158 -0.4126 -1.1301 -0.1158
 6391TIP3   OH219178   6.079   0.345   0.597 -0.5644  0.2766  0.3950
 6391TIP3    H119179   6.075   0.367   0.690  0.9610 -2.0569  1.1081
 6391TIP3    H219180   6.172   0.338   0.578 -0.8682 -0.6293 -0.9268
 6392TIP3   OH219181   5.946   0.453   3.121  0.6873 -0.3675  0.0300
 6392TIP3    H119182   6.021   0.473   3.178  2.3036 -1.4996 -1.5586
 6392TIP3    H219183   5.874   0.505   3.157  1.9140 -0.0924  2.3297
 6393TIP3   OH219184   5.917   2.517   2.566  0.2696  0.3201  0.0167
 6393TIP3    H119185   5.862   2.592   2.544  0.3418  0.5497  0.5937
 6393TIP3    H219186   5.999   2.533   2.519  0.1680  0.4356 -0.1214
 6394TIP3   OH219187   4.534   3.794   3.496 -0.4068 -0.0524  0.0817
 6394TIP3    H119188   4.446   3.754   3.497  0.6093 -2.4621  0.5110
 6394TIP3    H219189   4.586   3.736   3.440  1.1137  0.8977  0.4522
 6395TIP3   OH219190   6.180   5.950   0.440 -0.8223 -0.5605 -0.0953
 6395TIP3    H119191   6.196   6.038   0.474 -0.6819  0.4183 -2.4979
 6395TIP3    H219192   6.233   5.892   0.495  1.0880  1.1633 -0.0405
 6396TIP3   OH219193   5.404   3.748   2.943  0.3246  0.3261 -0.2529
 6396TIP3    H119194   5.311   3.743   2.922  0.0257 -1.7429  1.1837
 6396TIP3    H219195   5.408   3.736   3.038  2.0683 -0.2352 -0.3495
 6397TIP3   OH219196   4.017   2.846   1.796  0.4577 -0.3552 -0.3636
 6397TIP3    H119197   4.091   2.849   1.857  0.8274 -1.5564 -0.7226
 6397TIP3    H219198   3.982   2.758   1.807 -2.7083  0.9711  1.8638
 6398TIP3   OH219199   4.469   4.472   1.922  0.1600 -0.0613 -0.3094
 6398TIP3    H119200   4.453   4.381   1.947 -1.7775  0.6075  1.1068
 6398TIP3    H219201   4.491   4.468   1.829 -1.7425 -1.8401 -0.7440
 6399TIP3   OH219202   3.715   1.607   2.796  0.5782 -0.1942 -0.7888
 6399TIP3    H119203   3.760   1.535   2.752  3.3282  0.6789  0.3673
 6399TIP3    H219204   3.656   1.564   2.858  0.5069 -1.4284 -1.6718
 6400TIP3   OH219205   1.197   3.250   3.692 -1.5071  0.0634 -0.6750
 6400TIP3    H119206   1.218   3.333   3.735 -1.8239 -1.1987  2.1391
 6400TIP3    H219207   1.178   3.274   3.601  1.7948  2.6040 -0.8936
 6401TIP3   OH219208   0.417   0.050   5.000 -0.0493 -0.1123  0.0971
 6401TIP3    H119209   0.396   0.076   4.910 -0.3658  1.1022  0.4972
 6401TIP3    H219210   0.397   0.128   5.052  0.5451 -0.6546  1.1645
 6402TIP3   OH219211   3.457   1.162   1.225 -0.0713 -0.6024 -0.3926
 6402TIP3    H119212   3.388   1.227   1.237 -0.1912 -0.6708 -0.7024
 6402TIP3    H219213   3.526   1.189   1.286 -0.0498 -0.0891 -0.6387
 6403TIP3   OH219214   1.905   5.623   4.884 -0.5653  0.0646 -0.0671
 6403TIP3    H119215   1.855   5.616   4.802 -0.2711  1.4249 -0.3914
 6403TIP3    H219216   1.915   5.532   4.914 -1.8203 -0.3617 -0.8394
 6404TIP3   OH219217   1.535   5.797   3.575 -0.0739 -0.1258  0.1584
 6404TIP3    H119218   1.448   5.835   3.583 -0.7231 -1.2586 -1.0345
 6404TIP3    H219219   1.544   5.743   3.654 -0.9906 -0.9764 -0.2904
 6405TIP3   OH219220   1.904   0.356   2.171  0.6040 -0.3479  0.3299
 6405TIP3    H119221   1.976   0.364   2.108  0.7877 -0.2050  0.5534
 6405TIP3    H219222   1.825   0.369   2.119  0.8041  1.2697  0.3537
 6406TIP3   OH219223   1.412   2.219   2.287  0.0865  0.3582  0.3090
 6406TIP3    H119224   1.386   2.214   2.379  1.8108 -1.6967  0.7623
 6406TIP3    H219225   1.506   2.236   2.289  0.0219  1.0886 -1.1211
 6407TIP3   OH219226   4.780   1.847   1.423 -0.0764  0.3970  0.1450
 6407TIP3    H119227   4.874   1.842   1.404  0.0099  0.4837  0.5261
 6407TIP3    H219228   4.774   1.831   1.518 -0.2628  2.1679  0.4651
 6408TIP3   OH219229   1.604   1.244   3.748  0.0999  0.3593 -0.3679
 6408TIP3    H119230   1.534   1.180   3.758  0.9847 -0.3924  1.3219
 6408TIP3    H219231   1.660   1.208   3.679 -0.6205  0.4869 -1.0405
 6409TIP3   OH219232   4.440   5.610   3.558 -0.3283  0.8368  0.1916
 6409TIP3    H119233   4.454   5.697   3.519  1.2188  0.4025 -0.2873
 6409TIP3    H219234   4.489   5.613   3.640  0.4161  0.1587 -0.2194
 6410TIP3   OH219235   6.012   2.598   2.286 -0.1751 -0.3119  0.1891
 6410TIP3    H119236   5.922   2.613   2.315 -1.4906  1.4697 -4.0552
 6410TIP3    H219237   6.006   2.524   2.225  1.8822 -2.1066  1.9903
 6411TIP3   OH219238   4.004   2.376   1.996  0.7060 -0.0516 -0.0209
 6411TIP3    H119239   3.966   2.352   2.081  1.9620  2.0719  1.2463
 6411TIP3    H219240   3.943   2.439   1.959 -0.6921 -2.1685 -1.5912
 6412TIP3   OH219241   4.475   0.472   3.845 -0.0334  0.3632 -0.0046
 6412TIP3    H119242   4.400   0.416   3.863  0.2001 -0.0445 -0.2731
 6412TIP3    H219243   4.480   0.531   3.920  1.3636 -1.7573  1.6877
 6413TIP3   OH219244   4.102   5.994   0.429  0.6655 -0.0164 -0.2856
 6413TIP3    H119245   4.133   5.909   0.396 -1.8020 -0.3053 -2.1310
 6413TIP3    H219246   4.138   6.058   0.368  1.5474  0.1697  0.4122
 6414TIP3   OH219247   0.310   5.763   5.173 -0.4023  0.6148  0.4985
 6414TIP3    H119248   0.251   5.834   5.147 -0.6326  0.8310  1.5361
 6414TIP3    H219249   0.390   5.779   5.124 -0.8329  0.9601 -0.0987
 6415TIP3   OH219250   3.501   4.071   1.421  0.0593 -0.0729 -0.3269
 6415TIP3    H119251   3.423   4.125   1.427 -0.9186 -1.5312  0.6424
 6415TIP3    H219252   3.493   4.027   1.336 -1.0767 -1.5034  0.4877
 6416TIP3   OH219253   4.489   1.000   2.799  0.1791 -0.1947  0.7035
 6416TIP3    H119254   4.445   1.085   2.805  3.1586  1.5480 -0.3153
 6416TIP3    H219255   4.512   0.980   2.890 -0.7562 -0.0920  0.9835
 6417TIP3   OH219256   2.953   2.069   3.738  0.3198 -0.5335  0.0424
 6417TIP3    H119257   3.041   2.031   3.743 -0.0776 -1.3646  0.7580
 6417TIP3    H219258   2.925   2.050   3.648  0.8967 -0.1894 -0.2189
 6418TIP3   OH219259   3.200   0.887   0.253  0.3489  0.0799 -0.1748
 6418TIP3    H119260   3.295   0.897   0.263  0.1929  0.7098  0.8571
 6418TIP3    H219261   3.170   0.859   0.339 -0.4395  0.1431 -0.4216
 6419TIP3   OH219262   3.194   4.681   3.622 -0.2164 -0.3148  0.2735
 6419TIP3    H119263   3.174   4.664   3.530  2.4359  0.7996 -0.6043
 6419TIP3    H219264   3.215   4.595   3.658 -0.1550 -0.6185 -0.4720
 6420TIP3   OH219265   3.460   2.289   4.324 -0.1623  0.6449 -0.0824
 6420TIP3    H119266   3.421   2.258   4.406 -1.5535  0.8556 -0.6492
 6420TIP3    H219267   3.407   2.365   4.299 -0.6179 -0.2159 -1.8627
 6421TIP3   OH219268   4.176   4.164   0.495  0.2192  0.4929 -0.2811
 6421TIP3    H119269   4.107   4.144   0.431  1.4711 -2.8417 -0.8098
 6421TIP3    H219270   4.237   4.220   0.447 -0.1880  0.2511 -1.1140
 6422TIP3   OH219271   5.444   0.252   4.467 -0.5807 -0.4807 -0.2407
 6422TIP3    H119272   5.451   0.205   4.384  0.5778 -1.4189  0.3557
 6422TIP3    H219273   5.469   0.188   4.533  0.1676  0.7271  0.6879
 6423TIP3   OH219274   5.846   4.221   0.910 -0.0133  0.2349 -0.1282
 6423TIP3    H119275   5.906   4.234   0.837  1.8411  0.8556  1.4438
 6423TIP3    H219276   5.810   4.307   0.928  0.1998  0.2482  0.2417
 6424TIP3   OH219277   4.689   4.749   3.927  0.2049 -0.3391  0.3681
 6424TIP3    H119278   4.655   4.680   3.985 -0.1366  0.6125  1.3346
 6424TIP3    H219279   4.676   4.830   3.976 -0.0345  0.5036 -1.0446
 6425TIP3   OH219280   2.461   2.630   1.850 -0.3295 -0.3288 -0.1873
 6425TIP3    H119281   2.441   2.723   1.836  0.6391 -0.1600 -0.5242
 6425TIP3    H219282   2.541   2.630   1.902 -0.4545 -0.9812  0.0124
 6426TIP3   OH219283   4.109   4.542   0.867  0.2495  0.0883 -0.5465
 6426TIP3    H119284   4.115   4.466   0.809 -1.4733 -0.6682  0.1836
 6426TIP3    H219285   4.056   4.605   0.819  0.7671  0.4034 -0.7118
 6427TIP3   OH219286   3.174   4.148   1.914 -0.3151 -0.2784  0.0463
 6427TIP3    H119287   3.139   4.224   1.960 -0.3325 -1.0328  1.3172
 6427TIP3    H219288   3.235   4.184   1.849 -0.1471  0.7976  0.7946
 6428TIP3   OH219289   6.279   4.871   5.167  0.7077  0.5387 -0.6217
 6428TIP3    H119290   6.262   4.865   5.261  0.7643  3.1407 -0.3630
 6428TIP3    H219291   6.194   4.894   5.128  0.6413 -0.7032 -1.2674
 6429TIP3   OH219292   4.177   3.227   5.097  0.4566  0.4344  0.4061
 6429TIP3    H119293   4.233   3.212   5.021 -0.0408 -1.0789  0.3046
 6429TIP3    H219294   4.120   3.150   5.100 -1.4774  1.8038  0.6302
 6430TIP3   OH219295   3.955   3.309   2.590  0.0957  0.0787 -0.4153
 6430TIP3    H119296   4.042   3.315   2.629 -0.2616  1.7282  0.2558
 6430TIP3    H219297   3.944   3.393   2.545 -1.5701  0.4103  0.5173
 6431TIP3   OH219298   5.805   5.714   2.614  0.1522  0.3332 -0.1262
 6431TIP3    H119299   5.784   5.623   2.592  0.7815  0.7209 -2.7153
 6431TIP3    H219300   5.727   5.763   2.590  0.7675  0.7441 -1.4230
 6432TIP3   OH219301   2.352   0.338   0.580 -0.4412  0.1366  0.1277
 6432TIP3    H119302   2.387   0.250   0.578 -0.8561 -0.0437  0.4744
 6432TIP3    H219303   2.265   0.328   0.621 -0.9528  0.5389 -0.8273
 6433TIP3   OH219304   0.762   3.136   2.706  0.1803  0.3723 -0.1665
 6433TIP3    H119305   0.681   3.157   2.752  0.2769 -1.7846  1.1780
 6433TIP3    H219306   0.734   3.090   2.627  0.0693  2.3665 -1.3492
 6434TIP3   OH219307   1.143   5.442   3.389  0.1925  0.1799 -0.0333
 6434TIP3    H119308   1.226   5.412   3.427  0.0655 -0.3581 -0.1697
 6434TIP3    H219309   1.149   5.538   3.390  1.3542  0.1523 -1.2072
 6435TIP3   OH219310   1.470   0.056   1.680  0.0004 -0.0512  0.1472
 6435TIP3    H119311   1.483   0.093   1.767  1.1040  1.2378 -0.5106
 6435TIP3    H219312   1.377   0.068   1.662  0.0854  1.2934  0.4792
 6436TIP3   OH219313   3.230   0.959   2.994  0.2676  0.2700  0.5755
 6436TIP3    H119314   3.145   0.921   2.974  0.0761  0.9581  0.0437
 6436TIP3    H219315   3.255   0.919   3.078 -0.3251 -0.3389  0.4680
 6437TIP3   OH219316   4.562   1.693   2.821  0.2850 -0.2029 -0.1581
 6437TIP3    H119317   4.589   1.740   2.742 -0.3618 -4.5258 -3.3030
 6437TIP3    H219318   4.471   1.720   2.835  0.7603  1.4817 -0.1211
 6438TIP3   OH219319   3.772   4.645   1.014  0.2539 -0.0211 -0.0234
 6438TIP3    H119320   3.824   4.717   1.049 -0.6805  0.0274  1.3648
 6438TIP3    H219321   3.796   4.570   1.069 -0.9518 -0.0427  0.4957
 6439TIP3   OH219322   4.420   3.211   3.709  0.4535 -0.9010 -0.3702
 6439TIP3    H119323   4.507   3.235   3.677 -0.4425 -0.3330 -2.5580
 6439TIP3    H219324   4.370   3.293   3.707  0.2330 -0.9130  2.2903
 6440TIP3   OH219325   0.446   3.964   3.099  0.0468 -0.3710  0.4527
 6440TIP3    H119326   0.373   4.008   3.142  0.8333  0.8900  0.5448
 6440TIP3    H219327   0.523   3.992   3.147  0.6759 -1.0776 -0.1150
 6441TIP3   OH219328   3.745   4.521   2.758  0.3887  0.0090  0.1585
 6441TIP3    H119329   3.663   4.476   2.778  0.7079 -0.5557  0.2167
 6441TIP3    H219330   3.734   4.552   2.668  0.0646  0.0479  0.2096
 6442TIP3   OH219331   5.627   1.618   3.110  0.4847  0.2328 -0.8183
 6442TIP3    H119332   5.660   1.700   3.074  0.2186 -0.2322 -2.2012
 6442TIP3    H219333   5.533   1.632   3.119  0.5812  0.4226 -0.0711
 6443TIP3   OH219334   0.313   5.914   1.598  0.0428 -0.1747 -0.2729
 6443TIP3    H119335   0.392   5.940   1.646 -0.4688  0.2524  0.3602
 6443TIP3    H219336   0.269   5.852   1.656 -0.9747  0.9278  0.1937
 6444TIP3   OH219337   5.544   0.324   1.636 -0.1574 -0.3071 -0.6194
 6444TIP3    H119338   5.570   0.292   1.723 -1.1271 -1.5052 -0.7496
 6444TIP3    H219339   5.474   0.265   1.608 -0.2775  0.4303 -1.9686
 6445TIP3   OH219340   5.525   4.066   0.485  0.1788 -0.1821  0.0117
 6445TIP3    H119341   5.618   4.046   0.492  0.6015  0.6901 -2.3126
 6445TIP3    H219342   5.520   4.160   0.504 -0.0612 -0.0085 -0.8714
 6446TIP3   OH219343   3.548   5.839   1.199 -0.2850 -0.0781 -0.4053
 6446TIP3    H119344   3.623   5.793   1.161 -0.5393 -0.1025 -0.8970
 6446TIP3    H219345   3.472   5.799   1.157 -0.7730 -1.9063  2.0449
 6447TIP3   OH219346   4.388   0.168   4.108 -0.2941 -0.0528 -0.2215
 6447TIP3    H119347   4.337   0.227   4.053  0.2307  0.4752 -0.1530
 6447TIP3    H219348   4.359   0.080   4.083 -1.3948  0.2356 -0.0189
 6448TIP3   OH219349   3.696   5.917   0.936 -0.3880  0.0664 -0.3035
 6448TIP3    H119350   3.605   5.906   0.909 -0.4907 -0.6702  0.3163
 6448TIP3    H219351   3.735   5.831   0.924  0.2097  0.3558 -0.4787
 6449TIP3   OH219352   0.905   3.699   4.012  0.1947  0.3435 -0.1221
 6449TIP3    H119353   0.841   3.768   4.028 -0.4422 -0.4179  0.6957
 6449TIP3    H219354   0.972   3.713   4.079  2.1380  2.5161 -2.3277
 6450TIP3   OH219355   4.224   0.081   4.855 -0.1074 -0.1196 -0.2450
 6450TIP3    H119356   4.318   0.082   4.870  0.1387 -0.5150 -1.6165
 6450TIP3    H219357   4.204  -0.011   4.837 -0.3073  0.2810 -2.3884
 6451TIP3   OH219358   4.102   5.262   1.582 -0.0397  0.3252  0.5848
 6451TIP3    H119359   4.149   5.235   1.661  1.0850  2.5076  0.7426
 6451TIP3    H219360   4.010   5.253   1.605  0.2724 -0.3102  1.6659
 6452TIP3   OH219361   2.705   4.450   1.515  0.0675 -0.8705  0.1610
 6452TIP3    H119362   2.637   4.383   1.519 -0.8607  0.0075 -0.7347
 6452TIP3    H219363   2.679   4.509   1.445  1.2609  0.0260  0.4208
 6453TIP3   OH219364   5.328   1.476   4.176  0.1079 -0.1558  0.0641
 6453TIP3    H119365   5.311   1.507   4.265  0.0423 -1.0907  0.3871
 6453TIP3    H219366   5.423   1.481   4.167  0.1414 -0.3395  0.2978
 6454TIP3   OH219367   3.123   5.860   1.130 -0.1335 -0.2936 -0.4079
 6454TIP3    H119368   3.204   5.832   1.088  0.0735  0.7696 -0.7593
 6454TIP3    H219369   3.151   5.921   1.198 -0.6230 -0.0412 -0.4265
 6455TIP3   OH219370   2.703   2.945   3.439 -0.0144 -0.4395  0.1374
 6455TIP3    H119371   2.628   2.973   3.491 -0.8706 -0.3329 -1.1185
 6455TIP3    H219372   2.729   3.023   3.390 -0.7338 -1.1085 -1.3798
 6456TIP3   OH219373   6.069   2.839   4.310  0.1848  0.0629 -0.1078
 6456TIP3    H119374   6.147   2.787   4.332  0.7367  1.4058  1.2533
 6456TIP3    H219375   5.996   2.781   4.330  0.8131 -0.7344 -0.0594
 6457TIP3   OH219376   0.666   0.534   0.257  0.3346  0.0982 -0.4127
 6457TIP3    H119377   0.633   0.613   0.299  2.3084  1.0218 -0.4717
 6457TIP3    H219378   0.734   0.503   0.317  0.6608 -0.6623 -1.1605
 6458TIP3   OH219379   1.479   1.232   1.590 -0.1637  0.1105 -0.2729
 6458TIP3    H119380   1.572   1.215   1.605  0.0732  1.6520  0.1906
 6458TIP3    H219381   1.440   1.145   1.580  1.2478 -0.5776 -0.0509
 6459TIP3   OH219382   0.601   2.881   4.514 -0.9585 -0.3968  0.2163
 6459TIP3    H119383   0.580   2.964   4.558 -0.2573 -1.1522  2.0995
 6459TIP3    H219384   0.640   2.907   4.431 -2.4904  1.1167 -0.0963
 6460TIP3   OH219385   4.982   3.863   5.067 -0.0437 -0.4515  0.3499
 6460TIP3    H119386   4.950   3.881   5.156 -0.0273  2.1635 -0.0892
 6460TIP3    H219387   5.078   3.860   5.077  0.1245  2.0535  0.1837
 6461TIP3   OH219388   5.990   3.188   0.698 -0.3520  0.2377 -0.2150
 6461TIP3    H119389   6.028   3.103   0.680 -2.4981 -0.3978 -2.2948
 6461TIP3    H219390   5.953   3.180   0.786  2.3500  0.2392  1.0189
 6462TIP3   OH219391   4.510   2.493   1.882  0.2562  0.7190  0.2509
 6462TIP3    H119392   4.543   2.465   1.967  0.2609  0.4382  0.1557
 6462TIP3    H219393   4.417   2.509   1.895 -0.4502 -2.2458 -0.3848
 6463TIP3   OH219394   0.556   4.999   2.669 -0.0239 -0.0791  0.2002
 6463TIP3    H119395   0.554   5.026   2.761 -1.1616 -1.3234  0.5789
 6463TIP3    H219396   0.643   5.025   2.638  0.7667 -0.5034  1.9171
 6464TIP3   OH219397   6.271   2.556   2.876 -0.1991  0.2197  0.0845
 6464TIP3    H119398   6.285   2.476   2.927 -0.6529  0.0408 -0.0658
 6464TIP3    H219399   6.331   2.620   2.915 -0.2013 -0.0480  0.5390
 6465TIP3   OH219400   0.693   4.787   1.102 -0.2248 -0.2621  0.0755
 6465TIP3    H119401   0.606   4.782   1.141 -0.6192  0.5453 -0.6416
 6465TIP3    H219402   0.706   4.701   1.061 -0.9531 -0.1873 -0.3360
 6466TIP3   OH219403   1.256   5.065   2.783 -0.1890 -0.2742  0.9100
 6466TIP3    H119404   1.274   5.048   2.875  1.6144 -0.7072  0.5066
 6466TIP3    H219405   1.339   5.097   2.747 -1.1623  1.0215 -0.3227
 6467TIP3   OH219406   5.982   1.973   1.528 -0.2755  0.1450  0.2270
 6467TIP3    H119407   5.947   1.937   1.447  0.4199  0.8982 -0.4175
 6467TIP3    H219408   6.044   2.041   1.501 -0.8811  1.2140  1.3944
 6468TIP3   OH219409   5.260   0.427   1.350  0.1278  0.0931  0.6557
 6468TIP3    H119410   5.250   0.436   1.445  0.6058  1.0383  0.6280
 6468TIP3    H219411   5.247   0.333   1.334 -0.7881  0.0475  1.5400
 6469TIP3   OH219412   0.825   0.860   3.025 -0.0130 -0.1806  0.9063
 6469TIP3    H119413   0.860   0.841   3.112  1.2322 -0.7649  0.3184
 6469TIP3    H219414   0.894   0.830   2.965 -0.7914  0.3111 -0.2748
 6470TIP3   OH219415   4.488   0.601   2.194  0.4295  0.1179 -0.6871
 6470TIP3    H119416   4.498   0.547   2.273  0.4436  0.0032 -0.7669
 6470TIP3    H219417   4.577   0.627   2.171  0.2821  1.6952  0.4004
 6471TIP3   OH219418   1.162   4.289   3.800 -0.1914  0.2268 -0.0144
 6471TIP3    H119419   1.153   4.201   3.764 -2.2186  0.7754 -1.0034
 6471TIP3    H219420   1.102   4.291   3.874  1.8617 -0.0043  1.7493
 6472TIP3   OH219421   6.320   3.654   1.736 -0.4567 -0.4126 -0.2087
 6472TIP3    H119422   6.326   3.728   1.796 -1.6206  0.0744 -0.6714
 6472TIP3    H219423   6.326   3.694   1.649 -1.0202 -0.8618 -0.4605
 6473TIP3   OH219424   0.838   3.485   3.667  0.1316 -0.3078 -0.5951
 6473TIP3    H119425   0.744   3.507   3.670  0.0494 -0.3241  3.5831
 6473TIP3    H219426   0.847   3.413   3.729  2.6982 -1.5843 -2.3139
 6474TIP3   OH219427   6.029   2.096   2.537 -0.1438 -0.1392 -0.1996
 6474TIP3    H119428   5.935   2.106   2.527 -0.2305 -0.9717 -0.2868
 6474TIP3    H219429   6.066   2.179   2.505 -0.8482  0.2449 -0.0239
 6475TIP3   OH219430   5.580   1.432   2.501  0.1259  0.1483 -0.1502
 6475TIP3    H119431   5.537   1.516   2.482  0.3215  0.0358 -1.1148
 6475TIP3    H219432   5.550   1.410   2.589 -1.7172  0.1330 -0.7354
 6476TIP3   OH219433   4.671   0.538   0.130 -0.0181  0.6317 -0.0777
 6476TIP3    H119434   4.709   0.564   0.213 -0.1966 -1.1355  0.5901
 6476TIP3    H219435   4.606   0.471   0.152  1.6782 -1.7845 -1.7607
 6477TIP3   OH219436   3.732   0.232   3.515 -0.0323 -0.9765  0.5981
 6477TIP3    H119437   3.799   0.169   3.490  0.8617 -0.3004  1.2162
 6477TIP3    H219438   3.653   0.204   3.469  0.7769 -1.5525 -0.4707
 6478TIP3   OH219439   2.697   3.055   1.303 -0.4136 -0.3710 -0.3129
 6478TIP3    H119440   2.778   3.105   1.298 -1.6764  1.7495 -1.6663
 6478TIP3    H219441   2.691   3.010   1.219 -1.0414  0.2600 -0.6252
 6479TIP3   OH219442   5.086   0.141   0.358 -0.0689 -0.2916 -0.6287
 6479TIP3    H119443   5.030   0.132   0.435 -0.2076  1.5107 -0.4714
 6479TIP3    H219444   5.027   0.127   0.284 -0.6450  1.0386 -0.4513
 6480TIP3   OH219445   4.775   1.727   4.170 -0.4038 -0.2376 -0.4673
 6480TIP3    H119446   4.788   1.633   4.185 -0.0277 -0.1971 -0.5158
 6480TIP3    H219447   4.767   1.736   4.075 -0.7865 -0.2611 -0.4371
 6481TIP3   OH219448   1.399   5.105   0.028 -0.0356  0.0305 -0.3351
 6481TIP3    H119449   1.485   5.108  -0.015  0.3057  0.4752  0.3529
 6481TIP3    H219450   1.419   5.114   0.121 -0.8568  0.5745 -0.1987
 6482TIP3   OH219451   5.117   0.191   1.383  0.4391  0.0784 -0.2568
 6482TIP3    H119452   5.159   0.105   1.386 -0.3461 -0.2909  0.5435
 6482TIP3    H219453   5.129   0.227   1.471  0.5108  0.6738 -0.5029
 6483TIP3   OH219454   3.176   3.676   0.023  0.0562  0.5652  0.3444
 6483TIP3    H119455   3.183   3.596  -0.029  0.8761 -0.1705  1.5375
 6483TIP3    H219456   3.088   3.673   0.061  0.6649 -0.6703  1.7468
 6484TIP3   OH219457   1.474   0.697   3.892 -0.5228  0.2153 -0.0226
 6484TIP3    H119458   1.539   0.655   3.836 -1.7064 -1.8248  0.0151
 6484TIP3    H219459   1.510   0.690   3.981 -0.0150  0.7025 -0.1866
 6485TIP3   OH219460   2.918   1.634   4.566 -0.1382  0.2207 -0.1982
 6485TIP3    H119461   2.872   1.661   4.487  1.0172  1.4107 -0.5128
 6485TIP3    H219462   2.978   1.707   4.585 -1.3230  0.6176  2.5612
 6486TIP3   OH219463   2.082   3.347   3.378  0.1199 -0.2190  0.2113
 6486TIP3    H119464   2.018   3.351   3.307 -1.0723  1.6272  1.3093
 6486TIP3    H219465   2.159   3.393   3.344 -0.3615  0.4578  0.0217
 6487TIP3   OH219466   2.339   1.258   3.464  0.3364 -0.4835 -0.6238
 6487TIP3    H119467   2.258   1.290   3.503 -0.2408 -2.0147 -0.4923
 6487TIP3    H219468   2.314   1.233   3.375 -0.1644 -3.7876  0.3020
 6488TIP3   OH219469   2.844   2.244   4.747 -0.3251 -0.0702 -0.4836
 6488TIP3    H119470   2.789   2.318   4.721 -2.1418 -1.4268 -0.6983
 6488TIP3    H219471   2.807   2.216   4.831  1.1469  0.0210  0.2177
 6489TIP3   OH219472   1.189   3.942   1.022  0.1963 -0.2298  0.2731
 6489TIP3    H119473   1.255   3.970   1.086 -0.0910  0.0789  0.4360
 6489TIP3    H219474   1.240   3.920   0.944  0.6178 -1.2576  0.8134
 6490TIP3   OH219475   0.168   0.150   1.539 -0.4216 -0.2616  0.6695
 6490TIP3    H119476   0.196   0.146   1.448 -1.5540  0.7937  0.2329
 6490TIP3    H219477   0.158   0.059   1.566 -0.3695 -0.5848 -0.3719
 6491TIP3   OH219478   3.447   2.645   4.566 -0.4157  0.4945  0.3229
 6491TIP3    H119479   3.384   2.604   4.507 -1.9286  2.0659  0.7719
 6491TIP3    H219480   3.531   2.636   4.521 -0.6701 -2.7161  0.2609
 6492TIP3   OH219481   1.880   1.401   0.296  0.1274 -0.0543 -0.4392
 6492TIP3    H119482   1.944   1.381   0.228 -0.8061 -0.4226 -1.2388
 6492TIP3    H219483   1.867   1.318   0.342 -0.8827 -0.3687 -1.2613
 6493TIP3   OH219484   2.345   4.572   2.900  0.1936 -0.1700  0.0132
 6493TIP3    H119485   2.264   4.530   2.927  0.4040 -0.5170  0.1186
 6493TIP3    H219486   2.350   4.652   2.952 -0.5514  0.3489 -0.6771
 6494TIP3   OH219487   4.258   1.181   3.160 -0.1185  0.1719  0.0577
 6494TIP3    H119488   4.291   1.194   3.071 -2.0887 -0.8554 -0.8634
 6494TIP3    H219489   4.287   1.093   3.184 -0.5820  0.0038 -0.0073
 6495TIP3   OH219490   1.905   4.079   4.837 -0.0036  0.4630 -0.7548
 6495TIP3    H119491   1.977   4.090   4.899 -0.9567 -0.0629  0.4802
 6495TIP3    H219492   1.876   4.168   4.818  0.7844  0.6638 -1.0518
 6496TIP3   OH219493   3.677   3.975   4.086  0.6405  0.1082 -0.2140
 6496TIP3    H119494   3.721   4.055   4.056  1.2723  0.2173  0.9391
 6496TIP3    H219495   3.738   3.935   4.147 -0.8664  0.3207  1.5438
 6497TIP3   OH219496   1.725   4.954   1.106  0.1642 -0.5509 -0.0676
 6497TIP3    H119497   1.656   4.890   1.123  0.3555 -0.3709  1.5563
 6497TIP3    H219498   1.806   4.906   1.121  0.3887 -0.5153 -1.0816
 6498TIP3   OH219499   2.048   2.803   2.948 -0.3162  0.2982  0.1398
 6498TIP3    H119500   1.960   2.788   2.914  0.0412 -0.3820 -0.5230
 6498TIP3    H219501   2.106   2.787   2.873  0.5572 -2.2312  1.2297
 6499TIP3   OH219502   3.922   0.719   3.288 -0.8593  0.1167  0.1719
 6499TIP3    H119503   3.929   0.624   3.279 -2.0748  0.0189  0.0933
 6499TIP3    H219504   3.993   0.743   3.348 -1.8332 -1.1277  1.9065
 6500TIP3   OH219505   0.738   5.646   3.235  0.3841 -0.4718 -0.2504
 6500TIP3    H119506   0.783   5.694   3.166 -0.8504  0.5028 -0.4172
 6500TIP3    H219507   0.645   5.662   3.218  0.0438 -0.4886  1.4341
 6501TIP3   OH219508   1.632   0.468   0.134 -0.0203 -0.2720 -0.2583
 6501TIP3    H119509   1.554   0.506   0.176  0.8854  0.6970  0.6197
 6501TIP3    H219510   1.655   0.394   0.190  0.7372  0.5516  0.5410
 6502TIP3   OH219511   5.951   2.032   0.757 -0.1242  0.2848  0.0237
 6502TIP3    H119512   5.889   2.104   0.745 -1.3286  0.0875  3.7709
 6502TIP3    H219513   5.897   1.953   0.753  0.4562 -0.1219  0.1153
 6503TIP3   OH219514   6.175   2.792   1.749  0.0806  0.1041  0.2614
 6503TIP3    H119515   6.246   2.806   1.687 -0.4869 -1.7700 -0.9338
 6503TIP3    H219516   6.185   2.700   1.775 -0.6514  0.4190  1.7216
 6504TIP3   OH219517   5.698   4.045   3.417  0.4477  0.1836 -0.0899
 6504TIP3    H119518   5.699   4.014   3.507 -0.5259 -0.8028 -0.3960
 6504TIP3    H219519   5.697   4.140   3.425  1.3875  0.1345  0.9071
 6505TIP3   OH219520   5.542   1.699   0.154  0.1078  0.0963  0.4393
 6505TIP3    H119521   5.549   1.702   0.250 -0.9996 -0.5582  0.5498
 6505TIP3    H219522   5.600   1.769   0.124 -1.2777  1.8584  1.6861
 6506TIP3   OH219523   2.068   1.345   0.084  0.0041  0.5988 -0.2748
 6506TIP3    H119524   2.164   1.344   0.086 -0.0035 -0.8365  0.0237
 6506TIP3    H219525   2.045   1.275   0.022 -0.8502  1.6445 -1.1869
 6507TIP3   OH219526   0.194   2.238   0.042  0.4522 -0.6507 -0.6962
 6507TIP3    H119527   0.224   2.322   0.008 -0.4287 -0.8405 -2.0299
 6507TIP3    H219528   0.118   2.260   0.096  0.0714 -0.5821 -1.2404
 6508TIP3   OH219529   4.148   2.408   3.894  0.5175 -0.1821 -0.3163
 6508TIP3    H119530   4.095   2.460   3.954  0.3521  0.2626 -0.8427
 6508TIP3    H219531   4.085   2.352   3.849  0.5770 -0.1405 -0.4519
 6509TIP3   OH219532   3.871   3.488   0.327  0.5967  0.0819  0.3545
 6509TIP3    H119533   3.784   3.471   0.362  0.5734 -0.2158  0.1573
 6509TIP3    H219534   3.860   3.485   0.232  0.7873  0.2072  0.3276
 6510TIP3   OH219535   0.654   5.934   3.865 -0.3144 -0.0127 -0.3477
 6510TIP3    H119536   0.736   5.970   3.831 -0.4635 -1.5698 -2.5102
 6510TIP3    H219537   0.681   5.875   3.935  0.4587 -0.7260 -1.2286
 6511TIP3   OH219538   2.244   5.797   0.519 -0.1334  0.5475  0.5208
 6511TIP3    H119539   2.302   5.770   0.448  1.0046 -0.8335  1.8963
 6511TIP3    H219540   2.223   5.716   0.565  0.9859  1.5975  3.0766
 6512TIP3   OH219541   0.073   0.608   4.650  0.1410 -0.3746 -0.0183
 6512TIP3    H119542   0.146   0.606   4.589  1.1409  0.4332  1.1211
 6512TIP3    H219543   0.021   0.683   4.622  1.2230  0.7093  0.7956
 6513TIP3   OH219544   4.887   1.435   2.320 -0.0739  0.4860 -0.5605
 6513TIP3    H119545   4.834   1.362   2.354  2.1709 -1.1756 -0.3759
 6513TIP3    H219546   4.913   1.407   2.233  1.6574  0.5543 -0.0977
 6514TIP3   OH219547   1.562   1.482   0.803  0.1576 -0.2127 -0.1814
 6514TIP3    H119548   1.655   1.472   0.783  0.1333 -0.4429 -0.1812
 6514TIP3    H219549   1.527   1.392   0.801  0.0434 -0.1833  0.3298
 6515TIP3   OH219550   4.432   4.247   0.059  0.1613 -0.5083  0.3454
 6515TIP3    H119551   4.358   4.200   0.021  0.3891 -0.2381 -0.4735
 6515TIP3    H219552   4.434   4.330   0.010 -0.1499  0.2927  1.6520
 6516TIP3   OH219553   2.033   2.442   3.227  0.3271  0.1905 -0.0476
 6516TIP3    H119554   2.126   2.424   3.233  0.2946 -0.7438 -1.8076
 6516TIP3    H219555   2.006   2.458   3.317  2.4905  2.2113  0.3497
 6517TIP3   OH219556   4.224   5.160   0.833  0.2086  0.0148 -0.0883
 6517TIP3    H119557   4.227   5.124   0.921 -1.4144  1.0207  0.4098
 6517TIP3    H219558   4.305   5.210   0.824  0.6579 -0.5745  0.5922
 6518TIP3   OH219559   5.721   1.496   1.246 -0.1131 -0.4876  0.1590
 6518TIP3    H119560   5.675   1.427   1.294  1.6299 -3.0535 -1.5778
 6518TIP3    H219561   5.806   1.503   1.290 -0.2304  0.4683  0.2361
 6519TIP3   OH219562   3.771   4.320   2.421  0.5018  0.0688  0.5039
 6519TIP3    H119563   3.736   4.409   2.416  0.9380  0.2631  0.8268
 6519TIP3    H219564   3.865   4.330   2.407  0.3794 -0.5082 -0.9185
 6520TIP3   OH219565   5.485   4.752   0.491  0.0096 -0.1019 -0.4726
 6520TIP3    H119566   5.522   4.768   0.577 -0.2521  2.9399 -0.8390
 6520TIP3    H219567   5.413   4.690   0.507 -0.4624  0.9136  1.5981
 6521TIP3   OH219568   5.070   4.342   4.620 -0.0947 -0.3959 -0.0030
 6521TIP3    H119569   5.069   4.433   4.648  0.7646  0.4131 -2.3111
 6521TIP3    H219570   4.991   4.333   4.566  0.0905 -0.8472 -0.2067
 6522TIP3   OH219571   0.229   2.469   2.866 -0.2613  0.4502 -0.7456
 6522TIP3    H119572   0.176   2.401   2.909 -0.3496 -0.4043 -2.1522
 6522TIP3    H219573   0.311   2.425   2.844  1.9976  2.2351  3.1218
 6523TIP3   OH219574   1.380   0.732   1.370 -0.1883  0.3039 -0.0370
 6523TIP3    H119575   1.394   0.800   1.435 -1.0019 -1.2556  1.8456
 6523TIP3    H219576   1.460   0.732   1.318  1.4340  0.1903  2.3174
 6524TIP3   OH219577   1.907   5.852   1.797  0.2593 -0.3422 -0.3356
 6524TIP3    H119578   1.874   5.843   1.887  0.1209 -1.7265 -0.5027
 6524TIP3    H219579   1.975   5.785   1.791 -0.1524 -0.6745 -1.4428
 6525TIP3   OH219580   0.901   1.572   4.130 -0.2111  0.2829  0.1066
 6525TIP3    H119581   0.969   1.517   4.170 -1.7444 -1.9540 -0.1666
 6525TIP3    H219582   0.920   1.569   4.037 -1.6482 -1.9667 -0.2071
 6526TIP3   OH219583   1.518   5.974   2.514  0.3169 -0.2949  0.2232
 6526TIP3    H119584   1.495   5.899   2.460 -1.9347 -0.0440  0.7639
 6526TIP3    H219585   1.541   5.937   2.599  1.2686 -0.4859 -0.1000
 6527TIP3   OH219586   2.496   2.285   2.530  0.2864  0.2261 -0.1978
 6527TIP3    H119587   2.588   2.263   2.522  0.1812 -0.5038  0.4529
 6527TIP3    H219588   2.467   2.240   2.610 -0.1624  1.9996  0.7135
 6528TIP3   OH219589   1.292   0.312   1.050  0.1019  0.6022  0.5423
 6528TIP3    H119590   1.221   0.346   0.996  1.7605 -0.1538 -2.3029
 6528TIP3    H219591   1.255   0.234   1.093 -0.7168  0.0212 -1.1509
 6529TIP3   OH219592   4.924   5.328   1.761 -0.3847  0.1936  0.0788
 6529TIP3    H119593   4.836   5.290   1.756 -0.1180 -0.4185 -0.0935
 6529TIP3    H219594   4.953   5.306   1.850 -0.3435  0.2574  0.0805
 6530TIP3   OH219595   3.078   3.927   3.575 -0.0562 -0.0525  0.8118
 6530TIP3    H119596   3.161   3.964   3.605  0.4746 -0.0644 -0.5765
 6530TIP3    H219597   3.033   3.999   3.532 -0.5527 -0.1765  1.1120
 6531TIP3   OH219598   3.903   3.149   3.908  0.0270 -0.4210  0.5189
 6531TIP3    H119599   3.890   3.231   3.859  2.1646 -0.2795  0.0612
 6531TIP3    H219600   3.858   3.083   3.856  1.8151 -0.1880 -1.4946
 6532TIP3   OH219601   5.932   5.745   3.460  0.5491  0.6027 -0.5901
 6532TIP3    H119602   5.982   5.670   3.492  0.7853  1.1096  0.2797
 6532TIP3    H219603   5.840   5.718   3.465  0.6759  0.0444 -1.1846
 6533TIP3   OH219604   4.488   0.074   4.898  0.5193  0.3141  0.5933
 6533TIP3    H119605   4.487   0.025   4.980  1.2263  0.9354  0.9845
 6533TIP3    H219606   4.575   0.058   4.861 -0.2685 -1.0988 -0.7588
 6534TIP3   OH219607   0.817   4.358   3.861 -0.2240 -0.7182  0.0778
 6534TIP3    H119608   0.780   4.281   3.903 -0.3122 -0.5048  0.3943
 6534TIP3    H219609   0.860   4.406   3.932  0.2951 -0.7444 -0.2085
 6535TIP3   OH219610   1.990   4.632   4.112 -0.1114 -0.0544 -0.5083
 6535TIP3    H119611   1.982   4.661   4.021 -0.7065 -0.1607 -0.4886
 6535TIP3    H219612   1.948   4.546   4.114  0.1619 -0.1833 -0.1949
 6536TIP3   OH219613   3.984   2.547   4.073  0.0680  0.2972  0.0841
 6536TIP3    H119614   4.025   2.522   4.156  1.0284  0.1325 -0.4256
 6536TIP3    H219615   3.962   2.640   4.084  1.3180  0.6123  0.0960
 6537TIP3   OH219616   4.809   2.167   3.762 -0.8332  0.0290  0.0801
 6537TIP3    H119617   4.789   2.164   3.669 -0.3055 -0.4478 -0.0158
 6537TIP3    H219618   4.904   2.158   3.768 -0.5977  2.1974  0.5473
 6538TIP3   OH219619   0.715   4.284   4.994 -0.3614  0.0992 -0.2488
 6538TIP3    H119620   0.783   4.234   4.948 -1.2962 -1.0604 -0.3951
 6538TIP3    H219621   0.764   4.350   5.044  0.7664  0.3881 -1.6728
 6539TIP3   OH219622   1.825   2.613   1.580  0.2877 -0.1862 -0.2437
 6539TIP3    H119623   1.750   2.577   1.533 -0.1274  1.0353 -0.5506
 6539TIP3    H219624   1.826   2.705   1.557  1.4193 -0.0190  0.3914
 6540TIP3   OH219625   2.393   3.700   2.873 -0.0034  0.5982  0.6076
 6540TIP3    H119626   2.389   3.780   2.819  0.2221  0.0585 -0.2293
 6540TIP3    H219627   2.418   3.631   2.811  0.6599  0.0316  1.4909
 6541TIP3   OH219628   4.429   5.923   5.178 -0.0296 -0.0161  0.4789
 6541TIP3    H119629   4.349   5.962   5.143  0.2704  0.1122 -0.0803
 6541TIP3    H219630   4.500   5.970   5.133  0.3536 -0.2805  0.8031
 6542TIP3   OH219631   6.365   5.808   1.789  0.0306  0.0433 -0.0967
 6542TIP3    H119632   6.272   5.799   1.810  0.6984  0.8233  4.0703
 6542TIP3    H219633   6.385   5.899   1.810  1.9047 -0.3635  0.0077
 6543TIP3   OH219634   4.794   3.037   1.731  0.1593  0.1982  0.2993
 6543TIP3    H119635   4.854   3.102   1.769 -1.0237  0.6340  1.4826
 6543TIP3    H219636   4.711   3.083   1.722 -0.2840 -0.7022 -0.3612
 6544TIP3   OH219637   0.840   3.179   2.034 -0.9932 -0.6151  0.3792
 6544TIP3    H119638   0.826   3.087   2.014 -2.8381 -0.3614  0.3860
 6544TIP3    H219639   0.936   3.190   2.031 -0.8294 -2.1140 -1.3924
 6545TIP3   OH219640   2.146   3.426   2.375  0.0961 -0.3946  0.0880
 6545TIP3    H119641   2.154   3.518   2.347 -0.6726  0.0924  1.3946
 6545TIP3    H219642   2.064   3.396   2.335 -0.5592  0.0456  1.0395
 6546TIP3   OH219643   2.750   5.624   3.144  0.1101  0.2693 -0.1225
 6546TIP3    H119644   2.784   5.542   3.178  0.9645  0.5934 -0.1773
 6546TIP3    H219645   2.825   5.683   3.142 -0.4767  1.0453 -0.1201
 6547TIP3   OH219646   0.907   3.934   2.013  0.3284  0.1758 -0.0318
 6547TIP3    H119647   0.885   3.844   2.038 -0.5170  0.4179  0.1437
 6547TIP3    H219648   0.945   3.926   1.925 -1.1557 -0.2265 -0.6774
 6548TIP3   OH219649   2.638   5.175   3.840 -0.0334  0.1899  0.6966
 6548TIP3    H119650   2.724   5.149   3.875  0.4369  1.2443  0.3515
 6548TIP3    H219651   2.600   5.231   3.908 -0.3336 -0.0502  0.7282
 6549TIP3   OH219652   3.703   0.169   0.718 -0.6834  0.0171  0.4924
 6549TIP3    H119653   3.791   0.164   0.680 -1.2825 -0.3862 -0.9134
 6549TIP3    H219654   3.651   0.109   0.665 -2.0599  1.0624  0.6116
 6550TIP3   OH219655   0.941   4.079   2.285  0.3218 -0.2042 -0.5370
 6550TIP3    H119656   0.906   4.168   2.278 -0.9377 -0.6264  0.1191
 6550TIP3    H219657   0.885   4.026   2.228  0.4738 -0.7452 -0.1975
 6551TIP3   OH219658   2.532   2.910   3.873 -0.1725  0.2075  0.0505
 6551TIP3    H119659   2.452   2.860   3.892 -0.4108  1.0059  1.2784
 6551TIP3    H219660   2.601   2.863   3.920 -0.3445  0.8284  0.9511
 6552TIP3   OH219661   1.420   2.839   3.327 -0.3255  0.0360 -0.0056
 6552TIP3    H119662   1.487   2.841   3.259 -0.2600 -0.7071  0.0327
 6552TIP3    H219663   1.455   2.895   3.397  0.7133 -1.1343  0.4272
 6553TIP3   OH219664   2.961   3.903   4.831  0.4282 -0.3115  0.1548
 6553TIP3    H119665   2.972   3.982   4.883 -1.6510 -0.0254  0.2412
 6553TIP3    H219666   3.032   3.906   4.767  0.4880  1.5507  0.2609
 6554TIP3   OH219667   2.681   0.857   2.790  0.0476 -0.8145 -0.2261
 6554TIP3    H119668   2.599   0.824   2.753 -1.6149  2.4162  0.2259
 6554TIP3    H219669   2.675   0.838   2.884 -1.7435  1.9707  0.3474
 6555TIP3   OH219670   4.183   1.464   3.935  0.2289 -0.0419 -0.0608
 6555TIP3    H119671   4.248   1.525   3.971  1.9218 -1.4300 -0.6346
 6555TIP3    H219672   4.218   1.439   3.850 -0.6540 -1.4762 -0.0273
 6556TIP3   OH219673   2.776   0.558   4.436  0.0751 -0.3379 -0.0288
 6556TIP3    H119674   2.732   0.576   4.519 -0.6361  1.1744 -0.6910
 6556TIP3    H219675   2.718   0.595   4.369  0.3615 -1.9854 -1.2688
 6557TIP3   OH219676   0.860   4.055   1.235  0.5261  0.1587 -0.1613
 6557TIP3    H119677   0.778   4.015   1.266 -0.2900  0.4856 -1.7621
 6557TIP3    H219678   0.887   4.000   1.161  1.6995  0.1329  0.2647
 6558TIP3   OH219679   5.252   1.028   5.015  0.4619  0.1717 -0.0335
 6558TIP3    H119680   5.273   1.122   5.009  0.3913  0.2024  0.1916
 6558TIP3    H219681   5.321   0.985   4.965  0.7478  0.3140  0.2325
 6559TIP3   OH219682   6.128   3.562   4.598  0.5777 -0.1953 -0.0456
 6559TIP3    H119683   6.098   3.600   4.515  0.5878 -0.0149  0.0330
 6559TIP3    H219684   6.195   3.498   4.572  0.5766 -0.1434 -0.1766
 6560TIP3   OH219685   2.779   5.240   0.855  0.3372  0.4606  0.3247
 6560TIP3    H119686   2.746   5.321   0.814 -0.2162 -0.8763 -2.0257
 6560TIP3    H219687   2.705   5.209   0.907 -0.5250 -0.0072 -1.1086
 6561TIP3   OH219688   5.359   4.087   1.130  0.2106  0.1155 -0.4926
 6561TIP3    H119689   5.328   4.153   1.193  0.3443 -0.7035  0.4456
 6561TIP3    H219690   5.286   4.076   1.070 -0.6289 -0.3842  0.5755
 6562TIP3   OH219691   5.514   2.378   3.561  0.4661 -0.2788  0.1353
 6562TIP3    H119692   5.508   2.472   3.573  0.6231 -0.1657 -0.6152
 6562TIP3    H219693   5.608   2.361   3.551  0.4928 -0.5976  0.8813
 6563TIP3   OH219694   5.736   3.478   2.084  0.7609 -0.1353  0.3565
 6563TIP3    H119695   5.802   3.410   2.093  0.4712 -0.5416 -0.4300
 6563TIP3    H219696   5.726   3.515   2.172 -0.2512 -2.2124  1.1936
 6564TIP3   OH219697   4.990   1.433   3.200  0.2463  0.3000 -0.0148
 6564TIP3    H119698   4.984   1.405   3.109 -0.2683 -1.6191  0.5721
 6564TIP3    H219699   4.946   1.518   3.202 -1.5348 -0.5360 -1.2071
 6565TIP3   OH219700   2.499   0.990   4.282  0.1648  0.1697 -0.1841
 6565TIP3    H119701   2.506   1.079   4.249  0.5344 -0.0104 -0.6130
 6565TIP3    H219702   2.467   0.999   4.371 -0.4567  0.6924 -0.4545
 6566TIP3   OH219703   6.018   1.922   0.041  0.3866  0.2643  0.0949
 6566TIP3    H119704   6.049   1.862  -0.027  0.3948 -0.5152  0.7816
 6566TIP3    H219705   5.923   1.909   0.044  0.4905 -0.3698  0.8551
 6567TIP3   OH219706   0.145   5.747   4.892 -0.1757 -0.1196 -0.0667
 6567TIP3    H119707   0.228   5.724   4.851 -0.9116 -0.3201 -1.5294
 6567TIP3    H219708   0.130   5.679   4.957 -0.0562 -1.1429 -1.0791
 6568TIP3   OH219709   1.936   4.866   1.541 -0.2285 -0.1714  0.0420
 6568TIP3    H119710   1.867   4.813   1.501  0.1216  0.1785 -1.0487
 6568TIP3    H219711   1.902   4.956   1.540 -0.0786 -0.1103  0.2271
 6569TIP3   OH219712   3.415   5.374   0.277 -0.3227 -0.4785 -0.3268
 6569TIP3    H119713   3.358   5.357   0.202 -1.3294 -1.2353  0.5854
 6569TIP3    H219714   3.496   5.407   0.238 -1.0697 -0.1863 -1.7012
 6570TIP3   OH219715   0.297   0.313   2.061 -0.1346  0.1554  0.2583
 6570TIP3    H119716   0.211   0.273   2.055 -0.2725  0.6108 -1.1884
 6570TIP3    H219717   0.358   0.239   2.061 -0.4238 -0.1422 -1.5406
 6571TIP3   OH219718   0.782   4.223   3.347  0.8122 -0.0826 -0.2620
 6571TIP3    H119719   0.821   4.241   3.262  0.6622 -2.1879 -0.8379
 6571TIP3    H219720   0.833   4.276   3.409  2.5611 -0.3805 -1.3720
 6572TIP3   OH219721   6.204   5.857   4.440  0.1364  0.6142  0.0985
 6572TIP3    H119722   6.210   5.825   4.530 -2.3441 -0.7716 -0.1472
 6572TIP3    H219723   6.165   5.784   4.391 -1.2689  2.3406 -1.5105
 6573TIP3   OH219724   5.267   0.410   2.703  0.2497  0.1622  0.0599
 6573TIP3    H119725   5.352   0.375   2.678  0.0203 -0.2618 -0.1569
 6573TIP3    H219726   5.204   0.349   2.664 -0.1411  0.1883  0.6323
 6574TIP3   OH219727   0.280   4.221   3.532 -1.1310  0.1856  0.1383
 6574TIP3    H119728   0.194   4.211   3.572 -1.3333 -2.8817 -0.8259
 6574TIP3    H219729   0.342   4.200   3.603 -1.3402 -1.1320 -0.0478
 6575TIP3   OH219730   0.947   1.432   2.836 -0.1457  0.1658 -0.3265
 6575TIP3    H119731   1.023   1.380   2.859  0.0552  1.3390  2.0354
 6575TIP3    H219732   0.980   1.499   2.777  0.4435  0.0589 -0.1212
 6576TIP3   OH219733   5.098   2.052   5.136  0.0976  0.7026  0.1471
 6576TIP3    H119734   5.168   2.107   5.100  0.1239  1.2905  1.0570
 6576TIP3    H219735   5.133   1.963   5.132 -0.1508  0.6392 -1.8496
 6577TIP3   OH219736   1.672   5.467   2.117 -0.5483 -0.3425  0.2639
 6577TIP3    H119737   1.673   5.396   2.053 -0.6686  0.2837 -0.4528
 6577TIP3    H219738   1.753   5.456   2.167  0.6646  0.4126 -1.4456
 6578TIP3   OH219739   0.769   5.333   0.868  0.2182 -0.4352 -0.6091
 6578TIP3    H119740   0.760   5.335   0.773 -2.3976  2.6891 -0.4335
 6578TIP3    H219741   0.732   5.249   0.894 -3.9357  0.7184 -2.1244
 6579TIP3   OH219742   6.165   5.628   4.884  0.2568 -0.2200 -0.6062
 6579TIP3    H119743   6.240   5.577   4.913 -0.6462 -1.4866 -0.3960
 6579TIP3    H219744   6.110   5.565   4.837 -0.7298  0.6459 -0.6562
 6580TIP3   OH219745   1.918   3.143   1.002  0.1994  0.1396 -0.1280
 6580TIP3    H119746   1.827   3.134   1.029  0.6871  0.0764  1.6281
 6580TIP3    H219747   1.968   3.116   1.079  1.6922  2.6986 -0.1077
 6581TIP3   OH219748   4.628   3.893   1.255 -0.1277  0.3190  0.7197
 6581TIP3    H119749   4.539   3.863   1.240 -0.1113  0.0789  1.0980
 6581TIP3    H219750   4.662   3.912   1.168  0.1647 -1.5982  0.3884
 6582TIP3   OH219751   3.996   5.079   1.281 -0.2058 -0.0522  0.6249
 6582TIP3    H119752   4.023   5.018   1.350 -2.0122 -0.1853  1.2726
 6582TIP3    H219753   3.978   5.161   1.327 -2.9451 -0.5744  0.6269
 6583TIP3   OH219754   3.456   2.538   0.185  0.1669  0.1882 -0.1401
 6583TIP3    H119755   3.361   2.524   0.176  0.1681 -0.0980  0.2610
 6583TIP3    H219756   3.463   2.628   0.216  0.1051  0.7322 -1.6273
 6584TIP3   OH219757   0.623   2.782   0.237  0.0577 -0.2000 -0.2557
 6584TIP3    H119758   0.567   2.839   0.291  0.8258 -0.7392  1.1611
 6584TIP3    H219759   0.583   2.696   0.245  0.3470 -0.3390 -0.2999
 6585TIP3   OH219760   0.097   2.649   3.109  0.5802  0.0013 -0.6225
 6585TIP3    H119761   0.160   2.667   3.040  3.3170 -2.6224  0.9857
 6585TIP3    H219762   0.071   2.735   3.141  1.4376  1.1984 -2.9122
 6586TIP3   OH219763   0.522   1.759   1.010 -0.9208  0.1910 -0.3949
 6586TIP3    H119764   0.470   1.710   0.946  0.1789  0.3332 -1.4511
 6586TIP3    H219765   0.458   1.796   1.070 -1.9139 -0.8897 -0.7441
 6587TIP3   OH219766   2.391   3.916   2.707 -0.3082 -0.1133  0.0718
 6587TIP3    H119767   2.379   4.009   2.727  0.1223  0.2103 -1.1113
 6587TIP3    H219768   2.377   3.910   2.612  0.9794 -1.0341 -0.0746
 6588TIP3   OH219769   1.164   2.818   2.275  0.1029 -0.0621  0.1771
 6588TIP3    H119770   1.112   2.803   2.354  0.3103  0.1728  0.3608
 6588TIP3    H219771   1.198   2.732   2.252  0.0192 -0.1356  0.3263
 6589TIP3   OH219772   4.176   5.389   4.989 -0.7422 -0.2398  0.1441
 6589TIP3    H119773   4.223   5.358   4.912 -1.7890  0.8916 -1.0078
 6589TIP3    H219774   4.103   5.329   4.999 -1.7817  0.7568 -1.0423
 6590TIP3   OH219775   2.895   4.533   3.629  0.1419 -0.4276  0.0873
 6590TIP3    H119776   2.815   4.498   3.669 -0.2169  1.2783  0.9688
 6590TIP3    H219777   2.887   4.628   3.640  0.9058  0.0055 -2.4507
 6591TIP3   OH219778   4.944   0.385   1.129  0.5631  0.1568 -0.0597
 6591TIP3    H119779   4.999   0.309   1.112  3.0631  1.0502  3.0021
 6591TIP3    H219780   4.883   0.357   1.198 -0.9447  0.0139 -1.3899
 6592TIP3   OH219781   3.959   4.119   3.661  0.0640 -0.4345  0.0488
 6592TIP3    H119782   4.039   4.138   3.611 -0.0463 -1.4394 -0.5442
 6592TIP3    H219783   3.898   4.085   3.596 -1.1836  1.1482  0.3353
 6593TIP3   OH219784   4.196   5.973   1.350 -0.4404 -0.4099 -0.1953
 6593TIP3    H119785   4.231   6.060   1.332  0.9320 -0.9814 -0.4316
 6593TIP3    H219786   4.231   5.918   1.280  0.7007 -1.6107  1.2518
 6594TIP3   OH219787   5.533   1.901   2.620 -0.2767 -0.8215  0.3964
 6594TIP3    H119788   5.568   1.938   2.701 -1.8362 -1.1068  1.2486
 6594TIP3    H219789   5.448   1.945   2.609 -0.1343 -0.8533 -1.0541
 6595TIP3   OH219790   2.075   1.023   4.165  0.1068  0.5084  0.0093
 6595TIP3    H119791   2.089   0.955   4.100  0.4172  0.5847 -0.0070
 6595TIP3    H219792   1.985   1.051   4.151 -0.1866 -0.2411  0.3470
 6596TIP3   OH219793   2.261   5.904   1.032 -0.1977  0.2569  0.1526
 6596TIP3    H119794   2.256   5.837   1.100 -1.3695  0.0255 -0.1350
 6596TIP3    H219795   2.317   5.866   0.964  0.4514  0.2293  0.6978
 6597TIP3   OH219796   4.119   4.053   0.200  0.2762 -0.1527 -0.3064
 6597TIP3    H119797   4.145   3.978   0.147  1.9280  0.3812 -0.3234
 6597TIP3    H219798   4.090   4.118   0.135 -0.0542 -0.3715 -0.3775
 6598TIP3   OH219799   2.658   2.592   3.711  0.4124  0.4682 -0.0392
 6598TIP3    H119800   2.726   2.526   3.724 -0.1911 -0.0360  0.5988
 6598TIP3    H219801   2.707   2.674   3.699  1.1334  0.1204  0.4272
 6599TIP3   OH219802   0.004   3.805   5.094 -0.3204 -0.2819  0.1546
 6599TIP3    H119803  -0.030   3.887   5.129 -1.3396  0.1743 -1.7369
 6599TIP3    H219804   0.099   3.815   5.097 -0.3811  0.1149  1.7765
 6600TIP3   OH219805   0.372   4.081   4.635 -0.0547  0.5988 -0.0963
 6600TIP3    H119806   0.399   4.109   4.723  0.0608  2.7914 -0.7867
 6600TIP3    H219807   0.278   4.064   4.644  0.2470 -0.8062  0.8007
 6601TIP3   OH219808   4.792   0.620   4.203  0.0476  0.3728 -0.9912
 6601TIP3    H119809   4.886   0.622   4.184  0.0485 -0.2681 -1.0816
 6601TIP3    H219810   4.777   0.534   4.242  0.1522  1.7998  2.5755
 6602TIP3   OH219811   5.716   0.848   3.484  0.3394 -0.0699 -0.3065
 6602TIP3    H119812   5.712   0.866   3.578  0.0244 -3.9805  0.5978
 6602TIP3    H219813   5.785   0.783   3.475  0.4846  0.3426 -2.8625
 6603TIP3   OH219814   2.747   5.700   2.739  0.5213  0.0554 -0.3180
 6603TIP3    H119815   2.694   5.681   2.816  0.1856  1.4510 -0.1710
 6603TIP3    H219816   2.837   5.682   2.766  0.2566 -1.0528 -0.1436
 6604TIP3   OH219817   3.654   2.295   3.922 -0.6131  0.1097 -0.0974
 6604TIP3    H119818   3.700   2.272   4.003  1.9396  0.3715 -1.3582
 6604TIP3    H219819   3.566   2.321   3.951 -0.1660 -0.8589  2.4440
 6605TIP3   OH219820   2.266   4.920   4.049 -0.2733 -0.0910 -0.6858
 6605TIP3    H119821   2.352   4.962   4.048 -0.5328  0.5791  0.9515
 6605TIP3    H219822   2.207   4.988   4.015 -0.0507 -0.9748 -3.0321
 6606TIP3   OH219823   0.276   3.310   0.455  0.0021 -0.3867  0.0841
 6606TIP3    H119824   0.267   3.269   0.369 -0.3876 -0.8572  0.3407
 6606TIP3    H219825   0.370   3.322   0.466  0.1594 -1.5046  0.1234
 6607TIP3   OH219826   4.538   5.136   3.436  0.5137  0.2473 -0.1493
 6607TIP3    H119827   4.602   5.105   3.500  1.6409  0.9232 -0.9083
 6607TIP3    H219828   4.487   5.202   3.482  0.3320 -0.3303  0.4794
 6608TIP3   OH219829   1.905   1.072   1.853  0.5844 -0.1906 -0.0141
 6608TIP3    H119830   1.836   1.108   1.798  2.1668  0.8669 -1.3779
 6608TIP3    H219831   1.905   1.127   1.931 -0.4736 -0.5825  0.2861
 6609TIP3   OH219832   2.447   5.608   2.382  0.4157  0.5707  0.0822
 6609TIP3    H119833   2.468   5.515   2.376 -0.9474  0.1875  0.9157
 6609TIP3    H219834   2.463   5.630   2.474  2.6539  1.6838 -0.5073
 6610TIP3   OH219835   0.290   4.995   2.686 -0.5763 -0.5171  0.7693
 6610TIP3    H119836   0.280   5.088   2.707 -0.0388 -0.4312  0.6717
 6610TIP3    H219837   0.384   4.979   2.698 -0.6733 -1.0500  0.7953
 6611TIP3   OH219838   5.510   2.787   0.594  0.1701  0.3338 -0.1110
 6611TIP3    H119839   5.418   2.814   0.595 -0.4378 -1.5672  0.6113
 6611TIP3    H219840   5.533   2.774   0.686  0.9915  0.2457 -0.3136
 6612TIP3   OH219841   0.694   3.147   4.694 -0.0467 -0.5604  0.4753
 6612TIP3    H119842   0.668   3.170   4.605  0.9341  0.2697  0.3832
 6612TIP3    H219843   0.789   3.149   4.693 -0.0132 -0.9000  1.4570
 6613TIP3   OH219844   0.974   4.225   0.268  0.0148 -0.9213  0.6948
 6613TIP3    H119845   1.053   4.174   0.248  0.3507  0.3155 -1.4474
 6613TIP3    H219846   0.906   4.186   0.211  0.3879  1.1756 -1.3255
 6614TIP3   OH219847   3.869   0.412   0.841  0.0729  0.2261  0.4820
 6614TIP3    H119848   3.905   0.437   0.756  0.4686  1.9465  1.1209
 6614TIP3    H219849   3.860   0.316   0.836  1.4575  0.1331 -0.9521
 6615TIP3   OH219850   5.336   2.340   2.673  0.8307  0.3872 -0.2462
 6615TIP3    H119851   5.310   2.333   2.765  0.2217 -0.8505 -0.4870
 6615TIP3    H219852   5.419   2.388   2.675  0.3493  1.2201  0.8529
 6616TIP3   OH219853   6.029   4.948   4.144 -0.3242 -0.7152  0.4841
 6616TIP3    H119854   5.951   4.955   4.090 -0.5748  1.3394  1.0334
 6616TIP3    H219855   6.088   5.015   4.110  0.4679 -0.9996  1.2459
 6617TIP3   OH219856   2.032   2.514   1.715 -0.3428 -0.2109 -0.3616
 6617TIP3    H119857   2.007   2.567   1.790  0.7194  0.8618 -0.7184
 6617TIP3    H219858   1.969   2.537   1.647 -0.1108  0.3389 -0.3987
 6618TIP3   OH219859   2.968   5.849   3.149  0.2001 -0.1874 -0.9287
 6618TIP3    H119860   2.914   5.897   3.212  1.3856 -0.6383  0.4988
 6618TIP3    H219861   3.040   5.909   3.129  0.3975 -0.4484 -1.0067
 6619TIP3   OH219862   5.309   2.658   1.975 -0.2174 -0.2736  0.3318
 6619TIP3    H119863   5.243   2.601   2.016 -0.3144  0.3506  1.0723
 6619TIP3    H219864   5.258   2.722   1.925 -0.1576 -0.1471  0.4312
 6620TIP3   OH219865   3.688   5.285   2.689 -0.1893  0.0593 -0.0779
 6620TIP3    H119866   3.645   5.238   2.618 -0.7222  0.1373  0.1877
 6620TIP3    H219867   3.616   5.320   2.742  0.1753  1.7616 -0.6470
 6621TIP3   OH219868   2.495   3.937   2.382  0.1263 -0.2333 -0.2067
 6621TIP3    H119869   2.571   3.881   2.371  1.4981  1.5838 -0.4465
 6621TIP3    H219870   2.462   3.951   2.292  0.0306 -0.3381 -0.1878
 6622TIP3   OH219871   2.419   4.172   3.616  0.3313 -0.0780  0.0380
 6622TIP3    H119872   2.382   4.227   3.548  2.1721  0.6556 -0.4387
 6622TIP3    H219873   2.464   4.102   3.569  0.7393 -0.1442  0.5111
 6623TIP3   OH219874   0.085   5.388   3.143 -0.1399  0.0552 -0.7239
 6623TIP3    H119875   0.007   5.378   3.199  0.0310  0.1273 -0.4744
 6623TIP3    H219876   0.119   5.299   3.134  0.3713  0.1613  0.0599
 6624TIP3   OH219877   5.886   3.734   2.501 -0.3775 -0.6007  0.8796
 6624TIP3    H119878   5.910   3.681   2.424  1.4867 -0.8213  1.5771
 6624TIP3    H219879   5.845   3.671   2.561  0.8198 -1.0563  1.2451
 6625TIP3   OH219880   0.186   2.580   5.172  0.3164 -0.0797 -0.5555
 6625TIP3    H119881   0.248   2.589   5.099 -0.3322 -0.3797 -1.1561
 6625TIP3    H219882   0.192   2.487   5.197 -0.3946 -0.2786 -1.0862
 6626TIP3   OH219883   4.586   4.745   3.668  0.0688 -0.1430 -0.0160
 6626TIP3    H119884   4.523   4.817   3.680 -1.1796 -1.3690  1.2574
 6626TIP3    H219885   4.638   4.745   3.748  1.0205  0.2142 -0.6251
 6627TIP3   OH219886   4.290   3.825   0.045 -0.6140 -0.0343  0.1666
 6627TIP3    H119887   4.357   3.865  -0.010 -0.8806 -0.6269 -0.6129
 6627TIP3    H219888   4.327   3.826   0.133 -0.6291  1.9356  0.1928
 6628TIP3   OH219889   1.200   2.802   4.631  0.2830  0.7552 -0.2990
 6628TIP3    H119890   1.184   2.712   4.658 -0.9958  1.1561  0.3828
 6628TIP3    H219891   1.227   2.847   4.711 -2.1485  1.6377  0.1306
 6629TIP3   OH219892   4.089   4.444   1.421  0.3979  0.3021  0.0863
 6629TIP3    H119893   4.009   4.412   1.465  0.5977  0.1695  0.3573
 6629TIP3    H219894   4.057   4.494   1.346  0.0646 -0.0208  0.0097
 6630TIP3   OH219895   0.961   3.254   4.833 -0.2491 -0.2026  0.4335
 6630TIP3    H119896   0.885   3.292   4.876 -1.4008  1.1977 -2.5970
 6630TIP3    H219897   0.944   3.160   4.832 -1.4548 -0.0014  0.6715
 6631TIP3   OH219898   0.992   5.147   3.372 -0.3714  0.1433 -0.2928
 6631TIP3    H119899   1.051   5.116   3.440 -0.9992 -0.5699 -0.0556
 6631TIP3    H219900   0.908   5.161   3.417 -0.3743  1.2257 -0.6007
 6632TIP3   OH219901   5.634   0.474   4.265  0.6860  0.0938  0.5133
 6632TIP3    H119902   5.653   0.394   4.314 -1.3665 -1.1953 -0.6478
 6632TIP3    H219903   5.685   0.466   4.185 -0.8540 -1.0077 -0.4182
 6633TIP3   OH219904   0.139   2.453   4.860 -0.7597 -0.0326  0.2793
 6633TIP3    H119905   0.089   2.425   4.936 -0.3892 -0.7090  0.2770
 6633TIP3    H219906   0.207   2.511   4.895 -1.4819  0.8358  0.2895
 6634TIP3   OH219907   1.369   1.285   0.215 -0.3643  0.4184 -0.5978
 6634TIP3    H119908   1.320   1.292   0.133 -1.5731  0.0942  0.0818
 6634TIP3    H219909   1.320   1.222   0.268  1.9009 -1.5559 -0.6529
 6635TIP3   OH219910   2.391   0.511   2.465  0.0441  0.6152 -0.0700
 6635TIP3    H119911   2.359   0.430   2.423  2.6074  0.5853 -2.1726
 6635TIP3    H219912   2.375   0.579   2.401  0.2054  1.3737  0.6796
 6636TIP3   OH219913   0.160   3.517   0.806 -0.0468 -0.2417  0.0836
 6636TIP3    H119914   0.117   3.451   0.752 -0.7567  0.6067 -0.4140
 6636TIP3    H219915   0.096   3.588   0.813  0.7070  0.4083  0.5804
 6637TIP3   OH219916   5.912   3.230   1.313 -0.4880 -0.2671 -0.5604
 6637TIP3    H119917   5.969   3.298   1.279  1.5095  0.4777  3.6386
 6637TIP3    H219918   5.970   3.157   1.334 -0.7669  0.4307  3.6472
 6638TIP3   OH219919   4.972   5.504   1.527 -0.3306 -0.9112  0.6684
 6638TIP3    H119920   4.973   5.420   1.572 -1.1644 -1.6767 -0.6638
 6638TIP3    H219921   5.059   5.541   1.542 -0.7921 -0.7260  3.5115
 6639TIP3   OH219922   4.734   3.759   3.720  0.2013 -0.4569  0.0876
 6639TIP3    H119923   4.733   3.669   3.687  2.5018  0.1221 -1.8937
 6639TIP3    H219924   4.648   3.794   3.696  1.2301 -0.4541 -4.6877
 6640TIP3   OH219925   5.623   3.836   3.746  0.0348  0.3177 -0.0306
 6640TIP3    H119926   5.643   3.798   3.661 -0.3456 -0.8000  0.3640
 6640TIP3    H219927   5.707   3.836   3.792  0.0590  0.0709 -0.0744
 6641TIP3   OH219928   4.238   3.342   0.665  0.0594  0.7897 -0.1145
 6641TIP3    H119929   4.160   3.325   0.718 -0.5203 -0.0879 -1.2120
 6641TIP3    H219930   4.214   3.314   0.577  1.1302  1.8760 -0.7819
 6642TIP3   OH219931   3.964   2.314   1.043  0.4891 -0.3655  0.1445
 6642TIP3    H119932   3.909   2.238   1.063  1.5763 -1.5109 -0.9733
 6642TIP3    H219933   3.962   2.368   1.122  0.6843 -2.1958  1.4602
 6643TIP3   OH219934   2.897   1.256   1.553  0.4679  0.1262  0.0210
 6643TIP3    H119935   2.933   1.174   1.587 -0.4130 -0.5403 -0.6273
 6643TIP3    H219936   2.839   1.288   1.623 -0.6043 -0.7575 -0.4406
 6644TIP3   OH219937   4.337   0.005   1.639 -0.5222  0.1653 -0.5043
 6644TIP3    H119938   4.411   0.026   1.582 -0.2217 -0.9569 -0.5548
 6644TIP3    H219939   4.259   0.024   1.587 -0.2506 -0.5807 -1.2007
 6645TIP3   OH219940   5.308   3.016   2.356  0.0071 -0.4939 -0.2931
 6645TIP3    H119941   5.270   3.038   2.441  0.7781 -0.4456  0.0413
 6645TIP3    H219942   5.402   3.025   2.368  0.1024 -0.0100 -1.2830
   6.35288   5.98956   5.18711   0.00000   0.00000  -2.11763   0.00000  -2.11763  -2.99478
