Title t= 193.00000 step= 96500
44463
    1GLY      N    1   2.635   3.274   4.141
    1GLY    HT1    2   2.597   3.225   4.225
    1GLY    HT2    3   2.603   3.373   4.146
    1GLY    HT3    4   2.739   3.269   4.146
    1GLY     CA    5   2.575   3.191   4.024
    1GLY    HA1    6   2.614   3.232   3.931
    1GLY    HA2    7   2.468   3.204   4.032
    1GLY      C    8   2.601   3.044   4.036
    1GLY      O    9   2.675   2.996   4.122
    2PRO      N   10   2.546   2.965   3.947
    2PRO     CD   11   2.432   3.011   3.865
    2PRO    HD1   12   2.474   3.082   3.791
    2PRO    HD2   13   2.350   3.068   3.915
    2PRO     CA   14   2.560   2.824   3.938
    2PRO     HA   15   2.511   2.790   4.028
    2PRO     CB   16   2.480   2.780   3.808
    2PRO    HB1   17   2.444   2.675   3.809
    2PRO    HB2   18   2.549   2.798   3.723
    2PRO     CG   19   2.369   2.883   3.802
    2PRO    HG1   20   2.339   2.904   3.698
    2PRO    HG2   21   2.272   2.858   3.849
    2PRO      C   22   2.699   2.760   3.941
    2PRO      O   23   2.783   2.798   3.857
    3GLY      N   24   2.711   2.662   4.032
    3GLY     HN   25   2.633   2.626   4.082
    3GLY     CA   26   2.834   2.594   4.068
    3GLY    HA1   27   2.803   2.520   4.141
    3GLY    HA2   28   2.888   2.672   4.120
    3GLY      C   29   2.926   2.515   3.981
    3GLY      O   30   2.887   2.481   3.870
    4ASP      N   31   3.044   2.484   4.027
    4ASP     HN   32   3.066   2.530   4.113
    4ASP     CA   33   3.130   2.377   3.970
    4ASP     HA   34   3.166   2.403   3.871
    4ASP     CB   35   3.255   2.359   4.064
    4ASP    HB1   36   3.306   2.265   4.032
    4ASP    HB2   37   3.227   2.353   4.171
    4ASP     CG   38   3.350   2.479   4.047
    4ASP    OD1   39   3.452   2.478   4.120
    4ASP    OD2   40   3.325   2.571   3.967
    4ASP      C   41   3.059   2.240   3.963
    4ASP      O   42   2.969   2.227   4.049
    5PRO      N   43   3.080   2.145   3.870
    5PRO     CD   44   3.171   2.165   3.757
    5PRO    HD1   45   3.271   2.135   3.792
    5PRO    HD2   46   3.169   2.272   3.727
    5PRO     CA   47   3.031   2.005   3.877
    5PRO     HA   48   2.923   1.998   3.877
    5PRO     CB   49   3.083   1.946   3.743
    5PRO    HB1   50   3.005   1.880   3.700
    5PRO    HB2   51   3.179   1.891   3.756
    5PRO     CG   52   3.111   2.072   3.656
    5PRO    HG1   53   3.179   2.045   3.572
    5PRO    HG2   54   3.019   2.113   3.609
    5PRO      C   55   3.073   1.928   4.002
    5PRO      O   56   3.191   1.927   4.041
    6GLY      N   57   2.979   1.850   4.061
    6GLY     HN   58   2.886   1.844   4.026
    6GLY     CA   59   2.985   1.792   4.192
    6GLY    HA1   60   2.905   1.720   4.198
    6GLY    HA2   61   2.962   1.874   4.258
    6GLY      C   62   3.111   1.722   4.230
    6GLY      O   63   3.182   1.666   4.142
    7PRO      N   64   3.157   1.707   4.360
    7PRO     CD   65   3.100   1.776   4.479
    7PRO    HD1   66   2.998   1.734   4.486
    7PRO    HD2   67   3.110   1.884   4.457
    7PRO     CA   68   3.281   1.642   4.390
    7PRO     HA   69   3.362   1.674   4.325
    7PRO     CB   70   3.320   1.690   4.529
    7PRO    HB1   71   3.385   1.780   4.517
    7PRO    HB2   72   3.387   1.624   4.588
    7PRO     CG   73   3.186   1.733   4.591
    7PRO    HG1   74   3.137   1.645   4.639
    7PRO    HG2   75   3.204   1.813   4.666
    7PRO      C   76   3.262   1.496   4.389
    7PRO      O   77   3.148   1.444   4.395
    8GLY      N   78   3.368   1.425   4.383
    8GLY     HN   79   3.453   1.474   4.401
    8GLY     CA   80   3.372   1.275   4.356
    8GLY    HA1   81   3.312   1.225   4.431
    8GLY    HA2   82   3.474   1.240   4.347
    8GLY      C   83   3.298   1.226   4.236
    8GLY      O   84   3.264   1.306   4.149
    9ASP      N   85   3.304   1.095   4.220
    9ASP     HN   86   3.343   1.040   4.293
    9ASP     CA   87   3.274   1.028   4.097
    9ASP     HA   88   3.358   1.067   4.042
    9ASP     CB   89   3.281   0.874   4.101
    9ASP    HB1   90   3.268   0.828   4.001
    9ASP    HB2   91   3.195   0.843   4.164
    9ASP     CG   92   3.406   0.816   4.167
    9ASP    OD1   93   3.513   0.877   4.179
    9ASP    OD2   94   3.391   0.703   4.216
    9ASP      C   95   3.141   1.075   4.027
    9ASP      O   96   3.034   1.080   4.092
   10PRO      N   97   3.148   1.120   3.898
   10PRO     CD   98   3.270   1.144   3.830
   10PRO    HD1   99   3.339   1.057   3.834
   10PRO    HD2  100   3.330   1.223   3.880
   10PRO     CA  101   3.032   1.139   3.808
   10PRO     HA  102   2.983   1.233   3.828
   10PRO     CB  103   3.097   1.140   3.667
   10PRO    HB1  104   3.045   1.215   3.604
   10PRO    HB2  105   3.099   1.042   3.614
   10PRO     CG  106   3.237   1.191   3.693
   10PRO    HG1  107   3.309   1.160   3.614
   10PRO    HG2  108   3.235   1.302   3.704
   10PRO      C  109   2.920   1.032   3.815
   10PRO      O  110   2.956   0.922   3.842
   11GLY      N  111   2.790   1.062   3.802
   11GLY     HN  112   2.766   1.145   3.753
   11GLY     CA  113   2.672   0.975   3.832
   11GLY    HA1  114   2.706   0.881   3.872
   11GLY    HA2  115   2.619   0.956   3.740
   11GLY      C  116   2.587   1.030   3.938
   11GLY      O  117   2.631   1.125   4.006
   12PRO      N  118   2.465   0.982   3.968
   12PRO     CD  119   2.402   0.875   3.886
   12PRO    HD1  120   2.470   0.792   3.856
   12PRO    HD2  121   2.348   0.914   3.798
   12PRO     CA  122   2.377   1.042   4.068
   12PRO     HA  123   2.372   1.144   4.036
   12PRO     CB  124   2.243   0.964   4.052
   12PRO    HB1  125   2.169   1.024   3.995
   12PRO    HB2  126   2.200   0.947   4.153
   12PRO     CG  127   2.287   0.834   3.976
   12PRO    HG1  128   2.320   0.755   4.047
   12PRO    HG2  129   2.206   0.789   3.917
   12PRO      C  130   2.432   1.060   4.208
   12PRO      O  131   2.496   0.967   4.264
   13GLY      N  132   2.406   1.179   4.262
   13GLY     HN  133   2.379   1.249   4.196
   13GLY     CA  134   2.416   1.226   4.397
   13GLY    HA1  135   2.401   1.333   4.391
   13GLY    HA2  136   2.513   1.202   4.437
   13GLY      C  137   2.314   1.184   4.491
   13GLY      O  138   2.208   1.142   4.453
   14ASP      N  139   2.353   1.204   4.620
   14ASP     HN  140   2.441   1.245   4.641
   14ASP     CA  141   2.268   1.179   4.740
   14ASP     HA  142   2.247   1.073   4.726
   14ASP     CB  143   2.334   1.206   4.878
   14ASP    HB1  144   2.264   1.197   4.964
   14ASP    HB2  145   2.364   1.313   4.876
   14ASP     CG  146   2.463   1.128   4.906
   14ASP    OD1  147   2.524   1.140   5.010
   14ASP    OD2  148   2.503   1.050   4.816
   14ASP      C  149   2.134   1.246   4.729
   14ASP      O  150   2.116   1.355   4.675
   15PRO      N  151   2.025   1.187   4.780
   15PRO     CD  152   2.017   1.045   4.802
   15PRO    HD1  153   2.079   1.027   4.892
   15PRO    HD2  154   2.057   0.997   4.710
   15PRO     CA  155   1.896   1.243   4.793
   15PRO     HA  156   1.862   1.273   4.695
   15PRO     CB  157   1.809   1.135   4.856
   15PRO    HB1  158   1.702   1.145   4.826
   15PRO    HB2  159   1.814   1.135   4.967
   15PRO     CG  160   1.867   1.009   4.813
   15PRO    HG1  161   1.853   0.923   4.882
   15PRO    HG2  162   1.825   0.980   4.714
   15PRO      C  163   1.898   1.369   4.884
   15PRO    OT1  164   1.985   1.375   4.969
   15PRO    OT2  165   1.799   1.444   4.881
   16LIT    LIT  166   1.884   1.519   5.059
   17LIT    LIT  167   2.011   1.887   5.810
   18LIT    LIT  168   3.122   6.401   2.407
   19LIT    LIT  169   5.464   5.015   1.426
   20LIT    LIT  170   1.804   5.667   3.248
   21LIT    LIT  171   0.063   2.453   2.806
   22LIT    LIT  172   0.298   1.040   4.563
   23LIT    LIT  173   1.240   1.788   3.390
   24LIT    LIT  174   1.142   0.948   5.293
   25LIT    LIT  175   5.253   0.132   5.064
   26LIT    LIT  176   7.505   2.487   1.835
   27LIT    LIT  177   0.679   3.406   5.917
   28LIT    LIT  178   5.416   1.019   5.107
   29LIT    LIT  179   2.664   5.050   0.722
   30LIT    LIT  180   3.432   3.749   0.248
   31LIT    LIT  181   6.528   5.774   5.848
   32LIT    LIT  182   4.402   4.731   0.544
   33LIT    LIT  183   7.723   2.291   1.213
   34LIT    LIT  184   4.909   7.057   3.211
   35LIT    LIT  185   1.602   3.441   0.254
   36LIT    LIT  186   3.721   0.425   4.244
   37LIT    LIT  187   0.161   6.442   1.598
   38LIT    LIT  188   4.907   7.313   3.999
   39LIT    LIT  189   8.259   7.194   3.129
   40LIT    LIT  190   0.778   0.508   1.214
   41LIT    LIT  191   1.721   7.010   4.272
   42LIT    LIT  192   6.254   0.743   0.638
   43LIT    LIT  193   5.736   2.841   0.475
   44LIT    LIT  194   6.755   2.398   5.069
   45LIT    LIT  195   7.667   6.055   3.874
   46LIT    LIT  196   7.026   5.437   1.426
   47LIT    LIT  197   0.465   5.153   1.941
   48LIT    LIT  198   6.156   3.709   4.028
   49LIT    LIT  199   2.409   5.973   0.328
   50LIT    LIT  200   7.676   0.807   4.162
   51LIT    LIT  201   2.205   0.150   4.311
   52LIT    LIT  202   7.311   6.231   0.704
   53LIT    LIT  203   0.304   3.211   2.559
   54LIT    LIT  204   1.112   3.376   2.273
   55LIT    LIT  205   1.157   0.377   2.914
   56LIT    LIT  206   4.173   6.676   1.968
   57LIT    LIT  207   6.080   4.245   2.805
   58LIT    LIT  208   2.628   0.976   4.933
   59LIT    LIT  209   0.880   6.542   5.129
   60LIT    LIT  210   3.283   5.218   5.145
   61CLA    CLA  211   0.522   5.064   4.450
   62CLA    CLA  212   1.730   4.770   5.187
   63CLA    CLA  213   1.559   1.453   2.690
   64CLA    CLA  214   4.807   3.215   1.563
   65CLA    CLA  215   4.368   7.794   3.134
   66CLA    CLA  216   5.340   7.772   3.792
   67CLA    CLA  217   1.083   1.182   5.684
   68CLA    CLA  218   3.677   7.424   4.796
   69CLA    CLA  219   1.788   2.137   5.486
   70CLA    CLA  220   4.848   7.281   5.012
   71CLA    CLA  221   0.732   5.307   6.141
   72CLA    CLA  222   2.887   5.805   0.881
   73CLA    CLA  223   7.953   3.471   0.553
   74CLA    CLA  224   8.015   6.418   3.838
   75CLA    CLA  225   7.247   0.511   4.414
   76CLA    CLA  226   4.735   1.898   0.998
   77CLA    CLA  227   3.334   4.850   4.351
   78CLA    CLA  228   3.936   4.889   0.800
   79CLA    CLA  229   0.028   6.033   0.103
   80CLA    CLA  230   8.054   4.977   1.756
   81CLA    CLA  231   5.518   6.338   5.690
   82CLA    CLA  232   0.678   0.189   6.097
   83CLA    CLA  233   7.593   0.962   6.532
   84CLA    CLA  234   2.486   0.531   0.614
   85CLA    CLA  235   3.283   6.102   5.920
   86CLA    CLA  236   7.126   3.446   3.728
   87CLA    CLA  237   3.314   6.746   2.149
   88CLA    CLA  238   4.405   6.028   0.904
   89CLA    CLA  239   6.819   4.441   4.573
   90CLA    CLA  240   7.931   6.842   5.957
   91CLA    CLA  241   3.204   3.001   1.799
   92CLA    CLA  242   7.641   7.368   5.168
   93CLA    CLA  243   4.032   1.275   4.989
   94CLA    CLA  244   1.896   2.502   6.456
   95CLA    CLA  245   2.818   6.077   4.441
   96CLA    CLA  246   0.451   1.109   2.627
   97CLA    CLA  247   6.137   2.008   4.117
   98CLA    CLA  248   1.328   6.034   3.395
   99CLA    CLA  249   7.594   2.367   1.389
  100CLA    CLA  250   1.105   4.569   3.946
  101CLA    CLA  251   8.163   2.563   2.836
  102CLA    CLA  252   0.245   0.569   4.648
  103TIP3   OH2  253   1.533   5.941   4.236
  103TIP3    H1  254   1.620   5.951   4.198
  103TIP3    H2  255   1.544   5.877   4.306
  104TIP3   OH2  256   6.003   5.747   6.131
  104TIP3    H1  257   5.944   5.695   6.075
  104TIP3    H2  258   5.983   5.838   6.109
  105TIP3   OH2  259   7.895   2.254   4.109
  105TIP3    H1  260   7.903   2.179   4.049
  105TIP3    H2  261   7.821   2.232   4.165
  106TIP3   OH2  262   5.081   4.930   0.459
  106TIP3    H1  263   5.083   4.834   0.457
  106TIP3    H2  264   5.043   4.955   0.375
  107TIP3   OH2  265   1.622   4.867   3.292
  107TIP3    H1  266   1.567   4.944   3.277
  107TIP3    H2  267   1.576   4.817   3.359
  108TIP3   OH2  268   0.755   5.156   1.439
  108TIP3    H1  269   0.705   5.102   1.501
  108TIP3    H2  270   0.812   5.095   1.394
  109TIP3   OH2  271   0.536   5.004   1.550
  109TIP3    H1  272   0.470   4.974   1.488
  109TIP3    H2  273   0.556   4.927   1.604
  110TIP3   OH2  274   6.549   6.074   4.146
  110TIP3    H1  275   6.596   6.039   4.222
  110TIP3    H2  276   6.460   6.088   4.178
  111TIP3   OH2  277   0.822   6.337   4.752
  111TIP3    H1  278   0.752   6.279   4.722
  111TIP3    H2  279   0.849   6.301   4.836
  112TIP3   OH2  280   1.903   3.633   4.968
  112TIP3    H1  281   1.846   3.574   5.017
  112TIP3    H2  282   1.967   3.664   5.032
  113TIP3   OH2  283   6.268   2.114   3.260
  113TIP3    H1  284   6.301   2.133   3.172
  113TIP3    H2  285   6.247   2.020   3.258
  114TIP3   OH2  286   1.549   0.039   2.873
  114TIP3    H1  287   1.629   0.092   2.879
  114TIP3    H2  288   1.534   0.030   2.779
  115TIP3   OH2  289   7.411   7.548   2.289
  115TIP3    H1  290   7.457   7.596   2.358
  115TIP3    H2  291   7.388   7.464   2.329
  116TIP3   OH2  292   1.387   2.468   5.671
  116TIP3    H1  293   1.424   2.518   5.745
  116TIP3    H2  294   1.367   2.382   5.708
  117TIP3   OH2  295   5.859   6.293   5.066
  117TIP3    H1  296   5.883   6.254   5.150
  117TIP3    H2  297   5.911   6.373   5.060
  118TIP3   OH2  298   5.451   0.257  -0.006
  118TIP3    H1  299   5.532   0.232  -0.051
  118TIP3    H2  300   5.475   0.262   0.086
  119TIP3   OH2  301   7.006   5.943   2.428
  119TIP3    H1  302   6.960   5.866   2.395
  119TIP3    H2  303   7.084   5.908   2.471
  120TIP3   OH2  304   4.482   1.992   2.327
  120TIP3    H1  305   4.475   2.087   2.318
  120TIP3    H2  306   4.418   1.957   2.265
  121TIP3   OH2  307   1.420   2.796   6.108
  121TIP3    H1  308   1.505   2.755   6.100
  121TIP3    H2  309   1.414   2.855   6.032
  122TIP3   OH2  310   5.894   7.533   5.734
  122TIP3    H1  311   5.946   7.575   5.802
  122TIP3    H2  312   5.948   7.459   5.705
  123TIP3   OH2  313   5.461   5.289   1.751
  123TIP3    H1  314   5.541   5.306   1.801
  123TIP3    H2  315   5.392   5.333   1.800
  124TIP3   OH2  316   8.234   7.764   4.831
  124TIP3    H1  317   8.166   7.825   4.861
  124TIP3    H2  318   8.193   7.678   4.838
  125TIP3   OH2  319   8.206   4.891   2.440
  125TIP3    H1  320   8.275   4.920   2.380
  125TIP3    H2  321   8.131   4.874   2.384
  126TIP3   OH2  322   3.418   0.880   1.667
  126TIP3    H1  323   3.327   0.857   1.682
  126TIP3    H2  324   3.440   0.942   1.737
  127TIP3   OH2  325   1.805   3.640   6.045
  127TIP3    H1  326   1.792   3.716   5.988
  127TIP3    H2  327   1.878   3.592   6.006
  128TIP3   OH2  328   5.544   7.008   4.875
  128TIP3    H1  329   5.497   7.088   4.896
  128TIP3    H2  330   5.636   7.034   4.872
  129TIP3   OH2  331   7.944   6.958   2.099
  129TIP3    H1  332   7.986   7.044   2.100
  129TIP3    H2  333   7.973   6.917   2.180
  130TIP3   OH2  334   0.661   0.369   3.308
  130TIP3    H1  335   0.714   0.434   3.261
  130TIP3    H2  336   0.615   0.322   3.238
  131TIP3   OH2  337   3.988   1.574   0.844
  131TIP3    H1  338   4.003   1.662   0.878
  131TIP3    H2  339   3.977   1.519   0.921
  132TIP3   OH2  340   3.152   4.892   5.709
  132TIP3    H1  341   3.196   4.809   5.688
  132TIP3    H2  342   3.190   4.955   5.648
  133TIP3   OH2  343   8.280   7.182   6.102
  133TIP3    H1  344   8.239   7.144   6.025
  133TIP3    H2  345   8.372   7.195   6.077
  134TIP3   OH2  346   3.346   0.871   3.555
  134TIP3    H1  347   3.395   0.798   3.515
  134TIP3    H2  348   3.267   0.830   3.589
  135TIP3   OH2  349   6.303   6.464   6.115
  135TIP3    H1  350   6.391   6.483   6.083
  135TIP3    H2  351   6.311   6.469   6.211
  136TIP3   OH2  352   0.930   3.470   2.223
  136TIP3    H1  353   0.868   3.540   2.244
  136TIP3    H2  354   0.926   3.462   2.128
  137TIP3   OH2  355   1.487   4.613   0.436
  137TIP3    H1  356   1.544   4.550   0.393
  137TIP3    H2  357   1.537   4.643   0.512
  138TIP3   OH2  358   1.131   4.277   6.080
  138TIP3    H1  359   1.087   4.300   5.998
  138TIP3    H2  360   1.079   4.205   6.116
  139TIP3   OH2  361   5.527   1.343   6.166
  139TIP3    H1  362   5.522   1.252   6.137
  139TIP3    H2  363   5.513   1.394   6.086
  140TIP3   OH2  364   1.368   7.715   1.031
  140TIP3    H1  365   1.345   7.626   1.058
  140TIP3    H2  366   1.332   7.771   1.100
  141TIP3   OH2  367   3.324   2.767   1.643
  141TIP3    H1  368   3.343   2.705   1.713
  141TIP3    H2  369   3.290   2.844   1.689
  142TIP3   OH2  370   4.171   4.636   3.333
  142TIP3    H1  371   4.112   4.711   3.333
  142TIP3    H2  372   4.205   4.632   3.243
  143TIP3   OH2  373   6.530   2.668   4.625
  143TIP3    H1  374   6.579   2.664   4.543
  143TIP3    H2  375   6.562   2.746   4.669
  144TIP3   OH2  376   1.877   6.559   1.896
  144TIP3    H1  377   1.962   6.585   1.861
  144TIP3    H2  378   1.847   6.636   1.944
  145TIP3   OH2  379   5.995   5.372   3.763
  145TIP3    H1  380   6.002   5.318   3.684
  145TIP3    H2  381   6.086   5.388   3.789
  146TIP3   OH2  382   5.998   3.639   2.570
  146TIP3    H1  383   5.976   3.677   2.485
  146TIP3    H2  384   5.920   3.653   2.624
  147TIP3   OH2  385   1.492   2.117   3.504
  147TIP3    H1  386   1.541   2.114   3.586
  147TIP3    H2  387   1.555   2.147   3.439
  148TIP3   OH2  388   6.986   3.851   3.667
  148TIP3    H1  389   6.916   3.909   3.696
  148TIP3    H2  390   7.062   3.880   3.718
  149TIP3   OH2  391   1.622   6.367   0.456
  149TIP3    H1  392   1.588   6.418   0.382
  149TIP3    H2  393   1.579   6.282   0.448
  150TIP3   OH2  394   4.833   6.561   2.453
  150TIP3    H1  395   4.864   6.603   2.373
  150TIP3    H2  396   4.904   6.502   2.478
  151TIP3   OH2  397   0.302   4.959   4.637
  151TIP3    H1  398   0.260   4.894   4.581
  151TIP3    H2  399   0.366   5.002   4.581
  152TIP3   OH2  400   1.771   7.326   5.805
  152TIP3    H1  401   1.829   7.250   5.817
  152TIP3    H2  402   1.767   7.366   5.892
  153TIP3   OH2  403   5.976   6.243   1.519
  153TIP3    H1  404   5.976   6.226   1.424
  153TIP3    H2  405   5.944   6.161   1.557
  154TIP3   OH2  406   5.589   7.350   3.800
  154TIP3    H1  407   5.498   7.322   3.801
  154TIP3    H2  408   5.587   7.439   3.766
  155TIP3   OH2  409   5.899   7.515   0.228
  155TIP3    H1  410   5.938   7.455   0.290
  155TIP3    H2  411   5.970   7.574   0.203
  156TIP3   OH2  412   1.055   4.025   2.824
  156TIP3    H1  413   1.057   4.086   2.750
  156TIP3    H2  414   0.962   4.014   2.843
  157TIP3   OH2  415   2.916   2.044   1.325
  157TIP3    H1  416   2.973   1.972   1.298
  157TIP3    H2  417   2.977   2.114   1.350
  158TIP3   OH2  418   4.227   0.415   0.212
  158TIP3    H1  419   4.318   0.389   0.193
  158TIP3    H2  420   4.198   0.459   0.132
  159TIP3   OH2  421   2.719   3.905   6.576
  159TIP3    H1  422   2.745   3.879   6.664
  159TIP3    H2  423   2.675   3.827   6.540
  160TIP3   OH2  424   3.361   4.091   1.790
  160TIP3    H1  425   3.335   4.143   1.867
  160TIP3    H2  426   3.427   4.031   1.824
  161TIP3   OH2  427   2.285   0.318   6.322
  161TIP3    H1  428   2.345   0.245   6.336
  161TIP3    H2  429   2.199   0.284   6.349
  162TIP3   OH2  430   8.244   3.450  -0.015
  162TIP3    H1  431   8.292   3.520  -0.058
  162TIP3    H2  432   8.281   3.446   0.074
  163TIP3   OH2  433   0.195   1.993   2.963
  163TIP3    H1  434   0.113   2.036   2.986
  163TIP3    H2  435   0.187   1.975   2.869
  164TIP3   OH2  436   6.373   5.942   0.813
  164TIP3    H1  437   6.351   5.869   0.755
  164TIP3    H2  438   6.288   5.974   0.844
  165TIP3   OH2  439   4.836   2.512   5.117
  165TIP3    H1  440   4.821   2.442   5.181
  165TIP3    H2  441   4.773   2.580   5.141
  166TIP3   OH2  442   5.454   6.452   1.276
  166TIP3    H1  443   5.441   6.380   1.215
  166TIP3    H2  444   5.531   6.428   1.327
  167TIP3   OH2  445   6.832   3.059   5.048
  167TIP3    H1  446   6.738   3.076   5.053
  167TIP3    H2  447   6.858   3.041   5.138
  168TIP3   OH2  448   7.804   4.042   1.587
  168TIP3    H1  449   7.753   4.018   1.509
  168TIP3    H2  450   7.894   4.021   1.563
  169TIP3   OH2  451   6.324   3.580   2.134
  169TIP3    H1  452   6.260   3.635   2.180
  169TIP3    H2  453   6.390   3.642   2.102
  170TIP3   OH2  454   7.771   3.709   6.068
  170TIP3    H1  455   7.863   3.691   6.087
  170TIP3    H2  456   7.725   3.633   6.102
  171TIP3   OH2  457   3.047   5.147   6.621
  171TIP3    H1  458   3.060   5.055   6.644
  171TIP3    H2  459   3.136   5.179   6.601
  172TIP3   OH2  460   6.200   2.440   2.496
  172TIP3    H1  461   6.176   2.503   2.563
  172TIP3    H2  462   6.288   2.464   2.470
  173TIP3   OH2  463   3.219   5.168   5.325
  173TIP3    H1  464   3.142   5.117   5.350
  173TIP3    H2  465   3.267   5.181   5.407
  174TIP3   OH2  466   6.396   4.000   3.898
  174TIP3    H1  467   6.413   3.999   3.992
  174TIP3    H2  468   6.409   4.091   3.872
  175TIP3   OH2  469   3.875   6.832   3.903
  175TIP3    H1  470   3.782   6.811   3.900
  175TIP3    H2  471   3.906   6.789   3.983
  176TIP3   OH2  472   4.505   5.896   4.705
  176TIP3    H1  473   4.522   5.861   4.793
  176TIP3    H2  474   4.589   5.929   4.676
  177TIP3   OH2  475   3.635   0.193   4.738
  177TIP3    H1  476   3.653   0.105   4.772
  177TIP3    H2  477   3.561   0.182   4.679
  178TIP3   OH2  478   7.717   0.376   3.594
  178TIP3    H1  479   7.726   0.468   3.616
  178TIP3    H2  480   7.774   0.330   3.656
  179TIP3   OH2  481   0.140   6.475   4.307
  179TIP3    H1  482   0.204   6.406   4.320
  179TIP3    H2  483   0.175   6.528   4.236
  180TIP3   OH2  484   6.116   7.580   4.182
  180TIP3    H1  485   6.197   7.553   4.138
  180TIP3    H2  486   6.057   7.505   4.172
  181TIP3   OH2  487   8.282   6.759   3.133
  181TIP3    H1  488   8.240   6.722   3.055
  181TIP3    H2  489   8.225   6.734   3.205
  182TIP3   OH2  490   6.310   2.940   6.450
  182TIP3    H1  491   6.402   2.963   6.464
  182TIP3    H2  492   6.313   2.858   6.402
  183TIP3   OH2  493   7.062   1.722   0.625
  183TIP3    H1  494   7.027   1.788   0.564
  183TIP3    H2  495   7.036   1.638   0.588
  184TIP3   OH2  496   8.103   7.185   2.087
  184TIP3    H1  497   8.081   7.275   2.060
  184TIP3    H2  498   8.123   7.192   2.180
  185TIP3   OH2  499   3.589   5.373   0.187
  185TIP3    H1  500   3.551   5.294   0.147
  185TIP3    H2  501   3.514   5.431   0.199
  186TIP3   OH2  502   7.486   0.549   5.629
  186TIP3    H1  503   7.547   0.536   5.701
  186TIP3    H2  504   7.500   0.474   5.571
  187TIP3   OH2  505   3.598   6.779   3.881
  187TIP3    H1  506   3.513   6.799   3.842
  187TIP3    H2  507   3.606   6.684   3.875
  188TIP3   OH2  508   3.924   2.191   4.889
  188TIP3    H1  509   3.948   2.100   4.907
  188TIP3    H2  510   3.864   2.215   4.960
  189TIP3   OH2  511   2.812   2.642   1.000
  189TIP3    H1  512   2.893   2.593   1.014
  189TIP3    H2  513   2.791   2.629   0.908
  190TIP3   OH2  514   2.783   7.224   0.940
  190TIP3    H1  515   2.725   7.156   0.907
  190TIP3    H2  516   2.856   7.175   0.979
  191TIP3   OH2  517   7.848   4.240   0.017
  191TIP3    H1  518   7.773   4.281  -0.025
  191TIP3    H2  519   7.866   4.294   0.094
  192TIP3   OH2  520   4.209   5.093   6.710
  192TIP3    H1  521   4.128   5.119   6.667
  192TIP3    H2  522   4.181   5.063   6.797
  193TIP3   OH2  523   6.600   6.168   0.168
  193TIP3    H1  524   6.685   6.211   0.157
  193TIP3    H2  525   6.544   6.209   0.102
  194TIP3   OH2  526   6.384   4.432   2.249
  194TIP3    H1  527   6.329   4.466   2.179
  194TIP3    H2  528   6.472   4.427   2.210
  195TIP3   OH2  529   6.640   7.312   1.061
  195TIP3    H1  530   6.611   7.335   0.973
  195TIP3    H2  531   6.605   7.224   1.075
  196TIP3   OH2  532   0.886   2.331   0.889
  196TIP3    H1  533   0.976   2.310   0.915
  196TIP3    H2  534   0.833   2.306   0.964
  197TIP3   OH2  535   1.514   0.176   1.003
  197TIP3    H1  536   1.441   0.120   1.030
  197TIP3    H2  537   1.474   0.262   0.992
  198TIP3   OH2  538   6.048   7.051   3.025
  198TIP3    H1  539   5.987   7.124   3.038
  198TIP3    H2  540   6.113   7.085   2.964
  199TIP3   OH2  541   3.751   3.553   0.980
  199TIP3    H1  542   3.835   3.508   0.986
  199TIP3    H2  543   3.686   3.488   1.007
  200TIP3   OH2  544   4.256   4.311   4.803
  200TIP3    H1  545   4.324   4.317   4.735
  200TIP3    H2  546   4.259   4.396   4.847
  201TIP3   OH2  547   0.159   5.742   6.374
  201TIP3    H1  548   0.247   5.729   6.410
  201TIP3    H2  549   0.101   5.698   6.436
  202TIP3   OH2  550   7.378   7.808   4.779
  202TIP3    H1  551   7.382   7.867   4.704
  202TIP3    H2  552   7.456   7.830   4.831
  203TIP3   OH2  553   0.959   5.360   2.195
  203TIP3    H1  554   1.010   5.356   2.275
  203TIP3    H2  555   1.023   5.377   2.126
  204TIP3   OH2  556   3.669   4.707   4.193
  204TIP3    H1  557   3.739   4.703   4.128
  204TIP3    H2  558   3.703   4.767   4.260
  205TIP3   OH2  559   1.751   5.396   2.223
  205TIP3    H1  560   1.755   5.390   2.128
  205TIP3    H2  561   1.733   5.307   2.252
  206TIP3   OH2  562   1.484   0.478   0.465
  206TIP3    H1  563   1.450   0.422   0.535
  206TIP3    H2  564   1.429   0.557   0.470
  207TIP3   OH2  565   3.659   5.678   6.637
  207TIP3    H1  566   3.639   5.745   6.702
  207TIP3    H2  567   3.641   5.719   6.553
  208TIP3   OH2  568   7.741   2.750   2.808
  208TIP3    H1  569   7.677   2.765   2.739
  208TIP3    H2  570   7.695   2.695   2.872
  209TIP3   OH2  571   3.632   4.376   2.328
  209TIP3    H1  572   3.597   4.287   2.327
  209TIP3    H2  573   3.661   4.390   2.418
  210TIP3   OH2  574   7.264   3.425   4.690
  210TIP3    H1  575   7.250   3.408   4.783
  210TIP3    H2  576   7.309   3.509   4.688
  211TIP3   OH2  577   7.850   4.448   0.200
  211TIP3    H1  578   7.874   4.539   0.215
  211TIP3    H2  579   7.761   4.440   0.232
  212TIP3   OH2  580   0.383   6.352   0.869
  212TIP3    H1  581   0.405   6.428   0.815
  212TIP3    H2  582   0.468   6.312   0.889
  213TIP3   OH2  583   5.238   5.949   1.757
  213TIP3    H1  584   5.280   5.887   1.698
  213TIP3    H2  585   5.154   5.909   1.778
  214TIP3   OH2  586   1.288   7.046   1.028
  214TIP3    H1  587   1.347   6.974   1.050
  214TIP3    H2  588   1.252   7.074   1.112
  215TIP3   OH2  589   7.545   5.407   2.291
  215TIP3    H1  590   7.474   5.469   2.270
  215TIP3    H2  591   7.624   5.449   2.257
  216TIP3   OH2  592   1.732   3.274   4.263
  216TIP3    H1  593   1.808   3.235   4.307
  216TIP3    H2  594   1.769   3.317   4.186
  217TIP3   OH2  595   1.893   5.828   4.639
  217TIP3    H1  596   1.920   5.844   4.730
  217TIP3    H2  597   1.973   5.839   4.588
  218TIP3   OH2  598   8.241   2.798   2.611
  218TIP3    H1  599   8.227   2.721   2.667
  218TIP3    H2  600   8.314   2.773   2.554
  219TIP3   OH2  601   3.138   3.924   2.883
  219TIP3    H1  602   3.083   4.000   2.902
  219TIP3    H2  603   3.227   3.959   2.881
  220TIP3   OH2  604   3.253   2.947   1.322
  220TIP3    H1  605   3.158   2.943   1.322
  220TIP3    H2  606   3.281   2.856   1.320
  221TIP3   OH2  607   7.021   1.182   1.515
  221TIP3    H1  608   7.082   1.231   1.570
  221TIP3    H2  609   7.046   1.091   1.526
  222TIP3   OH2  610   7.500   7.164   4.819
  222TIP3    H1  611   7.474   7.139   4.730
  222TIP3    H2  612   7.595   7.155   4.819
  223TIP3   OH2  613   6.362   7.492   5.174
  223TIP3    H1  614   6.316   7.495   5.258
  223TIP3    H2  615   6.320   7.420   5.127
  224TIP3   OH2  616   6.893   0.824   0.771
  224TIP3    H1  617   6.981   0.801   0.801
  224TIP3    H2  618   6.835   0.787   0.838
  225TIP3   OH2  619   5.823   2.109   3.773
  225TIP3    H1  620   5.773   2.124   3.693
  225TIP3    H2  621   5.760   2.074   3.835
  226TIP3   OH2  622   2.392   7.355   4.689
  226TIP3    H1  623   2.469   7.338   4.636
  226TIP3    H2  624   2.375   7.272   4.734
  227TIP3   OH2  625   2.767   1.794   2.024
  227TIP3    H1  626   2.739   1.712   1.984
  227TIP3    H2  627   2.687   1.834   2.056
  228TIP3   OH2  628   3.835   0.242   4.244
  228TIP3    H1  629   3.923   0.281   4.242
  228TIP3    H2  630   3.838   0.180   4.317
  229TIP3   OH2  631   0.928   1.949   3.554
  229TIP3    H1  632   0.918   2.002   3.474
  229TIP3    H2  633   0.999   1.888   3.533
  230TIP3   OH2  634   7.510   3.289   1.905
  230TIP3    H1  635   7.471   3.376   1.895
  230TIP3    H2  636   7.505   3.271   1.999
  231TIP3   OH2  637   4.361   3.877   5.146
  231TIP3    H1  638   4.396   3.934   5.078
  231TIP3    H2  639   4.402   3.907   5.227
  232TIP3   OH2  640   3.077   3.844   3.146
  232TIP3    H1  641   3.133   3.770   3.168
  232TIP3    H2  642   3.107   3.871   3.059
  233TIP3   OH2  643   3.612   2.903   6.087
  233TIP3    H1  644   3.636   2.904   5.995
  233TIP3    H2  645   3.533   2.849   6.091
  234TIP3   OH2  646   3.307   1.209   5.305
  234TIP3    H1  647   3.391   1.213   5.258
  234TIP3    H2  648   3.241   1.216   5.237
  235TIP3   OH2  649   3.545   1.533   1.669
  235TIP3    H1  650   3.597   1.549   1.747
  235TIP3    H2  651   3.555   1.439   1.652
  236TIP3   OH2  652   5.384   3.546   2.349
  236TIP3    H1  653   5.294   3.539   2.317
  236TIP3    H2  654   5.438   3.515   2.276
  237TIP3   OH2  655   4.893   6.429   4.147
  237TIP3    H1  656   4.949   6.506   4.158
  237TIP3    H2  657   4.953   6.360   4.120
  238TIP3   OH2  658   2.611   4.145   3.455
  238TIP3    H1  659   2.542   4.084   3.482
  238TIP3    H2  660   2.564   4.222   3.422
  239TIP3   OH2  661   6.050   6.772   2.643
  239TIP3    H1  662   6.025   6.767   2.735
  239TIP3    H2  663   6.088   6.859   2.633
  240TIP3   OH2  664   2.448   3.433   4.439
  240TIP3    H1  665   2.533   3.405   4.406
  240TIP3    H2  666   2.425   3.509   4.385
  241TIP3   OH2  667   8.098   5.579   0.031
  241TIP3    H1  668   8.108   5.486   0.053
  241TIP3    H2  669   8.068   5.578  -0.060
  242TIP3   OH2  670   4.546   7.721   2.907
  242TIP3    H1  671   4.530   7.805   2.863
  242TIP3    H2  672   4.473   7.712   2.968
  243TIP3   OH2  673   3.073   7.660   0.197
  243TIP3    H1  674   3.144   7.687   0.255
  243TIP3    H2  675   3.012   7.734   0.198
  244TIP3   OH2  676   2.599   1.427   1.743
  244TIP3    H1  677   2.608   1.522   1.745
  244TIP3    H2  678   2.683   1.394   1.776
  245TIP3   OH2  679   2.600   2.541   6.407
  245TIP3    H1  680   2.603   2.637   6.401
  245TIP3    H2  681   2.581   2.512   6.318
  246TIP3   OH2  682   6.794   5.410   5.176
  246TIP3    H1  683   6.701   5.388   5.167
  246TIP3    H2  684   6.807   5.486   5.120
  247TIP3   OH2  685   7.930   1.538   1.090
  247TIP3    H1  686   7.871   1.494   1.152
  247TIP3    H2  687   8.010   1.485   1.092
  248TIP3   OH2  688   2.620   1.330   2.490
  248TIP3    H1  689   2.603   1.290   2.405
  248TIP3    H2  690   2.583   1.268   2.553
  249TIP3   OH2  691   1.506   1.918   4.107
  249TIP3    H1  692   1.547   1.832   4.101
  249TIP3    H2  693   1.455   1.914   4.188
  250TIP3   OH2  694   3.196   1.698   5.850
  250TIP3    H1  695   3.103   1.680   5.836
  250TIP3    H2  696   3.222   1.640   5.922
  251TIP3   OH2  697   2.468   2.844   4.741
  251TIP3    H1  698   2.513   2.924   4.769
  251TIP3    H2  699   2.518   2.813   4.666
  252TIP3   OH2  700   7.960   4.423   2.522
  252TIP3    H1  701   8.005   4.366   2.585
  252TIP3    H2  702   7.880   4.375   2.499
  253TIP3   OH2  703   2.375   2.907   0.463
  253TIP3    H1  704   2.463   2.944   0.452
  253TIP3    H2  705   2.385   2.841   0.531
  254TIP3   OH2  706   2.760   4.972   5.339
  254TIP3    H1  707   2.734   5.064   5.332
  254TIP3    H2  708   2.792   4.949   5.252
  255TIP3   OH2  709   5.851   1.013   3.465
  255TIP3    H1  710   5.844   1.078   3.534
  255TIP3    H2  711   5.944   0.989   3.463
  256TIP3   OH2  712   5.663   5.131   1.988
  256TIP3    H1  713   5.568   5.128   1.976
  256TIP3    H2  714   5.692   5.206   1.936
  257TIP3   OH2  715   1.942   1.230   2.517
  257TIP3    H1  716   1.920   1.137   2.509
  257TIP3    H2  717   1.923   1.251   2.608
  258TIP3   OH2  718   7.810   7.675   5.980
  258TIP3    H1  719   7.895   7.659   5.939
  258TIP3    H2  720   7.809   7.616   6.056
  259TIP3   OH2  721   5.241   7.132   6.322
  259TIP3    H1  722   5.215   7.178   6.402
  259TIP3    H2  723   5.304   7.066   6.352
  260TIP3   OH2  724   3.025   2.524   6.603
  260TIP3    H1  725   3.066   2.528   6.516
  260TIP3    H2  726   2.950   2.583   6.597
  261TIP3   OH2  727   7.214   3.419   4.971
  261TIP3    H1  728   7.238   3.334   5.009
  261TIP3    H2  729   7.124   3.434   5.000
  262TIP3   OH2  730   2.684   4.676   0.552
  262TIP3    H1  731   2.752   4.643   0.494
  262TIP3    H2  732   2.621   4.718   0.493
  263TIP3   OH2  733   4.986   1.802   1.812
  263TIP3    H1  734   4.940   1.791   1.895
  263TIP3    H2  735   5.079   1.789   1.834
  264TIP3   OH2  736   2.704   1.629   6.768
  264TIP3    H1  737   2.666   1.545   6.793
  264TIP3    H2  738   2.687   1.636   6.674
  265TIP3   OH2  739   1.668   7.335   5.542
  265TIP3    H1  740   1.708   7.327   5.629
  265TIP3    H2  741   1.743   7.346   5.483
  266TIP3   OH2  742   4.054   4.765   1.862
  266TIP3    H1  743   4.091   4.821   1.931
  266TIP3    H2  744   4.123   4.700   1.844
  267TIP3   OH2  745   0.067   0.771   3.165
  267TIP3    H1  746   0.105   0.752   3.251
  267TIP3    H2  747   0.093   0.696   3.111
  268TIP3   OH2  748   6.173   3.370   4.827
  268TIP3    H1  749   6.261   3.356   4.862
  268TIP3    H2  750   6.136   3.281   4.821
  269TIP3   OH2  751   6.368   6.545   3.448
  269TIP3    H1  752   6.284   6.524   3.407
  269TIP3    H2  753   6.373   6.641   3.445
  270TIP3   OH2  754   7.587   2.839   3.245
  270TIP3    H1  755   7.621   2.853   3.156
  270TIP3    H2  756   7.500   2.802   3.232
  271TIP3   OH2  757   1.994   7.527   5.706
  271TIP3    H1  758   1.982   7.434   5.725
  271TIP3    H2  759   1.942   7.572   5.772
  272TIP3   OH2  760   6.096   0.427   6.441
  272TIP3    H1  761   6.029   0.363   6.417
  272TIP3    H2  762   6.050   0.511   6.441
  273TIP3   OH2  763   3.129   5.979   3.718
  273TIP3    H1  764   3.087   5.904   3.676
  273TIP3    H2  765   3.064   6.050   3.712
  274TIP3   OH2  766   6.816   1.731   4.446
  274TIP3    H1  767   6.726   1.747   4.475
  274TIP3    H2  768   6.814   1.644   4.408
  275TIP3   OH2  769   4.968   6.031   5.666
  275TIP3    H1  770   5.051   6.078   5.674
  275TIP3    H2  771   4.902   6.101   5.659
  276TIP3   OH2  772   4.092   5.726   4.639
  276TIP3    H1  773   4.091   5.654   4.702
  276TIP3    H2  774   4.142   5.693   4.565
  277TIP3   OH2  775   3.709   2.055   6.226
  277TIP3    H1  776   3.694   2.008   6.309
  277TIP3    H2  777   3.796   2.027   6.199
  278TIP3   OH2  778   6.993   6.029   2.782
  278TIP3    H1  779   7.077   6.066   2.754
  278TIP3    H2  780   7.003   5.935   2.765
  279TIP3   OH2  781   2.984   2.962   0.087
  279TIP3    H1  782   3.059   2.909   0.117
  279TIP3    H2  783   3.015   3.003   0.006
  280TIP3   OH2  784   3.723   7.021   2.463
  280TIP3    H1  785   3.778   6.990   2.391
  280TIP3    H2  786   3.651   6.958   2.466
  281TIP3   OH2  787   4.515   1.154   5.112
  281TIP3    H1  788   4.592   1.149   5.169
  281TIP3    H2  789   4.478   1.066   5.114
  282TIP3   OH2  790   1.413   0.857   1.493
  282TIP3    H1  791   1.391   0.767   1.470
  282TIP3    H2  792   1.441   0.897   1.410
  283TIP3   OH2  793   4.851   4.015   1.689
  283TIP3    H1  794   4.758   4.021   1.710
  283TIP3    H2  795   4.891   3.979   1.769
  284TIP3   OH2  796   1.998   1.729   5.904
  284TIP3    H1  797   2.031   1.736   5.993
  284TIP3    H2  798   1.956   1.644   5.900
  285TIP3   OH2  799   5.677   0.290   5.107
  285TIP3    H1  800   5.686   0.381   5.134
  285TIP3    H2  801   5.683   0.292   5.012
  286TIP3   OH2  802   2.379   1.937   4.122
  286TIP3    H1  803   2.455   1.924   4.178
  286TIP3    H2  804   2.336   1.851   4.119
  287TIP3   OH2  805   2.198   0.962   5.187
  287TIP3    H1  806   2.293   0.966   5.192
  287TIP3    H2  807   2.170   1.051   5.167
  288TIP3   OH2  808   4.718   6.350   1.088
  288TIP3    H1  809   4.690   6.414   1.154
  288TIP3    H2  810   4.692   6.266   1.124
  289TIP3   OH2  811   1.836   6.111   5.861
  289TIP3    H1  812   1.920   6.069   5.878
  289TIP3    H2  813   1.851   6.203   5.884
  290TIP3   OH2  814   8.119   3.040   2.787
  290TIP3    H1  815   8.070   3.015   2.866
  290TIP3    H2  816   8.166   2.961   2.763
  291TIP3   OH2  817   0.580   4.754   3.075
  291TIP3    H1  818   0.587   4.847   3.052
  291TIP3    H2  819   0.571   4.755   3.171
  292TIP3   OH2  820   3.919   3.783   6.561
  292TIP3    H1  821   3.941   3.815   6.648
  292TIP3    H2  822   3.841   3.833   6.537
  293TIP3   OH2  823   8.100   3.063   5.074
  293TIP3    H1  824   8.035   3.026   5.014
  293TIP3    H2  825   8.097   3.157   5.059
  294TIP3   OH2  826   6.179   0.855   4.468
  294TIP3    H1  827   6.135   0.917   4.409
  294TIP3    H2  828   6.271   0.858   4.441
  295TIP3   OH2  829   3.460   6.500   3.212
  295TIP3    H1  830   3.397   6.548   3.158
  295TIP3    H2  831   3.428   6.409   3.211
  296TIP3   OH2  832   5.007   3.114   1.778
  296TIP3    H1  833   4.979   3.177   1.844
  296TIP3    H2  834   4.935   3.113   1.714
  297TIP3   OH2  835   6.836   6.321   0.170
  297TIP3    H1  836   6.888   6.395   0.202
  297TIP3    H2  837   6.881   6.293   0.090
  298TIP3   OH2  838   0.676   2.327   2.090
  298TIP3    H1  839   0.584   2.336   2.066
  298TIP3    H2  840   0.710   2.262   2.029
  299TIP3   OH2  841   7.057   5.035   4.535
  299TIP3    H1  842   7.113   5.084   4.596
  299TIP3    H2  843   6.969   5.041   4.572
  300TIP3   OH2  844   3.362   3.089   0.093
  300TIP3    H1  845   3.371   3.126   0.181
  300TIP3    H2  846   3.302   3.015   0.104
  301TIP3   OH2  847   7.379   4.630   6.398
  301TIP3    H1  848   7.413   4.678   6.322
  301TIP3    H2  849   7.355   4.544   6.363
  302TIP3   OH2  850   3.548   4.693   1.541
  302TIP3    H1  851   3.574   4.654   1.458
  302TIP3    H2  852   3.624   4.680   1.599
  303TIP3   OH2  853   4.929   3.687   3.997
  303TIP3    H1  854   4.905   3.597   3.972
  303TIP3    H2  855   4.901   3.741   3.923
  304TIP3   OH2  856   5.600   5.499   4.250
  304TIP3    H1  857   5.562   5.489   4.337
  304TIP3    H2  858   5.583   5.415   4.207
  305TIP3   OH2  859   1.325   5.394   3.137
  305TIP3    H1  860   1.389   5.465   3.125
  305TIP3    H2  861   1.323   5.380   3.232
  306TIP3   OH2  862   2.787   4.137   4.894
  306TIP3    H1  863   2.778   4.084   4.814
  306TIP3    H2  864   2.734   4.215   4.877
  307TIP3   OH2  865   1.793   6.169   5.589
  307TIP3    H1  866   1.699   6.160   5.573
  307TIP3    H2  867   1.802   6.172   5.684
  308TIP3   OH2  868   8.170   0.044   5.472
  308TIP3    H1  869   8.118   0.001   5.540
  308TIP3    H2  870   8.260   0.022   5.494
  309TIP3   OH2  871   3.194   4.244   3.663
  309TIP3    H1  872   3.170   4.225   3.572
  309TIP3    H2  873   3.183   4.161   3.709
  310TIP3   OH2  874   1.615   7.418   2.922
  310TIP3    H1  875   1.649   7.385   3.005
  310TIP3    H2  876   1.522   7.432   2.938
  311TIP3   OH2  877   6.176   5.193   6.381
  311TIP3    H1  878   6.107   5.136   6.416
  311TIP3    H2  879   6.165   5.276   6.427
  312TIP3   OH2  880   7.777   3.763   3.615
  312TIP3    H1  881   7.781   3.763   3.711
  312TIP3    H2  882   7.687   3.788   3.594
  313TIP3   OH2  883   3.726   1.490   2.494
  313TIP3    H1  884   3.794   1.441   2.540
  313TIP3    H2  885   3.676   1.533   2.563
  314TIP3   OH2  886   8.133   7.641   1.925
  314TIP3    H1  887   8.144   7.696   1.848
  314TIP3    H2  888   8.138   7.701   1.999
  315TIP3   OH2  889   6.415   5.921   5.936
  315TIP3    H1  890   6.445   5.995   5.990
  315TIP3    H2  891   6.346   5.958   5.881
  316TIP3   OH2  892   5.768   4.288   4.223
  316TIP3    H1  893   5.800   4.377   4.238
  316TIP3    H2  894   5.762   4.280   4.128
  317TIP3   OH2  895   0.730   5.440   5.342
  317TIP3    H1  896   0.750   5.348   5.330
  317TIP3    H2  897   0.747   5.480   5.256
  318TIP3   OH2  898   2.018   4.806   5.982
  318TIP3    H1  899   2.033   4.884   6.036
  318TIP3    H2  900   1.951   4.757   6.029
  319TIP3   OH2  901   7.381   1.527   5.631
  319TIP3    H1  902   7.379   1.587   5.706
  319TIP3    H2  903   7.329   1.452   5.659
  320TIP3   OH2  904   3.516   1.734   1.088
  320TIP3    H1  905   3.466   1.747   1.007
  320TIP3    H2  906   3.517   1.639   1.100
  321TIP3   OH2  907   5.858   0.452   3.932
  321TIP3    H1  908   5.854   0.488   4.021
  321TIP3    H2  909   5.774   0.408   3.921
  322TIP3   OH2  910   4.764   0.482   1.187
  322TIP3    H1  911   4.803   0.570   1.188
  322TIP3    H2  912   4.704   0.483   1.112
  323TIP3   OH2  913   4.771   0.444   0.564
  323TIP3    H1  914   4.842   0.412   0.620
  323TIP3    H2  915   4.816   0.478   0.486
  324TIP3   OH2  916   5.652   4.388   1.993
  324TIP3    H1  917   5.604   4.406   1.912
  324TIP3    H2  918   5.688   4.300   1.980
  325TIP3   OH2  919   7.919   0.923   5.142
  325TIP3    H1  920   7.998   0.871   5.130
  325TIP3    H2  921   7.943   1.010   5.110
  326TIP3   OH2  922   7.275   7.415   5.602
  326TIP3    H1  923   7.289   7.469   5.680
  326TIP3    H2  924   7.210   7.463   5.551
  327TIP3   OH2  925   0.402   0.026   0.539
  327TIP3    H1  926   0.340   0.020   0.466
  327TIP3    H2  927   0.395   0.116   0.569
  328TIP3   OH2  928   1.901   0.811   0.931
  328TIP3    H1  929   1.892   0.771   1.018
  328TIP3    H2  930   1.853   0.753   0.873
  329TIP3   OH2  931   6.439   6.733   6.403
  329TIP3    H1  932   6.497   6.736   6.327
  329TIP3    H2  933   6.354   6.709   6.367
  330TIP3   OH2  934   4.987   6.347   6.758
  330TIP3    H1  935   4.993   6.268   6.704
  330TIP3    H2  936   4.976   6.314   6.848
  331TIP3   OH2  937   0.480   4.329   3.503
  331TIP3    H1  938   0.554   4.272   3.480
  331TIP3    H2  939   0.472   4.319   3.598
  332TIP3   OH2  940   3.201   2.659   3.289
  332TIP3    H1  941   3.139   2.597   3.250
  332TIP3    H2  942   3.268   2.670   3.221
  333TIP3   OH2  943   6.170   1.667   3.987
  333TIP3    H1  944   6.180   1.758   4.015
  333TIP3    H2  945   6.260   1.634   3.980
  334TIP3   OH2  946   3.264   4.316   0.602
  334TIP3    H1  947   3.317   4.312   0.682
  334TIP3    H2  948   3.202   4.387   0.618
  335TIP3   OH2  949   2.647   4.319   5.587
  335TIP3    H1  950   2.663   4.342   5.496
  335TIP3    H2  951   2.556   4.345   5.603
  336TIP3   OH2  952   0.670   5.986   0.835
  336TIP3    H1  953   0.647   5.989   0.742
  336TIP3    H2  954   0.608   6.046   0.877
  337TIP3   OH2  955   1.766   6.874   3.798
  337TIP3    H1  956   1.787   6.819   3.723
  337TIP3    H2  957   1.821   6.842   3.869
  338TIP3   OH2  958   4.171   2.847   0.244
  338TIP3    H1  959   4.141   2.938   0.253
  338TIP3    H2  960   4.208   2.843   0.156
  339TIP3   OH2  961   6.279   3.320   4.440
  339TIP3    H1  962   6.199   3.368   4.459
  339TIP3    H2  963   6.349   3.383   4.461
  340TIP3   OH2  964   5.881   5.443   3.167
  340TIP3    H1  965   5.865   5.537   3.159
  340TIP3    H2  966   5.945   5.435   3.238
  341TIP3   OH2  967   2.624   1.143   6.335
  341TIP3    H1  968   2.703   1.090   6.326
  341TIP3    H2  969   2.644   1.204   6.406
  342TIP3   OH2  970   4.551   7.268   0.889
  342TIP3    H1  971   4.645   7.290   0.893
  342TIP3    H2  972   4.507   7.350   0.912
  343TIP3   OH2  973   3.614   3.291   1.037
  343TIP3    H1  974   3.545   3.233   1.070
  343TIP3    H2  975   3.650   3.244   0.962
  344TIP3   OH2  976   1.150   5.376   2.386
  344TIP3    H1  977   1.185   5.460   2.356
  344TIP3    H2  978   1.179   5.369   2.477
  345TIP3   OH2  979   6.607   1.800   0.043
  345TIP3    H1  980   6.535   1.863   0.036
  345TIP3    H2  981   6.682   1.846   0.007
  346TIP3   OH2  982   7.679   7.734   6.574
  346TIP3    H1  983   7.610   7.795   6.598
  346TIP3    H2  984   7.759   7.773   6.609
  347TIP3   OH2  985   1.891   4.000   5.063
  347TIP3    H1  986   1.922   4.025   4.976
  347TIP3    H2  987   1.811   4.052   5.076
  348TIP3   OH2  988   4.209   5.311   1.859
  348TIP3    H1  989   4.280   5.371   1.834
  348TIP3    H2  990   4.231   5.283   1.947
  349TIP3   OH2  991   5.941   1.376   3.333
  349TIP3    H1  992   5.964   1.285   3.317
  349TIP3    H2  993   5.913   1.409   3.247
  350TIP3   OH2  994   3.800   6.043   2.918
  350TIP3    H1  995   3.720   6.037   2.970
  350TIP3    H2  996   3.865   5.995   2.970
  351TIP3   OH2  997   6.656   7.062   2.626
  351TIP3    H1  998   6.617   7.038   2.542
  351TIP3    H2  999   6.677   6.978   2.668
  352TIP3   OH2 1000   1.640   1.827   3.126
  352TIP3    H1 1001   1.587   1.751   3.102
  352TIP3    H2 1002   1.592   1.867   3.198
  353TIP3   OH2 1003   6.753   5.573   5.735
  353TIP3    H1 1004   6.757   5.493   5.682
  353TIP3    H2 1005   6.794   5.548   5.818
  354TIP3   OH2 1006   8.088   2.224   4.553
  354TIP3    H1 1007   8.149   2.205   4.482
  354TIP3    H2 1008   8.009   2.174   4.531
  355TIP3   OH2 1009   0.945   7.075   4.651
  355TIP3    H1 1010   0.885   7.024   4.596
  355TIP3    H2 1011   0.931   7.165   4.624
  356TIP3   OH2 1012   0.986   0.662   0.815
  356TIP3    H1 1013   1.057   0.709   0.857
  356TIP3    H2 1014   0.968   0.588   0.873
  357TIP3   OH2 1015   1.368   6.052   1.573
  357TIP3    H1 1016   1.458   6.080   1.554
  357TIP3    H2 1017   1.327   6.129   1.613
  358TIP3   OH2 1018   3.125   7.387   0.164
  358TIP3    H1 1019   3.060   7.338   0.214
  358TIP3    H2 1020   3.112   7.478   0.192
  359TIP3   OH2 1021   5.485   7.527   3.528
  359TIP3    H1 1022   5.500   7.443   3.484
  359TIP3    H2 1023   5.571   7.550   3.563
  360TIP3   OH2 1024   4.987   0.284   3.402
  360TIP3    H1 1025   4.929   0.359   3.413
  360TIP3    H2 1026   4.946   0.214   3.453
  361TIP3   OH2 1027   2.827   4.379   2.727
  361TIP3    H1 1028   2.733   4.366   2.712
  361TIP3    H2 1029   2.837   4.381   2.822
  362TIP3   OH2 1030   2.943   3.880   2.262
  362TIP3    H1 1031   3.032   3.848   2.280
  362TIP3    H2 1032   2.923   3.845   2.175
  363TIP3   OH2 1033   2.886   0.467   1.556
  363TIP3    H1 1034   2.883   0.417   1.474
  363TIP3    H2 1035   2.831   0.544   1.539
  364TIP3   OH2 1036   6.038   4.564   3.083
  364TIP3    H1 1037   6.061   4.652   3.056
  364TIP3    H2 1038   6.121   4.516   3.083
  365TIP3   OH2 1039   0.193   6.744   2.828
  365TIP3    H1 1040   0.139   6.728   2.906
  365TIP3    H2 1041   0.157   6.685   2.762
  366TIP3   OH2 1042   2.700   7.727   4.754
  366TIP3    H1 1043   2.732   7.717   4.844
  366TIP3    H2 1044   2.635   7.797   4.760
  367TIP3   OH2 1045   2.994   6.251   5.925
  367TIP3    H1 1046   2.956   6.189   5.863
  367TIP3    H2 1047   3.083   6.218   5.942
  368TIP3   OH2 1048   0.127   3.060   0.503
  368TIP3    H1 1049   0.038   3.030   0.521
  368TIP3    H2 1050   0.123   3.097   0.415
  369TIP3   OH2 1051   0.364   3.511   1.237
  369TIP3    H1 1052   0.344   3.572   1.166
  369TIP3    H2 1053   0.281   3.468   1.256
  370TIP3   OH2 1054   2.335   5.523   3.548
  370TIP3    H1 1055   2.270   5.486   3.607
  370TIP3    H2 1056   2.325   5.472   3.467
  371TIP3   OH2 1057   7.818   4.676   2.522
  371TIP3    H1 1058   7.871   4.706   2.448
  371TIP3    H2 1059   7.857   4.592   2.547
  372TIP3   OH2 1060   0.410   7.310   4.823
  372TIP3    H1 1061   0.381   7.273   4.906
  372TIP3    H2 1062   0.337   7.296   4.763
  373TIP3   OH2 1063   8.048   5.877   0.037
  373TIP3    H1 1064   8.071   5.784   0.029
  373TIP3    H2 1065   8.132   5.921   0.051
  374TIP3   OH2 1066   5.268   4.066   6.243
  374TIP3    H1 1067   5.316   4.148   6.230
  374TIP3    H2 1068   5.242   4.068   6.335
  375TIP3   OH2 1069   5.494   0.556   6.531
  375TIP3    H1 1070   5.523   0.493   6.597
  375TIP3    H2 1071   5.416   0.597   6.569
  376TIP3   OH2 1072   7.975   1.687   5.080
  376TIP3    H1 1073   7.913   1.626   5.121
  376TIP3    H2 1074   8.004   1.643   5.001
  377TIP3   OH2 1075   2.513   7.355   3.387
  377TIP3    H1 1076   2.554   7.433   3.349
  377TIP3    H2 1077   2.576   7.324   3.453
  378TIP3   OH2 1078   3.595   1.025   1.516
  378TIP3    H1 1079   3.589   0.973   1.436
  378TIP3    H2 1080   3.526   0.990   1.572
  379TIP3   OH2 1081   0.045   0.682   1.461
  379TIP3    H1 1082   0.041   0.761   1.515
  379TIP3    H2 1083   0.107   0.704   1.391
  380TIP3   OH2 1084   1.792   6.763   4.479
  380TIP3    H1 1085   1.773   6.732   4.567
  380TIP3    H2 1086   1.778   6.686   4.423
  381TIP3   OH2 1087   0.935   4.729   4.887
  381TIP3    H1 1088   0.888   4.680   4.820
  381TIP3    H2 1089   1.025   4.697   4.882
  382TIP3   OH2 1090   5.669   4.650   1.710
  382TIP3    H1 1091   5.599   4.590   1.737
  382TIP3    H2 1092   5.655   4.729   1.762
  383TIP3   OH2 1093   2.433   4.177   6.794
  383TIP3    H1 1094   2.493   4.203   6.725
  383TIP3    H2 1095   2.393   4.259   6.824
  384TIP3   OH2 1096   6.168   5.090   4.608
  384TIP3    H1 1097   6.147   5.037   4.531
  384TIP3    H2 1098   6.260   5.070   4.626
  385TIP3   OH2 1099   2.459   4.429   0.056
  385TIP3    H1 1100   2.505   4.345   0.062
  385TIP3    H2 1101   2.391   4.414  -0.010
  386TIP3   OH2 1102   4.350   2.463   1.732
  386TIP3    H1 1103   4.313   2.376   1.744
  386TIP3    H2 1104   4.407   2.454   1.656
  387TIP3   OH2 1105   5.154   6.289   1.361
  387TIP3    H1 1106   5.131   6.247   1.278
  387TIP3    H2 1107   5.226   6.236   1.396
  388TIP3   OH2 1108   6.363   5.133   2.557
  388TIP3    H1 1109   6.426   5.174   2.497
  388TIP3    H2 1110   6.308   5.205   2.588
  389TIP3   OH2 1111   3.721   1.655   6.770
  389TIP3    H1 1112   3.801   1.689   6.731
  389TIP3    H2 1113   3.715   1.699   6.855
  390TIP3   OH2 1114   7.213   5.608   5.115
  390TIP3    H1 1115   7.188   5.543   5.048
  390TIP3    H2 1116   7.192   5.692   5.075
  391TIP3   OH2 1117   3.483   3.364   5.510
  391TIP3    H1 1118   3.565   3.388   5.468
  391TIP3    H2 1119   3.509   3.310   5.584
  392TIP3   OH2 1120   1.618   3.175   1.153
  392TIP3    H1 1121   1.570   3.092   1.147
  392TIP3    H2 1122   1.701   3.159   1.110
  393TIP3   OH2 1123   2.890   1.625   3.765
  393TIP3    H1 1124   2.836   1.548   3.782
  393TIP3    H2 1125   2.844   1.697   3.809
  394TIP3   OH2 1126   6.406   6.958   5.168
  394TIP3    H1 1127   6.380   7.015   5.240
  394TIP3    H2 1128   6.369   6.872   5.191
  395TIP3   OH2 1129   3.258   4.638   1.499
  395TIP3    H1 1130   3.277   4.551   1.464
  395TIP3    H2 1131   3.344   4.680   1.509
  396TIP3   OH2 1132   8.014   0.725   2.854
  396TIP3    H1 1133   7.964   0.806   2.867
  396TIP3    H2 1134   8.097   0.741   2.899
  397TIP3   OH2 1135   2.822   6.252   4.194
  397TIP3    H1 1136   2.831   6.200   4.273
  397TIP3    H2 1137   2.728   6.247   4.173
  398TIP3   OH2 1138   6.570   1.622   3.804
  398TIP3    H1 1139   6.571   1.569   3.724
  398TIP3    H2 1140   6.662   1.642   3.820
  399TIP3   OH2 1141   1.696   5.792   1.976
  399TIP3    H1 1142   1.766   5.795   2.042
  399TIP3    H2 1143   1.660   5.880   1.975
  400TIP3   OH2 1144   6.543   6.162   1.224
  400TIP3    H1 1145   6.482   6.146   1.295
  400TIP3    H2 1146   6.610   6.218   1.262
  401TIP3   OH2 1147   1.988   0.281   5.599
  401TIP3    H1 1148   2.036   0.218   5.654
  401TIP3    H2 1149   1.926   0.227   5.550
  402TIP3   OH2 1150   5.795   5.612   6.629
  402TIP3    H1 1151   5.880   5.623   6.586
  402TIP3    H2 1152   5.734   5.662   6.574
  403TIP3   OH2 1153   0.622   5.723   3.856
  403TIP3    H1 1154   0.572   5.758   3.930
  403TIP3    H2 1155   0.625   5.628   3.872
  404TIP3   OH2 1156   5.191   4.728   4.558
  404TIP3    H1 1157   5.271   4.754   4.603
  404TIP3    H2 1158   5.153   4.810   4.527
  405TIP3   OH2 1159   0.998   5.939   2.259
  405TIP3    H1 1160   0.952   5.855   2.247
  405TIP3    H2 1161   1.034   5.934   2.347
  406TIP3   OH2 1162   7.284   3.735   4.580
  406TIP3    H1 1163   7.302   3.709   4.671
  406TIP3    H2 1164   7.370   3.753   4.542
  407TIP3   OH2 1165   4.728   6.807   4.716
  407TIP3    H1 1166   4.748   6.894   4.751
  407TIP3    H2 1167   4.793   6.749   4.756
  408TIP3   OH2 1168   3.683   1.562   2.952
  408TIP3    H1 1169   3.624   1.565   2.876
  408TIP3    H2 1170   3.688   1.469   2.974
  409TIP3   OH2 1171   3.641   6.821   6.400
  409TIP3    H1 1172   3.680   6.908   6.413
  409TIP3    H2 1173   3.659   6.774   6.481
  410TIP3   OH2 1174   5.296   0.487   2.772
  410TIP3    H1 1175   5.315   0.435   2.851
  410TIP3    H2 1176   5.234   0.434   2.723
  411TIP3   OH2 1177   5.260   4.767   3.095
  411TIP3    H1 1178   5.300   4.693   3.140
  411TIP3    H2 1179   5.183   4.730   3.052
  412TIP3   OH2 1180   4.289   6.922   6.633
  412TIP3    H1 1181   4.366   6.914   6.578
  412TIP3    H2 1182   4.238   6.843   6.615
  413TIP3   OH2 1183   4.346   0.195   2.664
  413TIP3    H1 1184   4.318   0.208   2.754
  413TIP3    H2 1185   4.313   0.272   2.617
  414TIP3   OH2 1186   3.395   4.665   0.278
  414TIP3    H1 1187   3.488   4.685   0.290
  414TIP3    H2 1188   3.370   4.620   0.359
  415TIP3   OH2 1189   2.444   1.633   5.930
  415TIP3    H1 1190   2.353   1.603   5.933
  415TIP3    H2 1191   2.496   1.554   5.915
  416TIP3   OH2 1192   4.338   1.859   4.588
  416TIP3    H1 1193   4.276   1.807   4.535
  416TIP3    H2 1194   4.419   1.809   4.585
  417TIP3   OH2 1195   6.316   5.207   5.902
  417TIP3    H1 1196   6.324   5.198   5.997
  417TIP3    H2 1197   6.270   5.291   5.890
  418TIP3   OH2 1198   5.597   4.039   4.004
  418TIP3    H1 1199   5.552   4.035   4.088
  418TIP3    H2 1200   5.597   4.132   3.981
  419TIP3   OH2 1201   7.929   7.200   1.768
  419TIP3    H1 1202   8.012   7.243   1.790
  419TIP3    H2 1203   7.871   7.221   1.840
  420TIP3   OH2 1204   7.142   3.308   1.480
  420TIP3    H1 1205   7.164   3.218   1.501
  420TIP3    H2 1206   7.191   3.327   1.400
  421TIP3   OH2 1207   7.487   1.411   0.664
  421TIP3    H1 1208   7.529   1.496   0.669
  421TIP3    H2 1209   7.521   1.371   0.584
  422TIP3   OH2 1210   6.184   5.365   0.970
  422TIP3    H1 1211   6.183   5.310   1.049
  422TIP3    H2 1212   6.091   5.387   0.956
  423TIP3   OH2 1213   2.855   3.740   0.958
  423TIP3    H1 1214   2.824   3.693   1.036
  423TIP3    H2 1215   2.929   3.689   0.927
  424TIP3   OH2 1216   5.890   6.550   6.132
  424TIP3    H1 1217   5.873   6.498   6.211
  424TIP3    H2 1218   5.983   6.573   6.137
  425TIP3   OH2 1219   7.837   4.149   5.942
  425TIP3    H1 1220   7.870   4.228   5.987
  425TIP3    H2 1221   7.791   4.183   5.865
  426TIP3   OH2 1222   6.125   4.122   3.208
  426TIP3    H1 1223   6.093   4.115   3.118
  426TIP3    H2 1224   6.077   4.054   3.255
  427TIP3   OH2 1225   0.334   6.691   6.300
  427TIP3    H1 1226   0.410   6.744   6.278
  427TIP3    H2 1227   0.272   6.708   6.229
  428TIP3   OH2 1228   0.397   6.445   4.593
  428TIP3    H1 1229   0.365   6.449   4.683
  428TIP3    H2 1230   0.419   6.536   4.571
  429TIP3   OH2 1231   7.219   7.043   1.268
  429TIP3    H1 1232   7.290   7.051   1.204
  429TIP3    H2 1233   7.231   6.956   1.306
  430TIP3   OH2 1234   0.156   3.788   3.259
  430TIP3    H1 1235   0.251   3.790   3.259
  430TIP3    H2 1236   0.132   3.774   3.350
  431TIP3   OH2 1237   0.566   5.998   0.566
  431TIP3    H1 1238   0.656   6.017   0.539
  431TIP3    H2 1239   0.519   6.081   0.553
  432TIP3   OH2 1240   5.661   6.734   4.876
  432TIP3    H1 1241   5.622   6.821   4.879
  432TIP3    H2 1242   5.636   6.693   4.959
  433TIP3   OH2 1243   2.860   3.131   5.649
  433TIP3    H1 1244   2.945   3.176   5.657
  433TIP3    H2 1245   2.881   3.048   5.608
  434TIP3   OH2 1246   7.042   6.445   0.512
  434TIP3    H1 1247   6.949   6.455   0.492
  434TIP3    H2 1248   7.045   6.371   0.573
  435TIP3   OH2 1249   2.170   2.491   3.990
  435TIP3    H1 1250   2.185   2.396   3.982
  435TIP3    H2 1251   2.115   2.513   3.915
  436TIP3   OH2 1252   3.178   5.226   3.903
  436TIP3    H1 1253   3.096   5.275   3.910
  436TIP3    H2 1254   3.167   5.151   3.961
  437TIP3   OH2 1255   0.104   5.177   5.794
  437TIP3    H1 1256   0.095   5.254   5.851
  437TIP3    H2 1257   0.062   5.203   5.712
  438TIP3   OH2 1258   4.991   4.521   1.263
  438TIP3    H1 1259   5.056   4.525   1.193
  438TIP3    H2 1260   5.043   4.530   1.344
  439TIP3   OH2 1261   6.819   0.327   5.287
  439TIP3    H1 1262   6.842   0.308   5.378
  439TIP3    H2 1263   6.723   0.331   5.287
  440TIP3   OH2 1264   7.622   6.592   5.363
  440TIP3    H1 1265   7.637   6.505   5.399
  440TIP3    H2 1266   7.612   6.648   5.440
  441TIP3   OH2 1267   4.148   0.708   5.368
  441TIP3    H1 1268   4.150   0.792   5.322
  441TIP3    H2 1269   4.058   0.699   5.398
  442TIP3   OH2 1270   5.454   3.993   6.611
  442TIP3    H1 1271   5.361   3.974   6.616
  442TIP3    H2 1272   5.459   4.077   6.566
  443TIP3   OH2 1273   0.348   1.623   4.936
  443TIP3    H1 1274   0.407   1.604   4.863
  443TIP3    H2 1275   0.379   1.705   4.972
  444TIP3   OH2 1276   5.002   7.210   2.155
  444TIP3    H1 1277   5.011   7.119   2.183
  444TIP3    H2 1278   5.063   7.219   2.081
  445TIP3   OH2 1279   3.251   6.115   1.107
  445TIP3    H1 1280   3.206   6.191   1.069
  445TIP3    H2 1281   3.344   6.138   1.100
  446TIP3   OH2 1282   5.193   1.011   5.929
  446TIP3    H1 1283   5.130   1.005   5.858
  446TIP3    H2 1284   5.253   1.081   5.903
  447TIP3   OH2 1285   0.932   3.131   6.658
  447TIP3    H1 1286   0.838   3.119   6.668
  447TIP3    H2 1287   0.970   3.056   6.703
  448TIP3   OH2 1288   1.159   3.429   0.771
  448TIP3    H1 1289   1.183   3.385   0.853
  448TIP3    H2 1290   1.172   3.363   0.703
  449TIP3   OH2 1291   0.011   1.352   3.241
  449TIP3    H1 1292   0.057   1.304   3.309
  449TIP3    H2 1293  -0.060   1.397   3.287
  450TIP3   OH2 1294   5.918   6.199   5.303
  450TIP3    H1 1295   5.931   6.109   5.272
  450TIP3    H2 1296   5.873   6.190   5.386
  451TIP3   OH2 1297   6.768   3.273   3.617
  451TIP3    H1 1298   6.853   3.250   3.580
  451TIP3    H2 1299   6.704   3.228   3.562
  452TIP3   OH2 1300   0.207   4.097   0.855
  452TIP3    H1 1301   0.137   4.162   0.854
  452TIP3    H2 1302   0.169   4.022   0.902
  453TIP3   OH2 1303   3.548   7.650   6.414
  453TIP3    H1 1304   3.597   7.619   6.491
  453TIP3    H2 1305   3.505   7.730   6.444
  454TIP3   OH2 1306   0.497   3.376   6.700
  454TIP3    H1 1307   0.477   3.440   6.632
  454TIP3    H2 1308   0.454   3.410   6.779
  455TIP3   OH2 1309   1.184   6.932   5.052
  455TIP3    H1 1310   1.270   6.905   5.086
  455TIP3    H2 1311   1.126   6.927   5.128
  456TIP3   OH2 1312   7.994   2.394   0.042
  456TIP3    H1 1313   8.087   2.372   0.031
  456TIP3    H2 1314   7.952   2.310   0.056
  457TIP3   OH2 1315   1.926   7.301   4.469
  457TIP3    H1 1316   1.860   7.257   4.416
  457TIP3    H2 1317   2.008   7.284   4.423
  458TIP3   OH2 1318   3.861   3.512   6.511
  458TIP3    H1 1319   3.883   3.468   6.593
  458TIP3    H2 1320   3.891   3.602   6.523
  459TIP3   OH2 1321   6.839   5.150   2.024
  459TIP3    H1 1322   6.926   5.129   1.992
  459TIP3    H2 1323   6.782   5.085   1.983
  460TIP3   OH2 1324   5.787   4.047   2.377
  460TIP3    H1 1325   5.861   4.106   2.393
  460TIP3    H2 1326   5.714   4.106   2.355
  461TIP3   OH2 1327   4.196   3.859   6.141
  461TIP3    H1 1328   4.193   3.796   6.069
  461TIP3    H2 1329   4.165   3.809   6.217
  462TIP3   OH2 1330   0.081   3.190   1.432
  462TIP3    H1 1331   0.026   3.133   1.377
  462TIP3    H2 1332   0.160   3.204   1.380
  463TIP3   OH2 1333   4.458   3.419   0.851
  463TIP3    H1 1334   4.450   3.395   0.943
  463TIP3    H2 1335   4.434   3.340   0.802
  464TIP3   OH2 1336   2.866   1.489   5.161
  464TIP3    H1 1337   2.857   1.529   5.248
  464TIP3    H2 1338   2.808   1.413   5.165
  465TIP3   OH2 1339   0.895   2.247   4.826
  465TIP3    H1 1340   0.883   2.172   4.768
  465TIP3    H2 1341   0.826   2.239   4.892
  466TIP3   OH2 1342   7.360   3.789   0.421
  466TIP3    H1 1343   7.313   3.865   0.454
  466TIP3    H2 1344   7.439   3.825   0.380
  467TIP3   OH2 1345   2.351   4.331   1.597
  467TIP3    H1 1346   2.294   4.404   1.574
  467TIP3    H2 1347   2.413   4.324   1.524
  468TIP3   OH2 1348   0.761   3.972   3.873
  468TIP3    H1 1349   0.787   3.972   3.965
  468TIP3    H2 1350   0.710   3.891   3.863
  469TIP3   OH2 1351   2.996   7.255   3.832
  469TIP3    H1 1352   3.032   7.287   3.914
  469TIP3    H2 1353   3.043   7.305   3.765
  470TIP3   OH2 1354   0.337   1.943   6.049
  470TIP3    H1 1355   0.410   1.945   6.111
  470TIP3    H2 1356   0.367   1.885   5.978
  471TIP3   OH2 1357   7.830   7.478   6.164
  471TIP3    H1 1358   7.774   7.404   6.186
  471TIP3    H2 1359   7.852   7.518   6.248
  472TIP3   OH2 1360   6.109   0.114   5.989
  472TIP3    H1 1361   6.200   0.142   5.992
  472TIP3    H2 1362   6.084   0.104   6.081
  473TIP3   OH2 1363   6.808   2.331   5.753
  473TIP3    H1 1364   6.894   2.314   5.792
  473TIP3    H2 1365   6.822   2.320   5.659
  474TIP3   OH2 1366   4.540   3.917   2.975
  474TIP3    H1 1367   4.538   3.915   3.071
  474TIP3    H2 1368   4.595   3.842   2.951
  475TIP3   OH2 1369   8.203   0.396   6.222
  475TIP3    H1 1370   8.260   0.431   6.290
  475TIP3    H2 1371   8.192   0.468   6.159
  476TIP3   OH2 1372   3.383   1.752   0.841
  476TIP3    H1 1373   3.372   1.696   0.764
  476TIP3    H2 1374   3.386   1.841   0.805
  477TIP3   OH2 1375   2.911   3.684   4.763
  477TIP3    H1 1376   2.990   3.631   4.769
  477TIP3    H2 1377   2.879   3.670   4.674
  478TIP3   OH2 1378   0.953   2.863   6.729
  478TIP3    H1 1379   1.035   2.851   6.776
  478TIP3    H2 1380   0.893   2.800   6.769
  479TIP3   OH2 1381   7.494   0.817   2.712
  479TIP3    H1 1382   7.412   0.842   2.670
  479TIP3    H2 1383   7.553   0.799   2.639
  480TIP3   OH2 1384   0.043   6.593   4.899
  480TIP3    H1 1385   0.046   6.663   4.834
  480TIP3    H2 1386  -0.047   6.595   4.932
  481TIP3   OH2 1387   7.669   3.337   5.222
  481TIP3    H1 1388   7.613   3.409   5.251
  481TIP3    H2 1389   7.701   3.298   5.304
  482TIP3   OH2 1390   6.358   5.248   3.123
  482TIP3    H1 1391   6.284   5.206   3.167
  482TIP3    H2 1392   6.317   5.314   3.066
  483TIP3   OH2 1393   0.816   0.331   2.100
  483TIP3    H1 1394   0.853   0.395   2.040
  483TIP3    H2 1395   0.892   0.287   2.139
  484TIP3   OH2 1396   0.195   6.806   3.423
  484TIP3    H1 1397   0.269   6.745   3.414
  484TIP3    H2 1398   0.119   6.749   3.432
  485TIP3   OH2 1399   0.709   5.555   5.971
  485TIP3    H1 1400   0.671   5.525   5.889
  485TIP3    H2 1401   0.719   5.476   6.024
  486TIP3   OH2 1402   1.472   3.565   2.120
  486TIP3    H1 1403   1.437   3.620   2.050
  486TIP3    H2 1404   1.564   3.552   2.097
  487TIP3   OH2 1405   3.198   2.693   0.407
  487TIP3    H1 1406   3.281   2.648   0.424
  487TIP3    H2 1407   3.160   2.708   0.493
  488TIP3   OH2 1408   5.208   4.606   4.173
  488TIP3    H1 1409   5.116   4.585   4.188
  488TIP3    H2 1410   5.242   4.532   4.124
  489TIP3   OH2 1411   1.785   7.041   4.535
  489TIP3    H1 1412   1.786   6.946   4.527
  489TIP3    H2 1413   1.842   7.061   4.608
  490TIP3   OH2 1414   1.668   7.231   5.127
  490TIP3    H1 1415   1.742   7.276   5.087
  490TIP3    H2 1416   1.664   7.147   5.082
  491TIP3   OH2 1417   0.598   4.223   5.122
  491TIP3    H1 1418   0.675   4.167   5.114
  491TIP3    H2 1419   0.529   4.175   5.077
  492TIP3   OH2 1420   7.981   1.660   2.800
  492TIP3    H1 1421   7.888   1.684   2.805
  492TIP3    H2 1422   8.027   1.737   2.834
  493TIP3   OH2 1423   4.096   7.096   6.580
  493TIP3    H1 1424   4.048   7.070   6.659
  493TIP3    H2 1425   4.178   7.046   6.584
  494TIP3   OH2 1426   5.639   3.941   1.560
  494TIP3    H1 1427   5.554   3.934   1.604
  494TIP3    H2 1428   5.694   3.987   1.624
  495TIP3   OH2 1429   2.702   4.810   3.836
  495TIP3    H1 1430   2.713   4.894   3.791
  495TIP3    H2 1431   2.774   4.757   3.804
  496TIP3   OH2 1432   2.393   4.029   1.538
  496TIP3    H1 1433   2.414   4.123   1.544
  496TIP3    H2 1434   2.366   4.005   1.627
  497TIP3   OH2 1435   0.284   3.631   0.952
  497TIP3    H1 1436   0.298   3.536   0.962
  497TIP3    H2 1437   0.272   3.643   0.858
  498TIP3   OH2 1438   3.477   6.456   0.864
  498TIP3    H1 1439   3.515   6.394   0.801
  498TIP3    H2 1440   3.524   6.438   0.946
  499TIP3   OH2 1441   7.548   7.234   1.224
  499TIP3    H1 1442   7.521   7.194   1.306
  499TIP3    H2 1443   7.515   7.324   1.229
  500TIP3   OH2 1444   4.772   4.114   3.731
  500TIP3    H1 1445   4.709   4.077   3.670
  500TIP3    H2 1446   4.725   4.182   3.778
  501TIP3   OH2 1447   1.354   3.745   5.509
  501TIP3    H1 1448   1.402   3.680   5.560
  501TIP3    H2 1449   1.413   3.770   5.439
  502TIP3   OH2 1450   6.262   5.381   2.641
  502TIP3    H1 1451   6.247   5.445   2.571
  502TIP3    H2 1452   6.174   5.357   2.671
  503TIP3   OH2 1453   3.552   5.711   4.712
  503TIP3    H1 1454   3.536   5.800   4.680
  503TIP3    H2 1455   3.647   5.700   4.702
  504TIP3   OH2 1456   3.231   5.406   1.874
  504TIP3    H1 1457   3.244   5.315   1.901
  504TIP3    H2 1458   3.192   5.449   1.950
  505TIP3   OH2 1459   0.115   7.082   2.681
  505TIP3    H1 1460   0.023   7.053   2.679
  505TIP3    H2 1461   0.111   7.174   2.653
  506TIP3   OH2 1462   7.674   2.646   0.397
  506TIP3    H1 1463   7.749   2.640   0.338
  506TIP3    H2 1464   7.660   2.556   0.427
  507TIP3   OH2 1465   2.296   6.086   3.634
  507TIP3    H1 1466   2.289   5.992   3.618
  507TIP3    H2 1467   2.389   6.101   3.652
  508TIP3   OH2 1468   5.527   3.622   3.915
  508TIP3    H1 1469   5.543   3.682   3.988
  508TIP3    H2 1470   5.434   3.603   3.920
  509TIP3   OH2 1471   4.578   3.381   0.339
  509TIP3    H1 1472   4.533   3.299   0.361
  509TIP3    H2 1473   4.658   3.380   0.392
  510TIP3   OH2 1474   3.549   2.142   0.752
  510TIP3    H1 1475   3.605   2.089   0.696
  510TIP3    H2 1476   3.472   2.087   0.768
  511TIP3   OH2 1477   6.535   5.281   3.660
  511TIP3    H1 1478   6.500   5.322   3.582
  511TIP3    H2 1479   6.473   5.303   3.729
  512TIP3   OH2 1480   3.038   6.805   1.274
  512TIP3    H1 1481   2.971   6.822   1.340
  512TIP3    H2 1482   3.003   6.731   1.224
  513TIP3   OH2 1483   8.205   1.378   5.219
  513TIP3    H1 1484   8.132   1.316   5.227
  513TIP3    H2 1485   8.262   1.356   5.293
  514TIP3   OH2 1486   2.551   2.072   5.948
  514TIP3    H1 1487   2.624   2.134   5.941
  514TIP3    H2 1488   2.477   2.117   5.907
  515TIP3   OH2 1489   4.218   7.170   1.422
  515TIP3    H1 1490   4.153   7.208   1.481
  515TIP3    H2 1491   4.168   7.113   1.363
  516TIP3   OH2 1492   5.747   4.647   6.467
  516TIP3    H1 1493   5.817   4.696   6.510
  516TIP3    H2 1494   5.669   4.702   6.479
  517TIP3   OH2 1495   4.901   3.340   0.804
  517TIP3    H1 1496   4.863   3.349   0.891
  517TIP3    H2 1497   4.839   3.285   0.757
  518TIP3   OH2 1498   5.353   5.900   5.145
  518TIP3    H1 1499   5.330   5.905   5.052
  518TIP3    H2 1500   5.282   5.947   5.190
  519TIP3   OH2 1501   3.107   0.045   4.931
  519TIP3    H1 1502   3.125   0.133   4.963
  519TIP3    H2 1503   3.154  -0.012   4.993
  520TIP3   OH2 1504   5.474   1.346   6.544
  520TIP3    H1 1505   5.532   1.417   6.517
  520TIP3    H2 1506   5.401   1.390   6.588
  521TIP3   OH2 1507   2.111   6.560   3.597
  521TIP3    H1 1508   2.172   6.519   3.658
  521TIP3    H2 1509   2.167   6.601   3.531
  522TIP3   OH2 1510   0.679   4.125   4.805
  522TIP3    H1 1511   0.681   4.166   4.718
  522TIP3    H2 1512   0.742   4.175   4.856
  523TIP3   OH2 1513   4.855   6.969   4.472
  523TIP3    H1 1514   4.842   6.946   4.564
  523TIP3    H2 1515   4.886   6.888   4.432
  524TIP3   OH2 1516   5.583   2.766   5.400
  524TIP3    H1 1517   5.511   2.760   5.462
  524TIP3    H2 1518   5.563   2.843   5.347
  525TIP3   OH2 1519   0.563   0.153   3.431
  525TIP3    H1 1520   0.603   0.239   3.418
  525TIP3    H2 1521   0.637   0.095   3.453
  526TIP3   OH2 1522   2.273   0.582   1.618
  526TIP3    H1 1523   2.335   0.650   1.590
  526TIP3    H2 1524   2.241   0.543   1.537
  527TIP3   OH2 1525   6.634   3.370   0.738
  527TIP3    H1 1526   6.622   3.425   0.661
  527TIP3    H2 1527   6.722   3.390   0.769
  528TIP3   OH2 1528   1.494   3.526   5.558
  528TIP3    H1 1529   1.483   3.522   5.463
  528TIP3    H2 1530   1.479   3.437   5.588
  529TIP3   OH2 1531   3.563   2.784   1.817
  529TIP3    H1 1532   3.544   2.797   1.724
  529TIP3    H2 1533   3.581   2.872   1.850
  530TIP3   OH2 1534   1.523   3.006   3.975
  530TIP3    H1 1535   1.445   3.058   3.996
  530TIP3    H2 1536   1.497   2.954   3.898
  531TIP3   OH2 1537   1.778   5.180   3.633
  531TIP3    H1 1538   1.747   5.224   3.712
  531TIP3    H2 1539   1.866   5.214   3.620
  532TIP3   OH2 1540   4.324   0.336   3.111
  532TIP3    H1 1541   4.231   0.349   3.128
  532TIP3    H2 1542   4.358   0.425   3.095
  533TIP3   OH2 1543   5.976   6.609   2.458
  533TIP3    H1 1544   6.002   6.679   2.517
  533TIP3    H2 1545   6.052   6.596   2.400
  534TIP3   OH2 1546   0.060   3.967   2.500
  534TIP3    H1 1547   0.094   3.983   2.412
  534TIP3    H2 1548   0.029   3.877   2.497
  535TIP3   OH2 1549   5.730   3.697   2.686
  535TIP3    H1 1550   5.670   3.692   2.612
  535TIP3    H2 1551   5.675   3.687   2.763
  536TIP3   OH2 1552   6.947   1.507   0.502
  536TIP3    H1 1553   6.967   1.556   0.422
  536TIP3    H2 1554   6.872   1.452   0.478
  537TIP3   OH2 1555   1.274   1.402   1.320
  537TIP3    H1 1556   1.246   1.480   1.272
  537TIP3    H2 1557   1.306   1.436   1.404
  538TIP3   OH2 1558   0.775   2.097   4.353
  538TIP3    H1 1559   0.748   2.184   4.382
  538TIP3    H2 1560   0.860   2.111   4.312
  539TIP3   OH2 1561   5.210   5.494   3.512
  539TIP3    H1 1562   5.296   5.536   3.513
  539TIP3    H2 1563   5.161   5.541   3.444
  540TIP3   OH2 1564   0.344   5.009   5.810
  540TIP3    H1 1565   0.401   5.009   5.888
  540TIP3    H2 1566   0.280   5.077   5.828
  541TIP3   OH2 1567   8.176   4.176   2.470
  541TIP3    H1 1568   8.231   4.235   2.418
  541TIP3    H2 1569   8.230   4.098   2.482
  542TIP3   OH2 1570   3.171   1.062   6.328
  542TIP3    H1 1571   3.158   0.993   6.393
  542TIP3    H2 1572   3.265   1.083   6.335
  543TIP3   OH2 1573   5.155   3.203   3.305
  543TIP3    H1 1574   5.210   3.273   3.270
  543TIP3    H2 1575   5.215   3.149   3.357
  544TIP3   OH2 1576   1.769   3.368   6.282
  544TIP3    H1 1577   1.698   3.391   6.222
  544TIP3    H2 1578   1.726   3.352   6.365
  545TIP3   OH2 1579   7.415   0.068   2.654
  545TIP3    H1 1580   7.417   0.111   2.568
  545TIP3    H2 1581   7.495   0.015   2.656
  546TIP3   OH2 1582   6.582   7.588   3.681
  546TIP3    H1 1583   6.661   7.551   3.720
  546TIP3    H2 1584   6.591   7.682   3.693
  547TIP3   OH2 1585   1.881   6.052   2.243
  547TIP3    H1 1586   1.908   6.140   2.269
  547TIP3    H2 1587   1.852   6.010   2.323
  548TIP3   OH2 1588   3.611   0.303   5.214
  548TIP3    H1 1589   3.636   0.380   5.265
  548TIP3    H2 1590   3.674   0.236   5.240
  549TIP3   OH2 1591   4.130   4.416   5.450
  549TIP3    H1 1592   4.153   4.339   5.398
  549TIP3    H2 1593   4.105   4.482   5.386
  550TIP3   OH2 1594   6.734   2.025   5.418
  550TIP3    H1 1595   6.644   2.041   5.444
  550TIP3    H2 1596   6.729   2.005   5.324
  551TIP3   OH2 1597   5.195   7.567   4.306
  551TIP3    H1 1598   5.276   7.566   4.357
  551TIP3    H2 1599   5.219   7.612   4.225
  552TIP3   OH2 1600   1.419   2.325   1.744
  552TIP3    H1 1601   1.336   2.369   1.725
  552TIP3    H2 1602   1.481   2.396   1.760
  553TIP3   OH2 1603   5.617   5.757   6.001
  553TIP3    H1 1604   5.583   5.832   6.050
  553TIP3    H2 1605   5.636   5.792   5.914
  554TIP3   OH2 1606   3.247   7.185   6.240
  554TIP3    H1 1607   3.163   7.177   6.287
  554TIP3    H2 1608   3.257   7.101   6.195
  555TIP3   OH2 1609   3.356   1.434   1.910
  555TIP3    H1 1610   3.422   1.402   1.972
  555TIP3    H2 1611   3.322   1.355   1.869
  556TIP3   OH2 1612   3.147   0.833   4.738
  556TIP3    H1 1613   3.052   0.843   4.733
  556TIP3    H2 1614   3.164   0.817   4.831
  557TIP3   OH2 1615   5.193   0.699   2.291
  557TIP3    H1 1616   5.229   0.645   2.221
  557TIP3    H2 1617   5.243   0.780   2.287
  558TIP3   OH2 1618   4.968   0.270   0.330
  558TIP3    H1 1619   5.015   0.353   0.333
  558TIP3    H2 1620   5.005   0.225   0.254
  559TIP3   OH2 1621   4.449   7.672   2.070
  559TIP3    H1 1622   4.511   7.674   2.142
  559TIP3    H2 1623   4.497   7.708   1.996
  560TIP3   OH2 1624   6.554   0.047   3.014
  560TIP3    H1 1625   6.521  -0.030   2.969
  560TIP3    H2 1626   6.644   0.057   2.983
  561TIP3   OH2 1627   5.391   7.023   3.821
  561TIP3    H1 1628   5.342   6.943   3.803
  561TIP3    H2 1629   5.419   7.014   3.912
  562TIP3   OH2 1630   6.790   3.326   5.773
  562TIP3    H1 1631   6.879   3.334   5.737
  562TIP3    H2 1632   6.777   3.406   5.823
  563TIP3   OH2 1633   6.937   4.910   2.145
  563TIP3    H1 1634   6.940   5.003   2.125
  563TIP3    H2 1635   7.029   4.882   2.142
  564TIP3   OH2 1636   7.171   1.423   1.024
  564TIP3    H1 1637   7.164   1.502   0.970
  564TIP3    H2 1638   7.202   1.355   0.964
  565TIP3   OH2 1639   0.782   0.609   5.857
  565TIP3    H1 1640   0.723   0.628   5.784
  565TIP3    H2 1641   0.788   0.691   5.904
  566TIP3   OH2 1642   4.161   4.563   2.130
  566TIP3    H1 1643   4.126   4.640   2.085
  566TIP3    H2 1644   4.256   4.573   2.124
  567TIP3   OH2 1645   5.832   5.201   3.302
  567TIP3    H1 1646   5.792   5.115   3.317
  567TIP3    H2 1647   5.786   5.236   3.226
  568TIP3   OH2 1648   3.962   5.722   5.584
  568TIP3    H1 1649   4.023   5.654   5.555
  568TIP3    H2 1650   3.878   5.677   5.589
  569TIP3   OH2 1651   4.697   2.784   1.768
  569TIP3    H1 1652   4.633   2.717   1.793
  569TIP3    H2 1653   4.758   2.739   1.709
  570TIP3   OH2 1654   3.137   0.459   3.749
  570TIP3    H1 1655   3.048   0.466   3.713
  570TIP3    H2 1656   3.126   0.470   3.843
  571TIP3   OH2 1657   5.656   7.432   6.648
  571TIP3    H1 1658   5.708   7.355   6.623
  571TIP3    H2 1659   5.569   7.416   6.612
  572TIP3   OH2 1660   7.223   2.077   4.831
  572TIP3    H1 1661   7.218   2.156   4.885
  572TIP3    H2 1662   7.227   2.110   4.741
  573TIP3   OH2 1663   6.048   2.486   2.084
  573TIP3    H1 1664   6.101   2.565   2.088
  573TIP3    H2 1665   5.995   2.495   2.005
  574TIP3   OH2 1666   0.045   3.704   1.459
  574TIP3    H1 1667  -0.045   3.694   1.489
  574TIP3    H2 1668   0.038   3.755   1.379
  575TIP3   OH2 1669   3.636   5.965   0.649
  575TIP3    H1 1670   3.591   5.914   0.717
  575TIP3    H2 1671   3.729   5.957   0.670
  576TIP3   OH2 1672   5.441   2.452   6.124
  576TIP3    H1 1673   5.387   2.426   6.198
  576TIP3    H2 1674   5.505   2.382   6.115
  577TIP3   OH2 1675   4.330   6.355   2.488
  577TIP3    H1 1676   4.251   6.320   2.529
  577TIP3    H2 1677   4.401   6.331   2.546
  578TIP3   OH2 1678   7.717   3.448   1.754
  578TIP3    H1 1679   7.692   3.402   1.674
  578TIP3    H2 1680   7.638   3.450   1.807
  579TIP3   OH2 1681   6.962   5.530   0.408
  579TIP3    H1 1682   7.024   5.592   0.371
  579TIP3    H2 1683   6.937   5.568   0.492
  580TIP3   OH2 1684   3.385   2.934   2.701
  580TIP3    H1 1685   3.390   2.875   2.776
  580TIP3    H2 1686   3.419   2.882   2.628
  581TIP3   OH2 1687   0.232   5.325   4.158
  581TIP3    H1 1688   0.189   5.256   4.106
  581TIP3    H2 1689   0.242   5.285   4.244
  582TIP3   OH2 1690   0.682   4.479   5.536
  582TIP3    H1 1691   0.642   4.491   5.450
  582TIP3    H2 1692   0.773   4.454   5.516
  583TIP3   OH2 1693   5.589   6.854   5.756
  583TIP3    H1 1694   5.626   6.795   5.691
  583TIP3    H2 1695   5.646   6.844   5.832
  584TIP3   OH2 1696   2.788   7.447   0.781
  584TIP3    H1 1697   2.790   7.380   0.850
  584TIP3    H2 1698   2.843   7.517   0.814
  585TIP3   OH2 1699   1.846   1.942   5.720
  585TIP3    H1 1700   1.821   1.997   5.645
  585TIP3    H2 1701   1.780   1.962   5.787
  586TIP3   OH2 1702   7.840   5.586   4.896
  586TIP3    H1 1703   7.825   5.497   4.928
  586TIP3    H2 1704   7.799   5.643   4.962
  587TIP3   OH2 1705   0.190   2.729   5.985
  587TIP3    H1 1706   0.283   2.740   6.007
  587TIP3    H2 1707   0.155   2.818   5.984
  588TIP3   OH2 1708   4.719   0.272   4.812
  588TIP3    H1 1709   4.784   0.342   4.809
  588TIP3    H2 1710   4.752   0.206   4.750
  589TIP3   OH2 1711   0.263   3.972   4.609
  589TIP3    H1 1712   0.212   3.895   4.636
  589TIP3    H2 1713   0.308   3.944   4.529
  590TIP3   OH2 1714   5.606   4.748   4.590
  590TIP3    H1 1715   5.549   4.799   4.648
  590TIP3    H2 1716   5.693   4.755   4.630
  591TIP3   OH2 1717   6.604   7.750   1.406
  591TIP3    H1 1718   6.643   7.823   1.453
  591TIP3    H2 1719   6.512   7.774   1.395
  592TIP3   OH2 1720   3.699   7.284   3.289
  592TIP3    H1 1721   3.688   7.366   3.241
  592TIP3    H2 1722   3.693   7.215   3.223
  593TIP3   OH2 1723   4.250   5.817   5.760
  593TIP3    H1 1724   4.274   5.729   5.787
  593TIP3    H2 1725   4.159   5.827   5.789
  594TIP3   OH2 1726   3.134   5.985   2.864
  594TIP3    H1 1727   3.112   6.077   2.850
  594TIP3    H2 1728   3.216   5.972   2.815
  595TIP3   OH2 1729   1.800   7.752   6.666
  595TIP3    H1 1730   1.885   7.790   6.641
  595TIP3    H2 1731   1.812   7.725   6.757
  596TIP3   OH2 1732   1.636   3.059   3.646
  596TIP3    H1 1733   1.591   3.002   3.708
  596TIP3    H2 1734   1.649   3.004   3.568
  597TIP3   OH2 1735   5.936   5.473   4.766
  597TIP3    H1 1736   5.890   5.399   4.729
  597TIP3    H2 1737   6.028   5.445   4.771
  598TIP3   OH2 1738   0.811   3.977   2.992
  598TIP3    H1 1739   0.817   3.883   2.972
  598TIP3    H2 1740   0.717   3.994   2.996
  599TIP3   OH2 1741   5.501   5.946   6.165
  599TIP3    H1 1742   5.475   6.028   6.122
  599TIP3    H2 1743   5.437   5.935   6.235
  600TIP3   OH2 1744   6.694   0.510   4.577
  600TIP3    H1 1745   6.634   0.441   4.605
  600TIP3    H2 1746   6.780   0.468   4.571
  601TIP3   OH2 1747   2.443   5.426   6.664
  601TIP3    H1 1748   2.427   5.439   6.570
  601TIP3    H2 1749   2.476   5.511   6.694
  602TIP3   OH2 1750   6.627   3.994   2.803
  602TIP3    H1 1751   6.617   3.955   2.716
  602TIP3    H2 1752   6.651   3.921   2.860
  603TIP3   OH2 1753   7.062   6.212  -0.011
  603TIP3    H1 1754   7.124   6.181  -0.077
  603TIP3    H2 1755   6.999   6.140  -0.002
  604TIP3   OH2 1756   2.421   0.299   4.865
  604TIP3    H1 1757   2.512   0.277   4.851
  604TIP3    H2 1758   2.422   0.362   4.938
  605TIP3   OH2 1759   5.044   7.735   6.182
  605TIP3    H1 1760   5.116   7.707   6.238
  605TIP3    H2 1761   4.977   7.667   6.192
  606TIP3   OH2 1762   6.963   7.116   1.656
  606TIP3    H1 1763   6.887   7.170   1.679
  606TIP3    H2 1764   7.003   7.161   1.582
  607TIP3   OH2 1765   4.580   7.630   3.283
  607TIP3    H1 1766   4.536   7.679   3.213
  607TIP3    H2 1767   4.602   7.696   3.349
  608TIP3   OH2 1768   7.291   4.931   1.496
  608TIP3    H1 1769   7.336   4.987   1.558
  608TIP3    H2 1770   7.283   4.847   1.542
  609TIP3   OH2 1771   2.549   6.219   2.928
  609TIP3    H1 1772   2.625   6.249   2.979
  609TIP3    H2 1773   2.555   6.124   2.929
  610TIP3   OH2 1774   2.318   7.816   3.294
  610TIP3    H1 1775   2.280   7.875   3.229
  610TIP3    H2 1776   2.283   7.729   3.272
  611TIP3   OH2 1777   0.690   1.937   1.462
  611TIP3    H1 1778   0.717   1.864   1.406
  611TIP3    H2 1779   0.704   1.905   1.551
  612TIP3   OH2 1780   7.233   2.881   0.119
  612TIP3    H1 1781   7.148   2.881   0.075
  612TIP3    H2 1782   7.271   2.796   0.099
  613TIP3   OH2 1783   7.602   7.394   2.853
  613TIP3    H1 1784   7.620   7.400   2.760
  613TIP3    H2 1785   7.507   7.391   2.859
  614TIP3   OH2 1786   1.275   4.119   1.832
  614TIP3    H1 1787   1.188   4.099   1.799
  614TIP3    H2 1788   1.282   4.215   1.828
  615TIP3   OH2 1789   1.677   5.768   4.989
  615TIP3    H1 1790   1.645   5.832   4.926
  615TIP3    H2 1791   1.649   5.803   5.074
  616TIP3   OH2 1792   0.199   0.108   0.367
  616TIP3    H1 1793   0.164   0.196   0.378
  616TIP3    H2 1794   0.127   0.050   0.393
  617TIP3   OH2 1795   5.188   1.850   5.665
  617TIP3    H1 1796   5.279   1.842   5.637
  617TIP3    H2 1797   5.137   1.838   5.586
  618TIP3   OH2 1798   7.368   0.550   2.744
  618TIP3    H1 1799   7.416   0.479   2.786
  618TIP3    H2 1800   7.435   0.615   2.721
  619TIP3   OH2 1801   0.249   7.239   6.046
  619TIP3    H1 1802   0.289   7.192   5.973
  619TIP3    H2 1803   0.280   7.330   6.036
  620TIP3   OH2 1804   6.332   4.416   2.517
  620TIP3    H1 1805   6.253   4.467   2.535
  620TIP3    H2 1806   6.330   4.402   2.422
  621TIP3   OH2 1807   5.005   6.957   3.571
  621TIP3    H1 1808   4.915   6.925   3.576
  621TIP3    H2 1809   5.022   6.992   3.658
  622TIP3   OH2 1810   0.502   6.712   2.726
  622TIP3    H1 1811   0.435   6.772   2.759
  622TIP3    H2 1812   0.459   6.665   2.655
  623TIP3   OH2 1813   3.108   2.221   0.167
  623TIP3    H1 1814   3.041   2.214   0.099
  623TIP3    H2 1815   3.180   2.167   0.135
  624TIP3   OH2 1816   6.797   5.218   0.938
  624TIP3    H1 1817   6.832   5.149   0.995
  624TIP3    H2 1818   6.835   5.299   0.972
  625TIP3   OH2 1819   4.821   5.168   2.468
  625TIP3    H1 1820   4.753   5.109   2.500
  625TIP3    H2 1821   4.898   5.113   2.455
  626TIP3   OH2 1822   4.137   3.293   2.330
  626TIP3    H1 1823   4.087   3.215   2.355
  626TIP3    H2 1824   4.188   3.315   2.408
  627TIP3   OH2 1825   4.554   6.794   3.258
  627TIP3    H1 1826   4.514   6.827   3.339
  627TIP3    H2 1827   4.483   6.798   3.194
  628TIP3   OH2 1828   5.176   2.809   0.741
  628TIP3    H1 1829   5.242   2.796   0.673
  628TIP3    H2 1830   5.102   2.850   0.696
  629TIP3   OH2 1831   2.332   7.121   2.999
  629TIP3    H1 1832   2.309   7.182   2.928
  629TIP3    H2 1833   2.250   7.111   3.048
  630TIP3   OH2 1834   4.404   1.041   3.194
  630TIP3    H1 1835   4.474   1.077   3.249
  630TIP3    H2 1836   4.325   1.048   3.248
  631TIP3   OH2 1837   1.045   0.957   1.684
  631TIP3    H1 1838   1.042   1.048   1.655
  631TIP3    H2 1839   0.957   0.924   1.667
  632TIP3   OH2 1840   3.504   0.436   3.865
  632TIP3    H1 1841   3.452   0.356   3.870
  632TIP3    H2 1842   3.440   0.507   3.869
  633TIP3   OH2 1843   2.761   7.579   5.692
  633TIP3    H1 1844   2.844   7.531   5.691
  633TIP3    H2 1845   2.757   7.623   5.607
  634TIP3   OH2 1846   1.559   4.989   3.992
  634TIP3    H1 1847   1.492   5.030   3.937
  634TIP3    H2 1848   1.519   4.907   4.020
  635TIP3   OH2 1849   6.143   6.326   2.562
  635TIP3    H1 1850   6.138   6.407   2.613
  635TIP3    H2 1851   6.219   6.280   2.598
  636TIP3   OH2 1852   0.192   1.521   6.466
  636TIP3    H1 1853   0.206   1.550   6.376
  636TIP3    H2 1854   0.198   1.425   6.461
  637TIP3   OH2 1855   7.780   5.720   1.595
  637TIP3    H1 1856   7.702   5.664   1.584
  637TIP3    H2 1857   7.749   5.808   1.577
  638TIP3   OH2 1858   4.193   5.229   5.381
  638TIP3    H1 1859   4.228   5.141   5.387
  638TIP3    H2 1860   4.098   5.218   5.387
  639TIP3   OH2 1861   6.264   1.384   1.651
  639TIP3    H1 1862   6.303   1.322   1.590
  639TIP3    H2 1863   6.181   1.344   1.677
  640TIP3   OH2 1864   8.166   0.199   2.154
  640TIP3    H1 1865   8.224   0.264   2.193
  640TIP3    H2 1866   8.159   0.130   2.219
  641TIP3   OH2 1867   5.702   1.897   3.572
  641TIP3    H1 1868   5.715   1.806   3.545
  641TIP3    H2 1869   5.790   1.934   3.573
  642TIP3   OH2 1870   0.659   4.990   2.709
  642TIP3    H1 1871   0.739   5.014   2.755
  642TIP3    H2 1872   0.623   4.917   2.759
  643TIP3   OH2 1873   1.915   5.025   4.571
  643TIP3    H1 1874   1.883   5.101   4.523
  643TIP3    H2 1875   1.933   5.058   4.660
  644TIP3   OH2 1876   2.470   4.353   5.843
  644TIP3    H1 1877   2.448   4.439   5.806
  644TIP3    H2 1878   2.440   4.357   5.933
  645TIP3   OH2 1879   7.017   6.323   4.902
  645TIP3    H1 1880   7.011   6.337   4.808
  645TIP3    H2 1881   7.044   6.408   4.937
  646TIP3   OH2 1882   8.270   1.724   1.060
  646TIP3    H1 1883   8.213   1.793   1.094
  646TIP3    H2 1884   8.354   1.767   1.046
  647TIP3   OH2 1885   0.304   0.071   1.726
  647TIP3    H1 1886   0.376   0.100   1.782
  647TIP3    H2 1887   0.318  -0.023   1.716
  648TIP3   OH2 1888   6.811   5.940   6.281
  648TIP3    H1 1889   6.862   6.019   6.297
  648TIP3    H2 1890   6.821   5.924   6.187
  649TIP3   OH2 1891   5.878   3.913   3.573
  649TIP3    H1 1892   5.891   3.994   3.623
  649TIP3    H2 1893   5.841   3.851   3.636
  650TIP3   OH2 1894   4.889   1.143   0.211
  650TIP3    H1 1895   4.976   1.130   0.250
  650TIP3    H2 1896   4.871   1.236   0.224
  651TIP3   OH2 1897   2.759   0.637   0.114
  651TIP3    H1 1898   2.714   0.618   0.196
  651TIP3    H2 1899   2.690   0.673   0.057
  652TIP3   OH2 1900   5.065   6.772   3.860
  652TIP3    H1 1901   5.111   6.718   3.924
  652TIP3    H2 1902   4.993   6.811   3.909
  653TIP3   OH2 1903   0.884   0.353   5.341
  653TIP3    H1 1904   0.828   0.337   5.417
  653TIP3    H2 1905   0.827   0.339   5.266
  654TIP3   OH2 1906   7.324   6.756   4.105
  654TIP3    H1 1907   7.404   6.763   4.158
  654TIP3    H2 1908   7.256   6.795   4.159
  655TIP3   OH2 1909   0.063   1.660   2.347
  655TIP3    H1 1910   0.042   1.620   2.432
  655TIP3    H2 1911  -0.010   1.634   2.290
  656TIP3   OH2 1912   2.057   2.836   0.462
  656TIP3    H1 1913   1.997   2.884   0.405
  656TIP3    H2 1914   2.076   2.897   0.534
  657TIP3   OH2 1915   0.844   7.216   3.176
  657TIP3    H1 1916   0.898   7.240   3.252
  657TIP3    H2 1917   0.907   7.183   3.112
  658TIP3   OH2 1918   6.365   0.487   0.423
  658TIP3    H1 1919   6.284   0.439   0.439
  658TIP3    H2 1920   6.358   0.516   0.332
  659TIP3   OH2 1921   6.985   4.412   1.522
  659TIP3    H1 1922   7.039   4.491   1.530
  659TIP3    H2 1923   7.044   4.340   1.541
  660TIP3   OH2 1924   7.087   6.794   6.700
  660TIP3    H1 1925   7.051   6.766   6.615
  660TIP3    H2 1926   7.057   6.885   6.709
  661TIP3   OH2 1927   5.392   2.368   3.257
  661TIP3    H1 1928   5.318   2.315   3.288
  661TIP3    H2 1929   5.377   2.377   3.163
  662TIP3   OH2 1930   1.308   3.156   4.592
  662TIP3    H1 1931   1.331   3.106   4.670
  662TIP3    H2 1932   1.389   3.200   4.566
  663TIP3   OH2 1933   1.027   2.347   3.700
  663TIP3    H1 1934   1.014   2.272   3.759
  663TIP3    H2 1935   1.056   2.307   3.618
  664TIP3   OH2 1936   1.986   4.937   4.254
  664TIP3    H1 1937   2.004   5.021   4.212
  664TIP3    H2 1938   1.906   4.906   4.212
  665TIP3   OH2 1939   1.179   6.312   5.949
  665TIP3    H1 1940   1.133   6.337   5.868
  665TIP3    H2 1941   1.110   6.277   6.005
  666TIP3   OH2 1942   3.456   7.342   6.065
  666TIP3    H1 1943   3.467   7.248   6.079
  666TIP3    H2 1944   3.546   7.375   6.058
  667TIP3   OH2 1945   0.158   1.717   0.522
  667TIP3    H1 1946   0.145   1.623   0.535
  667TIP3    H2 1947   0.074   1.757   0.547
  668TIP3   OH2 1948   5.642   7.510   0.137
  668TIP3    H1 1949   5.602   7.477   0.218
  668TIP3    H2 1950   5.736   7.504   0.152
  669TIP3   OH2 1951   4.409   1.010   2.692
  669TIP3    H1 1952   4.486   1.066   2.701
  669TIP3    H2 1953   4.342   1.052   2.746
  670TIP3   OH2 1954   4.106   1.661   4.777
  670TIP3    H1 1955   4.015   1.651   4.749
  670TIP3    H2 1956   4.134   1.571   4.797
  671TIP3   OH2 1957   6.081   3.946   6.635
  671TIP3    H1 1958   6.107   4.030   6.672
  671TIP3    H2 1959   6.118   3.881   6.695
  672TIP3   OH2 1960   4.219   3.210   2.574
  672TIP3    H1 1961   4.292   3.169   2.528
  672TIP3    H2 1962   4.260   3.265   2.641
  673TIP3   OH2 1963   5.968   5.395   1.639
  673TIP3    H1 1964   5.984   5.369   1.730
  673TIP3    H2 1965   6.034   5.462   1.621
  674TIP3   OH2 1966   5.161   0.383   1.722
  674TIP3    H1 1967   5.212   0.369   1.802
  674TIP3    H2 1968   5.126   0.471   1.731
  675TIP3   OH2 1969   7.539   2.959   0.520
  675TIP3    H1 1970   7.556   3.053   0.519
  675TIP3    H2 1971   7.624   2.919   0.500
  676TIP3   OH2 1972   1.136   0.025   3.629
  676TIP3    H1 1973   1.162   0.108   3.669
  676TIP3    H2 1974   1.080   0.050   3.555
  677TIP3   OH2 1975   6.034   6.084   2.686
  677TIP3    H1 1976   5.979   6.161   2.701
  677TIP3    H2 1977   6.073   6.066   2.772
  678TIP3   OH2 1978   5.468   4.460   2.369
  678TIP3    H1 1979   5.535   4.524   2.393
  678TIP3    H2 1980   5.472   4.456   2.274
  679TIP3   OH2 1981   2.726   2.486   1.937
  679TIP3    H1 1982   2.647   2.433   1.941
  679TIP3    H2 1983   2.740   2.501   1.843
  680TIP3   OH2 1984   5.851   5.365   1.198
  680TIP3    H1 1985   5.785   5.428   1.172
  680TIP3    H2 1986   5.855   5.303   1.125
  681TIP3   OH2 1987   2.608   4.043   1.063
  681TIP3    H1 1988   2.596   4.065   1.155
  681TIP3    H2 1989   2.700   4.018   1.056
  682TIP3   OH2 1990   5.836   0.443   1.675
  682TIP3    H1 1991   5.744   0.472   1.675
  682TIP3    H2 1992   5.872   0.479   1.756
  683TIP3   OH2 1993   3.340   4.912   3.811
  683TIP3    H1 1994   3.383   4.878   3.889
  683TIP3    H2 1995   3.373   5.002   3.804
  684TIP3   OH2 1996   3.588   7.639   6.132
  684TIP3    H1 1997   3.582   7.613   6.224
  684TIP3    H2 1998   3.511   7.695   6.119
  685TIP3   OH2 1999   3.309   3.954   4.103
  685TIP3    H1 2000   3.231   3.899   4.095
  685TIP3    H2 2001   3.382   3.893   4.104
  686TIP3   OH2 2002   0.521   0.671   6.502
  686TIP3    H1 2003   0.444   0.639   6.456
  686TIP3    H2 2004   0.592   0.615   6.472
  687TIP3   OH2 2005   4.283   6.605   4.722
  687TIP3    H1 2006   4.195   6.624   4.755
  687TIP3    H2 2007   4.275   6.609   4.627
  688TIP3   OH2 2008   4.013   7.095   2.267
  688TIP3    H1 2009   3.949   7.043   2.218
  688TIP3    H2 2010   4.044   7.035   2.335
  689TIP3   OH2 2011   5.528   4.867   0.731
  689TIP3    H1 2012   5.550   4.900   0.644
  689TIP3    H2 2013   5.448   4.816   0.718
  690TIP3   OH2 2014   7.880   0.401   5.609
  690TIP3    H1 2015   7.906   0.309   5.614
  690TIP3    H2 2016   7.817   0.412   5.680
  691TIP3   OH2 2017   8.066   3.095   5.734
  691TIP3    H1 2018   8.097   3.123   5.820
  691TIP3    H2 2019   7.975   3.067   5.748
  692TIP3   OH2 2020   5.339   5.020   3.126
  692TIP3    H1 2021   5.334   4.929   3.096
  692TIP3    H2 2022   5.427   5.048   3.100
  693TIP3   OH2 2023   5.790   3.551   6.740
  693TIP3    H1 2024   5.838   3.517   6.665
  693TIP3    H2 2025   5.704   3.574   6.705
  694TIP3   OH2 2026   7.857   6.925   6.777
  694TIP3    H1 2027   7.809   6.844   6.758
  694TIP3    H2 2028   7.891   6.954   6.692
  695TIP3   OH2 2029   8.102   1.838   6.080
  695TIP3    H1 2030   8.091   1.823   5.986
  695TIP3    H2 2031   8.172   1.903   6.085
  696TIP3   OH2 2032   3.127   5.467   5.299
  696TIP3    H1 2033   3.052   5.422   5.337
  696TIP3    H2 2034   3.203   5.421   5.334
  697TIP3   OH2 2035   1.766   5.567   3.075
  697TIP3    H1 2036   1.758   5.472   3.080
  697TIP3    H2 2037   1.781   5.585   2.982
  698TIP3   OH2 2038   8.021   5.537   3.643
  698TIP3    H1 2039   8.041   5.561   3.733
  698TIP3    H2 2040   8.086   5.583   3.591
  699TIP3   OH2 2041   0.228   7.057   0.138
  699TIP3    H1 2042   0.283   7.095   0.070
  699TIP3    H2 2043   0.139   7.082   0.113
  700TIP3   OH2 2044   5.283   1.446   1.376
  700TIP3    H1 2045   5.284   1.533   1.414
  700TIP3    H2 2046   5.221   1.452   1.303
  701TIP3   OH2 2047   5.632   3.866   0.133
  701TIP3    H1 2048   5.660   3.869   0.041
  701TIP3    H2 2049   5.622   3.773   0.151
  702TIP3   OH2 2050   2.059   5.681   5.228
  702TIP3    H1 2051   2.071   5.652   5.319
  702TIP3    H2 2052   1.971   5.718   5.226
  703TIP3   OH2 2053   7.051   1.938   2.775
  703TIP3    H1 2054   6.972   1.936   2.829
  703TIP3    H2 2055   7.115   1.985   2.829
  704TIP3   OH2 2056   1.783   2.841   0.722
  704TIP3    H1 2057   1.717   2.826   0.790
  704TIP3    H2 2058   1.814   2.754   0.698
  705TIP3   OH2 2059   7.824   3.982   6.161
  705TIP3    H1 2060   7.796   3.892   6.139
  705TIP3    H2 2061   7.843   4.022   6.076
  706TIP3   OH2 2062   3.612   0.836   3.937
  706TIP3    H1 2063   3.562   0.862   4.015
  706TIP3    H2 2064   3.689   0.792   3.972
  707TIP3   OH2 2065   4.538   4.043   6.267
  707TIP3    H1 2066   4.487   4.124   6.271
  707TIP3    H2 2067   4.591   4.052   6.187
  708TIP3   OH2 2068   6.365   3.475   5.380
  708TIP3    H1 2069   6.448   3.427   5.377
  708TIP3    H2 2070   6.338   3.482   5.288
  709TIP3   OH2 2071   7.203   4.793   2.191
  709TIP3    H1 2072   7.277   4.764   2.137
  709TIP3    H2 2073   7.242   4.854   2.253
  710TIP3   OH2 2074   5.930   5.213   2.347
  710TIP3    H1 2075   5.897   5.133   2.306
  710TIP3    H2 2076   5.892   5.284   2.295
  711TIP3   OH2 2077   0.062   7.184   5.565
  711TIP3    H1 2078   0.097   7.205   5.478
  711TIP3    H2 2079  -0.029   7.158   5.549
  712TIP3   OH2 2080   0.120   1.699   5.218
  712TIP3    H1 2081   0.065   1.727   5.145
  712TIP3    H2 2082   0.141   1.780   5.264
  713TIP3   OH2 2083   7.110   2.976   2.453
  713TIP3    H1 2084   7.145   2.902   2.501
  713TIP3    H2 2085   7.177   3.044   2.460
  714TIP3   OH2 2086   0.040   7.046   3.566
  714TIP3    H1 2087   0.082   6.963   3.543
  714TIP3    H2 2088   0.099   7.113   3.532
  715TIP3   OH2 2089   7.646   6.154   6.568
  715TIP3    H1 2090   7.734   6.120   6.558
  715TIP3    H2 2091   7.657   6.239   6.612
  716TIP3   OH2 2092   1.381   1.625   1.926
  716TIP3    H1 2093   1.443   1.578   1.869
  716TIP3    H2 2094   1.297   1.620   1.880
  717TIP3   OH2 2095   3.907   7.605   2.832
  717TIP3    H1 2096   3.817   7.633   2.818
  717TIP3    H2 2097   3.955   7.642   2.757
  718TIP3   OH2 2098   2.652   5.692   2.907
  718TIP3    H1 2099   2.589   5.621   2.922
  718TIP3    H2 2100   2.737   5.647   2.906
  719TIP3   OH2 2101   4.882   3.427   3.967
  719TIP3    H1 2102   4.804   3.425   4.024
  719TIP3    H2 2103   4.866   3.357   3.903
  720TIP3   OH2 2104   0.559   3.033   4.906
  720TIP3    H1 2105   0.589   3.089   4.835
  720TIP3    H2 2106   0.639   2.995   4.943
  721TIP3   OH2 2107   6.291   7.424   0.660
  721TIP3    H1 2108   6.282   7.496   0.597
  721TIP3    H2 2109   6.256   7.348   0.615
  722TIP3   OH2 2110   0.978   2.869   2.688
  722TIP3    H1 2111   1.019   2.909   2.765
  722TIP3    H2 2112   1.033   2.793   2.668
  723TIP3   OH2 2113   5.328   6.106   0.088
  723TIP3    H1 2114   5.376   6.175   0.044
  723TIP3    H2 2115   5.250   6.149   0.123
  724TIP3   OH2 2116   8.152   3.796   3.588
  724TIP3    H1 2117   8.100   3.790   3.669
  724TIP3    H2 2118   8.227   3.739   3.605
  725TIP3   OH2 2119   5.616   1.040   1.233
  725TIP3    H1 2120   5.582   1.092   1.306
  725TIP3    H2 2121   5.689   0.991   1.271
  726TIP3   OH2 2122   6.825   5.598   0.652
  726TIP3    H1 2123   6.772   5.678   0.658
  726TIP3    H2 2124   6.761   5.528   0.639
  727TIP3   OH2 2125   7.979   3.995   3.566
  727TIP3    H1 2126   7.920   3.919   3.568
  727TIP3    H2 2127   8.067   3.957   3.563
  728TIP3   OH2 2128   2.146   7.438   1.831
  728TIP3    H1 2129   2.053   7.456   1.832
  728TIP3    H2 2130   2.167   7.408   1.919
  729TIP3   OH2 2131   4.356   3.915   6.414
  729TIP3    H1 2132   4.389   3.953   6.495
  729TIP3    H2 2133   4.419   3.942   6.347
  730TIP3   OH2 2134   2.494   6.331   1.958
  730TIP3    H1 2135   2.451   6.247   1.942
  730TIP3    H2 2136   2.587   6.310   1.966
  731TIP3   OH2 2137   1.179   7.379   3.930
  731TIP3    H1 2138   1.086   7.373   3.908
  731TIP3    H2 2139   1.209   7.460   3.888
  732TIP3   OH2 2140   6.134   0.696   4.247
  732TIP3    H1 2141   6.046   0.660   4.240
  732TIP3    H2 2142   6.136   0.738   4.334
  733TIP3   OH2 2143   4.837   4.217   4.031
  733TIP3    H1 2144   4.754   4.224   3.984
  733TIP3    H2 2145   4.901   4.259   3.974
  734TIP3   OH2 2146   6.223   6.155   3.992
  734TIP3    H1 2147   6.147   6.098   4.003
  734TIP3    H2 2148   6.218   6.216   4.066
  735TIP3   OH2 2149   1.735   4.562   4.757
  735TIP3    H1 2150   1.789   4.576   4.835
  735TIP3    H2 2151   1.747   4.642   4.705
  736TIP3   OH2 2152   6.675   2.706   6.366
  736TIP3    H1 2153   6.615   2.665   6.427
  736TIP3    H2 2154   6.626   2.713   6.284
  737TIP3   OH2 2155   1.104   7.664   1.705
  737TIP3    H1 2156   1.198   7.658   1.723
  737TIP3    H2 2157   1.066   7.701   1.785
  738TIP3   OH2 2158   7.894   2.880   5.664
  738TIP3    H1 2159   7.905   2.802   5.610
  738TIP3    H2 2160   7.932   2.856   5.749
  739TIP3   OH2 2161   2.659   6.518   0.447
  739TIP3    H1 2162   2.696   6.493   0.532
  739TIP3    H2 2163   2.564   6.509   0.458
  740TIP3   OH2 2164   1.336   2.477   6.136
  740TIP3    H1 2165   1.385   2.468   6.218
  740TIP3    H2 2166   1.330   2.571   6.122
  741TIP3   OH2 2167   7.408   2.351   3.885
  741TIP3    H1 2168   7.491   2.398   3.897
  741TIP3    H2 2169   7.376   2.382   3.800
  742TIP3   OH2 2170   6.867   0.044   6.270
  742TIP3    H1 2171   6.822   0.022   6.189
  742TIP3    H2 2172   6.960   0.043   6.247
  743TIP3   OH2 2173   5.897   5.371   5.372
  743TIP3    H1 2174   5.950   5.347   5.296
  743TIP3    H2 2175   5.806   5.366   5.341
  744TIP3   OH2 2176   8.256   1.212   3.014
  744TIP3    H1 2177   8.183   1.153   3.032
  744TIP3    H2 2178   8.245   1.284   3.076
  745TIP3   OH2 2179   0.612   4.900   6.167
  745TIP3    H1 2180   0.548   4.838   6.203
  745TIP3    H2 2181   0.561   4.960   6.113
  746TIP3   OH2 2182   1.623   7.312   4.553
  746TIP3    H1 2183   1.656   7.222   4.558
  746TIP3    H2 2184   1.546   7.305   4.496
  747TIP3   OH2 2185   2.317   2.375   4.375
  747TIP3    H1 2186   2.283   2.298   4.330
  747TIP3    H2 2187   2.400   2.345   4.413
  748TIP3   OH2 2188   0.681   1.703   0.787
  748TIP3    H1 2189   0.751   1.750   0.741
  748TIP3    H2 2190   0.664   1.626   0.733
  749TIP3   OH2 2191   2.424   0.013   1.397
  749TIP3    H1 2192   2.444   0.075   1.326
  749TIP3    H2 2193   2.491  -0.055   1.388
  750TIP3   OH2 2194   2.660   5.579   5.993
  750TIP3    H1 2195   2.566   5.561   5.996
  750TIP3    H2 2196   2.696   5.508   5.939
  751TIP3   OH2 2197   7.766   3.226   0.125
  751TIP3    H1 2198   7.723   3.141   0.132
  751TIP3    H2 2199   7.859   3.207   0.133
  752TIP3   OH2 2200   5.856   3.775   2.386
  752TIP3    H1 2201   5.811   3.728   2.315
  752TIP3    H2 2202   5.828   3.866   2.376
  753TIP3   OH2 2203   3.333   0.678   1.974
  753TIP3    H1 2204   3.331   0.699   2.067
  753TIP3    H2 2205   3.426   0.680   1.951
  754TIP3   OH2 2206   6.429   4.910   0.267
  754TIP3    H1 2207   6.525   4.910   0.275
  754TIP3    H2 2208   6.412   4.882   0.177
  755TIP3   OH2 2209   8.169   0.348   2.611
  755TIP3    H1 2210   8.243   0.294   2.640
  755TIP3    H2 2211   8.091   0.296   2.634
  756TIP3   OH2 2212   1.060   7.114   4.896
  756TIP3    H1 2213   1.027   7.085   4.811
  756TIP3    H2 2214   1.113   7.041   4.928
  757TIP3   OH2 2215   5.380   3.839   1.711
  757TIP3    H1 2216   5.382   3.772   1.643
  757TIP3    H2 2217   5.422   3.798   1.787
  758TIP3   OH2 2218   6.463   1.545   3.305
  758TIP3    H1 2219   6.513   1.568   3.226
  758TIP3    H2 2220   6.465   1.449   3.306
  759TIP3   OH2 2221   0.076   5.428   5.924
  759TIP3    H1 2222   0.024   5.478   5.987
  759TIP3    H2 2223   0.096   5.490   5.854
  760TIP3   OH2 2224   6.565   5.904   6.464
  760TIP3    H1 2225   6.615   5.848   6.522
  760TIP3    H2 2226   6.630   5.944   6.406
  761TIP3   OH2 2227   4.420   0.115   3.860
  761TIP3    H1 2228   4.467   0.198   3.874
  761TIP3    H2 2229   4.341   0.139   3.813
  762TIP3   OH2 2230   7.377   2.943   2.280
  762TIP3    H1 2231   7.412   2.883   2.346
  762TIP3    H2 2232   7.287   2.914   2.267
  763TIP3   OH2 2233   8.154   0.261   3.540
  763TIP3    H1 2234   8.140   0.294   3.451
  763TIP3    H2 2235   8.069   0.271   3.583
  764TIP3   OH2 2236   0.506   4.472   2.202
  764TIP3    H1 2237   0.461   4.455   2.285
  764TIP3    H2 2238   0.436   4.499   2.142
  765TIP3   OH2 2239   0.362   2.648   4.475
  765TIP3    H1 2240   0.416   2.725   4.492
  765TIP3    H2 2241   0.285   2.659   4.532
  766TIP3   OH2 2242   0.514   3.993   6.702
  766TIP3    H1 2243   0.587   3.933   6.689
  766TIP3    H2 2244   0.536   4.071   6.651
  767TIP3   OH2 2245   7.951   7.076   6.551
  767TIP3    H1 2246   7.857   7.066   6.566
  767TIP3    H2 2247   7.959   7.090   6.457
  768TIP3   OH2 2248   8.238   4.102   2.065
  768TIP3    H1 2249   8.237   4.194   2.091
  768TIP3    H2 2250   8.153   4.067   2.093
  769TIP3   OH2 2251   5.233   6.595   0.708
  769TIP3    H1 2252   5.176   6.643   0.769
  769TIP3    H2 2253   5.271   6.662   0.652
  770TIP3   OH2 2254   4.837   1.331   3.474
  770TIP3    H1 2255   4.822   1.285   3.391
  770TIP3    H2 2256   4.798   1.417   3.461
  771TIP3   OH2 2257   8.200   7.118   0.676
  771TIP3    H1 2258   8.286   7.125   0.717
  771TIP3    H2 2259   8.216   7.136   0.583
  772TIP3   OH2 2260   2.003   1.795   5.453
  772TIP3    H1 2261   1.908   1.799   5.460
  772TIP3    H2 2262   2.028   1.874   5.405
  773TIP3   OH2 2263   2.383   5.810   5.388
  773TIP3    H1 2264   2.423   5.786   5.472
  773TIP3    H2 2265   2.314   5.744   5.375
  774TIP3   OH2 2266   3.437   6.635   0.344
  774TIP3    H1 2267   3.355   6.587   0.355
  774TIP3    H2 2268   3.503   6.581   0.387
  775TIP3   OH2 2269   4.540   6.694   5.565
  775TIP3    H1 2270   4.533   6.602   5.590
  775TIP3    H2 2271   4.600   6.694   5.491
  776TIP3   OH2 2272   7.601   3.179   6.637
  776TIP3    H1 2273   7.575   3.270   6.622
  776TIP3    H2 2274   7.580   3.133   6.556
  777TIP3   OH2 2275   3.562   0.347   4.322
  777TIP3    H1 2276   3.494   0.412   4.337
  777TIP3    H2 2277   3.553   0.285   4.395
  778TIP3   OH2 2278   4.934   7.389   6.037
  778TIP3    H1 2279   4.863   7.331   6.065
  778TIP3    H2 2280   4.999   7.331   5.999
  779TIP3   OH2 2281   7.246   2.892   6.491
  779TIP3    H1 2282   7.305   2.824   6.524
  779TIP3    H2 2283   7.185   2.907   6.563
  780TIP3   OH2 2284   5.330   0.804   2.994
  780TIP3    H1 2285   5.408   0.771   3.039
  780TIP3    H2 2286   5.279   0.847   3.063
  781TIP3   OH2 2287   7.747   0.180   4.394
  781TIP3    H1 2288   7.732   0.139   4.480
  781TIP3    H2 2289   7.678   0.245   4.386
  782TIP3   OH2 2290   0.195   7.765   1.057
  782TIP3    H1 2291   0.269   7.823   1.039
  782TIP3    H2 2292   0.151   7.805   1.132
  783TIP3   OH2 2293   2.214   1.187   1.983
  783TIP3    H1 2294   2.177   1.206   1.897
  783TIP3    H2 2295   2.211   1.091   1.990
  784TIP3   OH2 2296   4.647   4.635   3.895
  784TIP3    H1 2297   4.648   4.724   3.860
  784TIP3    H2 2298   4.630   4.645   3.989
  785TIP3   OH2 2299   1.203   2.956   3.153
  785TIP3    H1 2300   1.221   3.033   3.100
  785TIP3    H2 2301   1.284   2.905   3.149
  786TIP3   OH2 2302   6.553   1.614   0.963
  786TIP3    H1 2303   6.547   1.698   1.009
  786TIP3    H2 2304   6.513   1.631   0.877
  787TIP3   OH2 2305   7.270   3.881   3.408
  787TIP3    H1 2306   7.192   3.848   3.453
  787TIP3    H2 2307   7.286   3.818   3.338
  788TIP3   OH2 2308   3.621   3.113   4.330
  788TIP3    H1 2309   3.556   3.066   4.384
  788TIP3    H2 2310   3.705   3.080   4.362
  789TIP3   OH2 2311   2.978   7.837   1.758
  789TIP3    H1 2312   2.975   7.933   1.761
  789TIP3    H2 2313   2.919   7.813   1.687
  790TIP3   OH2 2314   4.791   5.134   5.562
  790TIP3    H1 2315   4.716   5.149   5.504
  790TIP3    H2 2316   4.767   5.055   5.611
  791TIP3   OH2 2317   2.934   7.741   0.837
  791TIP3    H1 2318   2.981   7.737   0.920
  791TIP3    H2 2319   2.849   7.779   0.859
  792TIP3   OH2 2320   4.000   2.447   5.444
  792TIP3    H1 2321   4.076   2.426   5.390
  792TIP3    H2 2322   4.023   2.414   5.531
  793TIP3   OH2 2323   2.394   7.790   2.585
  793TIP3    H1 2324   2.436   7.709   2.558
  793TIP3    H2 2325   2.416   7.853   2.516
  794TIP3   OH2 2326   4.814   1.785   0.192
  794TIP3    H1 2327   4.786   1.825   0.110
  794TIP3    H2 2328   4.797   1.852   0.258
  795TIP3   OH2 2329   5.437   5.178   4.380
  795TIP3    H1 2330   5.392   5.244   4.433
  795TIP3    H2 2331   5.478   5.229   4.310
  796TIP3   OH2 2332   2.513   2.985   2.119
  796TIP3    H1 2333   2.580   2.937   2.070
  796TIP3    H2 2334   2.510   3.071   2.079
  797TIP3   OH2 2335   4.279   3.618   3.298
  797TIP3    H1 2336   4.261   3.650   3.210
  797TIP3    H2 2337   4.207   3.652   3.351
  798TIP3   OH2 2338   1.580   1.366   6.284
  798TIP3    H1 2339   1.640   1.310   6.234
  798TIP3    H2 2340   1.526   1.408   6.217
  799TIP3   OH2 2341   4.179   4.927   1.214
  799TIP3    H1 2342   4.091   4.959   1.193
  799TIP3    H2 2343   4.182   4.840   1.174
  800TIP3   OH2 2344   4.657   4.801   6.662
  800TIP3    H1 2345   4.698   4.874   6.615
  800TIP3    H2 2346   4.566   4.801   6.631
  801TIP3   OH2 2347   7.921   7.196   0.609
  801TIP3    H1 2348   7.904   7.136   0.536
  801TIP3    H2 2349   7.989   7.153   0.660
  802TIP3   OH2 2350   6.203   4.779   4.937
  802TIP3    H1 2351   6.246   4.693   4.938
  802TIP3    H2 2352   6.146   4.777   5.013
  803TIP3   OH2 2353   1.868   3.715   0.466
  803TIP3    H1 2354   1.854   3.751   0.554
  803TIP3    H2 2355   1.845   3.787   0.407
  804TIP3   OH2 2356   1.793   6.833   0.235
  804TIP3    H1 2357   1.884   6.863   0.233
  804TIP3    H2 2358   1.769   6.824   0.143
  805TIP3   OH2 2359   2.158   3.013   0.650
  805TIP3    H1 2360   2.246   3.036   0.620
  805TIP3    H2 2361   2.123   3.095   0.685
  806TIP3   OH2 2362   4.683   1.735   5.702
  806TIP3    H1 2363   4.747   1.804   5.719
  806TIP3    H2 2364   4.606   1.760   5.754
  807TIP3   OH2 2365   4.203   5.124   3.085
  807TIP3    H1 2366   4.109   5.106   3.085
  807TIP3    H2 2367   4.213   5.201   3.028
  808TIP3   OH2 2368   7.612   3.530   0.986
  808TIP3    H1 2369   7.633   3.500   0.898
  808TIP3    H2 2370   7.614   3.451   1.040
  809TIP3   OH2 2371   3.475   5.651   3.226
  809TIP3    H1 2372   3.551   5.606   3.191
  809TIP3    H2 2373   3.511   5.723   3.277
  810TIP3   OH2 2374   5.853   4.781   3.492
  810TIP3    H1 2375   5.932   4.737   3.461
  810TIP3    H2 2376   5.815   4.720   3.555
  811TIP3   OH2 2377   6.620   1.099   3.256
  811TIP3    H1 2378   6.538   1.070   3.216
  811TIP3    H2 2379   6.681   1.109   3.183
  812TIP3   OH2 2380   5.149   1.629   1.194
  812TIP3    H1 2381   5.132   1.711   1.148
  812TIP3    H2 2382   5.119   1.645   1.284
  813TIP3   OH2 2383   1.467   3.880   2.972
  813TIP3    H1 2384   1.544   3.851   3.020
  813TIP3    H2 2385   1.394   3.835   3.014
  814TIP3   OH2 2386   4.803   6.181   0.114
  814TIP3    H1 2387   4.827   6.241   0.043
  814TIP3    H2 2388   4.713   6.155   0.094
  815TIP3   OH2 2389   2.038   0.941   6.091
  815TIP3    H1 2390   2.064   0.878   6.158
  815TIP3    H2 2391   2.120   0.964   6.046
  816TIP3   OH2 2392   4.876   4.543   3.596
  816TIP3    H1 2393   4.798   4.536   3.651
  816TIP3    H2 2394   4.858   4.485   3.522
  817TIP3   OH2 2395   3.383   5.664   6.135
  817TIP3    H1 2396   3.393   5.759   6.136
  817TIP3    H2 2397   3.299   5.649   6.090
  818TIP3   OH2 2398   7.160   4.289   2.329
  818TIP3    H1 2399   7.215   4.282   2.407
  818TIP3    H2 2400   7.221   4.309   2.258
  819TIP3   OH2 2401   3.338   1.196   6.659
  819TIP3    H1 2402   3.330   1.101   6.674
  819TIP3    H2 2403   3.332   1.235   6.746
  820TIP3   OH2 2404   7.089   6.605   4.896
  820TIP3    H1 2405   7.072   6.691   4.858
  820TIP3    H2 2406   7.166   6.573   4.849
  821TIP3   OH2 2407   1.538   7.119   1.274
  821TIP3    H1 2408   1.444   7.135   1.285
  821TIP3    H2 2409   1.543   7.036   1.226
  822TIP3   OH2 2410   0.154   0.353   0.902
  822TIP3    H1 2411   0.171   0.386   0.990
  822TIP3    H2 2412   0.159   0.258   0.910
  823TIP3   OH2 2413   1.450   1.037   4.181
  823TIP3    H1 2414   1.476   1.046   4.273
  823TIP3    H2 2415   1.444   0.943   4.167
  824TIP3   OH2 2416   3.243   0.276   3.979
  824TIP3    H1 2417   3.229   0.368   4.002
  824TIP3    H2 2418   3.212   0.227   4.055
  825TIP3   OH2 2419   4.449   1.769   4.090
  825TIP3    H1 2420   4.438   1.850   4.040
  825TIP3    H2 2421   4.361   1.744   4.116
  826TIP3   OH2 2422   6.829   1.578   0.759
  826TIP3    H1 2423   6.876   1.662   0.764
  826TIP3    H2 2424   6.883   1.525   0.700
  827TIP3   OH2 2425   3.101   7.040   3.636
  827TIP3    H1 2426   3.060   7.117   3.675
  827TIP3    H2 2427   3.124   7.068   3.547
  828TIP3   OH2 2428   2.232   4.773   0.200
  828TIP3    H1 2429   2.270   4.712   0.264
  828TIP3    H2 2430   2.299   4.782   0.132
  829TIP3   OH2 2431   4.701   4.374   5.477
  829TIP3    H1 2432   4.764   4.320   5.430
  829TIP3    H2 2433   4.684   4.447   5.419
  830TIP3   OH2 2434   4.914   0.724   1.184
  830TIP3    H1 2435   4.940   0.747   1.274
  830TIP3    H2 2436   4.854   0.794   1.159
  831TIP3   OH2 2437   5.850   7.011   4.767
  831TIP3    H1 2438   5.822   7.070   4.697
  831TIP3    H2 2439   5.922   7.057   4.810
  832TIP3   OH2 2440   1.381   1.000   2.346
  832TIP3    H1 2441   1.414   1.087   2.323
  832TIP3    H2 2442   1.289   1.015   2.367
  833TIP3   OH2 2443   2.407   3.119   0.683
  833TIP3    H1 2444   2.433   3.207   0.655
  833TIP3    H2 2445   2.478   3.062   0.653
  834TIP3   OH2 2446   3.742   5.079   2.589
  834TIP3    H1 2447   3.665   5.025   2.604
  834TIP3    H2 2448   3.749   5.086   2.494
  835TIP3   OH2 2449   5.241   7.591   4.597
  835TIP3    H1 2450   5.321   7.552   4.563
  835TIP3    H2 2451   5.256   7.686   4.591
  836TIP3   OH2 2452   0.475   1.801   4.104
  836TIP3    H1 2453   0.445   1.711   4.105
  836TIP3    H2 2454   0.563   1.797   4.065
  837TIP3   OH2 2455   1.112   2.289   0.589
  837TIP3    H1 2456   1.180   2.331   0.642
  837TIP3    H2 2457   1.035   2.344   0.601
  838TIP3   OH2 2458   7.582   0.083   0.385
  838TIP3    H1 2459   7.560   0.044   0.300
  838TIP3    H2 2460   7.533   0.030   0.448
  839TIP3   OH2 2461   3.784   3.222   0.534
  839TIP3    H1 2462   3.839   3.268   0.597
  839TIP3    H2 2463   3.744   3.291   0.481
  840TIP3   OH2 2464   7.198   1.550   5.188
  840TIP3    H1 2465   7.114   1.593   5.206
  840TIP3    H2 2466   7.264   1.618   5.200
  841TIP3   OH2 2467   6.397   1.927   5.101
  841TIP3    H1 2468   6.425   1.840   5.129
  841TIP3    H2 2469   6.308   1.936   5.137
  842TIP3   OH2 2470   4.200   5.099   0.363
  842TIP3    H1 2471   4.113   5.113   0.324
  842TIP3    H2 2472   4.182   5.075   0.453
  843TIP3   OH2 2473   1.438   0.708   1.122
  843TIP3    H1 2474   1.371   0.774   1.106
  843TIP3    H2 2475   1.498   0.715   1.047
  844TIP3   OH2 2476   0.948   5.316   4.094
  844TIP3    H1 2477   0.887   5.373   4.047
  844TIP3    H2 2478   0.938   5.339   4.186
  845TIP3   OH2 2479   4.848   1.710   1.581
  845TIP3    H1 2480   4.885   1.731   1.667
  845TIP3    H2 2481   4.786   1.640   1.598
  846TIP3   OH2 2482   1.386   5.978   2.481
  846TIP3    H1 2483   1.442   6.030   2.422
  846TIP3    H2 2484   1.356   6.040   2.547
  847TIP3   OH2 2485   7.968   5.043   3.223
  847TIP3    H1 2486   7.897   5.104   3.203
  847TIP3    H2 2487   8.009   5.025   3.138
  848TIP3   OH2 2488   4.129   0.163   4.720
  848TIP3    H1 2489   4.184   0.105   4.774
  848TIP3    H2 2490   4.191   0.220   4.675
  849TIP3   OH2 2491   0.905   1.138   4.704
  849TIP3    H1 2492   0.834   1.200   4.689
  849TIP3    H2 2493   0.980   1.191   4.729
  850TIP3   OH2 2494   4.132   5.655   1.668
  850TIP3    H1 2495   4.214   5.617   1.701
  850TIP3    H2 2496   4.093   5.584   1.616
  851TIP3   OH2 2497   7.077   3.550   1.260
  851TIP3    H1 2498   7.106   3.494   1.331
  851TIP3    H2 2499   7.137   3.625   1.262
  852TIP3   OH2 2500   4.088   6.340   0.306
  852TIP3    H1 2501   4.122   6.405   0.368
  852TIP3    H2 2502   4.153   6.270   0.306
  853TIP3   OH2 2503   8.096   3.659   1.737
  853TIP3    H1 2504   8.183   3.699   1.732
  853TIP3    H2 2505   8.079   3.628   1.648
  854TIP3   OH2 2506   2.054   0.203   6.323
  854TIP3    H1 2507   2.020   0.255   6.251
  854TIP3    H2 2508   2.054   0.113   6.291
  855TIP3   OH2 2509   0.066   3.536   5.234
  855TIP3    H1 2510   0.010   3.459   5.246
  855TIP3    H2 2511   0.090   3.534   5.141
  856TIP3   OH2 2512   7.698   4.771   4.216
  856TIP3    H1 2513   7.753   4.821   4.156
  856TIP3    H2 2514   7.610   4.778   4.179
  857TIP3   OH2 2515   1.185   0.585   4.049
  857TIP3    H1 2516   1.165   0.678   4.056
  857TIP3    H2 2517   1.101   0.541   4.060
  858TIP3   OH2 2518   7.489   2.892   0.800
  858TIP3    H1 2519   7.503   2.850   0.715
  858TIP3    H2 2520   7.433   2.830   0.848
  859TIP3   OH2 2521   0.716   0.487   2.810
  859TIP3    H1 2522   0.750   0.424   2.746
  859TIP3    H2 2523   0.621   0.484   2.799
  860TIP3   OH2 2524   5.411   6.069   3.765
  860TIP3    H1 2525   5.387   6.110   3.682
  860TIP3    H2 2526   5.468   5.996   3.740
  861TIP3   OH2 2527   4.402   1.519   0.392
  861TIP3    H1 2528   4.317   1.512   0.349
  861TIP3    H2 2529   4.381   1.533   0.485
  862TIP3   OH2 2530   5.475   3.207   0.591
  862TIP3    H1 2531   5.540   3.194   0.660
  862TIP3    H2 2532   5.393   3.223   0.638
  863TIP3   OH2 2533   7.979   6.474   6.201
  863TIP3    H1 2534   7.885   6.487   6.209
  863TIP3    H2 2535   7.994   6.470   6.107
  864TIP3   OH2 2536   5.892   3.398   0.804
  864TIP3    H1 2537   5.986   3.412   0.798
  864TIP3    H2 2538   5.866   3.441   0.886
  865TIP3   OH2 2539   4.776   1.034   4.720
  865TIP3    H1 2540   4.687   1.066   4.737
  865TIP3    H2 2541   4.771   0.995   4.633
  866TIP3   OH2 2542   6.763   0.044   4.797
  866TIP3    H1 2543   6.783   0.061   4.889
  866TIP3    H2 2544   6.702  -0.030   4.799
  867TIP3   OH2 2545   0.084   2.140   2.576
  867TIP3    H1 2546   0.000   2.155   2.534
  867TIP3    H2 2547   0.121   2.064   2.530
  868TIP3   OH2 2548   5.105   7.529   6.482
  868TIP3    H1 2549   5.048   7.573   6.544
  868TIP3    H2 2550   5.065   7.443   6.469
  869TIP3   OH2 2551   0.033   1.269   5.008
  869TIP3    H1 2552   0.078   1.297   5.088
  869TIP3    H2 2553  -0.053   1.310   5.013
  870TIP3   OH2 2554   5.105   7.732   1.496
  870TIP3    H1 2555   5.017   7.729   1.532
  870TIP3    H2 2556   5.098   7.786   1.418
  871TIP3   OH2 2557   3.545   0.685   3.477
  871TIP3    H1 2558   3.520   0.634   3.554
  871TIP3    H2 2559   3.641   0.687   3.479
  872TIP3   OH2 2560   3.134   0.807   5.019
  872TIP3    H1 2561   3.103   0.895   5.040
  872TIP3    H2 2562   3.144   0.764   5.104
  873TIP3   OH2 2563   7.017   2.950   0.456
  873TIP3    H1 2564   6.977   2.903   0.384
  873TIP3    H2 2565   7.030   3.039   0.422
  874TIP3   OH2 2566   3.310   5.128   6.184
  874TIP3    H1 2567   3.298   5.097   6.095
  874TIP3    H2 2568   3.327   5.222   6.175
  875TIP3   OH2 2569   4.368   5.568   1.794
  875TIP3    H1 2570   4.342   5.614   1.874
  875TIP3    H2 2571   4.438   5.622   1.757
  876TIP3   OH2 2572   3.401   7.142   2.865
  876TIP3    H1 2573   3.434   7.228   2.836
  876TIP3    H2 2574   3.370   7.100   2.784
  877TIP3   OH2 2575   1.302   1.324   5.178
  877TIP3    H1 2576   1.225   1.332   5.234
  877TIP3    H2 2577   1.321   1.413   5.150
  878TIP3   OH2 2578   5.019   1.886   4.834
  878TIP3    H1 2579   5.024   1.965   4.888
  878TIP3    H2 2580   5.065   1.909   4.753
  879TIP3   OH2 2581   0.432   5.068   5.180
  879TIP3    H1 2582   0.373   5.021   5.121
  879TIP3    H2 2583   0.520   5.042   5.153
  880TIP3   OH2 2584   3.983   5.250   1.729
  880TIP3    H1 2585   3.984   5.157   1.707
  880TIP3    H2 2586   4.070   5.268   1.765
  881TIP3   OH2 2587   4.434   0.721   2.665
  881TIP3    H1 2588   4.396   0.808   2.663
  881TIP3    H2 2589   4.369   0.668   2.711
  882TIP3   OH2 2590   7.524   1.846   3.770
  882TIP3    H1 2591   7.538   1.755   3.798
  882TIP3    H2 2592   7.515   1.895   3.852
  883TIP3   OH2 2593   6.254   6.654   4.737
  883TIP3    H1 2594   6.272   6.592   4.808
  883TIP3    H2 2595   6.338   6.694   4.717
  884TIP3   OH2 2596   4.293   5.288   5.095
  884TIP3    H1 2597   4.272   5.242   5.176
  884TIP3    H2 2598   4.319   5.218   5.034
  885TIP3   OH2 2599   7.840   0.446   0.941
  885TIP3    H1 2600   7.923   0.493   0.944
  885TIP3    H2 2601   7.857   0.371   0.884
  886TIP3   OH2 2602   4.492   7.156   5.540
  886TIP3    H1 2603   4.449   7.075   5.512
  886TIP3    H2 2604   4.539   7.186   5.462
  887TIP3   OH2 2605   5.640   0.005   5.226
  887TIP3    H1 2606   5.660   0.096   5.204
  887TIP3    H2 2607   5.625  -0.037   5.141
  888TIP3   OH2 2608   6.204   1.471   3.424
  888TIP3    H1 2609   6.295   1.467   3.397
  888TIP3    H2 2610   6.157   1.422   3.356
  889TIP3   OH2 2611   4.735   2.006   4.179
  889TIP3    H1 2612   4.821   2.003   4.221
  889TIP3    H2 2613   4.674   1.982   4.249
  890TIP3   OH2 2614   7.099   2.181   0.801
  890TIP3    H1 2615   7.049   2.211   0.877
  890TIP3    H2 2616   7.039   2.122   0.755
  891TIP3   OH2 2617   4.660   2.837   6.144
  891TIP3    H1 2618   4.654   2.744   6.122
  891TIP3    H2 2619   4.750   2.862   6.124
  892TIP3   OH2 2620   5.937   7.824   6.338
  892TIP3    H1 2621   6.026   7.789   6.336
  892TIP3    H2 2622   5.907   7.817   6.247
  893TIP3   OH2 2623   3.424   2.289   2.354
  893TIP3    H1 2624   3.383   2.203   2.366
  893TIP3    H2 2625   3.513   2.277   2.388
  894TIP3   OH2 2626   3.094   2.570   1.709
  894TIP3    H1 2627   3.187   2.559   1.729
  894TIP3    H2 2628   3.055   2.599   1.791
  895TIP3   OH2 2629   7.707   1.704   2.396
  895TIP3    H1 2630   7.802   1.697   2.399
  895TIP3    H2 2631   7.675   1.634   2.453
  896TIP3   OH2 2632   4.768   6.826   6.294
  896TIP3    H1 2633   4.854   6.786   6.288
  896TIP3    H2 2634   4.707   6.755   6.275
  897TIP3   OH2 2635   2.989   7.820   0.587
  897TIP3    H1 2636   2.962   7.751   0.526
  897TIP3    H2 2637   2.961   7.788   0.673
  898TIP3   OH2 2638   5.595   5.805   2.631
  898TIP3    H1 2639   5.539   5.775   2.703
  898TIP3    H2 2640   5.535   5.846   2.570
  899TIP3   OH2 2641   3.808   4.567   0.707
  899TIP3    H1 2642   3.742   4.512   0.750
  899TIP3    H2 2643   3.767   4.653   0.701
  900TIP3   OH2 2644   0.303   3.830   1.683
  900TIP3    H1 2645   0.319   3.736   1.676
  900TIP3    H2 2646   0.341   3.867   1.603
  901TIP3   OH2 2647   0.588   5.139   6.366
  901TIP3    H1 2648   0.621   5.205   6.305
  901TIP3    H2 2649   0.501   5.117   6.333
  902TIP3   OH2 2650   3.005   3.101   1.603
  902TIP3    H1 2651   3.002   3.043   1.528
  902TIP3    H2 2652   3.065   3.059   1.664
  903TIP3   OH2 2653   0.922   6.024   3.654
  903TIP3    H1 2654   0.834   6.045   3.623
  903TIP3    H2 2655   0.909   5.988   3.742
  904TIP3   OH2 2656   8.030   3.596   4.657
  904TIP3    H1 2657   8.081   3.651   4.598
  904TIP3    H2 2658   8.042   3.637   4.743
  905TIP3   OH2 2659   1.136   6.386   3.494
  905TIP3    H1 2660   1.203   6.383   3.426
  905TIP3    H2 2661   1.155   6.310   3.550
  906TIP3   OH2 2662   2.551   5.109   6.323
  906TIP3    H1 2663   2.635   5.063   6.323
  906TIP3    H2 2664   2.509   5.083   6.241
  907TIP3   OH2 2665   1.705   3.010   1.462
  907TIP3    H1 2666   1.719   3.040   1.552
  907TIP3    H2 2667   1.659   3.083   1.420
  908TIP3   OH2 2668   2.450   2.776   5.029
  908TIP3    H1 2669   2.463   2.791   4.936
  908TIP3    H2 2670   2.487   2.689   5.045
  909TIP3   OH2 2671   2.624   3.428   2.370
  909TIP3    H1 2672   2.696   3.369   2.391
  909TIP3    H2 2673   2.556   3.371   2.334
  910TIP3   OH2 2674   4.797   2.318   2.811
  910TIP3    H1 2675   4.802   2.402   2.855
  910TIP3    H2 2676   4.799   2.340   2.717
  911TIP3   OH2 2677   3.898   7.403   3.015
  911TIP3    H1 2678   3.931   7.475   2.961
  911TIP3    H2 2679   3.898   7.327   2.956
  912TIP3   OH2 2680   6.074   3.227   6.007
  912TIP3    H1 2681   6.026   3.158   6.053
  912TIP3    H2 2682   6.143   3.180   5.960
  913TIP3   OH2 2683   7.035   7.251   3.020
  913TIP3    H1 2684   6.966   7.204   2.974
  913TIP3    H2 2685   7.004   7.341   3.027
  914TIP3   OH2 2686   0.529   6.774   3.166
  914TIP3    H1 2687   0.616   6.762   3.127
  914TIP3    H2 2688   0.504   6.863   3.142
  915TIP3   OH2 2689   1.891   0.274   2.021
  915TIP3    H1 2690   1.817   0.324   1.986
  915TIP3    H2 2691   1.853   0.190   2.048
  916TIP3   OH2 2692   7.155   7.445   0.357
  916TIP3    H1 2693   7.170   7.525   0.306
  916TIP3    H2 2694   7.061   7.447   0.377
  917TIP3   OH2 2695   0.766   0.381   1.638
  917TIP3    H1 2696   0.744   0.433   1.561
  917TIP3    H2 2697   0.786   0.294   1.604
  918TIP3   OH2 2698   1.174   4.280   6.526
  918TIP3    H1 2699   1.208   4.317   6.608
  918TIP3    H2 2700   1.242   4.300   6.462
  919TIP3   OH2 2701   8.227   3.657   2.908
  919TIP3    H1 2702   8.244   3.745   2.942
  919TIP3    H2 2703   8.210   3.604   2.985
  920TIP3   OH2 2704   7.041   3.609   5.864
  920TIP3    H1 2705   7.110   3.603   5.929
  920TIP3    H2 2706   6.986   3.533   5.880
  921TIP3   OH2 2707   4.749   3.357   1.018
  921TIP3    H1 2708   4.669   3.308   0.996
  921TIP3    H2 2709   4.731   3.397   1.103
  922TIP3   OH2 2710   7.299   2.464   4.369
  922TIP3    H1 2711   7.317   2.554   4.396
  922TIP3    H2 2712   7.232   2.433   4.431
  923TIP3   OH2 2713   3.653   4.150   5.164
  923TIP3    H1 2714   3.583   4.131   5.102
  923TIP3    H2 2715   3.729   4.103   5.129
  924TIP3   OH2 2716   6.702   3.786   2.957
  924TIP3    H1 2717   6.626   3.735   2.982
  924TIP3    H2 2718   6.746   3.805   3.041
  925TIP3   OH2 2719   5.614   3.264   1.813
  925TIP3    H1 2720   5.550   3.302   1.873
  925TIP3    H2 2721   5.604   3.313   1.732
  926TIP3   OH2 2722   3.462   1.129   5.621
  926TIP3    H1 2723   3.485   1.210   5.575
  926TIP3    H2 2724   3.510   1.135   5.704
  927TIP3   OH2 2725   6.229   5.268   2.284
  927TIP3    H1 2726   6.161   5.263   2.352
  927TIP3    H2 2727   6.216   5.189   2.231
  928TIP3   OH2 2728   5.503   0.393   4.893
  928TIP3    H1 2729   5.544   0.418   4.810
  928TIP3    H2 2730   5.543   0.452   4.957
  929TIP3   OH2 2731   3.924   4.511   3.183
  929TIP3    H1 2732   3.917   4.565   3.104
  929TIP3    H2 2733   3.911   4.572   3.255
  930TIP3   OH2 2734   1.802   4.394   2.934
  930TIP3    H1 2735   1.714   4.358   2.924
  930TIP3    H2 2736   1.853   4.322   2.972
  931TIP3   OH2 2737   8.024   4.744   6.424
  931TIP3    H1 2738   7.973   4.671   6.459
  931TIP3    H2 2739   8.058   4.789   6.502
  932TIP3   OH2 2740   7.973   6.648   2.704
  932TIP3    H1 2741   7.923   6.567   2.697
  932TIP3    H2 2742   7.908   6.718   2.699
  933TIP3   OH2 2743   4.187   2.968   6.776
  933TIP3    H1 2744   4.270   2.934   6.742
  933TIP3    H2 2745   4.120   2.921   6.726
  934TIP3   OH2 2746   7.760   0.220   2.272
  934TIP3    H1 2747   7.730   0.274   2.345
  934TIP3    H2 2748   7.757   0.278   2.196
  935TIP3   OH2 2749   5.709   1.535  -0.032
  935TIP3    H1 2750   5.685   1.539   0.060
  935TIP3    H2 2751   5.706   1.442  -0.054
  936TIP3   OH2 2752   3.688   0.345   2.168
  936TIP3    H1 2753   3.772   0.301   2.154
  936TIP3    H2 2754   3.667   0.331   2.260
  937TIP3   OH2 2755   7.686   1.748   0.900
  937TIP3    H1 2756   7.686   1.761   0.995
  937TIP3    H2 2757   7.779   1.748   0.875
  938TIP3   OH2 2758   2.566   6.152   6.559
  938TIP3    H1 2759   2.605   6.239   6.564
  938TIP3    H2 2760   2.535   6.144   6.469
  939TIP3   OH2 2761   8.038   0.586   6.502
  939TIP3    H1 2762   8.090   0.506   6.497
  939TIP3    H2 2763   7.959   0.561   6.551
  940TIP3   OH2 2764   3.236   5.411   0.789
  940TIP3    H1 2765   3.232   5.502   0.818
  940TIP3    H2 2766   3.204   5.414   0.699
  941TIP3   OH2 2767   5.430   2.850   2.899
  941TIP3    H1 2768   5.422   2.874   2.807
  941TIP3    H2 2769   5.521   2.823   2.909
  942TIP3   OH2 2770   6.864   4.471   6.489
  942TIP3    H1 2771   6.934   4.537   6.487
  942TIP3    H2 2772   6.911   4.389   6.505
  943TIP3   OH2 2773   0.167   0.334   4.872
  943TIP3    H1 2774   0.196   0.404   4.813
  943TIP3    H2 2775   0.093   0.294   4.826
  944TIP3   OH2 2776   3.619   4.134   2.079
  944TIP3    H1 2777   3.563   4.128   2.157
  944TIP3    H2 2778   3.706   4.156   2.113
  945TIP3   OH2 2779   4.822   2.028   5.343
  945TIP3    H1 2780   4.763   2.063   5.277
  945TIP3    H2 2781   4.882   1.972   5.295
  946TIP3   OH2 2782   6.910   1.449   3.002
  946TIP3    H1 2783   6.898   1.385   2.932
  946TIP3    H2 2784   6.989   1.497   2.977
  947TIP3   OH2 2785   6.061   1.273   4.286
  947TIP3    H1 2786   6.054   1.367   4.301
  947TIP3    H2 2787   6.142   1.262   4.236
  948TIP3   OH2 2788   0.824   6.863   2.887
  948TIP3    H1 2789   0.777   6.798   2.939
  948TIP3    H2 2790   0.849   6.815   2.807
  949TIP3   OH2 2791   7.995   3.919   3.188
  949TIP3    H1 2792   7.907   3.905   3.153
  949TIP3    H2 2793   8.037   3.977   3.125
  950TIP3   OH2 2794   0.663   5.524   2.346
  950TIP3    H1 2795   0.650   5.442   2.298
  950TIP3    H2 2796   0.702   5.497   2.429
  951TIP3   OH2 2797   3.927   6.236   3.103
  951TIP3    H1 2798   3.897   6.247   3.012
  951TIP3    H2 2799   3.848   6.245   3.155
  952TIP3   OH2 2800   4.339   5.748   4.165
  952TIP3    H1 2801   4.425   5.705   4.159
  952TIP3    H2 2802   4.360   5.841   4.177
  953TIP3   OH2 2803   4.744   7.336   6.612
  953TIP3    H1 2804   4.723   7.293   6.695
  953TIP3    H2 2805   4.683   7.297   6.549
  954TIP3   OH2 2806   4.859   6.139   1.665
  954TIP3    H1 2807   4.864   6.069   1.600
  954TIP3    H2 2808   4.944   6.182   1.661
  955TIP3   OH2 2809   1.906   4.952   2.467
  955TIP3    H1 2810   1.876   4.902   2.543
  955TIP3    H2 2811   1.841   4.934   2.399
  956TIP3   OH2 2812   4.038   7.312   5.096
  956TIP3    H1 2813   4.085   7.383   5.052
  956TIP3    H2 2814   3.946   7.326   5.072
  957TIP3   OH2 2815   5.554   5.164   6.336
  957TIP3    H1 2816   5.580   5.249   6.302
  957TIP3    H2 2817   5.635   5.114   6.341
  958TIP3   OH2 2818   0.171   2.132   4.133
  958TIP3    H1 2819   0.122   2.053   4.110
  958TIP3    H2 2820   0.107   2.203   4.127
  959TIP3   OH2 2821   0.007   4.255   4.855
  959TIP3    H1 2822   0.000   4.346   4.829
  959TIP3    H2 2823   0.086   4.250   4.908
  960TIP3   OH2 2824   5.422   4.669   2.001
  960TIP3    H1 2825   5.422   4.575   2.022
  960TIP3    H2 2826   5.501   4.703   2.041
  961TIP3   OH2 2827   5.941   3.698   2.089
  961TIP3    H1 2828   5.999   3.629   2.059
  961TIP3    H2 2829   5.996   3.753   2.145
  962TIP3   OH2 2830   7.417   1.169   3.684
  962TIP3    H1 2831   7.376   1.122   3.756
  962TIP3    H2 2832   7.384   1.259   3.692
  963TIP3   OH2 2833   6.508   7.813   3.103
  963TIP3    H1 2834   6.445   7.868   3.057
  963TIP3    H2 2835   6.474   7.724   3.095
  964TIP3   OH2 2836   1.020   4.046   0.843
  964TIP3    H1 2837   1.002   3.984   0.773
  964TIP3    H2 2838   1.109   4.027   0.870
  965TIP3   OH2 2839   7.711   5.351   0.929
  965TIP3    H1 2840   7.638   5.357   0.991
  965TIP3    H2 2841   7.677   5.393   0.850
  966TIP3   OH2 2842   5.548   3.016   1.558
  966TIP3    H1 2843   5.470   3.031   1.611
  966TIP3    H2 2844   5.614   2.987   1.621
  967TIP3   OH2 2845   4.600   5.073   5.349
  967TIP3    H1 2846   4.645   5.005   5.299
  967TIP3    H2 2847   4.558   5.128   5.283
  968TIP3   OH2 2848   4.082   4.125   4.712
  968TIP3    H1 2849   4.154   4.173   4.754
  968TIP3    H2 2850   4.005   4.149   4.764
  969TIP3   OH2 2851   8.168   7.081   5.856
  969TIP3    H1 2852   8.104   7.019   5.890
  969TIP3    H2 2853   8.137   7.101   5.768
  970TIP3   OH2 2854   3.677   0.569   0.563
  970TIP3    H1 2855   3.591   0.598   0.595
  970TIP3    H2 2856   3.730   0.648   0.562
  971TIP3   OH2 2857   3.025   4.513   1.333
  971TIP3    H1 2858   3.093   4.552   1.388
  971TIP3    H2 2859   3.068   4.496   1.249
  972TIP3   OH2 2860   5.083   5.745   1.436
  972TIP3    H1 2861   5.145   5.766   1.366
  972TIP3    H2 2862   5.045   5.830   1.461
  973TIP3   OH2 2863   3.135   3.193   5.680
  973TIP3    H1 2864   3.219   3.147   5.675
  973TIP3    H2 2865   3.148   3.271   5.626
  974TIP3   OH2 2866   5.976   7.247   5.691
  974TIP3    H1 2867   5.893   7.204   5.671
  974TIP3    H2 2868   6.030   7.231   5.614
  975TIP3   OH2 2869   2.437   6.487   2.187
  975TIP3    H1 2870   2.486   6.568   2.201
  975TIP3    H2 2871   2.485   6.442   2.117
  976TIP3   OH2 2872   6.307   6.792   4.073
  976TIP3    H1 2873   6.326   6.794   4.166
  976TIP3    H2 2874   6.250   6.868   4.058
  977TIP3   OH2 2875   0.811   1.751   2.159
  977TIP3    H1 2876   0.816   1.695   2.236
  977TIP3    H2 2877   0.893   1.733   2.112
  978TIP3   OH2 2878   7.551   5.218   1.983
  978TIP3    H1 2879   7.592   5.149   1.931
  978TIP3    H2 2880   7.553   5.185   2.073
  979TIP3   OH2 2881   8.276   5.520   0.726
  979TIP3    H1 2882   8.197   5.571   0.710
  979TIP3    H2 2883   8.343   5.561   0.672
  980TIP3   OH2 2884   2.956   4.391   2.460
  980TIP3    H1 2885   2.968   4.367   2.552
  980TIP3    H2 2886   2.886   4.333   2.428
  981TIP3   OH2 2887   0.568   2.222   2.615
  981TIP3    H1 2888   0.626   2.250   2.685
  981TIP3    H2 2889   0.589   2.281   2.542
  982TIP3   OH2 2890   6.114   3.963   5.436
  982TIP3    H1 2891   6.189   3.908   5.455
  982TIP3    H2 2892   6.110   4.025   5.509
  983TIP3   OH2 2893   0.408   6.447   0.121
  983TIP3    H1 2894   0.383   6.520   0.178
  983TIP3    H2 2895   0.499   6.465   0.099
  984TIP3   OH2 2896   5.084   4.029   0.163
  984TIP3    H1 2897   5.085   3.936   0.187
  984TIP3    H2 2898   5.130   4.073   0.234
  985TIP3   OH2 2899   7.414   5.807   6.104
  985TIP3    H1 2900   7.339   5.844   6.056
  985TIP3    H2 2901   7.446   5.736   6.047
  986TIP3   OH2 2902   2.565   5.394   0.145
  986TIP3    H1 2903   2.570   5.435   0.058
  986TIP3    H2 2904   2.654   5.364   0.162
  987TIP3   OH2 2905  -0.006   6.845   0.230
  987TIP3    H1 2906  -0.042   6.795   0.156
  987TIP3    H2 2907  -0.022   6.936   0.207
  988TIP3   OH2 2908   5.979   4.669   5.703
  988TIP3    H1 2909   5.941   4.734   5.644
  988TIP3    H2 2910   5.958   4.585   5.663
  989TIP3   OH2 2911   6.061   1.479   3.012
  989TIP3    H1 2912   6.131   1.449   2.953
  989TIP3    H2 2913   6.074   1.574   3.018
  990TIP3   OH2 2914   0.102   1.636   0.076
  990TIP3    H1 2915   0.060   1.563   0.032
  990TIP3    H2 2916   0.192   1.608   0.089
  991TIP3   OH2 2917   4.070   0.430   0.434
  991TIP3    H1 2918   4.138   0.419   0.367
  991TIP3    H2 2919   4.017   0.351   0.427
  992TIP3   OH2 2920   0.184   5.726   2.068
  992TIP3    H1 2921   0.202   5.740   2.161
  992TIP3    H2 2922   0.201   5.810   2.027
  993TIP3   OH2 2923   4.507   7.337   5.778
  993TIP3    H1 2924   4.530   7.262   5.724
  993TIP3    H2 2925   4.590   7.362   5.820
  994TIP3   OH2 2926   0.452   5.513   4.493
  994TIP3    H1 2927   0.473   5.566   4.416
  994TIP3    H2 2928   0.382   5.455   4.464
  995TIP3   OH2 2929   1.267   7.386   5.588
  995TIP3    H1 2930   1.258   7.412   5.679
  995TIP3    H2 2931   1.351   7.423   5.560
  996TIP3   OH2 2932   3.620   2.892   5.816
  996TIP3    H1 2933   3.693   2.830   5.815
  996TIP3    H2 2934   3.618   2.927   5.727
  997TIP3   OH2 2935   2.466   4.842   5.090
  997TIP3    H1 2936   2.431   4.785   5.022
  997TIP3    H2 2937   2.446   4.930   5.060
  998TIP3   OH2 2938   3.782   1.925   5.339
  998TIP3    H1 2939   3.835   1.847   5.321
  998TIP3    H2 2940   3.843   1.986   5.381
  999TIP3   OH2 2941   2.964   7.604   3.345
  999TIP3    H1 2942   3.010   7.679   3.381
  999TIP3    H2 2943   2.932   7.634   3.260
 1000TIP3   OH2 2944   3.426   0.770   0.562
 1000TIP3    H1 2945   3.398   0.781   0.471
 1000TIP3    H2 2946   3.466   0.853   0.585
 1001TIP3   OH2 2947   6.905   6.276   4.324
 1001TIP3    H1 2948   6.969   6.337   4.286
 1001TIP3    H2 2949   6.954   6.195   4.336
 1002TIP3   OH2 2950   7.827   6.013   5.167
 1002TIP3    H1 2951   7.903   6.044   5.216
 1002TIP3    H2 2952   7.787   6.093   5.132
 1003TIP3   OH2 2953   0.436   5.773   4.990
 1003TIP3    H1 2954   0.379   5.744   5.061
 1003TIP3    H2 2955   0.497   5.835   5.031
 1004TIP3   OH2 2956   7.602   4.535   0.317
 1004TIP3    H1 2957   7.533   4.473   0.339
 1004TIP3    H2 2958   7.556   4.610   0.278
 1005TIP3   OH2 2959   7.085   1.861   5.355
 1005TIP3    H1 2960   7.033   1.796   5.308
 1005TIP3    H2 2961   7.116   1.816   5.433
 1006TIP3   OH2 2962   5.084   5.999   3.312
 1006TIP3    H1 2963   5.153   6.039   3.365
 1006TIP3    H2 2964   5.073   5.912   3.351
 1007TIP3   OH2 2965   3.783   5.142   4.753
 1007TIP3    H1 2966   3.741   5.082   4.815
 1007TIP3    H2 2967   3.873   5.149   4.783
 1008TIP3   OH2 2968   0.472   1.603   6.515
 1008TIP3    H1 2969   0.421   1.604   6.434
 1008TIP3    H2 2970   0.418   1.554   6.576
 1009TIP3   OH2 2971   6.499   0.570   2.502
 1009TIP3    H1 2972   6.498   0.587   2.597
 1009TIP3    H2 2973   6.509   0.475   2.496
 1010TIP3   OH2 2974   0.272   7.441   2.176
 1010TIP3    H1 2975   0.220   7.361   2.177
 1010TIP3    H2 2976   0.277   7.466   2.084
 1011TIP3   OH2 2977   6.854   2.857   3.065
 1011TIP3    H1 2978   6.829   2.828   3.153
 1011TIP3    H2 2979   6.773   2.854   3.015
 1012TIP3   OH2 2980   0.316   3.247   1.289
 1012TIP3    H1 2981   0.358   3.332   1.279
 1012TIP3    H2 2982   0.380   3.185   1.256
 1013TIP3   OH2 2983   3.737   6.706   4.447
 1013TIP3    H1 2984   3.657   6.666   4.411
 1013TIP3    H2 2985   3.706   6.778   4.501
 1014TIP3   OH2 2986   4.333   3.633   6.683
 1014TIP3    H1 2987   4.415   3.636   6.635
 1014TIP3    H2 2988   4.275   3.581   6.628
 1015TIP3   OH2 2989   0.943   4.198   5.839
 1015TIP3    H1 2990   0.869   4.166   5.789
 1015TIP3    H2 2991   0.946   4.292   5.821
 1016TIP3   OH2 2992   5.638   3.267   0.376
 1016TIP3    H1 2993   5.585   3.241   0.451
 1016TIP3    H2 2994   5.584   3.330   0.328
 1017TIP3   OH2 2995   2.433   5.980   0.145
 1017TIP3    H1 2996   2.425   6.049   0.080
 1017TIP3    H2 2997   2.431   5.899   0.095
 1018TIP3   OH2 2998   2.984   2.355   6.171
 1018TIP3    H1 2999   3.052   2.299   6.133
 1018TIP3    H2 3000   3.033   2.423   6.218
 1019TIP3   OH2 3001   1.871   1.761   6.337
 1019TIP3    H1 3002   1.950   1.765   6.392
 1019TIP3    H2 3003   1.807   1.715   6.391
 1020TIP3   OH2 3004   4.468   0.619   3.461
 1020TIP3    H1 3005   4.468   0.671   3.380
 1020TIP3    H2 3006   4.556   0.629   3.496
 1021TIP3   OH2 3007   3.397   3.791   2.485
 1021TIP3    H1 3008   3.412   3.706   2.445
 1021TIP3    H2 3009   3.305   3.790   2.512
 1022TIP3   OH2 3010   0.751   3.788   4.320
 1022TIP3    H1 3011   0.789   3.813   4.236
 1022TIP3    H2 3012   0.663   3.826   4.319
 1023TIP3   OH2 3013   0.324   0.118   0.140
 1023TIP3    H1 3014   0.263   0.112   0.214
 1023TIP3    H2 3015   0.356   0.029   0.128
 1024TIP3   OH2 3016   0.445   1.016   1.430
 1024TIP3    H1 3017   0.355   1.035   1.457
 1024TIP3    H2 3018   0.499   1.071   1.485
 1025TIP3   OH2 3019   4.111   4.577   0.198
 1025TIP3    H1 3020   4.053   4.557   0.272
 1025TIP3    H2 3021   4.062   4.642   0.147
 1026TIP3   OH2 3022   4.207   5.814   2.946
 1026TIP3    H1 3023   4.133   5.856   2.991
 1026TIP3    H2 3024   4.228   5.738   3.000
 1027TIP3   OH2 3025   4.054   7.513   1.409
 1027TIP3    H1 3026   4.121   7.558   1.460
 1027TIP3    H2 3027   4.092   7.502   1.322
 1028TIP3   OH2 3028   4.472   2.906   0.469
 1028TIP3    H1 3029   4.442   2.872   0.553
 1028TIP3    H2 3030   4.567   2.910   0.477
 1029TIP3   OH2 3031   4.977   3.710   2.946
 1029TIP3    H1 3032   4.917   3.769   2.992
 1029TIP3    H2 3033   4.975   3.629   2.998
 1030TIP3   OH2 3034   5.180   3.921   4.782
 1030TIP3    H1 3035   5.091   3.947   4.806
 1030TIP3    H2 3036   5.233   3.938   4.860
 1031TIP3   OH2 3037   6.960   5.161   6.419
 1031TIP3    H1 3038   6.883   5.111   6.394
 1031TIP3    H2 3039   6.930   5.217   6.491
 1032TIP3   OH2 3040   7.505   2.176   6.527
 1032TIP3    H1 3041   7.496   2.137   6.441
 1032TIP3    H2 3042   7.482   2.268   6.515
 1033TIP3   OH2 3043   3.817   1.788   0.938
 1033TIP3    H1 3044   3.751   1.856   0.948
 1033TIP3    H2 3045   3.783   1.731   0.869
 1034TIP3   OH2 3046   7.193   3.887   5.828
 1034TIP3    H1 3047   7.139   3.808   5.834
 1034TIP3    H2 3048   7.135   3.954   5.792
 1035TIP3   OH2 3049   0.163   6.733   0.923
 1035TIP3    H1 3050   0.160   6.689   1.008
 1035TIP3    H2 3051   0.074   6.768   0.911
 1036TIP3   OH2 3052   1.278   4.428   2.740
 1036TIP3    H1 3053   1.351   4.490   2.742
 1036TIP3    H2 3054   1.242   4.431   2.829
 1037TIP3   OH2 3055   0.456   5.231   2.362
 1037TIP3    H1 3056   0.536   5.265   2.323
 1037TIP3    H2 3057   0.484   5.156   2.415
 1038TIP3   OH2 3058   3.809   0.480   4.416
 1038TIP3    H1 3059   3.766   0.498   4.499
 1038TIP3    H2 3060   3.891   0.437   4.440
 1039TIP3   OH2 3061   2.393   0.540   0.063
 1039TIP3    H1 3062   2.313   0.557   0.112
 1039TIP3    H2 3063   2.461   0.531   0.130
 1040TIP3   OH2 3064   4.814   5.960   3.514
 1040TIP3    H1 3065   4.818   6.050   3.482
 1040TIP3    H2 3066   4.786   5.968   3.606
 1041TIP3   OH2 3067   0.953   7.764   0.289
 1041TIP3    H1 3068   0.889   7.693   0.286
 1041TIP3    H2 3069   1.018   7.740   0.222
 1042TIP3   OH2 3070   2.274   3.742   1.745
 1042TIP3    H1 3071   2.312   3.811   1.799
 1042TIP3    H2 3072   2.242   3.677   1.807
 1043TIP3   OH2 3073   6.838   0.790   6.322
 1043TIP3    H1 3074   6.879   0.759   6.242
 1043TIP3    H2 3075   6.887   0.870   6.345
 1044TIP3   OH2 3076   8.302   5.424   3.434
 1044TIP3    H1 3077   8.276   5.401   3.524
 1044TIP3    H2 3078   8.234   5.385   3.379
 1045TIP3   OH2 3079   8.096   7.110   2.689
 1045TIP3    H1 3080   8.090   7.124   2.594
 1045TIP3    H2 3081   8.027   7.048   2.709
 1046TIP3   OH2 3082   5.968   4.714   1.991
 1046TIP3    H1 3083   5.920   4.698   2.073
 1046TIP3    H2 3084   5.947   4.640   1.935
 1047TIP3   OH2 3085   2.501   4.990   3.143
 1047TIP3    H1 3086   2.550   4.959   3.218
 1047TIP3    H2 3087   2.544   4.949   3.067
 1048TIP3   OH2 3088   2.654   2.055   1.355
 1048TIP3    H1 3089   2.642   2.106   1.436
 1048TIP3    H2 3090   2.748   2.063   1.336
 1049TIP3   OH2 3091   3.837   1.771   3.580
 1049TIP3    H1 3092   3.837   1.867   3.576
 1049TIP3    H2 3093   3.772   1.744   3.515
 1050TIP3   OH2 3094   7.412   3.842   1.781
 1050TIP3    H1 3095   7.484   3.901   1.760
 1050TIP3    H2 3096   7.374   3.819   1.697
 1051TIP3   OH2 3097   4.286   5.809   5.470
 1051TIP3    H1 3098   4.350   5.878   5.453
 1051TIP3    H2 3099   4.273   5.810   5.565
 1052TIP3   OH2 3100   7.506   5.308   4.258
 1052TIP3    H1 3101   7.509   5.378   4.323
 1052TIP3    H2 3102   7.451   5.342   4.188
 1053TIP3   OH2 3103   7.774   2.450   5.906
 1053TIP3    H1 3104   7.848   2.495   5.866
 1053TIP3    H2 3105   7.771   2.365   5.862
 1054TIP3   OH2 3106   8.035   2.707   4.751
 1054TIP3    H1 3107   8.086   2.688   4.672
 1054TIP3    H2 3108   8.046   2.629   4.805
 1055TIP3   OH2 3109   2.246   0.614   1.885
 1055TIP3    H1 3110   2.202   0.534   1.913
 1055TIP3    H2 3111   2.255   0.605   1.791
 1056TIP3   OH2 3112   4.184   5.109   3.856
 1056TIP3    H1 3113   4.194   5.122   3.761
 1056TIP3    H2 3114   4.274   5.103   3.889
 1057TIP3   OH2 3115   4.093   3.894   4.521
 1057TIP3    H1 3116   4.114   3.959   4.589
 1057TIP3    H2 3117   4.174   3.845   4.509
 1058TIP3   OH2 3118   5.349   2.359   6.364
 1058TIP3    H1 3119   5.290   2.311   6.422
 1058TIP3    H2 3120   5.437   2.331   6.389
 1059TIP3   OH2 3121   0.207   1.372   0.283
 1059TIP3    H1 3122   0.267   1.440   0.253
 1059TIP3    H2 3123   0.218   1.300   0.220
 1060TIP3   OH2 3124   7.268   4.820   4.581
 1060TIP3    H1 3125   7.245   4.898   4.530
 1060TIP3    H2 3126   7.184   4.776   4.595
 1061TIP3   OH2 3127   6.781   5.417   3.788
 1061TIP3    H1 3128   6.726   5.378   3.720
 1061TIP3    H2 3129   6.766   5.363   3.866
 1062TIP3   OH2 3130   4.240   7.342   3.445
 1062TIP3    H1 3131   4.152   7.318   3.415
 1062TIP3    H2 3132   4.285   7.370   3.365
 1063TIP3   OH2 3133   1.829   6.260   4.843
 1063TIP3    H1 3134   1.833   6.190   4.908
 1063TIP3    H2 3135   1.822   6.214   4.759
 1064TIP3   OH2 3136   5.820   3.394   4.771
 1064TIP3    H1 3137   5.847   3.453   4.842
 1064TIP3    H2 3138   5.772   3.451   4.710
 1065TIP3   OH2 3139   4.270   7.407   4.230
 1065TIP3    H1 3140   4.234   7.493   4.250
 1065TIP3    H2 3141   4.364   7.422   4.220
 1066TIP3   OH2 3142   0.057   2.686   1.060
 1066TIP3    H1 3143   0.105   2.671   1.142
 1066TIP3    H2 3144   0.011   2.603   1.044
 1067TIP3   OH2 3145   5.384   1.046   1.857
 1067TIP3    H1 3146   5.424   0.992   1.926
 1067TIP3    H2 3147   5.333   0.984   1.805
 1068TIP3   OH2 3148   1.798   4.748   6.317
 1068TIP3    H1 3149   1.767   4.777   6.231
 1068TIP3    H2 3150   1.727   4.770   6.377
 1069TIP3   OH2 3151   2.956   1.591   4.891
 1069TIP3    H1 3152   2.996   1.673   4.922
 1069TIP3    H2 3153   2.884   1.575   4.952
 1070TIP3   OH2 3154   6.250   5.602   6.127
 1070TIP3    H1 3155   6.326   5.658   6.139
 1070TIP3    H2 3156   6.176   5.663   6.121
 1071TIP3   OH2 3157   0.589   7.372   1.367
 1071TIP3    H1 3158   0.509   7.407   1.327
 1071TIP3    H2 3159   0.578   7.277   1.364
 1072TIP3   OH2 3160   0.515   1.276   6.699
 1072TIP3    H1 3161   0.534   1.216   6.627
 1072TIP3    H2 3162   0.572   1.247   6.770
 1073TIP3   OH2 3163   6.904   2.639   5.445
 1073TIP3    H1 3164   6.886   2.572   5.511
 1073TIP3    H2 3165   6.970   2.598   5.388
 1074TIP3   OH2 3166   7.150   0.501   1.848
 1074TIP3    H1 3167   7.123   0.569   1.909
 1074TIP3    H2 3168   7.193   0.435   1.903
 1075TIP3   OH2 3169   6.850   2.856   1.647
 1075TIP3    H1 3170   6.765   2.837   1.607
 1075TIP3    H2 3171   6.864   2.950   1.631
 1076TIP3   OH2 3172   7.315   2.901   4.476
 1076TIP3    H1 3173   7.358   2.987   4.481
 1076TIP3    H2 3174   7.267   2.903   4.394
 1077TIP3   OH2 3175   0.342   6.978   2.821
 1077TIP3    H1 3176   0.273   7.017   2.768
 1077TIP3    H2 3177   0.308   6.891   2.845
 1078TIP3   OH2 3178   5.715   5.838   1.384
 1078TIP3    H1 3179   5.729   5.807   1.473
 1078TIP3    H2 3180   5.634   5.794   1.356
 1079TIP3   OH2 3181   7.279   6.553   1.269
 1079TIP3    H1 3182   7.247   6.470   1.302
 1079TIP3    H2 3183   7.374   6.541   1.264
 1080TIP3   OH2 3184   1.135   2.905   5.373
 1080TIP3    H1 3185   1.181   2.917   5.290
 1080TIP3    H2 3186   1.175   2.826   5.411
 1081TIP3   OH2 3187   2.570   6.549   1.068
 1081TIP3    H1 3188   2.591   6.617   1.003
 1081TIP3    H2 3189   2.599   6.467   1.027
 1082TIP3   OH2 3190   3.549   6.751   2.797
 1082TIP3    H1 3191   3.474   6.693   2.783
 1082TIP3    H2 3192   3.546   6.813   2.724
 1083TIP3   OH2 3193   1.686   6.340   5.098
 1083TIP3    H1 3194   1.692   6.250   5.066
 1083TIP3    H2 3195   1.593   6.351   5.120
 1084TIP3   OH2 3196   2.037   4.343   2.642
 1084TIP3    H1 3197   1.949   4.306   2.638
 1084TIP3    H2 3198   2.048   4.388   2.559
 1085TIP3   OH2 3199   5.184   2.887   5.292
 1085TIP3    H1 3200   5.161   2.810   5.343
 1085TIP3    H2 3201   5.242   2.937   5.349
 1086TIP3   OH2 3202   1.851   5.383   2.529
 1086TIP3    H1 3203   1.902   5.462   2.544
 1086TIP3    H2 3204   1.886   5.319   2.592
 1087TIP3   OH2 3205   3.762   6.724   0.581
 1087TIP3    H1 3206   3.678   6.770   0.577
 1087TIP3    H2 3207   3.750   6.658   0.649
 1088TIP3   OH2 3208   1.261   4.054   3.562
 1088TIP3    H1 3209   1.291   3.964   3.557
 1088TIP3    H2 3210   1.286   4.093   3.478
 1089TIP3   OH2 3211   0.186   5.413   2.905
 1089TIP3    H1 3212   0.231   5.491   2.935
 1089TIP3    H2 3213   0.108   5.446   2.860
 1090TIP3   OH2 3214   5.069   3.845   2.384
 1090TIP3    H1 3215   5.057   3.877   2.473
 1090TIP3    H2 3216   5.147   3.891   2.352
 1091TIP3   OH2 3217   4.888   7.511   2.772
 1091TIP3    H1 3218   4.857   7.602   2.766
 1091TIP3    H2 3219   4.829   7.470   2.835
 1092TIP3   OH2 3220   1.612   6.517   4.723
 1092TIP3    H1 3221   1.659   6.444   4.685
 1092TIP3    H2 3222   1.525   6.482   4.745
 1093TIP3   OH2 3223   0.241   5.781   2.340
 1093TIP3    H1 3224   0.307   5.757   2.405
 1093TIP3    H2 3225   0.157   5.758   2.381
 1094TIP3   OH2 3226   8.126   2.286   1.270
 1094TIP3    H1 3227   8.197   2.344   1.243
 1094TIP3    H2 3228   8.171   2.213   1.314
 1095TIP3   OH2 3229   6.310   5.726   6.539
 1095TIP3    H1 3230   6.311   5.811   6.495
 1095TIP3    H2 3231   6.402   5.699   6.541
 1096TIP3   OH2 3232   6.865   0.361   1.784
 1096TIP3    H1 3233   6.896   0.357   1.694
 1096TIP3    H2 3234   6.930   0.311   1.834
 1097TIP3   OH2 3235   4.239   6.099   2.872
 1097TIP3    H1 3236   4.331   6.082   2.894
 1097TIP3    H2 3237   4.190   6.033   2.921
 1098TIP3   OH2 3238   7.529   7.609   4.587
 1098TIP3    H1 3239   7.543   7.546   4.658
 1098TIP3    H2 3240   7.577   7.687   4.614
 1099TIP3   OH2 3241   7.016   0.755   0.109
 1099TIP3    H1 3242   7.086   0.772   0.046
 1099TIP3    H2 3243   6.957   0.830   0.099
 1100TIP3   OH2 3244   0.420   5.095   5.565
 1100TIP3    H1 3245   0.349   5.154   5.540
 1100TIP3    H2 3246   0.396   5.064   5.652
 1101TIP3   OH2 3247   5.160   2.962   2.810
 1101TIP3    H1 3248   5.133   3.029   2.873
 1101TIP3    H2 3249   5.256   2.968   2.808
 1102TIP3   OH2 3250   4.520   0.606   6.614
 1102TIP3    H1 3251   4.577   0.673   6.651
 1102TIP3    H2 3252   4.432   0.642   6.624
 1103TIP3   OH2 3253   2.355   4.034   4.486
 1103TIP3    H1 3254   2.437   4.057   4.441
 1103TIP3    H2 3255   2.346   3.940   4.471
 1104TIP3   OH2 3256   3.024   3.321   5.219
 1104TIP3    H1 3257   3.076   3.368   5.284
 1104TIP3    H2 3258   2.962   3.386   5.186
 1105TIP3   OH2 3259   1.713   2.388   4.345
 1105TIP3    H1 3260   1.668   2.438   4.413
 1105TIP3    H2 3261   1.705   2.296   4.374
 1106TIP3   OH2 3262   4.661   2.185   0.048
 1106TIP3    H1 3263   4.580   2.157   0.092
 1106TIP3    H2 3264   4.636   2.263   0.000
 1107TIP3   OH2 3265   5.968   7.307   5.356
 1107TIP3    H1 3266   5.913   7.230   5.367
 1107TIP3    H2 3267   5.908   7.381   5.360
 1108TIP3   OH2 3268   2.508   5.146   3.908
 1108TIP3    H1 3269   2.493   5.177   3.818
 1108TIP3    H2 3270   2.603   5.142   3.916
 1109TIP3   OH2 3271   2.136   1.659   1.256
 1109TIP3    H1 3272   2.148   1.754   1.249
 1109TIP3    H2 3273   2.078   1.636   1.184
 1110TIP3   OH2 3274   2.556   0.920   0.826
 1110TIP3    H1 3275   2.651   0.925   0.826
 1110TIP3    H2 3276   2.528   0.996   0.876
 1111TIP3   OH2 3277   3.868   1.825   1.952
 1111TIP3    H1 3278   3.797   1.779   1.995
 1111TIP3    H2 3279   3.858   1.916   1.979
 1112TIP3   OH2 3280   7.756   3.451   6.553
 1112TIP3    H1 3281   7.837   3.407   6.527
 1112TIP3    H2 3282   7.742   3.425   6.643
 1113TIP3   OH2 3283   6.770   4.748   5.233
 1113TIP3    H1 3284   6.682   4.731   5.197
 1113TIP3    H2 3285   6.802   4.823   5.182
 1114TIP3   OH2 3286   3.320   4.391   1.392
 1114TIP3    H1 3287   3.276   4.318   1.436
 1114TIP3    H2 3288   3.411   4.386   1.423
 1115TIP3   OH2 3289   1.224   5.383   5.395
 1115TIP3    H1 3290   1.312   5.363   5.365
 1115TIP3    H2 3291   1.173   5.305   5.375
 1116TIP3   OH2 3292   5.397   7.199   3.599
 1116TIP3    H1 3293   5.378   7.143   3.674
 1116TIP3    H2 3294   5.364   7.285   3.624
 1117TIP3   OH2 3295   0.845   0.555   0.364
 1117TIP3    H1 3296   0.817   0.615   0.294
 1117TIP3    H2 3297   0.885   0.481   0.319
 1118TIP3   OH2 3298   1.225   6.691   5.257
 1118TIP3    H1 3299   1.291   6.759   5.269
 1118TIP3    H2 3300   1.156   6.713   5.319
 1119TIP3   OH2 3301   7.103   6.867   5.095
 1119TIP3    H1 3302   7.178   6.812   5.118
 1119TIP3    H2 3303   7.138   6.956   5.091
 1120TIP3   OH2 3304   0.201   6.145   3.501
 1120TIP3    H1 3305   0.209   6.051   3.485
 1120TIP3    H2 3306   0.157   6.179   3.422
 1121TIP3   OH2 3307   1.093   6.591   1.486
 1121TIP3    H1 3308   1.089   6.687   1.485
 1121TIP3    H2 3309   1.010   6.563   1.447
 1122TIP3   OH2 3310   8.249   1.268   4.271
 1122TIP3    H1 3311   8.223   1.253   4.362
 1122TIP3    H2 3312   8.237   1.184   4.228
 1123TIP3   OH2 3313   7.018   5.046   3.416
 1123TIP3    H1 3314   7.057   5.002   3.340
 1123TIP3    H2 3315   7.074   5.020   3.490
 1124TIP3   OH2 3316   6.333   1.400   0.669
 1124TIP3    H1 3317   6.415   1.367   0.704
 1124TIP3    H2 3318   6.265   1.351   0.714
 1125TIP3   OH2 3319   6.761   5.322   2.798
 1125TIP3    H1 3320   6.770   5.258   2.727
 1125TIP3    H2 3321   6.701   5.281   2.859
 1126TIP3   OH2 3322   4.279   3.691   2.589
 1126TIP3    H1 3323   4.341   3.745   2.639
 1126TIP3    H2 3324   4.258   3.745   2.513
 1127TIP3   OH2 3325   3.043   6.608   1.784
 1127TIP3    H1 3326   3.040   6.558   1.703
 1127TIP3    H2 3327   2.989   6.685   1.766
 1128TIP3   OH2 3328   6.374   5.743   4.069
 1128TIP3    H1 3329   6.436   5.714   4.002
 1128TIP3    H2 3330   6.342   5.662   4.109
 1129TIP3   OH2 3331   0.140   7.187   2.181
 1129TIP3    H1 3332   0.177   7.099   2.187
 1129TIP3    H2 3333   0.167   7.218   2.095
 1130TIP3   OH2 3334   7.007   6.873   2.134
 1130TIP3    H1 3335   6.941   6.934   2.167
 1130TIP3    H2 3336   7.011   6.804   2.200
 1131TIP3   OH2 3337   6.000   6.565   3.075
 1131TIP3    H1 3338   5.960   6.644   3.037
 1131TIP3    H2 3339   6.060   6.534   3.008
 1132TIP3   OH2 3340   1.872   1.432   6.581
 1132TIP3    H1 3341   1.806   1.368   6.605
 1132TIP3    H2 3342   1.823   1.509   6.552
 1133TIP3   OH2 3343   4.923   6.985   0.068
 1133TIP3    H1 3344   4.867   7.051   0.026
 1133TIP3    H2 3345   4.972   7.034   0.134
 1134TIP3   OH2 3346   1.446   5.128   5.987
 1134TIP3    H1 3347   1.414   5.117   5.898
 1134TIP3    H2 3348   1.521   5.187   5.978
 1135TIP3   OH2 3349   7.589   3.362   2.326
 1135TIP3    H1 3350   7.633   3.323   2.402
 1135TIP3    H2 3351   7.500   3.380   2.355
 1136TIP3   OH2 3352   6.603   2.284   5.915
 1136TIP3    H1 3353   6.636   2.203   5.954
 1136TIP3    H2 3354   6.665   2.304   5.845
 1137TIP3   OH2 3355   4.041   6.690   2.329
 1137TIP3    H1 3356   4.004   6.603   2.340
 1137TIP3    H2 3357   4.135   6.679   2.345
 1138TIP3   OH2 3358   0.015   2.477   5.644
 1138TIP3    H1 3359   0.098   2.498   5.688
 1138TIP3    H2 3360  -0.017   2.399   5.690
 1139TIP3   OH2 3361   1.505   4.062   4.274
 1139TIP3    H1 3362   1.582   4.115   4.297
 1139TIP3    H2 3363   1.483   4.091   4.186
 1140TIP3   OH2 3364   7.623   0.019   5.421
 1140TIP3    H1 3365   7.641   0.057   5.335
 1140TIP3    H2 3366   7.539  -0.026   5.410
 1141TIP3   OH2 3367   6.647   6.366   4.347
 1141TIP3    H1 3368   6.737   6.334   4.336
 1141TIP3    H2 3369   6.594   6.287   4.350
 1142TIP3   OH2 3370   8.094   2.125   6.524
 1142TIP3    H1 3371   8.123   2.066   6.454
 1142TIP3    H2 3372   8.132   2.210   6.501
 1143TIP3   OH2 3373   1.172   5.693   6.217
 1143TIP3    H1 3374   1.187   5.630   6.287
 1143TIP3    H2 3375   1.254   5.696   6.168
 1144TIP3   OH2 3376   5.885   3.347   1.765
 1144TIP3    H1 3377   5.901   3.430   1.721
 1144TIP3    H2 3378   5.791   3.331   1.753
 1145TIP3   OH2 3379   5.501   3.824   4.604
 1145TIP3    H1 3380   5.465   3.767   4.672
 1145TIP3    H2 3381   5.473   3.784   4.522
 1146TIP3   OH2 3382   2.638   6.601   5.803
 1146TIP3    H1 3383   2.730   6.581   5.818
 1146TIP3    H2 3384   2.594   6.572   5.884
 1147TIP3   OH2 3385   4.959   1.056   6.572
 1147TIP3    H1 3386   4.887   1.119   6.570
 1147TIP3    H2 3387   4.952   1.010   6.488
 1148TIP3   OH2 3388   4.235   4.816   3.037
 1148TIP3    H1 3389   4.155   4.819   2.984
 1148TIP3    H2 3390   4.242   4.904   3.074
 1149TIP3   OH2 3391   0.399   1.776   2.724
 1149TIP3    H1 3392   0.425   1.722   2.799
 1149TIP3    H2 3393   0.407   1.866   2.754
 1150TIP3   OH2 3394   2.308   6.627   3.418
 1150TIP3    H1 3395   2.338   6.678   3.343
 1150TIP3    H2 3396   2.382   6.571   3.441
 1151TIP3   OH2 3397   2.471   1.874   4.585
 1151TIP3    H1 3398   2.390   1.840   4.545
 1151TIP3    H2 3399   2.450   1.965   4.607
 1152TIP3   OH2 3400   0.417   1.051   1.800
 1152TIP3    H1 3401   0.502   1.008   1.808
 1152TIP3    H2 3402   0.425   1.129   1.856
 1153TIP3   OH2 3403   6.311   6.706   5.130
 1153TIP3    H1 3404   6.280   6.642   5.195
 1153TIP3    H2 3405   6.245   6.704   5.061
 1154TIP3   OH2 3406   4.194   1.645   4.081
 1154TIP3    H1 3407   4.189   1.612   3.991
 1154TIP3    H2 3408   4.137   1.587   4.131
 1155TIP3   OH2 3409   3.985   7.425   5.687
 1155TIP3    H1 3410   4.060   7.448   5.742
 1155TIP3    H2 3411   3.974   7.331   5.698
 1156TIP3   OH2 3412   1.848   7.362   3.752
 1156TIP3    H1 3413   1.777   7.314   3.708
 1156TIP3    H2 3414   1.918   7.364   3.687
 1157TIP3   OH2 3415   8.285   3.851   1.238
 1157TIP3    H1 3416   8.304   3.932   1.191
 1157TIP3    H2 3417   8.189   3.847   1.240
 1158TIP3   OH2 3418   4.355   0.062   4.127
 1158TIP3    H1 3419   4.415   0.125   4.167
 1158TIP3    H2 3420   4.363   0.076   4.033
 1159TIP3   OH2 3421   5.288   1.441   3.774
 1159TIP3    H1 3422   5.320   1.487   3.852
 1159TIP3    H2 3423   5.299   1.348   3.795
 1160TIP3   OH2 3424   2.113   6.650   1.818
 1160TIP3    H1 3425   2.181   6.593   1.853
 1160TIP3    H2 3426   2.108   6.723   1.880
 1161TIP3   OH2 3427   2.144   2.660   2.361
 1161TIP3    H1 3428   2.230   2.679   2.323
 1161TIP3    H2 3429   2.124   2.737   2.414
 1162TIP3   OH2 3430   3.903   1.101   0.376
 1162TIP3    H1 3431   3.898   1.177   0.318
 1162TIP3    H2 3432   3.892   1.026   0.317
 1163TIP3   OH2 3433   0.811   3.766   2.280
 1163TIP3    H1 3434   0.885   3.800   2.330
 1163TIP3    H2 3435   0.735   3.781   2.336
 1164TIP3   OH2 3436   5.335   0.257   0.490
 1164TIP3    H1 3437   5.390   0.250   0.568
 1164TIP3    H2 3438   5.396   0.278   0.420
 1165TIP3   OH2 3439   2.966   2.976   3.944
 1165TIP3    H1 3440   2.885   2.935   3.914
 1165TIP3    H2 3441   3.019   2.903   3.976
 1166TIP3   OH2 3442   5.506   3.494   6.585
 1166TIP3    H1 3443   5.485   3.537   6.502
 1166TIP3    H2 3444   5.479   3.403   6.573
 1167TIP3   OH2 3445   2.189   7.572   1.391
 1167TIP3    H1 3446   2.166   7.627   1.466
 1167TIP3    H2 3447   2.235   7.631   1.332
 1168TIP3   OH2 3448   1.250   7.124   2.040
 1168TIP3    H1 3449   1.160   7.157   2.033
 1168TIP3    H2 3450   1.240   7.029   2.050
 1169TIP3   OH2 3451   4.332   6.125   1.563
 1169TIP3    H1 3452   4.412   6.072   1.563
 1169TIP3    H2 3453   4.294   6.110   1.476
 1170TIP3   OH2 3454   2.131   1.729   6.435
 1170TIP3    H1 3455   2.218   1.733   6.396
 1170TIP3    H2 3456   2.099   1.820   6.431
 1171TIP3   OH2 3457   7.578   2.046   5.168
 1171TIP3    H1 3458   7.638   1.980   5.202
 1171TIP3    H2 3459   7.530   2.002   5.099
 1172TIP3   OH2 3460   2.602   7.517   4.319
 1172TIP3    H1 3461   2.604   7.603   4.361
 1172TIP3    H2 3462   2.678   7.517   4.261
 1173TIP3   OH2 3463   5.607   3.832   6.418
 1173TIP3    H1 3464   5.542   3.876   6.473
 1173TIP3    H2 3465   5.650   3.770   6.477
 1174TIP3   OH2 3466   5.401   4.871   0.994
 1174TIP3    H1 3467   5.459   4.854   0.919
 1174TIP3    H2 3468   5.330   4.808   0.983
 1175TIP3   OH2 3469   8.086   0.391   0.258
 1175TIP3    H1 3470   8.091   0.351   0.172
 1175TIP3    H2 3471   8.005   0.356   0.296
 1176TIP3   OH2 3472   3.555   2.616   4.782
 1176TIP3    H1 3473   3.512   2.696   4.752
 1176TIP3    H2 3474   3.529   2.550   4.719
 1177TIP3   OH2 3475   4.790   2.486   1.651
 1177TIP3    H1 3476   4.707   2.479   1.604
 1177TIP3    H2 3477   4.851   2.433   1.600
 1178TIP3   OH2 3478   4.752   7.125   3.610
 1178TIP3    H1 3479   4.803   7.082   3.541
 1178TIP3    H2 3480   4.684   7.174   3.563
 1179TIP3   OH2 3481   6.221   5.253   5.611
 1179TIP3    H1 3482   6.194   5.171   5.569
 1179TIP3    H2 3483   6.220   5.232   5.704
 1180TIP3   OH2 3484   1.537   7.119   3.025
 1180TIP3    H1 3485   1.571   7.098   2.938
 1180TIP3    H2 3486   1.611   7.161   3.070
 1181TIP3   OH2 3487   5.720   6.082   6.734
 1181TIP3    H1 3488   5.639   6.106   6.778
 1181TIP3    H2 3489   5.698   6.086   6.640
 1182TIP3   OH2 3490   5.739   5.413   2.706
 1182TIP3    H1 3491   5.668   5.351   2.692
 1182TIP3    H2 3492   5.701   5.480   2.763
 1183TIP3   OH2 3493   8.018   0.088   0.968
 1183TIP3    H1 3494   7.944   0.045   1.010
 1183TIP3    H2 3495   8.076   0.113   1.040
 1184TIP3   OH2 3496   5.555   0.608   4.144
 1184TIP3    H1 3497   5.470   0.596   4.103
 1184TIP3    H2 3498   5.549   0.562   4.227
 1185TIP3   OH2 3499   3.913   2.568   5.115
 1185TIP3    H1 3500   3.914   2.657   5.150
 1185TIP3    H2 3501   3.931   2.580   5.021
 1186TIP3   OH2 3502   2.211   5.106   2.149
 1186TIP3    H1 3503   2.131   5.104   2.201
 1186TIP3    H2 3504   2.267   5.171   2.191
 1187TIP3   OH2 3505   3.006   7.407   2.981
 1187TIP3    H1 3506   2.970   7.419   3.069
 1187TIP3    H2 3507   2.934   7.368   2.930
 1188TIP3   OH2 3508   3.635   3.406   2.686
 1188TIP3    H1 3509   3.655   3.456   2.765
 1188TIP3    H2 3510   3.691   3.329   2.692
 1189TIP3   OH2 3511   3.978   1.756   5.255
 1189TIP3    H1 3512   4.027   1.821   5.204
 1189TIP3    H2 3513   4.021   1.673   5.235
 1190TIP3   OH2 3514   8.189   4.928   3.008
 1190TIP3    H1 3515   8.278   4.961   3.018
 1190TIP3    H2 3516   8.151   4.981   2.938
 1191TIP3   OH2 3517   7.617   5.464   0.707
 1191TIP3    H1 3518   7.575   5.540   0.668
 1191TIP3    H2 3519   7.670   5.426   0.636
 1192TIP3   OH2 3520   3.819   6.927   5.085
 1192TIP3    H1 3521   3.768   6.851   5.055
 1192TIP3    H2 3522   3.815   6.988   5.011
 1193TIP3   OH2 3523   4.208   5.053   5.712
 1193TIP3    H1 3524   4.290   5.066   5.664
 1193TIP3    H2 3525   4.156   5.131   5.690
 1194TIP3   OH2 3526   0.686   4.373   3.766
 1194TIP3    H1 3527   0.680   4.377   3.862
 1194TIP3    H2 3528   0.678   4.464   3.738
 1195TIP3   OH2 3529   7.620   7.541   2.084
 1195TIP3    H1 3530   7.548   7.523   2.143
 1195TIP3    H2 3531   7.579   7.555   1.999
 1196TIP3   OH2 3532   2.179   0.553   0.241
 1196TIP3    H1 3533   2.142   0.581   0.325
 1196TIP3    H2 3534   2.116   0.489   0.207
 1197TIP3   OH2 3535   0.026   4.789   3.914
 1197TIP3    H1 3536   0.037   4.855   3.845
 1197TIP3    H2 3537   0.060   4.709   3.875
 1198TIP3   OH2 3538   0.380   2.771   5.645
 1198TIP3    H1 3539   0.464   2.751   5.687
 1198TIP3    H2 3540   0.360   2.860   5.673
 1199TIP3   OH2 3541   3.746   2.542   1.424
 1199TIP3    H1 3542   3.802   2.609   1.385
 1199TIP3    H2 3543   3.801   2.501   1.492
 1200TIP3   OH2 3544   7.104   1.674   1.929
 1200TIP3    H1 3545   7.122   1.748   1.988
 1200TIP3    H2 3546   7.044   1.618   1.978
 1201TIP3   OH2 3547   1.111   6.245   1.917
 1201TIP3    H1 3548   1.132   6.160   1.956
 1201TIP3    H2 3549   1.072   6.296   1.988
 1202TIP3   OH2 3550   7.523   2.066   1.476
 1202TIP3    H1 3551   7.430   2.086   1.479
 1202TIP3    H2 3552   7.564   2.146   1.442
 1203TIP3   OH2 3553   2.311   6.981   2.368
 1203TIP3    H1 3554   2.397   7.021   2.352
 1203TIP3    H2 3555   2.331   6.900   2.414
 1204TIP3   OH2 3556   2.912   5.548   3.828
 1204TIP3    H1 3557   2.871   5.476   3.780
 1204TIP3    H2 3558   2.843   5.578   3.888
 1205TIP3   OH2 3559   4.288   6.115   5.027
 1205TIP3    H1 3560   4.204   6.149   5.057
 1205TIP3    H2 3561   4.274   6.095   4.934
 1206TIP3   OH2 3562   1.524   6.893   1.130
 1206TIP3    H1 3563   1.584   6.885   1.056
 1206TIP3    H2 3564   1.481   6.807   1.135
 1207TIP3   OH2 3565   0.406   2.338   2.051
 1207TIP3    H1 3566   0.325   2.388   2.064
 1207TIP3    H2 3567   0.377   2.247   2.041
 1208TIP3   OH2 3568   0.438   6.347   1.934
 1208TIP3    H1 3569   0.429   6.258   1.969
 1208TIP3    H2 3570   0.500   6.339   1.862
 1209TIP3   OH2 3571   0.369   2.245   0.671
 1209TIP3    H1 3572   0.422   2.318   0.641
 1209TIP3    H2 3573   0.376   2.179   0.602
 1210TIP3   OH2 3574   5.962   1.951   2.389
 1210TIP3    H1 3575   6.038   1.933   2.445
 1210TIP3    H2 3576   5.888   1.957   2.449
 1211TIP3   OH2 3577   0.125   6.185   2.690
 1211TIP3    H1 3578   0.200   6.138   2.727
 1211TIP3    H2 3579   0.049   6.131   2.712
 1212TIP3   OH2 3580   1.771   7.607   0.559
 1212TIP3    H1 3581   1.708   7.676   0.535
 1212TIP3    H2 3582   1.734   7.567   0.638
 1213TIP3   OH2 3583   3.153   1.831   2.027
 1213TIP3    H1 3584   3.146   1.861   2.118
 1213TIP3    H2 3585   3.205   1.899   1.984
 1214TIP3   OH2 3586   3.514   0.050   1.823
 1214TIP3    H1 3587   3.505   0.079   1.732
 1214TIP3    H2 3588   3.504   0.130   1.875
 1215TIP3   OH2 3589   6.141   4.006   1.307
 1215TIP3    H1 3590   6.047   4.019   1.293
 1215TIP3    H2 3591   6.181   4.032   1.223
 1216TIP3   OH2 3592   7.426   6.830   5.783
 1216TIP3    H1 3593   7.395   6.919   5.799
 1216TIP3    H2 3594   7.497   6.818   5.847
 1217TIP3   OH2 3595   6.342   0.373   4.167
 1217TIP3    H1 3596   6.318   0.376   4.075
 1217TIP3    H2 3597   6.371   0.462   4.187
 1218TIP3   OH2 3598   3.841   5.332   5.821
 1218TIP3    H1 3599   3.845   5.256   5.879
 1218TIP3    H2 3600   3.855   5.407   5.878
 1219TIP3   OH2 3601   1.472   7.722   0.745
 1219TIP3    H1 3602   1.449   7.631   0.727
 1219TIP3    H2 3603   1.440   7.738   0.834
 1220TIP3   OH2 3604   7.372   6.815   5.193
 1220TIP3    H1 3605   7.466   6.822   5.209
 1220TIP3    H2 3606   7.342   6.751   5.256
 1221TIP3   OH2 3607   5.412   3.533   5.929
 1221TIP3    H1 3608   5.475   3.593   5.968
 1221TIP3    H2 3609   5.460   3.452   5.914
 1222TIP3   OH2 3610   6.625   3.525   6.341
 1222TIP3    H1 3611   6.546   3.491   6.383
 1222TIP3    H2 3612   6.691   3.458   6.357
 1223TIP3   OH2 3613   1.326   6.629   2.739
 1223TIP3    H1 3614   1.372   6.695   2.686
 1223TIP3    H2 3615   1.346   6.546   2.696
 1224TIP3   OH2 3616   7.769   0.174   0.553
 1224TIP3    H1 3617   7.760   0.268   0.533
 1224TIP3    H2 3618   7.707   0.131   0.495
 1225TIP3   OH2 3619   1.905   1.058   0.395
 1225TIP3    H1 3620   1.934   1.030   0.308
 1225TIP3    H2 3621   1.814   1.085   0.382
 1226TIP3   OH2 3622   0.469   2.545   3.973
 1226TIP3    H1 3623   0.482   2.560   4.067
 1226TIP3    H2 3624   0.470   2.450   3.964
 1227TIP3   OH2 3625   3.291   0.268   6.563
 1227TIP3    H1 3626   3.386   0.255   6.562
 1227TIP3    H2 3627   3.258   0.203   6.625
 1228TIP3   OH2 3628   2.498   2.069   2.807
 1228TIP3    H1 3629   2.591   2.094   2.809
 1228TIP3    H2 3630   2.469   2.077   2.897
 1229TIP3   OH2 3631   6.866   7.339   1.223
 1229TIP3    H1 3632   6.775   7.351   1.196
 1229TIP3    H2 3633   6.862   7.286   1.302
 1230TIP3   OH2 3634   7.484   2.042   0.608
 1230TIP3    H1 3635   7.427   1.973   0.642
 1230TIP3    H2 3636   7.427   2.095   0.552
 1231TIP3   OH2 3637   6.241   2.180   1.358
 1231TIP3    H1 3638   6.304   2.141   1.298
 1231TIP3    H2 3639   6.156   2.164   1.318
 1232TIP3   OH2 3640   2.102   3.340   0.455
 1232TIP3    H1 3641   2.147   3.318   0.373
 1232TIP3    H2 3642   2.131   3.428   0.476
 1233TIP3   OH2 3643   3.591   4.700   6.545
 1233TIP3    H1 3644   3.684   4.697   6.569
 1233TIP3    H2 3645   3.547   4.649   6.614
 1234TIP3   OH2 3646   6.519   1.485   1.767
 1234TIP3    H1 3647   6.442   1.444   1.726
 1234TIP3    H2 3648   6.532   1.566   1.719
 1235TIP3   OH2 3649   4.465   2.513   6.443
 1235TIP3    H1 3650   4.519   2.455   6.390
 1235TIP3    H2 3651   4.525   2.549   6.508
 1236TIP3   OH2 3652   1.569   3.221   2.884
 1236TIP3    H1 3653   1.625   3.296   2.862
 1236TIP3    H2 3654   1.485   3.243   2.845
 1237TIP3   OH2 3655   6.360   5.222   6.173
 1237TIP3    H1 3656   6.304   5.195   6.246
 1237TIP3    H2 3657   6.444   5.181   6.191
 1238TIP3   OH2 3658   3.571   5.451   6.745
 1238TIP3    H1 3659   3.587   5.539   6.711
 1238TIP3    H2 3660   3.477   5.437   6.734
 1239TIP3   OH2 3661   4.975   3.942   0.464
 1239TIP3    H1 3662   4.885   3.921   0.439
 1239TIP3    H2 3663   5.022   3.859   0.455
 1240TIP3   OH2 3664   2.565   5.317   2.535
 1240TIP3    H1 3665   2.528   5.230   2.519
 1240TIP3    H2 3666   2.622   5.305   2.611
 1241TIP3   OH2 3667   7.102   6.075   3.813
 1241TIP3    H1 3668   7.162   6.148   3.801
 1241TIP3    H2 3669   7.084   6.043   3.725
 1242TIP3   OH2 3670   5.752   5.999   6.192
 1242TIP3    H1 3671   5.661   5.970   6.197
 1242TIP3    H2 3672   5.776   5.987   6.101
 1243TIP3   OH2 3673   3.501   3.827   6.379
 1243TIP3    H1 3674   3.492   3.738   6.345
 1243TIP3    H2 3675   3.418   3.844   6.423
 1244TIP3   OH2 3676   2.885   1.844   2.566
 1244TIP3    H1 3677   2.816   1.820   2.627
 1244TIP3    H2 3678   2.923   1.925   2.603
 1245TIP3   OH2 3679   7.916   2.597   1.791
 1245TIP3    H1 3680   7.970   2.529   1.832
 1245TIP3    H2 3681   7.922   2.671   1.852
 1246TIP3   OH2 3682   2.245   3.291   2.089
 1246TIP3    H1 3683   2.282   3.232   2.023
 1246TIP3    H2 3684   2.315   3.353   2.108
 1247TIP3   OH2 3685   6.412   1.267   4.391
 1247TIP3    H1 3686   6.400   1.259   4.296
 1247TIP3    H2 3687   6.440   1.180   4.419
 1248TIP3   OH2 3688   6.427   2.876   1.837
 1248TIP3    H1 3689   6.393   2.898   1.924
 1248TIP3    H2 3690   6.355   2.833   1.792
 1249TIP3   OH2 3691   7.754   1.139   4.388
 1249TIP3    H1 3692   7.793   1.104   4.469
 1249TIP3    H2 3693   7.719   1.224   4.413
 1250TIP3   OH2 3694   2.354   0.197   4.181
 1250TIP3    H1 3695   2.340   0.209   4.087
 1250TIP3    H2 3696   2.443   0.164   4.188
 1251TIP3   OH2 3697   1.591   7.383   0.252
 1251TIP3    H1 3698   1.512   7.351   0.296
 1251TIP3    H2 3699   1.577   7.477   0.243
 1252TIP3   OH2 3700   3.787   0.070   5.982
 1252TIP3    H1 3701   3.874   0.105   5.964
 1252TIP3    H2 3702   3.802  -0.005   6.039
 1253TIP3   OH2 3703   3.236   0.366   1.354
 1253TIP3    H1 3704   3.198   0.371   1.442
 1253TIP3    H2 3705   3.289   0.286   1.356
 1254TIP3   OH2 3706   0.457   6.578   4.024
 1254TIP3    H1 3707   0.366   6.602   4.042
 1254TIP3    H2 3708   0.497   6.571   4.111
 1255TIP3   OH2 3709   7.231   3.483   1.686
 1255TIP3    H1 3710   7.243   3.407   1.629
 1255TIP3    H2 3711   7.220   3.556   1.626
 1256TIP3   OH2 3712   0.758   1.563   5.693
 1256TIP3    H1 3713   0.727   1.578   5.604
 1256TIP3    H2 3714   0.820   1.634   5.710
 1257TIP3   OH2 3715   6.535   1.480   5.606
 1257TIP3    H1 3716   6.606   1.416   5.612
 1257TIP3    H2 3717   6.579   1.565   5.610
 1258TIP3   OH2 3718   2.694   0.480   0.853
 1258TIP3    H1 3719   2.784   0.465   0.824
 1258TIP3    H2 3720   2.642   0.473   0.773
 1259TIP3   OH2 3721   4.144   4.779   6.266
 1259TIP3    H1 3722   4.110   4.810   6.182
 1259TIP3    H2 3723   4.115   4.843   6.330
 1260TIP3   OH2 3724   1.639   5.716   0.026
 1260TIP3    H1 3725   1.703   5.781  -0.003
 1260TIP3    H2 3726   1.556   5.746  -0.010
 1261TIP3   OH2 3727   2.019   0.578   4.470
 1261TIP3    H1 3728   2.096   0.571   4.413
 1261TIP3    H2 3729   2.056   0.583   4.559
 1262TIP3   OH2 3730   3.628   5.506   6.105
 1262TIP3    H1 3731   3.635   5.549   6.020
 1262TIP3    H2 3732   3.570   5.563   6.156
 1263TIP3   OH2 3733   5.484   6.398   3.340
 1263TIP3    H1 3734   5.515   6.341   3.410
 1263TIP3    H2 3735   5.389   6.404   3.354
 1264TIP3   OH2 3736   0.649   1.444   3.766
 1264TIP3    H1 3737   0.715   1.377   3.786
 1264TIP3    H2 3738   0.566   1.397   3.768
 1265TIP3   OH2 3739   4.292   3.787   1.317
 1265TIP3    H1 3740   4.310   3.741   1.235
 1265TIP3    H2 3741   4.206   3.826   1.303
 1266TIP3   OH2 3742   2.433   5.580   4.986
 1266TIP3    H1 3743   2.516   5.534   4.999
 1266TIP3    H2 3744   2.366   5.519   5.017
 1267TIP3   OH2 3745   4.463   2.767   3.094
 1267TIP3    H1 3746   4.531   2.835   3.101
 1267TIP3    H2 3747   4.384   2.809   3.127
 1268TIP3   OH2 3748   4.704   6.019   0.908
 1268TIP3    H1 3749   4.608   6.022   0.902
 1268TIP3    H2 3750   4.734   6.049   0.822
 1269TIP3   OH2 3751   7.656   1.092   0.764
 1269TIP3    H1 3752   7.590   1.152   0.798
 1269TIP3    H2 3753   7.738   1.123   0.801
 1270TIP3   OH2 3754   1.249   5.619   2.315
 1270TIP3    H1 3755   1.212   5.661   2.237
 1270TIP3    H2 3756   1.241   5.685   2.384
 1271TIP3   OH2 3757   6.348   3.225   1.764
 1271TIP3    H1 3758   6.301   3.288   1.709
 1271TIP3    H2 3759   6.332   3.254   1.854
 1272TIP3   OH2 3760   3.051   4.711   3.121
 1272TIP3    H1 3761   3.043   4.667   3.036
 1272TIP3    H2 3762   3.096   4.647   3.177
 1273TIP3   OH2 3763   8.019   6.752   3.549
 1273TIP3    H1 3764   7.996   6.839   3.581
 1273TIP3    H2 3765   7.936   6.705   3.545
 1274TIP3   OH2 3766   4.738   4.504   6.409
 1274TIP3    H1 3767   4.652   4.545   6.411
 1274TIP3    H2 3768   4.790   4.558   6.349
 1275TIP3   OH2 3769   1.573   2.662   2.892
 1275TIP3    H1 3770   1.637   2.595   2.918
 1275TIP3    H2 3771   1.626   2.734   2.858
 1276TIP3   OH2 3772   5.802   3.677   3.777
 1276TIP3    H1 3773   5.720   3.629   3.766
 1276TIP3    H2 3774   5.776   3.768   3.786
 1277TIP3   OH2 3775   3.597   5.049   3.726
 1277TIP3    H1 3776   3.632   5.029   3.812
 1277TIP3    H2 3777   3.580   5.143   3.728
 1278TIP3   OH2 3778   6.937   2.711   2.283
 1278TIP3    H1 3779   6.902   2.766   2.212
 1278TIP3    H2 3780   7.031   2.705   2.265
 1279TIP3   OH2 3781   8.330   0.059   3.573
 1279TIP3    H1 3782   8.284   0.142   3.558
 1279TIP3    H2 3783   8.268   0.007   3.624
 1280TIP3   OH2 3784   3.652   4.689   5.519
 1280TIP3    H1 3785   3.584   4.642   5.469
 1280TIP3    H2 3786   3.731   4.635   5.508
 1281TIP3   OH2 3787   5.764   5.020   6.709
 1281TIP3    H1 3788   5.747   4.928   6.727
 1281TIP3    H2 3789   5.677   5.057   6.692
 1282TIP3   OH2 3790   0.773   3.434   5.064
 1282TIP3    H1 3791   0.745   3.350   5.100
 1282TIP3    H2 3792   0.824   3.411   4.986
 1283TIP3   OH2 3793   5.013   4.442   0.088
 1283TIP3    H1 3794   4.951   4.375   0.058
 1283TIP3    H2 3795   4.961   4.522   0.091
 1284TIP3   OH2 3796   7.019   1.322   3.481
 1284TIP3    H1 3797   7.077   1.276   3.419
 1284TIP3    H2 3798   6.953   1.364   3.427
 1285TIP3   OH2 3799   3.569   0.168   6.428
 1285TIP3    H1 3800   3.511   0.106   6.383
 1285TIP3    H2 3801   3.654   0.125   6.430
 1286TIP3   OH2 3802   3.045   1.651   2.892
 1286TIP3    H1 3803   3.030   1.565   2.930
 1286TIP3    H2 3804   3.096   1.633   2.813
 1287TIP3   OH2 3805   4.287   2.365   2.037
 1287TIP3    H1 3806   4.292   2.321   1.952
 1287TIP3    H2 3807   4.378   2.390   2.056
 1288TIP3   OH2 3808   7.448   1.986   6.349
 1288TIP3    H1 3809   7.398   1.907   6.366
 1288TIP3    H2 3810   7.526   1.955   6.301
 1289TIP3   OH2 3811   8.181   3.114   1.227
 1289TIP3    H1 3812   8.222   3.066   1.155
 1289TIP3    H2 3813   8.153   3.197   1.188
 1290TIP3   OH2 3814   7.215   4.244   0.629
 1290TIP3    H1 3815   7.180   4.220   0.715
 1290TIP3    H2 3816   7.308   4.222   0.634
 1291TIP3   OH2 3817   6.848   0.072   3.733
 1291TIP3    H1 3818   6.911   0.012   3.773
 1291TIP3    H2 3819   6.838   0.143   3.796
 1292TIP3   OH2 3820   3.640   2.872   2.289
 1292TIP3    H1 3821   3.598   2.954   2.261
 1292TIP3    H2 3822   3.607   2.806   2.227
 1293TIP3   OH2 3823   5.762   2.927   2.146
 1293TIP3    H1 3824   5.719   2.991   2.203
 1293TIP3    H2 3825   5.713   2.930   2.064
 1294TIP3   OH2 3826   3.280   3.531   4.467
 1294TIP3    H1 3827   3.328   3.450   4.450
 1294TIP3    H2 3828   3.339   3.600   4.437
 1295TIP3   OH2 3829   6.134   7.139   5.482
 1295TIP3    H1 3830   6.086   7.201   5.426
 1295TIP3    H2 3831   6.224   7.144   5.450
 1296TIP3   OH2 3832   3.533   3.484   1.695
 1296TIP3    H1 3833   3.602   3.528   1.646
 1296TIP3    H2 3834   3.579   3.427   1.756
 1297TIP3   OH2 3835   3.362   0.121   0.622
 1297TIP3    H1 3836   3.295   0.059   0.650
 1297TIP3    H2 3837   3.327   0.160   0.542
 1298TIP3   OH2 3838   0.793   7.139   2.874
 1298TIP3    H1 3839   0.808   7.046   2.893
 1298TIP3    H2 3840   0.712   7.140   2.823
 1299TIP3   OH2 3841   0.221   2.716   2.462
 1299TIP3    H1 3842   0.206   2.799   2.417
 1299TIP3    H2 3843   0.273   2.664   2.400
 1300TIP3   OH2 3844   3.096   6.546   2.081
 1300TIP3    H1 3845   3.181   6.591   2.085
 1300TIP3    H2 3846   3.096   6.504   1.995
 1301TIP3   OH2 3847   1.686   5.652   2.328
 1301TIP3    H1 3848   1.725   5.632   2.243
 1301TIP3    H2 3849   1.659   5.567   2.363
 1302TIP3   OH2 3850   4.800   2.796   3.672
 1302TIP3    H1 3851   4.792   2.701   3.686
 1302TIP3    H2 3852   4.870   2.823   3.731
 1303TIP3   OH2 3853   3.032   1.417   3.027
 1303TIP3    H1 3854   3.120   1.400   3.061
 1303TIP3    H2 3855   3.001   1.331   2.999
 1304TIP3   OH2 3856   8.116   5.268   3.261
 1304TIP3    H1 3857   8.155   5.300   3.180
 1304TIP3    H2 3858   8.086   5.180   3.241
 1305TIP3   OH2 3859   7.742   3.322   1.154
 1305TIP3    H1 3860   7.665   3.272   1.182
 1305TIP3    H2 3861   7.799   3.257   1.112
 1306TIP3   OH2 3862   5.815   3.568   5.123
 1306TIP3    H1 3863   5.733   3.617   5.112
 1306TIP3    H2 3864   5.791   3.477   5.103
 1307TIP3   OH2 3865   7.113   3.303   6.287
 1307TIP3    H1 3866   7.109   3.226   6.229
 1307TIP3    H2 3867   7.194   3.293   6.336
 1308TIP3   OH2 3868   5.052   5.807   4.775
 1308TIP3    H1 3869   5.078   5.729   4.727
 1308TIP3    H2 3870   5.134   5.846   4.805
 1309TIP3   OH2 3871   3.784   6.617   5.551
 1309TIP3    H1 3872   3.802   6.632   5.458
 1309TIP3    H2 3873   3.756   6.526   5.555
 1310TIP3   OH2 3874   0.628   7.701   0.386
 1310TIP3    H1 3875   0.705   7.658   0.423
 1310TIP3    H2 3876   0.559   7.634   0.390
 1311TIP3   OH2 3877   2.389   6.530   0.505
 1311TIP3    H1 3878   2.363   6.487   0.587
 1311TIP3    H2 3879   2.318   6.510   0.444
 1312TIP3   OH2 3880   4.037   0.014   1.261
 1312TIP3    H1 3881   3.997   0.013   1.348
 1312TIP3    H2 3882   4.015   0.100   1.226
 1313TIP3   OH2 3883   0.849   0.026   4.027
 1313TIP3    H1 3884   0.852   0.024   3.932
 1313TIP3    H2 3885   0.770   0.076   4.047
 1314TIP3   OH2 3886   3.511   3.183   4.800
 1314TIP3    H1 3887   3.565   3.260   4.783
 1314TIP3    H2 3888   3.433   3.196   4.745
 1315TIP3   OH2 3889   6.490   2.017   5.544
 1315TIP3    H1 3890   6.474   1.923   5.527
 1315TIP3    H2 3891   6.418   2.043   5.602
 1316TIP3   OH2 3892   5.091   5.401   5.842
 1316TIP3    H1 3893   5.031   5.377   5.771
 1316TIP3    H2 3894   5.103   5.495   5.833
 1317TIP3   OH2 3895   6.420   4.185   6.514
 1317TIP3    H1 3896   6.390   4.167   6.604
 1317TIP3    H2 3897   6.426   4.280   6.509
 1318TIP3   OH2 3898   2.628   3.470   0.982
 1318TIP3    H1 3899   2.538   3.491   1.008
 1318TIP3    H2 3900   2.682   3.513   1.049
 1319TIP3   OH2 3901   7.093   6.175   4.592
 1319TIP3    H1 3902   7.180   6.167   4.632
 1319TIP3    H2 3903   7.078   6.269   4.586
 1320TIP3   OH2 3904   7.048   5.291   0.491
 1320TIP3    H1 3905   6.961   5.277   0.528
 1320TIP3    H2 3906   7.042   5.377   0.448
 1321TIP3   OH2 3907   4.327   7.747   5.594
 1321TIP3    H1 3908   4.316   7.652   5.583
 1321TIP3    H2 3909   4.355   7.758   5.685
 1322TIP3   OH2 3910   6.430   0.833   4.306
 1322TIP3    H1 3911   6.374   0.775   4.256
 1322TIP3    H2 3912   6.504   0.852   4.248
 1323TIP3   OH2 3913   8.082   3.943   2.749
 1323TIP3    H1 3914   8.078   3.851   2.773
 1323TIP3    H2 3915   8.011   3.955   2.686
 1324TIP3   OH2 3916   4.311   4.151   4.397
 1324TIP3    H1 3917   4.313   4.111   4.484
 1324TIP3    H2 3918   4.391   4.119   4.354
 1325TIP3   OH2 3919   0.067   1.344   6.261
 1325TIP3    H1 3920   0.099   1.271   6.315
 1325TIP3    H2 3921  -0.001   1.385   6.314
 1326TIP3   OH2 3922   8.080   2.103   2.031
 1326TIP3    H1 3923   8.146   2.169   2.012
 1326TIP3    H2 3924   8.013   2.115   1.964
 1327TIP3   OH2 3925   5.781   5.221   5.597
 1327TIP3    H1 3926   5.694   5.215   5.558
 1327TIP3    H2 3927   5.832   5.271   5.534
 1328TIP3   OH2 3928   6.223   2.213   6.406
 1328TIP3    H1 3929   6.225   2.231   6.500
 1328TIP3    H2 3930   6.131   2.222   6.381
 1329TIP3   OH2 3931   3.616   5.715   4.047
 1329TIP3    H1 3932   3.527   5.699   4.078
 1329TIP3    H2 3933   3.670   5.654   4.097
 1330TIP3   OH2 3934   2.513   2.374   3.324
 1330TIP3    H1 3935   2.595   2.422   3.320
 1330TIP3    H2 3936   2.446   2.442   3.329
 1331TIP3   OH2 3937   3.855   6.058   3.977
 1331TIP3    H1 3938   3.878   5.966   3.990
 1331TIP3    H2 3939   3.885   6.101   4.057
 1332TIP3   OH2 3940   0.814   0.951   0.933
 1332TIP3    H1 3941   0.849   0.872   0.892
 1332TIP3    H2 3942   0.865   0.962   1.013
 1333TIP3   OH2 3943   6.114   5.165   3.595
 1333TIP3    H1 3944   6.039   5.123   3.638
 1333TIP3    H2 3945   6.186   5.103   3.606
 1334TIP3   OH2 3946   6.320   2.347   3.605
 1334TIP3    H1 3947   6.348   2.255   3.605
 1334TIP3    H2 3948   6.307   2.368   3.698
 1335TIP3   OH2 3949   2.570   1.581   0.855
 1335TIP3    H1 3950   2.559   1.495   0.813
 1335TIP3    H2 3951   2.663   1.586   0.875
 1336TIP3   OH2 3952   6.294   5.934   4.259
 1336TIP3    H1 3953   6.330   5.876   4.193
 1336TIP3    H2 3954   6.283   5.879   4.337
 1337TIP3   OH2 3955   7.320   6.044   2.926
 1337TIP3    H1 3956   7.311   6.139   2.913
 1337TIP3    H2 3957   7.324   6.034   3.021
 1338TIP3   OH2 3958   2.168   6.267   1.651
 1338TIP3    H1 3959   2.254   6.251   1.612
 1338TIP3    H2 3960   2.187   6.283   1.744
 1339TIP3   OH2 3961   7.761   2.888   6.450
 1339TIP3    H1 3962   7.707   2.966   6.434
 1339TIP3    H2 3963   7.844   2.907   6.405
 1340TIP3   OH2 3964   2.458   4.011   5.353
 1340TIP3    H1 3965   2.401   4.003   5.430
 1340TIP3    H2 3966   2.546   3.990   5.386
 1341TIP3   OH2 3967   1.822   6.073   6.308
 1341TIP3    H1 3968   1.821   6.038   6.218
 1341TIP3    H2 3969   1.910   6.051   6.340
 1342TIP3   OH2 3970   0.080   1.163   6.450
 1342TIP3    H1 3971   0.003   1.109   6.429
 1342TIP3    H2 3972   0.086   1.159   6.546
 1343TIP3   OH2 3973   4.891   6.741   5.775
 1343TIP3    H1 3974   4.969   6.787   5.745
 1343TIP3    H2 3975   4.884   6.665   5.717
 1344TIP3   OH2 3976   1.939   4.826   0.225
 1344TIP3    H1 3977   2.034   4.811   0.217
 1344TIP3    H2 3978   1.900   4.747   0.188
 1345TIP3   OH2 3979   2.751   3.433   3.849
 1345TIP3    H1 3980   2.788   3.477   3.925
 1345TIP3    H2 3981   2.660   3.463   3.845
 1346TIP3   OH2 3982   6.654   3.085   2.921
 1346TIP3    H1 3983   6.626   3.155   2.982
 1346TIP3    H2 3984   6.712   3.129   2.860
 1347TIP3   OH2 3985   4.989   3.352   5.763
 1347TIP3    H1 3986   5.066   3.359   5.820
 1347TIP3    H2 3987   5.003   3.270   5.715
 1348TIP3   OH2 3988   5.984   6.588   0.725
 1348TIP3    H1 3989   5.900   6.557   0.689
 1348TIP3    H2 3990   5.995   6.538   0.806
 1349TIP3   OH2 3991   4.277   6.055   1.824
 1349TIP3    H1 3992   4.356   6.068   1.877
 1349TIP3    H2 3993   4.291   6.109   1.747
 1350TIP3   OH2 3994   3.780   6.383   3.802
 1350TIP3    H1 3995   3.855   6.323   3.796
 1350TIP3    H2 3996   3.811   6.464   3.760
 1351TIP3   OH2 3997   0.582   2.486   0.824
 1351TIP3    H1 3998   0.538   2.401   0.827
 1351TIP3    H2 3999   0.533   2.537   0.759
 1352TIP3   OH2 4000   1.291   2.509   1.586
 1352TIP3    H1 4001   1.198   2.507   1.563
 1352TIP3    H2 4002   1.332   2.564   1.519
 1353TIP3   OH2 4003   4.986   4.292   1.719
 1353TIP3    H1 4004   4.932   4.363   1.685
 1353TIP3    H2 4005   4.927   4.217   1.723
 1354TIP3   OH2 4006   4.421   7.177   3.962
 1354TIP3    H1 4007   4.468   7.136   3.890
 1354TIP3    H2 4008   4.438   7.121   4.037
 1355TIP3   OH2 4009   5.222   3.768   6.272
 1355TIP3    H1 4010   5.227   3.863   6.279
 1355TIP3    H2 4011   5.258   3.735   6.355
 1356TIP3   OH2 4012   3.408   2.346   4.367
 1356TIP3    H1 4013   3.405   2.401   4.289
 1356TIP3    H2 4014   3.428   2.259   4.335
 1357TIP3   OH2 4015   5.722   4.480   4.543
 1357TIP3    H1 4016   5.808   4.456   4.509
 1357TIP3    H2 4017   5.728   4.574   4.560
 1358TIP3   OH2 4018   7.147   1.049   1.877
 1358TIP3    H1 4019   7.077   1.115   1.872
 1358TIP3    H2 4020   7.224   1.092   1.839
 1359TIP3   OH2 4021   0.272   6.246   2.471
 1359TIP3    H1 4022   0.206   6.240   2.540
 1359TIP3    H2 4023   0.280   6.157   2.438
 1360TIP3   OH2 4024   1.451   6.303   6.055
 1360TIP3    H1 4025   1.508   6.289   5.980
 1360TIP3    H2 4026   1.363   6.304   6.019
 1361TIP3   OH2 4027   6.207   4.459   5.284
 1361TIP3    H1 4028   6.158   4.407   5.349
 1361TIP3    H2 4029   6.213   4.402   5.208
 1362TIP3   OH2 4030   5.868   2.332   6.666
 1362TIP3    H1 4031   5.872   2.391   6.741
 1362TIP3    H2 4032   5.927   2.260   6.688
 1363TIP3   OH2 4033   1.556   4.513   2.376
 1363TIP3    H1 4034   1.643   4.538   2.405
 1363TIP3    H2 4035   1.527   4.448   2.440
 1364TIP3   OH2 4036   2.171   7.741   5.071
 1364TIP3    H1 4037   2.200   7.779   5.154
 1364TIP3    H2 4038   2.243   7.684   5.044
 1365TIP3   OH2 4039   1.505   2.817   3.791
 1365TIP3    H1 4040   1.455   2.821   3.709
 1365TIP3    H2 4041   1.465   2.745   3.839
 1366TIP3   OH2 4042   7.727   5.888   1.298
 1366TIP3    H1 4043   7.742   5.930   1.383
 1366TIP3    H2 4044   7.679   5.953   1.247
 1367TIP3   OH2 4045   1.692   4.860   2.344
 1367TIP3    H1 4046   1.620   4.801   2.365
 1367TIP3    H2 4047   1.740   4.814   2.274
 1368TIP3   OH2 4048   5.387   6.656   2.709
 1368TIP3    H1 4049   5.295   6.636   2.723
 1368TIP3    H2 4050   5.428   6.641   2.794
 1369TIP3   OH2 4051   4.126   4.712   5.841
 1369TIP3    H1 4052   4.170   4.630   5.864
 1369TIP3    H2 4053   4.128   4.715   5.746
 1370TIP3   OH2 4054   3.759   7.306   2.586
 1370TIP3    H1 4055   3.845   7.264   2.581
 1370TIP3    H2 4056   3.696   7.235   2.572
 1371TIP3   OH2 4057   3.653   4.955   6.331
 1371TIP3    H1 4058   3.632   4.958   6.424
 1371TIP3    H2 4059   3.582   5.004   6.289
 1372TIP3   OH2 4060   5.121   5.276   0.369
 1372TIP3    H1 4061   5.035   5.233   0.368
 1372TIP3    H2 4062   5.102   5.369   0.362
 1373TIP3   OH2 4063   5.310   2.670   6.506
 1373TIP3    H1 4064   5.391   2.655   6.457
 1373TIP3    H2 4065   5.262   2.735   6.454
 1374TIP3   OH2 4066   3.670   2.965   0.466
 1374TIP3    H1 4067   3.724   3.043   0.476
 1374TIP3    H2 4068   3.630   2.953   0.551
 1375TIP3   OH2 4069   6.859   3.896   1.416
 1375TIP3    H1 4070   6.836   3.988   1.401
 1375TIP3    H2 4071   6.869   3.859   1.328
 1376TIP3   OH2 4072   7.582   7.768   3.851
 1376TIP3    H1 4073   7.522   7.700   3.882
 1376TIP3    H2 4074   7.661   7.756   3.903
 1377TIP3   OH2 4075   5.710   2.713   0.330
 1377TIP3    H1 4076   5.690   2.708   0.236
 1377TIP3    H2 4077   5.724   2.623   0.356
 1378TIP3   OH2 4078   4.264   0.074   3.049
 1378TIP3    H1 4079   4.177   0.109   3.071
 1378TIP3    H2 4080   4.324   0.146   3.066
 1379TIP3   OH2 4081   3.842   5.798   3.246
 1379TIP3    H1 4082   3.856   5.706   3.270
 1379TIP3    H2 4083   3.750   5.814   3.265
 1380TIP3   OH2 4084   1.437   5.357   5.245
 1380TIP3    H1 4085   1.401   5.274   5.215
 1380TIP3    H2 4086   1.475   5.396   5.166
 1381TIP3   OH2 4087   5.558   5.771   6.607
 1381TIP3    H1 4088   5.485   5.804   6.659
 1381TIP3    H2 4089   5.541   5.677   6.599
 1382TIP3   OH2 4090   6.632   4.874   4.806
 1382TIP3    H1 4091   6.603   4.838   4.890
 1382TIP3    H2 4092   6.725   4.892   4.819
 1383TIP3   OH2 4093   6.285   0.866   0.112
 1383TIP3    H1 4094   6.218   0.934   0.111
 1383TIP3    H2 4095   6.306   0.851   0.020
 1384TIP3   OH2 4096   2.760   4.518   0.281
 1384TIP3    H1 4097   2.755   4.449   0.214
 1384TIP3    H2 4098   2.685   4.501   0.339
 1385TIP3   OH2 4099   0.143   0.996   3.405
 1385TIP3    H1 4100   0.147   1.091   3.418
 1385TIP3    H2 4101   0.177   0.983   3.316
 1386TIP3   OH2 4102   1.374   0.627   5.551
 1386TIP3    H1 4103   1.385   0.653   5.642
 1386TIP3    H2 4104   1.340   0.538   5.555
 1387TIP3   OH2 4105   2.210   2.198   6.585
 1387TIP3    H1 4106   2.192   2.258   6.657
 1387TIP3    H2 4107   2.303   2.211   6.566
 1388TIP3   OH2 4108   1.634   5.039   4.306
 1388TIP3    H1 4109   1.569   5.100   4.341
 1388TIP3    H2 4110   1.582   4.963   4.280
 1389TIP3   OH2 4111   5.589   0.723   5.772
 1389TIP3    H1 4112   5.510   0.739   5.823
 1389TIP3    H2 4113   5.604   0.628   5.781
 1390TIP3   OH2 4114   7.703   3.899   2.055
 1390TIP3    H1 4115   7.629   3.849   2.090
 1390TIP3    H2 4116   7.773   3.834   2.046
 1391TIP3   OH2 4117   8.284   2.725   6.421
 1391TIP3    H1 4118   8.299   2.767   6.506
 1391TIP3    H2 4119   8.286   2.797   6.358
 1392TIP3   OH2 4120   7.931   2.836   3.413
 1392TIP3    H1 4121   7.960   2.873   3.330
 1392TIP3    H2 4122   8.012   2.812   3.458
 1393TIP3   OH2 4123   0.221   5.295   0.790
 1393TIP3    H1 4124   0.245   5.387   0.783
 1393TIP3    H2 4125   0.286   5.249   0.737
 1394TIP3   OH2 4126   1.152   3.874   3.947
 1394TIP3    H1 4127   1.159   3.921   4.030
 1394TIP3    H2 4128   1.157   3.942   3.880
 1395TIP3   OH2 4129   1.051   4.511   4.498
 1395TIP3    H1 4130   1.133   4.478   4.534
 1395TIP3    H2 4131   1.041   4.465   4.414
 1396TIP3   OH2 4132   8.279   5.577   1.011
 1396TIP3    H1 4133   8.201   5.633   1.008
 1396TIP3    H2 4134   8.286   5.541   0.923
 1397TIP3   OH2 4135   1.138   1.712   0.775
 1397TIP3    H1 4136   1.229   1.700   0.750
 1397TIP3    H2 4137   1.088   1.689   0.696
 1398TIP3   OH2 4138   5.595   6.416   1.760
 1398TIP3    H1 4139   5.676   6.439   1.714
 1398TIP3    H2 4140   5.614   6.433   1.852
 1399TIP3   OH2 4141   7.016   6.429   2.850
 1399TIP3    H1 4142   6.995   6.523   2.849
 1399TIP3    H2 4143   6.970   6.395   2.926
 1400TIP3   OH2 4144   6.846   0.061   3.012
 1400TIP3    H1 4145   6.865   0.015   2.930
 1400TIP3    H2 4146   6.927   0.056   3.062
 1401TIP3   OH2 4147   3.203   5.687   6.454
 1401TIP3    H1 4148   3.189   5.607   6.403
 1401TIP3    H2 4149   3.114   5.718   6.474
 1402TIP3   OH2 4150   0.552   0.661   3.216
 1402TIP3    H1 4151   0.511   0.688   3.298
 1402TIP3    H2 4152   0.496   0.698   3.147
 1403TIP3   OH2 4153   7.325   2.699   0.929
 1403TIP3    H1 4154   7.346   2.611   0.960
 1403TIP3    H2 4155   7.304   2.749   1.008
 1404TIP3   OH2 4156   1.188   5.455   5.901
 1404TIP3    H1 4157   1.168   5.403   5.823
 1404TIP3    H2 4158   1.153   5.404   5.973
 1405TIP3   OH2 4159   5.538   3.095   3.578
 1405TIP3    H1 4160   5.453   3.070   3.542
 1405TIP3    H2 4161   5.520   3.171   3.633
 1406TIP3   OH2 4162   6.693   0.040   2.451
 1406TIP3    H1 4163   6.630  -0.032   2.450
 1406TIP3    H2 4164   6.729   0.042   2.363
 1407TIP3   OH2 4165   0.434   2.051   6.323
 1407TIP3    H1 4166   0.479   2.007   6.395
 1407TIP3    H2 4167   0.421   2.141   6.355
 1408TIP3   OH2 4168   7.660   1.009   3.692
 1408TIP3    H1 4169   7.581   1.062   3.679
 1408TIP3    H2 4170   7.627   0.924   3.721
 1409TIP3   OH2 4171   0.927   1.852   2.846
 1409TIP3    H1 4172   0.871   1.777   2.866
 1409TIP3    H2 4173   0.971   1.829   2.765
 1410TIP3   OH2 4174   7.191   1.175  -0.006
 1410TIP3    H1 4175   7.279   1.211   0.006
 1410TIP3    H2 4176   7.135   1.231   0.048
 1411TIP3   OH2 4177   7.791   2.059   3.375
 1411TIP3    H1 4178   7.764   2.036   3.464
 1411TIP3    H2 4179   7.710   2.061   3.324
 1412TIP3   OH2 4180   4.505   7.077   1.803
 1412TIP3    H1 4181   4.442   7.127   1.855
 1412TIP3    H2 4182   4.586   7.127   1.807
 1413TIP3   OH2 4183   1.994   4.536   0.184
 1413TIP3    H1 4184   2.006   4.552   0.091
 1413TIP3    H2 4185   2.043   4.455   0.201
 1414TIP3   OH2 4186   1.016   4.197   4.459
 1414TIP3    H1 4187   0.974   4.131   4.514
 1414TIP3    H2 4188   0.948   4.224   4.397
 1415TIP3   OH2 4189   6.111   2.873   2.723
 1415TIP3    H1 4190   6.047   2.868   2.652
 1415TIP3    H2 4191   6.063   2.913   2.796
 1416TIP3   OH2 4192   5.332   4.608   1.365
 1416TIP3    H1 4193   5.287   4.617   1.449
 1416TIP3    H2 4194   5.343   4.514   1.354
 1417TIP3   OH2 4195   8.162   6.913   6.606
 1417TIP3    H1 4196   8.093   6.975   6.585
 1417TIP3    H2 4197   8.189   6.935   6.695
 1418TIP3   OH2 4198   4.552   5.605   0.706
 1418TIP3    H1 4199   4.561   5.651   0.789
 1418TIP3    H2 4200   4.458   5.589   0.697
 1419TIP3   OH2 4201   6.065   6.005   6.793
 1419TIP3    H1 4202   6.153   6.043   6.786
 1419TIP3    H2 4203   6.018   6.038   6.716
 1420TIP3   OH2 4204   4.439   0.343   1.509
 1420TIP3    H1 4205   4.359   0.393   1.523
 1420TIP3    H2 4206   4.500   0.374   1.577
 1421TIP3   OH2 4207   2.499   4.584   3.850
 1421TIP3    H1 4208   2.493   4.680   3.850
 1421TIP3    H2 4209   2.540   4.563   3.934
 1422TIP3   OH2 4210   0.959   3.209   4.104
 1422TIP3    H1 4211   0.956   3.150   4.178
 1422TIP3    H2 4212   0.958   3.152   4.027
 1423TIP3   OH2 4213   2.780   3.355   4.775
 1423TIP3    H1 4214   2.712   3.396   4.829
 1423TIP3    H2 4215   2.862   3.387   4.812
 1424TIP3   OH2 4216   7.768   7.471   0.049
 1424TIP3    H1 4217   7.763   7.462  -0.046
 1424TIP3    H2 4218   7.720   7.395   0.083
 1425TIP3   OH2 4219   7.755   7.343   5.890
 1425TIP3    H1 4220   7.850   7.335   5.885
 1425TIP3    H2 4221   7.722   7.254   5.882
 1426TIP3   OH2 4222   7.683   1.025   5.709
 1426TIP3    H1 4223   7.636   1.108   5.708
 1426TIP3    H2 4224   7.622   0.961   5.673
 1427TIP3   OH2 4225   3.344   6.978   2.577
 1427TIP3    H1 4226   3.314   7.068   2.590
 1427TIP3    H2 4227   3.274   6.936   2.526
 1428TIP3   OH2 4228   4.701   3.463   2.617
 1428TIP3    H1 4229   4.712   3.437   2.526
 1428TIP3    H2 4230   4.608   3.483   2.626
 1429TIP3   OH2 4231   0.642   7.437   1.066
 1429TIP3    H1 4232   0.693   7.391   0.999
 1429TIP3    H2 4233   0.680   7.408   1.149
 1430TIP3   OH2 4234   7.442   6.424   3.544
 1430TIP3    H1 4235   7.349   6.445   3.556
 1430TIP3    H2 4236   7.485   6.457   3.623
 1431TIP3   OH2 4237   1.758   2.715   6.285
 1431TIP3    H1 4238   1.808   2.736   6.207
 1431TIP3    H2 4239   1.818   2.663   6.339
 1432TIP3   OH2 4240   6.660   3.018   1.888
 1432TIP3    H1 4241   6.585   2.960   1.871
 1432TIP3    H2 4242   6.667   3.071   1.808
 1433TIP3   OH2 4243   3.464   0.663   2.813
 1433TIP3    H1 4244   3.424   0.749   2.830
 1433TIP3    H2 4245   3.521   0.677   2.738
 1434TIP3   OH2 4246   2.725   3.158   5.905
 1434TIP3    H1 4247   2.769   3.173   5.822
 1434TIP3    H2 4248   2.642   3.205   5.898
 1435TIP3   OH2 4249   6.328   6.244   5.116
 1435TIP3    H1 4250   6.256   6.183   5.133
 1435TIP3    H2 4251   6.403   6.188   5.097
 1436TIP3   OH2 4252   6.831   4.047   4.281
 1436TIP3    H1 4253   6.885   4.116   4.242
 1436TIP3    H2 4254   6.854   3.969   4.231
 1437TIP3   OH2 4255   1.465   6.817   2.582
 1437TIP3    H1 4256   1.552   6.788   2.556
 1437TIP3    H2 4257   1.445   6.889   2.522
 1438TIP3   OH2 4258   5.672   4.044   4.650
 1438TIP3    H1 4259   5.605   3.981   4.625
 1438TIP3    H2 4260   5.729   4.052   4.574
 1439TIP3   OH2 4261   6.864   3.118   2.536
 1439TIP3    H1 4262   6.798   3.058   2.569
 1439TIP3    H2 4263   6.942   3.064   2.523
 1440TIP3   OH2 4264   2.353   2.176   3.423
 1440TIP3    H1 4265   2.397   2.246   3.375
 1440TIP3    H2 4266   2.351   2.207   3.514
 1441TIP3   OH2 4267   4.862   1.275   5.211
 1441TIP3    H1 4268   4.881   1.354   5.262
 1441TIP3    H2 4269   4.794   1.230   5.261
 1442TIP3   OH2 4270   3.590   5.685   5.874
 1442TIP3    H1 4271   3.507   5.649   5.843
 1442TIP3    H2 4272   3.611   5.755   5.811
 1443TIP3   OH2 4273   7.475   3.558  -0.038
 1443TIP3    H1 4274   7.518   3.620   0.021
 1443TIP3    H2 4275   7.407   3.517   0.015
 1444TIP3   OH2 4276   6.089   7.772   0.139
 1444TIP3    H1 4277   6.168   7.762   0.191
 1444TIP3    H2 4278   6.083   7.691   0.088
 1445TIP3   OH2 4279   5.555   1.578   2.956
 1445TIP3    H1 4280   5.641   1.536   2.958
 1445TIP3    H2 4281   5.548   1.619   3.042
 1446TIP3   OH2 4282   7.375   3.730   3.205
 1446TIP3    H1 4283   7.298   3.680   3.178
 1446TIP3    H2 4284   7.387   3.795   3.135
 1447TIP3   OH2 4285   0.051   2.865   2.933
 1447TIP3    H1 4286   0.140   2.830   2.941
 1447TIP3    H2 4287  -0.005   2.788   2.928
 1448TIP3   OH2 4288   4.714   7.240   2.893
 1448TIP3    H1 4289   4.664   7.273   2.819
 1448TIP3    H2 4290   4.654   7.243   2.967
 1449TIP3   OH2 4291   7.322   7.454   1.074
 1449TIP3    H1 4292   7.290   7.539   1.102
 1449TIP3    H2 4293   7.272   7.391   1.126
 1450TIP3   OH2 4294   4.648   1.701   6.455
 1450TIP3    H1 4295   4.742   1.711   6.438
 1450TIP3    H2 4296   4.644   1.673   6.547
 1451TIP3   OH2 4297   5.495   1.268   1.323
 1451TIP3    H1 4298   5.532   1.262   1.411
 1451TIP3    H2 4299   5.439   1.346   1.327
 1452TIP3   OH2 4300   3.217   7.692   5.536
 1452TIP3    H1 4301   3.227   7.636   5.613
 1452TIP3    H2 4302   3.222   7.631   5.462
 1453TIP3   OH2 4303   4.490   4.273   1.676
 1453TIP3    H1 4304   4.428   4.301   1.743
 1453TIP3    H2 4305   4.437   4.261   1.597
 1454TIP3   OH2 4306   6.296   0.003   5.266
 1454TIP3    H1 4307   6.366   0.065   5.244
 1454TIP3    H2 4308   6.294   0.003   5.362
 1455TIP3   OH2 4309   4.582   3.406   1.547
 1455TIP3    H1 4310   4.616   3.495   1.547
 1455TIP3    H2 4311   4.654   3.353   1.582
 1456TIP3   OH2 4312   7.082   4.201   5.771
 1456TIP3    H1 4313   7.002   4.197   5.719
 1456TIP3    H2 4314   7.053   4.188   5.861
 1457TIP3   OH2 4315   1.749   1.082   4.462
 1457TIP3    H1 4316   1.795   1.034   4.531
 1457TIP3    H2 4317   1.816   1.135   4.420
 1458TIP3   OH2 4318   3.755   7.112   4.860
 1458TIP3    H1 4319   3.821   7.112   4.791
 1458TIP3    H2 4320   3.684   7.166   4.825
 1459TIP3   OH2 4321   0.733   0.686   5.416
 1459TIP3    H1 4322   0.710   0.712   5.327
 1459TIP3    H2 4323   0.825   0.659   5.410
 1460TIP3   OH2 4324   3.877   3.659   3.123
 1460TIP3    H1 4325   3.853   3.684   3.212
 1460TIP3    H2 4326   3.910   3.569   3.130
 1461TIP3   OH2 4327   0.766   4.317   2.896
 1461TIP3    H1 4328   0.691   4.350   2.846
 1461TIP3    H2 4329   0.842   4.350   2.849
 1462TIP3   OH2 4330   0.050   2.525   5.228
 1462TIP3    H1 4331   0.133   2.506   5.271
 1462TIP3    H2 4332  -0.004   2.564   5.297
 1463TIP3   OH2 4333   7.824   5.450   0.380
 1463TIP3    H1 4334   7.813   5.356   0.393
 1463TIP3    H2 4335   7.903   5.472   0.429
 1464TIP3   OH2 4336   3.232   6.260   4.094
 1464TIP3    H1 4337   3.193   6.347   4.089
 1464TIP3    H2 4338   3.186   6.209   4.027
 1465TIP3   OH2 4339   4.938   2.889   6.118
 1465TIP3    H1 4340   4.963   2.978   6.093
 1465TIP3    H2 4341   5.011   2.834   6.088
 1466TIP3   OH2 4342   2.751   1.401   1.061
 1466TIP3    H1 4343   2.835   1.446   1.052
 1466TIP3    H2 4344   2.698   1.460   1.114
 1467TIP3   OH2 4345   7.602   7.206   0.759
 1467TIP3    H1 4346   7.646   7.216   0.675
 1467TIP3    H2 4347   7.528   7.267   0.755
 1468TIP3   OH2 4348   2.559   7.661   1.998
 1468TIP3    H1 4349   2.601   7.645   1.913
 1468TIP3    H2 4350   2.475   7.702   1.976
 1469TIP3   OH2 4351   2.588   5.243   3.007
 1469TIP3    H1 4352   2.642   5.282   3.075
 1469TIP3    H2 4353   2.572   5.153   3.038
 1470TIP3   OH2 4354   6.201   0.494   4.489
 1470TIP3    H1 4355   6.284   0.453   4.514
 1470TIP3    H2 4356   6.223   0.552   4.416
 1471TIP3   OH2 4357   8.112   6.933   2.343
 1471TIP3    H1 4358   8.181   6.997   2.360
 1471TIP3    H2 4359   8.034   6.970   2.384
 1472TIP3   OH2 4360   3.737   2.912   3.800
 1472TIP3    H1 4361   3.677   2.967   3.850
 1472TIP3    H2 4362   3.694   2.827   3.797
 1473TIP3   OH2 4363   2.460   1.070   1.172
 1473TIP3    H1 4364   2.548   1.032   1.166
 1473TIP3    H2 4365   2.445   1.110   1.086
 1474TIP3   OH2 4366   2.012   1.365   0.471
 1474TIP3    H1 4367   1.934   1.318   0.500
 1474TIP3    H2 4368   1.979   1.450   0.442
 1475TIP3   OH2 4369   1.581   3.115   6.149
 1475TIP3    H1 4370   1.670   3.081   6.144
 1475TIP3    H2 4371   1.561   3.117   6.243
 1476TIP3   OH2 4372   3.381   0.398   5.451
 1476TIP3    H1 4373   3.304   0.446   5.420
 1476TIP3    H2 4374   3.455   0.455   5.430
 1477TIP3   OH2 4375   0.101   2.626   1.324
 1477TIP3    H1 4376   0.079   2.704   1.375
 1477TIP3    H2 4377   0.193   2.610   1.343
 1478TIP3   OH2 4378   3.620   6.567   0.129
 1478TIP3    H1 4379   3.686   6.512   0.171
 1478TIP3    H2 4380   3.544   6.563   0.188
 1479TIP3   OH2 4381   3.185   7.747   2.749
 1479TIP3    H1 4382   3.229   7.806   2.810
 1479TIP3    H2 4383   3.200   7.788   2.663
 1480TIP3   OH2 4384   4.987   1.717   5.893
 1480TIP3    H1 4385   5.041   1.775   5.840
 1480TIP3    H2 4386   4.940   1.775   5.953
 1481TIP3   OH2 4387   0.300   7.734   1.722
 1481TIP3    H1 4388   0.294   7.765   1.632
 1481TIP3    H2 4389   0.392   7.743   1.744
 1482TIP3   OH2 4390   4.723   7.401   3.178
 1482TIP3    H1 4391   4.804   7.422   3.131
 1482TIP3    H2 4392   4.682   7.486   3.194
 1483TIP3   OH2 4393   4.923   5.426   1.830
 1483TIP3    H1 4394   4.839   5.454   1.867
 1483TIP3    H2 4395   4.902   5.400   1.741
 1484TIP3   OH2 4396   1.045   2.251   5.493
 1484TIP3    H1 4397   1.115   2.186   5.494
 1484TIP3    H2 4398   0.965   2.200   5.481
 1485TIP3   OH2 4399   6.079   6.852   5.601
 1485TIP3    H1 4400   6.148   6.918   5.595
 1485TIP3    H2 4401   6.060   6.829   5.511
 1486TIP3   OH2 4402   3.603   3.023  -0.012
 1486TIP3    H1 4403   3.668   3.006   0.056
 1486TIP3    H2 4404   3.519   3.002   0.029
 1487TIP3   OH2 4405   0.844   5.033   6.186
 1487TIP3    H1 4406   0.821   5.126   6.192
 1487TIP3    H2 4407   0.759   4.989   6.176
 1488TIP3   OH2 4408   4.069   0.729   6.265
 1488TIP3    H1 4409   3.995   0.694   6.314
 1488TIP3    H2 4410   4.119   0.652   6.239
 1489TIP3   OH2 4411   7.975   4.703   0.183
 1489TIP3    H1 4412   7.918   4.757   0.129
 1489TIP3    H2 4413   8.055   4.692   0.131
 1490TIP3   OH2 4414   8.026   7.425   0.380
 1490TIP3    H1 4415   8.121   7.413   0.376
 1490TIP3    H2 4416   7.998   7.377   0.458
 1491TIP3   OH2 4417   7.462   6.893   1.182
 1491TIP3    H1 4418   7.519   6.818   1.194
 1491TIP3    H2 4419   7.487   6.930   1.097
 1492TIP3   OH2 4420   6.859   3.501   0.846
 1492TIP3    H1 4421   6.904   3.525   0.764
 1492TIP3    H2 4422   6.891   3.414   0.867
 1493TIP3   OH2 4423   3.885   2.922   2.149
 1493TIP3    H1 4424   3.924   3.006   2.125
 1493TIP3    H2 4425   3.794   2.943   2.170
 1494TIP3   OH2 4426   5.749   6.852   0.776
 1494TIP3    H1 4427   5.679   6.788   0.772
 1494TIP3    H2 4428   5.711   6.932   0.741
 1495TIP3   OH2 4429   0.269   2.594   4.744
 1495TIP3    H1 4430   0.234   2.683   4.746
 1495TIP3    H2 4431   0.195   2.539   4.771
 1496TIP3   OH2 4432   6.182   3.874   4.131
 1496TIP3    H1 4433   6.260   3.889   4.186
 1496TIP3    H2 4434   6.114   3.928   4.170
 1497TIP3   OH2 4435   5.867   7.617   1.734
 1497TIP3    H1 4436   5.825   7.551   1.679
 1497TIP3    H2 4437   5.806   7.632   1.806
 1498TIP3   OH2 4438   0.500   4.139   4.518
 1498TIP3    H1 4439   0.446   4.134   4.439
 1498TIP3    H2 4440   0.514   4.048   4.543
 1499TIP3   OH2 4441   2.910   5.625   4.243
 1499TIP3    H1 4442   2.971   5.553   4.227
 1499TIP3    H2 4443   2.960   5.704   4.222
 1500TIP3   OH2 4444   1.219   3.344   0.395
 1500TIP3    H1 4445   1.187   3.300   0.474
 1500TIP3    H2 4446   1.163   3.421   0.386
 1501TIP3   OH2 4447   5.377   1.163   3.106
 1501TIP3    H1 4448   5.427   1.188   3.184
 1501TIP3    H2 4449   5.286   1.160   3.135
 1502TIP3   OH2 4450   5.744   2.841   1.704
 1502TIP3    H1 4451   5.666   2.784   1.702
 1502TIP3    H2 4452   5.759   2.857   1.797
 1503TIP3   OH2 4453   1.975   3.271   1.265
 1503TIP3    H1 4454   1.963   3.230   1.351
 1503TIP3    H2 4455   2.070   3.283   1.258
 1504TIP3   OH2 4456   2.830   7.822   5.825
 1504TIP3    H1 4457   2.883   7.830   5.745
 1504TIP3    H2 4458   2.836   7.729   5.848
 1505TIP3   OH2 4459   1.593   5.325   4.826
 1505TIP3    H1 4460   1.624   5.256   4.884
 1505TIP3    H2 4461   1.570   5.279   4.745
 1506TIP3   OH2 4462   3.239   5.184   3.188
 1506TIP3    H1 4463   3.197   5.139   3.260
 1506TIP3    H2 4464   3.265   5.269   3.224
 1507TIP3   OH2 4465   2.751   3.483   4.338
 1507TIP3    H1 4466   2.826   3.472   4.396
 1507TIP3    H2 4467   2.711   3.566   4.365
 1508TIP3   OH2 4468   0.461   6.301   2.276
 1508TIP3    H1 4469   0.455   6.389   2.238
 1508TIP3    H2 4470   0.415   6.309   2.360
 1509TIP3   OH2 4471   8.099   1.048   0.971
 1509TIP3    H1 4472   8.037   1.011   0.908
 1509TIP3    H2 4473   8.044   1.093   1.035
 1510TIP3   OH2 4474   7.300   0.163   6.362
 1510TIP3    H1 4475   7.272   0.254   6.367
 1510TIP3    H2 4476   7.377   0.164   6.305
 1511TIP3   OH2 4477   3.883   3.585   1.954
 1511TIP3    H1 4478   3.872   3.571   1.860
 1511TIP3    H2 4479   3.944   3.658   1.961
 1512TIP3   OH2 4480   6.415   1.537   4.000
 1512TIP3    H1 4481   6.458   1.576   4.076
 1512TIP3    H2 4482   6.469   1.564   3.925
 1513TIP3   OH2 4483   7.248   2.406   0.713
 1513TIP3    H1 4484   7.323   2.381   0.659
 1513TIP3    H2 4485   7.204   2.323   0.732
 1514TIP3   OH2 4486   0.171   7.198   1.559
 1514TIP3    H1 4487   0.083   7.212   1.526
 1514TIP3    H2 4488   0.183   7.264   1.626
 1515TIP3   OH2 4489   7.958   5.182   2.604
 1515TIP3    H1 4490   7.910   5.262   2.623
 1515TIP3    H2 4491   7.891   5.117   2.586
 1516TIP3   OH2 4492   7.178   4.380   4.667
 1516TIP3    H1 4493   7.095   4.332   4.674
 1516TIP3    H2 4494   7.214   4.351   4.583
 1517TIP3   OH2 4495   6.132   0.628   2.854
 1517TIP3    H1 4496   6.149   0.665   2.767
 1517TIP3    H2 4497   6.042   0.657   2.874
 1518TIP3   OH2 4498   5.322   7.404   3.735
 1518TIP3    H1 4499   5.346   7.480   3.681
 1518TIP3    H2 4500   5.232   7.422   3.763
 1519TIP3   OH2 4501   2.471   1.192   2.669
 1519TIP3    H1 4502   2.510   1.118   2.715
 1519TIP3    H2 4503   2.377   1.184   2.686
 1520TIP3   OH2 4504   2.032   2.419   2.254
 1520TIP3    H1 4505   2.064   2.495   2.302
 1520TIP3    H2 4506   2.081   2.421   2.171
 1521TIP3   OH2 4507   1.165   5.295   4.521
 1521TIP3    H1 4508   1.102   5.296   4.449
 1521TIP3    H2 4509   1.115   5.264   4.596
 1522TIP3   OH2 4510   5.093   4.378   5.084
 1522TIP3    H1 4511   5.083   4.457   5.137
 1522TIP3    H2 4512   5.149   4.404   5.012
 1523TIP3   OH2 4513   2.746   4.242   2.377
 1523TIP3    H1 4514   2.711   4.316   2.329
 1523TIP3    H2 4515   2.670   4.203   2.420
 1524TIP3   OH2 4516   5.738   4.855   4.371
 1524TIP3    H1 4517   5.719   4.814   4.286
 1524TIP3    H2 4518   5.709   4.791   4.436
 1525TIP3   OH2 4519   3.403   4.642   5.330
 1525TIP3    H1 4520   3.317   4.622   5.293
 1525TIP3    H2 4521   3.426   4.564   5.380
 1526TIP3   OH2 4522   4.780   6.481   5.282
 1526TIP3    H1 4523   4.874   6.492   5.297
 1526TIP3    H2 4524   4.748   6.568   5.259
 1527TIP3   OH2 4525   2.899   4.972   5.748
 1527TIP3    H1 4526   2.842   4.944   5.676
 1527TIP3    H2 4527   2.983   4.931   5.730
 1528TIP3   OH2 4528   8.226   2.650   5.439
 1528TIP3    H1 4529   8.173   2.720   5.477
 1528TIP3    H2 4530   8.267   2.607   5.514
 1529TIP3   OH2 4531   7.690   3.948   2.354
 1529TIP3    H1 4532   7.660   3.859   2.338
 1529TIP3    H2 4533   7.622   3.987   2.409
 1530TIP3   OH2 4534   5.230   4.509   2.872
 1530TIP3    H1 4535   5.311   4.560   2.866
 1530TIP3    H2 4536   5.163   4.573   2.894
 1531TIP3   OH2 4537   5.523   1.269   1.841
 1531TIP3    H1 4538   5.508   1.302   1.930
 1531TIP3    H2 4539   5.468   1.191   1.835
 1532TIP3   OH2 4540   5.506   4.237   5.845
 1532TIP3    H1 4541   5.573   4.301   5.866
 1532TIP3    H2 4542   5.427   4.289   5.825
 1533TIP3   OH2 4543   6.316   1.131   4.168
 1533TIP3    H1 4544   6.267   1.052   4.143
 1533TIP3    H2 4545   6.345   1.168   4.084
 1534TIP3   OH2 4546   0.745   6.851   5.191
 1534TIP3    H1 4547   0.786   6.934   5.166
 1534TIP3    H2 4548   0.668   6.877   5.242
 1535TIP3   OH2 4549   0.827   1.375   2.152
 1535TIP3    H1 4550   0.758   1.309   2.145
 1535TIP3    H2 4551   0.873   1.353   2.233
 1536TIP3   OH2 4552   5.311   6.815   3.147
 1536TIP3    H1 4553   5.385   6.870   3.176
 1536TIP3    H2 4554   5.318   6.736   3.201
 1537TIP3   OH2 4555   4.929   2.828   3.035
 1537TIP3    H1 4556   4.966   2.886   3.101
 1537TIP3    H2 4557   4.858   2.878   2.996
 1538TIP3   OH2 4558   2.496   5.437   4.315
 1538TIP3    H1 4559   2.554   5.504   4.352
 1538TIP3    H2 4560   2.442   5.409   4.389
 1539TIP3   OH2 4561   1.433   5.568   5.872
 1539TIP3    H1 4562   1.344   5.551   5.903
 1539TIP3    H2 4563   1.449   5.500   5.807
 1540TIP3   OH2 4564   7.546   3.328   1.528
 1540TIP3    H1 4565   7.484   3.264   1.562
 1540TIP3    H2 4566   7.592   3.282   1.458
 1541TIP3   OH2 4567   6.202   3.232   6.430
 1541TIP3    H1 4568   6.158   3.173   6.367
 1541TIP3    H2 4569   6.203   3.183   6.512
 1542TIP3   OH2 4570   6.649   5.043   1.867
 1542TIP3    H1 4571   6.624   5.122   1.819
 1542TIP3    H2 4572   6.625   4.971   1.809
 1543TIP3   OH2 4573   6.411   6.837   3.408
 1543TIP3    H1 4574   6.446   6.925   3.420
 1543TIP3    H2 4575   6.383   6.810   3.496
 1544TIP3   OH2 4576   7.349   4.804   5.620
 1544TIP3    H1 4577   7.428   4.823   5.571
 1544TIP3    H2 4578   7.278   4.809   5.556
 1545TIP3   OH2 4579   8.042   4.979   2.107
 1545TIP3    H1 4580   8.134   4.972   2.135
 1545TIP3    H2 4581   8.046   4.974   2.011
 1546TIP3   OH2 4582   7.087   4.629   4.808
 1546TIP3    H1 4583   7.109   4.559   4.746
 1546TIP3    H2 4584   7.167   4.640   4.860
 1547TIP3   OH2 4585   1.884   0.108   0.273
 1547TIP3    H1 4586   1.910   0.181   0.217
 1547TIP3    H2 4587   1.879   0.145   0.361
 1548TIP3   OH2 4588   0.726   5.019   5.055
 1548TIP3    H1 4589   0.771   5.077   4.993
 1548TIP3    H2 4590   0.697   4.945   5.002
 1549TIP3   OH2 4591   4.846   6.074   3.173
 1549TIP3    H1 4592   4.788   6.001   3.193
 1549TIP3    H2 4593   4.925   6.056   3.224
 1550TIP3   OH2 4594   6.577   6.952   2.392
 1550TIP3    H1 4595   6.560   6.975   2.301
 1550TIP3    H2 4596   6.498   6.907   2.421
 1551TIP3   OH2 4597   2.396   6.269   1.273
 1551TIP3    H1 4598   2.318   6.285   1.220
 1551TIP3    H2 4599   2.437   6.355   1.281
 1552TIP3   OH2 4600   5.188   1.651   6.324
 1552TIP3    H1 4601   5.156   1.632   6.236
 1552TIP3    H2 4602   5.251   1.723   6.312
 1553TIP3   OH2 4603   2.407   1.541   3.533
 1553TIP3    H1 4604   2.372   1.575   3.450
 1553TIP3    H2 4605   2.502   1.543   3.521
 1554TIP3   OH2 4606   4.451   5.588   4.548
 1554TIP3    H1 4607   4.470   5.677   4.578
 1554TIP3    H2 4608   4.367   5.595   4.502
 1555TIP3   OH2 4609   0.977   0.217   6.080
 1555TIP3    H1 4610   0.883   0.210   6.062
 1555TIP3    H2 4611   1.007   0.126   6.089
 1556TIP3   OH2 4612   0.117   7.764   6.620
 1556TIP3    H1 4613   0.197   7.739   6.574
 1556TIP3    H2 4614   0.073   7.825   6.561
 1557TIP3   OH2 4615   5.173   4.345   5.536
 1557TIP3    H1 4616   5.156   4.261   5.577
 1557TIP3    H2 4617   5.224   4.394   5.601
 1558TIP3   OH2 4618   7.994   0.029   4.450
 1558TIP3    H1 4619   7.909   0.049   4.411
 1558TIP3    H2 4620   8.022   0.110   4.492
 1559TIP3   OH2 4621   6.946   1.360   5.109
 1559TIP3    H1 4622   6.888   1.289   5.082
 1559TIP3    H2 4623   6.997   1.381   5.031
 1560TIP3   OH2 4624   0.221   5.747   5.945
 1560TIP3    H1 4625   0.163   5.703   5.883
 1560TIP3    H2 4626   0.284   5.680   5.972
 1561TIP3   OH2 4627   8.090   4.254   2.716
 1561TIP3    H1 4628   8.130   4.201   2.647
 1561TIP3    H2 4629   7.999   4.224   2.720
 1562TIP3   OH2 4630   1.431   0.818   1.880
 1562TIP3    H1 4631   1.449   0.912   1.884
 1562TIP3    H2 4632   1.364   0.804   1.947
 1563TIP3   OH2 4633   2.299   3.137   0.935
 1563TIP3    H1 4634   2.339   3.150   0.849
 1563TIP3    H2 4635   2.243   3.214   0.947
 1564TIP3   OH2 4636   1.108   5.100   2.266
 1564TIP3    H1 4637   1.055   5.072   2.341
 1564TIP3    H2 4638   1.131   5.191   2.286
 1565TIP3   OH2 4639   4.100   0.632   0.042
 1565TIP3    H1 4640   4.086   0.543   0.010
 1565TIP3    H2 4641   4.042   0.640   0.118
 1566TIP3   OH2 4642   7.254   6.093   2.651
 1566TIP3    H1 4643   7.301   6.082   2.734
 1566TIP3    H2 4644   7.252   6.004   2.613
 1567TIP3   OH2 4645   7.794   2.166   1.953
 1567TIP3    H1 4646   7.719   2.189   2.009
 1567TIP3    H2 4647   7.754   2.132   1.873
 1568TIP3   OH2 4648   5.951   5.198   0.536
 1568TIP3    H1 4649   5.913   5.272   0.583
 1568TIP3    H2 4650   6.045   5.213   0.539
 1569TIP3   OH2 4651   5.826   0.354   3.409
 1569TIP3    H1 4652   5.852   0.444   3.394
 1569TIP3    H2 4653   5.773   0.331   3.333
 1570TIP3   OH2 4654   6.346   7.747   6.140
 1570TIP3    H1 4655   6.333   7.698   6.058
 1570TIP3    H2 4656   6.285   7.820   6.133
 1571TIP3   OH2 4657   2.838   2.509   1.347
 1571TIP3    H1 4658   2.764   2.519   1.407
 1571TIP3    H2 4659   2.912   2.550   1.393
 1572TIP3   OH2 4660   0.961   3.532   5.261
 1572TIP3    H1 4661   0.969   3.626   5.280
 1572TIP3    H2 4662   0.900   3.528   5.188
 1573TIP3   OH2 4663   6.469   1.820   1.970
 1573TIP3    H1 4664   6.391   1.837   1.917
 1573TIP3    H2 4665   6.531   1.780   1.909
 1574TIP3   OH2 4666   5.925   0.826   2.816
 1574TIP3    H1 4667   5.954   0.856   2.729
 1574TIP3    H2 4668   5.858   0.890   2.841
 1575TIP3   OH2 4669   6.370   4.243   0.330
 1575TIP3    H1 4670   6.304   4.306   0.299
 1575TIP3    H2 4671   6.362   4.246   0.425
 1576TIP3   OH2 4672   5.223   3.520   5.444
 1576TIP3    H1 4673   5.248   3.549   5.357
 1576TIP3    H2 4674   5.129   3.500   5.437
 1577TIP3   OH2 4675   7.514   3.442   4.446
 1577TIP3    H1 4676   7.517   3.485   4.532
 1577TIP3    H2 4677   7.575   3.492   4.392
 1578TIP3   OH2 4678   1.887   3.746   1.673
 1578TIP3    H1 4679   1.800   3.777   1.648
 1578TIP3    H2 4680   1.912   3.685   1.605
 1579TIP3   OH2 4681   3.882   5.585   2.938
 1579TIP3    H1 4682   3.805   5.563   2.886
 1579TIP3    H2 4683   3.905   5.673   2.909
 1580TIP3   OH2 4684   3.068   7.436   2.455
 1580TIP3    H1 4685   2.998   7.408   2.514
 1580TIP3    H2 4686   3.098   7.356   2.413
 1581TIP3   OH2 4687   2.789   6.864   5.474
 1581TIP3    H1 4688   2.848   6.934   5.446
 1581TIP3    H2 4689   2.771   6.883   5.566
 1582TIP3   OH2 4690   6.504   7.097   0.184
 1582TIP3    H1 4691   6.600   7.087   0.184
 1582TIP3    H2 4692   6.471   7.016   0.221
 1583TIP3   OH2 4693   6.615   5.408   1.506
 1583TIP3    H1 4694   6.547   5.351   1.471
 1583TIP3    H2 4695   6.641   5.366   1.588
 1584TIP3   OH2 4696   4.459   2.232   3.511
 1584TIP3    H1 4697   4.536   2.273   3.472
 1584TIP3    H2 4698   4.491   2.148   3.544
 1585TIP3   OH2 4699   1.339   3.211   1.217
 1585TIP3    H1 4700   1.291   3.270   1.275
 1585TIP3    H2 4701   1.431   3.237   1.227
 1586TIP3   OH2 4702   7.485   2.173   4.401
 1586TIP3    H1 4703   7.541   2.194   4.325
 1586TIP3    H2 4704   7.514   2.235   4.468
 1587TIP3   OH2 4705   6.369   0.547   6.523
 1587TIP3    H1 4706   6.449   0.549   6.576
 1587TIP3    H2 4707   6.298   0.553   6.586
 1588TIP3   OH2 4708   5.514   0.456   0.615
 1588TIP3    H1 4709   5.519   0.490   0.704
 1588TIP3    H2 4710   5.424   0.472   0.588
 1589TIP3   OH2 4711   7.107   2.735   3.052
 1589TIP3    H1 4712   7.026   2.782   3.071
 1589TIP3    H2 4713   7.150   2.727   3.137
 1590TIP3   OH2 4714   1.000   5.305   2.773
 1590TIP3    H1 4715   1.059   5.243   2.816
 1590TIP3    H2 4716   1.055   5.378   2.749
 1591TIP3   OH2 4717   6.160   0.872   1.761
 1591TIP3    H1 4718   6.067   0.862   1.781
 1591TIP3    H2 4719   6.166   0.958   1.721
 1592TIP3   OH2 4720   8.154   7.708   1.252
 1592TIP3    H1 4721   8.126   7.679   1.165
 1592TIP3    H2 4722   8.206   7.635   1.285
 1593TIP3   OH2 4723   1.310   3.131   3.498
 1593TIP3    H1 4724   1.349   3.165   3.578
 1593TIP3    H2 4725   1.363   3.055   3.476
 1594TIP3   OH2 4726   6.648   0.347   4.809
 1594TIP3    H1 4727   6.558   0.376   4.796
 1594TIP3    H2 4728   6.641   0.254   4.830
 1595TIP3   OH2 4729   7.970   1.752   0.917
 1595TIP3    H1 4730   8.060   1.741   0.888
 1595TIP3    H2 4731   7.956   1.683   0.981
 1596TIP3   OH2 4732   7.623   1.703   5.655
 1596TIP3    H1 4733   7.594   1.687   5.745
 1596TIP3    H2 4734   7.634   1.616   5.618
 1597TIP3   OH2 4735   3.527   6.796   4.173
 1597TIP3    H1 4736   3.545   6.710   4.209
 1597TIP3    H2 4737   3.594   6.809   4.105
 1598TIP3   OH2 4738   5.403   4.688   0.515
 1598TIP3    H1 4739   5.429   4.618   0.456
 1598TIP3    H2 4740   5.456   4.763   0.488
 1599TIP3   OH2 4741   0.985   6.138   1.311
 1599TIP3    H1 4742   1.023   6.215   1.353
 1599TIP3    H2 4743   1.048   6.068   1.327
 1600TIP3   OH2 4744   5.781   7.651   0.626
 1600TIP3    H1 4745   5.694   7.687   0.644
 1600TIP3    H2 4746   5.840   7.727   0.631
 1601TIP3   OH2 4747   3.362   6.357   6.090
 1601TIP3    H1 4748   3.341   6.294   6.021
 1601TIP3    H2 4749   3.456   6.372   6.082
 1602TIP3   OH2 4750   5.833   2.329   4.083
 1602TIP3    H1 4751   5.829   2.234   4.070
 1602TIP3    H2 4752   5.926   2.350   4.073
 1603TIP3   OH2 4753   5.963   7.300   4.987
 1603TIP3    H1 4754   5.908   7.347   4.924
 1603TIP3    H2 4755   5.904   7.239   5.030
 1604TIP3   OH2 4756   0.368   0.389   0.692
 1604TIP3    H1 4757   0.287   0.414   0.737
 1604TIP3    H2 4758   0.355   0.421   0.602
 1605TIP3   OH2 4759   5.488   1.034   2.126
 1605TIP3    H1 4760   5.492   1.126   2.100
 1605TIP3    H2 4761   5.422   1.032   2.195
 1606TIP3   OH2 4762   6.818   2.577   6.661
 1606TIP3    H1 4763   6.882   2.533   6.717
 1606TIP3    H2 4764   6.833   2.542   6.574
 1607TIP3   OH2 4765   0.492   6.939   1.915
 1607TIP3    H1 4766   0.478   6.997   1.990
 1607TIP3    H2 4767   0.581   6.906   1.927
 1608TIP3   OH2 4768   6.947   2.323   1.565
 1608TIP3    H1 4769   6.932   2.241   1.518
 1608TIP3    H2 4770   6.865   2.338   1.612
 1609TIP3   OH2 4771   4.034   7.629   0.045
 1609TIP3    H1 4772   4.059   7.676  -0.035
 1609TIP3    H2 4773   4.115   7.588   0.075
 1610TIP3   OH2 4774   1.944   1.961   2.106
 1610TIP3    H1 4775   2.025   1.914   2.124
 1610TIP3    H2 4776   1.959   2.049   2.140
 1611TIP3   OH2 4777   2.479   3.666   1.977
 1611TIP3    H1 4778   2.494   3.577   2.011
 1611TIP3    H2 4779   2.537   3.721   2.030
 1612TIP3   OH2 4780   2.681   4.228   6.629
 1612TIP3    H1 4781   2.733   4.155   6.662
 1612TIP3    H2 4782   2.738   4.304   6.639
 1613TIP3   OH2 4783   6.076   0.741   5.113
 1613TIP3    H1 4784   6.052   0.676   5.046
 1613TIP3    H2 4785   6.058   0.698   5.196
 1614TIP3   OH2 4786   6.683   3.747   5.324
 1614TIP3    H1 4787   6.675   3.779   5.414
 1614TIP3    H2 4788   6.740   3.671   5.331
 1615TIP3   OH2 4789   3.721   5.683   2.493
 1615TIP3    H1 4790   3.721   5.658   2.401
 1615TIP3    H2 4791   3.666   5.761   2.497
 1616TIP3   OH2 4792   4.907   5.975   3.985
 1616TIP3    H1 4793   4.890   5.925   4.066
 1616TIP3    H2 4794   4.998   5.956   3.965
 1617TIP3   OH2 4795   8.278   6.621   3.508
 1617TIP3    H1 4796   8.192   6.649   3.477
 1617TIP3    H2 4797   8.292   6.672   3.588
 1618TIP3   OH2 4798   5.664   0.370   4.595
 1618TIP3    H1 4799   5.629   0.281   4.604
 1618TIP3    H2 4800   5.741   0.371   4.652
 1619TIP3   OH2 4801   7.806   3.630   3.126
 1619TIP3    H1 4802   7.772   3.606   3.212
 1619TIP3    H2 4803   7.825   3.546   3.084
 1620TIP3   OH2 4804   1.835   6.998   2.991
 1620TIP3    H1 4805   1.800   7.082   2.964
 1620TIP3    H2 4806   1.775   6.968   3.060
 1621TIP3   OH2 4807   5.924   2.477   3.488
 1621TIP3    H1 4808   5.994   2.427   3.447
 1621TIP3    H2 4809   5.846   2.455   3.437
 1622TIP3   OH2 4810   3.030   1.608   2.590
 1622TIP3    H1 4811   2.979   1.690   2.586
 1622TIP3    H2 4812   2.977   1.545   2.542
 1623TIP3   OH2 4813   0.628   4.587   1.806
 1623TIP3    H1 4814   0.669   4.502   1.793
 1623TIP3    H2 4815   0.556   4.570   1.866
 1624TIP3   OH2 4816   0.406   1.569   2.487
 1624TIP3    H1 4817   0.500   1.557   2.500
 1624TIP3    H2 4818   0.373   1.597   2.572
 1625TIP3   OH2 4819   0.745   3.779   3.337
 1625TIP3    H1 4820   0.726   3.723   3.262
 1625TIP3    H2 4821   0.675   3.760   3.399
 1626TIP3   OH2 4822   6.987   7.193   1.919
 1626TIP3    H1 4823   6.975   7.108   1.959
 1626TIP3    H2 4824   7.014   7.174   1.829
 1627TIP3   OH2 4825   1.499   7.449   0.703
 1627TIP3    H1 4826   1.498   7.377   0.641
 1627TIP3    H2 4827   1.462   7.413   0.783
 1628TIP3   OH2 4828   0.547   5.468   0.902
 1628TIP3    H1 4829   0.629   5.503   0.867
 1628TIP3    H2 4830   0.479   5.521   0.862
 1629TIP3   OH2 4831   8.203   5.886   5.752
 1629TIP3    H1 4832   8.144   5.832   5.805
 1629TIP3    H2 4833   8.224   5.960   5.809
 1630TIP3   OH2 4834   3.741   0.996   3.716
 1630TIP3    H1 4835   3.836   0.982   3.718
 1630TIP3    H2 4836   3.708   0.949   3.792
 1631TIP3   OH2 4837   3.273   4.987   2.816
 1631TIP3    H1 4838   3.208   5.057   2.821
 1631TIP3    H2 4839   3.317   4.990   2.901
 1632TIP3   OH2 4840   4.666   3.651   2.998
 1632TIP3    H1 4841   4.660   3.612   3.085
 1632TIP3    H2 4842   4.645   3.579   2.938
 1633TIP3   OH2 4843   7.380   4.679   0.514
 1633TIP3    H1 4844   7.294   4.719   0.526
 1633TIP3    H2 4845   7.400   4.637   0.598
 1634TIP3   OH2 4846   7.262   3.968   2.433
 1634TIP3    H1 4847   7.208   3.896   2.466
 1634TIP3    H2 4848   7.239   4.043   2.487
 1635TIP3   OH2 4849   0.349   7.596   6.719
 1635TIP3    H1 4850   0.262   7.575   6.685
 1635TIP3    H2 4851   0.357   7.541   6.798
 1636TIP3   OH2 4852   7.020   5.726   4.286
 1636TIP3    H1 4853   7.111   5.752   4.277
 1636TIP3    H2 4854   6.971   5.793   4.237
 1637TIP3   OH2 4855   3.944   0.966   0.147
 1637TIP3    H1 4856   3.849   0.968   0.135
 1637TIP3    H2 4857   3.958   0.901   0.217
 1638TIP3   OH2 4858   7.314   3.373   1.279
 1638TIP3    H1 4859   7.315   3.443   1.214
 1638TIP3    H2 4860   7.385   3.314   1.252
 1639TIP3   OH2 4861   3.727   5.184   2.066
 1639TIP3    H1 4862   3.635   5.210   2.061
 1639TIP3    H2 4863   3.775   5.255   2.023
 1640TIP3   OH2 4864   3.623   5.506   1.944
 1640TIP3    H1 4865   3.567   5.539   1.874
 1640TIP3    H2 4866   3.704   5.480   1.899
 1641TIP3   OH2 4867   4.272   4.587   1.774
 1641TIP3    H1 4868   4.208   4.527   1.735
 1641TIP3    H2 4869   4.348   4.581   1.716
 1642TIP3   OH2 4870   5.448   2.307   1.937
 1642TIP3    H1 4871   5.480   2.290   2.026
 1642TIP3    H2 4872   5.376   2.244   1.926
 1643TIP3   OH2 4873   0.753   1.474   6.213
 1643TIP3    H1 4874   0.700   1.414   6.160
 1643TIP3    H2 4875   0.791   1.418   6.281
 1644TIP3   OH2 4876   2.244   4.715   6.658
 1644TIP3    H1 4877   2.157   4.675   6.661
 1644TIP3    H2 4878   2.228   4.808   6.674
 1645TIP3   OH2 4879   7.332   0.502   4.087
 1645TIP3    H1 4880   7.319   0.464   4.174
 1645TIP3    H2 4881   7.359   0.428   4.032
 1646TIP3   OH2 4882   8.197   5.188   5.056
 1646TIP3    H1 4883   8.222   5.272   5.017
 1646TIP3    H2 4884   8.122   5.159   5.004
 1647TIP3   OH2 4885   3.297   1.601   4.875
 1647TIP3    H1 4886   3.254   1.676   4.916
 1647TIP3    H2 4887   3.225   1.550   4.836
 1648TIP3   OH2 4888   3.793   1.565   6.063
 1648TIP3    H1 4889   3.832   1.648   6.036
 1648TIP3    H2 4890   3.778   1.518   5.982
 1649TIP3   OH2 4891   0.359   2.072   2.717
 1649TIP3    H1 4892   0.274   2.083   2.674
 1649TIP3    H2 4893   0.420   2.123   2.663
 1650TIP3   OH2 4894   7.850   4.709   1.039
 1650TIP3    H1 4895   7.872   4.668   0.956
 1650TIP3    H2 4896   7.928   4.757   1.064
 1651TIP3   OH2 4897   0.251   7.150   5.323
 1651TIP3    H1 4898   0.193   7.136   5.249
 1651TIP3    H2 4899   0.252   7.066   5.369
 1652TIP3   OH2 4900   8.074   7.207   5.605
 1652TIP3    H1 4901   8.044   7.151   5.533
 1652TIP3    H2 4902   8.048   7.295   5.579
 1653TIP3   OH2 4903   1.337   4.872   5.913
 1653TIP3    H1 4904   1.281   4.947   5.895
 1653TIP3    H2 4905   1.393   4.901   5.986
 1654TIP3   OH2 4906   5.752   5.750   3.025
 1654TIP3    H1 4907   5.795   5.707   2.952
 1654TIP3    H2 4908   5.777   5.842   3.017
 1655TIP3   OH2 4909   4.679   4.967   2.581
 1655TIP3    H1 4910   4.638   4.885   2.551
 1655TIP3    H2 4911   4.606   5.028   2.590
 1656TIP3   OH2 4912   0.365   3.736   5.974
 1656TIP3    H1 4913   0.323   3.684   6.043
 1656TIP3    H2 4914   0.296   3.792   5.940
 1657TIP3   OH2 4915   2.165   5.793   1.660
 1657TIP3    H1 4916   2.244   5.844   1.639
 1657TIP3    H2 4917   2.102   5.858   1.690
 1658TIP3   OH2 4918   7.591   6.791   3.445
 1658TIP3    H1 4919   7.523   6.772   3.509
 1658TIP3    H2 4920   7.666   6.821   3.497
 1659TIP3   OH2 4921   5.274   7.685   3.119
 1659TIP3    H1 4922   5.303   7.600   3.086
 1659TIP3    H2 4923   5.313   7.690   3.207
 1660TIP3   OH2 4924   4.905   4.201   6.609
 1660TIP3    H1 4925   4.920   4.295   6.618
 1660TIP3    H2 4926   4.951   4.178   6.528
 1661TIP3   OH2 4927   0.444   2.012   3.869
 1661TIP3    H1 4928   0.453   1.988   3.777
 1661TIP3    H2 4929   0.383   1.947   3.905
 1662TIP3   OH2 4930   1.310   4.964   3.732
 1662TIP3    H1 4931   1.247   4.908   3.687
 1662TIP3    H2 4932   1.384   4.971   3.672
 1663TIP3   OH2 4933   2.136   5.322   1.872
 1663TIP3    H1 4934   2.163   5.299   1.962
 1663TIP3    H2 4935   2.084   5.401   1.882
 1664TIP3   OH2 4936   5.337   1.362   1.045
 1664TIP3    H1 4937   5.353   1.456   1.050
 1664TIP3    H2 4938   5.271   1.353   0.977
 1665TIP3   OH2 4939   6.842   1.314   3.687
 1665TIP3    H1 4940   6.887   1.286   3.608
 1665TIP3    H2 4941   6.843   1.410   3.683
 1666TIP3   OH2 4942   2.610   3.186   0.218
 1666TIP3    H1 4943   2.564   3.268   0.234
 1666TIP3    H2 4944   2.641   3.193   0.128
 1667TIP3   OH2 4945   0.869   3.407   6.212
 1667TIP3    H1 4946   0.782   3.410   6.173
 1667TIP3    H2 4947   0.857   3.363   6.296
 1668TIP3   OH2 4948   8.228   4.751   5.358
 1668TIP3    H1 4949   8.314   4.718   5.332
 1668TIP3    H2 4950   8.221   4.836   5.315
 1669TIP3   OH2 4951   0.400   7.529   0.663
 1669TIP3    H1 4952   0.317   7.500   0.702
 1669TIP3    H2 4953   0.383   7.530   0.569
 1670TIP3   OH2 4954   3.433   5.928   4.574
 1670TIP3    H1 4955   3.376   5.891   4.506
 1670TIP3    H2 4956   3.483   5.996   4.528
 1671TIP3   OH2 4957   6.909   5.896   2.140
 1671TIP3    H1 4958   6.996   5.930   2.117
 1671TIP3    H2 4959   6.850   5.935   2.076
 1672TIP3   OH2 4960   2.476   4.727   1.896
 1672TIP3    H1 4961   2.495   4.641   1.858
 1672TIP3    H2 4962   2.560   4.773   1.892
 1673TIP3   OH2 4963   1.168   1.960   1.728
 1673TIP3    H1 4964   1.225   1.897   1.684
 1673TIP3    H2 4965   1.198   1.961   1.819
 1674TIP3   OH2 4966   0.251   1.816   3.939
 1674TIP3    H1 4967   0.310   1.833   4.012
 1674TIP3    H2 4968   0.167   1.851   3.967
 1675TIP3   OH2 4969   0.134   7.066   4.775
 1675TIP3    H1 4970   0.156   6.973   4.775
 1675TIP3    H2 4971   0.171   7.100   4.693
 1676TIP3   OH2 4972   6.646   1.771   4.849
 1676TIP3    H1 4973   6.629   1.772   4.755
 1676TIP3    H2 4974   6.569   1.729   4.887
 1677TIP3   OH2 4975   4.943   4.277   0.927
 1677TIP3    H1 4976   4.975   4.367   0.938
 1677TIP3    H2 4977   4.906   4.276   0.839
 1678TIP3   OH2 4978   3.593   0.873   5.272
 1678TIP3    H1 4979   3.569   0.958   5.235
 1678TIP3    H2 4980   3.552   0.872   5.358
 1679TIP3   OH2 4981   3.486   1.908   2.966
 1679TIP3    H1 4982   3.445   1.983   3.011
 1679TIP3    H2 4983   3.563   1.887   3.018
 1680TIP3   OH2 4984   0.454   0.038   2.002
 1680TIP3    H1 4985   0.495   0.090   2.071
 1680TIP3    H2 4986   0.525   0.022   1.939
 1681TIP3   OH2 4987   6.613   7.031   3.362
 1681TIP3    H1 4988   6.686   6.971   3.380
 1681TIP3    H2 4989   6.655   7.110   3.327
 1682TIP3   OH2 4990   6.884   3.217   0.804
 1682TIP3    H1 4991   6.834   3.189   0.727
 1682TIP3    H2 4992   6.853   3.161   0.875
 1683TIP3   OH2 4993   8.187   6.646   2.873
 1683TIP3    H1 4994   8.202   6.552   2.865
 1683TIP3    H2 4995   8.128   6.667   2.801
 1684TIP3   OH2 4996   0.369   3.609   2.546
 1684TIP3    H1 4997   0.343   3.536   2.602
 1684TIP3    H2 4998   0.304   3.677   2.563
 1685TIP3   OH2 4999   2.117   0.444   2.492
 1685TIP3    H1 5000   2.142   0.436   2.399
 1685TIP3    H2 5001   2.102   0.353   2.519
 1686TIP3   OH2 5002   6.865   5.475   5.988
 1686TIP3    H1 5003   6.897   5.389   6.016
 1686TIP3    H2 5004   6.909   5.537   6.047
 1687TIP3   OH2 5005   4.367   6.007   5.970
 1687TIP3    H1 5006   4.277   6.033   5.953
 1687TIP3    H2 5007   4.380   5.930   5.915
 1688TIP3   OH2 5008   2.228   3.564   0.130
 1688TIP3    H1 5009   2.291   3.626   0.166
 1688TIP3    H2 5010   2.247   3.481   0.174
 1689TIP3   OH2 5011   1.811   0.409   6.762
 1689TIP3    H1 5012   1.797   0.398   6.668
 1689TIP3    H2 5013   1.771   0.332   6.802
 1690TIP3   OH2 5014   4.890   7.659   2.397
 1690TIP3    H1 5015   4.909   7.661   2.303
 1690TIP3    H2 5016   4.974   7.676   2.439
 1691TIP3   OH2 5017   8.024   2.925   1.381
 1691TIP3    H1 5018   7.938   2.924   1.338
 1691TIP3    H2 5019   8.076   2.986   1.328
 1692TIP3   OH2 5020   7.321   7.388   2.841
 1692TIP3    H1 5021   7.269   7.423   2.769
 1692TIP3    H2 5022   7.292   7.297   2.849
 1693TIP3   OH2 5023   5.912   2.233   2.196
 1693TIP3    H1 5024   5.959   2.312   2.167
 1693TIP3    H2 5025   5.981   2.173   2.223
 1694TIP3   OH2 5026   6.687   3.781   4.102
 1694TIP3    H1 5027   6.674   3.749   4.191
 1694TIP3    H2 5028   6.662   3.708   4.046
 1695TIP3   OH2 5029   6.617   6.206   2.523
 1695TIP3    H1 5030   6.593   6.128   2.473
 1695TIP3    H2 5031   6.712   6.210   2.516
 1696TIP3   OH2 5032   2.835   5.138   1.640
 1696TIP3    H1 5033   2.805   5.213   1.691
 1696TIP3    H2 5034   2.880   5.082   1.703
 1697TIP3   OH2 5035   2.907   1.078   1.930
 1697TIP3    H1 5036   2.984   1.101   1.982
 1697TIP3    H2 5037   2.841   1.142   1.955
 1698TIP3   OH2 5038   0.113   2.880   3.764
 1698TIP3    H1 5039   0.174   2.891   3.690
 1698TIP3    H2 5040   0.144   2.802   3.810
 1699TIP3   OH2 5041   2.633   6.534   4.226
 1699TIP3    H1 5042   2.626   6.595   4.299
 1699TIP3    H2 5043   2.710   6.480   4.248
 1700TIP3   OH2 5044   6.212   0.250   1.705
 1700TIP3    H1 5045   6.244   0.159   1.710
 1700TIP3    H2 5046   6.290   0.303   1.723
 1701TIP3   OH2 5047   0.162   0.650   2.273
 1701TIP3    H1 5048   0.186   0.652   2.181
 1701TIP3    H2 5049   0.228   0.704   2.317
 1702TIP3   OH2 5050   5.558   7.054   4.535
 1702TIP3    H1 5051   5.538   7.067   4.442
 1702TIP3    H2 5052   5.618   6.980   4.536
 1703TIP3   OH2 5053   0.992   7.521   0.080
 1703TIP3    H1 5054   1.076   7.537   0.037
 1703TIP3    H2 5055   0.940   7.473   0.016
 1704TIP3   OH2 5056   7.413   4.895   4.096
 1704TIP3    H1 5057   7.364   4.928   4.021
 1704TIP3    H2 5058   7.403   4.800   4.093
 1705TIP3   OH2 5059   7.052   7.734   0.102
 1705TIP3    H1 5060   7.089   7.675   0.036
 1705TIP3    H2 5061   7.120   7.741   0.169
 1706TIP3   OH2 5062   3.260   7.512   4.301
 1706TIP3    H1 5063   3.326   7.575   4.332
 1706TIP3    H2 5064   3.258   7.526   4.206
 1707TIP3   OH2 5065   3.504   1.984   3.784
 1707TIP3    H1 5066   3.595   1.956   3.789
 1707TIP3    H2 5067   3.455   1.919   3.834
 1708TIP3   OH2 5068   3.962   3.167   2.068
 1708TIP3    H1 5069   4.007   3.206   1.993
 1708TIP3    H2 5070   3.907   3.237   2.102
 1709TIP3   OH2 5071   2.562   4.363   0.386
 1709TIP3    H1 5072   2.569   4.271   0.361
 1709TIP3    H2 5073   2.518   4.362   0.471
 1710TIP3   OH2 5074   0.390   0.260   6.133
 1710TIP3    H1 5075   0.369   0.229   6.045
 1710TIP3    H2 5076   0.484   0.243   6.143
 1711TIP3   OH2 5077   0.882   1.587   5.139
 1711TIP3    H1 5078   0.872   1.492   5.145
 1711TIP3    H2 5079   0.962   1.600   5.088
 1712TIP3   OH2 5080   2.186   3.315   3.957
 1712TIP3    H1 5081   2.178   3.284   3.866
 1712TIP3    H2 5082   2.129   3.256   4.007
 1713TIP3   OH2 5083   4.554   0.719   1.494
 1713TIP3    H1 5084   4.542   0.813   1.509
 1713TIP3    H2 5085   4.613   0.714   1.419
 1714TIP3   OH2 5086   7.332   0.666   6.105
 1714TIP3    H1 5087   7.373   0.595   6.055
 1714TIP3    H2 5088   7.398   0.690   6.170
 1715TIP3   OH2 5089   1.220   3.975   2.084
 1715TIP3    H1 5090   1.243   3.882   2.076
 1715TIP3    H2 5091   1.220   4.007   1.994
 1716TIP3   OH2 5092   8.225   2.392   3.112
 1716TIP3    H1 5093   8.217   2.427   3.023
 1716TIP3    H2 5094   8.185   2.459   3.168
 1717TIP3   OH2 5095   1.365   4.986   1.271
 1717TIP3    H1 5096   1.322   4.906   1.239
 1717TIP3    H2 5097   1.400   4.961   1.357
 1718TIP3   OH2 5098   2.367   4.900   1.601
 1718TIP3    H1 5099   2.406   4.982   1.630
 1718TIP3    H2 5100   2.323   4.866   1.678
 1719TIP3   OH2 5101   3.593   4.035   6.115
 1719TIP3    H1 5102   3.554   4.068   6.196
 1719TIP3    H2 5103   3.598   3.940   6.128
 1720TIP3   OH2 5104   1.714   3.700   4.017
 1720TIP3    H1 5105   1.730   3.770   4.079
 1720TIP3    H2 5106   1.627   3.666   4.041
 1721TIP3   OH2 5107   4.302   0.252   6.527
 1721TIP3    H1 5108   4.286   0.162   6.554
 1721TIP3    H2 5109   4.397   0.262   6.532
 1722TIP3   OH2 5110   0.523   5.451   4.982
 1722TIP3    H1 5111   0.613   5.476   5.002
 1722TIP3    H2 5112   0.472   5.531   4.990
 1723TIP3   OH2 5113   1.634   2.454   4.066
 1723TIP3    H1 5114   1.641   2.447   4.161
 1723TIP3    H2 5115   1.661   2.368   4.034
 1724TIP3   OH2 5116   1.261   0.237   3.799
 1724TIP3    H1 5117   1.182   0.233   3.852
 1724TIP3    H2 5118   1.277   0.330   3.787
 1725TIP3   OH2 5119   1.019   4.851   2.653
 1725TIP3    H1 5120   1.062   4.934   2.632
 1725TIP3    H2 5121   1.014   4.805   2.568
 1726TIP3   OH2 5122   1.167   4.378   3.702
 1726TIP3    H1 5123   1.156   4.418   3.788
 1726TIP3    H2 5124   1.078   4.353   3.675
 1727TIP3   OH2 5125   6.032   3.042   2.954
 1727TIP3    H1 5126   6.071   3.120   2.915
 1727TIP3    H2 5127   6.104   3.000   3.001
 1728TIP3   OH2 5128   1.611   4.097   1.452
 1728TIP3    H1 5129   1.643   4.188   1.453
 1728TIP3    H2 5130   1.517   4.104   1.467
 1729TIP3   OH2 5131   2.549   0.044   0.184
 1729TIP3    H1 5132   2.530  -0.046   0.160
 1729TIP3    H2 5133   2.482   0.096   0.141
 1730TIP3   OH2 5134   1.614   7.580   4.937
 1730TIP3    H1 5135   1.710   7.584   4.931
 1730TIP3    H2 5136   1.593   7.635   5.012
 1731TIP3   OH2 5137   5.754   5.151   4.303
 1731TIP3    H1 5138   5.695   5.175   4.232
 1731TIP3    H2 5139   5.733   5.059   4.322
 1732TIP3   OH2 5140   0.912   4.040   1.999
 1732TIP3    H1 5141   0.995   4.029   2.046
 1732TIP3    H2 5142   0.875   3.952   1.994
 1733TIP3   OH2 5143   2.875   4.122   2.184
 1733TIP3    H1 5144   2.830   4.161   2.259
 1733TIP3    H2 5145   2.928   4.052   2.222
 1734TIP3   OH2 5146   3.126   4.597   4.355
 1734TIP3    H1 5147   3.188   4.664   4.384
 1734TIP3    H2 5148   3.042   4.624   4.394
 1735TIP3   OH2 5149   8.127   3.047   4.358
 1735TIP3    H1 5150   8.173   3.102   4.295
 1735TIP3    H2 5151   8.036   3.047   4.328
 1736TIP3   OH2 5152   3.775   3.948   5.517
 1736TIP3    H1 5153   3.761   3.992   5.600
 1736TIP3    H2 5154   3.833   4.006   5.468
 1737TIP3   OH2 5155   6.181   3.596   5.530
 1737TIP3    H1 5156   6.131   3.639   5.461
 1737TIP3    H2 5157   6.256   3.557   5.485
 1738TIP3   OH2 5158   0.619   3.369   5.730
 1738TIP3    H1 5159   0.622   3.282   5.690
 1738TIP3    H2 5160   0.565   3.421   5.671
 1739TIP3   OH2 5161   5.519   7.352   5.455
 1739TIP3    H1 5162   5.492   7.301   5.531
 1739TIP3    H2 5163   5.581   7.416   5.490
 1740TIP3   OH2 5164   2.846   3.281   2.522
 1740TIP3    H1 5165   2.804   3.242   2.600
 1740TIP3    H2 5166   2.919   3.331   2.557
 1741TIP3   OH2 5167   0.455   4.849   2.236
 1741TIP3    H1 5168   0.510   4.783   2.279
 1741TIP3    H2 5169   0.420   4.805   2.159
 1742TIP3   OH2 5170   1.225   1.909   3.537
 1742TIP3    H1 5171   1.226   1.998   3.570
 1742TIP3    H2 5172   1.283   1.860   3.595
 1743TIP3   OH2 5173   6.011   6.563   5.099
 1743TIP3    H1 5174   6.085   6.539   5.154
 1743TIP3    H2 5175   5.935   6.556   5.157
 1744TIP3   OH2 5176   6.351   5.374   0.757
 1744TIP3    H1 5177   6.288   5.325   0.810
 1744TIP3    H2 5178   6.407   5.418   0.821
 1745TIP3   OH2 5179   3.105   1.342   5.147
 1745TIP3    H1 5180   3.016   1.373   5.131
 1745TIP3    H2 5181   3.152   1.419   5.177
 1746TIP3   OH2 5182   1.058   0.698   6.417
 1746TIP3    H1 5183   1.008   0.618   6.436
 1746TIP3    H2 5184   1.048   0.711   6.323
 1747TIP3   OH2 5185   4.460   2.312   2.375
 1747TIP3    H1 5186   4.371   2.293   2.403
 1747TIP3    H2 5187   4.500   2.356   2.450
 1748TIP3   OH2 5188   2.825   7.629   3.588
 1748TIP3    H1 5189   2.830   7.721   3.614
 1748TIP3    H2 5190   2.859   7.627   3.499
 1749TIP3   OH2 5191   5.387   0.938   4.190
 1749TIP3    H1 5192   5.314   0.995   4.167
 1749TIP3    H2 5193   5.363   0.900   4.274
 1750TIP3   OH2 5194   2.899   6.521   5.894
 1750TIP3    H1 5195   2.959   6.447   5.898
 1750TIP3    H2 5196   2.850   6.517   5.976
 1751TIP3   OH2 5197   5.639   2.286   2.154
 1751TIP3    H1 5198   5.724   2.249   2.176
 1751TIP3    H2 5199   5.620   2.347   2.226
 1752TIP3   OH2 5200   2.370   0.106   0.923
 1752TIP3    H1 5201   2.415   0.118   1.007
 1752TIP3    H2 5202   2.370   0.012   0.908
 1753TIP3   OH2 5203   7.978   7.418   2.423
 1753TIP3    H1 5204   7.914   7.389   2.359
 1753TIP3    H2 5205   7.926   7.462   2.491
 1754TIP3   OH2 5206   6.801   7.145   0.823
 1754TIP3    H1 5207   6.739   7.158   0.894
 1754TIP3    H2 5208   6.748   7.112   0.750
 1755TIP3   OH2 5209   2.927   1.648   5.861
 1755TIP3    H1 5210   2.852   1.663   5.804
 1755TIP3    H2 5211   2.895   1.588   5.928
 1756TIP3   OH2 5212   5.536   3.778   2.866
 1756TIP3    H1 5213   5.480   3.720   2.917
 1756TIP3    H2 5214   5.485   3.796   2.786
 1757TIP3   OH2 5215   5.709   7.516   5.535
 1757TIP3    H1 5216   5.756   7.540   5.615
 1757TIP3    H2 5217   5.661   7.596   5.511
 1758TIP3   OH2 5218   1.850   7.689   5.980
 1758TIP3    H1 5219   1.768   7.698   6.030
 1758TIP3    H2 5220   1.863   7.775   5.940
 1759TIP3   OH2 5221   4.382   1.001   6.165
 1759TIP3    H1 5222   4.391   1.080   6.111
 1759TIP3    H2 5223   4.294   1.007   6.201
 1760TIP3   OH2 5224   7.843   6.683   4.816
 1760TIP3    H1 5225   7.815   6.736   4.891
 1760TIP3    H2 5226   7.837   6.593   4.847
 1761TIP3   OH2 5227   4.875   3.197   1.283
 1761TIP3    H1 5228   4.858   3.169   1.373
 1761TIP3    H2 5229   4.848   3.289   1.281
 1762TIP3   OH2 5230   5.906   6.412   4.213
 1762TIP3    H1 5231   5.826   6.462   4.226
 1762TIP3    H2 5232   5.964   6.441   4.283
 1763TIP3   OH2 5233   5.848  -0.011   3.426
 1763TIP3    H1 5234   5.832   0.041   3.504
 1763TIP3    H2 5235   5.936   0.016   3.397
 1764TIP3   OH2 5236   7.408   3.147   0.921
 1764TIP3    H1 5237   7.419   3.080   0.854
 1764TIP3    H2 5238   7.329   3.121   0.969
 1765TIP3   OH2 5239   0.866   4.406   3.336
 1765TIP3    H1 5240   0.860   4.338   3.269
 1765TIP3    H2 5241   0.959   4.432   3.336
 1766TIP3   OH2 5242   6.495   2.144   5.264
 1766TIP3    H1 5243   6.460   2.077   5.205
 1766TIP3    H2 5244   6.428   2.153   5.332
 1767TIP3   OH2 5245   7.744   5.229   3.594
 1767TIP3    H1 5246   7.686   5.252   3.522
 1767TIP3    H2 5247   7.719   5.140   3.618
 1768TIP3   OH2 5248   0.846   6.905   1.916
 1768TIP3    H1 5249   0.856   6.980   1.974
 1768TIP3    H2 5250   0.841   6.942   1.828
 1769TIP3   OH2 5251   5.761   3.184   0.127
 1769TIP3    H1 5252   5.742   3.235   0.206
 1769TIP3    H2 5253   5.852   3.157   0.137
 1770TIP3   OH2 5254   7.364   3.432   0.191
 1770TIP3    H1 5255   7.404   3.422   0.277
 1770TIP3    H2 5256   7.276   3.466   0.209
 1771TIP3   OH2 5257   5.770   4.162   1.849
 1771TIP3    H1 5258   5.756   4.205   1.765
 1771TIP3    H2 5259   5.712   4.086   1.847
 1772TIP3   OH2 5260   2.750   3.700   1.590
 1772TIP3    H1 5261   2.832   3.660   1.619
 1772TIP3    H2 5262   2.776   3.787   1.559
 1773TIP3   OH2 5263   7.111   4.921   6.374
 1773TIP3    H1 5264   7.080   5.011   6.387
 1773TIP3    H2 5265   7.118   4.911   6.279
 1774TIP3   OH2 5266   0.965   6.809   0.224
 1774TIP3    H1 5267   1.041   6.839   0.174
 1774TIP3    H2 5268   0.890   6.834   0.170
 1775TIP3   OH2 5269   0.110   6.786   1.814
 1775TIP3    H1 5270   0.046   6.849   1.846
 1775TIP3    H2 5271   0.190   6.837   1.801
 1776TIP3   OH2 5272   6.156   6.002   0.241
 1776TIP3    H1 5273   6.147   5.911   0.213
 1776TIP3    H2 5274   6.168   6.051   0.160
 1777TIP3   OH2 5275   4.424   1.703   1.147
 1777TIP3    H1 5276   4.504   1.754   1.133
 1777TIP3    H2 5277   4.354   1.769   1.149
 1778TIP3   OH2 5278   7.696   1.395   1.250
 1778TIP3    H1 5279   7.652   1.326   1.299
 1778TIP3    H2 5280   7.643   1.473   1.265
 1779TIP3   OH2 5281   6.362   5.311   3.866
 1779TIP3    H1 5282   6.301   5.384   3.870
 1779TIP3    H2 5283   6.373   5.284   3.957
 1780TIP3   OH2 5284   8.026   7.153   5.243
 1780TIP3    H1 5285   8.045   7.097   5.168
 1780TIP3    H2 5286   8.006   7.238   5.204
 1781TIP3   OH2 5287   3.120   4.294   1.648
 1781TIP3    H1 5288   3.055   4.354   1.684
 1781TIP3    H2 5289   3.088   4.207   1.673
 1782TIP3   OH2 5290   3.322   6.663   1.185
 1782TIP3    H1 5291   3.334   6.578   1.227
 1782TIP3    H2 5292   3.252   6.705   1.235
 1783TIP3   OH2 5293   3.524   6.291   4.740
 1783TIP3    H1 5294   3.432   6.273   4.720
 1783TIP3    H2 5295   3.541   6.240   4.819
 1784TIP3   OH2 5296   3.354   4.273   3.308
 1784TIP3    H1 5297   3.306   4.194   3.283
 1784TIP3    H2 5298   3.370   4.263   3.402
 1785TIP3   OH2 5299   7.656   6.580   6.392
 1785TIP3    H1 5300   7.699   6.575   6.478
 1785TIP3    H2 5301   7.662   6.672   6.367
 1786TIP3   OH2 5302   1.315   2.800   1.245
 1786TIP3    H1 5303   1.282   2.715   1.218
 1786TIP3    H2 5304   1.251   2.832   1.309
 1787TIP3   OH2 5305   6.011   4.502   4.714
 1787TIP3    H1 5306   5.963   4.524   4.794
 1787TIP3    H2 5307   6.052   4.585   4.688
 1788TIP3   OH2 5308   7.285   5.132   4.656
 1788TIP3    H1 5309   7.306   5.197   4.723
 1788TIP3    H2 5310   7.339   5.156   4.581
 1789TIP3   OH2 5311   6.183   3.746   3.848
 1789TIP3    H1 5312   6.212   3.836   3.830
 1789TIP3    H2 5313   6.209   3.696   3.771
 1790TIP3   OH2 5314   6.381   3.813   2.786
 1790TIP3    H1 5315   6.310   3.750   2.776
 1790TIP3    H2 5316   6.440   3.795   2.713
 1791TIP3   OH2 5317   4.819   5.798   3.306
 1791TIP3    H1 5318   4.794   5.714   3.344
 1791TIP3    H2 5319   4.818   5.859   3.380
 1792TIP3   OH2 5320   1.507   0.126   0.343
 1792TIP3    H1 5321   1.430   0.073   0.365
 1792TIP3    H2 5322   1.542   0.155   0.428
 1793TIP3   OH2 5323   6.444   5.166   6.486
 1793TIP3    H1 5324   6.363   5.130   6.449
 1793TIP3    H2 5325   6.414   5.218   6.561
 1794TIP3   OH2 5326   8.068   6.654   3.275
 1794TIP3    H1 5327   8.064   6.562   3.303
 1794TIP3    H2 5328   8.038   6.703   3.352
 1795TIP3   OH2 5329   7.891   5.200   1.479
 1795TIP3    H1 5330   7.828   5.204   1.406
 1795TIP3    H2 5331   7.899   5.106   1.498
 1796TIP3   OH2 5332   5.920   5.746   4.956
 1796TIP3    H1 5333   5.910   5.654   4.929
 1796TIP3    H2 5334   5.983   5.743   5.028
 1797TIP3   OH2 5335   3.027   1.265   0.729
 1797TIP3    H1 5336   3.121   1.270   0.741
 1797TIP3    H2 5337   2.991   1.287   0.815
 1798TIP3   OH2 5338   2.457   1.518   2.603
 1798TIP3    H1 5339   2.516   1.454   2.562
 1798TIP3    H2 5340   2.388   1.465   2.642
 1799TIP3   OH2 5341   3.698   7.453   4.080
 1799TIP3    H1 5342   3.663   7.502   4.005
 1799TIP3    H2 5343   3.685   7.361   4.056
 1800TIP3   OH2 5344   2.836   7.308   2.807
 1800TIP3    H1 5345   2.816   7.247   2.878
 1800TIP3    H2 5346   2.843   7.253   2.729
 1801TIP3   OH2 5347   4.544   1.997   6.749
 1801TIP3    H1 5348   4.580   2.058   6.685
 1801TIP3    H2 5349   4.572   2.032   6.834
 1802TIP3   OH2 5350   1.978   6.840   1.064
 1802TIP3    H1 5351   2.040   6.853   0.993
 1802TIP3    H2 5352   2.027   6.795   1.133
 1803TIP3   OH2 5353   2.927   0.926   5.762
 1803TIP3    H1 5354   2.961   0.856   5.705
 1803TIP3    H2 5355   2.998   0.941   5.825
 1804TIP3   OH2 5356   0.139   1.162   6.714
 1804TIP3    H1 5357   0.095   1.092   6.762
 1804TIP3    H2 5358   0.232   1.138   6.715
 1805TIP3   OH2 5359   4.798   0.555   2.460
 1805TIP3    H1 5360   4.836   0.473   2.430
 1805TIP3    H2 5361   4.755   0.533   2.543
 1806TIP3   OH2 5362   7.421   1.945   4.956
 1806TIP3    H1 5363   7.342   1.993   4.934
 1806TIP3    H2 5364   7.464   1.927   4.873
 1807TIP3   OH2 5365   5.663   4.171   6.069
 1807TIP3    H1 5366   5.589   4.207   6.020
 1807TIP3    H2 5367   5.626   4.095   6.114
 1808TIP3   OH2 5368   7.949   5.082   4.913
 1808TIP3    H1 5369   8.020   5.020   4.899
 1808TIP3    H2 5370   7.925   5.111   4.825
 1809TIP3   OH2 5371   7.858   1.711   3.664
 1809TIP3    H1 5372   7.791   1.642   3.670
 1809TIP3    H2 5373   7.924   1.675   3.605
 1810TIP3   OH2 5374   2.918   7.578   0.484
 1810TIP3    H1 5375   2.915   7.508   0.549
 1810TIP3    H2 5376   2.998   7.562   0.434
 1811TIP3   OH2 5377   2.678   3.995   6.048
 1811TIP3    H1 5378   2.624   4.041   6.112
 1811TIP3    H2 5379   2.766   4.031   6.061
 1812TIP3   OH2 5380   2.932   1.359   4.254
 1812TIP3    H1 5381   2.926   1.279   4.307
 1812TIP3    H2 5382   3.019   1.395   4.275
 1813TIP3   OH2 5383   8.201   1.775   5.422
 1813TIP3    H1 5384   8.210   1.854   5.369
 1813TIP3    H2 5385   8.240   1.705   5.368
 1814TIP3   OH2 5386   4.080   3.777   5.575
 1814TIP3    H1 5387   3.992   3.747   5.599
 1814TIP3    H2 5388   4.065   3.836   5.502
 1815TIP3   OH2 5389   5.820   6.466   5.776
 1815TIP3    H1 5390   5.809   6.561   5.782
 1815TIP3    H2 5391   5.741   6.435   5.732
 1816TIP3   OH2 5392   0.050   4.434   1.772
 1816TIP3    H1 5393   0.125   4.489   1.790
 1816TIP3    H2 5394  -0.013   4.492   1.730
 1817TIP3   OH2 5395   7.519   7.399   3.745
 1817TIP3    H1 5396   7.587   7.387   3.811
 1817TIP3    H2 5397   7.565   7.391   3.661
 1818TIP3   OH2 5398   6.937   7.341   5.380
 1818TIP3    H1 5399   7.027   7.344   5.349
 1818TIP3    H2 5400   6.938   7.392   5.461
 1819TIP3   OH2 5401   0.317   6.102   4.274
 1819TIP3    H1 5402   0.270   6.070   4.197
 1819TIP3    H2 5403   0.256   6.089   4.347
 1820TIP3   OH2 5404   0.685   5.181   3.395
 1820TIP3    H1 5405   0.674   5.272   3.367
 1820TIP3    H2 5406   0.597   5.153   3.420
 1821TIP3   OH2 5407   7.850   3.321   4.453
 1821TIP3    H1 5408   7.847   3.229   4.480
 1821TIP3    H2 5409   7.787   3.327   4.381
 1822TIP3   OH2 5410   0.948   0.437   6.501
 1822TIP3    H1 5411   0.919   0.431   6.410
 1822TIP3    H2 5412   0.992   0.353   6.518
 1823TIP3   OH2 5413   2.972   6.995   5.334
 1823TIP3    H1 5414   3.067   6.987   5.322
 1823TIP3    H2 5415   2.956   7.089   5.328
 1824TIP3   OH2 5416   6.374   6.216   2.103
 1824TIP3    H1 5417   6.435   6.144   2.114
 1824TIP3    H2 5418   6.323   6.218   2.184
 1825TIP3   OH2 5419   7.924   7.647   4.591
 1825TIP3    H1 5420   8.018   7.647   4.575
 1825TIP3    H2 5421   7.913   7.590   4.667
 1826TIP3   OH2 5422   2.128   0.194   0.623
 1826TIP3    H1 5423   2.190   0.234   0.562
 1826TIP3    H2 5424   2.045   0.238   0.605
 1827TIP3   OH2 5425   1.743   1.204   0.053
 1827TIP3    H1 5426   1.658   1.200   0.097
 1827TIP3    H2 5427   1.730   1.159  -0.030
 1828TIP3   OH2 5428   6.106   5.127   3.299
 1828TIP3    H1 5429   6.151   5.196   3.348
 1828TIP3    H2 5430   6.013   5.141   3.319
 1829TIP3   OH2 5431   5.065   4.561   1.816
 1829TIP3    H1 5432   4.996   4.517   1.866
 1829TIP3    H2 5433   5.021   4.598   1.740
 1830TIP3   OH2 5434   1.012   0.849   5.183
 1830TIP3    H1 5435   0.982   0.877   5.096
 1830TIP3    H2 5436   1.003   0.754   5.182
 1831TIP3   OH2 5437   6.655   7.282   4.049
 1831TIP3    H1 5438   6.626   7.372   4.037
 1831TIP3    H2 5439   6.738   7.276   4.001
 1832TIP3   OH2 5440   4.409   6.834   0.648
 1832TIP3    H1 5441   4.444   6.895   0.714
 1832TIP3    H2 5442   4.388   6.889   0.573
 1833TIP3   OH2 5443   8.186   3.254   1.729
 1833TIP3    H1 5444   8.114   3.199   1.698
 1833TIP3    H2 5445   8.204   3.314   1.657
 1834TIP3   OH2 5446   0.817   1.421   2.908
 1834TIP3    H1 5447   0.783   1.370   2.835
 1834TIP3    H2 5448   0.810   1.363   2.984
 1835TIP3   OH2 5449   8.269   2.832   1.516
 1835TIP3    H1 5450   8.189   2.860   1.472
 1835TIP3    H2 5451   8.248   2.837   1.609
 1836TIP3   OH2 5452   7.523   4.689   2.286
 1836TIP3    H1 5453   7.538   4.674   2.379
 1836TIP3    H2 5454   7.508   4.602   2.249
 1837TIP3   OH2 5455   7.937   5.209   5.316
 1837TIP3    H1 5456   8.014   5.266   5.317
 1837TIP3    H2 5457   7.964   5.132   5.366
 1838TIP3   OH2 5458   4.380   4.770   4.391
 1838TIP3    H1 5459   4.368   4.710   4.317
 1838TIP3    H2 5460   4.415   4.850   4.351
 1839TIP3   OH2 5461   3.524   2.427   0.653
 1839TIP3    H1 5462   3.556   2.338   0.668
 1839TIP3    H2 5463   3.443   2.415   0.602
 1840TIP3   OH2 5464   3.438   5.515   1.717
 1840TIP3    H1 5465   3.367   5.464   1.755
 1840TIP3    H2 5466   3.402   5.553   1.637
 1841TIP3   OH2 5467   0.250   3.541   1.656
 1841TIP3    H1 5468   0.268   3.455   1.619
 1841TIP3    H2 5469   0.179   3.575   1.602
 1842TIP3   OH2 5470   8.296   4.183   3.177
 1842TIP3    H1 5471   8.270   4.266   3.139
 1842TIP3    H2 5472   8.221   4.154   3.227
 1843TIP3   OH2 5473   6.296   3.482   2.940
 1843TIP3    H1 5474   6.290   3.487   2.845
 1843TIP3    H2 5475   6.213   3.520   2.971
 1844TIP3   OH2 5476   7.535   4.389   3.650
 1844TIP3    H1 5477   7.445   4.415   3.669
 1844TIP3    H2 5478   7.537   4.373   3.556
 1845TIP3   OH2 5479   2.047   0.622   2.087
 1845TIP3    H1 5480   2.103   0.687   2.045
 1845TIP3    H2 5481   1.965   0.668   2.105
 1846TIP3   OH2 5482   8.063   3.518   4.292
 1846TIP3    H1 5483   8.093   3.584   4.356
 1846TIP3    H2 5484   8.016   3.454   4.345
 1847TIP3   OH2 5485   5.195   2.721   3.009
 1847TIP3    H1 5486   5.120   2.756   2.960
 1847TIP3    H2 5487   5.272   2.754   2.962
 1848TIP3   OH2 5488   4.645   3.582   5.261
 1848TIP3    H1 5489   4.741   3.583   5.269
 1848TIP3    H2 5490   4.628   3.619   5.174
 1849TIP3   OH2 5491   5.380   0.149   5.453
 1849TIP3    H1 5492   5.436   0.074   5.472
 1849TIP3    H2 5493   5.298   0.131   5.499
 1850TIP3   OH2 5494   6.478   0.723   3.470
 1850TIP3    H1 5495   6.508   0.717   3.560
 1850TIP3    H2 5496   6.544   0.778   3.426
 1851TIP3   OH2 5497   0.254   4.748   2.625
 1851TIP3    H1 5498   0.292   4.810   2.686
 1851TIP3    H2 5499   0.176   4.714   2.669
 1852TIP3   OH2 5500   3.628   6.388   1.071
 1852TIP3    H1 5501   3.662   6.458   1.127
 1852TIP3    H2 5502   3.706   6.339   1.044
 1853TIP3   OH2 5503   6.657   5.422   2.057
 1853TIP3    H1 5504   6.752   5.419   2.068
 1853TIP3    H2 5505   6.640   5.370   1.978
 1854TIP3   OH2 5506   0.575   4.044   2.588
 1854TIP3    H1 5507   0.610   4.129   2.562
 1854TIP3    H2 5508   0.569   4.049   2.684
 1855TIP3   OH2 5509   5.434   6.025   5.535
 1855TIP3    H1 5510   5.376   5.951   5.555
 1855TIP3    H2 5511   5.378   6.087   5.489
 1856TIP3   OH2 5512   7.846   5.087   2.257
 1856TIP3    H1 5513   7.910   5.087   2.185
 1856TIP3    H2 5514   7.880   5.151   2.319
 1857TIP3   OH2 5515   1.505   1.346   0.824
 1857TIP3    H1 5516   1.532   1.427   0.869
 1857TIP3    H2 5517   1.585   1.294   0.820
 1858TIP3   OH2 5518   7.223   7.707   0.557
 1858TIP3    H1 5519   7.234   7.727   0.464
 1858TIP3    H2 5520   7.145   7.652   0.560
 1859TIP3   OH2 5521   2.257   1.585   4.627
 1859TIP3    H1 5522   2.270   1.610   4.718
 1859TIP3    H2 5523   2.203   1.506   4.631
 1860TIP3   OH2 5524   4.652   6.904   5.718
 1860TIP3    H1 5525   4.710   6.888   5.793
 1860TIP3    H2 5526   4.605   6.821   5.706
 1861TIP3   OH2 5527   3.486   3.514   5.954
 1861TIP3    H1 5528   3.428   3.536   5.881
 1861TIP3    H2 5529   3.548   3.451   5.917
 1862TIP3   OH2 5530   1.351   6.421   4.773
 1862TIP3    H1 5531   1.296   6.451   4.701
 1862TIP3    H2 5532   1.334   6.327   4.780
 1863TIP3   OH2 5533   7.764   5.674   0.943
 1863TIP3    H1 5534   7.669   5.660   0.939
 1863TIP3    H2 5535   7.793   5.619   1.016
 1864TIP3   OH2 5536   6.223   5.351   3.428
 1864TIP3    H1 5537   6.188   5.293   3.495
 1864TIP3    H2 5538   6.314   5.322   3.416
 1865TIP3   OH2 5539   2.249   6.493   1.992
 1865TIP3    H1 5540   2.312   6.457   2.054
 1865TIP3    H2 5541   2.201   6.417   1.958
 1866TIP3   OH2 5542   2.520   4.449   1.020
 1866TIP3    H1 5543   2.610   4.450   0.987
 1866TIP3    H2 5544   2.522   4.502   1.099
 1867TIP3   OH2 5545   6.511   0.068   4.053
 1867TIP3    H1 5546   6.551  -0.017   4.072
 1867TIP3    H2 5547   6.488   0.064   3.960
 1868TIP3   OH2 5548   0.273   5.473   3.297
 1868TIP3    H1 5549   0.186   5.487   3.334
 1868TIP3    H2 5550   0.284   5.545   3.234
 1869TIP3   OH2 5551   5.997   2.916   6.021
 1869TIP3    H1 5552   5.977   2.823   6.007
 1869TIP3    H2 5553   6.020   2.948   5.934
 1870TIP3   OH2 5554   7.764   1.252   3.015
 1870TIP3    H1 5555   7.807   1.227   2.933
 1870TIP3    H2 5556   7.700   1.318   2.989
 1871TIP3   OH2 5557   3.110   2.590   6.352
 1871TIP3    H1 5558   3.026   2.628   6.326
 1871TIP3    H2 5559   3.165   2.665   6.374
 1872TIP3   OH2 5560   7.717   6.367   1.938
 1872TIP3    H1 5561   7.647   6.382   1.875
 1872TIP3    H2 5562   7.745   6.455   1.966
 1873TIP3   OH2 5563   0.424   4.914   0.670
 1873TIP3    H1 5564   0.414   5.009   0.671
 1873TIP3    H2 5565   0.436   4.891   0.578
 1874TIP3   OH2 5566   4.412   2.639   0.017
 1874TIP3    H1 5567   4.440   2.624   0.108
 1874TIP3    H2 5568   4.377   2.728   0.018
 1875TIP3   OH2 5569   3.363   0.153   4.722
 1875TIP3    H1 5570   3.397   0.146   4.811
 1875TIP3    H2 5571   3.303   0.227   4.725
 1876TIP3   OH2 5572   8.027   2.588   6.267
 1876TIP3    H1 5573   8.044   2.670   6.221
 1876TIP3    H2 5574   7.933   2.589   6.285
 1877TIP3   OH2 5575   1.361   0.151   2.667
 1877TIP3    H1 5576   1.363   0.065   2.626
 1877TIP3    H2 5577   1.350   0.212   2.594
 1878TIP3   OH2 5578   4.482   7.409   1.156
 1878TIP3    H1 5579   4.411   7.354   1.125
 1878TIP3    H2 5580   4.445   7.457   1.231
 1879TIP3   OH2 5581   5.447   5.228   5.470
 1879TIP3    H1 5582   5.371   5.262   5.422
 1879TIP3    H2 5583   5.429   5.135   5.481
 1880TIP3   OH2 5584   4.418   6.910   5.445
 1880TIP3    H1 5585   4.327   6.884   5.455
 1880TIP3    H2 5586   4.466   6.846   5.498
 1881TIP3   OH2 5587   4.420   5.611   1.438
 1881TIP3    H1 5588   4.404   5.588   1.347
 1881TIP3    H2 5589   4.384   5.538   1.489
 1882TIP3   OH2 5590   3.163   2.166   6.118
 1882TIP3    H1 5591   3.144   2.076   6.146
 1882TIP3    H2 5592   3.159   2.162   6.022
 1883TIP3   OH2 5593   4.527   1.246   1.542
 1883TIP3    H1 5594   4.572   1.327   1.567
 1883TIP3    H2 5595   4.438   1.257   1.575
 1884TIP3   OH2 5596   2.520   7.185   2.474
 1884TIP3    H1 5597   2.485   7.236   2.401
 1884TIP3    H2 5598   2.558   7.107   2.433
 1885TIP3   OH2 5599   6.591   3.696   0.324
 1885TIP3    H1 5600   6.622   3.708   0.234
 1885TIP3    H2 5601   6.563   3.784   0.351
 1886TIP3   OH2 5602   6.170   0.863   5.458
 1886TIP3    H1 5603   6.246   0.831   5.507
 1886TIP3    H2 5604   6.205   0.882   5.370
 1887TIP3   OH2 5605   0.697   1.938   3.945
 1887TIP3    H1 5606   0.747   1.994   3.886
 1887TIP3    H2 5607   0.606   1.963   3.930
 1888TIP3   OH2 5608   6.846   0.705   3.141
 1888TIP3    H1 5609   6.778   0.665   3.087
 1888TIP3    H2 5610   6.924   0.705   3.085
 1889TIP3   OH2 5611   4.776   7.060   4.790
 1889TIP3    H1 5612   4.812   7.113   4.862
 1889TIP3    H2 5613   4.706   7.113   4.753
 1890TIP3   OH2 5614   2.602   4.774   6.621
 1890TIP3    H1 5615   2.693   4.788   6.647
 1890TIP3    H2 5616   2.583   4.684   6.648
 1891TIP3   OH2 5617   3.301   5.205   2.506
 1891TIP3    H1 5618   3.221   5.219   2.456
 1891TIP3    H2 5619   3.297   5.113   2.533
 1892TIP3   OH2 5620   2.797   0.599   5.456
 1892TIP3    H1 5621   2.833   0.538   5.521
 1892TIP3    H2 5622   2.724   0.551   5.417
 1893TIP3   OH2 5623   3.827   2.009   1.323
 1893TIP3    H1 5624   3.779   1.948   1.378
 1893TIP3    H2 5625   3.763   2.077   1.300
 1894TIP3   OH2 5626   7.086   2.066   1.523
 1894TIP3    H1 5627   7.160   2.123   1.504
 1894TIP3    H2 5628   7.106   2.030   1.610
 1895TIP3   OH2 5629   0.043   1.360   5.484
 1895TIP3    H1 5630   0.063   1.451   5.507
 1895TIP3    H2 5631   0.129   1.319   5.473
 1896TIP3   OH2 5632   1.117   1.516   0.269
 1896TIP3    H1 5633   1.121   1.573   0.193
 1896TIP3    H2 5634   1.184   1.549   0.329
 1897TIP3   OH2 5635   2.709   7.698   0.356
 1897TIP3    H1 5636   2.773   7.641   0.399
 1897TIP3    H2 5637   2.662   7.741   0.427
 1898TIP3   OH2 5638   4.144   5.430   1.484
 1898TIP3    H1 5639   4.229   5.390   1.501
 1898TIP3    H2 5640   4.081   5.363   1.511
 1899TIP3   OH2 5641   8.120   5.294   1.735
 1899TIP3    H1 5642   8.132   5.199   1.740
 1899TIP3    H2 5643   8.173   5.329   1.806
 1900TIP3   OH2 5644   0.014   2.841   0.801
 1900TIP3    H1 5645  -0.023   2.778   0.739
 1900TIP3    H2 5646   0.040   2.789   0.876
 1901TIP3   OH2 5647   1.774   5.131   5.843
 1901TIP3    H1 5648   1.749   5.059   5.784
 1901TIP3    H2 5649   1.800   5.088   5.924
 1902TIP3   OH2 5650   7.397   1.943   5.479
 1902TIP3    H1 5651   7.345   1.923   5.402
 1902TIP3    H2 5652   7.486   1.918   5.454
 1903TIP3   OH2 5653   0.636   5.791   1.453
 1903TIP3    H1 5654   0.670   5.854   1.389
 1903TIP3    H2 5655   0.558   5.755   1.411
 1904TIP3   OH2 5656   6.945   5.692   6.139
 1904TIP3    H1 5657   6.858   5.682   6.178
 1904TIP3    H2 5658   7.005   5.682   6.213
 1905TIP3   OH2 5659   7.254   3.793   1.271
 1905TIP3    H1 5660   7.298   3.755   1.195
 1905TIP3    H2 5661   7.245   3.886   1.248
 1906TIP3   OH2 5662   3.711   6.363   5.291
 1906TIP3    H1 5663   3.751   6.354   5.378
 1906TIP3    H2 5664   3.782   6.396   5.236
 1907TIP3   OH2 5665   4.338   2.747   4.158
 1907TIP3    H1 5666   4.431   2.736   4.178
 1907TIP3    H2 5667   4.294   2.681   4.211
 1908TIP3   OH2 5668   0.897   3.298   5.378
 1908TIP3    H1 5669   0.911   3.381   5.332
 1908TIP3    H2 5670   0.843   3.321   5.453
 1909TIP3   OH2 5671   3.452   6.135   5.362
 1909TIP3    H1 5672   3.420   6.157   5.274
 1909TIP3    H2 5673   3.534   6.183   5.371
 1910TIP3   OH2 5674   3.160   0.961   5.901
 1910TIP3    H1 5675   3.231   1.024   5.913
 1910TIP3    H2 5676   3.185   0.886   5.954
 1911TIP3   OH2 5677   3.743   0.877   4.331
 1911TIP3    H1 5678   3.670   0.890   4.270
 1911TIP3    H2 5679   3.714   0.808   4.389
 1912TIP3   OH2 5680   3.153   3.936   5.628
 1912TIP3    H1 5681   3.081   3.981   5.584
 1912TIP3    H2 5682   3.232   3.976   5.591
 1913TIP3   OH2 5683   2.087   7.276   4.044
 1913TIP3    H1 5684   2.029   7.202   4.025
 1913TIP3    H2 5685   2.030   7.353   4.037
 1914TIP3   OH2 5686   5.165   0.907   3.245
 1914TIP3    H1 5687   5.115   0.958   3.181
 1914TIP3    H2 5688   5.185   0.970   3.314
 1915TIP3   OH2 5689   7.263   6.414   0.766
 1915TIP3    H1 5690   7.190   6.475   0.758
 1915TIP3    H2 5691   7.327   6.459   0.821
 1916TIP3   OH2 5692   7.425   6.564   2.271
 1916TIP3    H1 5693   7.356   6.528   2.327
 1916TIP3    H2 5694   7.394   6.550   2.182
 1917TIP3   OH2 5695   1.697   3.924   4.782
 1917TIP3    H1 5696   1.761   3.995   4.792
 1917TIP3    H2 5697   1.746   3.855   4.737
 1918TIP3   OH2 5698   3.620   0.217   0.010
 1918TIP3    H1 5699   3.670   0.297  -0.004
 1918TIP3    H2 5700   3.560   0.238   0.082
 1919TIP3   OH2 5701   5.967   4.526   6.310
 1919TIP3    H1 5702   6.032   4.456   6.314
 1919TIP3    H2 5703   5.885   4.484   6.334
 1920TIP3   OH2 5704   5.220   1.257   0.838
 1920TIP3    H1 5705   5.177   1.174   0.853
 1920TIP3    H2 5706   5.206   1.276   0.745
 1921TIP3   OH2 5707   1.959   4.652   6.647
 1921TIP3    H1 5708   1.901   4.726   6.630
 1921TIP3    H2 5709   1.900   4.580   6.672
 1922TIP3   OH2 5710   7.529   6.352   6.368
 1922TIP3    H1 5711   7.562   6.273   6.411
 1922TIP3    H2 5712   7.585   6.422   6.400
 1923TIP3   OH2 5713   4.635   3.320   5.348
 1923TIP3    H1 5714   4.632   3.415   5.338
 1923TIP3    H2 5715   4.556   3.289   5.303
 1924TIP3   OH2 5716   6.042   7.334   6.256
 1924TIP3    H1 5717   6.019   7.343   6.349
 1924TIP3    H2 5718   6.007   7.413   6.215
 1925TIP3   OH2 5719   3.348   2.220   1.450
 1925TIP3    H1 5720   3.421   2.272   1.418
 1925TIP3    H2 5721   3.375   2.194   1.538
 1926TIP3   OH2 5722   1.530   0.439   4.730
 1926TIP3    H1 5723   1.549   0.528   4.761
 1926TIP3    H2 5724   1.436   0.439   4.712
 1927TIP3   OH2 5725   6.481   7.721   1.052
 1927TIP3    H1 5726   6.411   7.660   1.028
 1927TIP3    H2 5727   6.559   7.666   1.058
 1928TIP3   OH2 5728   7.707   0.516   4.654
 1928TIP3    H1 5729   7.679   0.454   4.721
 1928TIP3    H2 5730   7.690   0.602   4.692
 1929TIP3   OH2 5731   3.549   0.344   6.718
 1929TIP3    H1 5732   3.550   0.439   6.734
 1929TIP3    H2 5733   3.611   0.331   6.647
 1930TIP3   OH2 5734   7.677   1.460   5.497
 1930TIP3    H1 5735   7.708   1.470   5.407
 1930TIP3    H2 5736   7.594   1.413   5.488
 1931TIP3   OH2 5737   0.938   7.643   5.672
 1931TIP3    H1 5738   0.947   7.602   5.758
 1931TIP3    H2 5739   0.844   7.649   5.658
 1932TIP3   OH2 5740   3.189   5.530   2.107
 1932TIP3    H1 5741   3.117   5.493   2.157
 1932TIP3    H2 5742   3.254   5.556   2.173
 1933TIP3   OH2 5743   6.693   2.369   1.092
 1933TIP3    H1 5744   6.725   2.318   1.017
 1933TIP3    H2 5745   6.644   2.441   1.052
 1934TIP3   OH2 5746   5.158   4.206   3.631
 1934TIP3    H1 5747   5.131   4.231   3.543
 1934TIP3    H2 5748   5.130   4.115   3.639
 1935TIP3   OH2 5749   0.667   3.186   6.743
 1935TIP3    H1 5750   0.701   3.199   6.832
 1935TIP3    H2 5751   0.616   3.265   6.725
 1936TIP3   OH2 5752   2.019   2.205   2.416
 1936TIP3    H1 5753   1.928   2.231   2.433
 1936TIP3    H2 5754   2.049   2.267   2.350
 1937TIP3   OH2 5755   7.791   3.732   1.079
 1937TIP3    H1 5756   7.751   3.659   1.032
 1937TIP3    H2 5757   7.719   3.794   1.092
 1938TIP3   OH2 5758   7.010   3.124   2.809
 1938TIP3    H1 5759   6.963   3.042   2.793
 1938TIP3    H2 5760   6.946   3.180   2.852
 1939TIP3   OH2 5761   5.459   2.194   5.673
 1939TIP3    H1 5762   5.472   2.288   5.681
 1939TIP3    H2 5763   5.364   2.182   5.672
 1940TIP3   OH2 5764   0.883   4.131   6.137
 1940TIP3    H1 5765   0.914   4.065   6.075
 1940TIP3    H2 5766   0.826   4.187   6.085
 1941TIP3   OH2 5767   5.351   4.901   6.716
 1941TIP3    H1 5768   5.404   4.962   6.664
 1941TIP3    H2 5769   5.268   4.946   6.730
 1942TIP3   OH2 5770   2.542   7.325   1.943
 1942TIP3    H1 5771   2.498   7.316   1.858
 1942TIP3    H2 5772   2.578   7.414   1.942
 1943TIP3   OH2 5773   2.553   2.988   5.168
 1943TIP3    H1 5774   2.520   2.913   5.119
 1943TIP3    H2 5775   2.550   2.961   5.260
 1944TIP3   OH2 5776   1.410   7.712   2.500
 1944TIP3    H1 5777   1.496   7.746   2.526
 1944TIP3    H2 5778   1.429   7.623   2.469
 1945TIP3   OH2 5779   4.029   3.066   5.879
 1945TIP3    H1 5780   4.100   3.072   5.944
 1945TIP3    H2 5781   4.058   2.996   5.820
 1946TIP3   OH2 5782   4.927   3.896   3.816
 1946TIP3    H1 5783   4.880   3.976   3.792
 1946TIP3    H2 5784   4.999   3.890   3.753
 1947TIP3   OH2 5785   2.119   5.050   0.696
 1947TIP3    H1 5786   2.025   5.032   0.694
 1947TIP3    H2 5787   2.125   5.142   0.724
 1948TIP3   OH2 5788   4.144   2.524   3.168
 1948TIP3    H1 5789   4.141   2.489   3.079
 1948TIP3    H2 5790   4.236   2.516   3.193
 1949TIP3   OH2 5791   4.702   2.342   0.275
 1949TIP3    H1 5792   4.753   2.279   0.223
 1949TIP3    H2 5793   4.754   2.422   0.273
 1950TIP3   OH2 5794   4.264   3.339   5.435
 1950TIP3    H1 5795   4.192   3.285   5.403
 1950TIP3    H2 5796   4.340   3.311   5.384
 1951TIP3   OH2 5797   2.539   2.635   0.322
 1951TIP3    H1 5798   2.509   2.608   0.236
 1951TIP3    H2 5799   2.614   2.692   0.305
 1952TIP3   OH2 5800   1.480   6.689   4.202
 1952TIP3    H1 5801   1.385   6.693   4.216
 1952TIP3    H2 5802   1.492   6.712   4.110
 1953TIP3   OH2 5803   5.535   0.394   6.758
 1953TIP3    H1 5804   5.525   0.441   6.841
 1953TIP3    H2 5805   5.486   0.313   6.770
 1954TIP3   OH2 5806   2.908   7.479   6.580
 1954TIP3    H1 5807   2.919   7.567   6.544
 1954TIP3    H2 5808   2.827   7.447   6.540
 1955TIP3   OH2 5809   2.189   2.208   5.171
 1955TIP3    H1 5810   2.114   2.159   5.206
 1955TIP3    H2 5811   2.250   2.214   5.245
 1956TIP3   OH2 5812   6.563   3.464   1.166
 1956TIP3    H1 5813   6.556   3.453   1.261
 1956TIP3    H2 5814   6.487   3.518   1.143
 1957TIP3   OH2 5815   5.886   2.663   4.942
 1957TIP3    H1 5816   5.814   2.600   4.938
 1957TIP3    H2 5817   5.965   2.609   4.935
 1958TIP3   OH2 5818   0.629   2.888   2.247
 1958TIP3    H1 5819   0.571   2.884   2.172
 1958TIP3    H2 5820   0.631   2.980   2.272
 1959TIP3   OH2 5821   5.032   2.858   2.349
 1959TIP3    H1 5822   4.954   2.871   2.294
 1959TIP3    H2 5823   5.050   2.944   2.386
 1960TIP3   OH2 5824   5.973   3.906   0.395
 1960TIP3    H1 5825   5.966   3.828   0.451
 1960TIP3    H2 5826   5.984   3.978   0.457
 1961TIP3   OH2 5827   5.777   2.738   1.280
 1961TIP3    H1 5828   5.748   2.664   1.333
 1961TIP3    H2 5829   5.847   2.779   1.331
 1962TIP3   OH2 5830   3.876   0.333   6.703
 1962TIP3    H1 5831   3.956   0.340   6.755
 1962TIP3    H2 5832   3.816   0.396   6.742
 1963TIP3   OH2 5833   7.690   5.625   1.314
 1963TIP3    H1 5834   7.773   5.599   1.352
 1963TIP3    H2 5835   7.705   5.715   1.283
 1964TIP3   OH2 5836   1.460   2.203   6.782
 1964TIP3    H1 5837   1.435   2.111   6.766
 1964TIP3    H2 5838   1.425   2.250   6.706
 1965TIP3   OH2 5839   2.674   4.052   5.607
 1965TIP3    H1 5840   2.723   4.078   5.685
 1965TIP3    H2 5841   2.647   4.135   5.567
 1966TIP3   OH2 5842   5.573   4.442   0.400
 1966TIP3    H1 5843   5.643   4.508   0.399
 1966TIP3    H2 5844   5.612   4.365   0.359
 1967TIP3   OH2 5845   1.854   5.443   5.517
 1967TIP3    H1 5846   1.876   5.533   5.541
 1967TIP3    H2 5847   1.843   5.444   5.422
 1968TIP3   OH2 5848   0.536   3.051   4.380
 1968TIP3    H1 5849   0.620   3.097   4.385
 1968TIP3    H2 5850   0.551   2.984   4.313
 1969TIP3   OH2 5851   0.978   4.270   2.167
 1969TIP3    H1 5852   0.969   4.342   2.104
 1969TIP3    H2 5853   0.904   4.213   2.149
 1970TIP3   OH2 5854   3.537   6.765   1.446
 1970TIP3    H1 5855   3.577   6.730   1.367
 1970TIP3    H2 5856   3.542   6.694   1.509
 1971TIP3   OH2 5857   3.429   3.570   5.693
 1971TIP3    H1 5858   3.502   3.631   5.692
 1971TIP3    H2 5859   3.447   3.508   5.622
 1972TIP3   OH2 5860   0.537   7.784   6.036
 1972TIP3    H1 5861   0.574   7.840   5.968
 1972TIP3    H2 5862   0.478   7.725   5.990
 1973TIP3   OH2 5863   3.687   6.654   1.890
 1973TIP3    H1 5864   3.673   6.665   1.984
 1973TIP3    H2 5865   3.666   6.740   1.853
 1974TIP3   OH2 5866   4.473   3.454   0.075
 1974TIP3    H1 5867   4.502   3.428   0.162
 1974TIP3    H2 5868   4.402   3.515   0.090
 1975TIP3   OH2 5869   0.162   4.114   6.657
 1975TIP3    H1 5870   0.232   4.174   6.684
 1975TIP3    H2 5871   0.174   4.105   6.563
 1976TIP3   OH2 5872   6.013   3.447   4.481
 1976TIP3    H1 5873   5.925   3.410   4.478
 1976TIP3    H2 5874   6.012   3.503   4.559
 1977TIP3   OH2 5875   3.739   2.576   1.934
 1977TIP3    H1 5876   3.718   2.664   1.902
 1977TIP3    H2 5877   3.658   2.546   1.975
 1978TIP3   OH2 5878   0.166   1.165   0.102
 1978TIP3    H1 5879   0.221   1.195   0.030
 1978TIP3    H2 5880   0.076   1.171   0.068
 1979TIP3   OH2 5881   5.476   2.076   6.295
 1979TIP3    H1 5882   5.535   2.033   6.357
 1979TIP3    H2 5883   5.403   2.106   6.349
 1980TIP3   OH2 5884   1.733   3.458   5.096
 1980TIP3    H1 5885   1.641   3.450   5.070
 1980TIP3    H2 5886   1.730   3.478   5.189
 1981TIP3   OH2 5887   2.491   0.774   6.073
 1981TIP3    H1 5888   2.566   0.752   6.017
 1981TIP3    H2 5889   2.529   0.788   6.159
 1982TIP3   OH2 5890   2.773   6.460   4.829
 1982TIP3    H1 5891   2.689   6.453   4.874
 1982TIP3    H2 5892   2.815   6.375   4.846
 1983TIP3   OH2 5893   1.335   4.757   1.092
 1983TIP3    H1 5894   1.373   4.758   1.004
 1983TIP3    H2 5895   1.242   4.775   1.077
 1984TIP3   OH2 5896   5.998   1.227   5.566
 1984TIP3    H1 5897   6.037   1.140   5.561
 1984TIP3    H2 5898   5.913   1.214   5.607
 1985TIP3   OH2 5899   3.661   1.822   3.184
 1985TIP3    H1 5900   3.721   1.749   3.199
 1985TIP3    H2 5901   3.599   1.818   3.258
 1986TIP3   OH2 5902   3.296   7.410   5.648
 1986TIP3    H1 5903   3.372   7.424   5.704
 1986TIP3    H2 5904   3.224   7.395   5.709
 1987TIP3   OH2 5905   7.012   0.652   3.395
 1987TIP3    H1 5906   6.955   0.640   3.319
 1987TIP3    H2 5907   7.075   0.719   3.369
 1988TIP3   OH2 5908   0.559   7.830   6.738
 1988TIP3    H1 5909   0.500   7.770   6.692
 1988TIP3    H2 5910   0.646   7.797   6.717
 1989TIP3   OH2 5911   6.016   1.471   6.467
 1989TIP3    H1 5912   5.957   1.535   6.426
 1989TIP3    H2 5913   5.994   1.475   6.560
 1990TIP3   OH2 5914   3.864   3.520   3.951
 1990TIP3    H1 5915   3.818   3.436   3.943
 1990TIP3    H2 5916   3.904   3.533   3.865
 1991TIP3   OH2 5917   7.563   1.267   5.738
 1991TIP3    H1 5918   7.614   1.335   5.781
 1991TIP3    H2 5919   7.520   1.313   5.665
 1992TIP3   OH2 5920   2.826   7.222   2.508
 1992TIP3    H1 5921   2.876   7.142   2.525
 1992TIP3    H2 5922   2.826   7.230   2.413
 1993TIP3   OH2 5923   7.374   4.661   2.028
 1993TIP3    H1 5924   7.401   4.628   2.114
 1993TIP3    H2 5925   7.452   4.654   1.973
 1994TIP3   OH2 5926   1.571   5.640   1.066
 1994TIP3    H1 5927   1.490   5.629   1.116
 1994TIP3    H2 5928   1.555   5.595   0.983
 1995TIP3   OH2 5929   4.101   3.915   2.324
 1995TIP3    H1 5930   4.184   3.873   2.344
 1995TIP3    H2 5931   4.061   3.932   2.409
 1996TIP3   OH2 5932   5.587   6.831   2.639
 1996TIP3    H1 5933   5.609   6.903   2.698
 1996TIP3    H2 5934   5.524   6.778   2.689
 1997TIP3   OH2 5935   2.497   6.532   1.346
 1997TIP3    H1 5936   2.416   6.577   1.323
 1997TIP3    H2 5937   2.559   6.558   1.278
 1998TIP3   OH2 5938   0.893   4.801   0.215
 1998TIP3    H1 5939   0.869   4.891   0.194
 1998TIP3    H2 5940   0.848   4.748   0.149
 1999TIP3   OH2 5941   6.072   3.305   3.347
 1999TIP3    H1 5942   6.018   3.244   3.297
 1999TIP3    H2 5943   6.058   3.280   3.439
 2000TIP3   OH2 5944   2.433   0.324   1.971
 2000TIP3    H1 5945   2.366   0.305   1.906
 2000TIP3    H2 5946   2.495   0.382   1.927
 2001TIP3   OH2 5947   7.993   0.125   2.449
 2001TIP3    H1 5948   7.920   0.159   2.397
 2001TIP3    H2 5949   7.958   0.119   2.538
 2002TIP3   OH2 5950   3.060   5.612   0.062
 2002TIP3    H1 5951   3.099   5.528   0.088
 2002TIP3    H2 5952   2.978   5.588   0.019
 2003TIP3   OH2 5953   4.372   6.521   3.763
 2003TIP3    H1 5954   4.420   6.443   3.792
 2003TIP3    H2 5955   4.324   6.550   3.840
 2004TIP3   OH2 5956   7.163   4.601   1.277
 2004TIP3    H1 5957   7.202   4.685   1.254
 2004TIP3    H2 5958   7.238   4.540   1.278
 2005TIP3   OH2 5959   2.550   2.517   3.600
 2005TIP3    H1 5960   2.542   2.428   3.566
 2005TIP3    H2 5961   2.535   2.507   3.694
 2006TIP3   OH2 5962   3.296   3.770   1.983
 2006TIP3    H1 5963   3.367   3.829   1.961
 2006TIP3    H2 5964   3.296   3.704   1.913
 2007TIP3   OH2 5965   7.926   4.712   4.954
 2007TIP3    H1 5966   8.006   4.762   4.946
 2007TIP3    H2 5967   7.863   4.757   4.897
 2008TIP3   OH2 5968   1.815   6.584   0.365
 2008TIP3    H1 5969   1.785   6.495   0.380
 2008TIP3    H2 5970   1.770   6.611   0.285
 2009TIP3   OH2 5971   5.783   3.015   0.399
 2009TIP3    H1 5972   5.867   3.056   0.417
 2009TIP3    H2 5973   5.724   3.089   0.381
 2010TIP3   OH2 5974   0.686   7.383   5.648
 2010TIP3    H1 5975   0.646   7.382   5.561
 2010TIP3    H2 5976   0.703   7.475   5.665
 2011TIP3   OH2 5977   5.015   7.086   0.582
 2011TIP3    H1 5978   5.050   6.997   0.581
 2011TIP3    H2 5979   5.091   7.142   0.597
 2012TIP3   OH2 5980   5.562   3.284   5.911
 2012TIP3    H1 5981   5.625   3.341   5.866
 2012TIP3    H2 5982   5.539   3.218   5.846
 2013TIP3   OH2 5983   6.739   3.837   6.026
 2013TIP3    H1 5984   6.662   3.847   6.082
 2013TIP3    H2 5985   6.734   3.911   5.966
 2014TIP3   OH2 5986   4.160   1.058   4.517
 2014TIP3    H1 5987   4.162   0.994   4.588
 2014TIP3    H2 5988   4.117   1.135   4.555
 2015TIP3   OH2 5989   0.217   0.731   6.152
 2015TIP3    H1 5990   0.241   0.764   6.065
 2015TIP3    H2 5991   0.212   0.809   6.207
 2016TIP3   OH2 5992   2.718   4.960   0.885
 2016TIP3    H1 5993   2.728   4.988   0.976
 2016TIP3    H2 5994   2.710   4.865   0.890
 2017TIP3   OH2 5995   3.010   1.490   1.096
 2017TIP3    H1 5996   3.035   1.460   1.183
 2017TIP3    H2 5997   3.092   1.521   1.057
 2018TIP3   OH2 5998   5.020   5.930   2.371
 2018TIP3    H1 5999   5.090   5.865   2.364
 2018TIP3    H2 6000   5.041   5.979   2.450
 2019TIP3   OH2 6001   3.594   5.281   2.731
 2019TIP3    H1 6002   3.561   5.277   2.821
 2019TIP3    H2 6003   3.641   5.198   2.719
 2020TIP3   OH2 6004   2.240   3.866   0.493
 2020TIP3    H1 6005   2.260   3.957   0.516
 2020TIP3    H2 6006   2.165   3.872   0.434
 2021TIP3   OH2 6007   2.148   6.772   3.143
 2021TIP3    H1 6008   2.118   6.697   3.092
 2021TIP3    H2 6009   2.240   6.782   3.119
 2022TIP3   OH2 6010   3.188   0.547   4.029
 2022TIP3    H1 6011   3.114   0.606   4.037
 2022TIP3    H2 6012   3.260   0.592   4.074
 2023TIP3   OH2 6013   2.410   5.909   1.660
 2023TIP3    H1 6014   2.441   5.827   1.620
 2023TIP3    H2 6015   2.415   5.974   1.590
 2024TIP3   OH2 6016   6.538   2.157   2.557
 2024TIP3    H1 6017   6.565   2.247   2.542
 2024TIP3    H2 6018   6.615   2.104   2.536
 2025TIP3   OH2 6019   6.881   1.762   1.306
 2025TIP3    H1 6020   6.831   1.819   1.365
 2025TIP3    H2 6021   6.940   1.821   1.260
 2026TIP3   OH2 6022   1.580   5.498   6.446
 2026TIP3    H1 6023   1.596   5.592   6.434
 2026TIP3    H2 6024   1.646   5.470   6.509
 2027TIP3   OH2 6025   5.124   0.361   4.633
 2027TIP3    H1 6026   5.175   0.372   4.553
 2027TIP3    H2 6027   5.120   0.266   4.646
 2028TIP3   OH2 6028   4.329   4.460   5.636
 2028TIP3    H1 6029   4.245   4.473   5.593
 2028TIP3    H2 6030   4.325   4.370   5.669
 2029TIP3   OH2 6031   1.485   6.338   1.911
 2029TIP3    H1 6032   1.491   6.269   1.976
 2029TIP3    H2 6033   1.429   6.404   1.951
 2030TIP3   OH2 6034   6.349   0.276   2.934
 2030TIP3    H1 6035   6.326   0.270   3.027
 2030TIP3    H2 6036   6.386   0.190   2.913
 2031TIP3   OH2 6037   6.983   1.268   3.990
 2031TIP3    H1 6038   6.889   1.275   3.972
 2031TIP3    H2 6039   7.008   1.182   3.955
 2032TIP3   OH2 6040   7.991   0.334   1.993
 2032TIP3    H1 6041   8.031   0.410   1.950
 2032TIP3    H2 6042   8.052   0.311   2.063
 2033TIP3   OH2 6043   0.592   2.019   5.310
 2033TIP3    H1 6044   0.628   2.036   5.396
 2033TIP3    H2 6045   0.629   2.088   5.254
 2034TIP3   OH2 6046   1.460   5.808   1.444
 2034TIP3    H1 6047   1.552   5.813   1.470
 2034TIP3    H2 6048   1.422   5.890   1.475
 2035TIP3   OH2 6049   0.221   4.564   2.301
 2035TIP3    H1 6050   0.196   4.654   2.325
 2035TIP3    H2 6051   0.214   4.563   2.205
 2036TIP3   OH2 6052   5.110   3.093   5.791
 2036TIP3    H1 6053   5.057   3.119   5.866
 2036TIP3    H2 6054   5.077   3.006   5.768
 2037TIP3   OH2 6055   5.178   6.339   2.358
 2037TIP3    H1 6056   5.260   6.360   2.313
 2037TIP3    H2 6057   5.154   6.419   2.404
 2038TIP3   OH2 6058   1.313   2.124   2.829
 2038TIP3    H1 6059   1.276   2.036   2.819
 2038TIP3    H2 6060   1.391   2.123   2.774
 2039TIP3   OH2 6061   3.432   7.659   2.401
 2039TIP3    H1 6062   3.430   7.583   2.342
 2039TIP3    H2 6063   3.524   7.685   2.402
 2040TIP3   OH2 6064   4.827   3.646   3.682
 2040TIP3    H1 6065   4.820   3.718   3.744
 2040TIP3    H2 6066   4.767   3.669   3.611
 2041TIP3   OH2 6067   7.132   2.454   0.974
 2041TIP3    H1 6068   7.227   2.468   0.982
 2041TIP3    H2 6069   7.111   2.488   0.887
 2042TIP3   OH2 6070   4.197   2.405   0.007
 2042TIP3    H1 6071   4.257   2.462  -0.041
 2042TIP3    H2 6072   4.237   2.396   0.094
 2043TIP3   OH2 6073   1.844   1.825   4.378
 2043TIP3    H1 6074   1.905   1.846   4.308
 2043TIP3    H2 6075   1.885   1.861   4.457
 2044TIP3   OH2 6076   5.393   1.731   1.074
 2044TIP3    H1 6077   5.336   1.806   1.087
 2044TIP3    H2 6078   5.401   1.692   1.161
 2045TIP3   OH2 6079   0.860   2.969   0.270
 2045TIP3    H1 6080   0.780   3.003   0.311
 2045TIP3    H2 6081   0.848   2.986   0.177
 2046TIP3   OH2 6082   6.840   7.820   2.406
 2046TIP3    H1 6083   6.776   7.777   2.464
 2046TIP3    H2 6084   6.894   7.748   2.372
 2047TIP3   OH2 6085   8.272   6.203   5.706
 2047TIP3    H1 6086   8.182   6.219   5.677
 2047TIP3    H2 6087   8.263   6.156   5.789
 2048TIP3   OH2 6088   2.563   6.431   6.412
 2048TIP3    H1 6089   2.655   6.450   6.393
 2048TIP3    H2 6090   2.544   6.349   6.366
 2049TIP3   OH2 6091   2.999   1.014   5.381
 2049TIP3    H1 6092   3.028   1.075   5.449
 2049TIP3    H2 6093   3.072   0.953   5.372
 2050TIP3   OH2 6094   7.273   1.555   0.113
 2050TIP3    H1 6095   7.331   1.609   0.060
 2050TIP3    H2 6096   7.311   1.558   0.201
 2051TIP3   OH2 6097   7.115   1.942   3.445
 2051TIP3    H1 6098   7.041   1.988   3.486
 2051TIP3    H2 6099   7.184   1.944   3.511
 2052TIP3   OH2 6100   5.044   4.134   4.308
 2052TIP3    H1 6101   5.121   4.188   4.290
 2052TIP3    H2 6102   5.027   4.089   4.225
 2053TIP3   OH2 6103   2.531   1.492   5.174
 2053TIP3    H1 6104   2.462   1.426   5.183
 2053TIP3    H2 6105   2.607   1.443   5.144
 2054TIP3   OH2 6106   4.950   6.376   4.460
 2054TIP3    H1 6107   5.001   6.419   4.392
 2054TIP3    H2 6108   4.901   6.448   4.501
 2055TIP3   OH2 6109   6.542   2.862   2.395
 2055TIP3    H1 6110   6.631   2.834   2.374
 2055TIP3    H2 6111   6.509   2.901   2.314
 2056TIP3   OH2 6112   3.800   4.367   6.315
 2056TIP3    H1 6113   3.830   4.330   6.231
 2056TIP3    H2 6114   3.709   4.391   6.298
 2057TIP3   OH2 6115   3.482   5.634   5.228
 2057TIP3    H1 6116   3.435   5.710   5.260
 2057TIP3    H2 6117   3.478   5.571   5.301
 2058TIP3   OH2 6118   6.082   5.827   0.503
 2058TIP3    H1 6119   6.150   5.778   0.549
 2058TIP3    H2 6120   6.121   5.850   0.419
 2059TIP3   OH2 6121   7.856   6.100   4.606
 2059TIP3    H1 6122   7.804   6.052   4.670
 2059TIP3    H2 6123   7.940   6.054   4.603
 2060TIP3   OH2 6124   4.906   6.797   2.978
 2060TIP3    H1 6125   4.882   6.772   3.067
 2060TIP3    H2 6126   4.830   6.846   2.945
 2061TIP3   OH2 6127   8.115   1.630   4.585
 2061TIP3    H1 6128   8.078   1.700   4.639
 2061TIP3    H2 6129   8.192   1.669   4.544
 2062TIP3   OH2 6130   7.818   0.491   2.682
 2062TIP3    H1 6131   7.903   0.522   2.648
 2062TIP3    H2 6132   7.829   0.492   2.777
 2063TIP3   OH2 6133   0.009   2.263   2.824
 2063TIP3    H1 6134  -0.032   2.201   2.884
 2063TIP3    H2 6135   0.024   2.213   2.744
 2064TIP3   OH2 6136   4.041   5.799   1.435
 2064TIP3    H1 6137   4.049   5.892   1.455
 2064TIP3    H2 6138   4.061   5.755   1.517
 2065TIP3   OH2 6139   5.084   1.659   1.489
 2065TIP3    H1 6140   4.994   1.681   1.513
 2065TIP3    H2 6141   5.135   1.736   1.514
 2066TIP3   OH2 6142   4.384   2.031   5.280
 2066TIP3    H1 6143   4.400   2.022   5.186
 2066TIP3    H2 6144   4.328   1.957   5.302
 2067TIP3   OH2 6145   3.151   0.762   6.098
 2067TIP3    H1 6146   3.075   0.797   6.143
 2067TIP3    H2 6147   3.123   0.676   6.067
 2068TIP3   OH2 6148   4.304   5.995   3.261
 2068TIP3    H1 6149   4.257   6.013   3.179
 2068TIP3    H2 6150   4.374   5.934   3.236
 2069TIP3   OH2 6151   1.606   4.196   5.896
 2069TIP3    H1 6152   1.565   4.283   5.896
 2069TIP3    H2 6153   1.672   4.201   5.827
 2070TIP3   OH2 6154   1.441   1.471   6.084
 2070TIP3    H1 6155   1.382   1.543   6.105
 2070TIP3    H2 6156   1.388   1.411   6.032
 2071TIP3   OH2 6157   0.490   3.398   0.464
 2071TIP3    H1 6158   0.503   3.332   0.531
 2071TIP3    H2 6159   0.575   3.406   0.421
 2072TIP3   OH2 6160   3.024   0.471   3.281
 2072TIP3    H1 6161   2.952   0.421   3.318
 2072TIP3    H2 6162   3.050   0.422   3.203
 2073TIP3   OH2 6163   6.080   4.272   6.363
 2073TIP3    H1 6164   6.047   4.184   6.344
 2073TIP3    H2 6165   6.175   4.264   6.361
 2074TIP3   OH2 6166   1.587   4.408   4.456
 2074TIP3    H1 6167   1.622   4.490   4.489
 2074TIP3    H2 6168   1.620   4.341   4.517
 2075TIP3   OH2 6169   6.846   5.629   4.026
 2075TIP3    H1 6170   6.856   5.690   3.953
 2075TIP3    H2 6171   6.768   5.659   4.072
 2076TIP3   OH2 6172   3.447   2.103   1.681
 2076TIP3    H1 6173   3.380   2.116   1.748
 2076TIP3    H2 6174   3.478   2.014   1.695
 2077TIP3   OH2 6175   4.379   5.993   5.241
 2077TIP3    H1 6176   4.347   6.027   5.158
 2077TIP3    H2 6177   4.425   5.912   5.218
 2078TIP3   OH2 6178   3.715   4.722   6.253
 2078TIP3    H1 6179   3.708   4.810   6.288
 2078TIP3    H2 6180   3.654   4.670   6.305
 2079TIP3   OH2 6181   4.088   5.851   1.865
 2079TIP3    H1 6182   4.102   5.785   1.797
 2079TIP3    H2 6183   4.155   5.918   1.847
 2080TIP3   OH2 6184   5.076   4.678   4.838
 2080TIP3    H1 6185   5.057   4.772   4.841
 2080TIP3    H2 6186   5.067   4.655   4.746
 2081TIP3   OH2 6187   6.133   3.254   5.154
 2081TIP3    H1 6188   6.061   3.217   5.103
 2081TIP3    H2 6189   6.164   3.182   5.209
 2082TIP3   OH2 6190   7.936   2.184   2.258
 2082TIP3    H1 6191   7.937   2.132   2.178
 2082TIP3    H2 6192   7.966   2.271   2.230
 2083TIP3   OH2 6193   1.981   2.676   4.850
 2083TIP3    H1 6194   1.972   2.747   4.786
 2083TIP3    H2 6195   2.076   2.666   4.861
 2084TIP3   OH2 6196   5.690   4.703   2.102
 2084TIP3    H1 6197   5.762   4.696   2.166
 2084TIP3    H2 6198   5.707   4.632   2.040
 2085TIP3   OH2 6199   1.570   3.165   4.724
 2085TIP3    H1 6200   1.623   3.097   4.682
 2085TIP3    H2 6201   1.586   3.244   4.674
 2086TIP3   OH2 6202   4.106   2.589   1.751
 2086TIP3    H1 6203   4.088   2.642   1.829
 2086TIP3    H2 6204   4.196   2.558   1.763
 2087TIP3   OH2 6205   3.195   0.801   5.331
 2087TIP3    H1 6206   3.285   0.780   5.306
 2087TIP3    H2 6207   3.172   0.732   5.394
 2088TIP3   OH2 6208   6.839   4.596   4.295
 2088TIP3    H1 6209   6.750   4.590   4.260
 2088TIP3    H2 6210   6.839   4.537   4.370
 2089TIP3   OH2 6211   4.676   3.817   2.542
 2089TIP3    H1 6212   4.742   3.763   2.499
 2089TIP3    H2 6213   4.719   3.902   2.553
 2090TIP3   OH2 6214   1.219   5.864   6.610
 2090TIP3    H1 6215   1.131   5.868   6.572
 2090TIP3    H2 6216   1.277   5.849   6.536
 2091TIP3   OH2 6217   4.652   5.043   3.542
 2091TIP3    H1 6218   4.563   5.048   3.506
 2091TIP3    H2 6219   4.699   4.985   3.481
 2092TIP3   OH2 6220   3.313   6.574   2.764
 2092TIP3    H1 6221   3.241   6.603   2.708
 2092TIP3    H2 6222   3.313   6.478   2.755
 2093TIP3   OH2 6223   5.966   7.092   3.928
 2093TIP3    H1 6224   5.973   7.046   3.845
 2093TIP3    H2 6225   5.897   7.157   3.914
 2094TIP3   OH2 6226   1.787   5.229   4.175
 2094TIP3    H1 6227   1.815   5.247   4.264
 2094TIP3    H2 6228   1.732   5.151   4.183
 2095TIP3   OH2 6229   2.456   2.253   4.070
 2095TIP3    H1 6230   2.407   2.180   4.109
 2095TIP3    H2 6231   2.540   2.215   4.045
 2096TIP3   OH2 6232   4.099   1.014   6.196
 2096TIP3    H1 6233   4.006   1.036   6.189
 2096TIP3    H2 6234   4.102   0.919   6.191
 2097TIP3   OH2 6235   3.231   0.972   0.639
 2097TIP3    H1 6236   3.147   0.979   0.683
 2097TIP3    H2 6237   3.210   0.979   0.546
 2098TIP3   OH2 6238   8.049   4.171   4.955
 2098TIP3    H1 6239   8.122   4.232   4.938
 2098TIP3    H2 6240   7.996   4.175   4.876
 2099TIP3   OH2 6241   1.806   3.945   4.153
 2099TIP3    H1 6242   1.802   3.953   4.248
 2099TIP3    H2 6243   1.785   4.033   4.121
 2100TIP3   OH2 6244   7.018   5.450   6.587
 2100TIP3    H1 6245   6.995   5.529   6.538
 2100TIP3    H2 6246   7.082   5.405   6.532
 2101TIP3   OH2 6247   3.409   6.705   5.270
 2101TIP3    H1 6248   3.476   6.716   5.338
 2101TIP3    H2 6249   3.364   6.624   5.294
 2102TIP3   OH2 6250   6.973   7.789   1.891
 2102TIP3    H1 6251   6.965   7.694   1.880
 2102TIP3    H2 6252   7.005   7.801   1.980
 2103TIP3   OH2 6253  -0.027   2.455   0.975
 2103TIP3    H1 6254  -0.001   2.365   0.995
 2103TIP3    H2 6255   0.022   2.477   0.895
 2104TIP3   OH2 6256   6.580   0.846   2.885
 2104TIP3    H1 6257   6.575   0.751   2.889
 2104TIP3    H2 6258   6.510   0.877   2.941
 2105TIP3   OH2 6259   3.581   1.867   1.703
 2105TIP3    H1 6260   3.657   1.811   1.685
 2105TIP3    H2 6261   3.509   1.824   1.657
 2106TIP3   OH2 6262   2.901   5.315   5.396
 2106TIP3    H1 6263   2.919   5.269   5.478
 2106TIP3    H2 6264   2.870   5.401   5.423
 2107TIP3   OH2 6265   1.785   2.849   2.754
 2107TIP3    H1 6266   1.869   2.888   2.776
 2107TIP3    H2 6267   1.737   2.918   2.708
 2108TIP3   OH2 6268   0.167   3.462   1.908
 2108TIP3    H1 6269   0.216   3.508   1.839
 2108TIP3    H2 6270   0.088   3.431   1.864
 2109TIP3   OH2 6271   2.760   3.320   1.799
 2109TIP3    H1 6272   2.725   3.406   1.778
 2109TIP3    H2 6273   2.855   3.331   1.798
 2110TIP3   OH2 6274   2.187   4.256   5.229
 2110TIP3    H1 6275   2.241   4.264   5.150
 2110TIP3    H2 6276   2.136   4.337   5.231
 2111TIP3   OH2 6277   4.538   4.270   4.859
 2111TIP3    H1 6278   4.577   4.275   4.772
 2111TIP3    H2 6279   4.490   4.352   4.869
 2112TIP3   OH2 6280   3.493   5.059   5.728
 2112TIP3    H1 6281   3.467   5.086   5.816
 2112TIP3    H2 6282   3.494   4.964   5.732
 2113TIP3   OH2 6283   8.005   5.427   6.673
 2113TIP3    H1 6284   7.939   5.402   6.608
 2113TIP3    H2 6285   7.988   5.520   6.689
 2114TIP3   OH2 6286   0.123   6.087   5.385
 2114TIP3    H1 6287   0.175   6.129   5.453
 2114TIP3    H2 6288   0.064   6.028   5.432
 2115TIP3   OH2 6289   7.214   7.329   0.071
 2115TIP3    H1 6290   7.223   7.264   0.002
 2115TIP3    H2 6291   7.158   7.397   0.032
 2116TIP3   OH2 6292   7.814   6.127   3.958
 2116TIP3    H1 6293   7.883   6.068   3.988
 2116TIP3    H2 6294   7.845   6.214   3.983
 2117TIP3   OH2 6295   2.171   3.761   2.559
 2117TIP3    H1 6296   2.145   3.841   2.604
 2117TIP3    H2 6297   2.245   3.727   2.610
 2118TIP3   OH2 6298   6.664   0.487   1.900
 2118TIP3    H1 6299   6.698   0.567   1.940
 2118TIP3    H2 6300   6.741   0.437   1.874
 2119TIP3   OH2 6301   2.006   3.031   1.777
 2119TIP3    H1 6302   2.076   2.966   1.784
 2119TIP3    H2 6303   2.007   3.076   1.861
 2120TIP3   OH2 6304   3.537   6.129   1.029
 2120TIP3    H1 6305   3.559   6.221   1.037
 2120TIP3    H2 6306   3.546   6.109   0.936
 2121TIP3   OH2 6307   5.624   6.527   3.140
 2121TIP3    H1 6308   5.578   6.482   3.211
 2121TIP3    H2 6309   5.685   6.462   3.106
 2122TIP3   OH2 6310   4.643   1.136   5.362
 2122TIP3    H1 6311   4.557   1.098   5.381
 2122TIP3    H2 6312   4.704   1.064   5.373
 2123TIP3   OH2 6313   5.586   4.487   5.339
 2123TIP3    H1 6314   5.617   4.471   5.250
 2123TIP3    H2 6315   5.491   4.498   5.330
 2124TIP3   OH2 6316   8.085   5.296   6.070
 2124TIP3    H1 6317   8.159   5.355   6.082
 2124TIP3    H2 6318   8.078   5.248   6.152
 2125TIP3   OH2 6319   2.345   3.344   6.556
 2125TIP3    H1 6320   2.421   3.363   6.501
 2125TIP3    H2 6321   2.379   3.288   6.626
 2126TIP3   OH2 6322   6.564   6.665   2.964
 2126TIP3    H1 6323   6.618   6.734   3.001
 2126TIP3    H2 6324   6.583   6.588   3.017
 2127TIP3   OH2 6325   6.770   4.544   3.801
 2127TIP3    H1 6326   6.745   4.624   3.754
 2127TIP3    H2 6327   6.837   4.572   3.862
 2128TIP3   OH2 6328   4.041   3.408   5.607
 2128TIP3    H1 6329   4.103   3.370   5.545
 2128TIP3    H2 6330   3.959   3.360   5.592
 2129TIP3   OH2 6331   6.798   6.282   6.114
 2129TIP3    H1 6332   6.760   6.341   6.180
 2129TIP3    H2 6333   6.846   6.340   6.055
 2130TIP3   OH2 6334   6.873   6.217   2.451
 2130TIP3    H1 6335   6.911   6.128   2.447
 2130TIP3    H2 6336   6.945   6.271   2.484
 2131TIP3   OH2 6337   4.994   4.728   3.359
 2131TIP3    H1 6338   5.070   4.787   3.353
 2131TIP3    H2 6339   5.014   4.671   3.434
 2132TIP3   OH2 6340   5.531   5.185   4.680
 2132TIP3    H1 6341   5.537   5.125   4.605
 2132TIP3    H2 6342   5.454   5.238   4.662
 2133TIP3   OH2 6343   4.363   5.138   1.132
 2133TIP3    H1 6344   4.306   5.204   1.092
 2133TIP3    H2 6345   4.306   5.063   1.147
 2134TIP3   OH2 6346   2.178   4.912   4.446
 2134TIP3    H1 6347   2.162   4.999   4.482
 2134TIP3    H2 6348   2.103   4.896   4.388
 2135TIP3   OH2 6349   7.879   4.815   2.769
 2135TIP3    H1 6350   7.975   4.811   2.776
 2135TIP3    H2 6351   7.860   4.771   2.686
 2136TIP3   OH2 6352   6.717   4.390   1.538
 2136TIP3    H1 6353   6.668   4.462   1.499
 2136TIP3    H2 6354   6.809   4.413   1.523
 2137TIP3   OH2 6355   4.460   4.619   1.283
 2137TIP3    H1 6356   4.548   4.580   1.286
 2137TIP3    H2 6357   4.454   4.658   1.196
 2138TIP3   OH2 6358   8.247   0.903   2.958
 2138TIP3    H1 6359   8.182   0.939   3.019
 2138TIP3    H2 6360   8.304   0.850   3.013
 2139TIP3   OH2 6361   2.880   5.301   4.025
 2139TIP3    H1 6362   2.944   5.359   4.066
 2139TIP3    H2 6363   2.804   5.357   4.009
 2140TIP3   OH2 6364   1.938   3.078   6.538
 2140TIP3    H1 6365   1.947   2.984   6.551
 2140TIP3    H2 6366   2.017   3.115   6.576
 2141TIP3   OH2 6367   1.864   6.591   1.565
 2141TIP3    H1 6368   1.883   6.519   1.627
 2141TIP3    H2 6369   1.834   6.663   1.621
 2142TIP3   OH2 6370   6.019   4.136   5.221
 2142TIP3    H1 6371   6.057   4.068   5.276
 2142TIP3    H2 6372   5.967   4.088   5.156
 2143TIP3   OH2 6373   2.461   3.721   5.275
 2143TIP3    H1 6374   2.478   3.685   5.362
 2143TIP3    H2 6375   2.454   3.816   5.290
 2144TIP3   OH2 6376   7.039   1.002   3.898
 2144TIP3    H1 6377   6.989   0.936   3.946
 2144TIP3    H2 6378   7.039   0.972   3.808
 2145TIP3   OH2 6379   1.534   4.756   4.209
 2145TIP3    H1 6380   1.594   4.692   4.171
 2145TIP3    H2 6381   1.456   4.705   4.230
 2146TIP3   OH2 6382   7.196   7.393   5.241
 2146TIP3    H1 6383   7.233   7.427   5.159
 2146TIP3    H2 6384   7.266   7.340   5.278
 2147TIP3   OH2 6385   6.992   7.348   1.473
 2147TIP3    H1 6386   7.084   7.368   1.486
 2147TIP3    H2 6387   6.946   7.428   1.498
 2148TIP3   OH2 6388   3.375   3.466   4.843
 2148TIP3    H1 6389   3.410   3.509   4.921
 2148TIP3    H2 6390   3.354   3.377   4.872
 2149TIP3   OH2 6391   1.068   1.354   2.781
 2149TIP3    H1 6392   0.989   1.363   2.833
 2149TIP3    H2 6393   1.138   1.388   2.837
 2150TIP3   OH2 6394   4.629   7.256   0.181
 2150TIP3    H1 6395   4.568   7.208   0.125
 2150TIP3    H2 6396   4.661   7.327   0.126
 2151TIP3   OH2 6397   7.948   4.780   2.299
 2151TIP3    H1 6398   8.006   4.713   2.262
 2151TIP3    H2 6399   7.953   4.853   2.237
 2152TIP3   OH2 6400   4.691   5.532   1.936
 2152TIP3    H1 6401   4.716   5.598   1.871
 2152TIP3    H2 6402   4.604   5.503   1.910
 2153TIP3   OH2 6403   6.727   1.290   1.723
 2153TIP3    H1 6404   6.764   1.289   1.635
 2153TIP3    H2 6405   6.681   1.375   1.728
 2154TIP3   OH2 6406   1.677   4.385   6.225
 2154TIP3    H1 6407   1.610   4.451   6.207
 2154TIP3    H2 6408   1.738   4.392   6.152
 2155TIP3   OH2 6409   5.338   5.108   2.019
 2155TIP3    H1 6410   5.297   5.032   2.060
 2155TIP3    H2 6411   5.382   5.153   2.091
 2156TIP3   OH2 6412   7.706   2.908   0.969
 2156TIP3    H1 6413   7.627   2.929   0.920
 2156TIP3    H2 6414   7.763   2.984   0.958
 2157TIP3   OH2 6415   2.743   1.820   3.893
 2157TIP3    H1 6416   2.709   1.888   3.835
 2157TIP3    H2 6417   2.668   1.762   3.908
 2158TIP3   OH2 6418   2.180   1.148   1.717
 2158TIP3    H1 6419   2.268   1.185   1.730
 2158TIP3    H2 6420   2.193   1.053   1.726
 2159TIP3   OH2 6421   6.932   4.736   4.009
 2159TIP3    H1 6422   6.935   4.831   4.026
 2159TIP3    H2 6423   6.881   4.700   4.082
 2160TIP3   OH2 6424   6.124   7.592   4.516
 2160TIP3    H1 6425   6.091   7.516   4.469
 2160TIP3    H2 6426   6.051   7.620   4.572
 2161TIP3   OH2 6427   5.286   2.755   0.270
 2161TIP3    H1 6428   5.314   2.801   0.349
 2161TIP3    H2 6429   5.358   2.770   0.207
 2162TIP3   OH2 6430   4.688   1.563   3.432
 2162TIP3    H1 6431   4.635   1.596   3.359
 2162TIP3    H2 6432   4.645   1.598   3.510
 2163TIP3   OH2 6433   8.248   4.792   5.816
 2163TIP3    H1 6434   8.313   4.847   5.859
 2163TIP3    H2 6435   8.298   4.739   5.754
 2164TIP3   OH2 6436   3.352   1.279   2.546
 2164TIP3    H1 6437   3.312   1.316   2.467
 2164TIP3    H2 6438   3.322   1.188   2.547
 2165TIP3   OH2 6439   4.654   7.766   0.567
 2165TIP3    H1 6440   4.590   7.797   0.503
 2165TIP3    H2 6441   4.618   7.682   0.598
 2166TIP3   OH2 6442   3.427   4.766   4.065
 2166TIP3    H1 6443   3.386   4.802   4.144
 2166TIP3    H2 6444   3.509   4.728   4.096
 2167TIP3   OH2 6445   7.708   0.734   5.053
 2167TIP3    H1 6446   7.787   0.788   5.041
 2167TIP3    H2 6447   7.689   0.700   4.965
 2168TIP3   OH2 6448   4.099   7.766   6.554
 2168TIP3    H1 6449   4.024   7.775   6.494
 2168TIP3    H2 6450   4.171   7.811   6.509
 2169TIP3   OH2 6451   1.750   4.503   0.385
 2169TIP3    H1 6452   1.748   4.488   0.290
 2169TIP3    H2 6453   1.842   4.520   0.405
 2170TIP3   OH2 6454   4.793   7.762   1.332
 2170TIP3    H1 6455   4.709   7.731   1.367
 2170TIP3    H2 6456   4.825   7.823   1.398
 2171TIP3   OH2 6457   3.421   2.215   5.475
 2171TIP3    H1 6458   3.346   2.169   5.438
 2171TIP3    H2 6459   3.481   2.227   5.401
 2172TIP3   OH2 6460   5.086   6.835   0.559
 2172TIP3    H1 6461   5.016   6.803   0.502
 2172TIP3    H2 6462   5.166   6.803   0.519
 2173TIP3   OH2 6463   4.146   7.573   4.836
 2173TIP3    H1 6464   4.207   7.569   4.910
 2173TIP3    H2 6465   4.061   7.594   4.877
 2174TIP3   OH2 6466   2.436   0.231   5.817
 2174TIP3    H1 6467   2.386   0.306   5.849
 2174TIP3    H2 6468   2.514   0.228   5.871
 2175TIP3   OH2 6469   4.299   5.661   6.486
 2175TIP3    H1 6470   4.317   5.570   6.465
 2175TIP3    H2 6471   4.300   5.706   6.401
 2176TIP3   OH2 6472   6.476   5.755   6.254
 2176TIP3    H1 6473   6.501   5.792   6.339
 2176TIP3    H2 6474   6.557   5.718   6.219
 2177TIP3   OH2 6475   3.562   4.491   4.662
 2177TIP3    H1 6476   3.636   4.547   4.639
 2177TIP3    H2 6477   3.502   4.550   4.708
 2178TIP3   OH2 6478   1.788   7.499   3.967
 2178TIP3    H1 6479   1.812   7.463   3.882
 2178TIP3    H2 6480   1.770   7.591   3.950
 2179TIP3   OH2 6481   4.939   1.372   4.526
 2179TIP3    H1 6482   4.964   1.452   4.480
 2179TIP3    H2 6483   4.935   1.305   4.457
 2180TIP3   OH2 6484   6.884   1.455   3.260
 2180TIP3    H1 6485   6.877   1.541   3.302
 2180TIP3    H2 6486   6.861   1.471   3.169
 2181TIP3   OH2 6487   3.025   1.263   2.653
 2181TIP3    H1 6488   2.987   1.336   2.603
 2181TIP3    H2 6489   3.024   1.189   2.592
 2182TIP3   OH2 6490   6.997   5.797   0.914
 2182TIP3    H1 6491   6.982   5.711   0.954
 2182TIP3    H2 6492   6.977   5.859   0.983
 2183TIP3   OH2 6493   5.314   7.588   5.026
 2183TIP3    H1 6494   5.396   7.578   5.074
 2183TIP3    H2 6495   5.247   7.595   5.095
 2184TIP3   OH2 6496   2.476   5.276   0.367
 2184TIP3    H1 6497   2.475   5.189   0.327
 2184TIP3    H2 6498   2.496   5.335   0.295
 2185TIP3   OH2 6499   3.908   4.674   3.730
 2185TIP3    H1 6500   3.965   4.631   3.666
 2185TIP3    H2 6501   3.853   4.731   3.677
 2186TIP3   OH2 6502   7.674   3.209   0.490
 2186TIP3    H1 6503   7.716   3.181   0.409
 2186TIP3    H2 6504   7.745   3.248   0.541
 2187TIP3   OH2 6505   1.987   1.250   4.323
 2187TIP3    H1 6506   2.054   1.198   4.368
 2187TIP3    H2 6507   2.013   1.341   4.336
 2188TIP3   OH2 6508   7.915   7.097   3.427
 2188TIP3    H1 6509   7.958   7.092   3.512
 2188TIP3    H2 6510   7.825   7.125   3.447
 2189TIP3   OH2 6511   3.434   7.464   5.282
 2189TIP3    H1 6512   3.492   7.394   5.312
 2189TIP3    H2 6513   3.464   7.542   5.328
 2190TIP3   OH2 6514   8.186   6.118   6.761
 2190TIP3    H1 6515   8.177   6.120   6.856
 2190TIP3    H2 6516   8.235   6.038   6.743
 2191TIP3   OH2 6517   4.539   2.517   1.528
 2191TIP3    H1 6518   4.513   2.474   1.447
 2191TIP3    H2 6519   4.518   2.610   1.514
 2192TIP3   OH2 6520   5.645   7.717   6.109
 2192TIP3    H1 6521   5.671   7.795   6.060
 2192TIP3    H2 6522   5.724   7.690   6.154
 2193TIP3   OH2 6523   6.136   6.802   4.542
 2193TIP3    H1 6524   6.162   6.894   4.546
 2193TIP3    H2 6525   6.161   6.766   4.627
 2194TIP3   OH2 6526   4.486   5.151   6.423
 2194TIP3    H1 6527   4.443   5.234   6.401
 2194TIP3    H2 6528   4.423   5.085   6.396
 2195TIP3   OH2 6529   6.208   7.775   4.792
 2195TIP3    H1 6530   6.130   7.729   4.823
 2195TIP3    H2 6531   6.278   7.710   4.796
 2196TIP3   OH2 6532   4.737   1.455   2.625
 2196TIP3    H1 6533   4.667   1.510   2.659
 2196TIP3    H2 6534   4.719   1.448   2.531
 2197TIP3   OH2 6535   0.815   5.885   1.911
 2197TIP3    H1 6536   0.753   5.813   1.901
 2197TIP3    H2 6537   0.901   5.843   1.904
 2198TIP3   OH2 6538   6.757   4.727   5.518
 2198TIP3    H1 6539   6.780   4.819   5.508
 2198TIP3    H2 6540   6.731   4.698   5.430
 2199TIP3   OH2 6541   7.987   7.465   6.514
 2199TIP3    H1 6542   8.039   7.502   6.585
 2199TIP3    H2 6543   8.051   7.417   6.461
 2200TIP3   OH2 6544   2.129   4.745   3.969
 2200TIP3    H1 6545   2.126   4.771   3.877
 2200TIP3    H2 6546   2.184   4.667   3.970
 2201TIP3   OH2 6547   0.670   1.575   5.415
 2201TIP3    H1 6548   0.697   1.484   5.406
 2201TIP3    H2 6549   0.585   1.579   5.371
 2202TIP3   OH2 6550   5.131   3.110   6.335
 2202TIP3    H1 6551   5.147   3.173   6.265
 2202TIP3    H2 6552   5.179   3.032   6.308
 2203TIP3   OH2 6553   4.830   3.613   2.336
 2203TIP3    H1 6554   4.779   3.532   2.348
 2203TIP3    H2 6555   4.765   3.679   2.312
 2204TIP3   OH2 6556   0.752   1.157   5.132
 2204TIP3    H1 6557   0.672   1.182   5.085
 2204TIP3    H2 6558   0.771   1.068   5.103
 2205TIP3   OH2 6559   3.808   4.645   1.310
 2205TIP3    H1 6560   3.834   4.646   1.218
 2205TIP3    H2 6561   3.724   4.600   1.311
 2206TIP3   OH2 6562   5.713   0.917   1.000
 2206TIP3    H1 6563   5.648   0.952   1.059
 2206TIP3    H2 6564   5.797   0.934   1.043
 2207TIP3   OH2 6565   8.087   0.654   0.158
 2207TIP3    H1 6566   8.023   0.714   0.196
 2207TIP3    H2 6567   8.081   0.575   0.213
 2208TIP3   OH2 6568   2.816   5.277   4.570
 2208TIP3    H1 6569   2.746   5.240   4.624
 2208TIP3    H2 6570   2.816   5.222   4.491
 2209TIP3   OH2 6571   2.347   0.829   4.791
 2209TIP3    H1 6572   2.386   0.915   4.807
 2209TIP3    H2 6573   2.377   0.805   4.704
 2210TIP3   OH2 6574   7.984   4.797   5.888
 2210TIP3    H1 6575   8.060   4.829   5.840
 2210TIP3    H2 6576   7.987   4.702   5.878
 2211TIP3   OH2 6577   6.764   7.274   2.490
 2211TIP3    H1 6578   6.680   7.320   2.485
 2211TIP3    H2 6579   6.747   7.202   2.552
 2212TIP3   OH2 6580   2.591   0.403   4.379
 2212TIP3    H1 6581   2.664   0.405   4.441
 2212TIP3    H2 6582   2.528   0.343   4.417
 2213TIP3   OH2 6583   1.439   3.231   2.255
 2213TIP3    H1 6584   1.530   3.205   2.239
 2213TIP3    H2 6585   1.389   3.176   2.196
 2214TIP3   OH2 6586   7.643   4.951   1.919
 2214TIP3    H1 6587   7.678   4.898   1.991
 2214TIP3    H2 6588   7.716   5.007   1.894
 2215TIP3   OH2 6589   2.837   5.990   5.129
 2215TIP3    H1 6590   2.812   5.906   5.167
 2215TIP3    H2 6591   2.763   6.012   5.071
 2216TIP3   OH2 6592   5.224   5.261   3.161
 2216TIP3    H1 6593   5.257   5.171   3.156
 2216TIP3    H2 6594   5.254   5.301   3.080
 2217TIP3   OH2 6595   7.784   0.679   4.295
 2217TIP3    H1 6596   7.866   0.631   4.307
 2217TIP3    H2 6597   7.715   0.616   4.314
 2218TIP3   OH2 6598   6.913   0.959   4.169
 2218TIP3    H1 6599   6.996   0.992   4.203
 2218TIP3    H2 6600   6.938   0.886   4.111
 2219TIP3   OH2 6601   2.305   4.538   6.370
 2219TIP3    H1 6602   2.221   4.574   6.397
 2219TIP3    H2 6603   2.364   4.614   6.370
 2220TIP3   OH2 6604   0.022   7.706   2.565
 2220TIP3    H1 6605   0.018   7.799   2.587
 2220TIP3    H2 6606   0.116   7.689   2.551
 2221TIP3   OH2 6607   2.709   0.154   1.515
 2221TIP3    H1 6608   2.776   0.174   1.450
 2221TIP3    H2 6609   2.629   0.193   1.480
 2222TIP3   OH2 6610   2.137   1.944   1.089
 2222TIP3    H1 6611   2.074   1.973   1.154
 2222TIP3    H2 6612   2.223   1.969   1.124
 2223TIP3   OH2 6613   4.490   5.356   0.452
 2223TIP3    H1 6614   4.396   5.363   0.434
 2223TIP3    H2 6615   4.526   5.441   0.425
 2224TIP3   OH2 6616   1.835   3.956   6.353
 2224TIP3    H1 6617   1.818   4.001   6.270
 2224TIP3    H2 6618   1.782   3.877   6.349
 2225TIP3   OH2 6619   1.339   4.862   6.284
 2225TIP3    H1 6620   1.282   4.935   6.261
 2225TIP3    H2 6621   1.280   4.786   6.288
 2226TIP3   OH2 6622   6.430   1.632   2.830
 2226TIP3    H1 6623   6.423   1.707   2.890
 2226TIP3    H2 6624   6.431   1.556   2.888
 2227TIP3   OH2 6625   5.508   7.242   2.889
 2227TIP3    H1 6626   5.543   7.319   2.933
 2227TIP3    H2 6627   5.443   7.206   2.950
 2228TIP3   OH2 6628   6.021   7.677   0.811
 2228TIP3    H1 6629   6.022   7.662   0.905
 2228TIP3    H2 6630   5.929   7.666   0.786
 2229TIP3   OH2 6631   0.238   1.445   5.144
 2229TIP3    H1 6632   0.178   1.508   5.184
 2229TIP3    H2 6633   0.267   1.487   5.063
 2230TIP3   OH2 6634   4.284   2.197   1.799
 2230TIP3    H1 6635   4.195   2.199   1.763
 2230TIP3    H2 6636   4.317   2.111   1.777
 2231TIP3   OH2 6637   3.388   0.498   4.836
 2231TIP3    H1 6638   3.409   0.579   4.882
 2231TIP3    H2 6639   3.454   0.435   4.866
 2232TIP3   OH2 6640   8.061   6.959   5.442
 2232TIP3    H1 6641   8.057   6.870   5.406
 2232TIP3    H2 6642   8.041   7.016   5.368
 2233TIP3   OH2 6643   8.057   6.914   6.243
 2233TIP3    H1 6644   8.039   6.916   6.149
 2233TIP3    H2 6645   8.031   7.000   6.274
 2234TIP3   OH2 6646   5.446   4.023   0.238
 2234TIP3    H1 6647   5.416   3.954   0.296
 2234TIP3    H2 6648   5.527   3.990   0.201
 2235TIP3   OH2 6649   2.535   5.162   3.494
 2235TIP3    H1 6650   2.453   5.151   3.542
 2235TIP3    H2 6651   2.559   5.073   3.468
 2236TIP3   OH2 6652   6.886   2.334   4.058
 2236TIP3    H1 6653   6.881   2.311   4.150
 2236TIP3    H2 6654   6.978   2.355   4.043
 2237TIP3   OH2 6655   7.824   5.794   1.853
 2237TIP3    H1 6656   7.807   5.749   1.770
 2237TIP3    H2 6657   7.796   5.885   1.837
 2238TIP3   OH2 6658   0.956   2.033   6.513
 2238TIP3    H1 6659   0.927   2.030   6.604
 2238TIP3    H2 6660   1.007   1.953   6.501
 2239TIP3   OH2 6661   0.308   0.086   4.471
 2239TIP3    H1 6662   0.398   0.063   4.494
 2239TIP3    H2 6663   0.280   0.016   4.412
 2240TIP3   OH2 6664   0.547   7.161   3.633
 2240TIP3    H1 6665   0.537   7.129   3.543
 2240TIP3    H2 6666   0.626   7.215   3.629
 2241TIP3   OH2 6667   7.402   7.069   0.645
 2241TIP3    H1 6668   7.475   7.095   0.701
 2241TIP3    H2 6669   7.348   7.148   0.638
 2242TIP3   OH2 6670   0.697   6.482   5.130
 2242TIP3    H1 6671   0.684   6.414   5.196
 2242TIP3    H2 6672   0.630   6.463   5.064
 2243TIP3   OH2 6673   1.065   5.285   6.090
 2243TIP3    H1 6674   1.120   5.300   6.167
 2243TIP3    H2 6675   0.976   5.299   6.121
 2244TIP3   OH2 6676   7.901   7.064   2.446
 2244TIP3    H1 6677   7.853   7.102   2.520
 2244TIP3    H2 6678   7.879   7.120   2.372
 2245TIP3   OH2 6679   6.874   1.775   4.988
 2245TIP3    H1 6680   6.813   1.749   4.919
 2245TIP3    H2 6681   6.953   1.802   4.940
 2246TIP3   OH2 6682   6.867   0.381   2.297
 2246TIP3    H1 6683   6.790   0.419   2.254
 2246TIP3    H2 6684   6.851   0.396   2.390
 2247TIP3   OH2 6685   3.242   6.979   1.221
 2247TIP3    H1 6686   3.167   6.924   1.243
 2247TIP3    H2 6687   3.209   7.039   1.155
 2248TIP3   OH2 6688   7.275   2.727   2.477
 2248TIP3    H1 6689   7.262   2.646   2.527
 2248TIP3    H2 6690   7.242   2.706   2.390
 2249TIP3   OH2 6691   3.715   4.762   3.099
 2249TIP3    H1 6692   3.640   4.820   3.090
 2249TIP3    H2 6693   3.692   4.684   3.049
 2250TIP3   OH2 6694   2.101   1.952   0.494
 2250TIP3    H1 6695   2.118   1.862   0.464
 2250TIP3    H2 6696   2.168   1.968   0.561
 2251TIP3   OH2 6697   1.068   0.383   0.265
 2251TIP3    H1 6698   1.014   0.355   0.191
 2251TIP3    H2 6699   1.155   0.397   0.228
 2252TIP3   OH2 6700   7.956   1.911   1.736
 2252TIP3    H1 6701   7.946   1.855   1.813
 2252TIP3    H2 6702   7.882   1.887   1.680
 2253TIP3   OH2 6703   1.292   6.366   2.642
 2253TIP3    H1 6704   1.230   6.299   2.612
 2253TIP3    H2 6705   1.306   6.347   2.734
 2254TIP3   OH2 6706  -0.012   0.642   1.142
 2254TIP3    H1 6707   0.070   0.601   1.171
 2254TIP3    H2 6708   0.000   0.735   1.163
 2255TIP3   OH2 6709   5.500   0.396   6.292
 2255TIP3    H1 6710   5.481   0.451   6.367
 2255TIP3    H2 6711   5.554   0.449   6.234
 2256TIP3   OH2 6712   5.301   7.776   0.136
 2256TIP3    H1 6713   5.223   7.747   0.087
 2256TIP3    H2 6714   5.265   7.818   0.214
 2257TIP3   OH2 6715   7.538   0.711   0.364
 2257TIP3    H1 6716   7.488   0.792   0.352
 2257TIP3    H2 6717   7.483   0.657   0.420
 2258TIP3   OH2 6718   3.782   0.080   2.157
 2258TIP3    H1 6719   3.689   0.099   2.168
 2258TIP3    H2 6720   3.816   0.070   2.246
 2259TIP3   OH2 6721   3.376   0.708   2.283
 2259TIP3    H1 6722   3.472   0.702   2.288
 2259TIP3    H2 6723   3.346   0.680   2.369
 2260TIP3   OH2 6724   4.588   6.325   1.780
 2260TIP3    H1 6725   4.493   6.337   1.767
 2260TIP3    H2 6726   4.627   6.354   1.697
 2261TIP3   OH2 6727   1.442   4.470   4.891
 2261TIP3    H1 6728   1.505   4.541   4.882
 2261TIP3    H2 6729   1.395   4.490   4.972
 2262TIP3   OH2 6730   7.848   4.075   0.571
 2262TIP3    H1 6731   7.922   4.099   0.515
 2262TIP3    H2 6732   7.812   3.996   0.531
 2263TIP3   OH2 6733   3.645   0.396   4.916
 2263TIP3    H1 6734   3.690   0.379   4.999
 2263TIP3    H2 6735   3.642   0.310   4.873
 2264TIP3   OH2 6736   5.440   3.767   1.050
 2264TIP3    H1 6737   5.443   3.751   0.956
 2264TIP3    H2 6738   5.468   3.857   1.061
 2265TIP3   OH2 6739   0.197   6.526   4.051
 2265TIP3    H1 6740   0.169   6.447   4.006
 2265TIP3    H2 6741   0.127   6.590   4.032
 2266TIP3   OH2 6742   0.863   2.968   5.346
 2266TIP3    H1 6743   0.940   2.915   5.328
 2266TIP3    H2 6744   0.891   3.059   5.330
 2267TIP3   OH2 6745   4.173   6.876   5.100
 2267TIP3    H1 6746   4.107   6.934   5.062
 2267TIP3    H2 6747   4.247   6.933   5.120
 2268TIP3   OH2 6748   5.912   1.688   0.893
 2268TIP3    H1 6749   5.941   1.656   0.978
 2268TIP3    H2 6750   5.825   1.650   0.881
 2269TIP3   OH2 6751   6.711   0.971   0.644
 2269TIP3    H1 6752   6.779   0.914   0.679
 2269TIP3    H2 6753   6.738   0.990   0.554
 2270TIP3   OH2 6754   3.063   4.204   3.206
 2270TIP3    H1 6755   3.121   4.185   3.132
 2270TIP3    H2 6756   3.090   4.290   3.236
 2271TIP3   OH2 6757   5.723   4.560   3.647
 2271TIP3    H1 6758   5.761   4.601   3.725
 2271TIP3    H2 6759   5.629   4.555   3.667
 2272TIP3   OH2 6760   5.438   3.553   6.316
 2272TIP3    H1 6761   5.511   3.573   6.258
 2272TIP3    H2 6762   5.362   3.552   6.259
 2273TIP3   OH2 6763   7.853   2.595   0.154
 2273TIP3    H1 6764   7.779   2.611   0.095
 2273TIP3    H2 6765   7.914   2.543   0.102
 2274TIP3   OH2 6766   6.271   2.097   5.711
 2274TIP3    H1 6767   6.199   2.116   5.651
 2274TIP3    H2 6768   6.272   2.171   5.772
 2275TIP3   OH2 6769   4.949   2.882   1.910
 2275TIP3    H1 6770   4.978   2.962   1.866
 2275TIP3    H2 6771   4.944   2.816   1.840
 2276TIP3   OH2 6772   3.946   5.849   4.328
 2276TIP3    H1 6773   3.915   5.939   4.340
 2276TIP3    H2 6774   3.954   5.814   4.416
 2277TIP3   OH2 6775   4.454   0.972   1.559
 2277TIP3    H1 6776   4.460   1.067   1.562
 2277TIP3    H2 6777   4.364   0.954   1.533
 2278TIP3   OH2 6778   3.988   5.306   2.750
 2278TIP3    H1 6779   3.964   5.398   2.756
 2278TIP3    H2 6780   3.970   5.282   2.659
 2279TIP3   OH2 6781   3.712   5.553   2.218
 2279TIP3    H1 6782   3.656   5.549   2.141
 2279TIP3    H2 6783   3.782   5.613   2.193
 2280TIP3   OH2 6784   5.335   2.172   0.245
 2280TIP3    H1 6785   5.253   2.129   0.266
 2280TIP3    H2 6786   5.323   2.263   0.273
 2281TIP3   OH2 6787   3.229   5.585   6.716
 2281TIP3    H1 6788   3.248   5.646   6.787
 2281TIP3    H2 6789   3.215   5.641   6.640
 2282TIP3   OH2 6790   4.656   6.394   2.752
 2282TIP3    H1 6791   4.633   6.345   2.673
 2282TIP3    H2 6792   4.684   6.479   2.719
 2283TIP3   OH2 6793   0.297   5.557   5.147
 2283TIP3    H1 6794   0.205   5.578   5.155
 2283TIP3    H2 6795   0.298   5.464   5.122
 2284TIP3   OH2 6796   5.988   7.552   1.423
 2284TIP3    H1 6797   6.017   7.526   1.335
 2284TIP3    H2 6798   5.920   7.489   1.445
 2285TIP3   OH2 6799   2.701   5.817   1.280
 2285TIP3    H1 6800   2.643   5.843   1.208
 2285TIP3    H2 6801   2.756   5.894   1.295
 2286TIP3   OH2 6802   5.296   7.442   4.814
 2286TIP3    H1 6803   5.255   7.508   4.757
 2286TIP3    H2 6804   5.310   7.488   4.897
 2287TIP3   OH2 6805   0.096   1.287   2.212
 2287TIP3    H1 6806   0.173   1.324   2.254
 2287TIP3    H2 6807   0.052   1.237   2.281
 2288TIP3   OH2 6808   3.810   7.591   5.879
 2288TIP3    H1 6809   3.895   7.555   5.854
 2288TIP3    H2 6810   3.769   7.521   5.929
 2289TIP3   OH2 6811   4.009   6.150   4.792
 2289TIP3    H1 6812   4.083   6.110   4.745
 2289TIP3    H2 6813   4.032   6.141   4.884
 2290TIP3   OH2 6814   3.699   3.388   5.842
 2290TIP3    H1 6815   3.754   3.326   5.890
 2290TIP3    H2 6816   3.720   3.372   5.750
 2291TIP3   OH2 6817   6.542   7.042   3.774
 2291TIP3    H1 6818   6.565   7.128   3.737
 2291TIP3    H2 6819   6.456   7.057   3.815
 2292TIP3   OH2 6820   6.252   3.016   3.813
 2292TIP3    H1 6821   6.301   3.082   3.862
 2292TIP3    H2 6822   6.319   2.970   3.761
 2293TIP3   OH2 6823   0.997   4.781   2.371
 2293TIP3    H1 6824   1.088   4.758   2.350
 2293TIP3    H2 6825   0.944   4.731   2.309
 2294TIP3   OH2 6826   4.033   3.715   3.417
 2294TIP3    H1 6827   3.941   3.740   3.414
 2294TIP3    H2 6828   4.060   3.735   3.507
 2295TIP3   OH2 6829   5.983   4.271   0.336
 2295TIP3    H1 6830   6.017   4.223   0.411
 2295TIP3    H2 6831   5.967   4.203   0.270
 2296TIP3   OH2 6832   7.744   7.767   3.601
 2296TIP3    H1 6833   7.670   7.770   3.662
 2296TIP3    H2 6834   7.786   7.683   3.618
 2297TIP3   OH2 6835   4.030   2.829   5.130
 2297TIP3    H1 6836   4.028   2.923   5.108
 2297TIP3    H2 6837   4.117   2.800   5.102
 2298TIP3   OH2 6838   6.815   4.582   6.242
 2298TIP3    H1 6839   6.801   4.525   6.167
 2298TIP3    H2 6840   6.838   4.523   6.313
 2299TIP3   OH2 6841   2.825   5.316   3.641
 2299TIP3    H1 6842   2.880   5.322   3.563
 2299TIP3    H2 6843   2.784   5.229   3.634
 2300TIP3   OH2 6844   7.683   4.777   1.625
 2300TIP3    H1 6845   7.777   4.788   1.632
 2300TIP3    H2 6846   7.649   4.866   1.614
 2301TIP3   OH2 6847   1.971   2.674   3.280
 2301TIP3    H1 6848   1.982   2.751   3.224
 2301TIP3    H2 6849   2.002   2.701   3.366
 2302TIP3   OH2 6850   0.216   1.152   4.833
 2302TIP3    H1 6851   0.150   1.188   4.893
 2302TIP3    H2 6852   0.291   1.211   4.842
 2303TIP3   OH2 6853   4.884   7.353   2.358
 2303TIP3    H1 6854   4.949   7.334   2.290
 2303TIP3    H2 6855   4.911   7.437   2.395
 2304TIP3   OH2 6856   0.800   5.473   2.554
 2304TIP3    H1 6857   0.783   5.400   2.614
 2304TIP3    H2 6858   0.894   5.486   2.560
 2305TIP3   OH2 6859   2.109   5.935   5.951
 2305TIP3    H1 6860   2.172   5.873   5.990
 2305TIP3    H2 6861   2.028   5.884   5.945
 2306TIP3   OH2 6862   7.604   4.724   5.081
 2306TIP3    H1 6863   7.594   4.817   5.103
 2306TIP3    H2 6864   7.698   4.711   5.076
 2307TIP3   OH2 6865   3.354   3.391   0.762
 2307TIP3    H1 6866   3.345   3.422   0.672
 2307TIP3    H2 6867   3.411   3.314   0.755
 2308TIP3   OH2 6868   3.451   5.175   1.712
 2308TIP3    H1 6869   3.542   5.170   1.683
 2308TIP3    H2 6870   3.403   5.204   1.635
 2309TIP3   OH2 6871   3.915   4.988   3.114
 2309TIP3    H1 6872   3.858   4.913   3.098
 2309TIP3    H2 6873   3.908   5.004   3.208
 2310TIP3   OH2 6874   2.128   2.209   3.965
 2310TIP3    H1 6875   2.195   2.144   3.986
 2310TIP3    H2 6876   2.079   2.220   4.046
 2311TIP3   OH2 6877   0.205   7.826   4.691
 2311TIP3    H1 6878   0.244   7.852   4.774
 2311TIP3    H2 6879   0.113   7.809   4.712
 2312TIP3   OH2 6880   5.378   5.268   3.409
 2312TIP3    H1 6881   5.363   5.256   3.503
 2312TIP3    H2 6882   5.294   5.298   3.375
 2313TIP3   OH2 6883   4.572   6.391   2.046
 2313TIP3    H1 6884   4.576   6.361   1.955
 2313TIP3    H2 6885   4.643   6.454   2.054
 2314TIP3   OH2 6886   5.650   5.843   4.673
 2314TIP3    H1 6887   5.719   5.793   4.628
 2314TIP3    H2 6888   5.691   5.873   4.754
 2315TIP3   OH2 6889   2.165   3.603   6.526
 2315TIP3    H1 6890   2.117   3.586   6.445
 2315TIP3    H2 6891   2.247   3.556   6.516
 2316TIP3   OH2 6892   2.971   0.723   4.031
 2316TIP3    H1 6893   2.963   0.800   3.974
 2316TIP3    H2 6894   2.956   0.757   4.119
 2317TIP3   OH2 6895   1.694   1.533   0.926
 2317TIP3    H1 6896   1.766   1.583   0.887
 2317TIP3    H2 6897   1.736   1.474   0.988
 2318TIP3   OH2 6898   0.276   4.435   5.784
 2318TIP3    H1 6899   0.321   4.505   5.832
 2318TIP3    H2 6900   0.288   4.459   5.692
 2319TIP3   OH2 6901   3.232   6.242   1.936
 2319TIP3    H1 6902   3.206   6.231   1.845
 2319TIP3    H2 6903   3.328   6.245   1.933
 2320TIP3   OH2 6904   7.788   6.162   5.661
 2320TIP3    H1 6905   7.729   6.090   5.639
 2320TIP3    H2 6906   7.848   6.124   5.726
 2321TIP3   OH2 6907   6.949   0.305   0.153
 2321TIP3    H1 6908   6.993   0.230   0.112
 2321TIP3    H2 6909   6.918   0.358   0.080
 2322TIP3   OH2 6910   0.071   2.456   4.882
 2322TIP3    H1 6911  -0.024   2.456   4.866
 2322TIP3    H2 6912   0.080   2.492   4.970
 2323TIP3   OH2 6913   7.861   0.480   2.960
 2323TIP3    H1 6914   7.952   0.468   2.931
 2323TIP3    H2 6915   7.866   0.545   3.030
 2324TIP3   OH2 6916   6.906   6.327   5.764
 2324TIP3    H1 6917   6.862   6.242   5.768
 2324TIP3    H2 6918   6.991   6.309   5.725
 2325TIP3   OH2 6919   1.059   6.141   0.301
 2325TIP3    H1 6920   1.107   6.173   0.225
 2325TIP3    H2 6921   1.127   6.106   0.359
 2326TIP3   OH2 6922   0.667   5.310   3.912
 2326TIP3    H1 6923   0.610   5.260   3.971
 2326TIP3    H2 6924   0.661   5.265   3.828
 2327TIP3   OH2 6925   4.596   2.363   5.559
 2327TIP3    H1 6926   4.609   2.318   5.475
 2327TIP3    H2 6927   4.507   2.340   5.585
 2328TIP3   OH2 6928   2.605   2.782   6.124
 2328TIP3    H1 6929   2.598   2.810   6.215
 2328TIP3    H2 6930   2.673   2.837   6.086
 2329TIP3   OH2 6931   1.519   7.542   6.147
 2329TIP3    H1 6932   1.581   7.474   6.172
 2329TIP3    H2 6933   1.442   7.494   6.115
 2330TIP3   OH2 6934   5.250   2.526   2.021
 2330TIP3    H1 6935   5.164   2.551   1.988
 2330TIP3    H2 6936   5.304   2.517   1.943
 2331TIP3   OH2 6937   6.844   0.224   3.505
 2331TIP3    H1 6938   6.849   0.159   3.575
 2331TIP3    H2 6939   6.867   0.175   3.426
 2332TIP3   OH2 6940   7.680   1.525   3.679
 2332TIP3    H1 6941   7.725   1.442   3.696
 2332TIP3    H2 6942   7.589   1.509   3.704
 2333TIP3   OH2 6943   7.923   4.449   4.184
 2333TIP3    H1 6944   7.987   4.452   4.113
 2333TIP3    H2 6945   7.975   4.463   4.263
 2334TIP3   OH2 6946   1.137   2.134   3.142
 2334TIP3    H1 6947   1.185   2.052   3.137
 2334TIP3    H2 6948   1.205   2.202   3.137
 2335TIP3   OH2 6949   1.306   4.156   4.736
 2335TIP3    H1 6950   1.221   4.132   4.698
 2335TIP3    H2 6951   1.345   4.073   4.762
 2336TIP3   OH2 6952   1.480   1.720   2.363
 2336TIP3    H1 6953   1.502   1.641   2.314
 2336TIP3    H2 6954   1.561   1.771   2.366
 2337TIP3   OH2 6955   0.958   7.523   5.912
 2337TIP3    H1 6956   0.935   7.439   5.951
 2337TIP3    H2 6957   0.951   7.586   5.985
 2338TIP3   OH2 6958   7.058   2.493   3.864
 2338TIP3    H1 6959   6.984   2.457   3.815
 2338TIP3    H2 6960   7.076   2.428   3.932
 2339TIP3   OH2 6961   4.897   3.870   6.089
 2339TIP3    H1 6962   4.836   3.820   6.035
 2339TIP3    H2 6963   4.949   3.803   6.135
 2340TIP3   OH2 6964   7.849   1.418   6.538
 2340TIP3    H1 6965   7.809   1.499   6.508
 2340TIP3    H2 6966   7.801   1.349   6.493
 2341TIP3   OH2 6967   3.830   1.132   4.341
 2341TIP3    H1 6968   3.907   1.130   4.285
 2341TIP3    H2 6969   3.786   1.048   4.326
 2342TIP3   OH2 6970   2.917   5.041   0.433
 2342TIP3    H1 6971   2.975   5.112   0.404
 2342TIP3    H2 6972   2.932   4.971   0.369
 2343TIP3   OH2 6973   3.080   0.431   6.362
 2343TIP3    H1 6974   3.038   0.460   6.281
 2343TIP3    H2 6975   3.068   0.336   6.363
 2344TIP3   OH2 6976   7.433   6.402   4.193
 2344TIP3    H1 6977   7.456   6.358   4.111
 2344TIP3    H2 6978   7.465   6.492   4.182
 2345TIP3   OH2 6979   5.489   3.136   0.090
 2345TIP3    H1 6980   5.582   3.137   0.111
 2345TIP3    H2 6981   5.461   3.227   0.097
 2346TIP3   OH2 6982   6.077   2.568   2.989
 2346TIP3    H1 6983   6.090   2.611   3.073
 2346TIP3    H2 6984   5.983   2.551   2.984
 2347TIP3   OH2 6985   1.515   1.191   5.291
 2347TIP3    H1 6986   1.453   1.237   5.234
 2347TIP3    H2 6987   1.462   1.159   5.364
 2348TIP3   OH2 6988   4.280   1.627   5.651
 2348TIP3    H1 6989   4.243   1.601   5.566
 2348TIP3    H2 6990   4.342   1.557   5.672
 2349TIP3   OH2 6991   4.756   4.591   4.893
 2349TIP3    H1 6992   4.839   4.625   4.927
 2349TIP3    H2 6993   4.777   4.563   4.804
 2350TIP3   OH2 6994   4.873   7.352   1.452
 2350TIP3    H1 6995   4.803   7.315   1.399
 2350TIP3    H2 6996   4.911   7.276   1.496
 2351TIP3   OH2 6997   1.035   0.189   2.115
 2351TIP3    H1 6998   1.060   0.101   2.143
 2351TIP3    H2 6999   1.041   0.187   2.019
 2352TIP3   OH2 7000   0.953   3.243   5.695
 2352TIP3    H1 7001   1.030   3.233   5.639
 2352TIP3    H2 7002   0.920   3.154   5.707
 2353TIP3   OH2 7003   2.524   0.900   6.646
 2353TIP3    H1 7004   2.500   0.839   6.715
 2353TIP3    H2 7005   2.547   0.981   6.692
 2354TIP3   OH2 7006   6.686   6.707   3.304
 2354TIP3    H1 7007   6.693   6.750   3.218
 2354TIP3    H2 7008   6.607   6.744   3.343
 2355TIP3   OH2 7009   7.280   4.223   6.547
 2355TIP3    H1 7010   7.202   4.180   6.513
 2355TIP3    H2 7011   7.336   4.236   6.470
 2356TIP3   OH2 7012   1.008   6.420   6.644
 2356TIP3    H1 7013   0.939   6.354   6.645
 2356TIP3    H2 7014   1.074   6.385   6.584
 2357TIP3   OH2 7015   4.526   0.098   0.770
 2357TIP3    H1 7016   4.518   0.005   0.790
 2357TIP3    H2 7017   4.436   0.127   0.756
 2358TIP3   OH2 7018   2.448   6.983   5.353
 2358TIP3    H1 7019   2.467   6.972   5.259
 2358TIP3    H2 7020   2.528   7.019   5.390
 2359TIP3   OH2 7021   0.526   4.367   2.747
 2359TIP3    H1 7022   0.441   4.337   2.717
 2359TIP3    H2 7023   0.509   4.407   2.832
 2360TIP3   OH2 7024   7.468   1.643   5.377
 2360TIP3    H1 7025   7.451   1.603   5.463
 2360TIP3    H2 7026   7.383   1.675   5.348
 2361TIP3   OH2 7027   0.954   1.022   2.160
 2361TIP3    H1 7028   1.013   1.048   2.089
 2361TIP3    H2 7029   0.875   1.074   2.146
 2362TIP3   OH2 7030   2.651   0.639   2.653
 2362TIP3    H1 7031   2.594   0.700   2.607
 2362TIP3    H2 7032   2.721   0.694   2.688
 2363TIP3   OH2 7033   0.838   6.386   1.789
 2363TIP3    H1 7034   0.858   6.292   1.787
 2363TIP3    H2 7035   0.872   6.415   1.874
 2364TIP3   OH2 7036   3.609   3.887   1.923
 2364TIP3    H1 7037   3.689   3.908   1.874
 2364TIP3    H2 7038   3.625   3.922   2.010
 2365TIP3   OH2 7039   5.731   0.806   2.321
 2365TIP3    H1 7040   5.750   0.793   2.414
 2365TIP3    H2 7041   5.654   0.751   2.304
 2366TIP3   OH2 7042   2.119   3.220   5.462
 2366TIP3    H1 7043   2.210   3.192   5.472
 2366TIP3    H2 7044   2.090   3.181   5.380
 2367TIP3   OH2 7045   0.537   5.326   5.809
 2367TIP3    H1 7046   0.601   5.296   5.744
 2367TIP3    H2 7047   0.518   5.247   5.860
 2368TIP3   OH2 7048   7.925   6.781   0.484
 2368TIP3    H1 7049   7.835   6.803   0.505
 2368TIP3    H2 7050   7.927   6.776   0.388
 2369TIP3   OH2 7051   2.873   0.839   4.615
 2369TIP3    H1 7052   2.789   0.853   4.658
 2369TIP3    H2 7053   2.884   0.915   4.559
 2370TIP3   OH2 7054   7.019   3.008   2.194
 2370TIP3    H1 7055   7.019   2.984   2.287
 2370TIP3    H2 7056   6.934   3.050   2.180
 2371TIP3   OH2 7057   4.279   0.655   1.300
 2371TIP3    H1 7058   4.269   0.746   1.330
 2371TIP3    H2 7059   4.236   0.603   1.368
 2372TIP3   OH2 7060   4.278   3.676   0.586
 2372TIP3    H1 7061   4.366   3.705   0.611
 2372TIP3    H2 7062   4.290   3.585   0.561
 2373TIP3   OH2 7063   8.092   4.088   2.968
 2373TIP3    H1 7064   8.094   4.184   2.965
 2373TIP3    H2 7065   8.079   4.062   2.877
 2374TIP3   OH2 7066   8.046   1.920   6.332
 2374TIP3    H1 7067   7.956   1.954   6.330
 2374TIP3    H2 7068   8.058   1.880   6.246
 2375TIP3   OH2 7069   4.352   1.583   5.152
 2375TIP3    H1 7070   4.378   1.647   5.086
 2375TIP3    H2 7071   4.418   1.514   5.147
 2376TIP3   OH2 7072   2.920   2.810   3.197
 2376TIP3    H1 7073   2.967   2.730   3.173
 2376TIP3    H2 7074   2.987   2.868   3.232
 2377TIP3   OH2 7075   4.220   5.310   3.298
 2377TIP3    H1 7076   4.161   5.378   3.264
 2377TIP3    H2 7077   4.231   5.249   3.225
 2378TIP3   OH2 7078   3.843   5.543   3.418
 2378TIP3    H1 7079   3.914   5.499   3.464
 2378TIP3    H2 7080   3.774   5.553   3.484
 2379TIP3   OH2 7081   0.679   4.562   1.046
 2379TIP3    H1 7082   0.644   4.482   1.086
 2379TIP3    H2 7083   0.666   4.550   0.952
 2380TIP3   OH2 7084   4.643   2.997   6.569
 2380TIP3    H1 7085   4.571   3.043   6.526
 2380TIP3    H2 7086   4.662   2.923   6.511
 2381TIP3   OH2 7087   1.853   4.158   1.654
 2381TIP3    H1 7088   1.870   4.183   1.744
 2381TIP3    H2 7089   1.785   4.090   1.660
 2382TIP3   OH2 7090   3.299   2.618   3.656
 2382TIP3    H1 7091   3.281   2.712   3.647
 2382TIP3    H2 7092   3.302   2.604   3.751
 2383TIP3   OH2 7093   4.771   4.409   0.323
 2383TIP3    H1 7094   4.739   4.481   0.269
 2383TIP3    H2 7095   4.803   4.345   0.260
 2384TIP3   OH2 7096   2.958   6.102   0.153
 2384TIP3    H1 7097   2.872   6.136   0.176
 2384TIP3    H2 7098   2.955   6.009   0.177
 2385TIP3   OH2 7099   6.357   2.009   4.594
 2385TIP3    H1 7100   6.265   1.983   4.593
 2385TIP3    H2 7101   6.397   1.956   4.524
 2386TIP3   OH2 7102   4.392   4.381   2.563
 2386TIP3    H1 7103   4.352   4.302   2.600
 2386TIP3    H2 7104   4.328   4.450   2.580
 2387TIP3   OH2 7105   2.367   7.198   3.618
 2387TIP3    H1 7106   2.360   7.252   3.697
 2387TIP3    H2 7107   2.399   7.258   3.551
 2388TIP3   OH2 7108   8.097   1.916   1.175
 2388TIP3    H1 7109   8.148   1.961   1.242
 2388TIP3    H2 7110   8.066   1.986   1.118
 2389TIP3   OH2 7111   5.354   4.950   5.836
 2389TIP3    H1 7112   5.305   5.029   5.816
 2389TIP3    H2 7113   5.446   4.976   5.830
 2390TIP3   OH2 7114   3.364   2.722   4.240
 2390TIP3    H1 7115   3.345   2.661   4.169
 2390TIP3    H2 7116   3.340   2.675   4.320
 2391TIP3   OH2 7117   3.810   3.707   5.346
 2391TIP3    H1 7118   3.747   3.765   5.389
 2391TIP3    H2 7119   3.870   3.767   5.301
 2392TIP3   OH2 7120   7.442   2.927   4.750
 2392TIP3    H1 7121   7.490   2.876   4.685
 2392TIP3    H2 7122   7.350   2.903   4.737
 2393TIP3   OH2 7123   0.918   4.435   5.128
 2393TIP3    H1 7124   0.877   4.520   5.113
 2393TIP3    H2 7125   0.996   4.436   5.073
 2394TIP3   OH2 7126   4.281   2.728   5.506
 2394TIP3    H1 7127   4.376   2.716   5.514
 2394TIP3    H2 7128   4.248   2.641   5.482
 2395TIP3   OH2 7129   6.367   0.548   5.246
 2395TIP3    H1 7130   6.353   0.457   5.221
 2395TIP3    H2 7131   6.291   0.594   5.212
 2396TIP3   OH2 7132   6.967   2.275   0.468
 2396TIP3    H1 7133   6.897   2.219   0.502
 2396TIP3    H2 7134   6.931   2.313   0.388
 2397TIP3   OH2 7135   5.860   3.495   5.644
 2397TIP3    H1 7136   5.790   3.467   5.585
 2397TIP3    H2 7137   5.869   3.422   5.706
 2398TIP3   OH2 7138   6.118   0.975   3.367
 2398TIP3    H1 7139   6.202   1.019   3.377
 2398TIP3    H2 7140   6.128   0.892   3.414
 2399TIP3   OH2 7141   4.995   2.818   5.729
 2399TIP3    H1 7142   4.926   2.884   5.740
 2399TIP3    H2 7143   4.949   2.741   5.696
 2400TIP3   OH2 7144   0.138   5.634   3.644
 2400TIP3    H1 7145   0.066   5.590   3.600
 2400TIP3    H2 7146   0.198   5.563   3.669
 2401TIP3   OH2 7147   6.239   0.289   5.186
 2401TIP3    H1 7148   6.174   0.317   5.251
 2401TIP3    H2 7149   6.189   0.277   5.106
 2402TIP3   OH2 7150   5.357   6.852   2.444
 2402TIP3    H1 7151   5.448   6.854   2.473
 2402TIP3    H2 7152   5.306   6.844   2.525
 2403TIP3   OH2 7153   6.037   0.081   2.295
 2403TIP3    H1 7154   5.996   0.017   2.353
 2403TIP3    H2 7155   6.123   0.097   2.334
 2404TIP3   OH2 7156   7.263   4.872   5.010
 2404TIP3    H1 7157   7.328   4.803   5.001
 2404TIP3    H2 7158   7.307   4.941   5.059
 2405TIP3   OH2 7159   4.491   1.315   0.761
 2405TIP3    H1 7160   4.475   1.258   0.685
 2405TIP3    H2 7161   4.584   1.335   0.756
 2406TIP3   OH2 7162   0.785   6.291   6.565
 2406TIP3    H1 7163   0.697   6.262   6.588
 2406TIP3    H2 7164   0.781   6.308   6.471
 2407TIP3   OH2 7165   1.686   1.985   2.072
 2407TIP3    H1 7166   1.673   2.079   2.082
 2407TIP3    H2 7167   1.779   1.971   2.086
 2408TIP3   OH2 7168   0.664   7.706   3.320
 2408TIP3    H1 7169   0.609   7.775   3.283
 2408TIP3    H2 7170   0.650   7.712   3.414
 2409TIP3   OH2 7171   0.718   4.748   5.717
 2409TIP3    H1 7172   0.639   4.770   5.667
 2409TIP3    H2 7173   0.697   4.665   5.760
 2410TIP3   OH2 7174   5.654   0.559   5.068
 2410TIP3    H1 7175   5.709   0.631   5.036
 2410TIP3    H2 7176   5.626   0.587   5.155
 2411TIP3   OH2 7177   2.991   5.949   1.381
 2411TIP3    H1 7178   2.987   6.044   1.368
 2411TIP3    H2 7179   3.084   5.928   1.375
 2412TIP3   OH2 7180   2.428   0.777   3.147
 2412TIP3    H1 7181   2.382   0.861   3.141
 2412TIP3    H2 7182   2.359   0.714   3.168
 2413TIP3   OH2 7183   7.164   5.535   4.854
 2413TIP3    H1 7184   7.099   5.494   4.796
 2413TIP3    H2 7185   7.244   5.484   4.839
 2414TIP3   OH2 7186   7.388   1.097   1.706
 2414TIP3    H1 7187   7.364   1.186   1.682
 2414TIP3    H2 7188   7.476   1.105   1.744
 2415TIP3   OH2 7189   4.149   1.510   1.872
 2415TIP3    H1 7190   4.116   1.460   1.947
 2415TIP3    H2 7191   4.135   1.602   1.897
 2416TIP3   OH2 7192   0.989   0.915   0.647
 2416TIP3    H1 7193   1.037   0.838   0.678
 2416TIP3    H2 7194   0.948   0.887   0.566
 2417TIP3   OH2 7195   7.686   0.778   6.086
 2417TIP3    H1 7196   7.698   0.873   6.074
 2417TIP3    H2 7197   7.775   0.744   6.092
 2418TIP3   OH2 7198   2.187   0.597   0.529
 2418TIP3    H1 7199   2.147   0.567   0.611
 2418TIP3    H2 7200   2.271   0.550   0.525
 2419TIP3   OH2 7201   4.076   6.231   6.748
 2419TIP3    H1 7202   3.983   6.255   6.751
 2419TIP3    H2 7203   4.111   6.279   6.673
 2420TIP3   OH2 7204   3.887   2.668   2.290
 2420TIP3    H1 7205   3.971   2.636   2.257
 2420TIP3    H2 7206   3.875   2.752   2.247
 2421TIP3   OH2 7207   2.391   4.967   6.122
 2421TIP3    H1 7208   2.304   5.005   6.107
 2421TIP3    H2 7209   2.380   4.914   6.201
 2422TIP3   OH2 7210   2.762   6.460   2.687
 2422TIP3    H1 7211   2.673   6.483   2.715
 2422TIP3    H2 7212   2.797   6.407   2.759
 2423TIP3   OH2 7213   4.816   0.174   6.138
 2423TIP3    H1 7214   4.777   0.222   6.065
 2423TIP3    H2 7215   4.898   0.139   6.103
 2424TIP3   OH2 7216   0.152   0.801   0.846
 2424TIP3    H1 7217   0.141   0.840   0.759
 2424TIP3    H2 7218   0.102   0.858   0.905
 2425TIP3   OH2 7219   4.668   2.764   6.415
 2425TIP3    H1 7220   4.759   2.735   6.403
 2425TIP3    H2 7221   4.639   2.789   6.327
 2426TIP3   OH2 7222   6.912   4.993   4.115
 2426TIP3    H1 7223   6.991   5.019   4.162
 2426TIP3    H2 7224   6.841   5.016   4.175
 2427TIP3   OH2 7225   3.283   0.931   6.749
 2427TIP3    H1 7226   3.229   0.906   6.674
 2427TIP3    H2 7227   3.282   0.855   6.806
 2428TIP3   OH2 7228   5.371   6.875   0.651
 2428TIP3    H1 7229   5.410   6.890   0.738
 2428TIP3    H2 7230   5.324   6.957   0.632
 2429TIP3   OH2 7231   4.186   3.493   6.506
 2429TIP3    H1 7232   4.254   3.456   6.450
 2429TIP3    H2 7233   4.104   3.459   6.471
 2430TIP3   OH2 7234   4.437   2.991   4.426
 2430TIP3    H1 7235   4.503   2.934   4.466
 2430TIP3    H2 7236   4.365   2.933   4.405
 2431TIP3   OH2 7237   0.857   0.559   3.927
 2431TIP3    H1 7238   0.798   0.593   3.994
 2431TIP3    H2 7239   0.848   0.464   3.933
 2432TIP3   OH2 7240   4.039   6.757   6.606
 2432TIP3    H1 7241   4.084   6.705   6.672
 2432TIP3    H2 7242   3.994   6.826   6.655
 2433TIP3   OH2 7243   6.107   2.827   1.026
 2433TIP3    H1 7244   6.183   2.814   0.969
 2433TIP3    H2 7245   6.141   2.876   1.101
 2434TIP3   OH2 7246   7.249   5.825   2.562
 2434TIP3    H1 7247   7.290   5.752   2.515
 2434TIP3    H2 7248   7.226   5.788   2.647
 2435TIP3   OH2 7249   2.665   5.020   0.515
 2435TIP3    H1 7250   2.604   5.048   0.447
 2435TIP3    H2 7251   2.752   5.030   0.476
 2436TIP3   OH2 7252   7.057   2.806   3.959
 2436TIP3    H1 7253   7.068   2.729   3.903
 2436TIP3    H2 7254   6.972   2.843   3.933
 2437TIP3   OH2 7255   6.783   7.597   4.784
 2437TIP3    H1 7256   6.822   7.651   4.716
 2437TIP3    H2 7257   6.814   7.635   4.866
 2438TIP3   OH2 7258   6.479   6.573   2.242
 2438TIP3    H1 7259   6.521   6.655   2.215
 2438TIP3    H2 7260   6.496   6.513   2.169
 2439TIP3   OH2 7261   0.233   3.256   5.956
 2439TIP3    H1 7262   0.267   3.278   6.043
 2439TIP3    H2 7263   0.252   3.334   5.903
 2440TIP3   OH2 7264   7.690   1.172   6.754
 2440TIP3    H1 7265   7.649   1.135   6.676
 2440TIP3    H2 7266   7.782   1.184   6.730
 2441TIP3   OH2 7267   3.673   1.096   3.259
 2441TIP3    H1 7268   3.699   1.018   3.211
 2441TIP3    H2 7269   3.639   1.063   3.342
 2442TIP3   OH2 7270   0.658   0.349   0.789
 2442TIP3    H1 7271   0.711   0.424   0.761
 2442TIP3    H2 7272   0.577   0.357   0.738
 2443TIP3   OH2 7273   1.580   3.062   4.408
 2443TIP3    H1 7274   1.612   3.147   4.380
 2443TIP3    H2 7275   1.640   3.036   4.478
 2444TIP3   OH2 7276   4.082   3.730   6.356
 2444TIP3    H1 7277   4.054   3.783   6.430
 2444TIP3    H2 7278   4.138   3.662   6.394
 2445TIP3   OH2 7279   1.406   6.131   2.966
 2445TIP3    H1 7280   1.449   6.202   2.919
 2445TIP3    H2 7281   1.386   6.168   3.052
 2446TIP3   OH2 7282   4.045   1.118   1.360
 2446TIP3    H1 7283   4.113   1.175   1.324
 2446TIP3    H2 7284   3.966   1.172   1.359
 2447TIP3   OH2 7285   7.733   4.528   6.301
 2447TIP3    H1 7286   7.787   4.480   6.239
 2447TIP3    H2 7287   7.778   4.519   6.385
 2448TIP3   OH2 7288   5.117   3.741   0.240
 2448TIP3    H1 7289   5.110   3.691   0.321
 2448TIP3    H2 7290   5.059   3.695   0.178
 2449TIP3   OH2 7291   4.244   7.129   2.768
 2449TIP3    H1 7292   4.271   7.043   2.735
 2449TIP3    H2 7293   4.241   7.184   2.690
 2450TIP3   OH2 7294   7.375   4.968   5.860
 2450TIP3    H1 7295   7.458   4.930   5.887
 2450TIP3    H2 7296   7.339   4.905   5.798
 2451TIP3   OH2 7297   5.976   4.315   2.954
 2451TIP3    H1 7298   6.038   4.356   3.014
 2451TIP3    H2 7299   5.892   4.354   2.977
 2452TIP3   OH2 7300   1.580   5.447   5.645
 2452TIP3    H1 7301   1.536   5.514   5.592
 2452TIP3    H2 7302   1.673   5.468   5.637
 2453TIP3   OH2 7303   7.797   5.793   0.508
 2453TIP3    H1 7304   7.834   5.853   0.443
 2453TIP3    H2 7305   7.703   5.796   0.492
 2454TIP3   OH2 7306   1.287   3.144   5.219
 2454TIP3    H1 7307   1.342   3.218   5.193
 2454TIP3    H2 7308   1.319   3.071   5.166
 2455TIP3   OH2 7309   1.778   1.334   2.337
 2455TIP3    H1 7310   1.842   1.297   2.398
 2455TIP3    H2 7311   1.829   1.396   2.284
 2456TIP3   OH2 7312   5.355   4.447   5.719
 2456TIP3    H1 7313   5.320   4.523   5.767
 2456TIP3    H2 7314   5.435   4.480   5.678
 2457TIP3   OH2 7315   5.400   1.782   3.483
 2457TIP3    H1 7316   5.351   1.780   3.565
 2457TIP3    H2 7317   5.453   1.862   3.490
 2458TIP3   OH2 7318   5.261   6.263   2.817
 2458TIP3    H1 7319   5.273   6.315   2.897
 2458TIP3    H2 7320   5.350   6.246   2.786
 2459TIP3   OH2 7321   0.659   6.344   3.097
 2459TIP3    H1 7322   0.622   6.337   3.185
 2459TIP3    H2 7323   0.594   6.394   3.048
 2460TIP3   OH2 7324   0.658   4.917   0.457
 2460TIP3    H1 7325   0.719   4.986   0.485
 2460TIP3    H2 7326   0.677   4.843   0.515
 2461TIP3   OH2 7327   4.410   3.460   2.658
 2461TIP3    H1 7328   4.332   3.515   2.658
 2461TIP3    H2 7329   4.442   3.464   2.749
 2462TIP3   OH2 7330   3.870   4.692   3.994
 2462TIP3    H1 7331   3.908   4.777   4.016
 2462TIP3    H2 7332   3.885   4.683   3.900
 2463TIP3   OH2 7333   3.119   1.809   0.914
 2463TIP3    H1 7334   3.137   1.807   0.820
 2463TIP3    H2 7335   3.198   1.848   0.952
 2464TIP3   OH2 7336   5.551   6.945   5.326
 2464TIP3    H1 7337   5.591   7.020   5.282
 2464TIP3    H2 7338   5.476   6.922   5.271
 2465TIP3   OH2 7339   6.915   6.845   1.600
 2465TIP3    H1 7340   6.979   6.913   1.623
 2465TIP3    H2 7341   6.830   6.889   1.606
 2466TIP3   OH2 7342   3.287   7.593   4.774
 2466TIP3    H1 7343   3.336   7.541   4.838
 2466TIP3    H2 7344   3.346   7.600   4.699
 2467TIP3   OH2 7345   4.563   3.910   5.719
 2467TIP3    H1 7346   4.469   3.906   5.707
 2467TIP3    H2 7347   4.585   4.003   5.713
 2468TIP3   OH2 7348   7.172   6.934   1.931
 2468TIP3    H1 7349   7.188   6.866   1.865
 2468TIP3    H2 7350   7.117   6.891   1.996
 2469TIP3   OH2 7351   6.216   3.823   0.244
 2469TIP3    H1 7352   6.129   3.842   0.279
 2469TIP3    H2 7353   6.217   3.861   0.157
 2470TIP3   OH2 7354   2.071   4.091   4.541
 2470TIP3    H1 7355   2.165   4.101   4.529
 2470TIP3    H2 7356   2.052   4.002   4.513
 2471TIP3   OH2 7357   3.558   1.159   5.195
 2471TIP3    H1 7358   3.648   1.175   5.223
 2471TIP3    H2 7359   3.543   1.221   5.123
 2472TIP3   OH2 7360   3.171   6.643   6.579
 2472TIP3    H1 7361   3.088   6.691   6.583
 2472TIP3    H2 7362   3.154   6.572   6.517
 2473TIP3   OH2 7363   1.446   0.441   0.982
 2473TIP3    H1 7364   1.499   0.512   0.945
 2473TIP3    H2 7365   1.374   0.485   1.027
 2474TIP3   OH2 7366   4.747   3.071   3.695
 2474TIP3    H1 7367   4.767   2.977   3.692
 2474TIP3    H2 7368   4.679   3.078   3.762
 2475TIP3   OH2 7369   2.955   1.586   6.662
 2475TIP3    H1 7370   2.891   1.635   6.713
 2475TIP3    H2 7371   3.007   1.653   6.616
 2476TIP3   OH2 7372   3.171   6.207   4.633
 2476TIP3    H1 7373   3.146   6.255   4.554
 2476TIP3    H2 7374   3.158   6.269   4.705
 2477TIP3   OH2 7375   0.047   4.052   1.586
 2477TIP3    H1 7376   0.001   3.974   1.617
 2477TIP3    H2 7377   0.085   4.091   1.665
 2478TIP3   OH2 7378   2.031   4.670   1.279
 2478TIP3    H1 7379   2.080   4.727   1.338
 2478TIP3    H2 7380   1.967   4.728   1.237
 2479TIP3   OH2 7381   4.605   6.807   4.465
 2479TIP3    H1 7382   4.657   6.826   4.543
 2479TIP3    H2 7383   4.657   6.742   4.417
 2480TIP3   OH2 7384   8.160   0.928   3.449
 2480TIP3    H1 7385   8.098   0.951   3.518
 2480TIP3    H2 7386   8.236   0.984   3.465
 2481TIP3   OH2 7387   2.207   2.388   3.055
 2481TIP3    H1 7388   2.224   2.325   2.985
 2481TIP3    H2 7389   2.137   2.444   3.021
 2482TIP3   OH2 7390   1.567   6.605   2.182
 2482TIP3    H1 7391   1.620   6.539   2.138
 2482TIP3    H2 7392   1.618   6.627   2.260
 2483TIP3   OH2 7393   4.623   2.788   2.348
 2483TIP3    H1 7394   4.660   2.807   2.434
 2483TIP3    H2 7395   4.681   2.833   2.287
 2484TIP3   OH2 7396   2.307   0.965   6.037
 2484TIP3    H1 7397   2.320   1.012   5.955
 2484TIP3    H2 7398   2.387   0.914   6.049
 2485TIP3   OH2 7399   6.440   0.742   0.680
 2485TIP3    H1 7400   6.457   0.675   0.747
 2485TIP3    H2 7401   6.516   0.738   0.622
 2486TIP3   OH2 7402   8.221   6.497   6.320
 2486TIP3    H1 7403   8.128   6.493   6.300
 2486TIP3    H2 7404   8.245   6.589   6.306
 2487TIP3   OH2 7405   5.517   2.554   2.665
 2487TIP3    H1 7406   5.503   2.639   2.623
 2487TIP3    H2 7407   5.612   2.543   2.666
 2488TIP3   OH2 7408   0.447   5.988   4.709
 2488TIP3    H1 7409   0.379   5.982   4.776
 2488TIP3    H2 7410   0.426   5.919   4.646
 2489TIP3   OH2 7411   4.950   2.156   6.130
 2489TIP3    H1 7412   4.923   2.201   6.210
 2489TIP3    H2 7413   4.901   2.199   6.060
 2490TIP3   OH2 7414   4.831   6.119   2.617
 2490TIP3    H1 7415   4.895   6.177   2.659
 2490TIP3    H2 7416   4.832   6.040   2.671
 2491TIP3   OH2 7417   5.289   7.795   5.735
 2491TIP3    H1 7418   5.321   7.710   5.766
 2491TIP3    H2 7419   5.335   7.859   5.789
 2492TIP3   OH2 7420   0.262   2.313   0.299
 2492TIP3    H1 7421   0.305   2.229   0.285
 2492TIP3    H2 7422   0.201   2.321   0.226
 2493TIP3   OH2 7423   1.602   4.331   4.188
 2493TIP3    H1 7424   1.587   4.355   4.280
 2493TIP3    H2 7425   1.650   4.405   4.152
 2494TIP3   OH2 7426   3.605   2.253   5.908
 2494TIP3    H1 7427   3.554   2.277   5.830
 2494TIP3    H2 7428   3.549   2.191   5.955
 2495TIP3   OH2 7429   7.189   0.030   3.487
 2495TIP3    H1 7430   7.153  -0.058   3.498
 2495TIP3    H2 7431   7.152   0.062   3.405
 2496TIP3   OH2 7432   3.101   3.834   1.669
 2496TIP3    H1 7433   3.074   3.901   1.732
 2496TIP3    H2 7434   3.072   3.751   1.709
 2497TIP3   OH2 7435   7.506   6.382   1.116
 2497TIP3    H1 7436   7.442   6.438   1.072
 2497TIP3    H2 7437   7.580   6.378   1.056
 2498TIP3   OH2 7438   6.634   7.444   5.164
 2498TIP3    H1 7439   6.630   7.352   5.137
 2498TIP3    H2 7440   6.552   7.481   5.134
 2499TIP3   OH2 7441   1.309   0.215   5.844
 2499TIP3    H1 7442   1.386   0.255   5.803
 2499TIP3    H2 7443   1.253   0.289   5.867
 2500TIP3   OH2 7444   5.216   6.126   2.548
 2500TIP3    H1 7445   5.218   6.206   2.496
 2500TIP3    H2 7446   5.196   6.155   2.637
 2501TIP3   OH2 7447   6.635   6.488   5.680
 2501TIP3    H1 7448   6.651   6.394   5.683
 2501TIP3    H2 7449   6.715   6.527   5.715
 2502TIP3   OH2 7450   5.368   1.226   5.881
 2502TIP3    H1 7451   5.291   1.281   5.869
 2502TIP3    H2 7452   5.431   1.282   5.926
 2503TIP3   OH2 7453   7.833   2.657   3.565
 2503TIP3    H1 7454   7.738   2.651   3.558
 2503TIP3    H2 7455   7.857   2.727   3.505
 2504TIP3   OH2 7456   6.579   2.302   0.408
 2504TIP3    H1 7457   6.505   2.247   0.384
 2504TIP3    H2 7458   6.589   2.362   0.335
 2505TIP3   OH2 7459   8.273   5.883   5.501
 2505TIP3    H1 7460   8.186   5.893   5.462
 2505TIP3    H2 7461   8.257   5.886   5.595
 2506TIP3   OH2 7462   1.559   4.891   6.119
 2506TIP3    H1 7463   1.586   4.982   6.114
 2506TIP3    H2 7464   1.488   4.890   6.184
 2507TIP3   OH2 7465   2.730   2.309   2.655
 2507TIP3    H1 7466   2.724   2.306   2.750
 2507TIP3    H2 7467   2.787   2.235   2.632
 2508TIP3   OH2 7468   1.662   6.419   0.019
 2508TIP3    H1 7469   1.735   6.367   0.054
 2508TIP3    H2 7470   1.584   6.367   0.038
 2509TIP3   OH2 7471   3.501   2.065   4.984
 2509TIP3    H1 7472   3.488   1.971   4.993
 2509TIP3    H2 7473   3.595   2.078   5.001
 2510TIP3   OH2 7474   2.049   7.023   6.064
 2510TIP3    H1 7475   2.077   7.048   6.152
 2510TIP3    H2 7476   2.016   6.933   6.074
 2511TIP3   OH2 7477   2.534   3.408   6.343
 2511TIP3    H1 7478   2.560   3.433   6.255
 2511TIP3    H2 7479   2.556   3.315   6.348
 2512TIP3   OH2 7480   4.595   5.695   0.450
 2512TIP3    H1 7481   4.598   5.684   0.545
 2512TIP3    H2 7482   4.558   5.782   0.436
 2513TIP3   OH2 7483   6.692   2.673   3.546
 2513TIP3    H1 7484   6.737   2.598   3.584
 2513TIP3    H2 7485   6.626   2.634   3.488
 2514TIP3   OH2 7486   6.184   3.275   4.186
 2514TIP3    H1 7487   6.234   3.249   4.264
 2514TIP3    H2 7488   6.238   3.244   4.113
 2515TIP3   OH2 7489   6.034   2.946   4.067
 2515TIP3    H1 7490   6.048   2.904   3.983
 2515TIP3    H2 7491   6.121   2.973   4.096
 2516TIP3   OH2 7492   6.419   2.041   6.602
 2516TIP3    H1 7493   6.392   1.949   6.597
 2516TIP3    H2 7494   6.339   2.090   6.618
 2517TIP3   OH2 7495   3.673   6.086   2.318
 2517TIP3    H1 7496   3.669   6.165   2.264
 2517TIP3    H2 7497   3.767   6.073   2.334
 2518TIP3   OH2 7498   1.801   5.537   0.659
 2518TIP3    H1 7499   1.746   5.515   0.583
 2518TIP3    H2 7500   1.868   5.595   0.624
 2519TIP3   OH2 7501   7.917   3.666   5.036
 2519TIP3    H1 7502   7.884   3.580   5.012
 2519TIP3    H2 7503   7.838   3.720   5.044
 2520TIP3   OH2 7504   4.817   4.171   1.949
 2520TIP3    H1 7505   4.820   4.263   1.924
 2520TIP3    H2 7506   4.727   4.157   1.980
 2521TIP3   OH2 7507   8.177   7.540   5.188
 2521TIP3    H1 7508   8.138   7.456   5.166
 2521TIP3    H2 7509   8.257   7.543   5.136
 2522TIP3   OH2 7510   6.346   0.770   2.366
 2522TIP3    H1 7511   6.396   0.841   2.326
 2522TIP3    H2 7512   6.414   0.711   2.400
 2523TIP3   OH2 7513   8.230   6.765   6.363
 2523TIP3    H1 7514   8.187   6.843   6.328
 2523TIP3    H2 7515   8.314   6.797   6.397
 2524TIP3   OH2 7516   2.446   0.359   6.590
 2524TIP3    H1 7517   2.519   0.339   6.532
 2524TIP3    H2 7518   2.465   0.447   6.623
 2525TIP3   OH2 7519   3.510   6.837   1.110
 2525TIP3    H1 7520   3.424   6.825   1.151
 2525TIP3    H2 7521   3.562   6.764   1.142
 2526TIP3   OH2 7522   3.665   3.463   1.255
 2526TIP3    H1 7523   3.658   3.382   1.204
 2526TIP3    H2 7524   3.587   3.513   1.231
 2527TIP3   OH2 7525   7.423   2.175   2.531
 2527TIP3    H1 7526   7.356   2.169   2.599
 2527TIP3    H2 7527   7.376   2.207   2.454
 2528TIP3   OH2 7528   4.492   5.815   3.162
 2528TIP3    H1 7529   4.460   5.727   3.147
 2528TIP3    H2 7530   4.569   5.803   3.218
 2529TIP3   OH2 7531   4.463   0.721   0.762
 2529TIP3    H1 7532   4.418   0.653   0.712
 2529TIP3    H2 7533   4.524   0.674   0.818
 2530TIP3   OH2 7534   1.868   7.481   1.809
 2530TIP3    H1 7535   1.836   7.401   1.767
 2530TIP3    H2 7536   1.834   7.475   1.899
 2531TIP3   OH2 7537   8.279   4.838   6.263
 2531TIP3    H1 7538   8.325   4.921   6.275
 2531TIP3    H2 7539   8.229   4.851   6.182
 2532TIP3   OH2 7540   4.599   6.893   0.391
 2532TIP3    H1 7541   4.616   6.924   0.479
 2532TIP3    H2 7542   4.683   6.857   0.362
 2533TIP3   OH2 7543   4.489   5.077   0.359
 2533TIP3    H1 7544   4.404   5.055   0.320
 2533TIP3    H2 7545   4.478   5.167   0.389
 2534TIP3   OH2 7546   6.819   1.903   6.647
 2534TIP3    H1 7547   6.904   1.873   6.613
 2534TIP3    H2 7548   6.758   1.832   6.624
 2535TIP3   OH2 7549   0.291   5.494   1.345
 2535TIP3    H1 7550   0.226   5.565   1.348
 2535TIP3    H2 7551   0.333   5.497   1.430
 2536TIP3   OH2 7552   1.570   3.164   5.850
 2536TIP3    H1 7553   1.558   3.253   5.815
 2536TIP3    H2 7554   1.547   3.172   5.943
 2537TIP3   OH2 7555   7.557   5.175   3.250
 2537TIP3    H1 7556   7.629   5.235   3.230
 2537TIP3    H2 7557   7.583   5.092   3.211
 2538TIP3   OH2 7558   0.123   3.537   2.767
 2538TIP3    H1 7559   0.168   3.491   2.838
 2538TIP3    H2 7560   0.056   3.589   2.812
 2539TIP3   OH2 7561   2.593   6.294   1.010
 2539TIP3    H1 7562   2.612   6.219   0.953
 2539TIP3    H2 7563   2.517   6.267   1.061
 2540TIP3   OH2 7564   5.369   3.979   1.323
 2540TIP3    H1 7565   5.295   4.009   1.271
 2540TIP3    H2 7566   5.331   3.924   1.391
 2541TIP3   OH2 7567   1.739   6.774   1.746
 2541TIP3    H1 7568   1.797   6.845   1.718
 2541TIP3    H2 7569   1.749   6.771   1.841
 2542TIP3   OH2 7570   5.299   7.211   2.502
 2542TIP3    H1 7571   5.217   7.164   2.514
 2542TIP3    H2 7572   5.301   7.232   2.408
 2543TIP3   OH2 7573   4.793   0.052   2.571
 2543TIP3    H1 7574   4.843  -0.017   2.615
 2543TIP3    H2 7575   4.730   0.081   2.636
 2544TIP3   OH2 7576   1.440   6.164   3.966
 2544TIP3    H1 7577   1.363   6.116   3.935
 2544TIP3    H2 7578   1.432   6.164   4.061
 2545TIP3   OH2 7579   5.079   0.005   2.193
 2545TIP3    H1 7580   5.136   0.047   2.258
 2545TIP3    H2 7581   4.991   0.036   2.215
 2546TIP3   OH2 7582   6.637   0.801  -0.019
 2546TIP3    H1 7583   6.591   0.727   0.021
 2546TIP3    H2 7584   6.572   0.872  -0.020
 2547TIP3   OH2 7585   2.180   0.434   6.583
 2547TIP3    H1 7586   2.271   0.407   6.585
 2547TIP3    H2 7587   2.131   0.354   6.602
 2548TIP3   OH2 7588   2.365   2.556   0.906
 2548TIP3    H1 7589   2.446   2.584   0.864
 2548TIP3    H2 7590   2.297   2.609   0.866
 2549TIP3   OH2 7591   4.232   5.352   2.355
 2549TIP3    H1 7592   4.254   5.347   2.448
 2549TIP3    H2 7593   4.305   5.400   2.315
 2550TIP3   OH2 7594   6.756   1.217   5.359
 2550TIP3    H1 7595   6.777   1.291   5.302
 2550TIP3    H2 7596   6.772   1.249   5.447
 2551TIP3   OH2 7597   4.808   5.266   3.533
 2551TIP3    H1 7598   4.760   5.185   3.546
 2551TIP3    H2 7599   4.854   5.253   3.450
 2552TIP3   OH2 7600   3.217   7.423   2.000
 2552TIP3    H1 7601   3.154   7.350   2.000
 2552TIP3    H2 7602   3.187   7.481   1.930
 2553TIP3   OH2 7603   6.212   1.416   4.666
 2553TIP3    H1 7604   6.278   1.455   4.609
 2553TIP3    H2 7605   6.128   1.445   4.629
 2554TIP3   OH2 7606   2.793   0.312   3.805
 2554TIP3    H1 7607   2.839   0.272   3.879
 2554TIP3    H2 7608   2.776   0.402   3.834
 2555TIP3   OH2 7609   2.216   7.294   4.938
 2555TIP3    H1 7610   2.153   7.235   4.980
 2555TIP3    H2 7611   2.182   7.305   4.849
 2556TIP3   OH2 7612   7.399   5.053   0.386
 2556TIP3    H1 7613   7.481   5.041   0.433
 2556TIP3    H2 7614   7.426   5.081   0.298
 2557TIP3   OH2 7615   0.774   7.692   1.310
 2557TIP3    H1 7616   0.769   7.787   1.321
 2557TIP3    H2 7617   0.690   7.667   1.272
 2558TIP3   OH2 7618   7.054   1.842   6.522
 2558TIP3    H1 7619   7.126   1.906   6.520
 2558TIP3    H2 7620   7.056   1.802   6.435
 2559TIP3   OH2 7621   7.083   2.248   3.294
 2559TIP3    H1 7622   7.040   2.328   3.322
 2559TIP3    H2 7623   7.013   2.195   3.257
 2560TIP3   OH2 7624   6.891   4.478   5.621
 2560TIP3    H1 7625   6.924   4.556   5.576
 2560TIP3    H2 7626   6.832   4.514   5.688
 2561TIP3   OH2 7627   4.127   4.915   4.897
 2561TIP3    H1 7628   4.197   4.855   4.920
 2561TIP3    H2 7629   4.077   4.925   4.978
 2562TIP3   OH2 7630   7.976   4.245   5.629
 2562TIP3    H1 7631   7.982   4.222   5.722
 2562TIP3    H2 7632   8.067   4.247   5.600
 2563TIP3   OH2 7633   0.346   3.776   4.880
 2563TIP3    H1 7634   0.295   3.812   4.953
 2563TIP3    H2 7635   0.394   3.703   4.919
 2564TIP3   OH2 7636   5.316   4.737   6.171
 2564TIP3    H1 7637   5.272   4.651   6.172
 2564TIP3    H2 7638   5.402   4.719   6.133
 2565TIP3   OH2 7639   3.333   5.301   0.362
 2565TIP3    H1 7640   3.413   5.296   0.413
 2565TIP3    H2 7641   3.344   5.379   0.307
 2566TIP3   OH2 7642   2.405   2.145   1.909
 2566TIP3    H1 7643   2.315   2.173   1.927
 2566TIP3    H2 7644   2.397   2.051   1.893
 2567TIP3   OH2 7645   6.528   7.016   1.452
 2567TIP3    H1 7646   6.614   7.021   1.411
 2567TIP3    H2 7647   6.480   7.091   1.418
 2568TIP3   OH2 7648   4.245   3.064   2.118
 2568TIP3    H1 7649   4.282   3.101   2.198
 2568TIP3    H2 7650   4.151   3.084   2.123
 2569TIP3   OH2 7651   6.498   3.980   1.028
 2569TIP3    H1 7652   6.517   3.907   0.968
 2569TIP3    H2 7653   6.466   3.937   1.108
 2570TIP3   OH2 7654   6.797   0.038   5.080
 2570TIP3    H1 7655   6.859   0.017   5.150
 2570TIP3    H2 7656   6.742   0.107   5.117
 2571TIP3   OH2 7657   7.787   4.863   3.447
 2571TIP3    H1 7658   7.856   4.824   3.393
 2571TIP3    H2 7659   7.722   4.894   3.385
 2572TIP3   OH2 7660   0.900   3.783   5.879
 2572TIP3    H1 7661   0.940   3.714   5.826
 2572TIP3    H2 7662   0.806   3.768   5.870
 2573TIP3   OH2 7663   1.565   4.382   1.335
 2573TIP3    H1 7664   1.609   4.450   1.282
 2573TIP3    H2 7665   1.519   4.328   1.270
 2574TIP3   OH2 7666   2.720   2.408   5.369
 2574TIP3    H1 7667   2.649   2.367   5.318
 2574TIP3    H2 7668   2.725   2.355   5.449
 2575TIP3   OH2 7669   0.992   6.814   5.944
 2575TIP3    H1 7670   0.959   6.755   6.012
 2575TIP3    H2 7671   0.914   6.841   5.896
 2576TIP3   OH2 7672   2.248   5.282   0.903
 2576TIP3    H1 7673   2.180   5.318   0.847
 2576TIP3    H2 7674   2.281   5.357   0.953
 2577TIP3   OH2 7675   2.004   4.501   3.085
 2577TIP3    H1 7676   2.004   4.539   3.173
 2577TIP3    H2 7677   1.911   4.489   3.064
 2578TIP3   OH2 7678   4.394   4.485   3.864
 2578TIP3    H1 7679   4.349   4.513   3.785
 2578TIP3    H2 7680   4.443   4.562   3.893
 2579TIP3   OH2 7681   8.087   2.647   0.315
 2579TIP3    H1 7682   8.020   2.661   0.248
 2579TIP3    H2 7683   8.155   2.713   0.296
 2580TIP3   OH2 7684   2.467   2.335   0.217
 2580TIP3    H1 7685   2.494   2.318   0.307
 2580TIP3    H2 7686   2.372   2.335   0.220
 2581TIP3   OH2 7687   6.064   3.278   3.854
 2581TIP3    H1 7688   6.160   3.278   3.851
 2581TIP3    H2 7689   6.038   3.354   3.803
 2582TIP3   OH2 7690   0.954   6.869   2.468
 2582TIP3    H1 7691   0.889   6.821   2.518
 2582TIP3    H2 7692   0.996   6.803   2.412
 2583TIP3   OH2 7693   5.015   4.015   0.922
 2583TIP3    H1 7694   5.064   4.039   1.000
 2583TIP3    H2 7695   5.024   4.090   0.863
 2584TIP3   OH2 7696   3.028   3.416   4.495
 2584TIP3    H1 7697   3.066   3.435   4.580
 2584TIP3    H2 7698   3.078   3.470   4.434
 2585TIP3   OH2 7699   2.636   5.164   1.434
 2585TIP3    H1 7700   2.701   5.214   1.384
 2585TIP3    H2 7701   2.683   5.136   1.512
 2586TIP3   OH2 7702   3.264   0.969   1.082
 2586TIP3    H1 7703   3.275   0.936   1.171
 2586TIP3    H2 7704   3.190   0.919   1.047
 2587TIP3   OH2 7705   6.940   2.880   1.146
 2587TIP3    H1 7706   6.953   2.912   1.057
 2587TIP3    H2 7707   6.896   2.795   1.135
 2588TIP3   OH2 7708   1.203   2.583   5.010
 2588TIP3    H1 7709   1.137   2.517   5.031
 2588TIP3    H2 7710   1.283   2.552   5.054
 2589TIP3   OH2 7711   5.374   3.699   0.157
 2589TIP3    H1 7712   5.283   3.706   0.188
 2589TIP3    H2 7713   5.395   3.788   0.129
 2590TIP3   OH2 7714   2.006   6.616   2.980
 2590TIP3    H1 7715   2.044   6.685   2.926
 2590TIP3    H2 7716   1.914   6.643   2.991
 2591TIP3   OH2 7717   2.501   3.753   1.146
 2591TIP3    H1 7718   2.459   3.667   1.140
 2591TIP3    H2 7719   2.437   3.814   1.112
 2592TIP3   OH2 7720   3.471   4.850   1.785
 2592TIP3    H1 7721   3.515   4.793   1.723
 2592TIP3    H2 7722   3.538   4.871   1.850
 2593TIP3   OH2 7723   3.510   3.016   3.928
 2593TIP3    H1 7724   3.459   3.081   3.878
 2593TIP3    H2 7725   3.445   2.972   3.982
 2594TIP3   OH2 7726   7.762   2.966   2.405
 2594TIP3    H1 7727   7.853   2.995   2.398
 2594TIP3    H2 7728   7.726   2.976   2.317
 2595TIP3   OH2 7729   0.759   6.393   6.286
 2595TIP3    H1 7730   0.705   6.447   6.228
 2595TIP3    H2 7731   0.730   6.304   6.269
 2596TIP3   OH2 7732   5.622   2.228   6.100
 2596TIP3    H1 7733   5.638   2.161   6.033
 2596TIP3    H2 7734   5.572   2.182   6.168
 2597TIP3   OH2 7735   2.597   3.655   6.489
 2597TIP3    H1 7736   2.654   3.611   6.552
 2597TIP3    H2 7737   2.591   3.594   6.416
 2598TIP3   OH2 7738   7.816   3.056   3.570
 2598TIP3    H1 7739   7.788   3.021   3.654
 2598TIP3    H2 7740   7.854   2.981   3.524
 2599TIP3   OH2 7741   4.749   6.958   3.800
 2599TIP3    H1 7742   4.738   7.019   3.727
 2599TIP3    H2 7743   4.665   6.912   3.805
 2600TIP3   OH2 7744   2.948   2.519   0.669
 2600TIP3    H1 7745   2.969   2.451   0.606
 2600TIP3    H2 7746   2.974   2.601   0.626
 2601TIP3   OH2 7747   3.911   1.076   5.807
 2601TIP3    H1 7748   3.837   1.017   5.792
 2601TIP3    H2 7749   3.955   1.041   5.884
 2602TIP3   OH2 7750   6.617   2.997   3.734
 2602TIP3    H1 7751   6.583   3.023   3.648
 2602TIP3    H2 7752   6.581   2.909   3.748
 2603TIP3   OH2 7753   4.717   5.083   4.176
 2603TIP3    H1 7754   4.719   5.089   4.080
 2603TIP3    H2 7755   4.790   5.026   4.198
 2604TIP3   OH2 7756   7.112   2.222   1.953
 2604TIP3    H1 7757   7.082   2.312   1.938
 2604TIP3    H2 7758   7.108   2.210   2.048
 2605TIP3   OH2 7759   7.384   5.056   5.175
 2605TIP3    H1 7760   7.315   5.067   5.241
 2605TIP3    H2 7761   7.462   5.095   5.216
 2606TIP3   OH2 7762   2.331   7.070   4.774
 2606TIP3    H1 7763   2.396   7.031   4.716
 2606TIP3    H2 7764   2.301   6.998   4.830
 2607TIP3   OH2 7765   7.868   3.306   2.361
 2607TIP3    H1 7766   7.954   3.343   2.384
 2607TIP3    H2 7767   7.815   3.382   2.337
 2608TIP3   OH2 7768   6.930   4.599   0.132
 2608TIP3    H1 7769   7.005   4.623   0.187
 2608TIP3    H2 7770   6.880   4.537   0.185
 2609TIP3   OH2 7771   2.288   3.350   5.684
 2609TIP3    H1 7772   2.298   3.262   5.646
 2609TIP3    H2 7773   2.333   3.344   5.769
 2610TIP3   OH2 7774   1.707   1.821   4.746
 2610TIP3    H1 7775   1.782   1.881   4.750
 2610TIP3    H2 7776   1.665   1.828   4.831
 2611TIP3   OH2 7777   7.418   3.811   6.571
 2611TIP3    H1 7778   7.400   3.858   6.490
 2611TIP3    H2 7779   7.495   3.758   6.552
 2612TIP3   OH2 7780   1.860   1.905   4.054
 2612TIP3    H1 7781   1.874   1.875   3.964
 2612TIP3    H2 7782   1.777   1.864   4.080
 2613TIP3   OH2 7783   2.400   7.801   2.920
 2613TIP3    H1 7784   2.469   7.841   2.867
 2613TIP3    H2 7785   2.445   7.736   2.975
 2614TIP3   OH2 7786   5.938   0.960   4.638
 2614TIP3    H1 7787   5.949   0.984   4.546
 2614TIP3    H2 7788   5.992   1.023   4.686
 2615TIP3   OH2 7789   4.789   0.232   3.747
 2615TIP3    H1 7790   4.810   0.177   3.672
 2615TIP3    H2 7791   4.818   0.182   3.823
 2616TIP3   OH2 7792   7.529   0.320   0.186
 2616TIP3    H1 7793   7.526   0.278   0.272
 2616TIP3    H2 7794   7.526   0.247   0.124
 2617TIP3   OH2 7795   3.502   3.959   2.659
 2617TIP3    H1 7796   3.597   3.960   2.650
 2617TIP3    H2 7797   3.472   3.903   2.587
 2618TIP3   OH2 7798   7.094   0.444   1.430
 2618TIP3    H1 7799   7.178   0.485   1.447
 2618TIP3    H2 7800   7.031   0.494   1.482
 2619TIP3   OH2 7801   7.412   7.398   0.777
 2619TIP3    H1 7802   7.340   7.354   0.733
 2619TIP3    H2 7803   7.375   7.428   0.860
 2620TIP3   OH2 7804   7.712   6.289   0.475
 2620TIP3    H1 7805   7.764   6.268   0.552
 2620TIP3    H2 7806   7.674   6.206   0.448
 2621TIP3   OH2 7807   7.690   5.766   5.084
 2621TIP3    H1 7808   7.725   5.707   5.152
 2621TIP3    H2 7809   7.743   5.845   5.093
 2622TIP3   OH2 7810   1.463   5.119   0.305
 2622TIP3    H1 7811   1.475   5.035   0.349
 2622TIP3    H2 7812   1.495   5.105   0.216
 2623TIP3   OH2 7813   8.023   3.341   4.736
 2623TIP3    H1 7814   7.940   3.337   4.784
 2623TIP3    H2 7815   8.009   3.407   4.669
 2624TIP3   OH2 7816   5.480   0.603   1.364
 2624TIP3    H1 7817   5.452   0.629   1.452
 2624TIP3    H2 7818   5.461   0.678   1.309
 2625TIP3   OH2 7819   2.508   6.576   3.947
 2625TIP3    H1 7820   2.537   6.552   4.035
 2625TIP3    H2 7821   2.488   6.493   3.904
 2626TIP3   OH2 7822   7.658   3.845   3.250
 2626TIP3    H1 7823   7.712   3.845   3.171
 2626TIP3    H2 7824   7.577   3.802   3.223
 2627TIP3   OH2 7825   1.205   3.360   6.307
 2627TIP3    H1 7826   1.120   3.319   6.324
 2627TIP3    H2 7827   1.246   3.366   6.394
 2628TIP3   OH2 7828   6.921   3.960   3.422
 2628TIP3    H1 7829   6.950   4.050   3.435
 2628TIP3    H2 7830   6.918   3.923   3.510
 2629TIP3   OH2 7831   7.041   0.173   1.914
 2629TIP3    H1 7832   7.136   0.161   1.910
 2629TIP3    H2 7833   7.009   0.091   1.952
 2630TIP3   OH2 7834   3.543   4.453   6.300
 2630TIP3    H1 7835   3.497   4.536   6.317
 2630TIP3    H2 7836   3.476   4.386   6.311
 2631TIP3   OH2 7837   1.462   4.202   0.913
 2631TIP3    H1 7838   1.420   4.267   0.969
 2631TIP3    H2 7839   1.511   4.254   0.849
 2632TIP3   OH2 7840   1.732   6.624   0.736
 2632TIP3    H1 7841   1.795   6.679   0.688
 2632TIP3    H2 7842   1.650   6.633   0.687
 2633TIP3   OH2 7843   6.313   6.453   4.914
 2633TIP3    H1 7844   6.354   6.395   4.979
 2633TIP3    H2 7845   6.240   6.401   4.878
 2634TIP3   OH2 7846   5.561   4.643   4.228
 2634TIP3    H1 7847   5.553   4.699   4.150
 2634TIP3    H2 7848   5.472   4.609   4.242
 2635TIP3   OH2 7849   4.254   7.543   2.698
 2635TIP3    H1 7850   4.242   7.466   2.644
 2635TIP3    H2 7851   4.283   7.509   2.783
 2636TIP3   OH2 7852   6.414   6.640   5.744
 2636TIP3    H1 7853   6.419   6.736   5.740
 2636TIP3    H2 7854   6.506   6.612   5.746
 2637TIP3   OH2 7855   3.187   0.580   1.543
 2637TIP3    H1 7856   3.263   0.547   1.592
 2637TIP3    H2 7857   3.137   0.629   1.608
 2638TIP3   OH2 7858   1.865   7.579   4.452
 2638TIP3    H1 7859   1.885   7.487   4.464
 2638TIP3    H2 7860   1.794   7.580   4.388
 2639TIP3   OH2 7861   2.794   3.666   5.303
 2639TIP3    H1 7862   2.777   3.746   5.255
 2639TIP3    H2 7863   2.742   3.673   5.383
 2640TIP3   OH2 7864   4.186   0.498   1.498
 2640TIP3    H1 7865   4.113   0.525   1.554
 2640TIP3    H2 7866   4.147   0.437   1.436
 2641TIP3   OH2 7867   5.625   2.020   3.201
 2641TIP3    H1 7868   5.613   2.063   3.117
 2641TIP3    H2 7869   5.716   2.038   3.225
 2642TIP3   OH2 7870   7.091   5.359   1.026
 2642TIP3    H1 7871   7.042   5.433   0.991
 2642TIP3    H2 7872   7.093   5.295   0.955
 2643TIP3   OH2 7873   3.017   5.026   2.625
 2643TIP3    H1 7874   2.947   4.960   2.626
 2643TIP3    H2 7875   3.021   5.055   2.534
 2644TIP3   OH2 7876   1.598   7.761   5.591
 2644TIP3    H1 7877   1.687   7.726   5.599
 2644TIP3    H2 7878   1.604   7.850   5.625
 2645TIP3   OH2 7879   3.651   2.353   3.961
 2645TIP3    H1 7880   3.686   2.426   3.910
 2645TIP3    H2 7881   3.604   2.395   4.033
 2646TIP3   OH2 7882   3.033   3.625   2.883
 2646TIP3    H1 7883   2.974   3.610   2.957
 2646TIP3    H2 7884   3.090   3.696   2.911
 2647TIP3   OH2 7885   1.874   7.149   3.931
 2647TIP3    H1 7886   1.849   7.227   3.881
 2647TIP3    H2 7887   1.920   7.094   3.868
 2648TIP3   OH2 7888   0.080   4.703   5.583
 2648TIP3    H1 7889   0.018   4.698   5.511
 2648TIP3    H2 7890   0.139   4.628   5.569
 2649TIP3   OH2 7891   0.546   7.184   5.772
 2649TIP3    H1 7892   0.454   7.198   5.750
 2649TIP3    H2 7893   0.593   7.250   5.721
 2650TIP3   OH2 7894   3.660   7.172   4.022
 2650TIP3    H1 7895   3.609   7.103   3.979
 2650TIP3    H2 7896   3.751   7.150   4.002
 2651TIP3   OH2 7897   2.834   1.153   2.252
 2651TIP3    H1 7898   2.748   1.192   2.242
 2651TIP3    H2 7899   2.895   1.228   2.252
 2652TIP3   OH2 7900   1.713   7.269   6.089
 2652TIP3    H1 7901   1.799   7.302   6.064
 2652TIP3    H2 7902   1.705   7.292   6.182
 2653TIP3   OH2 7903   1.949   5.495   5.967
 2653TIP3    H1 7904   1.869   5.546   5.964
 2653TIP3    H2 7905   1.933   5.421   5.909
 2654TIP3   OH2 7906   4.338   2.034   5.985
 2654TIP3    H1 7907   4.372   2.026   6.074
 2654TIP3    H2 7908   4.353   2.125   5.962
 2655TIP3   OH2 7909   7.448   1.917   2.788
 2655TIP3    H1 7910   7.518   1.982   2.776
 2655TIP3    H2 7911   7.380   1.964   2.837
 2656TIP3   OH2 7912   1.814   0.049   5.344
 2656TIP3    H1 7913   1.742   0.109   5.328
 2656TIP3    H2 7914   1.773  -0.038   5.344
 2657TIP3   OH2 7915   3.813   6.142   1.956
 2657TIP3    H1 7916   3.823   6.057   1.999
 2657TIP3    H2 7917   3.827   6.123   1.863
 2658TIP3   OH2 7918   0.989   7.559   4.136
 2658TIP3    H1 7919   1.054   7.597   4.077
 2658TIP3    H2 7920   1.004   7.603   4.220
 2659TIP3   OH2 7921   5.597   7.023   0.092
 2659TIP3    H1 7922   5.552   7.101   0.124
 2659TIP3    H2 7923   5.658   7.056   0.026
 2660TIP3   OH2 7924   7.562   7.246   1.829
 2660TIP3    H1 7925   7.551   7.327   1.779
 2660TIP3    H2 7926   7.496   7.186   1.794
 2661TIP3   OH2 7927   3.233   3.330   6.174
 2661TIP3    H1 7928   3.327   3.335   6.160
 2661TIP3    H2 7929   3.195   3.384   6.105
 2662TIP3   OH2 7930   3.415   3.546   3.938
 2662TIP3    H1 7931   3.341   3.498   3.976
 2662TIP3    H2 7932   3.474   3.562   4.011
 2663TIP3   OH2 7933   1.111   3.504   2.730
 2663TIP3    H1 7934   1.134   3.453   2.807
 2663TIP3    H2 7935   1.123   3.595   2.756
 2664TIP3   OH2 7936   8.047   0.820   5.587
 2664TIP3    H1 7937   8.056   0.736   5.542
 2664TIP3    H2 7938   7.986   0.870   5.533
 2665TIP3   OH2 7939   7.559   6.547   0.676
 2665TIP3    H1 7940   7.509   6.628   0.671
 2665TIP3    H2 7941   7.617   6.560   0.751
 2666TIP3   OH2 7942   5.832   3.329   2.297
 2666TIP3    H1 7943   5.788   3.244   2.293
 2666TIP3    H2 7944   5.814   3.369   2.213
 2667TIP3   OH2 7945   3.055   0.153   6.287
 2667TIP3    H1 7946   3.009   0.098   6.223
 2667TIP3    H2 7947   3.113   0.092   6.332
 2668TIP3   OH2 7948   4.033   2.371   3.861
 2668TIP3    H1 7949   4.112   2.317   3.856
 2668TIP3    H2 7950   4.004   2.363   3.952
 2669TIP3   OH2 7951   5.693   1.578   3.812
 2669TIP3    H1 7952   5.676   1.572   3.718
 2669TIP3    H2 7953   5.710   1.488   3.839
 2670TIP3   OH2 7954   0.811   1.235   1.168
 2670TIP3    H1 7955   0.721   1.212   1.191
 2670TIP3    H2 7956   0.852   1.260   1.251
 2671TIP3   OH2 7957   1.030   6.767   0.886
 2671TIP3    H1 7958   1.103   6.766   0.823
 2671TIP3    H2 7959   0.976   6.841   0.859
 2672TIP3   OH2 7960   6.432   1.766   2.237
 2672TIP3    H1 7961   6.417   1.847   2.285
 2672TIP3    H2 7962   6.426   1.791   2.145
 2673TIP3   OH2 7963   6.972   1.538   4.013
 2673TIP3    H1 7964   6.984   1.445   3.992
 2673TIP3    H2 7965   6.951   1.578   3.928
 2674TIP3   OH2 7966   0.412   7.777   2.290
 2674TIP3    H1 7967   0.433   7.712   2.223
 2674TIP3    H2 7968   0.407   7.860   2.242
 2675TIP3   OH2 7969   4.620   1.968   4.797
 2675TIP3    H1 7970   4.539   1.995   4.754
 2675TIP3    H2 7971   4.685   2.033   4.770
 2676TIP3   OH2 7972   7.937   0.486   0.598
 2676TIP3    H1 7973   7.877   0.468   0.526
 2676TIP3    H2 7974   7.932   0.407   0.653
 2677TIP3   OH2 7975   5.412   4.896   1.761
 2677TIP3    H1 7976   5.407   4.813   1.809
 2677TIP3    H2 7977   5.498   4.930   1.781
 2678TIP3   OH2 7978   4.099   3.178   1.591
 2678TIP3    H1 7979   4.176   3.172   1.535
 2678TIP3    H2 7980   4.051   3.097   1.576
 2679TIP3   OH2 7981   7.265   7.174   1.825
 2679TIP3    H1 7982   7.260   7.099   1.884
 2679TIP3    H2 7983   7.251   7.137   1.738
 2680TIP3   OH2 7984   0.335   4.483   1.042
 2680TIP3    H1 7985   0.372   4.558   1.088
 2680TIP3    H2 7986   0.382   4.407   1.077
 2681TIP3   OH2 7987   2.102   1.550   6.632
 2681TIP3    H1 7988   2.107   1.616   6.563
 2681TIP3    H2 7989   2.027   1.496   6.608
 2682TIP3   OH2 7990   0.512   0.360   6.661
 2682TIP3    H1 7991   0.601   0.393   6.677
 2682TIP3    H2 7992   0.495   0.381   6.569
 2683TIP3   OH2 7993   6.882   3.935   5.205
 2683TIP3    H1 7994   6.806   3.896   5.249
 2683TIP3    H2 7995   6.847   3.976   5.126
 2684TIP3   OH2 7996   7.704   4.684   3.817
 2684TIP3    H1 7997   7.630   4.667   3.875
 2684TIP3    H2 7998   7.737   4.598   3.793
 2685TIP3   OH2 7999   5.788   4.050   4.389
 2685TIP3    H1 8000   5.732   3.991   4.338
 2685TIP3    H2 8001   5.769   4.137   4.353
 2686TIP3   OH2 8002   2.919   6.796   1.600
 2686TIP3    H1 8003   2.888   6.707   1.582
 2686TIP3    H2 8004   2.841   6.844   1.626
 2687TIP3   OH2 8005   1.470   3.613   4.064
 2687TIP3    H1 8006   1.387   3.615   4.017
 2687TIP3    H2 8007   1.467   3.531   4.113
 2688TIP3   OH2 8008   0.694   5.519   3.416
 2688TIP3    H1 8009   0.707   5.582   3.487
 2688TIP3    H2 8010   0.781   5.506   3.378
 2689TIP3   OH2 8011   1.816   4.288   3.711
 2689TIP3    H1 8012   1.871   4.308   3.635
 2689TIP3    H2 8013   1.744   4.235   3.675
 2690TIP3   OH2 8014   6.145   0.577   0.625
 2690TIP3    H1 8015   6.162   0.497   0.575
 2690TIP3    H2 8016   6.093   0.548   0.700
 2691TIP3   OH2 8017   5.861   1.289   4.582
 2691TIP3    H1 8018   5.804   1.363   4.603
 2691TIP3    H2 8019   5.909   1.272   4.663
 2692TIP3   OH2 8020   1.897   7.661   4.939
 2692TIP3    H1 8021   1.953   7.738   4.929
 2692TIP3    H2 8022   1.959   7.588   4.946
 2693TIP3   OH2 8023   7.897   7.565   4.839
 2693TIP3    H1 8024   7.921   7.656   4.857
 2693TIP3    H2 8025   7.975   7.514   4.863
 2694TIP3   OH2 8026   1.952   2.700   2.034
 2694TIP3    H1 8027   2.031   2.650   2.057
 2694TIP3    H2 8028   1.979   2.755   1.961
 2695TIP3   OH2 8029   7.003   0.742   6.117
 2695TIP3    H1 8030   6.994   0.743   6.021
 2695TIP3    H2 8031   7.035   0.829   6.139
 2696TIP3   OH2 8032   4.822   2.429   4.102
 2696TIP3    H1 8033   4.894   2.408   4.042
 2696TIP3    H2 8034   4.816   2.524   4.100
 2697TIP3   OH2 8035   4.277   6.937   1.671
 2697TIP3    H1 8036   4.362   6.964   1.706
 2697TIP3    H2 8037   4.222   7.015   1.679
 2698TIP3   OH2 8038   7.895   7.850   6.170
 2698TIP3    H1 8039   7.869   7.831   6.080
 2698TIP3    H2 8040   7.874   7.771   6.219
 2699TIP3   OH2 8041   1.936   4.078   4.798
 2699TIP3    H1 8042   1.973   4.093   4.711
 2699TIP3    H2 8043   1.965   4.154   4.850
 2700TIP3   OH2 8044   5.680   7.523   6.359
 2700TIP3    H1 8045   5.616   7.454   6.373
 2700TIP3    H2 8046   5.758   7.478   6.327
 2701TIP3   OH2 8047   3.504   2.510   6.103
 2701TIP3    H1 8048   3.448   2.577   6.064
 2701TIP3    H2 8049   3.491   2.433   6.048
 2702TIP3   OH2 8050   0.157   1.411   6.020
 2702TIP3    H1 8051   0.185   1.503   6.015
 2702TIP3    H2 8052   0.134   1.398   6.112
 2703TIP3   OH2 8053   2.346   1.827   2.870
 2703TIP3    H1 8054   2.409   1.869   2.812
 2703TIP3    H2 8055   2.281   1.789   2.811
 2704TIP3   OH2 8056   8.172   7.333   3.776
 2704TIP3    H1 8057   8.261   7.365   3.792
 2704TIP3    H2 8058   8.154   7.358   3.686
 2705TIP3   OH2 8059   7.822   4.782   5.347
 2705TIP3    H1 8060   7.877   4.717   5.304
 2705TIP3    H2 8061   7.877   4.860   5.354
 2706TIP3   OH2 8062   7.732   2.845   3.785
 2706TIP3    H1 8063   7.765   2.826   3.873
 2706TIP3    H2 8064   7.762   2.771   3.732
 2707TIP3   OH2 8065   1.072   5.792   0.772
 2707TIP3    H1 8066   1.132   5.724   0.801
 2707TIP3    H2 8067   1.129   5.865   0.747
 2708TIP3   OH2 8068   6.132   0.045   4.700
 2708TIP3    H1 8069   6.160   0.019   4.612
 2708TIP3    H2 8070   6.050  -0.002   4.714
 2709TIP3   OH2 8071   7.767   3.690   4.590
 2709TIP3    H1 8072   7.838   3.629   4.611
 2709TIP3    H2 8073   7.735   3.661   4.505
 2710TIP3   OH2 8074   7.535   2.749   4.085
 2710TIP3    H1 8075   7.471   2.756   4.013
 2710TIP3    H2 8076   7.519   2.827   4.138
 2711TIP3   OH2 8077   1.783   7.180   2.188
 2711TIP3    H1 8078   1.817   7.232   2.116
 2711TIP3    H2 8079   1.688   7.185   2.179
 2712TIP3   OH2 8080   4.643   2.963   5.504
 2712TIP3    H1 8081   4.682   3.044   5.470
 2712TIP3    H2 8082   4.551   2.968   5.479
 2713TIP3   OH2 8083   6.338   5.048   1.983
 2713TIP3    H1 8084   6.424   5.057   2.024
 2713TIP3    H2 8085   6.349   4.978   1.919
 2714TIP3   OH2 8086   1.510   3.533   3.466
 2714TIP3    H1 8087   1.538   3.558   3.555
 2714TIP3    H2 8088   1.579   3.476   3.434
 2715TIP3   OH2 8089   4.614   7.305   5.216
 2715TIP3    H1 8090   4.673   7.312   5.141
 2715TIP3    H2 8091   4.615   7.393   5.255
 2716TIP3   OH2 8092   1.082   6.548   2.605
 2716TIP3    H1 8093   1.171   6.514   2.610
 2716TIP3    H2 8094   1.083   6.609   2.532
 2717TIP3   OH2 8095   1.596   5.947   0.977
 2717TIP3    H1 8096   1.584   5.858   1.010
 2717TIP3    H2 8097   1.575   6.003   1.052
 2718TIP3   OH2 8098   0.490   0.087   2.368
 2718TIP3    H1 8099   0.556   0.086   2.299
 2718TIP3    H2 8100   0.533   0.044   2.442
 2719TIP3   OH2 8101   2.625   1.681   3.063
 2719TIP3    H1 8102   2.664   1.594   3.065
 2719TIP3    H2 8103   2.531   1.665   3.069
 2720TIP3   OH2 8104   0.679   6.339   4.145
 2720TIP3    H1 8105   0.713   6.427   4.161
 2720TIP3    H2 8106   0.594   6.337   4.190
 2721TIP3   OH2 8107   0.769   6.748   4.657
 2721TIP3    H1 8108   0.771   6.831   4.704
 2721TIP3    H2 8109   0.738   6.771   4.569
 2722TIP3   OH2 8110   1.583   2.081   1.755
 2722TIP3    H1 8111   1.526   2.026   1.809
 2722TIP3    H2 8112   1.544   2.168   1.758
 2723TIP3   OH2 8113   6.961   4.482   0.829
 2723TIP3    H1 8114   6.941   4.557   0.885
 2723TIP3    H2 8115   7.032   4.514   0.772
 2724TIP3   OH2 8116   6.711   5.040   0.703
 2724TIP3    H1 8117   6.733   5.043   0.796
 2724TIP3    H2 8118   6.690   4.948   0.687
 2725TIP3   OH2 8119   1.687   6.968   4.083
 2725TIP3    H1 8120   1.757   7.005   4.029
 2725TIP3    H2 8121   1.664   6.886   4.040
 2726TIP3   OH2 8122   3.207   4.005   2.128
 2726TIP3    H1 8123   3.218   3.954   2.047
 2726TIP3    H2 8124   3.188   3.940   2.195
 2727TIP3   OH2 8125   1.321   6.174   5.413
 2727TIP3    H1 8126   1.290   6.258   5.379
 2727TIP3    H2 8127   1.335   6.121   5.334
 2728TIP3   OH2 8128   2.601   3.553   1.764
 2728TIP3    H1 8129   2.535   3.598   1.816
 2728TIP3    H2 8130   2.642   3.623   1.711
 2729TIP3   OH2 8131   4.454   2.860   5.905
 2729TIP3    H1 8132   4.514   2.829   5.836
 2729TIP3    H2 8133   4.483   2.815   5.984
 2730TIP3   OH2 8134   5.555   4.188   2.313
 2730TIP3    H1 8135   5.491   4.157   2.249
 2730TIP3    H2 8136   5.502   4.227   2.383
 2731TIP3   OH2 8137   0.921   4.298   0.794
 2731TIP3    H1 8138   0.940   4.206   0.812
 2731TIP3    H2 8139   0.883   4.299   0.706
 2732TIP3   OH2 8140   3.689   2.638   5.566
 2732TIP3    H1 8141   3.597   2.662   5.573
 2732TIP3    H2 8142   3.694   2.584   5.487
 2733TIP3   OH2 8143   2.629   7.304   4.517
 2733TIP3    H1 8144   2.608   7.375   4.457
 2733TIP3    H2 8145   2.721   7.320   4.542
 2734TIP3   OH2 8146   5.919   1.510   1.867
 2734TIP3    H1 8147   5.938   1.432   1.918
 2734TIP3    H2 8148   5.944   1.583   1.924
 2735TIP3   OH2 8149   4.866   0.812   1.463
 2735TIP3    H1 8150   4.798   0.836   1.526
 2735TIP3    H2 8151   4.923   0.889   1.459
 2736TIP3   OH2 8152   2.712   5.868   4.025
 2736TIP3    H1 8153   2.665   5.892   3.945
 2736TIP3    H2 8154   2.658   5.799   4.064
 2737TIP3   OH2 8155   3.176   6.035   6.191
 2737TIP3    H1 8156   3.081   6.024   6.185
 2737TIP3    H2 8157   3.205   6.043   6.101
 2738TIP3   OH2 8158   6.067   2.070   4.784
 2738TIP3    H1 8159   6.119   2.002   4.828
 2738TIP3    H2 8160   6.050   2.035   4.697
 2739TIP3   OH2 8161   2.675   5.489   3.967
 2739TIP3    H1 8162   2.609   5.454   3.908
 2739TIP3    H2 8163   2.626   5.520   4.043
 2740TIP3   OH2 8164   1.653   0.695   5.542
 2740TIP3    H1 8165   1.557   0.687   5.550
 2740TIP3    H2 8166   1.685   0.605   5.551
 2741TIP3   OH2 8167   0.493   5.519   6.210
 2741TIP3    H1 8168   0.573   5.471   6.232
 2741TIP3    H2 8169   0.486   5.514   6.115
 2742TIP3   OH2 8170   2.533   1.047   5.628
 2742TIP3    H1 8171   2.461   0.985   5.637
 2742TIP3    H2 8172   2.609   0.992   5.607
 2743TIP3   OH2 8173   0.876   4.530   4.709
 2743TIP3    H1 8174   0.926   4.546   4.629
 2743TIP3    H2 8175   0.793   4.492   4.678
 2744TIP3   OH2 8176   2.696   1.768   2.792
 2744TIP3    H1 8177   2.703   1.859   2.821
 2744TIP3    H2 8178   2.684   1.718   2.873
 2745TIP3   OH2 8179   5.360   0.138   4.229
 2745TIP3    H1 8180   5.451   0.128   4.258
 2745TIP3    H2 8181   5.363   0.124   4.134
 2746TIP3   OH2 8182   4.460   7.633   2.417
 2746TIP3    H1 8183   4.383   7.636   2.474
 2746TIP3    H2 8184   4.499   7.720   2.426
 2747TIP3   OH2 8185   7.189   2.113   0.368
 2747TIP3    H1 8186   7.148   2.034   0.405
 2747TIP3    H2 8187   7.125   2.182   0.385
 2748TIP3   OH2 8188   0.506   0.880   0.138
 2748TIP3    H1 8189   0.566   0.941   0.180
 2748TIP3    H2 8190   0.554   0.797   0.136
 2749TIP3   OH2 8191   2.976   5.424   1.777
 2749TIP3    H1 8192   2.926   5.444   1.856
 2749TIP3    H2 8193   3.064   5.405   1.809
 2750TIP3   OH2 8194   1.165   4.658   5.609
 2750TIP3    H1 8195   1.195   4.749   5.608
 2750TIP3    H2 8196   1.228   4.611   5.555
 2751TIP3   OH2 8197   0.173   0.567   0.489
 2751TIP3    H1 8198   0.116   0.638   0.460
 2751TIP3    H2 8199   0.149   0.493   0.433
 2752TIP3   OH2 8200   7.753   5.132   6.717
 2752TIP3    H1 8201   7.691   5.086   6.774
 2752TIP3    H2 8202   7.731   5.103   6.628
 2753TIP3   OH2 8203   1.754   2.432   2.902
 2753TIP3    H1 8204   1.732   2.412   2.811
 2753TIP3    H2 8205   1.758   2.346   2.944
 2754TIP3   OH2 8206   0.139   4.348   0.436
 2754TIP3    H1 8207   0.217   4.292   0.442
 2754TIP3    H2 8208   0.116   4.366   0.527
 2755TIP3   OH2 8209   5.444   7.258   5.685
 2755TIP3    H1 8210   5.482   7.296   5.765
 2755TIP3    H2 8211   5.398   7.180   5.716
 2756TIP3   OH2 8212   0.338   3.839   2.922
 2756TIP3    H1 8213   0.244   3.823   2.923
 2756TIP3    H2 8214   0.347   3.931   2.948
 2757TIP3   OH2 8215   0.711   6.848   0.891
 2757TIP3    H1 8216   0.620   6.871   0.875
 2757TIP3    H2 8217   0.756   6.874   0.810
 2758TIP3   OH2 8218   6.506   4.619   0.389
 2758TIP3    H1 8219   6.413   4.644   0.394
 2758TIP3    H2 8220   6.521   4.605   0.296
 2759TIP3   OH2 8221   2.827   4.594   5.746
 2759TIP3    H1 8222   2.856   4.504   5.753
 2759TIP3    H2 8223   2.908   4.645   5.740
 2760TIP3   OH2 8224   4.979   5.473   2.953
 2760TIP3    H1 8225   5.020   5.555   2.924
 2760TIP3    H2 8226   5.023   5.405   2.902
 2761TIP3   OH2 8227   3.137   5.499   3.526
 2761TIP3    H1 8228   3.210   5.472   3.583
 2761TIP3    H2 8229   3.100   5.416   3.495
 2762TIP3   OH2 8230   2.092   4.887   5.732
 2762TIP3    H1 8231   2.187   4.874   5.723
 2762TIP3    H2 8232   2.075   4.869   5.825
 2763TIP3   OH2 8233   5.595   2.868   0.608
 2763TIP3    H1 8234   5.576   2.896   0.697
 2763TIP3    H2 8235   5.517   2.891   0.557
 2764TIP3   OH2 8236   0.550   4.078   2.873
 2764TIP3    H1 8237   0.610   4.151   2.889
 2764TIP3    H2 8238   0.467   4.106   2.912
 2765TIP3   OH2 8239   7.692   2.782   5.236
 2765TIP3    H1 8240   7.712   2.853   5.297
 2765TIP3    H2 8241   7.777   2.751   5.207
 2766TIP3   OH2 8242   1.238   7.478   1.328
 2766TIP3    H1 8243   1.146   7.464   1.305
 2766TIP3    H2 8244   1.286   7.471   1.246
 2767TIP3   OH2 8245   5.056   3.036   0.604
 2767TIP3    H1 8246   5.036   3.016   0.513
 2767TIP3    H2 8247   4.973   3.066   0.641
 2768TIP3   OH2 8248   0.868   1.733   3.952
 2768TIP3    H1 8249   0.847   1.698   4.039
 2768TIP3    H2 8250   0.803   1.801   3.937
 2769TIP3   OH2 8251   1.639   7.633   4.280
 2769TIP3    H1 8252   1.616   7.578   4.205
 2769TIP3    H2 8253   1.653   7.720   4.242
 2770TIP3   OH2 8254   5.445   6.430   0.424
 2770TIP3    H1 8255   5.449   6.511   0.475
 2770TIP3    H2 8256   5.419   6.459   0.336
 2771TIP3   OH2 8257   7.347   3.969   0.911
 2771TIP3    H1 8258   7.300   4.022   0.976
 2771TIP3    H2 8259   7.280   3.914   0.871
 2772TIP3   OH2 8260   3.200   0.275   5.042
 2772TIP3    H1 8261   3.177   0.341   4.976
 2772TIP3    H2 8262   3.244   0.325   5.111
 2773TIP3   OH2 8263   6.197   5.388   4.780
 2773TIP3    H1 8264   6.207   5.296   4.805
 2773TIP3    H2 8265   6.259   5.400   4.709
 2774TIP3   OH2 8266   1.461   7.680   5.260
 2774TIP3    H1 8267   1.448   7.635   5.343
 2774TIP3    H2 8268   1.410   7.629   5.196
 2775TIP3   OH2 8269   4.610   6.258   1.372
 2775TIP3    H1 8270   4.542   6.212   1.322
 2775TIP3    H2 8271   4.690   6.207   1.356
 2776TIP3   OH2 8272   8.029   1.389   0.138
 2776TIP3    H1 8273   7.947   1.358   0.176
 2776TIP3    H2 8274   8.002   1.442   0.063
 2777TIP3   OH2 8275   4.414   4.937   6.604
 2777TIP3    H1 8276   4.338   4.992   6.623
 2777TIP3    H2 8277   4.401   4.909   6.514
 2778TIP3   OH2 8278   2.638   7.176   5.471
 2778TIP3    H1 8279   2.687   7.202   5.393
 2778TIP3    H2 8280   2.705   7.165   5.539
 2779TIP3   OH2 8281   1.225   6.816   3.099
 2779TIP3    H1 8282   1.250   6.901   3.136
 2779TIP3    H2 8283   1.234   6.827   3.004
 2780TIP3   OH2 8284   0.473   1.116   3.239
 2780TIP3    H1 8285   0.381   1.112   3.214
 2780TIP3    H2 8286   0.511   1.035   3.206
 2781TIP3   OH2 8287   2.527   2.108   4.969
 2781TIP3    H1 8288   2.612   2.115   5.011
 2781TIP3    H2 8289   2.485   2.193   4.986
 2782TIP3   OH2 8290   3.746   3.248   5.330
 2782TIP3    H1 8291   3.696   3.168   5.317
 2782TIP3    H2 8292   3.689   3.319   5.300
 2783TIP3   OH2 8293   2.317   6.963   1.018
 2783TIP3    H1 8294   2.251   7.017   1.062
 2783TIP3    H2 8295   2.276   6.935   0.937
 2784TIP3   OH2 8296   4.048   1.887   0.616
 2784TIP3    H1 8297   3.999   1.963   0.648
 2784TIP3    H2 8298   4.005   1.864   0.534
 2785TIP3   OH2 8299   5.093   0.360   2.117
 2785TIP3    H1 8300   5.161   0.359   2.049
 2785TIP3    H2 8301   5.140   0.384   2.197
 2786TIP3   OH2 8302   5.488   1.108   6.670
 2786TIP3    H1 8303   5.482   1.189   6.620
 2786TIP3    H2 8304   5.402   1.067   6.659
 2787TIP3   OH2 8305   7.230   3.965   3.774
 2787TIP3    H1 8306   7.267   3.886   3.815
 2787TIP3    H2 8307   7.303   4.027   3.771
 2788TIP3   OH2 8308   8.278   1.874   4.768
 2788TIP3    H1 8309   8.320   1.885   4.683
 2788TIP3    H2 8310   8.211   1.943   4.770
 2789TIP3   OH2 8311   2.234   4.412   6.804
 2789TIP3    H1 8312   2.152   4.390   6.759
 2789TIP3    H2 8313   2.224   4.504   6.829
 2790TIP3   OH2 8314   2.482   4.023   6.490
 2790TIP3    H1 8315   2.429   4.092   6.531
 2790TIP3    H2 8316   2.562   4.020   6.542
 2791TIP3   OH2 8317   3.865   3.229   4.730
 2791TIP3    H1 8318   3.797   3.276   4.682
 2791TIP3    H2 8319   3.840   3.240   4.822
 2792TIP3   OH2 8320   0.915   2.132   2.858
 2792TIP3    H1 8321   0.935   2.039   2.849
 2792TIP3    H2 8322   0.929   2.169   2.771
 2793TIP3   OH2 8323   6.301   0.861   4.987
 2793TIP3    H1 8324   6.285   0.892   4.898
 2793TIP3    H2 8325   6.227   0.804   5.006
 2794TIP3   OH2 8326   6.991   1.044   2.868
 2794TIP3    H1 8327   6.925   1.020   2.933
 2794TIP3    H2 8328   6.996   0.969   2.810
 2795TIP3   OH2 8329   5.445   4.826   1.488
 2795TIP3    H1 8330   5.413   4.814   1.577
 2795TIP3    H2 8331   5.444   4.738   1.450
 2796TIP3   OH2 8332   4.196   0.143   0.190
 2796TIP3    H1 8333   4.185   0.236   0.211
 2796TIP3    H2 8334   4.291   0.130   0.186
 2797TIP3   OH2 8335   1.536   4.328   3.587
 2797TIP3    H1 8336   1.611   4.343   3.530
 2797TIP3    H2 8337   1.481   4.267   3.538
 2798TIP3   OH2 8338   3.831   7.189   0.448
 2798TIP3    H1 8339   3.785   7.231   0.376
 2798TIP3    H2 8340   3.918   7.229   0.448
 2799TIP3   OH2 8341   5.266   3.156   0.742
 2799TIP3    H1 8342   5.301   3.073   0.775
 2799TIP3    H2 8343   5.173   3.138   0.727
 2800TIP3   OH2 8344   7.481   5.552   4.452
 2800TIP3    H1 8345   7.406   5.593   4.496
 2800TIP3    H2 8346   7.496   5.607   4.375
 2801TIP3   OH2 8347   4.180   4.120   1.054
 2801TIP3    H1 8348   4.252   4.118   1.117
 2801TIP3    H2 8349   4.194   4.042   1.000
 2802TIP3   OH2 8350   1.712   2.580   3.150
 2802TIP3    H1 8351   1.797   2.590   3.192
 2802TIP3    H2 8352   1.663   2.658   3.176
 2803TIP3   OH2 8353   6.223   6.264   3.156
 2803TIP3    H1 8354   6.278   6.288   3.081
 2803TIP3    H2 8355   6.285   6.238   3.223
 2804TIP3   OH2 8356   5.583   3.755   5.422
 2804TIP3    H1 8357   5.646   3.800   5.479
 2804TIP3    H2 8358   5.505   3.745   5.476
 2805TIP3   OH2 8359   1.480   4.219   0.158
 2805TIP3    H1 8360   1.499   4.130   0.130
 2805TIP3    H2 8361   1.475   4.269   0.077
 2806TIP3   OH2 8362   0.094   3.128   3.946
 2806TIP3    H1 8363   0.164   3.122   4.011
 2806TIP3    H2 8364   0.078   3.038   3.919
 2807TIP3   OH2 8365   2.086   3.763   5.454
 2807TIP3    H1 8366   2.160   3.806   5.497
 2807TIP3    H2 8367   2.112   3.671   5.446
 2808TIP3   OH2 8368   7.537   3.006   5.849
 2808TIP3    H1 8369   7.453   2.967   5.873
 2808TIP3    H2 8370   7.591   2.931   5.822
 2809TIP3   OH2 8371   5.905   6.447   1.967
 2809TIP3    H1 8372   5.892   6.465   1.874
 2809TIP3    H2 8373   5.817   6.454   2.005
 2810TIP3   OH2 8374   7.948   6.467   0.123
 2810TIP3    H1 8375   7.931   6.412   0.200
 2810TIP3    H2 8376   8.003   6.414   0.066
 2811TIP3   OH2 8377   4.997   2.059   3.453
 2811TIP3    H1 8378   4.990   1.999   3.527
 2811TIP3    H2 8379   5.091   2.080   3.448
 2812TIP3   OH2 8380   0.475   2.708   3.170
 2812TIP3    H1 8381   0.556   2.746   3.136
 2812TIP3    H2 8382   0.485   2.614   3.157
 2813TIP3   OH2 8383   5.484   0.157   4.701
 2813TIP3    H1 8384   5.569   0.134   4.737
 2813TIP3    H2 8385   5.442   0.211   4.768
 2814TIP3   OH2 8386   4.462   0.915   3.623
 2814TIP3    H1 8387   4.399   0.973   3.668
 2814TIP3    H2 8388   4.409   0.868   3.559
 2815TIP3   OH2 8389   8.285   7.250   5.314
 2815TIP3    H1 8390   8.194   7.225   5.335
 2815TIP3    H2 8391   8.303   7.205   5.232
 2816TIP3   OH2 8392   3.134   0.410   4.807
 2816TIP3    H1 8393   3.218   0.454   4.823
 2816TIP3    H2 8394   3.143   0.372   4.720
 2817TIP3   OH2 8395   6.751   3.709   0.045
 2817TIP3    H1 8396   6.844   3.688   0.049
 2817TIP3    H2 8397   6.744   3.797   0.082
 2818TIP3   OH2 8398   3.777   3.363   2.114
 2818TIP3    H1 8399   3.746   3.423   2.046
 2818TIP3    H2 8400   3.823   3.420   2.176
 2819TIP3   OH2 8401   6.842   6.156   1.339
 2819TIP3    H1 8402   6.827   6.085   1.401
 2819TIP3    H2 8403   6.887   6.224   1.390
 2820TIP3   OH2 8404   7.864   0.422   1.232
 2820TIP3    H1 8405   7.812   0.436   1.153
 2820TIP3    H2 8406   7.950   0.394   1.200
 2821TIP3   OH2 8407   0.782   1.201   0.031
 2821TIP3    H1 8408   0.827   1.276   0.070
 2821TIP3    H2 8409   0.699   1.195   0.078
 2822TIP3   OH2 8410   0.748   0.668   0.122
 2822TIP3    H1 8411   0.722   0.582   0.089
 2822TIP3    H2 8412   0.839   0.678   0.094
 2823TIP3   OH2 8413   0.802   6.166   0.408
 2823TIP3    H1 8414   0.895   6.168   0.385
 2823TIP3    H2 8415   0.788   6.245   0.459
 2824TIP3   OH2 8416   3.763   5.769   1.392
 2824TIP3    H1 8417   3.854   5.740   1.379
 2824TIP3    H2 8418   3.747   5.753   1.485
 2825TIP3   OH2 8419   7.539   5.325   5.118
 2825TIP3    H1 8420   7.527   5.398   5.058
 2825TIP3    H2 8421   7.568   5.253   5.063
 2826TIP3   OH2 8422   2.772   2.636   6.638
 2826TIP3    H1 8423   2.700   2.609   6.581
 2826TIP3    H2 8424   2.746   2.722   6.670
 2827TIP3   OH2 8425   1.346   7.624   5.014
 2827TIP3    H1 8426   1.316   7.538   4.986
 2827TIP3    H2 8427   1.424   7.642   4.962
 2828TIP3   OH2 8428   5.911   6.217   6.527
 2828TIP3    H1 8429   5.888   6.221   6.434
 2828TIP3    H2 8430   5.950   6.130   6.537
 2829TIP3   OH2 8431   4.437   3.209   5.937
 2829TIP3    H1 8432   4.506   3.261   5.979
 2829TIP3    H2 8433   4.395   3.270   5.876
 2830TIP3   OH2 8434   2.227   1.304   3.496
 2830TIP3    H1 8435   2.279   1.375   3.458
 2830TIP3    H2 8436   2.290   1.255   3.549
 2831TIP3   OH2 8437   5.076   2.568   4.965
 2831TIP3    H1 8438   5.010   2.550   5.032
 2831TIP3    H2 8439   5.056   2.506   4.895
 2832TIP3   OH2 8440   4.634   2.373   6.702
 2832TIP3    H1 8441   4.623   2.466   6.683
 2832TIP3    H2 8442   4.596   2.329   6.626
 2833TIP3   OH2 8443   5.173   2.012   1.362
 2833TIP3    H1 8444   5.087   1.968   1.362
 2833TIP3    H2 8445   5.214   1.985   1.444
 2834TIP3   OH2 8446   7.366   7.173   5.725
 2834TIP3    H1 8447   7.319   7.245   5.682
 2834TIP3    H2 8448   7.430   7.144   5.661
 2835TIP3   OH2 8449   4.721   6.296   0.445
 2835TIP3    H1 8450   4.775   6.227   0.408
 2835TIP3    H2 8451   4.746   6.375   0.397
 2836TIP3   OH2 8452   7.111   4.810   0.461
 2836TIP3    H1 8453   7.094   4.889   0.411
 2836TIP3    H2 8454   7.114   4.839   0.553
 2837TIP3   OH2 8455   1.846   2.252   2.126
 2837TIP3    H1 8456   1.889   2.325   2.170
 2837TIP3    H2 8457   1.758   2.285   2.104
 2838TIP3   OH2 8458   3.545   4.123   2.360
 2838TIP3    H1 8459   3.626   4.077   2.379
 2838TIP3    H2 8460   3.476   4.066   2.395
 2839TIP3   OH2 8461   6.703   7.476   2.128
 2839TIP3    H1 8462   6.614   7.444   2.146
 2839TIP3    H2 8463   6.760   7.414   2.173
 2840TIP3   OH2 8464   7.210   1.860   4.295
 2840TIP3    H1 8465   7.224   1.858   4.390
 2840TIP3    H2 8466   7.165   1.778   4.275
 2841TIP3   OH2 8467   2.808   1.007   4.879
 2841TIP3    H1 8468   2.871   0.969   4.941
 2841TIP3    H2 8469   2.862   1.039   4.807
 2842TIP3   OH2 8470   1.793   4.840   4.032
 2842TIP3    H1 8471   1.710   4.884   4.017
 2842TIP3    H2 8472   1.857   4.891   3.982
 2843TIP3   OH2 8473   1.829   4.733   1.862
 2843TIP3    H1 8474   1.922   4.735   1.838
 2843TIP3    H2 8475   1.784   4.713   1.780
 2844TIP3   OH2 8476   2.700   5.925   5.555
 2844TIP3    H1 8477   2.773   5.986   5.558
 2844TIP3    H2 8478   2.627   5.972   5.597
 2845TIP3   OH2 8479   0.412   5.670   6.424
 2845TIP3    H1 8480   0.448   5.612   6.491
 2845TIP3    H2 8481   0.460   5.648   6.344
 2846TIP3   OH2 8482   4.280   7.058   2.194
 2846TIP3    H1 8483   4.209   7.105   2.239
 2846TIP3    H2 8484   4.258   7.065   2.101
 2847TIP3   OH2 8485   6.134   4.946   4.387
 2847TIP3    H1 8486   6.111   4.858   4.416
 2847TIP3    H2 8487   6.101   4.951   4.297
 2848TIP3   OH2 8488   4.701   2.171   2.559
 2848TIP3    H1 8489   4.627   2.197   2.505
 2848TIP3    H2 8490   4.760   2.126   2.498
 2849TIP3   OH2 8491   6.806   4.797   0.487
 2849TIP3    H1 8492   6.764   4.832   0.408
 2849TIP3    H2 8493   6.883   4.853   0.499
 2850TIP3   OH2 8494   1.171   4.476   0.865
 2850TIP3    H1 8495   1.127   4.559   0.846
 2850TIP3    H2 8496   1.105   4.409   0.850
 2851TIP3   OH2 8497   4.495   3.799   4.447
 2851TIP3    H1 8498   4.560   3.869   4.447
 2851TIP3    H2 8499   4.539   3.725   4.406
 2852TIP3   OH2 8500   6.594   2.511   5.031
 2852TIP3    H1 8501   6.552   2.521   4.946
 2852TIP3    H2 8502   6.521   2.512   5.093
 2853TIP3   OH2 8503   3.877   4.594   2.918
 2853TIP3    H1 8504   3.793   4.596   2.873
 2853TIP3    H2 8505   3.919   4.677   2.895
 2854TIP3   OH2 8506   6.822   2.852   4.161
 2854TIP3    H1 8507   6.826   2.877   4.069
 2854TIP3    H2 8508   6.828   2.934   4.210
 2855TIP3   OH2 8509   7.106   7.739   0.847
 2855TIP3    H1 8510   7.011   7.731   0.835
 2855TIP3    H2 8511   7.116   7.790   0.927
 2856TIP3   OH2 8512   3.486   0.309   0.802
 2856TIP3    H1 8513   3.439   0.386   0.771
 2856TIP3    H2 8514   3.449   0.236   0.751
 2857TIP3   OH2 8515   1.419   3.025   1.749
 2857TIP3    H1 8516   1.450   2.935   1.744
 2857TIP3    H2 8517   1.438   3.052   1.839
 2858TIP3   OH2 8518   1.309   1.087   5.895
 2858TIP3    H1 8519   1.256   1.102   5.817
 2858TIP3    H2 8520   1.400   1.095   5.865
 2859TIP3   OH2 8521   1.902   2.608   4.354
 2859TIP3    H1 8522   1.991   2.584   4.325
 2859TIP3    H2 8523   1.856   2.525   4.359
 2860TIP3   OH2 8524   4.875   2.369   5.350
 2860TIP3    H1 8525   4.935   2.396   5.419
 2860TIP3    H2 8526   4.880   2.274   5.349
 2861TIP3   OH2 8527   6.833   7.762   5.006
 2861TIP3    H1 8528   6.852   7.762   5.100
 2861TIP3    H2 8529   6.906   7.809   4.967
 2862TIP3   OH2 8530   0.456   4.238   0.809
 2862TIP3    H1 8531   0.377   4.198   0.846
 2862TIP3    H2 8532   0.436   4.251   0.717
 2863TIP3   OH2 8533   1.236   7.513   5.820
 2863TIP3    H1 8534   1.144   7.537   5.832
 2863TIP3    H2 8535   1.281   7.597   5.806
 2864TIP3   OH2 8536   2.243   3.632   4.570
 2864TIP3    H1 8537   2.184   3.701   4.599
 2864TIP3    H2 8538   2.202   3.551   4.599
 2865TIP3   OH2 8539   7.043   1.871   3.198
 2865TIP3    H1 8540   7.054   1.890   3.291
 2865TIP3    H2 8541   6.954   1.836   3.190
 2866TIP3   OH2 8542   5.180   5.427   0.084
 2866TIP3    H1 8543   5.160   5.482   0.160
 2866TIP3    H2 8544   5.161   5.482   0.009
 2867TIP3   OH2 8545   4.337   3.995   4.054
 2867TIP3    H1 8546   4.398   3.986   4.126
 2867TIP3    H2 8547   4.276   4.063   4.082
 2868TIP3   OH2 8548   0.785   5.873   3.283
 2868TIP3    H1 8549   0.847   5.896   3.352
 2868TIP3    H2 8550   0.809   5.929   3.210
 2869TIP3   OH2 8551   4.155   6.728   0.728
 2869TIP3    H1 8552   4.140   6.701   0.638
 2869TIP3    H2 8553   4.249   6.723   0.740
 2870TIP3   OH2 8554   3.211   2.145   4.464
 2870TIP3    H1 8555   3.242   2.100   4.386
 2870TIP3    H2 8556   3.150   2.211   4.432
 2871TIP3   OH2 8557   3.022   4.747   0.457
 2871TIP3    H1 8558   3.010   4.790   0.541
 2871TIP3    H2 8559   3.066   4.664   0.478
 2872TIP3   OH2 8560   1.077   1.145   0.747
 2872TIP3    H1 8561   1.054   1.055   0.724
 2872TIP3    H2 8562   1.116   1.138   0.834
 2873TIP3   OH2 8563   6.715   6.764   0.491
 2873TIP3    H1 8564   6.738   6.726   0.576
 2873TIP3    H2 8565   6.798   6.796   0.456
 2874TIP3   OH2 8566   1.894   7.365   5.004
 2874TIP3    H1 8567   1.929   7.338   4.919
 2874TIP3    H2 8568   1.972   7.382   5.057
 2875TIP3   OH2 8569   5.592   5.000   2.338
 2875TIP3    H1 8570   5.606   4.933   2.404
 2875TIP3    H2 8571   5.658   4.983   2.271
 2876TIP3   OH2 8572   7.124   5.754   0.319
 2876TIP3    H1 8573   7.048   5.749   0.261
 2876TIP3    H2 8574   7.107   5.831   0.373
 2877TIP3   OH2 8575   4.535   2.751   4.941
 2877TIP3    H1 8576   4.573   2.706   4.866
 2877TIP3    H2 8577   4.582   2.835   4.945
 2878TIP3   OH2 8578   0.722   0.329   5.120
 2878TIP3    H1 8579   0.651   0.289   5.171
 2878TIP3    H2 8580   0.731   0.273   5.043
 2879TIP3   OH2 8581   0.780   4.570   2.558
 2879TIP3    H1 8582   0.769   4.628   2.482
 2879TIP3    H2 8583   0.706   4.592   2.615
 2880TIP3   OH2 8584   1.726   0.348   4.084
 2880TIP3    H1 8585   1.681   0.432   4.096
 2880TIP3    H2 8586   1.819   0.370   4.092
 2881TIP3   OH2 8587   6.700   3.056   0.336
 2881TIP3    H1 8588   6.779   3.002   0.331
 2881TIP3    H2 8589   6.725   3.130   0.392
 2882TIP3   OH2 8590   1.290   5.008   2.820
 2882TIP3    H1 8591   1.236   5.086   2.833
 2882TIP3    H2 8592   1.238   4.936   2.856
 2883TIP3   OH2 8593   4.845   0.543   3.418
 2883TIP3    H1 8594   4.798   0.590   3.488
 2883TIP3    H2 8595   4.938   0.557   3.439
 2884TIP3   OH2 8596   3.636   3.551   2.941
 2884TIP3    H1 8597   3.720   3.563   2.985
 2884TIP3    H2 8598   3.599   3.640   2.937
 2885TIP3   OH2 8599   1.249   2.241   6.043
 2885TIP3    H1 8600   1.262   2.332   6.069
 2885TIP3    H2 8601   1.293   2.234   5.958
 2886TIP3   OH2 8602   1.134   4.378   3.377
 2886TIP3    H1 8603   1.218   4.340   3.350
 2886TIP3    H2 8604   1.144   4.393   3.471
 2887TIP3   OH2 8605   8.170   1.332   1.091
 2887TIP3    H1 8606   8.207   1.338   1.002
 2887TIP3    H2 8607   8.118   1.252   1.090
 2888TIP3   OH2 8608   8.072   0.759   3.270
 2888TIP3    H1 8609   8.161   0.771   3.237
 2888TIP3    H2 8610   8.067   0.816   3.347
 2889TIP3   OH2 8611   1.760   1.875   1.397
 2889TIP3    H1 8612   1.745   1.968   1.386
 2889TIP3    H2 8613   1.734   1.857   1.488
 2890TIP3   OH2 8614   0.201   3.642   0.696
 2890TIP3    H1 8615   0.191   3.548   0.688
 2890TIP3    H2 8616   0.224   3.672   0.608
 2891TIP3   OH2 8617   7.128   6.937   0.648
 2891TIP3    H1 8618   7.212   6.979   0.629
 2891TIP3    H2 8619   7.135   6.850   0.608
 2892TIP3   OH2 8620   3.956   1.810   1.163
 2892TIP3    H1 8621   3.900   1.845   1.232
 2892TIP3    H2 8622   3.896   1.792   1.090
 2893TIP3   OH2 8623   2.203   3.439   2.876
 2893TIP3    H1 8624   2.202   3.348   2.905
 2893TIP3    H2 8625   2.111   3.464   2.871
 2894TIP3   OH2 8626   2.829   5.330   0.182
 2894TIP3    H1 8627   2.859   5.387   0.112
 2894TIP3    H2 8628   2.864   5.244   0.159
 2895TIP3   OH2 8629   4.489   2.391   1.268
 2895TIP3    H1 8630   4.424   2.321   1.263
 2895TIP3    H2 8631   4.557   2.365   1.206
 2896TIP3   OH2 8632   7.441   7.822   5.090
 2896TIP3    H1 8633   7.412   7.848   5.177
 2896TIP3    H2 8634   7.536   7.808   5.100
 2897TIP3   OH2 8635   6.825   7.611   5.304
 2897TIP3    H1 8636   6.860   7.533   5.346
 2897TIP3    H2 8637   6.771   7.577   5.233
 2898TIP3   OH2 8638   5.064   1.481   0.313
 2898TIP3    H1 8639   5.088   1.508   0.402
 2898TIP3    H2 8640   4.983   1.430   0.325
 2899TIP3   OH2 8641   7.424   7.865   1.605
 2899TIP3    H1 8642   7.386   7.838   1.689
 2899TIP3    H2 8643   7.424   7.785   1.552
 2900TIP3   OH2 8644   4.056   7.010   6.047
 2900TIP3    H1 8645   4.018   6.923   6.056
 2900TIP3    H2 8646   4.140   7.005   6.093
 2901TIP3   OH2 8647   0.212   4.650   6.425
 2901TIP3    H1 8648   0.171   4.585   6.368
 2901TIP3    H2 8649   0.215   4.608   6.511
 2902TIP3   OH2 8650   2.751   7.348   1.428
 2902TIP3    H1 8651   2.817   7.414   1.451
 2902TIP3    H2 8652   2.669   7.382   1.463
 2903TIP3   OH2 8653   4.462   4.442   6.574
 2903TIP3    H1 8654   4.428   4.477   6.656
 2903TIP3    H2 8655   4.387   4.400   6.533
 2904TIP3   OH2 8656   3.876   1.779   2.995
 2904TIP3    H1 8657   3.814   1.813   3.060
 2904TIP3    H2 8658   3.825   1.717   2.944
 2905TIP3   OH2 8659   0.921   3.596   4.036
 2905TIP3    H1 8660   0.841   3.544   4.021
 2905TIP3    H2 8661   0.929   3.649   3.957
 2906TIP3   OH2 8662   4.793   6.079   0.648
 2906TIP3    H1 8663   4.864   6.056   0.588
 2906TIP3    H2 8664   4.731   6.128   0.594
 2907TIP3   OH2 8665   7.655   5.388   3.384
 2907TIP3    H1 8666   7.622   5.456   3.443
 2907TIP3    H2 8667   7.746   5.411   3.369
 2908TIP3   OH2 8668   4.644   4.670   2.728
 2908TIP3    H1 8669   4.623   4.685   2.636
 2908TIP3    H2 8670   4.661   4.575   2.733
 2909TIP3   OH2 8671   2.560   2.529   5.101
 2909TIP3    H1 8672   2.634   2.588   5.115
 2909TIP3    H2 8673   2.574   2.493   5.013
 2910TIP3   OH2 8674   2.586   4.419   6.424
 2910TIP3    H1 8675   2.593   4.330   6.460
 2910TIP3    H2 8676   2.533   4.467   6.488
 2911TIP3   OH2 8677   6.544   5.347   1.802
 2911TIP3    H1 8678   6.459   5.303   1.801
 2911TIP3    H2 8679   6.523   5.440   1.797
 2912TIP3   OH2 8680   2.268   6.496   6.026
 2912TIP3    H1 8681   2.240   6.576   5.982
 2912TIP3    H2 8682   2.187   6.453   6.053
 2913TIP3   OH2 8683   2.545   6.531   2.536
 2913TIP3    H1 8684   2.631   6.564   2.561
 2913TIP3    H2 8685   2.562   6.445   2.499
 2914TIP3   OH2 8686   3.088   0.686   2.143
 2914TIP3    H1 8687   3.039   0.713   2.066
 2914TIP3    H2 8688   3.048   0.733   2.216
 2915TIP3   OH2 8689   0.159   3.536   2.184
 2915TIP3    H1 8690   0.072   3.565   2.212
 2915TIP3    H2 8691   0.146   3.502   2.095
 2916TIP3   OH2 8692   8.175   7.012   1.359
 2916TIP3    H1 8693   8.247   6.953   1.335
 2916TIP3    H2 8694   8.174   7.010   1.454
 2917TIP3   OH2 8695   6.228   4.283   5.081
 2917TIP3    H1 8696   6.238   4.247   4.993
 2917TIP3    H2 8697   6.158   4.232   5.121
 2918TIP3   OH2 8698   1.917   4.084   5.479
 2918TIP3    H1 8699   1.893   4.174   5.454
 2918TIP3    H2 8700   1.979   4.057   5.411
 2919TIP3   OH2 8701   0.905   1.503   5.961
 2919TIP3    H1 8702   0.871   1.591   5.943
 2919TIP3    H2 8703   0.854   1.473   6.036
 2920TIP3   OH2 8704   7.433   2.560   2.258
 2920TIP3    H1 8705   7.519   2.602   2.264
 2920TIP3    H2 8706   7.411   2.539   2.349
 2921TIP3   OH2 8707   3.254   2.576   4.461
 2921TIP3    H1 8708   3.290   2.639   4.523
 2921TIP3    H2 8709   3.293   2.492   4.487
 2922TIP3   OH2 8710   2.610   7.759   1.316
 2922TIP3    H1 8711   2.519   7.783   1.330
 2922TIP3    H2 8712   2.651   7.839   1.281
 2923TIP3   OH2 8713   7.874   0.914   6.724
 2923TIP3    H1 8714   7.911   1.000   6.707
 2923TIP3    H2 8715   7.799   0.907   6.665
 2924TIP3   OH2 8716   5.001   0.189   0.073
 2924TIP3    H1 8717   5.063   0.200   0.000
 2924TIP3    H2 8718   4.967   0.100   0.062
 2925TIP3   OH2 8719   0.525   1.829   0.154
 2925TIP3    H1 8720   0.530   1.773   0.232
 2925TIP3    H2 8721   0.617   1.845   0.131
 2926TIP3   OH2 8722   0.291   7.423   3.636
 2926TIP3    H1 8723   0.241   7.382   3.565
 2926TIP3    H2 8724   0.365   7.363   3.650
 2927TIP3   OH2 8725   3.682   7.510   3.122
 2927TIP3    H1 8726   3.759   7.481   3.073
 2927TIP3    H2 8727   3.608   7.487   3.067
 2928TIP3   OH2 8728   3.471   7.503   4.545
 2928TIP3    H1 8729   3.493   7.566   4.477
 2928TIP3    H2 8730   3.542   7.511   4.609
 2929TIP3   OH2 8731   1.682   1.922   2.488
 2929TIP3    H1 8732   1.673   1.866   2.565
 2929TIP3    H2 8733   1.759   1.889   2.442
 2930TIP3   OH2 8734   4.389   2.559   0.609
 2930TIP3    H1 8735   4.377   2.610   0.528
 2930TIP3    H2 8736   4.477   2.522   0.601
 2931TIP3   OH2 8737   7.388   3.759   1.518
 2931TIP3    H1 8738   7.366   3.774   1.426
 2931TIP3    H2 8739   7.472   3.713   1.516
 2932TIP3   OH2 8740   7.006   2.793   1.391
 2932TIP3    H1 8741   6.939   2.727   1.412
 2932TIP3    H2 8742   6.982   2.824   1.304
 2933TIP3   OH2 8743   7.933   4.573   0.801
 2933TIP3    H1 8744   7.872   4.523   0.746
 2933TIP3    H2 8745   7.996   4.610   0.739
 2934TIP3   OH2 8746   7.030   4.874   2.719
 2934TIP3    H1 8747   7.033   4.946   2.783
 2934TIP3    H2 8748   7.119   4.868   2.685
 2935TIP3   OH2 8749   5.105   3.144   1.465
 2935TIP3    H1 8750   5.045   3.175   1.533
 2935TIP3    H2 8751   5.064   3.170   1.383
 2936TIP3   OH2 8752   4.590   7.648   4.753
 2936TIP3    H1 8753   4.556   7.613   4.671
 2936TIP3    H2 8754   4.594   7.572   4.811
 2937TIP3   OH2 8755   0.161   6.823   5.072
 2937TIP3    H1 8756   0.244   6.846   5.030
 2937TIP3    H2 8757   0.125   6.753   5.017
 2938TIP3   OH2 8758   0.975   3.677   3.789
 2938TIP3    H1 8759   1.024   3.760   3.784
 2938TIP3    H2 8760   0.945   3.662   3.699
 2939TIP3   OH2 8761   1.259   3.401   5.839
 2939TIP3    H1 8762   1.228   3.369   5.924
 2939TIP3    H2 8763   1.208   3.480   5.824
 2940TIP3   OH2 8764   1.248   2.016   6.718
 2940TIP3    H1 8765   1.221   2.028   6.627
 2940TIP3    H2 8766   1.176   2.052   6.770
 2941TIP3   OH2 8767   0.748   4.241   2.432
 2941TIP3    H1 8768   0.736   4.212   2.342
 2941TIP3    H2 8769   0.785   4.329   2.424
 2942TIP3   OH2 8770   6.775   4.884   2.640
 2942TIP3    H1 8771   6.796   4.836   2.560
 2942TIP3    H2 8772   6.857   4.887   2.688
 2943TIP3   OH2 8773   0.520   1.459   5.830
 2943TIP3    H1 8774   0.534   1.379   5.880
 2943TIP3    H2 8775   0.599   1.466   5.775
 2944TIP3   OH2 8776   2.146   6.350   5.601
 2944TIP3    H1 8777   2.217   6.405   5.635
 2944TIP3    H2 8778   2.164   6.263   5.638
 2945TIP3   OH2 8779   3.408   2.463   0.415
 2945TIP3    H1 8780   3.329   2.410   0.411
 2945TIP3    H2 8781   3.454   2.446   0.333
 2946TIP3   OH2 8782   3.756   2.335   5.438
 2946TIP3    H1 8783   3.842   2.374   5.423
 2946TIP3    H2 8784   3.769   2.276   5.513
 2947TIP3   OH2 8785   7.961   4.063   4.590
 2947TIP3    H1 8786   8.046   4.057   4.633
 2947TIP3    H2 8787   7.911   4.124   4.644
 2948TIP3   OH2 8788   5.100   2.632   3.385
 2948TIP3    H1 8789   5.048   2.582   3.322
 2948TIP3    H2 8790   5.177   2.660   3.335
 2949TIP3   OH2 8791   4.537   5.187   2.599
 2949TIP3    H1 8792   4.466   5.251   2.607
 2949TIP3    H2 8793   4.616   5.240   2.587
 2950TIP3   OH2 8794   3.470   5.232   3.935
 2950TIP3    H1 8795   3.485   5.199   4.024
 2950TIP3    H2 8796   3.375   5.241   3.929
 2951TIP3   OH2 8797   0.987   1.318   6.595
 2951TIP3    H1 8798   0.917   1.373   6.560
 2951TIP3    H2 8799   1.009   1.258   6.524
 2952TIP3   OH2 8800   3.875   6.534   5.803
 2952TIP3    H1 8801   3.892   6.572   5.717
 2952TIP3    H2 8802   3.783   6.509   5.801
 2953TIP3   OH2 8803   2.880   6.700   4.779
 2953TIP3    H1 8804   2.837   6.616   4.795
 2953TIP3    H2 8805   2.969   6.678   4.754
 2954TIP3   OH2 8806   3.097   1.834   4.958
 2954TIP3    H1 8807   3.076   1.836   5.051
 2954TIP3    H2 8808   3.147   1.914   4.943
 2955TIP3   OH2 8809   5.686   1.863   0.651
 2955TIP3    H1 8810   5.603   1.851   0.604
 2955TIP3    H2 8811   5.753   1.833   0.590
 2956TIP3   OH2 8812   7.653   2.112   2.745
 2956TIP3    H1 8813   7.648   2.181   2.678
 2956TIP3    H2 8814   7.708   2.044   2.705
 2957TIP3   OH2 8815   6.125   0.561   6.708
 2957TIP3    H1 8816   6.075   0.489   6.670
 2957TIP3    H2 8817   6.059   0.615   6.751
 2958TIP3   OH2 8818   8.244   3.289   2.170
 2958TIP3    H1 8819   8.195   3.319   2.247
 2958TIP3    H2 8820   8.213   3.345   2.098
 2959TIP3   OH2 8821   3.089   7.621   4.952
 2959TIP3    H1 8822   3.064   7.529   4.943
 2959TIP3    H2 8823   3.138   7.641   4.872
 2960TIP3   OH2 8824   4.874   5.361   0.796
 2960TIP3    H1 8825   4.779   5.361   0.807
 2960TIP3    H2 8826   4.887   5.342   0.703
 2961TIP3   OH2 8827   1.431   4.684   2.898
 2961TIP3    H1 8828   1.340   4.708   2.913
 2961TIP3    H2 8829   1.440   4.685   2.803
 2962TIP3   OH2 8830   7.116   2.792   1.724
 2962TIP3    H1 8831   7.163   2.870   1.694
 2962TIP3    H2 8832   7.029   2.800   1.685
 2963TIP3   OH2 8833   6.583   2.974   3.412
 2963TIP3    H1 8834   6.521   2.951   3.480
 2963TIP3    H2 8835   6.541   3.045   3.364
 2964TIP3   OH2 8836   4.212   5.527   4.026
 2964TIP3    H1 8837   4.292   5.510   3.976
 2964TIP3    H2 8838   4.222   5.616   4.058
 2965TIP3   OH2 8839   0.420   5.574   5.612
 2965TIP3    H1 8840   0.434   5.590   5.519
 2965TIP3    H2 8841   0.346   5.513   5.615
 2966TIP3   OH2 8842   2.050   2.939   5.350
 2966TIP3    H1 8843   2.144   2.932   5.365
 2966TIP3    H2 8844   2.011   2.909   5.432
 2967TIP3   OH2 8845   1.469   6.985   2.190
 2967TIP3    H1 8846   1.527   7.031   2.129
 2967TIP3    H2 8847   1.438   7.053   2.249
 2968TIP3   OH2 8848   3.535   3.352   0.480
 2968TIP3    H1 8849   3.567   3.415   0.545
 2968TIP3    H2 8850   3.519   3.272   0.531
 2969TIP3   OH2 8851   8.288   1.540   1.266
 2969TIP3    H1 8852   8.218   1.477   1.250
 2969TIP3    H2 8853   8.285   1.600   1.191
 2970TIP3   OH2 8854   1.994   0.337   0.094
 2970TIP3    H1 8855   2.084   0.305   0.089
 2970TIP3    H2 8856   1.955   0.314   0.010
 2971TIP3   OH2 8857   4.900   0.100   1.761
 2971TIP3    H1 8858   4.939   0.126   1.677
 2971TIP3    H2 8859   4.846   0.024   1.740
 2972TIP3   OH2 8860   7.973   4.456   3.336
 2972TIP3    H1 8861   7.927   4.431   3.416
 2972TIP3    H2 8862   7.998   4.547   3.351
 2973TIP3   OH2 8863   6.087   4.823   2.488
 2973TIP3    H1 8864   6.180   4.829   2.467
 2973TIP3    H2 8865   6.077   4.877   2.566
 2974TIP3   OH2 8866   6.312   2.031   1.586
 2974TIP3    H1 8867   6.389   2.088   1.587
 2974TIP3    H2 8868   6.282   2.032   1.495
 2975TIP3   OH2 8869   8.199   6.669   2.421
 2975TIP3    H1 8870   8.176   6.695   2.332
 2975TIP3    H2 8871   8.128   6.612   2.449
 2976TIP3   OH2 8872   5.470   6.499   5.944
 2976TIP3    H1 8873   5.498   6.447   5.868
 2976TIP3    H2 8874   5.375   6.508   5.933
 2977TIP3   OH2 8875   7.604   6.822   5.580
 2977TIP3    H1 8876   7.609   6.915   5.555
 2977TIP3    H2 8877   7.541   6.820   5.652
 2978TIP3   OH2 8878   7.310   7.442   4.134
 2978TIP3    H1 8879   7.230   7.394   4.111
 2978TIP3    H2 8880   7.306   7.450   4.230
 2979TIP3   OH2 8881   2.700   1.707   6.480
 2979TIP3    H1 8882   2.774   1.767   6.490
 2979TIP3    H2 8883   2.623   1.761   6.493
 2980TIP3   OH2 8884   7.528   3.765   4.032
 2980TIP3    H1 8885   7.531   3.737   3.941
 2980TIP3    H2 8886   7.565   3.853   4.031
 2981TIP3   OH2 8887   7.492   3.486   6.702
 2981TIP3    H1 8888   7.470   3.545   6.630
 2981TIP3    H2 8889   7.586   3.500   6.717
 2982TIP3   OH2 8890   4.951   0.378   0.789
 2982TIP3    H1 8891   5.003   0.371   0.869
 2982TIP3    H2 8892   4.886   0.308   0.797
 2983TIP3   OH2 8893   5.557   4.317   4.397
 2983TIP3    H1 8894   5.613   4.310   4.320
 2983TIP3    H2 8895   5.605   4.374   4.457
 2984TIP3   OH2 8896   6.718   6.475   6.329
 2984TIP3    H1 8897   6.809   6.502   6.315
 2984TIP3    H2 8898   6.720   6.425   6.410
 2985TIP3   OH2 8899   7.897   1.301   4.170
 2985TIP3    H1 8900   7.948   1.356   4.229
 2985TIP3    H2 8901   7.850   1.241   4.228
 2986TIP3   OH2 8902   8.151   6.228   4.719
 2986TIP3    H1 8903   8.132   6.217   4.626
 2986TIP3    H2 8904   8.065   6.233   4.760
 2987TIP3   OH2 8905   3.379   4.257   4.759
 2987TIP3    H1 8906   3.403   4.324   4.696
 2987TIP3    H2 8907   3.408   4.291   4.844
 2988TIP3   OH2 8908   8.053   7.372   5.934
 2988TIP3    H1 8909   8.138   7.329   5.926
 2988TIP3    H2 8910   8.043   7.389   6.027
 2989TIP3   OH2 8911   5.379   5.189   1.492
 2989TIP3    H1 8912   5.289   5.157   1.479
 2989TIP3    H2 8913   5.376   5.235   1.575
 2990TIP3   OH2 8914   5.201   2.570   0.896
 2990TIP3    H1 8915   5.121   2.536   0.856
 2990TIP3    H2 8916   5.221   2.649   0.846
 2991TIP3   OH2 8917   1.049   0.711   4.818
 2991TIP3    H1 8918   0.988   0.669   4.879
 2991TIP3    H2 8919   0.994   0.766   4.762
 2992TIP3   OH2 8920   1.685   3.504   3.004
 2992TIP3    H1 8921   1.625   3.432   3.025
 2992TIP3    H2 8922   1.764   3.485   3.056
 2993TIP3   OH2 8923   5.333   0.660   1.616
 2993TIP3    H1 8924   5.290   0.575   1.607
 2993TIP3    H2 8925   5.272   0.723   1.576
 2994TIP3   OH2 8926   6.724   7.582   0.963
 2994TIP3    H1 8927   6.774   7.552   0.887
 2994TIP3    H2 8928   6.708   7.502   1.014
 2995TIP3   OH2 8929   0.937   2.108   3.338
 2995TIP3    H1 8930   0.880   2.068   3.272
 2995TIP3    H2 8931   1.022   2.116   3.294
 2996TIP3   OH2 8932   5.358   6.121   4.507
 2996TIP3    H1 8933   5.274   6.142   4.548
 2996TIP3    H2 8934   5.393   6.205   4.478
 2997TIP3   OH2 8935   4.104   0.886   5.890
 2997TIP3    H1 8936   4.062   0.842   5.816
 2997TIP3    H2 8937   4.067   0.845   5.967
 2998TIP3   OH2 8938   8.275   2.295   4.104
 2998TIP3    H1 8939   8.284   2.384   4.138
 2998TIP3    H2 8940   8.222   2.305   4.025
 2999TIP3   OH2 8941   8.230   7.372   4.587
 2999TIP3    H1 8942   8.245   7.377   4.493
 2999TIP3    H2 8943   8.182   7.290   4.600
 3000TIP3   OH2 8944   2.047   3.150   1.511
 3000TIP3    H1 8945   2.138   3.142   1.540
 3000TIP3    H2 8946   1.996   3.121   1.586
 3001TIP3   OH2 8947   1.751   5.625   3.597
 3001TIP3    H1 8948   1.731   5.531   3.602
 3001TIP3    H2 8949   1.830   5.635   3.650
 3002TIP3   OH2 8950   7.155   2.165   6.044
 3002TIP3    H1 8951   7.120   2.245   6.083
 3002TIP3    H2 8952   7.085   2.135   5.986
 3003TIP3   OH2 8953   6.209   6.611   2.322
 3003TIP3    H1 8954   6.165   6.625   2.238
 3003TIP3    H2 8955   6.301   6.595   2.299
 3004TIP3   OH2 8956   7.711   1.056   0.267
 3004TIP3    H1 8957   7.623   1.047   0.231
 3004TIP3    H2 8958   7.699   1.049   0.362
 3005TIP3   OH2 8959   5.092   0.999   0.857
 3005TIP3    H1 8960   4.997   1.001   0.847
 3005TIP3    H2 8961   5.108   0.927   0.918
 3006TIP3   OH2 8962   5.309   7.125   3.065
 3006TIP3    H1 8963   5.269   7.043   3.095
 3006TIP3    H2 8964   5.244   7.192   3.087
 3007TIP3   OH2 8965   5.565   6.059   1.675
 3007TIP3    H1 8966   5.626   6.087   1.744
 3007TIP3    H2 8967   5.602   5.977   1.642
 3008TIP3   OH2 8968   1.844   2.164   1.851
 3008TIP3    H1 8969   1.827   2.218   1.928
 3008TIP3    H2 8970   1.757   2.139   1.820
 3009TIP3   OH2 8971   4.082   5.490   5.447
 3009TIP3    H1 8972   4.140   5.414   5.444
 3009TIP3    H2 8973   4.012   5.470   5.385
 3010TIP3   OH2 8974   6.824   2.389   3.663
 3010TIP3    H1 8975   6.754   2.415   3.722
 3010TIP3    H2 8976   6.783   2.328   3.602
 3011TIP3   OH2 8977   0.572   0.936   4.136
 3011TIP3    H1 8978   0.661   0.913   4.109
 3011TIP3    H2 8979   0.583   0.994   4.211
 3012TIP3   OH2 8980   5.664   5.999   4.146
 3012TIP3    H1 8981   5.708   5.998   4.231
 3012TIP3    H2 8982   5.713   6.063   4.095
 3013TIP3   OH2 8983   1.903   3.465   1.855
 3013TIP3    H1 8984   1.970   3.458   1.787
 3013TIP3    H2 8985   1.821   3.446   1.809
 3014TIP3   OH2 8986   1.173   0.444   3.089
 3014TIP3    H1 8987   1.095   0.461   3.143
 3014TIP3    H2 8988   1.243   0.428   3.152
 3015TIP3   OH2 8989   5.355   2.936   2.359
 3015TIP3    H1 8990   5.352   2.875   2.285
 3015TIP3    H2 8991   5.352   3.023   2.319
 3016TIP3   OH2 8992   7.820   5.189   0.406
 3016TIP3    H1 8993   7.837   5.148   0.491
 3016TIP3    H2 8994   7.856   5.128   0.342
 3017TIP3   OH2 8995   2.445   4.745   4.819
 3017TIP3    H1 8996   2.504   4.788   4.756
 3017TIP3    H2 8997   2.358   4.775   4.795
 3018TIP3   OH2 8998   6.402   3.754   0.849
 3018TIP3    H1 8999   6.348   3.735   0.773
 3018TIP3    H2 9000   6.377   3.686   0.913
 3019TIP3   OH2 9001   4.550   0.891   4.927
 3019TIP3    H1 9002   4.470   0.859   4.969
 3019TIP3    H2 9003   4.556   0.840   4.846
 3020TIP3   OH2 9004   2.888   2.186   3.390
 3020TIP3    H1 9005   2.815   2.125   3.397
 3020TIP3    H2 9006   2.960   2.134   3.354
 3021TIP3   OH2 9007   7.572   5.146   2.260
 3021TIP3    H1 9008   7.571   5.234   2.298
 3021TIP3    H2 9009   7.665   5.127   2.249
 3022TIP3   OH2 9010   6.594   6.767   1.915
 3022TIP3    H1 9011   6.498   6.759   1.909
 3022TIP3    H2 9012   6.624   6.678   1.932
 3023TIP3   OH2 9013   2.540   2.168   6.237
 3023TIP3    H1 9014   2.549   2.137   6.147
 3023TIP3    H2 9015   2.552   2.262   6.232
 3024TIP3   OH2 9016   7.571   7.577   4.199
 3024TIP3    H1 9017   7.657   7.576   4.240
 3024TIP3    H2 9018   7.559   7.667   4.170
 3025TIP3   OH2 9019   3.917   3.203   6.280
 3025TIP3    H1 9020   3.923   3.109   6.269
 3025TIP3    H2 9021   3.826   3.218   6.307
 3026TIP3   OH2 9022   5.984   4.317   1.964
 3026TIP3    H1 9023   6.014   4.388   1.908
 3026TIP3    H2 9024   5.934   4.260   1.907
 3027TIP3   OH2 9025   0.638   0.894   0.532
 3027TIP3    H1 9026   0.644   0.936   0.618
 3027TIP3    H2 9027   0.589   0.814   0.548
 3028TIP3   OH2 9028   4.208   4.715   6.672
 3028TIP3    H1 9029   4.283   4.757   6.630
 3028TIP3    H2 9030   4.245   4.670   6.748
 3029TIP3   OH2 9031   6.045   3.483   6.584
 3029TIP3    H1 9032   6.114   3.545   6.561
 3029TIP3    H2 9033   6.003   3.461   6.500
 3030TIP3   OH2 9034   3.855   3.925   1.828
 3030TIP3    H1 9035   3.913   3.928   1.752
 3030TIP3    H2 9036   3.912   3.942   1.903
 3031TIP3   OH2 9037   4.182   1.540   3.269
 3031TIP3    H1 9038   4.270   1.501   3.270
 3031TIP3    H2 9039   4.173   1.574   3.180
 3032TIP3   OH2 9040   0.974   4.892   4.465
 3032TIP3    H1 9041   0.977   4.808   4.419
 3032TIP3    H2 9042   0.894   4.888   4.517
 3033TIP3   OH2 9043   5.269   4.066   4.549
 3033TIP3    H1 9044   5.262   4.011   4.627
 3033TIP3    H2 9045   5.246   4.007   4.477
 3034TIP3   OH2 9046   4.428   0.281   5.004
 3034TIP3    H1 9047   4.422   0.373   5.030
 3034TIP3    H2 9048   4.475   0.239   5.076
 3035TIP3   OH2 9049   5.233   2.317   5.131
 3035TIP3    H1 9050   5.284   2.380   5.080
 3035TIP3    H2 9051   5.269   2.325   5.220
 3036TIP3   OH2 9052   4.655   0.753   2.838
 3036TIP3    H1 9053   4.592   0.759   2.766
 3036TIP3    H2 9054   4.613   0.798   2.911
 3037TIP3   OH2 9055   7.453   1.283   0.284
 3037TIP3    H1 9056   7.425   1.191   0.284
 3037TIP3    H2 9057   7.527   1.285   0.344
 3038TIP3   OH2 9058   1.197   2.848   0.495
 3038TIP3    H1 9059   1.288   2.853   0.524
 3038TIP3    H2 9060   1.197   2.891   0.409
 3039TIP3   OH2 9061   2.001   0.354   3.268
 3039TIP3    H1 9062   1.967   0.277   3.223
 3039TIP3    H2 9063   1.954   0.428   3.229
 3040TIP3   OH2 9064   7.150   2.268   3.982
 3040TIP3    H1 9065   7.165   2.212   4.058
 3040TIP3    H2 9066   7.234   2.312   3.967
 3041TIP3   OH2 9067   3.936   4.184   1.504
 3041TIP3    H1 9068   3.977   4.220   1.426
 3041TIP3    H2 9069   3.870   4.249   1.528
 3042TIP3   OH2 9070   2.464   3.924   3.434
 3042TIP3    H1 9071   2.399   3.933   3.504
 3042TIP3    H2 9072   2.506   3.840   3.451
 3043TIP3   OH2 9073   5.194   4.878   2.745
 3043TIP3    H1 9074   5.221   4.892   2.835
 3043TIP3    H2 9075   5.108   4.838   2.751
 3044TIP3   OH2 9076   0.552   0.637   0.883
 3044TIP3    H1 9077   0.519   0.550   0.861
 3044TIP3    H2 9078   0.519   0.694   0.814
 3045TIP3   OH2 9079   1.299   5.624   1.560
 3045TIP3    H1 9080   1.356   5.669   1.499
 3045TIP3    H2 9081   1.246   5.565   1.506
 3046TIP3   OH2 9082   7.929   4.614   1.311
 3046TIP3    H1 9083   7.942   4.692   1.364
 3046TIP3    H2 9084   7.852   4.634   1.258
 3047TIP3   OH2 9085   6.339   2.618   2.994
 3047TIP3    H1 9086   6.345   2.694   2.936
 3047TIP3    H2 9087   6.253   2.581   2.977
 3048TIP3   OH2 9088   0.417   3.850   4.020
 3048TIP3    H1 9089   0.449   3.814   4.103
 3048TIP3    H2 9090   0.460   3.796   3.953
 3049TIP3   OH2 9091   4.431   1.174   4.517
 3049TIP3    H1 9092   4.455   1.161   4.609
 3049TIP3    H2 9093   4.353   1.120   4.505
 3050TIP3   OH2 9094   2.241   6.812   5.657
 3050TIP3    H1 9095   2.304   6.765   5.603
 3050TIP3    H2 9096   2.177   6.745   5.682
 3051TIP3   OH2 9097   2.944   4.402   3.452
 3051TIP3    H1 9098   2.895   4.365   3.379
 3051TIP3    H2 9099   2.886   4.391   3.527
 3052TIP3   OH2 9100   4.034   2.002   3.342
 3052TIP3    H1 9101   4.003   2.092   3.335
 3052TIP3    H2 9102   4.078   1.999   3.427
 3053TIP3   OH2 9103   2.904   1.605   6.308
 3053TIP3    H1 9104   2.837   1.599   6.240
 3053TIP3    H2 9105   2.865   1.662   6.375
 3054TIP3   OH2 9106   6.706   5.044   5.754
 3054TIP3    H1 9107   6.616   5.012   5.744
 3054TIP3    H2 9108   6.734   5.007   5.838
 3055TIP3   OH2 9109   3.040   1.317   4.603
 3055TIP3    H1 9110   2.979   1.389   4.618
 3055TIP3    H2 9111   3.099   1.350   4.535
 3056TIP3   OH2 9112   7.749   4.819   6.363
 3056TIP3    H1 9113   7.827   4.789   6.410
 3056TIP3    H2 9114   7.704   4.738   6.338
 3057TIP3   OH2 9115   5.683   5.649   3.299
 3057TIP3    H1 9116   5.696   5.703   3.221
 3057TIP3    H2 9117   5.608   5.593   3.277
 3058TIP3   OH2 9118   7.350   6.049   3.223
 3058TIP3    H1 9119   7.325   5.969   3.268
 3058TIP3    H2 9120   7.445   6.056   3.236
 3059TIP3   OH2 9121   3.412   3.114   5.715
 3059TIP3    H1 9122   3.437   3.162   5.794
 3059TIP3    H2 9123   3.491   3.067   5.690
 3060TIP3   OH2 9124   3.029   4.335   6.293
 3060TIP3    H1 9125   3.040   4.413   6.348
 3060TIP3    H2 9126   3.003   4.266   6.355
 3061TIP3   OH2 9127   4.451   6.459   0.161
 3061TIP3    H1 9128   4.444   6.375   0.207
 3061TIP3    H2 9129   4.445   6.436   0.069
 3062TIP3   OH2 9130   4.573   5.930   6.238
 3062TIP3    H1 9131   4.638   5.897   6.301
 3062TIP3    H2 9132   4.577   5.869   6.165
 3063TIP3   OH2 9133   7.421   3.227   5.435
 3063TIP3    H1 9134   7.385   3.277   5.361
 3063TIP3    H2 9135   7.475   3.291   5.482
 3064TIP3   OH2 9136   5.792   3.752   1.467
 3064TIP3    H1 9137   5.736   3.710   1.401
 3064TIP3    H2 9138   5.733   3.811   1.514
 3065TIP3   OH2 9139   3.155   5.408   6.475
 3065TIP3    H1 9140   3.212   5.456   6.536
 3065TIP3    H2 9141   3.198   5.323   6.464
 3066TIP3   OH2 9142   6.741   0.802   3.382
 3066TIP3    H1 9143   6.819   0.765   3.425
 3066TIP3    H2 9144   6.751   0.778   3.290
 3067TIP3   OH2 9145   4.694   2.973   1.375
 3067TIP3    H1 9146   4.747   3.015   1.308
 3067TIP3    H2 9147   4.692   3.036   1.447
 3068TIP3   OH2 9148   7.600   7.232   0.423
 3068TIP3    H1 9149   7.505   7.232   0.417
 3068TIP3    H2 9150   7.627   7.319   0.394
 3069TIP3   OH2 9151   7.190   0.900   1.617
 3069TIP3    H1 9152   7.238   0.971   1.660
 3069TIP3    H2 9153   7.116   0.883   1.676
 3070TIP3   OH2 9154   4.452   1.156   6.438
 3070TIP3    H1 9155   4.426   1.215   6.367
 3070TIP3    H2 9156   4.369   1.119   6.469
 3071TIP3   OH2 9157   0.672   1.297   2.710
 3071TIP3    H1 9158   0.578   1.284   2.698
 3071TIP3    H2 9159   0.711   1.211   2.696
 3072TIP3   OH2 9160   4.278   3.130   3.167
 3072TIP3    H1 9161   4.236   3.043   3.167
 3072TIP3    H2 9162   4.260   3.165   3.254
 3073TIP3   OH2 9163   8.230   2.059   1.384
 3073TIP3    H1 9164   8.322   2.035   1.376
 3073TIP3    H2 9165   8.212   2.053   1.478
 3074TIP3   OH2 9166   3.584   3.761   6.062
 3074TIP3    H1 9167   3.656   3.743   6.122
 3074TIP3    H2 9168   3.541   3.677   6.048
 3075TIP3   OH2 9169   7.465   1.340  -0.006
 3075TIP3    H1 9170   7.459   1.332   0.089
 3075TIP3    H2 9171   7.559   1.350  -0.023
 3076TIP3   OH2 9172   5.387   1.537   0.366
 3076TIP3    H1 9173   5.471   1.520   0.408
 3076TIP3    H2 9174   5.362   1.453   0.327
 3077TIP3   OH2 9175   6.739   0.950   1.518
 3077TIP3    H1 9176   6.655   0.944   1.472
 3077TIP3    H2 9177   6.799   0.987   1.453
 3078TIP3   OH2 9178   4.088   4.542   4.324
 3078TIP3    H1 9179   4.071   4.470   4.385
 3078TIP3    H2 9180   4.111   4.499   4.242
 3079TIP3   OH2 9181   5.786   7.647   2.759
 3079TIP3    H1 9182   5.867   7.622   2.714
 3079TIP3    H2 9183   5.789   7.743   2.762
 3080TIP3   OH2 9184   1.112   3.640   5.764
 3080TIP3    H1 9185   1.149   3.638   5.675
 3080TIP3    H2 9186   1.167   3.703   5.811
 3081TIP3   OH2 9187   3.062   2.514   0.957
 3081TIP3    H1 9188   3.060   2.422   0.981
 3081TIP3    H2 9189   3.067   2.514   0.861
 3082TIP3   OH2 9190   5.838   6.501   3.466
 3082TIP3    H1 9191   5.769   6.435   3.453
 3082TIP3    H2 9192   5.896   6.461   3.531
 3083TIP3   OH2 9193   6.177   0.206   2.515
 3083TIP3    H1 9194   6.173   0.179   2.607
 3083TIP3    H2 9195   6.257   0.167   2.481
 3084TIP3   OH2 9196   0.611   7.099   1.360
 3084TIP3    H1 9197   0.585   7.057   1.442
 3084TIP3    H2 9198   0.554   7.061   1.294
 3085TIP3   OH2 9199   7.133   1.952   2.455
 3085TIP3    H1 9200   7.186   1.873   2.451
 3085TIP3    H2 9201   7.098   1.953   2.544
 3086TIP3   OH2 9202   7.762   2.926   6.795
 3086TIP3    H1 9203   7.837   2.869   6.812
 3086TIP3    H2 9204   7.689   2.865   6.782
 3087TIP3   OH2 9205   3.658   6.548   4.784
 3087TIP3    H1 9206   3.735   6.495   4.804
 3087TIP3    H2 9207   3.595   6.486   4.748
 3088TIP3   OH2 9208   7.220   4.317   0.940
 3088TIP3    H1 9209   7.201   4.343   1.031
 3088TIP3    H2 9210   7.133   4.304   0.901
 3089TIP3   OH2 9211   0.418   7.772   0.782
 3089TIP3    H1 9212   0.404   7.687   0.741
 3089TIP3    H2 9213   0.466   7.751   0.863
 3090TIP3   OH2 9214   1.927   3.218   5.660
 3090TIP3    H1 9215   1.934   3.312   5.677
 3090TIP3    H2 9216   1.991   3.202   5.591
 3091TIP3   OH2 9217   1.519   6.118   5.605
 3091TIP3    H1 9218   1.486   6.150   5.521
 3091TIP3    H2 9219   1.517   6.023   5.597
 3092TIP3   OH2 9220   1.273   1.940   4.574
 3092TIP3    H1 9221   1.233   2.011   4.524
 3092TIP3    H2 9222   1.259   1.862   4.520
 3093TIP3   OH2 9223   5.617   1.295   1.565
 3093TIP3    H1 9224   5.650   1.380   1.594
 3093TIP3    H2 9225   5.548   1.273   1.628
 3094TIP3   OH2 9226   5.247   0.118   2.372
 3094TIP3    H1 9227   5.338   0.095   2.354
 3094TIP3    H2 9228   5.250   0.210   2.397
 3095TIP3   OH2 9229   4.928   0.472   3.740
 3095TIP3    H1 9230   4.930   0.491   3.834
 3095TIP3    H2 9231   4.871   0.395   3.732
 3096TIP3   OH2 9232   8.132   7.370   1.844
 3096TIP3    H1 9233   8.223   7.363   1.814
 3096TIP3    H2 9234   8.121   7.462   1.866
 3097TIP3   OH2 9235   0.394   3.289   4.757
 3097TIP3    H1 9236   0.483   3.294   4.724
 3097TIP3    H2 9237   0.359   3.208   4.719
 3098TIP3   OH2 9238   2.058   6.700   4.134
 3098TIP3    H1 9239   2.040   6.778   4.081
 3098TIP3    H2 9240   2.151   6.708   4.156
 3099TIP3   OH2 9241   6.516   0.993   5.941
 3099TIP3    H1 9242   6.558   1.074   5.911
 3099TIP3    H2 9243   6.539   0.986   6.033
 3100TIP3   OH2 9244   2.789   7.173   3.055
 3100TIP3    H1 9245   2.711   7.117   3.060
 3100TIP3    H2 9246   2.778   7.235   3.126
 3101TIP3   OH2 9247   5.212   3.257   1.189
 3101TIP3    H1 9248   5.166   3.265   1.106
 3101TIP3    H2 9249   5.243   3.166   1.190
 3102TIP3   OH2 9250   0.052   6.126   3.275
 3102TIP3    H1 9251   0.019   6.203   3.228
 3102TIP3    H2 9252   0.092   6.072   3.207
 3103TIP3   OH2 9253   5.760   4.810   1.485
 3103TIP3    H1 9254   5.730   4.780   1.571
 3103TIP3    H2 9255   5.753   4.733   1.429
 3104TIP3   OH2 9256   6.339   3.980   4.360
 3104TIP3    H1 9257   6.356   4.044   4.428
 3104TIP3    H2 9258   6.277   3.918   4.399
 3105TIP3   OH2 9259   0.441   5.316   5.331
 3105TIP3    H1 9260   0.424   5.232   5.290
 3105TIP3    H2 9261   0.536   5.319   5.343
 3106TIP3   OH2 9262   0.239   1.398   0.737
 3106TIP3    H1 9263   0.330   1.371   0.729
 3106TIP3    H2 9264   0.209   1.411   0.647
 3107TIP3   OH2 9265   7.388   0.812   1.219
 3107TIP3    H1 9266   7.425   0.817   1.131
 3107TIP3    H2 9267   7.464   0.802   1.277
 3108TIP3   OH2 9268   7.723   4.600   0.542
 3108TIP3    H1 9269   7.794   4.657   0.512
 3108TIP3    H2 9270   7.661   4.600   0.469
 3109TIP3   OH2 9271   6.346   6.844   2.465
 3109TIP3    H1 9272   6.376   6.848   2.555
 3109TIP3    H2 9273   6.278   6.776   2.465
 3110TIP3   OH2 9274   7.359   0.054   2.392
 3110TIP3    H1 9275   7.306   0.134   2.390
 3110TIP3    H2 9276   7.428   0.070   2.328
 3111TIP3   OH2 9277   4.803   1.133   3.281
 3111TIP3    H1 9278   4.798   1.051   3.331
 3111TIP3    H2 9279   4.763   1.113   3.197
 3112TIP3   OH2 9280   6.494   2.914   0.440
 3112TIP3    H1 9281   6.553   2.968   0.387
 3112TIP3    H2 9282   6.513   2.824   0.413
 3113TIP3   OH2 9283   3.446   4.802   3.007
 3113TIP3    H1 9284   3.428   4.726   3.062
 3113TIP3    H2 9285   3.421   4.774   2.919
 3114TIP3   OH2 9286   5.994   4.982   0.241
 3114TIP3    H1 9287   6.061   4.978   0.309
 3114TIP3    H2 9288   6.015   4.909   0.183
 3115TIP3   OH2 9289   0.337   4.180   0.525
 3115TIP3    H1 9290   0.302   4.092   0.536
 3115TIP3    H2 9291   0.416   4.168   0.472
 3116TIP3   OH2 9292   1.160   7.513   2.704
 3116TIP3    H1 9293   1.139   7.573   2.775
 3116TIP3    H2 9294   1.122   7.429   2.731
 3117TIP3   OH2 9295   1.329   2.490   6.490
 3117TIP3    H1 9296   1.389   2.527   6.425
 3117TIP3    H2 9297   1.347   2.397   6.490
 3118TIP3   OH2 9298   6.214   4.067   5.717
 3118TIP3    H1 9299   6.122   4.054   5.741
 3118TIP3    H2 9300   6.246   4.133   5.778
 3119TIP3   OH2 9301   5.752   6.375   3.765
 3119TIP3    H1 9302   5.831   6.429   3.769
 3119TIP3    H2 9303   5.680   6.439   3.761
 3120TIP3   OH2 9304   5.159   3.821   2.050
 3120TIP3    H1 9305   5.085   3.794   1.996
 3120TIP3    H2 9306   5.141   3.913   2.071
 3121TIP3   OH2 9307   5.162   3.141   3.808
 3121TIP3    H1 9308   5.159   3.149   3.904
 3121TIP3    H2 9309   5.254   3.124   3.788
 3122TIP3   OH2 9310   0.466   4.405   2.458
 3122TIP3    H1 9311   0.402   4.335   2.446
 3122TIP3    H2 9312   0.528   4.370   2.522
 3123TIP3   OH2 9313   7.115   3.094   6.105
 3123TIP3    H1 9314   7.146   3.038   6.034
 3123TIP3    H2 9315   7.028   3.061   6.126
 3124TIP3   OH2 9316   8.003   4.017   6.691
 3124TIP3    H1 9317   8.030   3.926   6.693
 3124TIP3    H2 9318   8.085   4.067   6.695
 3125TIP3   OH2 9319   3.715   6.129   3.457
 3125TIP3    H1 9320   3.672   6.204   3.497
 3125TIP3    H2 9321   3.785   6.167   3.404
 3126TIP3   OH2 9322   3.769   0.452   0.049
 3126TIP3    H1 9323   3.758   0.471   0.142
 3126TIP3    H2 9324   3.705   0.507   0.005
 3127TIP3   OH2 9325   6.376   6.751   4.344
 3127TIP3    H1 9326   6.464   6.713   4.339
 3127TIP3    H2 9327   6.348   6.734   4.433
 3128TIP3   OH2 9328   5.500   7.137   4.189
 3128TIP3    H1 9329   5.508   7.226   4.155
 3128TIP3    H2 9330   5.406   7.125   4.205
 3129TIP3   OH2 9331   5.859   5.837   3.431
 3129TIP3    H1 9332   5.827   5.749   3.413
 3129TIP3    H2 9333   5.809   5.894   3.372
 3130TIP3   OH2 9334   7.207   4.176   2.610
 3130TIP3    H1 9335   7.153   4.129   2.673
 3130TIP3    H2 9336   7.235   4.255   2.657
 3131TIP3   OH2 9337   0.323   6.474   1.687
 3131TIP3    H1 9338   0.333   6.541   1.755
 3131TIP3    H2 9339   0.413   6.445   1.670
 3132TIP3   OH2 9340   6.623   3.832   5.565
 3132TIP3    H1 9341   6.535   3.808   5.595
 3132TIP3    H2 9342   6.670   3.855   5.646
 3133TIP3   OH2 9343   1.008   4.034   0.419
 3133TIP3    H1 9344   1.097   4.040   0.455
 3133TIP3    H2 9345   1.015   4.074   0.333
 3134TIP3   OH2 9346   3.436   6.899   3.009
 3134TIP3    H1 9347   3.476   6.838   2.947
 3134TIP3    H2 9348   3.443   6.985   2.966
 3135TIP3   OH2 9349   2.102   7.388   5.189
 3135TIP3    H1 9350   2.118   7.418   5.279
 3135TIP3    H2 9351   2.164   7.316   5.177
 3136TIP3   OH2 9352   6.285   1.265   2.157
 3136TIP3    H1 9353   6.270   1.325   2.084
 3136TIP3    H2 9354   6.282   1.320   2.235
 3137TIP3   OH2 9355   2.786   4.149   3.668
 3137TIP3    H1 9356   2.716   4.160   3.603
 3137TIP3    H2 9357   2.858   4.109   3.619
 3138TIP3   OH2 9358   4.119   1.495   1.566
 3138TIP3    H1 9359   4.107   1.521   1.657
 3138TIP3    H2 9360   4.160   1.571   1.524
 3139TIP3   OH2 9361   8.030   2.678   2.331
 3139TIP3    H1 9362   8.030   2.664   2.425
 3139TIP3    H2 9363   8.035   2.773   2.321
 3140TIP3   OH2 9364   3.718   1.302   1.864
 3140TIP3    H1 9365   3.786   1.367   1.882
 3140TIP3    H2 9366   3.739   1.268   1.777
 3141TIP3   OH2 9367   0.444   5.438   3.513
 3141TIP3    H1 9368   0.391   5.448   3.434
 3141TIP3    H2 9369   0.534   5.444   3.481
 3142TIP3   OH2 9370   3.704   7.671   4.600
 3142TIP3    H1 9371   3.697   7.594   4.656
 3142TIP3    H2 9372   3.795   7.669   4.569
 3143TIP3   OH2 9373   7.495   7.619   1.395
 3143TIP3    H1 9374   7.563   7.685   1.411
 3143TIP3    H2 9375   7.444   7.654   1.322
 3144TIP3   OH2 9376   5.567   2.035   0.860
 3144TIP3    H1 9377   5.616   2.049   0.941
 3144TIP3    H2 9378   5.633   2.004   0.798
 3145TIP3   OH2 9379   5.180   3.077   2.087
 3145TIP3    H1 9380   5.104   3.129   2.060
 3145TIP3    H2 9381   5.144   3.005   2.136
 3146TIP3   OH2 9382   8.196   7.265   1.495
 3146TIP3    H1 9383   8.164   7.228   1.413
 3146TIP3    H2 9384   8.127   7.325   1.524
 3147TIP3   OH2 9385   1.587   3.653   4.590
 3147TIP3    H1 9386   1.492   3.649   4.601
 3147TIP3    H2 9387   1.600   3.718   4.521
 3148TIP3   OH2 9388   6.155   3.611   0.440
 3148TIP3    H1 9389   6.149   3.657   0.356
 3148TIP3    H2 9390   6.099   3.534   0.429
 3149TIP3   OH2 9391   0.791   5.576   0.855
 3149TIP3    H1 9392   0.818   5.650   0.802
 3149TIP3    H2 9393   0.870   5.523   0.865
 3150TIP3   OH2 9394   4.526   6.641   1.528
 3150TIP3    H1 9395   4.602   6.588   1.551
 3150TIP3    H2 9396   4.527   6.713   1.591
 3151TIP3   OH2 9397   5.841   5.607   0.553
 3151TIP3    H1 9398   5.926   5.583   0.516
 3151TIP3    H2 9399   5.860   5.681   0.610
 3152TIP3   OH2 9400   3.231   4.792   5.056
 3152TIP3    H1 9401   3.229   4.741   5.138
 3152TIP3    H2 9402   3.142   4.782   5.021
 3153TIP3   OH2 9403   6.756   6.114   5.728
 3153TIP3    H1 9404   6.832   6.068   5.692
 3153TIP3    H2 9405   6.690   6.108   5.659
 3154TIP3   OH2 9406   5.706   3.255   3.438
 3154TIP3    H1 9407   5.649   3.331   3.448
 3154TIP3    H2 9408   5.656   3.182   3.474
 3155TIP3   OH2 9409   5.677   2.185   0.509
 3155TIP3    H1 9410   5.641   2.135   0.583
 3155TIP3    H2 9411   5.772   2.177   0.518
 3156TIP3   OH2 9412   1.531   1.574   5.812
 3156TIP3    H1 9413   1.458   1.635   5.815
 3156TIP3    H2 9414   1.537   1.540   5.902
 3157TIP3   OH2 9415   7.302   2.775   3.277
 3157TIP3    H1 9416   7.275   2.774   3.369
 3157TIP3    H2 9417   7.308   2.867   3.255
 3158TIP3   OH2 9418   1.785   0.760   5.098
 3158TIP3    H1 9419   1.871   0.738   5.063
 3158TIP3    H2 9420   1.803   0.809   5.178
 3159TIP3   OH2 9421   1.911   6.481   4.110
 3159TIP3    H1 9422   1.887   6.449   4.023
 3159TIP3    H2 9423   1.952   6.566   4.093
 3160TIP3   OH2 9424   4.819   6.510   6.253
 3160TIP3    H1 9425   4.827   6.563   6.333
 3160TIP3    H2 9426   4.884   6.547   6.193
 3161TIP3   OH2 9427   4.301   6.058   6.454
 3161TIP3    H1 9428   4.273   6.038   6.544
 3161TIP3    H2 9429   4.351   6.139   6.462
 3162TIP3   OH2 9430   2.665   2.143   1.600
 3162TIP3    H1 9431   2.760   2.157   1.595
 3162TIP3    H2 9432   2.644   2.156   1.692
 3163TIP3   OH2 9433   7.038   6.678   2.307
 3163TIP3    H1 9434   7.104   6.643   2.366
 3163TIP3    H2 9435   7.026   6.610   2.241
 3164TIP3   OH2 9436   2.684   5.447   1.054
 3164TIP3    H1 9437   2.610   5.395   1.026
 3164TIP3    H2 9438   2.746   5.443   0.981
 3165TIP3   OH2 9439   4.130   1.428   4.504
 3165TIP3    H1 9440   4.068   1.375   4.555
 3165TIP3    H2 9441   4.211   1.425   4.555
 3166TIP3   OH2 9442   5.783   3.550   1.050
 3166TIP3    H1 9443   5.839   3.521   1.121
 3166TIP3    H2 9444   5.786   3.645   1.054
 3167TIP3   OH2 9445   2.475   7.599   6.217
 3167TIP3    H1 9446   2.511   7.519   6.255
 3167TIP3    H2 9447   2.432   7.643   6.291
 3168TIP3   OH2 9448   2.756   5.573   2.610
 3168TIP3    H1 9449   2.670   5.532   2.616
 3168TIP3    H2 9450   2.818   5.500   2.613
 3169TIP3   OH2 9451   6.486   5.264   3.372
 3169TIP3    H1 9452   6.574   5.228   3.383
 3169TIP3    H2 9453   6.468   5.258   3.278
 3170TIP3   OH2 9454   3.250   1.458   1.603
 3170TIP3    H1 9455   3.300   1.481   1.681
 3170TIP3    H2 9456   3.309   1.476   1.530
 3171TIP3   OH2 9457   1.647   3.113   3.139
 3171TIP3    H1 9458   1.637   3.193   3.191
 3171TIP3    H2 9459   1.595   3.128   3.060
 3172TIP3   OH2 9460   8.099   5.722   5.966
 3172TIP3    H1 9461   8.018   5.675   5.945
 3172TIP3    H2 9462   8.128   5.684   6.048
 3173TIP3   OH2 9463   1.882   1.067   1.188
 3173TIP3    H1 9464   1.866   1.102   1.276
 3173TIP3    H2 9465   1.838   0.982   1.188
 3174TIP3   OH2 9466   2.365   6.503   5.659
 3174TIP3    H1 9467   2.411   6.571   5.709
 3174TIP3    H2 9468   2.424   6.484   5.585
 3175TIP3   OH2 9469   7.874   1.747   6.468
 3175TIP3    H1 9470   7.910   1.765   6.555
 3175TIP3    H2 9471   7.941   1.776   6.407
 3176TIP3   OH2 9472   0.896   1.650   3.066
 3176TIP3    H1 9473   0.850   1.598   3.000
 3176TIP3    H2 9474   0.854   1.628   3.149
 3177TIP3   OH2 9475   0.842   2.584   5.894
 3177TIP3    H1 9476   0.817   2.556   5.982
 3177TIP3    H2 9477   0.934   2.607   5.902
 3178TIP3   OH2 9478   3.585   5.364   1.501
 3178TIP3    H1 9479   3.496   5.329   1.493
 3178TIP3    H2 9480   3.592   5.391   1.593
 3179TIP3   OH2 9481   6.503   0.573   2.769
 3179TIP3    H1 9482   6.451   0.556   2.848
 3179TIP3    H2 9483   6.589   0.535   2.789
 3180TIP3   OH2 9484   7.684   4.604   4.451
 3180TIP3    H1 9485   7.605   4.646   4.486
 3180TIP3    H2 9486   7.691   4.638   4.362
 3181TIP3   OH2 9487   3.048   7.162   4.119
 3181TIP3    H1 9488   3.025   7.083   4.071
 3181TIP3    H2 9489   3.143   7.160   4.125
 3182TIP3   OH2 9490   7.777   6.854   6.253
 3182TIP3    H1 9491   7.830   6.831   6.176
 3182TIP3    H2 9492   7.827   6.822   6.327
 3183TIP3   OH2 9493   0.240   1.619   3.731
 3183TIP3    H1 9494   0.251   1.664   3.815
 3183TIP3    H2 9495   0.328   1.617   3.693
 3184TIP3   OH2 9496   2.898   3.385   3.343
 3184TIP3    H1 9497   2.949   3.345   3.413
 3184TIP3    H2 9498   2.818   3.416   3.386
 3185TIP3   OH2 9499   7.444   2.820   6.062
 3185TIP3    H1 9500   7.415   2.873   6.137
 3185TIP3    H2 9501   7.378   2.752   6.054
 3186TIP3   OH2 9502   6.549   2.648   6.602
 3186TIP3    H1 9503   6.642   2.640   6.625
 3186TIP3    H2 9504   6.503   2.616   6.680
 3187TIP3   OH2 9505   1.688   5.435   0.292
 3187TIP3    H1 9506   1.635   5.419   0.213
 3187TIP3    H2 9507   1.774   5.459   0.258
 3188TIP3   OH2 9508   4.020   0.270   0.836
 3188TIP3    H1 9509   3.973   0.187   0.838
 3188TIP3    H2 9510   3.951   0.336   0.834
 3189TIP3   OH2 9511   2.421   2.266   3.682
 3189TIP3    H1 9512   2.394   2.196   3.742
 3189TIP3    H2 9513   2.467   2.328   3.738
 3190TIP3   OH2 9514   6.986   4.763   3.057
 3190TIP3    H1 9515   6.976   4.698   2.987
 3190TIP3    H2 9516   6.980   4.713   3.138
 3191TIP3   OH2 9517   6.136   1.913   3.053
 3191TIP3    H1 9518   6.098   1.872   3.130
 3191TIP3    H2 9519   6.090   1.873   2.979
 3192TIP3   OH2 9520   0.937   2.631   2.449
 3192TIP3    H1 9521   0.965   2.598   2.535
 3192TIP3    H2 9522   0.851   2.670   2.466
 3193TIP3   OH2 9523   6.280   6.203   6.721
 3193TIP3    H1 9524   6.273   6.269   6.790
 3193TIP3    H2 9525   6.338   6.242   6.656
 3194TIP3   OH2 9526   2.843   3.222   4.534
 3194TIP3    H1 9527   2.905   3.288   4.505
 3194TIP3    H2 9528   2.814   3.252   4.620
 3195TIP3   OH2 9529  -0.014   3.328   5.881
 3195TIP3    H1 9530  -0.009   3.424   5.881
 3195TIP3    H2 9531   0.067   3.300   5.923
 3196TIP3   OH2 9532   7.125   5.299   2.705
 3196TIP3    H1 9533   7.145   5.236   2.636
 3196TIP3    H2 9534   7.194   5.288   2.770
 3197TIP3   OH2 9535   6.281   5.105   2.902
 3197TIP3    H1 9536   6.301   5.176   2.963
 3197TIP3    H2 9537   6.364   5.059   2.890
 3198TIP3   OH2 9538   8.112   6.076   1.905
 3198TIP3    H1 9539   8.148   6.153   1.949
 3198TIP3    H2 9540   8.112   6.098   1.812
 3199TIP3   OH2 9541   7.198   1.684   5.520
 3199TIP3    H1 9542   7.272   1.633   5.551
 3199TIP3    H2 9543   7.125   1.657   5.575
 3200TIP3   OH2 9544   1.155   5.218   2.984
 3200TIP3    H1 9545   1.111   5.142   3.024
 3200TIP3    H2 9546   1.203   5.259   3.056
 3201TIP3   OH2 9547   0.992   6.915   4.119
 3201TIP3    H1 9548   1.087   6.908   4.108
 3201TIP3    H2 9549   0.969   6.996   4.074
 3202TIP3   OH2 9550   2.394   7.132   3.298
 3202TIP3    H1 9551   2.388   7.117   3.204
 3202TIP3    H2 9552   2.412   7.225   3.307
 3203TIP3   OH2 9553   7.049   2.119   2.248
 3203TIP3    H1 9554   7.012   2.034   2.222
 3203TIP3    H2 9555   7.076   2.106   2.339
 3204TIP3   OH2 9556   0.553   5.624   1.963
 3204TIP3    H1 9557   0.628   5.577   1.927
 3204TIP3    H2 9558   0.538   5.696   1.902
 3205TIP3   OH2 9559   6.580   2.359   3.781
 3205TIP3    H1 9560   6.492   2.381   3.813
 3205TIP3    H2 9561   6.614   2.296   3.845
 3206TIP3   OH2 9562   1.092   4.707   0.776
 3206TIP3    H1 9563   1.148   4.765   0.726
 3206TIP3    H2 9564   1.040   4.660   0.711
 3207TIP3   OH2 9565   2.770   3.541   6.670
 3207TIP3    H1 9566   2.827   3.596   6.722
 3207TIP3    H2 9567   2.817   3.458   6.661
 3208TIP3   OH2 9568   2.394   1.263   2.961
 3208TIP3    H1 9569   2.360   1.352   2.956
 3208TIP3    H2 9570   2.324   1.209   2.923
 3209TIP3   OH2 9571   0.459   5.052   3.501
 3209TIP3    H1 9572   0.369   5.085   3.496
 3209TIP3    H2 9573   0.452   4.970   3.549
 3210TIP3   OH2 9574   2.529   6.396   5.963
 3210TIP3    H1 9575   2.445   6.427   5.997
 3210TIP3    H2 9576   2.579   6.374   6.042
 3211TIP3   OH2 9577   7.959   6.675   5.462
 3211TIP3    H1 9578   7.914   6.682   5.546
 3211TIP3    H2 9579   8.013   6.596   5.470
 3212TIP3   OH2 9580   5.575   0.513   3.391
 3212TIP3    H1 9581   5.649   0.572   3.404
 3212TIP3    H2 9582   5.505   0.552   3.443
 3213TIP3   OH2 9583   7.129   0.761   0.885
 3213TIP3    H1 9584   7.197   0.739   0.821
 3213TIP3    H2 9585   7.166   0.735   0.969
 3214TIP3   OH2 9586   3.986   5.351   3.567
 3214TIP3    H1 9587   3.929   5.357   3.643
 3214TIP3    H2 9588   4.068   5.393   3.595
 3215TIP3   OH2 9589   4.740   6.742   0.146
 3215TIP3    H1 9590   4.654   6.760   0.108
 3215TIP3    H2 9591   4.790   6.822   0.129
 3216TIP3   OH2 9592   3.653   4.718   5.088
 3216TIP3    H1 9593   3.574   4.693   5.137
 3216TIP3    H2 9594   3.682   4.636   5.047
 3217TIP3   OH2 9595   4.681   4.616   0.748
 3217TIP3    H1 9596   4.699   4.603   0.842
 3217TIP3    H2 9597   4.630   4.539   0.723
 3218TIP3   OH2 9598   1.211   3.874   0.585
 3218TIP3    H1 9599   1.280   3.894   0.648
 3218TIP3    H2 9600   1.134   3.855   0.639
 3219TIP3   OH2 9601   6.212   0.713   3.429
 3219TIP3    H1 9602   6.299   0.736   3.462
 3219TIP3    H2 9603   6.218   0.619   3.411
 3220TIP3   OH2 9604   4.178   7.195   4.061
 3220TIP3    H1 9605   4.193   7.256   4.133
 3220TIP3    H2 9606   4.259   7.197   4.010
 3221TIP3   OH2 9607   1.412   1.147   3.322
 3221TIP3    H1 9608   1.461   1.106   3.394
 3221TIP3    H2 9609   1.428   1.091   3.247
 3222TIP3   OH2 9610   0.497   6.173   4.973
 3222TIP3    H1 9611   0.500   6.268   4.965
 3222TIP3    H2 9612   0.546   6.140   4.898
 3223TIP3   OH2 9613   0.592   2.450   6.363
 3223TIP3    H1 9614   0.532   2.381   6.392
 3223TIP3    H2 9615   0.670   2.438   6.417
 3224TIP3   OH2 9616   2.241   2.184   2.851
 3224TIP3    H1 9617   2.290   2.141   2.781
 3224TIP3    H2 9618   2.150   2.159   2.837
 3225TIP3   OH2 9619   5.205   3.704   3.460
 3225TIP3    H1 9620   5.201   3.679   3.553
 3225TIP3    H2 9621   5.189   3.623   3.413
 3226TIP3   OH2 9622   3.256   5.376   2.829
 3226TIP3    H1 9623   3.292   5.437   2.765
 3226TIP3    H2 9624   3.330   5.352   2.885
 3227TIP3   OH2 9625   7.563   1.078   2.467
 3227TIP3    H1 9626   7.558   1.111   2.377
 3227TIP3    H2 9627   7.570   0.983   2.456
 3228TIP3   OH2 9628   0.569   4.347   1.160
 3228TIP3    H1 9629   0.583   4.334   1.254
 3228TIP3    H2 9630   0.565   4.259   1.124
 3229TIP3   OH2 9631   7.584   0.250   5.820
 3229TIP3    H1 9632   7.672   0.265   5.855
 3229TIP3    H2 9633   7.589   0.165   5.778
 3230TIP3   OH2 9634   6.684   1.189   2.602
 3230TIP3    H1 9635   6.687   1.101   2.563
 3230TIP3    H2 9636   6.596   1.221   2.583
 3231TIP3   OH2 9637   6.508   1.547   0.112
 3231TIP3    H1 9638   6.516   1.642   0.098
 3231TIP3    H2 9639   6.436   1.521   0.055
 3232TIP3   OH2 9640   6.229   4.408   6.619
 3232TIP3    H1 9641   6.171   4.431   6.692
 3232TIP3    H2 9642   6.189   4.331   6.580
 3233TIP3   OH2 9643   0.944   7.679   6.428
 3233TIP3    H1 9644   1.000   7.605   6.451
 3233TIP3    H2 9645   0.998   7.756   6.444
 3234TIP3   OH2 9646   7.654   2.616   0.986
 3234TIP3    H1 9647   7.639   2.708   0.964
 3234TIP3    H2 9648   7.606   2.568   0.919
 3235TIP3   OH2 9649   1.991   3.224   4.356
 3235TIP3    H1 9650   2.020   3.212   4.266
 3235TIP3    H2 9651   2.043   3.161   4.406
 3236TIP3   OH2 9652   1.339   2.232   2.222
 3236TIP3    H1 9653   1.281   2.281   2.280
 3236TIP3    H2 9654   1.346   2.145   2.262
 3237TIP3   OH2 9655   1.049   7.148   1.661
 3237TIP3    H1 9656   1.037   7.241   1.641
 3237TIP3    H2 9657   1.020   7.139   1.752
 3238TIP3   OH2 9658   4.921   7.287   3.794
 3238TIP3    H1 9659   4.847   7.284   3.733
 3238TIP3    H2 9660   4.970   7.365   3.769
 3239TIP3   OH2 9661   7.093   5.084   1.997
 3239TIP3    H1 9662   7.140   5.091   1.914
 3239TIP3    H2 9663   7.150   5.126   2.061
 3240TIP3   OH2 9664   4.273   4.887   4.605
 3240TIP3    H1 9665   4.306   4.860   4.519
 3240TIP3    H2 9666   4.304   4.819   4.664
 3241TIP3   OH2 9667   2.306   2.351   1.075
 3241TIP3    H1 9668   2.378   2.288   1.066
 3241TIP3    H2 9669   2.330   2.423   1.018
 3242TIP3   OH2 9670   2.701   2.991   3.196
 3242TIP3    H1 9671   2.775   2.932   3.186
 3242TIP3    H2 9672   2.711   3.055   3.126
 3243TIP3   OH2 9673   2.188   5.120   5.449
 3243TIP3    H1 9674   2.116   5.059   5.462
 3243TIP3    H2 9675   2.224   5.097   5.363
 3244TIP3   OH2 9676   3.495   1.048   2.808
 3244TIP3    H1 9677   3.462   1.131   2.842
 3244TIP3    H2 9678   3.417   1.001   2.780
 3245TIP3   OH2 9679   1.624   5.257   5.425
 3245TIP3    H1 9680   1.580   5.291   5.346
 3245TIP3    H2 9681   1.607   5.323   5.492
 3246TIP3   OH2 9682   1.346   0.517   3.285
 3246TIP3    H1 9683   1.302   0.554   3.361
 3246TIP3    H2 9684   1.426   0.478   3.320
 3247TIP3   OH2 9685   5.909   1.275   2.070
 3247TIP3    H1 9686   5.962   1.202   2.101
 3247TIP3    H2 9687   5.820   1.255   2.100
 3248TIP3   OH2 9688   0.504   7.621   2.088
 3248TIP3    H1 9689   0.538   7.537   2.118
 3248TIP3    H2 9690   0.481   7.606   1.997
 3249TIP3   OH2 9691   6.980   0.576   4.246
 3249TIP3    H1 9692   7.065   0.566   4.290
 3249TIP3    H2 9693   6.946   0.487   4.242
 3250TIP3   OH2 9694   6.601   0.037   3.650
 3250TIP3    H1 9695   6.591  -0.055   3.629
 3250TIP3    H2 9696   6.690   0.045   3.684
 3251TIP3   OH2 9697   5.750   6.096   1.356
 3251TIP3    H1 9698   5.775   6.012   1.395
 3251TIP3    H2 9699   5.662   6.081   1.321
 3252TIP3   OH2 9700   5.299   2.381   1.311
 3252TIP3    H1 9701   5.321   2.474   1.305
 3252TIP3    H2 9702   5.281   2.355   1.220
 3253TIP3   OH2 9703   6.138   4.742   5.191
 3253TIP3    H1 9704   6.058   4.700   5.222
 3253TIP3    H2 9705   6.208   4.680   5.214
 3254TIP3   OH2 9706   4.760   3.395   3.679
 3254TIP3    H1 9707   4.833   3.333   3.666
 3254TIP3    H2 9708   4.802   3.481   3.682
 3255TIP3   OH2 9709   4.184   7.714   5.304
 3255TIP3    H1 9710   4.262   7.767   5.285
 3255TIP3    H2 9711   4.191   7.695   5.398
 3256TIP3   OH2 9712   0.252   0.114   1.018
 3256TIP3    H1 9713   0.182   0.103   1.083
 3256TIP3    H2 9714   0.305   0.035   1.026
 3257TIP3   OH2 9715   1.399   7.753   5.791
 3257TIP3    H1 9716   1.462   7.743   5.719
 3257TIP3    H2 9717   1.441   7.815   5.851
 3258TIP3   OH2 9718   4.987   4.316   6.182
 3258TIP3    H1 9719   4.913   4.291   6.237
 3258TIP3    H2 9720   5.015   4.235   6.140
 3259TIP3   OH2 9721   7.770   0.405   4.132
 3259TIP3    H1 9722   7.851   0.448   4.159
 3259TIP3    H2 9723   7.711   0.415   4.207
 3260TIP3   OH2 9724   2.501   1.828   2.115
 3260TIP3    H1 9725   2.413   1.791   2.108
 3260TIP3    H2 9726   2.513   1.841   2.209
 3261TIP3   OH2 9727   4.860   5.013   1.068
 3261TIP3    H1 9728   4.857   4.992   0.974
 3261TIP3    H2 9729   4.779   5.061   1.084
 3262TIP3   OH2 9730   2.748   4.829   5.568
 3262TIP3    H1 9731   2.722   4.892   5.501
 3262TIP3    H2 9732   2.824   4.785   5.531
 3263TIP3   OH2 9733   6.800   3.136   2.095
 3263TIP3    H1 9734   6.739   3.101   2.031
 3263TIP3    H2 9735   6.805   3.229   2.076
 3264TIP3   OH2 9736   5.148   3.977   1.771
 3264TIP3    H1 9737   5.243   3.960   1.770
 3264TIP3    H2 9738   5.111   3.906   1.718
 3265TIP3   OH2 9739   6.523   3.298   4.193
 3265TIP3    H1 9740   6.495   3.325   4.280
 3265TIP3    H2 9741   6.577   3.370   4.160
 3266TIP3   OH2 9742   8.041   5.659   2.024
 3266TIP3    H1 9743   7.961   5.663   1.971
 3266TIP3    H2 9744   8.109   5.695   1.968
 3267TIP3   OH2 9745   7.494   7.562   5.440
 3267TIP3    H1 9746   7.506   7.528   5.352
 3267TIP3    H2 9747   7.431   7.503   5.481
 3268TIP3   OH2 9748   5.707   3.104   5.574
 3268TIP3    H1 9749   5.756   3.171   5.622
 3268TIP3    H2 9750   5.731   3.118   5.483
 3269TIP3   OH2 9751   5.133   5.280   0.881
 3269TIP3    H1 9752   5.055   5.332   0.898
 3269TIP3    H2 9753   5.109   5.224   0.807
 3270TIP3   OH2 9754   4.039   6.226   4.118
 3270TIP3    H1 9755   3.994   6.306   4.091
 3270TIP3    H2 9756   4.092   6.252   4.194
 3271TIP3   OH2 9757   8.073   5.323   2.901
 3271TIP3    H1 9758   8.022   5.243   2.916
 3271TIP3    H2 9759   8.008   5.393   2.903
 3272TIP3   OH2 9760   1.687   3.647   5.722
 3272TIP3    H1 9761   1.613   3.598   5.686
 3272TIP3    H2 9762   1.699   3.719   5.661
 3273TIP3   OH2 9763   4.852   3.113   6.712
 3273TIP3    H1 9764   4.923   3.051   6.695
 3273TIP3    H2 9765   4.773   3.069   6.682
 3274TIP3   OH2 9766   8.178   1.309   5.947
 3274TIP3    H1 9767   8.223   1.297   5.863
 3274TIP3    H2 9768   8.247   1.300   6.012
 3275TIP3   OH2 9769   2.632   3.755   0.744
 3275TIP3    H1 9770   2.540   3.777   0.760
 3275TIP3    H2 9771   2.676   3.769   0.828
 3276TIP3   OH2 9772   3.689   3.498   5.230
 3276TIP3    H1 9773   3.741   3.558   5.284
 3276TIP3    H2 9774   3.725   3.508   5.142
 3277TIP3   OH2 9775   5.539   3.606   1.263
 3277TIP3    H1 9776   5.507   3.667   1.195
 3277TIP3    H2 9777   5.511   3.520   1.232
 3278TIP3   OH2 9778   2.727   7.450   6.355
 3278TIP3    H1 9779   2.809   7.488   6.323
 3278TIP3    H2 9780   2.713   7.372   6.301
 3279TIP3   OH2 9781   3.830   3.201   2.707
 3279TIP3    H1 9782   3.843   3.213   2.612
 3279TIP3    H2 9783   3.840   3.107   2.720
 3280TIP3   OH2 9784   1.907   6.995   4.291
 3280TIP3    H1 9785   1.994   7.015   4.255
 3280TIP3    H2 9786   1.924   6.929   4.358
 3281TIP3   OH2 9787   3.524   4.047   4.944
 3281TIP3    H1 9788   3.439   4.011   4.967
 3281TIP3    H2 9789   3.509   4.095   4.863
 3282TIP3   OH2 9790   1.632   7.451   1.086
 3282TIP3    H1 9791   1.680   7.374   1.056
 3282TIP3    H2 9792   1.565   7.466   1.020
 3283TIP3   OH2 9793   2.180   3.200   3.443
 3283TIP3    H1 9794   2.148   3.274   3.393
 3283TIP3    H2 9795   2.261   3.173   3.398
 3284TIP3   OH2 9796   8.097   1.238   1.911
 3284TIP3    H1 9797   8.192   1.230   1.903
 3284TIP3    H2 9798   8.077   1.195   1.994
 3285TIP3   OH2 9799   2.182   6.608   2.263
 3285TIP3    H1 9800   2.206   6.647   2.179
 3285TIP3    H2 9801   2.193   6.514   2.251
 3286TIP3   OH2 9802   3.034   5.441   6.202
 3286TIP3    H1 9803   2.956   5.390   6.185
 3286TIP3    H2 9804   3.067   5.408   6.286
 3287TIP3   OH2 9805   3.370   3.090   1.544
 3287TIP3    H1 9806   3.339   3.024   1.483
 3287TIP3    H2 9807   3.324   3.071   1.626
 3288TIP3   OH2 9808   4.759   3.648   6.380
 3288TIP3    H1 9809   4.744   3.742   6.373
 3288TIP3    H2 9810   4.752   3.615   6.291
 3289TIP3   OH2 9811   7.247   2.348   4.937
 3289TIP3    H1 9812   7.290   2.327   5.020
 3289TIP3    H2 9813   7.275   2.437   4.917
 3290TIP3   OH2 9814   2.413   6.077   1.893
 3290TIP3    H1 9815   2.402   6.010   1.825
 3290TIP3    H2 9816   2.500   6.060   1.930
 3291TIP3   OH2 9817   0.616   1.873   4.345
 3291TIP3    H1 9818   0.672   1.950   4.345
 3291TIP3    H2 9819   0.533   1.903   4.307
 3292TIP3   OH2 9820   4.362   2.884   2.315
 3292TIP3    H1 9821   4.443   2.835   2.306
 3292TIP3    H2 9822   4.338   2.909   2.226
 3293TIP3   OH2 9823   5.225   4.863   2.093
 3293TIP3    H1 9824   5.176   4.865   2.010
 3293TIP3    H2 9825   5.284   4.788   2.083
 3294TIP3   OH2 9826   7.472   0.941   2.945
 3294TIP3    H1 9827   7.420   1.013   2.909
 3294TIP3    H2 9828   7.487   0.883   2.870
 3295TIP3   OH2 9829   4.563   0.887   3.041
 3295TIP3    H1 9830   4.611   0.844   3.111
 3295TIP3    H2 9831   4.504   0.948   3.086
 3296TIP3   OH2 9832   4.807   6.108   5.103
 3296TIP3    H1 9833   4.817   6.098   5.197
 3296TIP3    H2 9834   4.727   6.159   5.093
 3297TIP3   OH2 9835   1.467   5.224   1.331
 3297TIP3    H1 9836   1.446   5.138   1.296
 3297TIP3    H2 9837   1.410   5.234   1.407
 3298TIP3   OH2 9838   5.082   0.779   5.752
 3298TIP3    H1 9839   5.048   0.727   5.825
 3298TIP3    H2 9840   5.004   0.806   5.703
 3299TIP3   OH2 9841   7.430   3.826   2.971
 3299TIP3    H1 9842   7.433   3.906   2.919
 3299TIP3    H2 9843   7.444   3.756   2.908
 3300TIP3   OH2 9844   0.141   1.204   1.851
 3300TIP3    H1 9845   0.213   1.235   1.906
 3300TIP3    H2 9846   0.106   1.128   1.899
 3301TIP3   OH2 9847   0.927   6.421   2.067
 3301TIP3    H1 9848   0.977   6.498   2.041
 3301TIP3    H2 9849   0.932   6.420   2.163
 3302TIP3   OH2 9850   2.989   6.711   0.241
 3302TIP3    H1 9851   2.903   6.751   0.229
 3302TIP3    H2 9852   2.985   6.630   0.190
 3303TIP3   OH2 9853   7.784   1.294   0.178
 3303TIP3    H1 9854   7.752   1.228   0.239
 3303TIP3    H2 9855   7.796   1.247   0.096
 3304TIP3   OH2 9856   5.828   2.416   4.579
 3304TIP3    H1 9857   5.896   2.373   4.631
 3304TIP3    H2 9858   5.801   2.491   4.632
 3305TIP3   OH2 9859   4.426   5.105   5.583
 3305TIP3    H1 9860   4.482   5.166   5.631
 3305TIP3    H2 9861   4.471   5.090   5.500
 3306TIP3   OH2 9862   5.889   2.995   1.084
 3306TIP3    H1 9863   5.962   2.948   1.044
 3306TIP3    H2 9864   5.817   2.933   1.082
 3307TIP3   OH2 9865   4.339   3.627   1.567
 3307TIP3    H1 9866   4.420   3.596   1.527
 3307TIP3    H2 9867   4.318   3.708   1.520
 3308TIP3   OH2 9868   0.077   1.594   2.629
 3308TIP3    H1 9869   0.041   1.671   2.674
 3308TIP3    H2 9870   0.161   1.579   2.672
 3309TIP3   OH2 9871   4.977   3.214   3.613
 3309TIP3    H1 9872   4.904   3.154   3.628
 3309TIP3    H2 9873   5.038   3.196   3.685
 3310TIP3   OH2 9874   6.639   0.925   6.180
 3310TIP3    H1 9875   6.669   0.867   6.250
 3310TIP3    H2 9876   6.652   1.013   6.215
 3311TIP3   OH2 9877   1.727   3.001   5.740
 3311TIP3    H1 9878   1.783   3.075   5.716
 3311TIP3    H2 9879   1.654   3.041   5.788
 3312TIP3   OH2 9880   4.582   6.905   6.550
 3312TIP3    H1 9881   4.539   6.852   6.617
 3312TIP3    H2 9882   4.675   6.883   6.557
 3313TIP3   OH2 9883   4.010   2.931   6.183
 3313TIP3    H1 9884   4.076   2.973   6.128
 3313TIP3    H2 9885   3.991   2.849   6.137
 3314TIP3   OH2 9886   0.591   2.777   0.438
 3314TIP3    H1 9887   0.541   2.699   0.461
 3314TIP3    H2 9888   0.676   2.765   0.480
 3315TIP3   OH2 9889   4.058   0.420   3.128
 3315TIP3    H1 9890   4.014   0.456   3.051
 3315TIP3    H2 9891   4.012   0.459   3.203
 3316TIP3   OH2 9892   0.458   3.560   2.230
 3316TIP3    H1 9893   0.366   3.542   2.212
 3316TIP3    H2 9894   0.461   3.585   2.322
 3317TIP3   OH2 9895   1.745   2.626   5.008
 3317TIP3    H1 9896   1.800   2.641   4.931
 3317TIP3    H2 9897   1.771   2.696   5.069
 3318TIP3   OH2 9898   5.657   7.377   2.653
 3318TIP3    H1 9899   5.646   7.393   2.747
 3318TIP3    H2 9900   5.570   7.392   2.616
 3319TIP3   OH2 9901   0.841   4.276   0.046
 3319TIP3    H1 9902   0.796   4.322   0.117
 3319TIP3    H2 9903   0.929   4.314   0.046
 3320TIP3   OH2 9904   1.075   0.713   6.142
 3320TIP3    H1 9905   1.009   0.776   6.111
 3320TIP3    H2 9906   1.158   0.747   6.109
 3321TIP3   OH2 9907   8.237   0.083   0.466
 3321TIP3    H1 9908   8.144   0.081   0.446
 3321TIP3    H2 9909   8.242   0.125   0.552
 3322TIP3   OH2 9910   6.628   0.241   1.199
 3322TIP3    H1 9911   6.536   0.220   1.180
 3322TIP3    H2 9912   6.623   0.316   1.259
 3323TIP3   OH2 9913   5.666   2.887   3.461
 3323TIP3    H1 9914   5.714   2.837   3.527
 3323TIP3    H2 9915   5.631   2.962   3.508
 3324TIP3   OH2 9916   1.617   5.052   1.628
 3324TIP3    H1 9917   1.608   5.019   1.718
 3324TIP3    H2 9918   1.584   5.142   1.633
 3325TIP3   OH2 9919   7.708   2.057   5.922
 3325TIP3    H1 9920   7.679   1.975   5.964
 3325TIP3    H2 9921   7.627   2.106   5.908
 3326TIP3   OH2 9922   3.464   2.479   1.451
 3326TIP3    H1 9923   3.558   2.494   1.453
 3326TIP3    H2 9924   3.439   2.468   1.543
 3327TIP3   OH2 9925   7.735   4.309   4.005
 3327TIP3    H1 9926   7.791   4.331   4.080
 3327TIP3    H2 9927   7.646   4.320   4.038
 3328TIP3   OH2 9928   3.328   5.964   0.865
 3328TIP3    H1 9929   3.299   5.999   0.950
 3328TIP3    H2 9930   3.411   5.920   0.884
 3329TIP3   OH2 9931   6.023   5.438   6.656
 3329TIP3    H1 9932   6.035   5.518   6.707
 3329TIP3    H2 9933   6.099   5.384   6.677
 3330TIP3   OH2 9934   0.567   4.221   4.129
 3330TIP3    H1 9935   0.539   4.173   4.051
 3330TIP3    H2 9936   0.597   4.306   4.095
 3331TIP3   OH2 9937   4.026   4.401   3.826
 3331TIP3    H1 9938   4.038   4.308   3.806
 3331TIP3    H2 9939   4.051   4.446   3.745
 3332TIP3   OH2 9940   0.192   0.126   3.992
 3332TIP3    H1 9941   0.171   0.035   4.015
 3332TIP3    H2 9942   0.270   0.120   3.937
 3333TIP3   OH2 9943   1.917   4.164   1.397
 3333TIP3    H1 9944   1.905   4.174   1.491
 3333TIP3    H2 9945   1.956   4.247   1.369
 3334TIP3   OH2 9946   5.030   6.833   4.269
 3334TIP3    H1 9947   5.077   6.866   4.346
 3334TIP3    H2 9948   5.074   6.874   4.195
 3335TIP3   OH2 9949   2.311   7.098   0.697
 3335TIP3    H1 9950   2.366   7.019   0.693
 3335TIP3    H2 9951   2.374   7.170   0.691
 3336TIP3   OH2 9952   0.617   2.337   5.721
 3336TIP3    H1 9953   0.596   2.338   5.815
 3336TIP3    H2 9954   0.708   2.309   5.717
 3337TIP3   OH2 9955   5.720   1.237   5.656
 3337TIP3    H1 9956   5.674   1.304   5.604
 3337TIP3    H2 9957   5.742   1.281   5.738
 3338TIP3   OH2 9958   5.202   1.152   0.230
 3338TIP3    H1 9959   5.249   1.221   0.185
 3338TIP3    H2 9960   5.241   1.071   0.198
 3339TIP3   OH2 9961   6.105   1.051   6.772
 3339TIP3    H1 9962   6.111   1.005   6.688
 3339TIP3    H2 9963   6.121   1.143   6.751
 3340TIP3   OH2 9964   6.142   2.500   0.802
 3340TIP3    H1 9965   6.095   2.543   0.874
 3340TIP3    H2 9966   6.097   2.416   0.790
 3341TIP3   OH2 9967   2.298   2.971   5.748
 3341TIP3    H1 9968   2.279   2.890   5.702
 3341TIP3    H2 9969   2.212   3.003   5.777
 3342TIP3   OH2 9970   3.359   5.630   4.901
 3342TIP3    H1 9971   3.429   5.658   4.841
 3342TIP3    H2 9972   3.405   5.591   4.975
 3343TIP3   OH2 9973   3.009   3.449   2.645
 3343TIP3    H1 9974   3.100   3.461   2.616
 3343TIP3    H2 9975   3.001   3.505   2.723
 3344TIP3   OH2 9976   7.810   7.224   2.241
 3344TIP3    H1 9977   7.741   7.283   2.269
 3344TIP3    H2 9978   7.822   7.243   2.148
 3345TIP3   OH2 9979   6.864   3.990   0.644
 3345TIP3    H1 9980   6.851   4.076   0.604
 3345TIP3    H2 9981   6.887   4.009   0.735
 3346TIP3   OH2 9982   3.681   1.438   0.571
 3346TIP3    H1 9983   3.668   1.367   0.509
 3346TIP3    H2 9984   3.728   1.398   0.644
 3347TIP3   OH2 9985   7.823   5.856   6.562
 3347TIP3    H1 9986   7.796   5.881   6.474
 3347TIP3    H2 9987   7.742   5.841   6.610
 3348TIP3   OH2 9988   4.691   2.422   3.684
 3348TIP3    H1 9989   4.772   2.390   3.645
 3348TIP3    H2 9990   4.630   2.427   3.611
 3349TIP3   OH2 9991   2.501   4.747   6.338
 3349TIP3    H1 9992   2.564   4.787   6.279
 3349TIP3    H2 9993   2.552   4.683   6.388
 3350TIP3   OH2 9994   3.895   6.708   0.972
 3350TIP3    H1 9995   3.897   6.716   1.067
 3350TIP3    H2 9996   3.893   6.798   0.940
 3351TIP3   OH2 9997   2.660   5.037   1.151
 3351TIP3    H1 9998   2.614   5.002   1.227
 3351TIP3    H2 9999   2.641   5.131   1.153
 3352TIP3   OH210000   6.386   2.435   1.763
 3352TIP3    H110001   6.404   2.410   1.673
 3352TIP3    H210002   6.386   2.353   1.812
 3353TIP3   OH210003   7.328   6.390   4.466
 3353TIP3    H110004   7.396   6.423   4.407
 3353TIP3    H210005   7.264   6.349   4.408
 3354TIP3   OH210006   7.646   3.696   6.468
 3354TIP3    H110007   7.706   3.733   6.403
 3354TIP3    H210008   7.691   3.618   6.500
 3355TIP3   OH210009   0.209   6.701   5.818
 3355TIP3    H110010   0.154   6.626   5.797
 3355TIP3    H210011   0.189   6.766   5.750
 3356TIP3   OH210012   3.244   6.446   0.120
 3356TIP3    H110013   3.154   6.466   0.096
 3356TIP3    H210014   3.248   6.457   0.215
 3357TIP3   OH210015   4.502   3.410   2.156
 3357TIP3    H110016   4.464   3.419   2.069
 3357TIP3    H210017   4.428   3.423   2.216
 3358TIP3   OH210018   7.367   5.424   2.015
 3358TIP3    H110019   7.418   5.483   1.958
 3358TIP3    H210020   7.419   5.344   2.019
 3359TIP3   OH210021   8.239   2.589   2.024
 3359TIP3    H110022   8.227   2.494   2.019
 3359TIP3    H210023   8.276   2.612   1.939
 3360TIP3   OH210024   5.598   5.493   0.602
 3360TIP3    H110025   5.556   5.486   0.516
 3360TIP3    H210026   5.673   5.550   0.588
 3361TIP3   OH210027   6.726   7.273   1.702
 3361TIP3    H110028   6.688   7.293   1.617
 3361TIP3    H210029   6.744   7.358   1.742
 3362TIP3   OH210030   7.194   3.543   4.160
 3362TIP3    H110031   7.149   3.621   4.192
 3362TIP3    H210032   7.161   3.472   4.216
 3363TIP3   OH210033   3.687   3.507   0.636
 3363TIP3    H110034   3.638   3.547   0.709
 3363TIP3    H210035   3.763   3.467   0.678
 3364TIP3   OH210036   7.400   6.756   6.183
 3364TIP3    H110037   7.458   6.818   6.140
 3364TIP3    H210038   7.396   6.787   6.274
 3365TIP3   OH210039   3.082   4.510   0.602
 3365TIP3    H110040   3.049   4.564   0.674
 3365TIP3    H210041   3.004   4.463   0.570
 3366TIP3   OH210042   7.561   0.675   6.681
 3366TIP3    H110043   7.500   0.634   6.620
 3366TIP3    H210044   7.574   0.763   6.647
 3367TIP3   OH210045   0.334   6.721   0.440
 3367TIP3    H110046   0.246   6.756   0.423
 3367TIP3    H210047   0.368   6.776   0.511
 3368TIP3   OH210048   6.269   1.054   2.501
 3368TIP3    H110049   6.331   1.031   2.432
 3368TIP3    H210050   6.259   1.149   2.494
 3369TIP3   OH210051   7.618   6.030   3.390
 3369TIP3    H110052   7.703   6.011   3.430
 3369TIP3    H210053   7.557   6.035   3.464
 3370TIP3   OH210054   2.374   5.923   6.473
 3370TIP3    H110055   2.395   5.985   6.544
 3370TIP3    H210056   2.314   5.860   6.512
 3371TIP3   OH210057   3.915   1.677   3.824
 3371TIP3    H110058   3.892   1.707   3.736
 3371TIP3    H210059   3.907   1.582   3.820
 3372TIP3   OH210060   2.386   4.859   5.755
 3372TIP3    H110061   2.432   4.917   5.815
 3372TIP3    H210062   2.442   4.781   5.750
 3373TIP3   OH210063   4.925   4.936   1.376
 3373TIP3    H110064   4.843   4.930   1.327
 3373TIP3    H210065   4.992   4.903   1.317
 3374TIP3   OH210066   7.685   6.213   5.048
 3374TIP3    H110067   7.637   6.294   5.033
 3374TIP3    H210068   7.622   6.155   5.091
 3375TIP3   OH210069   0.089   2.810   4.646
 3375TIP3    H110070   0.043   2.844   4.722
 3375TIP3    H210071   0.031   2.829   4.572
 3376TIP3   OH210072   3.087   2.271   1.359
 3376TIP3    H110073   3.075   2.366   1.361
 3376TIP3    H210074   3.166   2.255   1.411
 3377TIP3   OH210075   1.580   7.106   2.736
 3377TIP3    H110076   1.602   7.058   2.656
 3377TIP3    H210077   1.515   7.170   2.708
 3378TIP3   OH210078   1.398   3.279   5.620
 3378TIP3    H110079   1.345   3.304   5.696
 3378TIP3    H210080   1.338   3.230   5.564
 3379TIP3   OH210081   1.522   1.036   6.468
 3379TIP3    H110082   1.553   0.961   6.519
 3379TIP3    H210083   1.432   1.013   6.445
 3380TIP3   OH210084   1.307   3.444   6.562
 3380TIP3    H110085   1.328   3.367   6.615
 3380TIP3    H210086   1.249   3.496   6.618
 3381TIP3   OH210087   1.523   4.543   3.181
 3381TIP3    H110088   1.437   4.581   3.162
 3381TIP3    H210089   1.586   4.606   3.146
 3382TIP3   OH210090   3.074   6.871   4.461
 3382TIP3    H110091   2.995   6.897   4.413
 3382TIP3    H210092   3.146   6.905   4.407
 3383TIP3   OH210093   8.105   4.295   1.196
 3383TIP3    H110094   8.054   4.233   1.144
 3383TIP3    H210095   8.112   4.253   1.282
 3384TIP3   OH210096   2.390   7.494   2.900
 3384TIP3    H110097   2.451   7.454   2.838
 3384TIP3    H210098   2.446   7.531   2.968
 3385TIP3   OH210099   0.687   0.274   5.525
 3385TIP3    H110100   0.669   0.241   5.613
 3385TIP3    H210101   0.612   0.245   5.473
 3386TIP3   OH210102   0.029   5.865   6.731
 3386TIP3    H110103  -0.002   5.776   6.717
 3386TIP3    H210104   0.118   5.865   6.696
 3387TIP3   OH210105   7.637   5.640   2.902
 3387TIP3    H110106   7.646   5.604   2.990
 3387TIP3    H210107   7.679   5.726   2.907
 3388TIP3   OH210108   4.351   3.065   4.934
 3388TIP3    H110109   4.304   2.987   4.905
 3388TIP3    H210110   4.295   3.138   4.908
 3389TIP3   OH210111   0.776   2.943   5.062
 3389TIP3    H110112   0.760   2.869   5.120
 3389TIP3    H210113   0.758   3.020   5.116
 3390TIP3   OH210114   0.835   5.522   1.161
 3390TIP3    H110115   0.909   5.460   1.158
 3390TIP3    H210116   0.758   5.467   1.172
 3391TIP3   OH210117   2.963   4.710   5.411
 3391TIP3    H110118   2.995   4.652   5.480
 3391TIP3    H210119   2.939   4.651   5.340
 3392TIP3   OH210120   0.945   7.504   3.579
 3392TIP3    H110121   0.855   7.473   3.591
 3392TIP3    H210122   0.937   7.586   3.529
 3393TIP3   OH210123   3.682   1.754   4.557
 3393TIP3    H110124   3.676   1.726   4.466
 3393TIP3    H210125   3.607   1.812   4.570
 3394TIP3   OH210126   5.435   6.922   1.880
 3394TIP3    H110127   5.441   6.937   1.975
 3394TIP3    H210128   5.348   6.954   1.856
 3395TIP3   OH210129   7.532   4.492   6.089
 3395TIP3    H110130   7.584   4.536   6.156
 3395TIP3    H210131   7.443   4.491   6.125
 3396TIP3   OH210132   6.999   7.052   6.716
 3396TIP3    H110133   7.068   7.105   6.676
 3396TIP3    H210134   6.942   7.116   6.759
 3397TIP3   OH210135   0.402   6.526   1.304
 3397TIP3    H110136   0.464   6.572   1.361
 3397TIP3    H210137   0.410   6.434   1.328
 3398TIP3   OH210138   6.600   0.909   5.495
 3398TIP3    H110139   6.532   0.842   5.500
 3398TIP3    H210140   6.662   0.877   5.430
 3399TIP3   OH210141   4.066   6.637   5.136
 3399TIP3    H110142   4.104   6.719   5.105
 3399TIP3    H210143   4.015   6.605   5.062
 3400TIP3   OH210144   5.990   6.033   3.983
 3400TIP3    H110145   5.930   6.107   3.983
 3400TIP3    H210146   5.993   6.004   4.074
 3401TIP3   OH210147   6.188   7.694   5.721
 3401TIP3    H110148   6.221   7.623   5.776
 3401TIP3    H210149   6.213   7.774   5.767
 3402TIP3   OH210150   4.113   0.455   4.164
 3402TIP3    H110151   4.204   0.484   4.154
 3402TIP3    H210152   4.109   0.416   4.251
 3403TIP3   OH210153   0.998   3.113   6.291
 3403TIP3    H110154   0.936   3.179   6.324
 3403TIP3    H210155   0.969   3.031   6.331
 3404TIP3   OH210156   7.168   0.551   0.642
 3404TIP3    H110157   7.115   0.504   0.706
 3404TIP3    H210158   7.109   0.566   0.568
 3405TIP3   OH210159   4.839   4.548   2.031
 3405TIP3    H110160   4.839   4.623   2.090
 3405TIP3    H210161   4.754   4.553   1.986
 3406TIP3   OH210162   2.942   2.170   0.805
 3406TIP3    H110163   3.017   2.193   0.861
 3406TIP3    H210164   2.932   2.076   0.816
 3407TIP3   OH210165   2.693   5.815   5.284
 3407TIP3    H110166   2.702   5.853   5.372
 3407TIP3    H210167   2.601   5.788   5.279
 3408TIP3   OH210168   5.125   5.256   1.694
 3408TIP3    H110169   5.160   5.303   1.618
 3408TIP3    H210170   5.062   5.317   1.732
 3409TIP3   OH210171   7.612   4.661   1.885
 3409TIP3    H110172   7.622   4.685   1.793
 3409TIP3    H210173   7.649   4.735   1.933
 3410TIP3   OH210174   2.722   2.159   3.977
 3410TIP3    H110175   2.730   2.212   3.898
 3410TIP3    H210176   2.805   2.171   4.023
 3411TIP3   OH210177   0.757   1.968   0.265
 3411TIP3    H110178   0.774   1.878   0.291
 3411TIP3    H210179   0.837   1.995   0.219
 3412TIP3   OH210180   8.085   2.976   0.779
 3412TIP3    H110181   8.175   2.950   0.797
 3412TIP3    H210182   8.047   2.901   0.733
 3413TIP3   OH210183   0.490   1.325   1.253
 3413TIP3    H110184   0.425   1.347   1.185
 3413TIP3    H210185   0.507   1.232   1.241
 3414TIP3   OH210186   6.541   7.085   3.032
 3414TIP3    H110187   6.465   7.031   3.009
 3414TIP3    H210188   6.513   7.175   3.014
 3415TIP3   OH210189   4.120   4.935   2.046
 3415TIP3    H110190   4.119   4.912   2.139
 3415TIP3    H210191   4.164   5.020   2.043
 3416TIP3   OH210192   8.072   7.432   3.513
 3416TIP3    H110193   7.987   7.463   3.482
 3416TIP3    H210194   8.135   7.491   3.472
 3417TIP3   OH210195   2.556   3.132   6.209
 3417TIP3    H110196   2.646   3.158   6.190
 3417TIP3    H210197   2.525   3.091   6.128
 3418TIP3   OH210198   1.095   1.454   3.608
 3418TIP3    H110199   1.123   1.424   3.695
 3418TIP3    H210200   1.000   1.460   3.615
 3419TIP3   OH210201   3.034   2.829   2.163
 3419TIP3    H110202   3.092   2.888   2.211
 3419TIP3    H210203   3.006   2.764   2.228
 3420TIP3   OH210204   4.159   5.833   0.711
 3420TIP3    H110205   4.207   5.750   0.710
 3420TIP3    H210206   4.186   5.875   0.792
 3421TIP3   OH210207   6.527   1.384   1.148
 3421TIP3    H110208   6.574   1.305   1.173
 3421TIP3    H210209   6.588   1.431   1.090
 3422TIP3   OH210210   6.672   2.171   3.962
 3422TIP3    H110211   6.602   2.148   4.024
 3422TIP3    H210212   6.718   2.243   4.005
 3423TIP3   OH210213   4.622   3.013   4.889
 3423TIP3    H110214   4.533   3.042   4.907
 3423TIP3    H210215   4.658   3.081   4.832
 3424TIP3   OH210216   3.738   2.367   6.487
 3424TIP3    H110217   3.666   2.319   6.445
 3424TIP3    H210218   3.760   2.436   6.424
 3425TIP3   OH210219   0.469   3.156   2.466
 3425TIP3    H110220   0.456   3.133   2.374
 3425TIP3    H210221   0.563   3.165   2.475
 3426TIP3   OH210222   3.425   6.259   2.792
 3426TIP3    H110223   3.403   6.173   2.756
 3426TIP3    H210224   3.506   6.284   2.746
 3427TIP3   OH210225   5.876   0.615   4.211
 3427TIP3    H110226   5.874   0.532   4.257
 3427TIP3    H210227   5.784   0.639   4.199
 3428TIP3   OH210228   5.894   0.079   1.454
 3428TIP3    H110229   5.842   0.158   1.441
 3428TIP3    H210230   5.974   0.094   1.404
 3429TIP3   OH210231   4.272   0.655   4.751
 3429TIP3    H110232   4.347   0.713   4.737
 3429TIP3    H210233   4.265   0.648   4.846
 3430TIP3   OH210234   5.599   3.380   2.501
 3430TIP3    H110235   5.635   3.354   2.416
 3430TIP3    H210236   5.539   3.452   2.482
 3431TIP3   OH210237   4.931   3.279   2.548
 3431TIP3    H110238   4.863   3.290   2.615
 3431TIP3    H210239   5.013   3.274   2.597
 3432TIP3   OH210240   4.805   4.466   5.925
 3432TIP3    H110241   4.715   4.437   5.940
 3432TIP3    H210242   4.799   4.524   5.849
 3433TIP3   OH210243   5.728   6.951   2.434
 3433TIP3    H110244   5.665   7.013   2.397
 3433TIP3    H210245   5.693   6.930   2.521
 3434TIP3   OH210246   7.399   5.224   3.517
 3434TIP3    H110247   7.361   5.309   3.494
 3434TIP3    H210248   7.448   5.198   3.439
 3435TIP3   OH210249   6.316   4.828   3.917
 3435TIP3    H110250   6.336   4.845   4.009
 3435TIP3    H210251   6.344   4.907   3.871
 3436TIP3   OH210252   7.639   7.466   4.835
 3436TIP3    H110253   7.611   7.443   4.924
 3436TIP3    H210254   7.724   7.510   4.848
 3437TIP3   OH210255   2.925   5.094   3.491
 3437TIP3    H110256   2.952   5.029   3.426
 3437TIP3    H210257   2.926   5.177   3.443
 3438TIP3   OH210258   0.433   4.656   5.155
 3438TIP3    H110259   0.525   4.631   5.144
 3438TIP3    H210260   0.426   4.684   5.246
 3439TIP3   OH210261   3.812   6.147   6.643
 3439TIP3    H110262   3.860   6.208   6.587
 3439TIP3    H210263   3.720   6.170   6.631
 3440TIP3   OH210264   8.048   5.050   3.957
 3440TIP3    H110265   8.011   5.103   3.887
 3440TIP3    H210266   7.996   4.969   3.957
 3441TIP3   OH210267   4.585   5.834   1.917
 3441TIP3    H110268   4.555   5.802   1.833
 3441TIP3    H210269   4.665   5.883   1.897
 3442TIP3   OH210270   5.751   5.375   6.275
 3442TIP3    H110271   5.799   5.414   6.349
 3442TIP3    H210272   5.766   5.436   6.203
 3443TIP3   OH210273   2.399   0.950   0.197
 3443TIP3    H110274   2.370   1.034   0.163
 3443TIP3    H210275   2.335   0.887   0.164
 3444TIP3   OH210276   3.806   6.065   1.237
 3444TIP3    H110277   3.813   6.021   1.152
 3444TIP3    H210278   3.732   6.023   1.281
 3445TIP3   OH210279   7.414   5.623   4.192
 3445TIP3    H110280   7.465   5.629   4.112
 3445TIP3    H210281   7.355   5.548   4.179
 3446TIP3   OH210282   0.154   6.895   6.532
 3446TIP3    H110283   0.202   6.962   6.483
 3446TIP3    H210284   0.079   6.942   6.568
 3447TIP3   OH210285   2.807   4.693   1.427
 3447TIP3    H110286   2.865   4.619   1.444
 3447TIP3    H210287   2.864   4.759   1.388
 3448TIP3   OH210288   3.017   1.419   5.709
 3448TIP3    H110289   3.010   1.508   5.744
 3448TIP3    H210290   3.094   1.383   5.752
 3449TIP3   OH210291   0.533   0.293   0.290
 3449TIP3    H110292   0.514   0.322   0.200
 3449TIP3    H210293   0.585   0.213   0.279
 3450TIP3   OH210294   3.278   3.476   2.577
 3450TIP3    H110295   3.317   3.545   2.630
 3450TIP3    H210296   3.315   3.395   2.613
 3451TIP3   OH210297   4.976   1.263   5.960
 3451TIP3    H110298   4.931   1.342   5.988
 3451TIP3    H210299   5.030   1.291   5.886
 3452TIP3   OH210300   5.942   1.672   0.110
 3452TIP3    H110301   5.855   1.684   0.150
 3452TIP3    H210302   5.934   1.591   0.059
 3453TIP3   OH210303   8.145   1.042   6.364
 3453TIP3    H110304   8.079   1.107   6.389
 3453TIP3    H210305   8.126   1.024   6.271
 3454TIP3   OH210306   5.443   4.956   5.474
 3454TIP3    H110307   5.451   4.923   5.385
 3454TIP3    H210308   5.524   4.928   5.517
 3455TIP3   OH210309   5.486   6.637   0.834
 3455TIP3    H110310   5.406   6.615   0.787
 3455TIP3    H210311   5.456   6.675   0.917
 3456TIP3   OH210312   1.928   3.617   3.161
 3456TIP3    H110313   1.935   3.695   3.216
 3456TIP3    H210314   2.011   3.614   3.113
 3457TIP3   OH210315   8.192   7.172   3.305
 3457TIP3    H110316   8.258   7.189   3.373
 3457TIP3    H210317   8.109   7.166   3.352
 3458TIP3   OH210318   3.645   4.678   2.769
 3458TIP3    H110319   3.636   4.770   2.743
 3458TIP3    H210320   3.556   4.646   2.774
 3459TIP3   OH210321   4.955   5.293   6.049
 3459TIP3    H110322   5.005   5.331   5.977
 3459TIP3    H210323   5.003   5.317   6.128
 3460TIP3   OH210324   3.045   6.855   4.935
 3460TIP3    H110325   3.081   6.896   4.856
 3460TIP3    H210326   2.985   6.789   4.901
 3461TIP3   OH210327   0.104   5.531   1.619
 3461TIP3    H110328   0.127   5.438   1.617
 3461TIP3    H210329   0.060   5.543   1.703
 3462TIP3   OH210330   6.647   5.802   5.694
 3462TIP3    H110331   6.703   5.847   5.631
 3462TIP3    H210332   6.676   5.711   5.691
 3463TIP3   OH210333   1.125   5.265   1.390
 3463TIP3    H110334   1.123   5.358   1.414
 3463TIP3    H210335   1.190   5.227   1.450
 3464TIP3   OH210336   5.640   7.119   0.992
 3464TIP3    H110337   5.669   7.120   0.901
 3464TIP3    H210338   5.639   7.026   1.015
 3465TIP3   OH210339   7.606   5.733   5.646
 3465TIP3    H110340   7.673   5.666   5.632
 3465TIP3    H210341   7.538   5.689   5.698
 3466TIP3   OH210342   2.478   3.486   2.768
 3466TIP3    H110343   2.551   3.530   2.725
 3466TIP3    H210344   2.410   3.554   2.774
 3467TIP3   OH210345   7.988   0.772   1.131
 3467TIP3    H110346   7.900   0.760   1.094
 3467TIP3    H210347   8.029   0.837   1.074
 3468TIP3   OH210348   3.605   6.340   3.585
 3468TIP3    H110349   3.644   6.318   3.670
 3468TIP3    H210350   3.572   6.429   3.596
 3469TIP3   OH210351   7.775   0.612   1.410
 3469TIP3    H110352   7.802   0.530   1.367
 3469TIP3    H210353   7.854   0.666   1.409
 3470TIP3   OH210354   5.123   6.855   5.657
 3470TIP3    H110355   5.201   6.890   5.614
 3470TIP3    H210356   5.108   6.771   5.614
 3471TIP3   OH210357   2.910   5.921   6.200
 3471TIP3    H110358   2.918   5.906   6.294
 3471TIP3    H210359   2.869   5.841   6.166
 3472TIP3   OH210360   2.240   7.656   1.707
 3472TIP3    H110361   2.241   7.592   1.779
 3472TIP3    H210362   2.148   7.675   1.692
 3473TIP3   OH210363   0.113   4.565   6.076
 3473TIP3    H110364   0.082   4.536   5.991
 3473TIP3    H210365   0.038   4.552   6.135
 3474TIP3   OH210366   6.458   1.036   6.562
 3474TIP3    H110367   6.362   1.029   6.557
 3474TIP3    H210368   6.476   1.130   6.558
 3475TIP3   OH210369   1.715   7.284   3.177
 3475TIP3    H110370   1.788   7.345   3.184
 3475TIP3    H210371   1.713   7.239   3.261
 3476TIP3   OH210372   7.927   1.232   6.008
 3476TIP3    H110373   8.017   1.265   6.005
 3476TIP3    H210374   7.915   1.186   5.926
 3477TIP3   OH210375   3.617   1.920   2.507
 3477TIP3    H110376   3.634   1.831   2.477
 3477TIP3    H210377   3.690   1.971   2.473
 3478TIP3   OH210378   1.036   4.983   5.023
 3478TIP3    H110379   0.980   4.916   4.984
 3478TIP3    H210380   1.123   4.965   4.988
 3479TIP3   OH210381   1.612   4.671   1.253
 3479TIP3    H110382   1.692   4.720   1.238
 3479TIP3    H210383   1.545   4.720   1.205
 3480TIP3   OH210384   4.161   5.985   6.741
 3480TIP3    H110385   4.231   5.983   6.807
 3480TIP3    H210386   4.132   6.076   6.739
 3481TIP3   OH210387   7.986   2.747   2.004
 3481TIP3    H110388   8.072   2.761   1.962
 3481TIP3    H210389   8.007   2.715   2.091
 3482TIP3   OH210390   8.166   4.565   1.202
 3482TIP3    H110391   8.137   4.474   1.195
 3482TIP3    H210392   8.096   4.609   1.248
 3483TIP3   OH210393   0.654   4.890   1.105
 3483TIP3    H110394   0.609   4.960   1.152
 3483TIP3    H210395   0.585   4.850   1.051
 3484TIP3   OH210396   1.325   2.009   6.422
 3484TIP3    H110397   1.266   1.934   6.429
 3484TIP3    H210398   1.411   1.974   6.445
 3485TIP3   OH210399   7.049   1.632   4.284
 3485TIP3    H110400   7.063   1.603   4.194
 3485TIP3    H210401   6.975   1.581   4.315
 3486TIP3   OH210402   7.361   1.946   3.568
 3486TIP3    H110403   7.400   2.028   3.536
 3486TIP3    H210404   7.416   1.922   3.643
 3487TIP3   OH210405   2.792   2.112   5.075
 3487TIP3    H110406   2.770   2.042   5.135
 3487TIP3    H210407   2.852   2.168   5.124
 3488TIP3   OH210408   2.890   5.211   6.224
 3488TIP3    H110409   2.872   5.179   6.136
 3488TIP3    H210410   2.939   5.139   6.266
 3489TIP3   OH210411   2.681   5.441   4.983
 3489TIP3    H110412   2.692   5.392   5.065
 3489TIP3    H210413   2.761   5.493   4.976
 3490TIP3   OH210414   7.807   6.009   2.392
 3490TIP3    H110415   7.783   5.972   2.307
 3490TIP3    H210416   7.729   6.056   2.420
 3491TIP3   OH210417   7.538   3.799   5.166
 3491TIP3    H110418   7.589   3.848   5.230
 3491TIP3    H210419   7.576   3.822   5.082
 3492TIP3   OH210420   3.555   6.012   6.094
 3492TIP3    H110421   3.491   6.056   6.037
 3492TIP3    H210422   3.502   5.960   6.154
 3493TIP3   OH210423   2.863   5.606   5.426
 3493TIP3    H110424   2.861   5.642   5.515
 3493TIP3    H210425   2.861   5.683   5.369
 3494TIP3   OH210426   6.355   7.454   6.501
 3494TIP3    H110427   6.310   7.416   6.425
 3494TIP3    H210428   6.361   7.381   6.563
 3495TIP3   OH210429   7.344   5.387   4.067
 3495TIP3    H110430   7.356   5.381   3.972
 3495TIP3    H210431   7.251   5.365   4.080
 3496TIP3   OH210432   1.872   0.255   0.538
 3496TIP3    H110433   1.805   0.212   0.592
 3496TIP3    H210434   1.825   0.326   0.493
 3497TIP3   OH210435   6.469   3.545   3.283
 3497TIP3    H110436   6.516   3.578   3.360
 3497TIP3    H210437   6.390   3.599   3.278
 3498TIP3   OH210438   0.397   0.908   5.523
 3498TIP3    H110439   0.471   0.968   5.513
 3498TIP3    H210440   0.413   0.838   5.460
 3499TIP3   OH210441   4.942   1.842   2.125
 3499TIP3    H110442   4.967   1.932   2.101
 3499TIP3    H210443   4.851   1.850   2.154
 3500TIP3   OH210444   2.025   5.864   0.847
 3500TIP3    H110445   2.010   5.952   0.881
 3500TIP3    H210446   1.946   5.815   0.871
 3501TIP3   OH210447   4.272   2.232   3.769
 3501TIP3    H110448   4.255   2.139   3.754
 3501TIP3    H210449   4.279   2.270   3.681
 3502TIP3   OH210450   8.245   0.295   0.656
 3502TIP3    H110451   8.290   0.376   0.679
 3502TIP3    H210452   8.170   0.291   0.715
 3503TIP3   OH210453   4.229   1.971   3.539
 3503TIP3    H110454   4.307   1.957   3.485
 3503TIP3    H210455   4.247   1.923   3.620
 3504TIP3   OH210456   1.268   1.405   6.611
 3504TIP3    H110457   1.225   1.346   6.549
 3504TIP3    H210458   1.208   1.480   6.618
 3505TIP3   OH210459   5.585   5.110   3.640
 3505TIP3    H110460   5.661   5.164   3.622
 3505TIP3    H210461   5.546   5.094   3.554
 3506TIP3   OH210462   2.665   1.243   6.631
 3506TIP3    H110463   2.648   1.266   6.722
 3506TIP3    H210464   2.660   1.326   6.583
 3507TIP3   OH210465   5.759   0.218   6.171
 3507TIP3    H110466   5.684   0.163   6.146
 3507TIP3    H210467   5.731   0.307   6.150
 3508TIP3   OH210468   4.255   1.339   4.190
 3508TIP3    H110469   4.225   1.293   4.269
 3508TIP3    H210470   4.177   1.345   4.135
 3509TIP3   OH210471   6.472   0.111   4.747
 3509TIP3    H110472   6.479   0.035   4.690
 3509TIP3    H210473   6.427   0.079   4.825
 3510TIP3   OH210474   4.229   1.908   1.167
 3510TIP3    H110475   4.159   1.929   1.229
 3510TIP3    H210476   4.185   1.902   1.082
 3511TIP3   OH210477   7.020   6.997   0.884
 3511TIP3    H110478   7.072   6.993   0.804
 3511TIP3    H210479   6.950   7.059   0.865
 3512TIP3   OH210480   0.249   6.423   4.823
 3512TIP3    H110481   0.171   6.475   4.842
 3512TIP3    H210482   0.216   6.345   4.779
 3513TIP3   OH210483   1.274   0.366   4.233
 3513TIP3    H110484   1.316   0.422   4.168
 3513TIP3    H210485   1.322   0.284   4.229
 3514TIP3   OH210486   2.294   0.970   2.828
 3514TIP3    H110487   2.230   0.912   2.867
 3514TIP3    H210488   2.242   1.036   2.782
 3515TIP3   OH210489   2.675   1.864   0.917
 3515TIP3    H110490   2.691   1.775   0.884
 3515TIP3    H210491   2.625   1.851   0.998
 3516TIP3   OH210492   3.068   4.794   0.782
 3516TIP3    H110493   3.042   4.817   0.872
 3516TIP3    H210494   3.151   4.747   0.793
 3517TIP3   OH210495   2.244   4.732   1.089
 3517TIP3    H110496   2.338   4.741   1.105
 3517TIP3    H210497   2.209   4.700   1.172
 3518TIP3   OH210498   5.958   1.333   3.617
 3518TIP3    H110499   5.906   1.399   3.663
 3518TIP3    H210500   5.947   1.355   3.524
 3519TIP3   OH210501   3.224   6.252   0.800
 3519TIP3    H110502   3.154   6.187   0.807
 3519TIP3    H210503   3.284   6.217   0.734
 3520TIP3   OH210504   4.047   7.627   3.918
 3520TIP3    H110505   3.988   7.553   3.903
 3520TIP3    H210506   4.111   7.620   3.847
 3521TIP3   OH210507   6.628   2.066   3.009
 3521TIP3    H110508   6.548   2.014   3.012
 3521TIP3    H210509   6.603   2.150   3.047
 3522TIP3   OH210510   1.342   2.209   5.769
 3522TIP3    H110511   1.259   2.186   5.727
 3522TIP3    H210512   1.369   2.129   5.814
 3523TIP3   OH210513   4.733   0.721   5.747
 3523TIP3    H110514   4.696   0.751   5.830
 3523TIP3    H210515   4.757   0.630   5.763
 3524TIP3   OH210516   5.035   4.266   3.386
 3524TIP3    H110517   5.028   4.348   3.337
 3524TIP3    H210518   4.946   4.230   3.385
 3525TIP3   OH210519   0.642   2.607   1.109
 3525TIP3    H110520   0.692   2.548   1.052
 3525TIP3    H210521   0.692   2.609   1.190
 3526TIP3   OH210522   3.513   0.258   3.419
 3526TIP3    H110523   3.454   0.330   3.439
 3526TIP3    H210524   3.506   0.246   3.324
 3527TIP3   OH210525   4.301   0.976   4.058
 3527TIP3    H110526   4.391   1.006   4.047
 3527TIP3    H210527   4.310   0.885   4.085
 3528TIP3   OH210528   2.953   0.602   2.487
 3528TIP3    H110529   2.913   0.670   2.542
 3528TIP3    H210530   2.917   0.618   2.400
 3529TIP3   OH210531   5.071   7.062   4.892
 3529TIP3    H110532   5.011   7.109   4.950
 3529TIP3    H210533   5.138   7.127   4.869
 3530TIP3   OH210534   3.458   6.265   5.703
 3530TIP3    H110535   3.395   6.210   5.749
 3530TIP3    H210536   3.408   6.303   5.630
 3531TIP3   OH210537   4.938   4.511   4.234
 3531TIP3    H110538   4.892   4.584   4.192
 3531TIP3    H210539   4.872   4.442   4.240
 3532TIP3   OH210540   3.809   0.688   0.831
 3532TIP3    H110541   3.809   0.594   0.851
 3532TIP3    H210542   3.897   0.717   0.854
 3533TIP3   OH210543   3.365   3.097   6.544
 3533TIP3    H110544   3.338   3.092   6.636
 3533TIP3    H210545   3.446   3.047   6.540
 3534TIP3   OH210546   3.856   2.892   0.726
 3534TIP3    H110547   3.883   2.866   0.638
 3534TIP3    H210548   3.927   2.864   0.783
 3535TIP3   OH210549   6.145   4.254   4.808
 3535TIP3    H110550   6.113   4.343   4.793
 3535TIP3    H210551   6.072   4.209   4.851
 3536TIP3   OH210552   4.392   2.531   3.282
 3536TIP3    H110553   4.429   2.558   3.198
 3536TIP3    H210554   4.469   2.507   3.335
 3537TIP3   OH210555   2.458   3.060   2.519
 3537TIP3    H110556   2.438   3.121   2.590
 3537TIP3    H210557   2.487   2.980   2.564
 3538TIP3   OH210558   3.953   6.228   5.718
 3538TIP3    H110559   4.015   6.242   5.790
 3538TIP3    H210560   3.931   6.135   5.725
 3539TIP3   OH210561   5.867   5.778   2.669
 3539TIP3    H110562   5.898   5.731   2.747
 3539TIP3    H210563   5.774   5.794   2.686
 3540TIP3   OH210564   4.716   6.068   3.792
 3540TIP3    H110565   4.630   6.033   3.813
 3540TIP3    H210566   4.774   6.031   3.858
 3541TIP3   OH210567   1.550   6.687   5.630
 3541TIP3    H110568   1.484   6.672   5.698
 3541TIP3    H210569   1.575   6.778   5.641
 3542TIP3   OH210570   1.120   4.581   1.843
 3542TIP3    H110571   1.097   4.674   1.836
 3542TIP3    H210572   1.066   4.538   1.778
 3543TIP3   OH210573   4.453   1.296   5.790
 3543TIP3    H110574   4.516   1.224   5.783
 3543TIP3    H210575   4.425   1.313   5.700
 3544TIP3   OH210576   7.854   4.179   2.797
 3544TIP3    H110577   7.851   4.083   2.787
 3544TIP3    H210578   7.851   4.193   2.892
 3545TIP3   OH210579   0.490   3.754   4.319
 3545TIP3    H110580   0.394   3.756   4.317
 3545TIP3    H210581   0.511   3.672   4.363
 3546TIP3   OH210582   4.109   7.580   0.671
 3546TIP3    H110583   4.179   7.530   0.630
 3546TIP3    H210584   4.132   7.582   0.764
 3547TIP3   OH210585   4.027   3.839   2.059
 3547TIP3    H110586   4.026   3.875   2.148
 3547TIP3    H210587   4.116   3.808   2.047
 3548TIP3   OH210588   0.316   0.196   3.350
 3548TIP3    H110589   0.313   0.272   3.291
 3548TIP3    H210590   0.409   0.185   3.369
 3549TIP3   OH210591   3.910   5.329   4.983
 3549TIP3    H110592   3.970   5.394   5.022
 3549TIP3    H210593   3.967   5.269   4.936
 3550TIP3   OH210594   0.611   1.326   0.970
 3550TIP3    H110595   0.671   1.298   1.039
 3550TIP3    H210596   0.541   1.259   0.972
 3551TIP3   OH210597   4.849   5.573   4.811
 3551TIP3    H110598   4.878   5.660   4.836
 3551TIP3    H210599   4.929   5.522   4.801
 3552TIP3   OH210600   4.918   1.562   0.729
 3552TIP3    H110601   4.980   1.625   0.765
 3552TIP3    H210602   4.925   1.573   0.634
 3553TIP3   OH210603   5.562   5.441   2.368
 3553TIP3    H110604   5.631   5.504   2.389
 3553TIP3    H210605   5.503   5.445   2.444
 3554TIP3   OH210606   6.864   6.958   6.032
 3554TIP3    H110607   6.813   7.027   5.988
 3554TIP3    H210608   6.930   6.933   5.968
 3555TIP3   OH210609   0.348   6.102   5.990
 3555TIP3    H110610   0.304   6.181   5.959
 3555TIP3    H210611   0.358   6.047   5.911
 3556TIP3   OH210612   8.220   0.157   3.154
 3556TIP3    H110613   8.149   0.144   3.217
 3556TIP3    H210614   8.181   0.138   3.069
 3557TIP3   OH210615   2.205   6.502   3.917
 3557TIP3    H110616   2.271   6.438   3.889
 3557TIP3    H210617   2.232   6.529   4.004
 3558TIP3   OH210618   1.321   7.872   5.454
 3558TIP3    H110619   1.286   7.789   5.485
 3558TIP3    H210620   1.401   7.848   5.407
 3559TIP3   OH210621   5.839   6.702   4.682
 3559TIP3    H110622   5.778   6.715   4.755
 3559TIP3    H210623   5.844   6.788   4.640
 3560TIP3   OH210624   6.921   7.064   4.211
 3560TIP3    H110625   6.923   6.973   4.240
 3560TIP3    H210626   6.830   7.092   4.223
 3561TIP3   OH210627   6.469   0.540   0.877
 3561TIP3    H110628   6.421   0.484   0.939
 3561TIP3    H210629   6.531   0.588   0.933
 3562TIP3   OH210630   8.266   5.629   6.610
 3562TIP3    H110631   8.318   5.576   6.670
 3562TIP3    H210632   8.177   5.622   6.642
 3563TIP3   OH210633   2.412   4.401   3.640
 3563TIP3    H110634   2.400   4.481   3.692
 3563TIP3    H210635   2.376   4.331   3.695
 3564TIP3   OH210636   4.274   5.594   0.791
 3564TIP3    H110637   4.275   5.580   0.885
 3564TIP3    H210638   4.234   5.515   0.755
 3565TIP3   OH210639   2.233   5.700   3.342
 3565TIP3    H110640   2.250   5.793   3.328
 3565TIP3    H210641   2.287   5.677   3.418
 3566TIP3   OH210642   1.255   3.945   1.301
 3566TIP3    H110643   1.163   3.927   1.284
 3566TIP3    H210644   1.256   4.000   1.379
 3567TIP3   OH210645   0.868   0.980   4.976
 3567TIP3    H110646   0.895   1.057   4.925
 3567TIP3    H210647   0.806   0.934   4.920
 3568TIP3   OH210648   7.952   7.095   1.190
 3568TIP3    H110649   7.866   7.058   1.169
 3568TIP3    H210650   7.975   7.056   1.274
 3569TIP3   OH210651   3.269   6.396   3.797
 3569TIP3    H110652   3.321   6.424   3.873
 3569TIP3    H210653   3.298   6.306   3.782
 3570TIP3   OH210654   0.517   2.233   4.653
 3570TIP3    H110655   0.455   2.256   4.585
 3570TIP3    H210656   0.602   2.225   4.608
 3571TIP3   OH210657   8.196   5.743   3.574
 3571TIP3    H110658   8.286   5.773   3.585
 3571TIP3    H210659   8.148   5.821   3.546
 3572TIP3   OH210660   0.294   6.934   0.598
 3572TIP3    H110661   0.214   6.893   0.565
 3572TIP3    H210662   0.290   7.025   0.568
 3573TIP3   OH210663   2.359   7.559   4.921
 3573TIP3    H110664   2.315   7.474   4.928
 3573TIP3    H210665   2.409   7.554   4.839
 3574TIP3   OH210666   2.076   3.458   3.351
 3574TIP3    H110667   2.151   3.514   3.370
 3574TIP3    H210668   2.076   3.448   3.256
 3575TIP3   OH210669   3.750   5.156   5.124
 3575TIP3    H110670   3.801   5.219   5.072
 3575TIP3    H210671   3.744   5.078   5.068
 3576TIP3   OH210672   1.671   3.358   6.572
 3576TIP3    H110673   1.729   3.325   6.642
 3576TIP3    H210674   1.616   3.283   6.549
 3577TIP3   OH210675   0.460   4.049   4.955
 3577TIP3    H110676   0.431   3.982   4.893
 3577TIP3    H210677   0.546   4.076   4.921
 3578TIP3   OH210678   4.710   0.011   2.985
 3578TIP3    H110679   4.648   0.080   2.962
 3578TIP3    H210680   4.793   0.057   2.998
 3579TIP3   OH210681   6.829   4.850   5.982
 3579TIP3    H110682   6.845   4.844   6.076
 3579TIP3    H210683   6.770   4.777   5.963
 3580TIP3   OH210684   6.461   0.878   1.456
 3580TIP3    H110685   6.518   0.805   1.433
 3580TIP3    H210686   6.379   0.836   1.483
 3581TIP3   OH210687   4.756   4.314   2.412
 3581TIP3    H110688   4.833   4.277   2.367
 3581TIP3    H210689   4.778   4.309   2.505
 3582TIP3   OH210690   8.095   2.130   4.283
 3582TIP3    H110691   8.038   2.186   4.230
 3582TIP3    H210692   8.179   2.131   4.238
 3583TIP3   OH210693   8.219   1.795   0.645
 3583TIP3    H110694   8.137   1.838   0.623
 3583TIP3    H210695   8.193   1.725   0.706
 3584TIP3   OH210696   2.830   6.431   5.647
 3584TIP3    H110697   2.836   6.475   5.731
 3584TIP3    H210698   2.911   6.454   5.602
 3585TIP3   OH210699   3.417   4.196   4.160
 3585TIP3    H110700   3.399   4.116   4.110
 3585TIP3    H210701   3.393   4.267   4.101
 3586TIP3   OH210702   1.304   0.597   2.437
 3586TIP3    H110703   1.305   0.617   2.343
 3586TIP3    H210704   1.212   0.609   2.462
 3587TIP3   OH210705   2.143   5.368   4.489
 3587TIP3    H110706   2.139   5.454   4.530
 3587TIP3    H210707   2.205   5.318   4.543
 3588TIP3   OH210708   3.827   3.620   4.452
 3588TIP3    H110709   3.864   3.670   4.380
 3588TIP3    H210710   3.808   3.534   4.414
 3589TIP3   OH210711   7.239   7.453   1.818
 3589TIP3    H110712   7.263   7.459   1.725
 3589TIP3    H210713   7.270   7.367   1.845
 3590TIP3   OH210714   4.263   0.483   5.262
 3590TIP3    H110715   4.356   0.487   5.238
 3590TIP3    H210716   4.250   0.559   5.318
 3591TIP3   OH210717   5.504   5.853   0.695
 3591TIP3    H110718   5.504   5.810   0.610
 3591TIP3    H210719   5.427   5.909   0.695
 3592TIP3   OH210720   5.575   2.976   4.228
 3592TIP3    H110721   5.667   2.958   4.250
 3592TIP3    H210722   5.549   2.903   4.172
 3593TIP3   OH210723   1.319   3.783   5.890
 3593TIP3    H110724   1.354   3.705   5.933
 3593TIP3    H210725   1.397   3.831   5.861
 3594TIP3   OH210726   6.680   7.556   3.388
 3594TIP3    H110727   6.730   7.637   3.380
 3594TIP3    H210728   6.605   7.580   3.443
 3595TIP3   OH210729   1.935   6.570   2.592
 3595TIP3    H110730   1.934   6.663   2.615
 3595TIP3    H210731   1.986   6.528   2.661
 3596TIP3   OH210732   0.611   3.428   0.036
 3596TIP3    H110733   0.613   3.481  -0.043
 3596TIP3    H210734   0.617   3.338   0.004
 3597TIP3   OH210735   7.124   5.053   0.342
 3597TIP3    H110736   7.113   5.114   0.415
 3597TIP3    H210737   7.218   5.033   0.342
 3598TIP3   OH210738   4.079   5.256   4.054
 3598TIP3    H110739   4.092   5.201   3.977
 3598TIP3    H210740   4.118   5.340   4.031
 3599TIP3   OH210741   7.874   6.038   3.568
 3599TIP3    H110742   7.925   6.063   3.645
 3599TIP3    H210743   7.932   5.980   3.519
 3600TIP3   OH210744   7.137   2.260   5.550
 3600TIP3    H110745   7.182   2.196   5.606
 3600TIP3    H210746   7.159   2.345   5.588
 3601TIP3   OH210747   5.228   6.376   0.872
 3601TIP3    H110748   5.262   6.452   0.824
 3601TIP3    H210749   5.170   6.333   0.810
 3602TIP3   OH210750   2.244   1.506  -0.031
 3602TIP3    H110751   2.224   1.504   0.063
 3602TIP3    H210752   2.176   1.562  -0.068
 3603TIP3   OH210753   5.266   0.243   4.899
 3603TIP3    H110754   5.201   0.247   4.830
 3603TIP3    H210755   5.301   0.332   4.905
 3604TIP3   OH210756   5.254   0.287   3.479
 3604TIP3    H110757   5.272   0.295   3.385
 3604TIP3    H210758   5.159   0.295   3.486
 3605TIP3   OH210759   5.691   6.535   4.319
 3605TIP3    H110760   5.633   6.588   4.374
 3605TIP3    H210761   5.686   6.447   4.356
 3606TIP3   OH210762   6.288   5.960   6.380
 3606TIP3    H110763   6.249   6.030   6.327
 3606TIP3    H210764   6.369   5.938   6.334
 3607TIP3   OH210765   8.275   1.541   4.203
 3607TIP3    H110766   8.250   1.452   4.224
 3607TIP3    H210767   8.364   1.534   4.169
 3608TIP3   OH210768   0.392   2.048   0.243
 3608TIP3    H110769   0.422   1.959   0.225
 3608TIP3    H210770   0.333   2.069   0.171
 3609TIP3   OH210771   1.964   5.450   1.043
 3609TIP3    H110772   1.870   5.436   1.058
 3609TIP3    H210773   2.005   5.369   1.072
 3610TIP3   OH210774   7.248   7.109   0.961
 3610TIP3    H110775   7.241   7.188   1.016
 3610TIP3    H210776   7.161   7.069   0.966
 3611TIP3   OH210777   8.099   3.533   0.266
 3611TIP3    H110778   8.176   3.478   0.272
 3611TIP3    H210779   8.063   3.535   0.354
 3612TIP3   OH210780   5.199   4.931   5.229
 3612TIP3    H110781   5.151   4.853   5.198
 3612TIP3    H210782   5.154   4.956   5.310
 3613TIP3   OH210783   0.520   6.650   4.456
 3613TIP3    H110784   0.585   6.635   4.387
 3613TIP3    H210785   0.546   6.591   4.527
 3614TIP3   OH210786   2.413   0.319   1.679
 3614TIP3    H110787   2.450   0.324   1.590
 3614TIP3    H210788   2.370   0.403   1.692
 3615TIP3   OH210789   7.056   3.659   2.919
 3615TIP3    H110790   7.111   3.588   2.950
 3615TIP3    H210791   7.058   3.724   2.990
 3616TIP3   OH210792   1.855   6.766   5.343
 3616TIP3    H110793   1.937   6.758   5.296
 3616TIP3    H210794   1.808   6.685   5.323
 3617TIP3   OH210795   0.705   3.922   0.794
 3617TIP3    H110796   0.792   3.921   0.754
 3617TIP3    H210797   0.656   3.988   0.744
 3618TIP3   OH210798   5.140   3.357   4.013
 3618TIP3    H110799   5.146   3.396   4.099
 3618TIP3    H210800   5.046   3.350   3.996
 3619TIP3   OH210801   7.030   3.367   5.664
 3619TIP3    H110802   7.070   3.451   5.641
 3619TIP3    H210803   7.103   3.305   5.661
 3620TIP3   OH210804   3.872   4.674   1.038
 3620TIP3    H110805   3.802   4.643   0.980
 3620TIP3    H210806   3.907   4.752   0.994
 3621TIP3   OH210807   2.428   4.871   3.798
 3621TIP3    H110808   2.520   4.865   3.772
 3621TIP3    H210809   2.421   4.955   3.844
 3622TIP3   OH210810   3.925   0.199   0.143
 3622TIP3    H110811   3.990   0.132   0.167
 3622TIP3    H210812   3.900   0.238   0.226
 3623TIP3   OH210813   8.157   0.326   6.521
 3623TIP3    H110814   8.154   0.342   6.426
 3623TIP3    H210815   8.251   0.322   6.541
 3624TIP3   OH210816   3.127   3.105   4.471
 3624TIP3    H110817   3.060   3.172   4.483
 3624TIP3    H210818   3.093   3.049   4.402
 3625TIP3   OH210819   0.944   5.045   2.037
 3625TIP3    H110820   0.974   5.081   2.120
 3625TIP3    H210821   0.984   5.101   1.971
 3626TIP3   OH210822   0.529   5.115   6.627
 3626TIP3    H110823   0.614   5.108   6.671
 3626TIP3    H210824   0.550   5.122   6.534
 3627TIP3   OH210825   4.081   6.922   2.478
 3627TIP3    H110826   4.048   6.833   2.465
 3627TIP3    H210827   4.169   6.910   2.514
 3628TIP3   OH210828   5.616   3.219   1.341
 3628TIP3    H110829   5.606   3.127   1.363
 3628TIP3    H210830   5.564   3.230   1.261
 3629TIP3   OH210831   2.416   5.887   5.722
 3629TIP3    H110832   2.458   5.869   5.806
 3629TIP3    H210833   2.455   5.970   5.693
 3630TIP3   OH210834   4.315   1.860   0.599
 3630TIP3    H110835   4.323   1.926   0.530
 3630TIP3    H210836   4.222   1.863   0.623
 3631TIP3   OH210837   5.419   4.304   4.629
 3631TIP3    H110838   5.494   4.279   4.576
 3631TIP3    H210839   5.353   4.237   4.610
 3632TIP3   OH210840   4.508   5.963   0.383
 3632TIP3    H110841   4.470   5.941   0.298
 3632TIP3    H210842   4.433   5.979   0.440
 3633TIP3   OH210843   2.620   3.644   3.428
 3633TIP3    H110844   2.639   3.681   3.342
 3633TIP3    H210845   2.589   3.555   3.409
 3634TIP3   OH210846   4.326   6.362   1.727
 3634TIP3    H110847   4.258   6.296   1.742
 3634TIP3    H210848   4.334   6.368   1.632
 3635TIP3   OH210849   1.022   5.884   6.416
 3635TIP3    H110850   1.000   5.813   6.356
 3635TIP3    H210851   0.944   5.893   6.472
 3636TIP3   OH210852   1.048   0.379   4.384
 3636TIP3    H110853   0.974   0.421   4.340
 3636TIP3    H210854   1.120   0.387   4.322
 3637TIP3   OH210855   2.278   6.238   0.666
 3637TIP3    H110856   2.198   6.249   0.616
 3637TIP3    H210857   2.286   6.143   0.678
 3638TIP3   OH210858   6.019   1.364   3.891
 3638TIP3    H110859   6.040   1.351   3.798
 3638TIP3    H210860   6.022   1.276   3.929
 3639TIP3   OH210861   7.547   3.100   5.124
 3639TIP3    H110862   7.603   3.170   5.156
 3639TIP3    H210863   7.466   3.144   5.098
 3640TIP3   OH210864   6.823   3.553   5.128
 3640TIP3    H110865   6.826   3.521   5.038
 3640TIP3    H210866   6.913   3.550   5.158
 3641TIP3   OH210867   5.124   6.252   5.959
 3641TIP3    H110868   5.122   6.345   5.936
 3641TIP3    H210869   5.151   6.208   5.879
 3642TIP3   OH210870   4.549   0.525   1.028
 3642TIP3    H110871   4.551   0.503   0.935
 3642TIP3    H210872   4.480   0.470   1.064
 3643TIP3   OH210873   3.451   0.121   4.974
 3643TIP3    H110874   3.388   0.143   5.043
 3643TIP3    H210875   3.513   0.061   5.016
 3644TIP3   OH210876   1.319   3.659   3.313
 3644TIP3    H110877   1.256   3.684   3.380
 3644TIP3    H210878   1.386   3.609   3.360
 3645TIP3   OH210879   6.527   5.746   3.021
 3645TIP3    H110880   6.483   5.821   3.061
 3645TIP3    H210881   6.487   5.669   3.062
 3646TIP3   OH210882   6.921   7.445   6.039
 3646TIP3    H110883   6.968   7.371   6.001
 3646TIP3    H210884   6.835   7.409   6.063
 3647TIP3   OH210885   7.522   5.551   2.682
 3647TIP3    H110886   7.477   5.636   2.687
 3647TIP3    H210887   7.544   5.531   2.772
 3648TIP3   OH210888   5.769   6.895   4.484
 3648TIP3    H110889   5.848   6.853   4.450
 3648TIP3    H210890   5.790   6.988   4.490
 3649TIP3   OH210891   0.121   2.733   5.034
 3649TIP3    H110892   0.094   2.729   5.126
 3649TIP3    H210893   0.186   2.663   5.025
 3650TIP3   OH210894   3.751   0.404   0.788
 3650TIP3    H110895   3.776   0.432   0.700
 3650TIP3    H210896   3.666   0.361   0.776
 3651TIP3   OH210897   2.750   6.208   1.295
 3651TIP3    H110898   2.834   6.200   1.249
 3651TIP3    H210899   2.687   6.229   1.227
 3652TIP3   OH210900   2.736   2.417   0.441
 3652TIP3    H110901   2.685   2.468   0.504
 3652TIP3    H210902   2.746   2.475   0.366
 3653TIP3   OH210903   0.047   3.793   1.781
 3653TIP3    H110904   0.129   3.812   1.735
 3653TIP3    H210905   0.067   3.811   1.873
 3654TIP3   OH210906   1.920   0.762   0.292
 3654TIP3    H110907   1.900   0.708   0.215
 3654TIP3    H210908   1.977   0.831   0.259
 3655TIP3   OH210909   6.955   4.042   2.242
 3655TIP3    H110910   7.018   4.099   2.286
 3655TIP3    H210911   6.925   4.093   2.166
 3656TIP3   OH210912   6.704   0.281   0.932
 3656TIP3    H110913   6.662   0.281   1.018
 3656TIP3    H210914   6.632   0.270   0.870
 3657TIP3   OH210915   0.865   0.923   3.793
 3657TIP3    H110916   0.783   0.884   3.763
 3657TIP3    H210917   0.844   1.016   3.807
 3658TIP3   OH210918   0.971   2.503   1.114
 3658TIP3    H110919   1.024   2.444   1.061
 3658TIP3    H210920   0.897   2.449   1.142
 3659TIP3   OH210921   1.404   5.058   0.991
 3659TIP3    H110922   1.325   5.109   0.975
 3659TIP3    H210923   1.392   5.021   1.079
 3660TIP3   OH210924   1.479   5.195   3.004
 3660TIP3    H110925   1.437   5.123   2.957
 3660TIP3    H210926   1.409   5.259   3.018
 3661TIP3   OH210927   8.003   1.886   4.366
 3661TIP3    H110928   8.016   1.980   4.356
 3661TIP3    H210929   8.090   1.848   4.358
 3662TIP3   OH210930   3.917   0.182   1.644
 3662TIP3    H110931   4.010   0.189   1.624
 3662TIP3    H210932   3.880   0.134   1.570
 3663TIP3   OH210933   2.072   3.688   3.588
 3663TIP3    H110934   2.026   3.608   3.615
 3663TIP3    H210935   2.086   3.677   3.494
 3664TIP3   OH210936   3.982   3.841   3.969
 3664TIP3    H110937   3.946   3.773   4.025
 3664TIP3    H210938   4.044   3.795   3.912
 3665TIP3   OH210939   4.261   7.563   5.090
 3665TIP3    H110940   4.306   7.486   5.123
 3665TIP3    H210941   4.207   7.592   5.163
 3666TIP3   OH210942   5.878   6.753   5.796
 3666TIP3    H110943   5.922   6.778   5.714
 3666TIP3    H210944   5.924   6.802   5.864
 3667TIP3   OH210945   3.575   4.094   6.436
 3667TIP3    H110946   3.564   3.999   6.439
 3667TIP3    H210947   3.596   4.118   6.527
 3668TIP3   OH210948   8.042   6.453   1.929
 3668TIP3    H110949   8.012   6.426   2.016
 3668TIP3    H210950   8.112   6.391   1.908
 3669TIP3   OH210951   5.782   6.689   3.647
 3669TIP3    H110952   5.793   6.629   3.573
 3669TIP3    H210953   5.698   6.664   3.686
 3670TIP3   OH210954   5.749   0.623   2.923
 3670TIP3    H110955   5.810   0.692   2.896
 3670TIP3    H210956   5.673   0.637   2.867
 3671TIP3   OH210957   2.141   6.099   6.631
 3671TIP3    H110958   2.133   6.185   6.672
 3671TIP3    H210959   2.210   6.055   6.680
 3672TIP3   OH210960   0.061   7.518   2.890
 3672TIP3    H110961   0.144   7.561   2.869
 3672TIP3    H210962   0.061   7.439   2.835
 3673TIP3   OH210963   3.753   5.679   5.150
 3673TIP3    H110964   3.768   5.660   5.057
 3673TIP3    H210965   3.659   5.698   5.155
 3674TIP3   OH210966   5.197   6.622   4.062
 3674TIP3    H110967   5.173   6.582   4.146
 3674TIP3    H210968   5.293   6.618   4.061
 3675TIP3   OH210969   3.804   1.294   5.211
 3675TIP3    H110970   3.867   1.281   5.140
 3675TIP3    H210971   3.792   1.389   5.215
 3676TIP3   OH210972   1.751   5.421   6.630
 3676TIP3    H110973   1.811   5.348   6.646
 3676TIP3    H210974   1.697   5.426   6.709
 3677TIP3   OH210975   4.225   4.967   2.334
 3677TIP3    H110976   4.297   5.022   2.366
 3677TIP3    H210977   4.208   4.906   2.405
 3678TIP3   OH210978   4.769   4.862   1.998
 3678TIP3    H110979   4.697   4.889   2.054
 3678TIP3    H210980   4.846   4.908   2.033
 3679TIP3   OH210981   3.546   6.956   0.874
 3679TIP3    H110982   3.635   6.992   0.866
 3679TIP3    H210983   3.542   6.924   0.964
 3680TIP3   OH210984   8.125   1.904   3.490
 3680TIP3    H110985   8.194   1.959   3.525
 3680TIP3    H210986   8.103   1.943   3.405
 3681TIP3   OH210987   5.004   3.741   3.278
 3681TIP3    H110988   5.011   3.674   3.210
 3681TIP3    H210989   5.036   3.698   3.357
 3682TIP3   OH210990   5.440   3.307   5.522
 3682TIP3    H110991   5.398   3.391   5.499
 3682TIP3    H210992   5.533   3.328   5.529
 3683TIP3   OH210993   6.639   6.770   0.891
 3683TIP3    H110994   6.587   6.799   0.966
 3683TIP3    H210995   6.644   6.675   0.901
 3684TIP3   OH210996   7.651   2.300   5.655
 3684TIP3    H110997   7.660   2.209   5.625
 3684TIP3    H210998   7.585   2.295   5.724
 3685TIP3   OH210999   2.134   1.235   2.914
 3685TIP3    H111000   2.117   1.316   2.865
 3685TIP3    H211001   2.089   1.248   2.997
 3686TIP3   OH211002   7.415   1.247   3.302
 3686TIP3    H111003   7.466   1.195   3.239
 3686TIP3    H211004   7.477   1.267   3.372
 3687TIP3   OH211005   1.963   6.326   2.320
 3687TIP3    H111006   2.058   6.338   2.317
 3687TIP3    H211007   1.945   6.304   2.411
 3688TIP3   OH211008   3.754   6.545   2.351
 3688TIP3    H111009   3.813   6.507   2.416
 3688TIP3    H211010   3.778   6.503   2.268
 3689TIP3   OH211011   5.548   6.585   3.785
 3689TIP3    H111012   5.497   6.632   3.718
 3689TIP3    H211013   5.502   6.602   3.867
 3690TIP3   OH211014   5.837   5.988   2.220
 3690TIP3    H111015   5.883   5.970   2.303
 3690TIP3    H211016   5.755   5.939   2.227
 3691TIP3   OH211017   3.132   1.182   1.600
 3691TIP3    H111018   3.085   1.176   1.516
 3691TIP3    H211019   3.181   1.263   1.594
 3692TIP3   OH211020   6.370   7.257   6.699
 3692TIP3    H111021   6.412   7.179   6.662
 3692TIP3    H211022   6.366   7.240   6.793
 3693TIP3   OH211023   6.801   7.814   5.971
 3693TIP3    H111024   6.818   7.898   5.929
 3693TIP3    H211025   6.851   7.751   5.919
 3694TIP3   OH211026   0.453   0.164   3.841
 3694TIP3    H111027   0.496   0.246   3.816
 3694TIP3    H211028   0.389   0.149   3.772
 3695TIP3   OH211029   4.025   3.206   5.359
 3695TIP3    H111030   3.931   3.225   5.360
 3695TIP3    H211031   4.037   3.149   5.283
 3696TIP3   OH211032   5.438   1.114   5.264
 3696TIP3    H111033   5.527   1.137   5.290
 3696TIP3    H211034   5.382   1.167   5.321
 3697TIP3   OH211035   1.086   6.333   1.455
 3697TIP3    H111036   1.085   6.424   1.485
 3697TIP3    H211037   1.160   6.294   1.502
 3698TIP3   OH211038   1.356   7.276   2.627
 3698TIP3    H111039   1.377   7.370   2.630
 3698TIP3    H211040   1.261   7.272   2.625
 3699TIP3   OH211041   6.954   3.105   3.160
 3699TIP3    H111042   6.936   3.025   3.110
 3699TIP3    H211043   6.867   3.139   3.183
 3700TIP3   OH211044   0.573   0.401   3.764
 3700TIP3    H111045   0.619   0.441   3.690
 3700TIP3    H211046   0.492   0.450   3.773
 3701TIP3   OH211047   6.696   5.055   6.461
 3701TIP3    H111048   6.735   5.025   6.542
 3701TIP3    H211049   6.609   5.086   6.486
 3702TIP3   OH211050   3.087   3.010   6.423
 3702TIP3    H111051   3.114   2.936   6.369
 3702TIP3    H211052   3.166   3.033   6.473
 3703TIP3   OH211053   0.449   0.445   5.549
 3703TIP3    H111054   0.489   0.430   5.463
 3703TIP3    H211055   0.439   0.357   5.585
 3704TIP3   OH211056   8.223   7.635   4.238
 3704TIP3    H111057   8.170   7.714   4.225
 3704TIP3    H211058   8.313   7.665   4.230
 3705TIP3   OH211059   4.555   4.042   3.565
 3705TIP3    H111060   4.519   4.128   3.545
 3705TIP3    H211061   4.483   3.981   3.551
 3706TIP3   OH211062   1.913   5.659   2.521
 3706TIP3    H111063   1.929   5.746   2.559
 3706TIP3    H211064   1.853   5.676   2.448
 3707TIP3   OH211065   7.975   3.585   5.314
 3707TIP3    H111066   8.003   3.675   5.295
 3707TIP3    H211067   7.982   3.540   5.230
 3708TIP3   OH211068   0.087   0.828   6.548
 3708TIP3    H111069   0.107   0.742   6.584
 3708TIP3    H211070   0.038   0.809   6.467
 3709TIP3   OH211071   7.581   7.262   0.093
 3709TIP3    H111072   7.499   7.221   0.121
 3709TIP3    H211073   7.625   7.195   0.040
 3710TIP3   OH211074   7.526   6.301   2.700
 3710TIP3    H111075   7.583   6.326   2.773
 3710TIP3    H211076   7.438   6.299   2.738
 3711TIP3   OH211077   1.037   1.751   3.315
 3711TIP3    H111078   1.009   1.820   3.255
 3711TIP3    H211079   0.956   1.713   3.348
 3712TIP3   OH211080   2.917   2.254   1.573
 3712TIP3    H111081   2.956   2.177   1.614
 3712TIP3    H211082   2.968   2.267   1.493
 3713TIP3   OH211083   3.672   1.801   5.697
 3713TIP3    H111084   3.615   1.731   5.728
 3713TIP3    H211085   3.614   1.876   5.682
 3714TIP3   OH211086   3.996   7.330   4.418
 3714TIP3    H111087   4.030   7.339   4.507
 3714TIP3    H211088   3.902   7.348   4.427
 3715TIP3   OH211089   0.673   0.240   1.883
 3715TIP3    H111090   0.727   0.264   1.958
 3715TIP3    H211091   0.670   0.319   1.829
 3716TIP3   OH211092   2.509   4.245   5.184
 3716TIP3    H111093   2.515   4.328   5.231
 3716TIP3    H211094   2.467   4.185   5.246
 3717TIP3   OH211095   2.491   0.290   2.350
 3717TIP3    H111096   2.424   0.229   2.319
 3717TIP3    H211097   2.571   0.263   2.304
 3718TIP3   OH211098   5.958   1.149   6.423
 3718TIP3    H111099   5.900   1.213   6.382
 3718TIP3    H211100   5.919   1.064   6.402
 3719TIP3   OH211101   4.624   3.512   4.356
 3719TIP3    H111102   4.566   3.442   4.326
 3719TIP3    H211103   4.673   3.473   4.429
 3720TIP3   OH211104   7.438   4.426   2.231
 3720TIP3    H111105   7.441   4.397   2.139
 3720TIP3    H211106   7.448   4.345   2.281
 3721TIP3   OH211107   5.447   3.659   0.777
 3721TIP3    H111108   5.498   3.602   0.835
 3721TIP3    H211109   5.394   3.599   0.724
 3722TIP3   OH211110   7.906   6.358   6.801
 3722TIP3    H111111   7.940   6.428   6.746
 3722TIP3    H211112   7.938   6.277   6.760
 3723TIP3   OH211113   1.312   5.363   0.621
 3723TIP3    H111114   1.394   5.323   0.593
 3723TIP3    H211115   1.249   5.290   0.624
 3724TIP3   OH211116   5.902   6.217   6.261
 3724TIP3    H111117   5.838   6.146   6.255
 3724TIP3    H211118   5.892   6.265   6.179
 3725TIP3   OH211119   6.919   4.557   3.261
 3725TIP3    H111120   6.993   4.565   3.320
 3725TIP3    H211121   6.857   4.500   3.308
 3726TIP3   OH211122   8.235   6.331   3.601
 3726TIP3    H111123   8.322   6.348   3.639
 3726TIP3    H211124   8.174   6.373   3.661
 3727TIP3   OH211125   4.842   5.553   6.593
 3727TIP3    H111126   4.863   5.557   6.500
 3727TIP3    H211127   4.764   5.498   6.598
 3728TIP3   OH211128   5.875   6.583   1.295
 3728TIP3    H111129   5.927   6.549   1.222
 3728TIP3    H211130   5.798   6.526   1.299
 3729TIP3   OH211131   0.540   1.815   5.610
 3729TIP3    H111132   0.510   1.778   5.527
 3729TIP3    H211133   0.534   1.910   5.597
 3730TIP3   OH211134   7.564   6.940   6.103
 3730TIP3    H111135   7.626   6.906   6.168
 3730TIP3    H211136   7.615   6.948   6.023
 3731TIP3   OH211137   5.825   0.913   1.363
 3731TIP3    H111138   5.916   0.934   1.343
 3731TIP3    H211139   5.829   0.832   1.412
 3732TIP3   OH211140   6.616   2.567   5.796
 3732TIP3    H111141   6.613   2.629   5.868
 3732TIP3    H211142   6.698   2.520   5.809
 3733TIP3   OH211143   7.443   0.539   1.817
 3733TIP3    H111144   7.415   0.622   1.856
 3733TIP3    H211145   7.538   0.544   1.814
 3734TIP3   OH211146   7.916   3.453   5.735
 3734TIP3    H111147   7.943   3.413   5.652
 3734TIP3    H211148   7.874   3.535   5.710
 3735TIP3   OH211149   0.883   1.238   1.456
 3735TIP3    H111150   0.931   1.248   1.538
 3735TIP3    H211151   0.792   1.223   1.483
 3736TIP3   OH211152   6.959   0.799   5.579
 3736TIP3    H111153   6.955   0.870   5.515
 3736TIP3    H211154   6.889   0.739   5.553
 3737TIP3   OH211155   5.861   1.479   4.979
 3737TIP3    H111156   5.879   1.569   4.953
 3737TIP3    H211157   5.924   1.460   5.048
 3738TIP3   OH211158   1.873   1.017   6.376
 3738TIP3    H111159   1.808   1.061   6.321
 3738TIP3    H211160   1.931   1.088   6.406
 3739TIP3   OH211161   4.548   3.734   5.469
 3739TIP3    H111162   4.582   3.671   5.407
 3739TIP3    H211163   4.453   3.730   5.459
 3740TIP3   OH211164   2.830   0.159   2.583
 3740TIP3    H111165   2.755   0.217   2.574
 3740TIP3    H211166   2.879   0.170   2.501
 3741TIP3   OH211167   2.861   0.012   2.064
 3741TIP3    H111168   2.844  -0.039   2.143
 3741TIP3    H211169   2.774   0.041   2.035
 3742TIP3   OH211170   0.129   1.841   0.266
 3742TIP3    H111171   0.088   1.763   0.227
 3742TIP3    H211172   0.149   1.815   0.356
 3743TIP3   OH211173   7.720   3.896   0.749
 3743TIP3    H111174   7.736   3.893   0.843
 3743TIP3    H211175   7.784   3.959   0.716
 3744TIP3   OH211176   4.491   7.006   0.851
 3744TIP3    H111177   4.496   7.102   0.857
 3744TIP3    H211178   4.547   6.975   0.922
 3745TIP3   OH211179   2.856   0.034   1.280
 3745TIP3    H111180   2.864   0.127   1.256
 3745TIP3    H211181   2.763   0.015   1.270
 3746TIP3   OH211182   7.815   2.718   4.332
 3746TIP3    H111183   7.885   2.654   4.320
 3746TIP3    H211184   7.735   2.670   4.312
 3747TIP3   OH211185   3.715   0.922   5.940
 3747TIP3    H111186   3.632   0.875   5.933
 3747TIP3    H211187   3.779   0.854   5.961
 3748TIP3   OH211188   2.861   6.692   6.469
 3748TIP3    H111189   2.892   6.695   6.378
 3748TIP3    H211190   2.893   6.773   6.508
 3749TIP3   OH211191   0.194   5.057   2.767
 3749TIP3    H111192   0.209   5.075   2.674
 3749TIP3    H211193   0.110   5.098   2.786
 3750TIP3   OH211194   8.254   5.397   4.914
 3750TIP3    H111195   8.346   5.380   4.892
 3750TIP3    H211196   8.207   5.387   4.832
 3751TIP3   OH211197   5.927   2.659   5.986
 3751TIP3    H111198   5.913   2.613   5.904
 3751TIP3    H211199   5.911   2.593   6.054
 3752TIP3   OH211200   2.489   3.994   5.808
 3752TIP3    H111201   2.545   4.014   5.733
 3752TIP3    H211202   2.551   3.976   5.879
 3753TIP3   OH211203   7.985   1.603   6.138
 3753TIP3    H111204   8.048   1.551   6.088
 3753TIP3    H211205   7.987   1.689   6.096
 3754TIP3   OH211206   0.868   3.426   5.889
 3754TIP3    H111207   0.904   3.369   5.821
 3754TIP3    H211208   0.946   3.464   5.931
 3755TIP3   OH211209   8.104   3.770   6.699
 3755TIP3    H111210   8.039   3.709   6.733
 3755TIP3    H211211   8.185   3.744   6.743
 3756TIP3   OH211212   7.651   5.960   4.422
 3756TIP3    H111213   7.689   6.023   4.361
 3756TIP3    H211214   7.683   5.989   4.508
 3757TIP3   OH211215   6.814   0.098   5.651
 3757TIP3    H111216   6.819   0.031   5.583
 3757TIP3    H211217   6.841   0.053   5.731
 3758TIP3   OH211218   2.557   4.892   1.355
 3758TIP3    H111219   2.522   4.923   1.439
 3758TIP3    H211220   2.602   4.810   1.377
 3759TIP3   OH211221   3.898   1.807   4.230
 3759TIP3    H111222   3.959   1.783   4.299
 3759TIP3    H211223   3.851   1.883   4.265
 3760TIP3   OH211224   4.716   1.340   4.712
 3760TIP3    H111225   4.784   1.343   4.644
 3760TIP3    H211226   4.764   1.315   4.791
 3761TIP3   OH211227   1.951   2.147   2.774
 3761TIP3    H111228   1.974   2.231   2.736
 3761TIP3    H211229   1.880   2.168   2.836
 3762TIP3   OH211230   4.121   7.292   5.357
 3762TIP3    H111231   4.068   7.299   5.277
 3762TIP3    H211232   4.209   7.315   5.328
 3763TIP3   OH211233   0.611   2.947   3.500
 3763TIP3    H111234   0.678   2.905   3.445
 3763TIP3    H211235   0.550   2.876   3.520
 3764TIP3   OH211236   7.556   1.623   3.377
 3764TIP3    H111237   7.587   1.665   3.457
 3764TIP3    H211238   7.469   1.660   3.363
 3765TIP3   OH211239   4.731   3.537   1.918
 3765TIP3    H111240   4.676   3.481   1.865
 3765TIP3    H211241   4.691   3.534   2.005
 3766TIP3   OH211242   8.127   6.848   0.688
 3766TIP3    H111243   8.152   6.941   0.688
 3766TIP3    H211244   8.058   6.843   0.622
 3767TIP3   OH211245   5.107   5.581   0.307
 3767TIP3    H111246   5.092   5.609   0.398
 3767TIP3    H211247   5.022   5.590   0.265
 3768TIP3   OH211248   4.769   7.360   5.631
 3768TIP3    H111249   4.829   7.432   5.611
 3768TIP3    H211250   4.683   7.392   5.604
 3769TIP3   OH211251   6.320   0.808   5.873
 3769TIP3    H111252   6.351   0.808   5.963
 3769TIP3    H211253   6.350   0.891   5.836
 3770TIP3   OH211254   8.000   3.877   5.235
 3770TIP3    H111255   7.953   3.892   5.153
 3770TIP3    H211256   7.992   3.959   5.283
 3771TIP3   OH211257   0.802   3.785   1.991
 3771TIP3    H111258   0.706   3.790   1.987
 3771TIP3    H211259   0.821   3.771   2.084
 3772TIP3   OH211260   3.071   7.649   5.300
 3772TIP3    H111261   2.994   7.700   5.273
 3772TIP3    H211262   3.067   7.570   5.246
 3773TIP3   OH211263   2.944   6.329   0.630
 3773TIP3    H111264   2.970   6.250   0.583
 3773TIP3    H211265   3.026   6.366   0.663
 3774TIP3   OH211266   4.838   7.360   0.984
 3774TIP3    H111267   4.921   7.333   0.946
 3774TIP3    H211268   4.858   7.444   1.027
 3775TIP3   OH211269   6.393   7.639   6.685
 3775TIP3    H111270   6.355   7.721   6.653
 3775TIP3    H211271   6.380   7.576   6.614
 3776TIP3   OH211272   4.022   2.024   5.939
 3776TIP3    H111273   4.116   2.044   5.937
 3776TIP3    H211274   3.980   2.110   5.941
 3777TIP3   OH211275   0.784   3.349   2.932
 3777TIP3    H111276   0.766   3.377   3.022
 3777TIP3    H211277   0.724   3.401   2.879
 3778TIP3   OH211278   3.366   7.193   0.237
 3778TIP3    H111279   3.275   7.189   0.265
 3778TIP3    H211280   3.400   7.105   0.256
 3779TIP3   OH211281   2.095   7.270   6.678
 3779TIP3    H111282   2.045   7.351   6.684
 3779TIP3    H211283   2.118   7.248   6.768
 3780TIP3   OH211284   5.800   4.211   6.474
 3780TIP3    H111285   5.856   4.267   6.420
 3780TIP3    H211286   5.719   4.261   6.485
 3781TIP3   OH211287   2.900   0.454   2.703
 3781TIP3    H111288   2.805   0.454   2.695
 3781TIP3    H211289   2.932   0.463   2.613
 3782TIP3   OH211290   2.507   5.381   6.363
 3782TIP3    H111291   2.502   5.286   6.352
 3782TIP3    H211292   2.594   5.396   6.399
 3783TIP3   OH211293   4.289   3.611   5.904
 3783TIP3    H111294   4.337   3.580   5.828
 3783TIP3    H211295   4.212   3.555   5.909
 3784TIP3   OH211296   2.496   5.360   3.314
 3784TIP3    H111297   2.523   5.308   3.389
 3784TIP3    H211298   2.425   5.311   3.275
 3785TIP3   OH211299   6.556   4.430   6.454
 3785TIP3    H111300   6.533   4.487   6.528
 3785TIP3    H211301   6.651   4.434   6.449
 3786TIP3   OH211302   5.569   2.606   3.185
 3786TIP3    H111303   5.576   2.702   3.179
 3786TIP3    H211304   5.517   2.581   3.109
 3787TIP3   OH211305   1.952   1.986   2.552
 3787TIP3    H111306   1.981   2.055   2.491
 3787TIP3    H211307   1.920   2.033   2.628
 3788TIP3   OH211308   4.631   1.835   2.130
 3788TIP3    H111309   4.640   1.925   2.161
 3788TIP3    H211310   4.537   1.826   2.112
 3789TIP3   OH211311   0.275   2.746   0.917
 3789TIP3    H111312   0.196   2.748   0.970
 3789TIP3    H211313   0.244   2.747   0.827
 3790TIP3   OH211314   2.687   7.371   3.606
 3790TIP3    H111315   2.701   7.376   3.700
 3790TIP3    H211316   2.733   7.447   3.571
 3791TIP3   OH211317   1.944   5.721   0.503
 3791TIP3    H111318   1.937   5.727   0.408
 3791TIP3    H211319   2.032   5.689   0.519
 3792TIP3   OH211320   5.800   5.868   0.374
 3792TIP3    H111321   5.751   5.788   0.356
 3792TIP3    H211322   5.848   5.849   0.455
 3793TIP3   OH211323   6.352   2.991   0.130
 3793TIP3    H111324   6.392   2.905   0.113
 3793TIP3    H211325   6.270   2.970   0.175
 3794TIP3   OH211326   5.164   5.170   2.544
 3794TIP3    H111327   5.152   5.081   2.511
 3794TIP3    H211328   5.172   5.223   2.464
 3795TIP3   OH211329   7.338   5.492   6.459
 3795TIP3    H111330   7.428   5.512   6.486
 3795TIP3    H211331   7.334   5.397   6.457
 3796TIP3   OH211332   5.137   3.985   3.212
 3796TIP3    H111333   5.063   3.933   3.242
 3796TIP3    H211334   5.185   4.007   3.292
 3797TIP3   OH211335   7.781   0.414   0.353
 3797TIP3    H111336   7.823   0.499   0.341
 3797TIP3    H211337   7.698   0.422   0.305
 3798TIP3   OH211338   1.325   4.540   2.056
 3798TIP3    H111339   1.281   4.602   1.997
 3798TIP3    H211340   1.308   4.574   2.144
 3799TIP3   OH211341   2.008   7.000   0.120
 3799TIP3    H111342   2.083   6.961   0.076
 3799TIP3    H211343   1.972   7.061   0.056
 3800TIP3   OH211344   6.598   3.553   3.924
 3800TIP3    H111345   6.630   3.505   4.000
 3800TIP3    H211346   6.670   3.547   3.860
 3801TIP3   OH211347   5.244   0.083   3.948
 3801TIP3    H111348   5.166   0.037   3.916
 3801TIP3    H211349   5.317   0.026   3.925
 3802TIP3   OH211350   4.708   6.514   4.558
 3802TIP3    H111351   4.657   6.467   4.624
 3802TIP3    H211352   4.682   6.605   4.569
 3803TIP3   OH211353   1.357   3.320   3.783
 3803TIP3    H111354   1.271   3.360   3.773
 3803TIP3    H211355   1.368   3.308   3.878
 3804TIP3   OH211356   1.273   4.900   2.191
 3804TIP3    H111357   1.277   4.879   2.097
 3804TIP3    H211358   1.214   4.975   2.196
 3805TIP3   OH211359   0.644   7.723   2.559
 3805TIP3    H111360   0.657   7.809   2.519
 3805TIP3    H211361   0.611   7.742   2.647
 3806TIP3   OH211362   0.250   4.232   3.253
 3806TIP3    H111363   0.251   4.291   3.177
 3806TIP3    H211364   0.158   4.212   3.267
 3807TIP3   OH211365   3.483   7.284   1.954
 3807TIP3    H111366   3.401   7.333   1.946
 3807TIP3    H211367   3.465   7.216   2.018
 3808TIP3   OH211368   1.726   7.216   1.702
 3808TIP3    H111369   1.701   7.157   1.631
 3808TIP3    H211370   1.655   7.281   1.706
 3809TIP3   OH211371   0.470   6.287   6.616
 3809TIP3    H111372   0.424   6.352   6.564
 3809TIP3    H211373   0.403   6.251   6.674
 3810TIP3   OH211374   7.951   1.177   6.660
 3810TIP3    H111375   7.924   1.254   6.611
 3810TIP3    H211376   8.045   1.188   6.674
 3811TIP3   OH211377   4.736   0.722   6.352
 3811TIP3    H111378   4.797   0.697   6.421
 3811TIP3    H211379   4.676   0.648   6.344
 3812TIP3   OH211380   5.154   0.144   6.349
 3812TIP3    H111381   5.109   0.227   6.363
 3812TIP3    H211382   5.238   0.168   6.311
 3813TIP3   OH211383   3.552   4.224   4.395
 3813TIP3    H111384   3.511   4.225   4.309
 3813TIP3    H211385   3.487   4.264   4.453
 3814TIP3   OH211386   0.627   0.644   1.755
 3814TIP3    H111387   0.586   0.605   1.832
 3814TIP3    H211388   0.559   0.700   1.717
 3815TIP3   OH211389   4.238   3.433   2.988
 3815TIP3    H111390   4.197   3.402   3.069
 3815TIP3    H211391   4.167   3.438   2.925
 3816TIP3   OH211392   3.761   2.320   4.217
 3816TIP3    H111393   3.826   2.363   4.161
 3816TIP3    H211394   3.707   2.269   4.156
 3817TIP3   OH211395   8.145   5.858   2.925
 3817TIP3    H111396   8.140   5.917   3.001
 3817TIP3    H211397   8.176   5.775   2.962
 3818TIP3   OH211398   7.002   4.199   6.470
 3818TIP3    H111399   6.906   4.191   6.469
 3818TIP3    H211400   7.028   4.188   6.379
 3819TIP3   OH211401   3.892   1.668   0.094
 3819TIP3    H111402   3.843   1.661   0.176
 3819TIP3    H211403   3.956   1.738   0.109
 3820TIP3   OH211404   0.602   1.226   1.504
 3820TIP3    H111405   0.553   1.278   1.440
 3820TIP3    H211406   0.622   1.287   1.574
 3821TIP3   OH211407   2.460   2.430   1.902
 3821TIP3    H111408   2.495   2.468   1.821
 3821TIP3    H211409   2.430   2.342   1.877
 3822TIP3   OH211410   5.057   0.378   1.039
 3822TIP3    H111411   5.118   0.406   1.107
 3822TIP3    H211412   4.998   0.317   1.083
 3823TIP3   OH211413   5.474   6.987   6.336
 3823TIP3    H111414   5.473   6.961   6.243
 3823TIP3    H211415   5.567   6.999   6.356
 3824TIP3   OH211416   2.153   6.091   4.287
 3824TIP3    H111417   2.110   6.112   4.203
 3824TIP3    H211418   2.101   6.139   4.352
 3825TIP3   OH211419   6.203   1.865   4.880
 3825TIP3    H111420   6.197   1.830   4.791
 3825TIP3    H211421   6.296   1.860   4.901
 3826TIP3   OH211422   3.351   3.997   0.992
 3826TIP3    H111423   3.366   4.003   1.086
 3826TIP3    H211424   3.259   3.973   0.984
 3827TIP3   OH211425   1.253   0.186   0.050
 3827TIP3    H111426   1.317   0.248   0.085
 3827TIP3    H211427   1.275   0.103   0.091
 3828TIP3   OH211428   5.238   1.251   6.427
 3828TIP3    H111429   5.318   1.291   6.460
 3828TIP3    H211430   5.232   1.280   6.336
 3829TIP3   OH211431   5.961   2.740   1.542
 3829TIP3    H111432   5.911   2.783   1.612
 3829TIP3    H211433   6.010   2.811   1.501
 3830TIP3   OH211434   2.280   5.309   2.892
 3830TIP3    H111435   2.286   5.217   2.918
 3830TIP3    H211436   2.371   5.338   2.885
 3831TIP3   OH211437   1.517   5.970   0.180
 3831TIP3    H111438   1.440   6.002   0.133
 3831TIP3    H211439   1.589   5.981   0.117
 3832TIP3   OH211440   6.151   5.872   3.383
 3832TIP3    H111441   6.190   5.908   3.463
 3832TIP3    H211442   6.080   5.932   3.363
 3833TIP3   OH211443   7.158   0.733   5.214
 3833TIP3    H111444   7.077   0.689   5.240
 3833TIP3    H211445   7.227   0.677   5.248
 3834TIP3   OH211446   6.356   5.605   0.436
 3834TIP3    H111447   6.410   5.671   0.479
 3834TIP3    H211448   6.370   5.620   0.343
 3835TIP3   OH211449   2.641   2.830   6.400
 3835TIP3    H111450   2.566   2.827   6.460
 3835TIP3    H211451   2.713   2.864   6.453
 3836TIP3   OH211452   5.376   2.733   5.595
 3836TIP3    H111453   5.282   2.739   5.582
 3836TIP3    H211454   5.395   2.795   5.666
 3837TIP3   OH211455   7.573   2.476   5.002
 3837TIP3    H111456   7.489   2.520   4.993
 3837TIP3    H211457   7.560   2.414   5.074
 3838TIP3   OH211458   0.859   2.456   6.495
 3838TIP3    H111459   0.911   2.460   6.415
 3838TIP3    H211460   0.898   2.521   6.553
 3839TIP3   OH211461   0.093   5.393   0.352
 3839TIP3    H111462   0.126   5.416   0.265
 3839TIP3    H211463   0.083   5.476   0.398
 3840TIP3   OH211464   1.105   7.795   2.417
 3840TIP3    H111465   1.139   7.706   2.413
 3840TIP3    H211466   1.181   7.849   2.439
 3841TIP3   OH211467   6.742   6.987   1.280
 3841TIP3    H111468   6.705   6.900   1.292
 3841TIP3    H211469   6.819   6.974   1.225
 3842TIP3   OH211470   1.576   2.507   0.928
 3842TIP3    H111471   1.667   2.530   0.945
 3842TIP3    H211472   1.581   2.428   0.875
 3843TIP3   OH211473   7.114   3.847   0.841
 3843TIP3    H111474   7.126   3.753   0.850
 3843TIP3    H211475   7.021   3.861   0.857
 3844TIP3   OH211476   4.097   5.509   5.084
 3844TIP3    H111477   4.112   5.585   5.141
 3844TIP3    H211478   4.176   5.455   5.096
 3845TIP3   OH211479   5.856   3.274   5.826
 3845TIP3    H111480   5.819   3.216   5.893
 3845TIP3    H211481   5.946   3.290   5.854
 3846TIP3   OH211482   2.470   2.923   0.109
 3846TIP3    H111483   2.554   2.889   0.139
 3846TIP3    H211484   2.469   3.014   0.140
 3847TIP3   OH211485   3.272   4.043   5.129
 3847TIP3    H111486   3.192   4.024   5.080
 3847TIP3    H211487   3.301   3.957   5.161
 3848TIP3   OH211488   3.523   5.459   6.407
 3848TIP3    H111489   3.616   5.473   6.388
 3848TIP3    H211490   3.492   5.544   6.439
 3849TIP3   OH211491   4.742   6.869   3.497
 3849TIP3    H111492   4.685   6.802   3.537
 3849TIP3    H211493   4.684   6.943   3.481
 3850TIP3   OH211494   5.311   3.479   3.838
 3850TIP3    H111495   5.284   3.426   3.912
 3850TIP3    H211496   5.262   3.445   3.764
 3851TIP3   OH211497   0.149   6.244   0.739
 3851TIP3    H111498   0.218   6.302   0.769
 3851TIP3    H211499   0.111   6.289   0.663
 3852TIP3   OH211500   4.903   6.284   2.356
 3852TIP3    H111501   4.894   6.230   2.434
 3852TIP3    H211502   4.996   6.281   2.335
 3853TIP3   OH211503   4.365   0.508   3.676
 3853TIP3    H111504   4.406   0.537   3.594
 3853TIP3    H211505   4.272   0.501   3.654
 3854TIP3   OH211506   0.684   0.546   3.561
 3854TIP3    H111507   0.776   0.562   3.578
 3854TIP3    H211508   0.682   0.498   3.478
 3855TIP3   OH211509   4.332   1.289   1.320
 3855TIP3    H111510   4.288   1.246   1.246
 3855TIP3    H211511   4.425   1.285   1.298
 3856TIP3   OH211512   2.357   4.071   0.252
 3856TIP3    H111513   2.450   4.093   0.245
 3856TIP3    H211514   2.333   4.094   0.342
 3857TIP3   OH211515   2.251   6.792   1.612
 3857TIP3    H111516   2.169   6.761   1.648
 3857TIP3    H211517   2.318   6.764   1.675
 3858TIP3   OH211518   0.941   2.885   6.434
 3858TIP3    H111519   1.029   2.848   6.426
 3858TIP3    H211520   0.929   2.899   6.528
 3859TIP3   OH211521   6.101   3.905   6.047
 3859TIP3    H111522   6.030   3.870   6.101
 3859TIP3    H211523   6.058   3.930   5.965
 3860TIP3   OH211524   0.497   0.265   5.303
 3860TIP3    H111525   0.445   0.186   5.287
 3860TIP3    H211526   0.470   0.325   5.234
 3861TIP3   OH211527   3.620   5.605   3.569
 3861TIP3    H111528   3.567   5.527   3.585
 3861TIP3    H211529   3.629   5.646   3.655
 3862TIP3   OH211530   7.807   1.317   0.919
 3862TIP3    H111531   7.870   1.377   0.961
 3862TIP3    H211532   7.858   1.275   0.849
 3863TIP3   OH211533   7.179   7.139   3.220
 3863TIP3    H111534   7.151   7.188   3.142
 3863TIP3    H211535   7.120   7.064   3.224
 3864TIP3   OH211536   7.074   5.318   4.118
 3864TIP3    H111537   7.021   5.380   4.169
 3864TIP3    H211538   7.078   5.239   4.173
 3865TIP3   OH211539   1.718   5.308   3.379
 3865TIP3    H111540   1.737   5.217   3.400
 3865TIP3    H211541   1.677   5.343   3.458
 3866TIP3   OH211542   6.573   6.464   3.173
 3866TIP3    H111543   6.603   6.390   3.227
 3866TIP3    H211544   6.559   6.535   3.236
 3867TIP3   OH211545   2.884   4.113   1.114
 3867TIP3    H111546   2.958   4.070   1.070
 3867TIP3    H211547   2.920   4.145   1.197
 3868TIP3   OH211548   5.881   7.622   5.354
 3868TIP3    H111549   5.831   7.571   5.417
 3868TIP3    H211550   5.925   7.689   5.406
 3869TIP3   OH211551   4.561   7.476   3.946
 3869TIP3    H111552   4.558   7.567   3.919
 3869TIP3    H211553   4.503   7.431   3.885
 3870TIP3   OH211554   4.186   6.910   4.119
 3870TIP3    H111555   4.125   6.910   4.192
 3870TIP3    H211556   4.181   6.999   4.083
 3871TIP3   OH211557   1.478   2.528   2.671
 3871TIP3    H111558   1.485   2.566   2.759
 3871TIP3    H211559   1.544   2.573   2.620
 3872TIP3   OH211560   5.501   3.348   3.664
 3872TIP3    H111561   5.408   3.371   3.659
 3872TIP3    H211562   5.546   3.425   3.631
 3873TIP3   OH211563   0.099   7.031   1.152
 3873TIP3    H111564   0.100   6.952   1.206
 3873TIP3    H211565   0.010   7.037   1.119
 3874TIP3   OH211566   7.222   4.870   1.826
 3874TIP3    H111567   7.259   4.793   1.783
 3874TIP3    H211568   7.130   4.847   1.842
 3875TIP3   OH211569   5.101   7.729   1.904
 3875TIP3    H111570   5.121   7.645   1.945
 3875TIP3    H211571   5.184   7.756   1.865
 3876TIP3   OH211572   1.073   1.692   4.903
 3876TIP3    H111573   0.991   1.711   4.857
 3876TIP3    H211574   1.099   1.776   4.941
 3877TIP3   OH211575   4.910   0.860   4.220
 3877TIP3    H111576   4.977   0.812   4.172
 3877TIP3    H211577   4.835   0.863   4.160
 3878TIP3   OH211578   5.882   2.452   0.561
 3878TIP3    H111579   5.960   2.506   0.546
 3878TIP3    H211580   5.905   2.366   0.528
 3879TIP3   OH211581   2.154   2.413   1.705
 3879TIP3    H111582   2.079   2.389   1.650
 3879TIP3    H211583   2.231   2.391   1.653
 3880TIP3   OH211584   5.713   4.105   0.669
 3880TIP3    H111585   5.625   4.071   0.652
 3880TIP3    H211586   5.744   4.135   0.584
 3881TIP3   OH211587   3.351   3.202   2.664
 3881TIP3    H111588   3.353   3.107   2.654
 3881TIP3    H211589   3.364   3.216   2.757
 3882TIP3   OH211590   6.021   7.410   0.443
 3882TIP3    H111591   6.077   7.339   0.476
 3882TIP3    H211592   5.933   7.386   0.472
 3883TIP3   OH211593   6.852   0.350   5.558
 3883TIP3    H111594   6.888   0.267   5.590
 3883TIP3    H211595   6.801   0.383   5.632
 3884TIP3   OH211596   8.215   6.016   3.516
 3884TIP3    H111597   8.245   6.014   3.425
 3884TIP3    H211598   8.173   6.101   3.526
 3885TIP3   OH211599   0.519   4.631   6.710
 3885TIP3    H111600   0.593   4.572   6.696
 3885TIP3    H211601   0.532   4.701   6.646
 3886TIP3   OH211602   2.413   6.701   0.189
 3886TIP3    H111603   2.463   6.752   0.252
 3886TIP3    H211604   2.474   6.634   0.159
 3887TIP3   OH211605   4.225   1.968   3.099
 3887TIP3    H111606   4.137   1.994   3.071
 3887TIP3    H211607   4.231   1.997   3.190
 3888TIP3   OH211608   1.649   6.165   6.511
 3888TIP3    H111609   1.722   6.149   6.452
 3888TIP3    H211610   1.687   6.211   6.585
 3889TIP3   OH211611   7.054   2.978   3.588
 3889TIP3    H111612   7.076   3.028   3.667
 3889TIP3    H211613   7.035   3.045   3.522
 3890TIP3   OH211614   5.685   2.713   6.612
 3890TIP3    H111615   5.770   2.750   6.636
 3890TIP3    H211616   5.705   2.636   6.559
 3891TIP3   OH211617   8.164   7.576   6.142
 3891TIP3    H111618   8.140   7.629   6.218
 3891TIP3    H211619   8.185   7.490   6.179
 3892TIP3   OH211620   5.501   5.617   1.954
 3892TIP3    H111621   5.499   5.708   1.926
 3892TIP3    H211622   5.432   5.574   1.904
 3893TIP3   OH211623   6.271   1.092   0.402
 3893TIP3    H111624   6.364   1.071   0.393
 3893TIP3    H211625   6.261   1.121   0.492
 3894TIP3   OH211626   3.369   2.316   5.085
 3894TIP3    H111627   3.439   2.379   5.067
 3894TIP3    H211628   3.396   2.236   5.039
 3895TIP3   OH211629   3.560   0.014   0.994
 3895TIP3    H111630   3.573   0.109   0.983
 3895TIP3    H211631   3.636  -0.014   1.045
 3896TIP3   OH211632   4.229   3.904   0.909
 3896TIP3    H111633   4.197   3.916   0.819
 3896TIP3    H211634   4.278   3.822   0.907
 3897TIP3   OH211635   7.440   4.826   6.187
 3897TIP3    H111636   7.487   4.847   6.106
 3897TIP3    H211637   7.353   4.865   6.175
 3898TIP3   OH211638   6.511   5.753   1.441
 3898TIP3    H111639   6.427   5.800   1.442
 3898TIP3    H211640   6.514   5.709   1.526
 3899TIP3   OH211641   0.563   6.659   0.288
 3899TIP3    H111642   0.615   6.737   0.307
 3899TIP3    H211643   0.482   6.672   0.337
 3900TIP3   OH211644   1.061   2.456   6.273
 3900TIP3    H111645   1.144   2.461   6.226
 3900TIP3    H211646   0.998   2.422   6.209
 3901TIP3   OH211647   5.293   1.323   3.537
 3901TIP3    H111648   5.276   1.356   3.625
 3901TIP3    H211649   5.252   1.386   3.479
 3902TIP3   OH211650   1.890   0.003   5.956
 3902TIP3    H111651   1.828   0.075   5.939
 3902TIP3    H211652   1.976   0.040   5.936
 3903TIP3   OH211653   3.854   2.533   0.797
 3903TIP3    H111654   3.945   2.504   0.796
 3903TIP3    H211655   3.844   2.585   0.717
 3904TIP3   OH211656   2.566   7.648   3.338
 3904TIP3    H111657   2.598   7.701   3.411
 3904TIP3    H211658   2.502   7.704   3.294
 3905TIP3   OH211659   2.649   4.931   2.293
 3905TIP3    H111660   2.688   4.890   2.216
 3905TIP3    H211661   2.703   4.900   2.366
 3906TIP3   OH211662   6.747   3.757   6.747
 3906TIP3    H111663   6.696   3.824   6.702
 3906TIP3    H211664   6.762   3.793   6.834
 3907TIP3   OH211665   6.490   7.766   5.520
 3907TIP3    H111666   6.436   7.802   5.450
 3907TIP3    H211667   6.445   7.686   5.547
 3908TIP3   OH211668   8.015   6.514   1.000
 3908TIP3    H111669   8.101   6.475   1.015
 3908TIP3    H211670   8.022   6.554   0.913
 3909TIP3   OH211671   7.856   0.052   4.762
 3909TIP3    H111672   7.791   0.011   4.704
 3909TIP3    H211673   7.823   0.034   4.851
 3910TIP3   OH211674   2.426   5.560   2.983
 3910TIP3    H111675   2.384   5.478   3.007
 3910TIP3    H211676   2.372   5.595   2.913
 3911TIP3   OH211677   7.152   2.684   3.505
 3911TIP3    H111678   7.103   2.764   3.525
 3911TIP3    H211679   7.084   2.619   3.486
 3912TIP3   OH211680   2.293   4.529   2.457
 3912TIP3    H111681   2.226   4.503   2.394
 3912TIP3    H211682   2.329   4.610   2.421
 3913TIP3   OH211683   3.054   4.177   1.330
 3913TIP3    H111684   3.114   4.116   1.374
 3913TIP3    H211685   3.104   4.208   1.254
 3914TIP3   OH211686   7.492   6.030   3.952
 3914TIP3    H111687   7.452   6.116   3.954
 3914TIP3    H211688   7.426   5.971   3.990
 3915TIP3   OH211689   4.133   0.786   2.014
 3915TIP3    H111690   4.103   0.710   2.063
 3915TIP3    H211691   4.153   0.753   1.927
 3916TIP3   OH211692   2.057   5.986   6.393
 3916TIP3    H111693   2.126   5.996   6.329
 3916TIP3    H211694   2.089   6.033   6.471
 3917TIP3   OH211695   1.719   1.616   0.622
 3917TIP3    H111696   1.798   1.622   0.675
 3917TIP3    H211697   1.708   1.522   0.606
 3918TIP3   OH211698   4.292   2.514   2.875
 3918TIP3    H111699   4.274   2.604   2.848
 3918TIP3    H211700   4.385   2.514   2.899
 3919TIP3   OH211701   6.545   5.974   2.123
 3919TIP3    H111702   6.583   5.977   2.211
 3919TIP3    H211703   6.504   5.888   2.117
 3920TIP3   OH211704   2.824   2.234   5.556
 3920TIP3    H111705   2.777   2.152   5.564
 3920TIP3    H211706   2.884   2.235   5.631
 3921TIP3   OH211707   1.605   0.605   0.853
 3921TIP3    H111708   1.566   0.656   0.782
 3921TIP3    H211709   1.692   0.581   0.820
 3922TIP3   OH211710   7.276   4.571   5.322
 3922TIP3    H111711   7.370   4.582   5.335
 3922TIP3    H211712   7.235   4.645   5.366
 3923TIP3   OH211713   3.989   4.526   6.446
 3923TIP3    H111714   3.978   4.616   6.418
 3923TIP3    H211715   3.920   4.478   6.401
 3924TIP3   OH211716   2.553   7.322   2.698
 3924TIP3    H111717   2.533   7.277   2.616
 3924TIP3    H211718   2.637   7.366   2.681
 3925TIP3   OH211719   7.045   4.682   1.944
 3925TIP3    H111720   7.076   4.601   1.903
 3925TIP3    H211721   7.108   4.698   2.014
 3926TIP3   OH211722   7.960   3.727   2.045
 3926TIP3    H111723   8.006   3.716   1.962
 3926TIP3    H211724   7.955   3.638   2.081
 3927TIP3   OH211725   2.048   1.343   0.753
 3927TIP3    H111726   2.040   1.366   0.660
 3927TIP3    H211727   2.092   1.258   0.752
 3928TIP3   OH211728   2.003   5.501   0.214
 3928TIP3    H111729   2.053   5.503   0.132
 3928TIP3    H211730   2.031   5.421   0.258
 3929TIP3   OH211731   7.296   0.668   2.322
 3929TIP3    H111732   7.247   0.611   2.263
 3929TIP3    H211733   7.380   0.624   2.334
 3930TIP3   OH211734   2.857   2.944   0.797
 3930TIP3    H111735   2.776   2.963   0.844
 3930TIP3    H211736   2.833   2.953   0.704
 3931TIP3   OH211737   2.148   2.025   3.221
 3931TIP3    H111738   2.212   2.048   3.288
 3931TIP3    H211739   2.127   2.108   3.179
 3932TIP3   OH211740   3.367   2.201   3.404
 3932TIP3    H111741   3.319   2.275   3.440
 3932TIP3    H211742   3.441   2.241   3.358
 3933TIP3   OH211743   7.600   1.749   6.516
 3933TIP3    H111744   7.684   1.754   6.471
 3933TIP3    H211745   7.615   1.690   6.590
 3934TIP3   OH211746   3.797   3.877   4.689
 3934TIP3    H111747   3.849   3.872   4.610
 3934TIP3    H211748   3.799   3.969   4.714
 3935TIP3   OH211749   2.429   0.058   1.717
 3935TIP3    H111750   2.494   0.025   1.655
 3935TIP3    H211751   2.433   0.153   1.706
 3936TIP3   OH211752   5.976   3.256   6.718
 3936TIP3    H111753   6.016   3.175   6.686
 3936TIP3    H211754   6.013   3.325   6.662
 3937TIP3   OH211755   0.919   5.970   0.926
 3937TIP3    H111756   0.988   5.926   0.876
 3937TIP3    H211757   0.841   5.964   0.869
 3938TIP3   OH211758   1.114   6.587   2.003
 3938TIP3    H111759   1.149   6.613   1.918
 3938TIP3    H211760   1.182   6.531   2.041
 3939TIP3   OH211761   4.872   1.279   6.288
 3939TIP3    H111762   4.882   1.329   6.207
 3939TIP3    H211763   4.916   1.196   6.272
 3940TIP3   OH211764   1.432   2.516   0.134
 3940TIP3    H111765   1.395   2.532   0.220
 3940TIP3    H211766   1.376   2.450   0.094
 3941TIP3   OH211767   6.876   0.939   1.767
 3941TIP3    H111768   6.815   0.931   1.694
 3941TIP3    H211769   6.827   0.984   1.835
 3942TIP3   OH211770   0.236   6.337   5.916
 3942TIP3    H111771   0.182   6.370   5.988
 3942TIP3    H211772   0.321   6.378   5.928
 3943TIP3   OH211773   2.055   0.568   5.247
 3943TIP3    H111774   2.000   0.497   5.215
 3943TIP3    H211775   2.098   0.532   5.324
 3944TIP3   OH211776   7.781   5.739   0.156
 3944TIP3    H111777   7.824   5.672   0.209
 3944TIP3    H211778   7.781   5.702   0.067
 3945TIP3   OH211779   1.330   5.559   0.431
 3945TIP3    H111780   1.389   5.610   0.487
 3945TIP3    H211781   1.306   5.483   0.484
 3946TIP3   OH211782   5.820   0.137   1.076
 3946TIP3    H111783   5.879   0.187   1.133
 3946TIP3    H211784   5.835   0.046   1.101
 3947TIP3   OH211785   5.745   2.177   1.087
 3947TIP3    H111786   5.840   2.173   1.096
 3947TIP3    H211787   5.730   2.245   1.021
 3948TIP3   OH211788   1.751   1.198   0.802
 3948TIP3    H111789   1.817   1.259   0.836
 3948TIP3    H211790   1.796   1.150   0.733
 3949TIP3   OH211791   6.572   1.764   4.578
 3949TIP3    H111792   6.531   1.678   4.588
 3949TIP3    H211793   6.511   1.813   4.523
 3950TIP3   OH211794   1.320   0.430   0.155
 3950TIP3    H111795   1.415   0.430   0.164
 3950TIP3    H211796   1.303   0.485   0.078
 3951TIP3   OH211797   6.908   5.462   4.313
 3951TIP3    H111798   6.817   5.474   4.287
 3951TIP3    H211799   6.944   5.550   4.318
 3952TIP3   OH211800   0.712   4.657   2.865
 3952TIP3    H111801   0.796   4.703   2.874
 3952TIP3    H211802   0.658   4.693   2.935
 3953TIP3   OH211803   2.714   0.947   5.140
 3953TIP3    H111804   2.702   0.995   5.221
 3953TIP3    H211805   2.786   0.887   5.157
 3954TIP3   OH211806   3.469   7.725   0.849
 3954TIP3    H111807   3.411   7.747   0.775
 3954TIP3    H211808   3.468   7.629   0.853
 3955TIP3   OH211809   6.884   3.914   3.908
 3955TIP3    H111810   6.816   3.881   3.968
 3955TIP3    H211811   6.956   3.851   3.917
 3956TIP3   OH211812   0.308   0.807   4.984
 3956TIP3    H111813   0.220   0.772   4.967
 3956TIP3    H211814   0.364   0.729   4.985
 3957TIP3   OH211815   3.485   0.138   2.475
 3957TIP3    H111816   3.477   0.093   2.391
 3957TIP3    H211817   3.571   0.180   2.471
 3958TIP3   OH211818   3.223   7.040   5.608
 3958TIP3    H111819   3.195   7.105   5.543
 3958TIP3    H211820   3.148   7.032   5.667
 3959TIP3   OH211821   7.703   4.434   4.664
 3959TIP3    H111822   7.734   4.460   4.577
 3959TIP3    H211823   7.618   4.477   4.673
 3960TIP3   OH211824   5.580   2.424   3.996
 3960TIP3    H111825   5.595   2.456   3.907
 3960TIP3    H211826   5.665   2.388   4.022
 3961TIP3   OH211827   4.258   7.250   1.022
 3961TIP3    H111828   4.215   7.167   1.044
 3961TIP3    H211829   4.280   7.242   0.929
 3962TIP3   OH211830   3.829   4.420   4.030
 3962TIP3    H111831   3.908   4.410   3.977
 3962TIP3    H211832   3.820   4.514   4.043
 3963TIP3   OH211833   6.395   1.012   0.705
 3963TIP3    H111834   6.428   1.053   0.785
 3963TIP3    H211835   6.437   0.926   0.703
 3964TIP3   OH211836   7.663   6.708   1.739
 3964TIP3    H111837   7.667   6.721   1.645
 3964TIP3    H211838   7.729   6.768   1.774
 3965TIP3   OH211839   8.231   7.565   6.686
 3965TIP3    H111840   8.305   7.627   6.684
 3965TIP3    H211841   8.198   7.570   6.776
 3966TIP3   OH211842   4.370   4.249   3.156
 3966TIP3    H111843   4.390   4.232   3.064
 3966TIP3    H211844   4.345   4.341   3.159
 3967TIP3   OH211845   6.859   6.452   3.684
 3967TIP3    H111846   6.802   6.491   3.617
 3967TIP3    H211847   6.864   6.360   3.660
 3968TIP3   OH211848   2.856   3.804   3.872
 3968TIP3    H111849   2.802   3.812   3.950
 3968TIP3    H211850   2.793   3.800   3.800
 3969TIP3   OH211851   3.360   3.777   5.251
 3969TIP3    H111852   3.287   3.825   5.291
 3969TIP3    H211853   3.421   3.762   5.324
 3970TIP3   OH211854   7.716   6.959   4.194
 3970TIP3    H111855   7.788   6.950   4.132
 3970TIP3    H211856   7.658   7.024   4.155
 3971TIP3   OH211857   0.985   6.783   1.668
 3971TIP3    H111858   0.963   6.861   1.617
 3971TIP3    H211859   1.080   6.777   1.663
 3972TIP3   OH211860   2.369   2.393   0.623
 3972TIP3    H111861   2.437   2.327   0.613
 3972TIP3    H211862   2.352   2.395   0.718
 3973TIP3   OH211863   0.598   6.893   3.937
 3973TIP3    H111864   0.558   6.846   3.864
 3973TIP3    H211865   0.549   6.976   3.941
 3974TIP3   OH211866   4.158   2.328   2.715
 3974TIP3    H111867   4.108   2.388   2.660
 3974TIP3    H211868   4.222   2.384   2.759
 3975TIP3   OH211869   1.467   3.977   2.716
 3975TIP3    H111870   1.524   3.926   2.774
 3975TIP3    H211871   1.422   4.038   2.774
 3976TIP3   OH211872   1.416   5.177   4.389
 3976TIP3    H111873   1.381   5.095   4.354
 3976TIP3    H211874   1.339   5.223   4.425
 3977TIP3   OH211875   3.728   5.512   4.215
 3977TIP3    H111876   3.730   5.421   4.183
 3977TIP3    H211877   3.711   5.505   4.308
 3978TIP3   OH211878   7.589   6.426   6.718
 3978TIP3    H111879   7.587   6.421   6.814
 3978TIP3    H211880   7.507   6.385   6.690
 3979TIP3   OH211881   5.198   7.717   5.293
 3979TIP3    H111882   5.229   7.802   5.322
 3979TIP3    H211883   5.266   7.656   5.320
 3980TIP3   OH211884   7.443   3.209   4.858
 3980TIP3    H111885   7.441   3.120   4.824
 3980TIP3    H211886   7.520   3.248   4.815
 3981TIP3   OH211887   0.401   4.634   5.940
 3981TIP3    H111888   0.363   4.708   5.987
 3981TIP3    H211889   0.490   4.626   5.976
 3982TIP3   OH211890   3.911   1.403   3.098
 3982TIP3    H111891   3.927   1.476   3.038
 3982TIP3    H211892   3.829   1.364   3.066
 3983TIP3   OH211893   1.022   2.533   0.336
 3983TIP3    H111894   0.948   2.579   0.376
 3983TIP3    H211895   0.982   2.462   0.287
 3984TIP3   OH211896   0.905   3.314   4.858
 3984TIP3    H111897   0.898   3.219   4.863
 3984TIP3    H211898   0.999   3.330   4.862
 3985TIP3   OH211899   3.555   5.906   5.563
 3985TIP3    H111900   3.541   5.946   5.477
 3985TIP3    H211901   3.469   5.908   5.605
 3986TIP3   OH211902   7.033   4.894   5.807
 3986TIP3    H111903   7.054   4.801   5.815
 3986TIP3    H211904   6.973   4.911   5.880
 3987TIP3   OH211905   4.758   6.081   1.171
 3987TIP3    H111906   4.729   6.060   1.082
 3987TIP3    H211907   4.798   6.001   1.202
 3988TIP3   OH211908   2.380   5.070   5.259
 3988TIP3    H111909   2.457   5.057   5.203
 3988TIP3    H211910   2.416   5.087   5.345
 3989TIP3   OH211911   3.651   1.697   2.333
 3989TIP3    H111912   3.563   1.671   2.304
 3989TIP3    H211913   3.691   1.616   2.364
 3990TIP3   OH211914   3.679   7.648   2.091
 3990TIP3    H111915   3.675   7.708   2.016
 3990TIP3    H211916   3.588   7.634   2.116
 3991TIP3   OH211917   6.754   2.119   0.529
 3991TIP3    H111918   6.699   2.179   0.479
 3991TIP3    H211919   6.701   2.097   0.606
 3992TIP3   OH211920   5.796   7.280   2.429
 3992TIP3    H111921   5.773   7.323   2.511
 3992TIP3    H211922   5.811   7.188   2.453
 3993TIP3   OH211923   6.556   2.921   6.512
 3993TIP3    H111924   6.611   2.849   6.480
 3993TIP3    H211925   6.619   2.990   6.535
 3994TIP3   OH211926   0.971   3.610   4.459
 3994TIP3    H111927   1.024   3.599   4.380
 3994TIP3    H211928   0.893   3.657   4.430
 3995TIP3   OH211929   2.207   2.743   0.738
 3995TIP3    H111930   2.245   2.703   0.660
 3995TIP3    H211931   2.205   2.837   0.718
 3996TIP3   OH211932   6.922   2.073   1.131
 3996TIP3    H111933   6.875   2.103   1.054
 3996TIP3    H211934   6.969   1.995   1.101
 3997TIP3   OH211935   6.568   1.223   2.944
 3997TIP3    H111936   6.557   1.136   2.905
 3997TIP3    H211937   6.644   1.261   2.899
 3998TIP3   OH211938   0.961   3.353   1.515
 3998TIP3    H111939   1.045   3.383   1.482
 3998TIP3    H211940   0.923   3.304   1.442
 3999TIP3   OH211941   0.426   6.371   3.824
 3999TIP3    H111942   0.504   6.316   3.840
 3999TIP3    H211943   0.445   6.453   3.870
 4000TIP3   OH211944   7.326   7.754   1.862
 4000TIP3    H111945   7.272   7.793   1.931
 4000TIP3    H211946   7.349   7.667   1.897
 4001TIP3   OH211947   2.929   7.418   5.495
 4001TIP3    H111948   3.013   7.384   5.462
 4001TIP3    H211949   2.920   7.503   5.451
 4002TIP3   OH211950   3.360   7.791   3.003
 4002TIP3    H111951   3.348   7.701   3.032
 4002TIP3    H211952   3.349   7.843   3.082
 4003TIP3   OH211953   3.641   4.058   1.565
 4003TIP3    H111954   3.604   4.134   1.611
 4003TIP3    H211955   3.672   4.001   1.634
 4004TIP3   OH211956   7.415   4.289   4.767
 4004TIP3    H111957   7.461   4.355   4.818
 4004TIP3    H211958   7.341   4.337   4.727
 4005TIP3   OH211959   1.724   3.101   1.722
 4005TIP3    H111960   1.814   3.074   1.742
 4005TIP3    H211961   1.675   3.081   1.802
 4006TIP3   OH211962   4.162   4.192   2.491
 4006TIP3    H111963   4.095   4.227   2.550
 4006TIP3    H211964   4.119   4.188   2.406
 4007TIP3   OH211965   1.682   6.788   2.414
 4007TIP3    H111966   1.765   6.751   2.382
 4007TIP3    H211967   1.702   6.880   2.431
 4008TIP3   OH211968   4.138   7.637   6.772
 4008TIP3    H111969   4.160   7.686   6.692
 4008TIP3    H211970   4.048   7.608   6.758
 4009TIP3   OH211971   7.948   7.368   2.803
 4009TIP3    H111972   7.975   7.460   2.809
 4009TIP3    H211973   8.007   7.330   2.739
 4010TIP3   OH211974   3.600   2.963   6.551
 4010TIP3    H111975   3.628   2.896   6.489
 4010TIP3    H211976   3.649   2.944   6.631
 4011TIP3   OH211977   2.957   1.388   6.481
 4011TIP3    H111978   2.980   1.443   6.556
 4011TIP3    H211979   2.918   1.448   6.417
 4012TIP3   OH211980   3.143   2.199   2.148
 4012TIP3    H111981   3.087   2.185   2.224
 4012TIP3    H211982   3.220   2.144   2.165
 4013TIP3   OH211983   8.036   6.720   1.803
 4013TIP3    H111984   8.034   6.644   1.861
 4013TIP3    H211985   7.954   6.766   1.820
 4014TIP3   OH211986   6.123   4.615   5.977
 4014TIP3    H111987   6.054   4.561   6.015
 4014TIP3    H211988   6.119   4.595   5.883
 4015TIP3   OH211989   7.032   6.703   5.290
 4015TIP3    H111990   6.965   6.640   5.265
 4015TIP3    H211991   7.026   6.772   5.224
 4016TIP3   OH211992   6.800   2.895   5.311
 4016TIP3    H111993   6.837   2.815   5.348
 4016TIP3    H211994   6.714   2.903   5.353
 4017TIP3   OH211995   7.579   7.386   2.528
 4017TIP3    H111996   7.555   7.352   2.442
 4017TIP3    H211997   7.587   7.481   2.515
 4018TIP3   OH211998   7.540   6.220   4.760
 4018TIP3    H111999   7.458   6.174   4.744
 4018TIP3    H212000   7.576   6.180   4.839
 4019TIP3   OH212001   0.451   4.171   0.265
 4019TIP3    H112002   0.459   4.193   0.173
 4019TIP3    H212003   0.406   4.086   0.266
 4020TIP3   OH212004   4.686   4.421   1.813
 4020TIP3    H112005   4.633   4.352   1.773
 4020TIP3    H212006   4.622   4.486   1.843
 4021TIP3   OH212007   0.672   0.698   2.328
 4021TIP3    H112008   0.763   0.703   2.299
 4021TIP3    H212009   0.677   0.703   2.423
 4022TIP3   OH212010   0.618   0.977   4.526
 4022TIP3    H112011   0.545   1.019   4.571
 4022TIP3    H212012   0.604   0.883   4.539
 4023TIP3   OH212013   7.793   7.151   2.980
 4023TIP3    H112014   7.732   7.112   3.042
 4023TIP3    H212015   7.794   7.244   3.002
 4024TIP3   OH212016   4.301   0.613   3.129
 4024TIP3    H112017   4.224   0.615   3.073
 4024TIP3    H212018   4.319   0.705   3.148
 4025TIP3   OH212019   6.496   6.855   0.291
 4025TIP3    H112020   6.450   6.772   0.275
 4025TIP3    H212021   6.565   6.834   0.354
 4026TIP3   OH212022   7.327   6.842   0.082
 4026TIP3    H112023   7.355   6.870  -0.006
 4026TIP3    H212024   7.328   6.747   0.078
 4027TIP3   OH212025   2.216   5.390   5.167
 4027TIP3    H112026   2.152   5.329   5.129
 4027TIP3    H212027   2.170   5.474   5.168
 4028TIP3   OH212028   2.676   6.555   2.974
 4028TIP3    H112029   2.627   6.492   3.027
 4028TIP3    H212030   2.709   6.619   3.037
 4029TIP3   OH212031   4.619   7.740   0.220
 4029TIP3    H112032   4.548   7.725   0.283
 4029TIP3    H212033   4.575   7.773   0.142
 4030TIP3   OH212034   7.980   2.081   3.756
 4030TIP3    H112035   8.061   2.031   3.760
 4030TIP3    H212036   7.920   2.027   3.705
 4031TIP3   OH212037   7.712   1.222   4.832
 4031TIP3    H112038   7.737   1.248   4.921
 4031TIP3    H212039   7.625   1.183   4.842
 4032TIP3   OH212040   0.588   3.653   5.022
 4032TIP3    H112041   0.642   3.575   5.036
 4032TIP3    H212042   0.649   3.718   4.987
 4033TIP3   OH212043   0.725   6.615   5.665
 4033TIP3    H112044   0.659   6.641   5.729
 4033TIP3    H212045   0.675   6.569   5.597
 4034TIP3   OH212046   6.075   1.496   5.622
 4034TIP3    H112047   6.032   1.414   5.597
 4034TIP3    H212048   6.153   1.500   5.567
 4035TIP3   OH212049   7.415   1.621   2.329
 4035TIP3    H112050   7.400   1.710   2.361
 4035TIP3    H212051   7.508   1.605   2.349
 4036TIP3   OH212052   1.007   3.578   3.064
 4036TIP3    H112053   1.097   3.603   3.043
 4036TIP3    H212054   0.953   3.632   3.006
 4037TIP3   OH212055   2.180   5.039   4.078
 4037TIP3    H112056   2.153   4.948   4.067
 4037TIP3    H212057   2.134   5.087   4.009
 4038TIP3   OH212058   7.956   7.338   6.775
 4038TIP3    H112059   7.956   7.277   6.700
 4038TIP3    H212060   7.930   7.422   6.738
 4039TIP3   OH212061   6.262   5.539   2.414
 4039TIP3    H112062   6.281   5.469   2.352
 4039TIP3    H212063   6.189   5.587   2.375
 4040TIP3   OH212064   3.713   4.322   6.569
 4040TIP3    H112065   3.798   4.364   6.554
 4040TIP3    H212066   3.661   4.344   6.492
 4041TIP3   OH212067   4.817   7.131   1.155
 4041TIP3    H112068   4.757   7.149   1.227
 4041TIP3    H212069   4.807   7.206   1.096
 4042TIP3   OH212070   5.517   6.371   2.697
 4042TIP3    H112071   5.551   6.461   2.696
 4042TIP3    H212072   5.523   6.342   2.607
 4043TIP3   OH212073   5.826   4.698   3.844
 4043TIP3    H112074   5.769   4.774   3.858
 4043TIP3    H212075   5.895   4.708   3.909
 4044TIP3   OH212076   2.853   4.352   4.525
 4044TIP3    H112077   2.854   4.275   4.581
 4044TIP3    H212078   2.897   4.420   4.578
 4045TIP3   OH212079   3.636   3.747   3.631
 4045TIP3    H112080   3.679   3.754   3.717
 4045TIP3    H212081   3.543   3.748   3.651
 4046TIP3   OH212082   4.153   2.516   6.421
 4046TIP3    H112083   4.102   2.462   6.481
 4046TIP3    H212084   4.242   2.511   6.454
 4047TIP3   OH212085   8.151   3.773   5.527
 4047TIP3    H112086   8.076   3.825   5.557
 4047TIP3    H212087   8.180   3.725   5.605
 4048TIP3   OH212088   1.559   7.456   1.743
 4048TIP3    H112089   1.496   7.455   1.670
 4048TIP3    H212090   1.593   7.545   1.744
 4049TIP3   OH212091   3.651   7.555   4.325
 4049TIP3    H112092   3.652   7.477   4.271
 4049TIP3    H212093   3.737   7.595   4.314
 4050TIP3   OH212094   2.504   5.091   5.501
 4050TIP3    H112095   2.519   5.178   5.538
 4050TIP3    H212096   2.451   5.045   5.567
 4051TIP3   OH212097   5.971   4.550   1.777
 4051TIP3    H112098   5.880   4.527   1.755
 4051TIP3    H212099   6.024   4.488   1.729
 4052TIP3   OH212100   1.211   3.803   3.075
 4052TIP3    H112101   1.164   3.882   3.102
 4052TIP3    H212102   1.258   3.775   3.154
 4053TIP3   OH212103   5.291   4.124   0.812
 4053TIP3    H112104   5.206   4.113   0.768
 4053TIP3    H212105   5.350   4.153   0.743
 4054TIP3   OH212106   0.397   0.792   1.677
 4054TIP3    H112107   0.366   0.752   1.759
 4054TIP3    H212108   0.350   0.875   1.673
 4055TIP3   OH212109   4.352   6.322   0.864
 4055TIP3    H112110   4.297   6.341   0.939
 4055TIP3    H212111   4.383   6.232   0.877
 4056TIP3   OH212112   4.100   6.875   5.752
 4056TIP3    H112113   4.009   6.869   5.782
 4056TIP3    H212114   4.122   6.787   5.723
 4057TIP3   OH212115   5.374   2.688   0.589
 4057TIP3    H112116   5.338   2.604   0.558
 4057TIP3    H212117   5.465   2.668   0.611
 4058TIP3   OH212118   3.624   6.035   5.020
 4058TIP3    H112119   3.562   6.002   4.956
 4058TIP3    H212120   3.710   6.026   4.979
 4059TIP3   OH212121   3.226   0.973   3.325
 4059TIP3    H112122   3.292   0.943   3.387
 4059TIP3    H212123   3.151   0.915   3.339
 4060TIP3   OH212124   2.711   1.730   4.580
 4060TIP3    H112125   2.778   1.798   4.573
 4060TIP3    H212126   2.628   1.777   4.572
 4061TIP3   OH212127   2.799   2.084   6.269
 4061TIP3    H112128   2.838   2.152   6.324
 4061TIP3    H212129   2.705   2.096   6.279
 4062TIP3   OH212130   0.967   1.319   5.079
 4062TIP3    H112131   0.906   1.245   5.084
 4062TIP3    H212132   1.022   1.300   5.003
 4063TIP3   OH212133   3.154   6.743   0.885
 4063TIP3    H112134   3.163   6.703   0.972
 4063TIP3    H212135   3.214   6.693   0.830
 4064TIP3   OH212136   3.590   2.923   5.550
 4064TIP3    H112137   3.675   2.929   5.507
 4064TIP3    H212138   3.528   2.903   5.480
 4065TIP3   OH212139   5.224   2.003   4.011
 4065TIP3    H112140   5.248   2.080   4.062
 4065TIP3    H212141   5.147   2.029   3.962
 4066TIP3   OH212142   1.916   0.039   4.456
 4066TIP3    H112143   1.925  -0.055   4.473
 4066TIP3    H212144   1.938   0.080   4.540
 4067TIP3   OH212145   6.840   0.772   4.664
 4067TIP3    H112146   6.790   0.691   4.652
 4067TIP3    H212147   6.930   0.749   4.643
 4068TIP3   OH212148   4.417   1.961   5.019
 4068TIP3    H112149   4.411   1.878   4.971
 4068TIP3    H212150   4.509   1.985   5.014
 4069TIP3   OH212151   3.513   5.010   3.171
 4069TIP3    H112152   3.495   4.979   3.260
 4069TIP3    H212153   3.468   4.947   3.114
 4070TIP3   OH212154   5.440   2.056   4.487
 4070TIP3    H112155   5.456   1.972   4.530
 4070TIP3    H212156   5.513   2.064   4.425
 4071TIP3   OH212157   0.021   0.560   0.766
 4071TIP3    H112158   0.055   0.491   0.823
 4071TIP3    H212159   0.084   0.632   0.774
 4072TIP3   OH212160   0.439   6.636   5.162
 4072TIP3    H112161   0.393   6.554   5.180
 4072TIP3    H212162   0.464   6.629   5.070
 4073TIP3   OH212163   6.507   3.271   4.727
 4073TIP3    H112164   6.463   3.328   4.664
 4073TIP3    H212165   6.588   3.245   4.682
 4074TIP3   OH212166   6.493   6.418   1.973
 4074TIP3    H112167   6.442   6.408   1.892
 4074TIP3    H212168   6.455   6.354   2.033
 4075TIP3   OH212169   6.201   2.678   5.215
 4075TIP3    H112170   6.164   2.748   5.269
 4075TIP3    H212171   6.237   2.724   5.139
 4076TIP3   OH212172   3.737   6.877   3.282
 4076TIP3    H112173   3.774   6.817   3.346
 4076TIP3    H212174   3.789   6.957   3.292
 4077TIP3   OH212175   1.788   5.985   4.143
 4077TIP3    H112176   1.834   6.068   4.132
 4077TIP3    H212177   1.800   5.963   4.236
 4078TIP3   OH212178   4.057   2.941   5.604
 4078TIP3    H112179   4.071   2.847   5.590
 4078TIP3    H212180   4.145   2.976   5.621
 4079TIP3   OH212181   0.578   6.566   6.572
 4079TIP3    H112182   0.620   6.481   6.582
 4079TIP3    H212183   0.484   6.547   6.569
 4080TIP3   OH212184   0.084   6.459   5.743
 4080TIP3    H112185   0.038   6.375   5.732
 4080TIP3    H212186   0.150   6.441   5.810
 4081TIP3   OH212187   3.571   5.408   5.707
 4081TIP3    H112188   3.666   5.420   5.697
 4081TIP3    H212189   3.561   5.369   5.794
 4082TIP3   OH212190   1.786   6.135   1.340
 4082TIP3    H112191   1.880   6.121   1.328
 4082TIP3    H212192   1.780   6.212   1.396
 4083TIP3   OH212193   7.240   1.381   4.333
 4083TIP3    H112194   7.274   1.446   4.272
 4083TIP3    H212195   7.198   1.433   4.402
 4084TIP3   OH212196   2.239   4.909   4.718
 4084TIP3    H112197   2.191   4.873   4.644
 4084TIP3    H212198   2.302   4.970   4.678
 4085TIP3   OH212199   0.562   7.695   1.789
 4085TIP3    H112200   0.622   7.662   1.722
 4085TIP3    H212201   0.606   7.772   1.825
 4086TIP3   OH212202   1.254   4.021   4.421
 4086TIP3    H112203   1.327   4.072   4.385
 4086TIP3    H212204   1.283   3.930   4.413
 4087TIP3   OH212205   7.503   0.874   0.984
 4087TIP3    H112206   7.446   0.846   0.912
 4087TIP3    H212207   7.490   0.968   0.989
 4088TIP3   OH212208   3.298   3.195   2.972
 4088TIP3    H112209   3.295   3.216   3.065
 4088TIP3    H212210   3.256   3.109   2.965
 4089TIP3   OH212211   2.516   2.805   6.646
 4089TIP3    H112212   2.434   2.771   6.682
 4089TIP3    H212213   2.570   2.822   6.723
 4090TIP3   OH212214   4.659   3.461   4.840
 4090TIP3    H112215   4.671   3.539   4.786
 4090TIP3    H212216   4.604   3.491   4.913
 4091TIP3   OH212217   7.922   5.808   0.748
 4091TIP3    H112218   7.883   5.758   0.820
 4091TIP3    H212219   7.848   5.831   0.692
 4092TIP3   OH212220   7.089   2.158   3.720
 4092TIP3    H112221   7.121   2.188   3.805
 4092TIP3    H212222   7.141   2.206   3.656
 4093TIP3   OH212223   7.809   6.640   3.905
 4093TIP3    H112224   7.872   6.575   3.875
 4093TIP3    H212225   7.859   6.697   3.964
 4094TIP3   OH212226   0.364   7.803   4.463
 4094TIP3    H112227   0.300   7.847   4.519
 4094TIP3    H212228   0.422   7.757   4.525
 4095TIP3   OH212229   3.121   2.811   4.731
 4095TIP3    H112230   3.091   2.854   4.812
 4095TIP3    H212231   3.040   2.785   4.687
 4096TIP3   OH212232   1.253   6.714   1.793
 4096TIP3    H112233   1.278   6.763   1.715
 4096TIP3    H212234   1.314   6.745   1.861
 4097TIP3   OH212235   5.685   4.775   1.011
 4097TIP3    H112236   5.615   4.840   1.006
 4097TIP3    H212237   5.676   4.736   1.098
 4098TIP3   OH212238   5.963   3.630   1.672
 4098TIP3    H112239   5.901   3.664   1.607
 4098TIP3    H212240   5.974   3.701   1.735
 4099TIP3   OH212241   5.933   5.136   5.901
 4099TIP3    H112242   5.981   5.153   5.982
 4099TIP3    H212243   5.912   5.223   5.867
 4100TIP3   OH212244   4.114   6.962   3.780
 4100TIP3    H112245   4.058   6.897   3.822
 4100TIP3    H212246   4.083   6.967   3.690
 4101TIP3   OH212247   0.795   7.694   6.695
 4101TIP3    H112248   0.850   7.657   6.626
 4101TIP3    H212249   0.757   7.617   6.739
 4102TIP3   OH212250   1.034   5.605   0.053
 4102TIP3    H112251   1.054   5.603   0.147
 4102TIP3    H212252   1.014   5.697   0.036
 4103TIP3   OH212253   2.905   0.660   1.146
 4103TIP3    H112254   2.814   0.639   1.168
 4103TIP3    H212255   2.955   0.582   1.172
 4104TIP3   OH212256   7.054   4.640   4.528
 4104TIP3    H112257   6.994   4.568   4.548
 4104TIP3    H212258   7.026   4.672   4.443
 4105TIP3   OH212259   3.507   1.869   5.351
 4105TIP3    H112260   3.596   1.884   5.381
 4105TIP3    H212261   3.511   1.879   5.256
 4106TIP3   OH212262   8.077   5.615   4.610
 4106TIP3    H112263   8.071   5.591   4.518
 4106TIP3    H212264   8.117   5.539   4.653
 4107TIP3   OH212265   1.178   2.441   4.315
 4107TIP3    H112266   1.250   2.501   4.296
 4107TIP3    H212267   1.105   2.498   4.340
 4108TIP3   OH212268   2.616   6.336   4.459
 4108TIP3    H112269   2.535   6.348   4.409
 4108TIP3    H212270   2.631   6.242   4.459
 4109TIP3   OH212271   6.059   5.207   0.120
 4109TIP3    H112272   6.143   5.230   0.160
 4109TIP3    H212273   6.034   5.125   0.161
 4110TIP3   OH212274   3.610   7.534   5.506
 4110TIP3    H112275   3.691   7.483   5.497
 4110TIP3    H212276   3.569   7.500   5.586
 4111TIP3   OH212277   3.312   5.893   5.693
 4111TIP3    H112278   3.286   5.803   5.713
 4111TIP3    H212279   3.320   5.936   5.778
 4112TIP3   OH212280   7.824   1.935   2.586
 4112TIP3    H112281   7.917   1.913   2.583
 4112TIP3    H212282   7.780   1.856   2.553
 4113TIP3   OH212283   2.208   5.448   3.816
 4113TIP3    H112284   2.276   5.483   3.873
 4113TIP3    H212285   2.184   5.364   3.854
 4114TIP3   OH212286   6.671   3.083   5.865
 4114TIP3    H112287   6.740   3.018   5.880
 4114TIP3    H212288   6.715   3.157   5.825
 4115TIP3   OH212289   6.187   1.877   1.289
 4115TIP3    H112290   6.109   1.929   1.269
 4115TIP3    H212291   6.184   1.805   1.225
 4116TIP3   OH212292   8.274   0.491   4.251
 4116TIP3    H112293   8.273   0.396   4.252
 4116TIP3    H212294   8.330   0.516   4.325
 4117TIP3   OH212295   1.207   5.658   5.416
 4117TIP3    H112296   1.292   5.664   5.460
 4117TIP3    H212297   1.197   5.565   5.396
 4118TIP3   OH212298   1.677   2.904   0.202
 4118TIP3    H112299   1.613   2.975   0.191
 4118TIP3    H212300   1.717   2.894   0.116
 4119TIP3   OH212301   3.775   4.933   4.948
 4119TIP3    H112302   3.771   4.865   5.016
 4119TIP3    H212303   3.812   4.888   4.872
 4120TIP3   OH212304   5.943   3.131   5.033
 4120TIP3    H112305   5.912   3.040   5.037
 4120TIP3    H212306   5.955   3.148   4.939
 4121TIP3   OH212307   3.303   4.970   0.483
 4121TIP3    H112308   3.267   4.923   0.558
 4121TIP3    H212309   3.232   4.967   0.418
 4122TIP3   OH212310   4.353   7.066   3.696
 4122TIP3    H112311   4.411   6.993   3.714
 4122TIP3    H212312   4.278   7.053   3.754
 4123TIP3   OH212313   1.749   4.361   5.712
 4123TIP3    H112314   1.830   4.337   5.757
 4123TIP3    H212315   1.767   4.343   5.620
 4124TIP3   OH212316   4.360   1.524   2.555
 4124TIP3    H112317   4.416   1.576   2.612
 4124TIP3    H212318   4.403   1.524   2.470
 4125TIP3   OH212319   6.627   4.628   5.738
 4125TIP3    H112320   6.662   4.682   5.667
 4125TIP3    H212321   6.578   4.559   5.694
 4126TIP3   OH212322   0.099   6.598   2.606
 4126TIP3    H112323   0.176   6.588   2.549
 4126TIP3    H212324   0.024   6.585   2.548
 4127TIP3   OH212325   7.066   3.270   3.461
 4127TIP3    H112326   7.062   3.305   3.372
 4127TIP3    H212327   7.105   3.340   3.513
 4128TIP3   OH212328   2.536   5.571   1.251
 4128TIP3    H112329   2.568   5.661   1.246
 4128TIP3    H212330   2.584   5.524   1.183
 4129TIP3   OH212331   4.724   1.386   5.600
 4129TIP3    H112332   4.668   1.390   5.523
 4129TIP3    H212333   4.685   1.449   5.661
 4130TIP3   OH212334   1.597   0.180   2.417
 4130TIP3    H112335   1.570   0.196   2.327
 4130TIP3    H212336   1.518   0.197   2.469
 4131TIP3   OH212337   2.073   1.136   1.460
 4131TIP3    H112338   2.082   1.132   1.555
 4131TIP3    H212339   2.157   1.171   1.429
 4132TIP3   OH212340   2.610   3.514   6.095
 4132TIP3    H112341   2.573   3.601   6.080
 4132TIP3    H212342   2.703   3.530   6.111
 4133TIP3   OH212343   5.135   5.101   3.491
 4133TIP3    H112344   5.158   5.022   3.443
 4133TIP3    H212345   5.068   5.144   3.437
 4134TIP3   OH212346   6.247   0.411   1.007
 4134TIP3    H112347   6.229   0.485   1.064
 4134TIP3    H212348   6.180   0.415   0.939
 4135TIP3   OH212349   3.984   0.517   3.951
 4135TIP3    H112350   3.950   0.432   3.924
 4135TIP3    H212351   4.036   0.498   4.030
 4136TIP3   OH212352   3.419   3.884   2.921
 4136TIP3    H112353   3.445   3.931   2.842
 4136TIP3    H212354   3.460   3.933   2.993
 4137TIP3   OH212355   2.371   1.983   1.318
 4137TIP3    H112356   2.331   1.980   1.405
 4137TIP3    H212357   2.464   1.998   1.336
 4138TIP3   OH212358   0.758   6.620   6.801
 4138TIP3    H112359   0.707   6.629   6.721
 4138TIP3    H212360   0.840   6.667   6.782
 4139TIP3   OH212361   1.914   2.269   4.141
 4139TIP3    H112362   1.819   2.280   4.139
 4139TIP3    H212363   1.932   2.228   4.226
 4140TIP3   OH212364   5.418   5.451   2.586
 4140TIP3    H112365   5.324   5.445   2.604
 4140TIP3    H212366   5.449   5.520   2.645
 4141TIP3   OH212367   0.361   2.389   4.493
 4141TIP3    H112368   0.266   2.395   4.502
 4141TIP3    H212369   0.392   2.478   4.512
 4142TIP3   OH212370   0.142   0.857   4.530
 4142TIP3    H112371   0.056   0.835   4.494
 4142TIP3    H212372   0.181   0.772   4.552
 4143TIP3   OH212373   2.177   5.069   5.089
 4143TIP3    H112374   2.103   5.052   5.148
 4143TIP3    H212375   2.249   5.091   5.147
 4144TIP3   OH212376   1.886   7.695   5.498
 4144TIP3    H112377   1.850   7.660   5.416
 4144TIP3    H212378   1.935   7.621   5.535
 4145TIP3   OH212379   2.468   0.537   4.177
 4145TIP3    H112380   2.393   0.500   4.130
 4145TIP3    H212381   2.501   0.464   4.229
 4146TIP3   OH212382   3.975   2.504   2.616
 4146TIP3    H112383   3.948   2.527   2.705
 4146TIP3    H212384   4.037   2.572   2.591
 4147TIP3   OH212385   3.774   5.266   6.129
 4147TIP3    H112386   3.712   5.333   6.102
 4147TIP3    H212387   3.727   5.183   6.116
 4148TIP3   OH212388   3.999   7.362   3.255
 4148TIP3    H112389   3.963   7.393   3.173
 4148TIP3    H212390   3.939   7.292   3.282
 4149TIP3   OH212391   3.487   2.058   2.721
 4149TIP3    H112392   3.465   2.008   2.799
 4149TIP3    H212393   3.513   1.991   2.657
 4150TIP3   OH212394   7.442   3.571   1.874
 4150TIP3    H112395   7.368   3.544   1.820
 4150TIP3    H212396   7.455   3.663   1.851
 4151TIP3   OH212397   7.404   4.061   4.533
 4151TIP3    H112398   7.449   3.979   4.553
 4151TIP3    H212399   7.388   4.101   4.618
 4152TIP3   OH212400   3.813   0.760   2.002
 4152TIP3    H112401   3.882   0.744   2.066
 4152TIP3    H212402   3.860   0.779   1.921
 4153TIP3   OH212403   0.887   5.941   6.044
 4153TIP3    H112404   0.804   5.906   6.011
 4153TIP3    H212405   0.923   5.871   6.098
 4154TIP3   OH212406   7.173   1.145   4.183
 4154TIP3    H112407   7.201   1.166   4.272
 4154TIP3    H212408   7.145   1.230   4.146
 4155TIP3   OH212409   1.479   2.299   2.498
 4155TIP3    H112410   1.484   2.369   2.563
 4155TIP3    H212411   1.404   2.323   2.443
 4156TIP3   OH212412   5.390   3.133   5.734
 4156TIP3    H112413   5.297   3.119   5.753
 4156TIP3    H212414   5.391   3.187   5.655
 4157TIP3   OH212415   0.737   3.172   2.373
 4157TIP3    H112416   0.773   3.172   2.284
 4157TIP3    H212417   0.782   3.100   2.417
 4158TIP3   OH212418   2.194   3.334   6.078
 4158TIP3    H112419   2.185   3.385   6.159
 4158TIP3    H212420   2.109   3.290   6.068
 4159TIP3   OH212421   3.364   6.804   3.768
 4159TIP3    H112422   3.344   6.837   3.680
 4159TIP3    H212423   3.281   6.771   3.800
 4160TIP3   OH212424   6.039   1.226   1.751
 4160TIP3    H112425   6.078   1.200   1.835
 4160TIP3    H212426   5.945   1.214   1.764
 4161TIP3   OH212427   7.911   3.152   2.100
 4161TIP3    H112428   7.902   3.174   2.193
 4161TIP3    H212429   7.884   3.232   2.054
 4162TIP3   OH212430   0.761   7.269   6.152
 4162TIP3    H112431   0.856   7.268   6.145
 4162TIP3    H212432   0.742   7.331   6.222
 4163TIP3   OH212433   0.286   5.595   4.748
 4163TIP3    H112434   0.213   5.643   4.786
 4163TIP3    H212435   0.279   5.507   4.784
 4164TIP3   OH212436   7.325   0.200   1.215
 4164TIP3    H112437   7.413   0.189   1.179
 4164TIP3    H212438   7.338   0.226   1.306
 4165TIP3   OH212439   1.192   2.506   3.161
 4165TIP3    H112440   1.245   2.445   3.110
 4165TIP3    H212441   1.107   2.508   3.116
 4166TIP3   OH212442   6.363   2.488   1.377
 4166TIP3    H112443   6.406   2.431   1.441
 4166TIP3    H212444   6.269   2.472   1.390
 4167TIP3   OH212445   3.599   6.863   1.745
 4167TIP3    H112446   3.591   6.946   1.792
 4167TIP3    H212447   3.511   6.847   1.711
 4168TIP3   OH212448   0.791   5.076   4.126
 4168TIP3    H112449   0.714   5.115   4.083
 4168TIP3    H212450   0.862   5.138   4.108
 4169TIP3   OH212451   5.177   4.450   6.028
 4169TIP3    H112452   5.115   4.400   6.081
 4169TIP3    H212453   5.142   4.445   5.939
 4170TIP3   OH212454   2.815   6.420   1.838
 4170TIP3    H112455   2.803   6.458   1.752
 4170TIP3    H212456   2.824   6.495   1.897
 4171TIP3   OH212457   5.952   4.772   6.172
 4171TIP3    H112458   5.961   4.694   6.225
 4171TIP3    H212459   5.858   4.783   6.161
 4172TIP3   OH212460   4.508   0.438   0.128
 4172TIP3    H112461   4.445   0.446   0.056
 4172TIP3    H212462   4.581   0.388   0.091
 4173TIP3   OH212463   1.241   6.445   4.491
 4173TIP3    H112464   1.249   6.530   4.447
 4173TIP3    H212465   1.153   6.415   4.468
 4174TIP3   OH212466   5.425   2.883   5.877
 4174TIP3    H112467   5.430   2.973   5.846
 4174TIP3    H212468   5.508   2.867   5.922
 4175TIP3   OH212469   6.151   2.122   0.177
 4175TIP3    H112470   6.088   2.059   0.211
 4175TIP3    H212471   6.101   2.203   0.169
 4176TIP3   OH212472   0.419   1.181   4.597
 4176TIP3    H112473   0.446   1.251   4.537
 4176TIP3    H212474   0.468   1.198   4.677
 4177TIP3   OH212475   6.193   2.645   5.694
 4177TIP3    H112476   6.146   2.709   5.639
 4177TIP3    H212477   6.285   2.671   5.686
 4178TIP3   OH212478   3.034   6.290   3.526
 4178TIP3    H112479   3.077   6.374   3.547
 4178TIP3    H212480   3.064   6.269   3.437
 4179TIP3   OH212481   7.096   3.688   3.912
 4179TIP3    H112482   7.086   3.612   3.856
 4179TIP3    H212483   7.188   3.685   3.940
 4180TIP3   OH212484   5.636   6.214   3.499
 4180TIP3    H112485   5.623   6.153   3.426
 4180TIP3    H212486   5.687   6.165   3.563
 4181TIP3   OH212487   3.340   4.879   1.165
 4181TIP3    H112488   3.354   4.932   1.244
 4181TIP3    H212489   3.385   4.927   1.095
 4182TIP3   OH212490   3.552   4.565   6.018
 4182TIP3    H112491   3.647   4.569   6.030
 4182TIP3    H212492   3.522   4.506   6.088
 4183TIP3   OH212493   1.741   5.298   3.109
 4183TIP3    H112494   1.709   5.301   3.200
 4183TIP3    H212495   1.662   5.312   3.056
 4184TIP3   OH212496   0.821   2.566   1.420
 4184TIP3    H112497   0.873   2.527   1.490
 4184TIP3    H212498   0.882   2.624   1.375
 4185TIP3   OH212499   0.245   1.449   3.129
 4185TIP3    H112500   0.273   1.379   3.070
 4185TIP3    H212501   0.158   1.424   3.157
 4186TIP3   OH212502   7.304   5.881   0.820
 4186TIP3    H112503   7.243   5.819   0.781
 4186TIP3    H212504   7.302   5.861   0.914
 4187TIP3   OH212505   0.856   3.056   1.842
 4187TIP3    H112506   0.885   2.968   1.818
 4187TIP3    H212507   0.760   3.052   1.834
 4188TIP3   OH212508   0.618   2.232   0.041
 4188TIP3    H112509   0.605   2.233   0.136
 4188TIP3    H212510   0.532   2.211   0.005
 4189TIP3   OH212511   7.068   6.033   3.551
 4189TIP3    H112512   7.121   6.088   3.493
 4189TIP3    H212513   7.032   5.965   3.494
 4190TIP3   OH212514   6.725   6.281   4.871
 4190TIP3    H112515   6.681   6.359   4.839
 4190TIP3    H212516   6.813   6.311   4.895
 4191TIP3   OH212517   2.974   3.059   2.344
 4191TIP3    H112518   2.952   3.125   2.410
 4191TIP3    H212519   2.897   3.003   2.339
 4192TIP3   OH212520   2.513   6.200   3.357
 4192TIP3    H112521   2.520   6.109   3.385
 4192TIP3    H212522   2.602   6.236   3.367
 4193TIP3   OH212523   6.737   3.117   1.033
 4193TIP3    H112524   6.766   3.184   1.094
 4193TIP3    H212525   6.657   3.153   0.993
 4194TIP3   OH212526   2.600   7.254   1.187
 4194TIP3    H112527   2.637   7.290   1.268
 4194TIP3    H212528   2.675   7.241   1.130
 4195TIP3   OH212529   2.587   6.445   1.587
 4195TIP3    H112530   2.535   6.477   1.512
 4195TIP3    H212531   2.594   6.351   1.572
 4196TIP3   OH212532   5.336   3.451   1.702
 4196TIP3    H112533   5.334   3.391   1.628
 4196TIP3    H212534   5.392   3.523   1.674
 4197TIP3   OH212535   6.575   4.218   4.908
 4197TIP3    H112536   6.650   4.166   4.936
 4197TIP3    H212537   6.499   4.163   4.930
 4198TIP3   OH212538   2.597   0.363   3.535
 4198TIP3    H112539   2.628   0.440   3.486
 4198TIP3    H212540   2.645   0.366   3.617
 4199TIP3   OH212541   7.040   2.298   2.946
 4199TIP3    H112542   7.113   2.359   2.939
 4199TIP3    H212543   7.066   2.238   3.017
 4200TIP3   OH212544   6.824   5.262   6.653
 4200TIP3    H112545   6.829   5.170   6.676
 4200TIP3    H212546   6.900   5.302   6.696
 4201TIP3   OH212547   8.251   7.683   0.774
 4201TIP3    H112548   8.258   7.773   0.742
 4201TIP3    H212549   8.170   7.649   0.735
 4202TIP3   OH212550   3.420   4.629   3.217
 4202TIP3    H112551   3.472   4.558   3.255
 4202TIP3    H212552   3.358   4.653   3.287
 4203TIP3   OH212553   2.041   2.051   5.347
 4203TIP3    H112554   2.103   2.053   5.420
 4203TIP3    H212555   1.961   2.090   5.382
 4204TIP3   OH212556   3.846   2.413   1.687
 4204TIP3    H112557   3.859   2.469   1.764
 4204TIP3    H212558   3.858   2.324   1.719
 4205TIP3   OH212559   2.142   4.356   3.340
 4205TIP3    H112560   2.089   4.435   3.339
 4205TIP3    H212561   2.091   4.293   3.390
 4206TIP3   OH212562   0.172   4.121   6.378
 4206TIP3    H112563   0.143   4.212   6.367
 4206TIP3    H212564   0.158   4.082   6.292
 4207TIP3   OH212565   7.446   7.277   2.327
 4207TIP3    H112566   7.379   7.286   2.395
 4207TIP3    H212567   7.411   7.211   2.268
 4208TIP3   OH212568   0.103   0.217   6.171
 4208TIP3    H112569   0.166   0.233   6.242
 4208TIP3    H212570   0.021   0.253   6.204
 4209TIP3   OH212571   3.534   1.313   2.080
 4209TIP3    H112572   3.586   1.285   2.005
 4209TIP3    H212573   3.596   1.320   2.152
 4210TIP3   OH212574   3.291   4.131   3.044
 4210TIP3    H112575   3.324   4.220   3.029
 4210TIP3    H212576   3.353   4.094   3.107
 4211TIP3   OH212577   3.984   5.591   2.607
 4211TIP3    H112578   4.010   5.556   2.522
 4211TIP3    H212579   3.899   5.631   2.592
 4212TIP3   OH212580   1.231   3.754   5.105
 4212TIP3    H112581   1.273   3.829   5.148
 4212TIP3    H212582   1.298   3.720   5.046
 4213TIP3   OH212583   3.322   2.008   0.748
 4213TIP3    H112584   3.300   2.022   0.656
 4213TIP3    H212585   3.279   2.079   0.794
 4214TIP3   OH212586   3.599   2.461   5.004
 4214TIP3    H112587   3.681   2.411   5.002
 4214TIP3    H212588   3.599   2.511   4.923
 4215TIP3   OH212589   7.242   6.041   5.470
 4215TIP3    H112590   7.308   6.107   5.450
 4215TIP3    H212591   7.291   5.968   5.509
 4216TIP3   OH212592   0.154   5.278   4.733
 4216TIP3    H112593   0.126   5.192   4.701
 4216TIP3    H212594   0.225   5.259   4.794
 4217TIP3   OH212595   6.530   7.297   0.535
 4217TIP3    H112596   6.589   7.238   0.581
 4217TIP3    H212597   6.525   7.262   0.446
 4218TIP3   OH212598   6.530   7.064   1.023
 4218TIP3    H112599   6.515   6.976   1.058
 4218TIP3    H212600   6.445   7.090   0.987
 4219TIP3   OH212601   2.120   2.875   4.447
 4219TIP3    H112602   2.143   2.789   4.413
 4219TIP3    H212603   2.204   2.914   4.470
 4220TIP3   OH212604   3.574   1.452   0.223
 4220TIP3    H112605   3.529   1.537   0.224
 4220TIP3    H212606   3.513   1.392   0.265
 4221TIP3   OH212607   3.361   2.541   1.832
 4221TIP3    H112608   3.330   2.531   1.922
 4221TIP3    H212609   3.446   2.498   1.831
 4222TIP3   OH212610   0.094   0.242   5.727
 4222TIP3    H112611   0.049   0.180   5.670
 4222TIP3    H212612   0.030   0.312   5.742
 4223TIP3   OH212613   1.852   2.540   0.921
 4223TIP3    H112614   1.850   2.585   0.837
 4223TIP3    H212615   1.942   2.550   0.952
 4224TIP3   OH212616   0.083   5.892   6.143
 4224TIP3    H112617   0.127   5.851   6.068
 4224TIP3    H212618   0.098   5.832   6.216
 4225TIP3   OH212619   0.018   6.551   1.696
 4225TIP3    H112620   0.050   6.616   1.759
 4225TIP3    H212621  -0.076   6.547   1.712
 4226TIP3   OH212622   5.112   4.278   4.681
 4226TIP3    H112623   5.135   4.199   4.632
 4226TIP3    H212624   5.143   4.350   4.626
 4227TIP3   OH212625   2.956   0.212   2.335
 4227TIP3    H112626   3.019   0.247   2.271
 4227TIP3    H212627   2.870   0.231   2.297
 4228TIP3   OH212628   7.336   3.714   4.856
 4228TIP3    H112629   7.277   3.767   4.909
 4228TIP3    H212630   7.410   3.773   4.836
 4229TIP3   OH212631   0.781   7.020   1.662
 4229TIP3    H112632   0.836   7.053   1.591
 4229TIP3    H212633   0.696   7.062   1.649
 4230TIP3   OH212634   4.061   5.105   4.420
 4230TIP3    H112635   4.134   5.166   4.433
 4230TIP3    H212636   4.094   5.021   4.452
 4231TIP3   OH212637   7.355   1.554   4.533
 4231TIP3    H112638   7.275   1.605   4.547
 4231TIP3    H212639   7.335   1.467   4.567
 4232TIP3   OH212640   7.936   3.443   0.925
 4232TIP3    H112641   7.851   3.453   0.967
 4232TIP3    H212642   7.936   3.508   0.854
 4233TIP3   OH212643   1.032   5.090   5.359
 4233TIP3    H112644   1.037   5.090   5.454
 4233TIP3    H212645   0.939   5.106   5.340
 4234TIP3   OH212646   5.575   1.973   0.245
 4234TIP3    H112647   5.525   2.043   0.286
 4234TIP3    H212648   5.535   1.961   0.159
 4235TIP3   OH212649   5.535   7.417   2.361
 4235TIP3    H112650   5.611   7.475   2.371
 4235TIP3    H212651   5.460   7.476   2.365
 4236TIP3   OH212652   2.712   3.823   4.097
 4236TIP3    H112653   2.619   3.845   4.102
 4236TIP3    H212654   2.755   3.886   4.155
 4237TIP3   OH212655   5.554   4.686   6.024
 4237TIP3    H112656   5.599   4.723   6.100
 4237TIP3    H212657   5.578   4.745   5.952
 4238TIP3   OH212658   2.130   2.865  -0.021
 4238TIP3    H112659   2.154   2.947   0.022
 4238TIP3    H212660   2.093   2.812   0.050
 4239TIP3   OH212661   1.061   0.778   3.064
 4239TIP3    H112662   1.080   0.861   3.107
 4239TIP3    H212663   0.979   0.749   3.103
 4240TIP3   OH212664   7.282   2.504   3.690
 4240TIP3    H112665   7.264   2.573   3.626
 4240TIP3    H212666   7.209   2.509   3.752
 4241TIP3   OH212667   1.591   5.328   2.481
 4241TIP3    H112668   1.587   5.239   2.516
 4241TIP3    H212669   1.682   5.355   2.493
 4242TIP3   OH212670   6.430   5.208   1.473
 4242TIP3    H112671   6.369   5.170   1.538
 4242TIP3    H212672   6.382   5.205   1.391
 4243TIP3   OH212673   1.482   3.077   0.153
 4243TIP3    H112674   1.501   3.167   0.178
 4243TIP3    H212675   1.467   3.081   0.058
 4244TIP3   OH212676   2.711   6.845   5.735
 4244TIP3    H112677   2.673   6.757   5.735
 4244TIP3    H212678   2.642   6.900   5.772
 4245TIP3   OH212679   2.948   1.505   0.663
 4245TIP3    H112680   2.989   1.421   0.686
 4245TIP3    H212681   2.890   1.484   0.590
 4246TIP3   OH212682   0.898   2.265   5.874
 4246TIP3    H112683   0.916   2.180   5.913
 4246TIP3    H212684   0.867   2.319   5.947
 4247TIP3   OH212685   1.072   6.662   2.339
 4247TIP3    H112686   1.073   6.566   2.338
 4247TIP3    H212687   1.162   6.686   2.314
 4248TIP3   OH212688   8.184   5.885   0.736
 4248TIP3    H112689   8.175   5.945   0.663
 4248TIP3    H212690   8.095   5.851   0.750
 4249TIP3   OH212691   6.540   5.090   0.045
 4249TIP3    H112692   6.479   5.018   0.061
 4249TIP3    H212693   6.537   5.142   0.126
 4250TIP3   OH212694   2.319   3.723   3.705
 4250TIP3    H112695   2.225   3.715   3.687
 4250TIP3    H212696   2.340   3.814   3.683
 4251TIP3   OH212697   5.482   3.377   1.133
 4251TIP3    H112698   5.507   3.420   1.051
 4251TIP3    H212699   5.386   3.372   1.130
 4252TIP3   OH212700   7.643   3.562   1.436
 4252TIP3    H112701   7.574   3.500   1.460
 4252TIP3    H212702   7.707   3.508   1.390
 4253TIP3   OH212703   4.189   4.835   1.486
 4253TIP3    H112704   4.261   4.773   1.499
 4253TIP3    H212705   4.206   4.875   1.401
 4254TIP3   OH212706   7.589   1.954   4.500
 4254TIP3    H112707   7.607   1.908   4.419
 4254TIP3    H212708   7.529   2.025   4.475
 4255TIP3   OH212709   3.978   2.926   1.542
 4255TIP3    H112710   4.032   2.849   1.525
 4255TIP3    H212711   3.923   2.902   1.617
 4256TIP3   OH212712   7.928   0.677   6.174
 4256TIP3    H112713   7.950   0.627   6.095
 4256TIP3    H212714   7.904   0.611   6.238
 4257TIP3   OH212715   4.172   4.992   4.181
 4257TIP3    H112716   4.137   5.036   4.259
 4257TIP3    H212717   4.200   5.063   4.124
 4258TIP3   OH212718   4.549   0.434   0.769
 4258TIP3    H112719   4.470   0.383   0.749
 4258TIP3    H212720   4.592   0.446   0.684
 4259TIP3   OH212721   6.769   0.084   4.307
 4259TIP3    H112722   6.712   0.019   4.348
 4259TIP3    H212723   6.799   0.043   4.226
 4260TIP3   OH212724   4.462   6.320   0.413
 4260TIP3    H112725   4.408   6.274   0.478
 4260TIP3    H212726   4.552   6.305   0.441
 4261TIP3   OH212727   7.277   1.070   4.418
 4261TIP3    H112728   7.231   1.042   4.498
 4261TIP3    H212729   7.271   0.994   4.360
 4262TIP3   OH212730   7.030   4.968   1.375
 4262TIP3    H112731   6.968   4.895   1.379
 4262TIP3    H212732   7.116   4.926   1.389
 4263TIP3   OH212733   0.929   0.891   4.602
 4263TIP3    H112734   0.842   0.879   4.563
 4263TIP3    H212735   0.923   0.974   4.648
 4264TIP3   OH212736   5.128   0.901   1.769
 4264TIP3    H112737   5.083   0.931   1.690
 4264TIP3    H212738   5.057   0.880   1.831
 4265TIP3   OH212739   4.982   2.106   0.612
 4265TIP3    H112740   4.968   2.019   0.650
 4265TIP3    H212741   5.015   2.088   0.524
 4266TIP3   OH212742   7.435   0.320   1.441
 4266TIP3    H112743   7.522   0.314   1.481
 4266TIP3    H212744   7.404   0.407   1.468
 4267TIP3   OH212745   6.585   7.741   2.221
 4267TIP3    H112746   6.583   7.725   2.316
 4267TIP3    H212747   6.626   7.662   2.185
 4268TIP3   OH212748   3.514   2.105   4.058
 4268TIP3    H112749   3.545   2.184   4.014
 4268TIP3    H212750   3.541   2.033   4.000
 4269TIP3   OH212751   1.313   5.217   4.983
 4269TIP3    H112752   1.326   5.149   4.917
 4269TIP3    H212753   1.278   5.171   5.059
 4270TIP3   OH212754   2.998   6.094   0.886
 4270TIP3    H112755   2.976   6.007   0.919
 4270TIP3    H212756   2.984   6.087   0.791
 4271TIP3   OH212757   2.630   0.568   3.122
 4271TIP3    H112758   2.547   0.614   3.107
 4271TIP3    H212759   2.672   0.566   3.036
 4272TIP3   OH212760   3.060   3.965   0.941
 4272TIP3    H112761   3.014   3.886   0.912
 4272TIP3    H212762   3.056   4.024   0.865
 4273TIP3   OH212763   6.786   5.037   4.581
 4273TIP3    H112764   6.793   5.056   4.674
 4273TIP3    H212765   6.753   4.947   4.578
 4274TIP3   OH212766   2.182   4.256   1.973
 4274TIP3    H112767   2.129   4.245   1.894
 4274TIP3    H212768   2.208   4.167   1.997
 4275TIP3   OH212769   5.298   3.006   3.444
 4275TIP3    H112770   5.334   2.926   3.407
 4275TIP3    H212771   5.210   2.982   3.473
 4276TIP3   OH212772   8.231   0.727   6.354
 4276TIP3    H112773   8.151   0.704   6.401
 4276TIP3    H212774   8.201   0.756   6.268
 4277TIP3   OH212775   7.571   7.480   6.512
 4277TIP3    H112776   7.591   7.573   6.520
 4277TIP3    H212777   7.490   7.468   6.562
 4278TIP3   OH212778   7.323   0.463   4.701
 4278TIP3    H112779   7.272   0.384   4.721
 4278TIP3    H212780   7.321   0.469   4.605
 4279TIP3   OH212781   2.992   6.148   4.003
 4279TIP3    H112782   2.930   6.192   4.061
 4279TIP3    H212783   2.996   6.058   4.036
 4280TIP3   OH212784   1.808   4.649   2.852
 4280TIP3    H112785   1.780   4.686   2.936
 4280TIP3    H212786   1.797   4.555   2.863
 4281TIP3   OH212787   5.208   2.896   0.994
 4281TIP3    H112788   5.125   2.937   1.016
 4281TIP3    H212789   5.187   2.836   0.923
 4282TIP3   OH212790   7.214   7.045   4.632
 4282TIP3    H112791   7.162   7.113   4.674
 4282TIP3    H212792   7.279   7.093   4.580
 4283TIP3   OH212793   5.487   1.931   4.084
 4283TIP3    H112794   5.543   1.885   4.022
 4283TIP3    H212795   5.398   1.916   4.052
 4284TIP3   OH212796   7.289   1.313   2.641
 4284TIP3    H112797   7.285   1.218   2.652
 4284TIP3    H212798   7.245   1.349   2.718
 4285TIP3   OH212799   3.974   2.689   5.556
 4285TIP3    H112800   3.983   2.636   5.476
 4285TIP3    H212801   3.880   2.694   5.571
 4286TIP3   OH212802   6.035   0.648   4.640
 4286TIP3    H112803   6.082   0.588   4.582
 4286TIP3    H212804   6.056   0.735   4.606
 4287TIP3   OH212805   8.169   0.129   1.223
 4287TIP3    H112806   8.246   0.186   1.221
 4287TIP3    H212807   8.170   0.090   1.310
 4288TIP3   OH212808   1.105   5.071   4.004
 4288TIP3    H112809   1.052   5.136   4.050
 4288TIP3    H212810   1.092   4.990   4.053
 4289TIP3   OH212811   1.703   2.131   1.468
 4289TIP3    H112812   1.662   2.133   1.554
 4289TIP3    H212813   1.693   2.220   1.434
 4290TIP3   OH212814   6.635   7.473   0.182
 4290TIP3    H112815   6.658   7.496   0.272
 4290TIP3    H212816   6.545   7.443   0.187
 4291TIP3   OH212817   4.272   3.803   0.330
 4291TIP3    H112818   4.190   3.834   0.367
 4291TIP3    H212819   4.299   3.731   0.386
 4292TIP3   OH212820   6.367   7.207   5.788
 4292TIP3    H112821   6.436   7.265   5.822
 4292TIP3    H212822   6.314   7.186   5.864
 4293TIP3   OH212823   7.888  -0.003   3.478
 4293TIP3    H112824   7.969  -0.053   3.473
 4293TIP3    H212825   7.894   0.060   3.406
 4294TIP3   OH212826   6.335   5.993   4.703
 4294TIP3    H112827   6.338   5.906   4.743
 4294TIP3    H212828   6.242   6.015   4.699
 4295TIP3   OH212829   7.921   3.151   4.031
 4295TIP3    H112830   7.934   3.134   3.938
 4295TIP3    H212831   8.008   3.169   4.065
 4296TIP3   OH212832   0.349   0.730   1.954
 4296TIP3    H112833   0.335   0.816   1.993
 4296TIP3    H212834   0.434   0.702   1.988
 4297TIP3   OH212835   4.333   4.299   1.905
 4297TIP3    H112836   4.261   4.357   1.882
 4297TIP3    H212837   4.364   4.332   1.990
 4298TIP3   OH212838   6.940   6.579   3.285
 4298TIP3    H112839   7.001   6.648   3.311
 4298TIP3    H212840   6.854   6.620   3.293
 4299TIP3   OH212841   7.560   2.729   5.747
 4299TIP3    H112842   7.629   2.715   5.812
 4299TIP3    H212843   7.591   2.683   5.669
 4300TIP3   OH212844   0.095   0.355   3.064
 4300TIP3    H112845   0.113   0.406   3.143
 4300TIP3    H212846   0.059   0.273   3.096
 4301TIP3   OH212847   5.798   2.500   2.954
 4301TIP3    H112848   5.710   2.463   2.957
 4301TIP3    H212849   5.844   2.448   2.888
 4302TIP3   OH212850   3.459   4.946   2.117
 4302TIP3    H112851   3.481   4.988   2.200
 4302TIP3    H212852   3.525   4.978   2.055
 4303TIP3   OH212853   7.099   4.410   6.664
 4303TIP3    H112854   7.109   4.334   6.607
 4303TIP3    H212855   7.097   4.485   6.604
 4304TIP3   OH212856   8.133   4.102   0.037
 4304TIP3    H112857   8.041   4.122   0.054
 4304TIP3    H212858   8.130   4.034  -0.031
 4305TIP3   OH212859   2.846   4.616   4.393
 4305TIP3    H112860   2.801   4.645   4.313
 4305TIP3    H212861   2.825   4.522   4.399
 4306TIP3   OH212862   3.059   5.844   0.240
 4306TIP3    H112863   3.061   5.753   0.211
 4306TIP3    H212864   3.006   5.843   0.320
 4307TIP3   OH212865   3.078   5.560   2.514
 4307TIP3    H112866   3.152   5.577   2.572
 4307TIP3    H212867   3.045   5.647   2.491
 4308TIP3   OH212868   4.338   7.498   0.551
 4308TIP3    H112869   4.371   7.487   0.462
 4308TIP3    H212870   4.417   7.512   0.604
 4309TIP3   OH212871   5.297   5.870   4.414
 4309TIP3    H112872   5.334   5.949   4.452
 4309TIP3    H212873   5.359   5.844   4.346
 4310TIP3   OH212874   2.280   3.947   5.590
 4310TIP3    H112875   2.267   4.041   5.598
 4310TIP3    H212876   2.328   3.922   5.669
 4311TIP3   OH212877   4.649   1.486   5.868
 4311TIP3    H112878   4.569   1.436   5.848
 4311TIP3    H212879   4.627   1.576   5.844
 4312TIP3   OH212880   5.985   4.405   5.583
 4312TIP3    H112881   6.054   4.348   5.549
 4312TIP3    H212882   5.908   4.347   5.591
 4313TIP3   OH212883   1.805   6.379   5.928
 4313TIP3    H112884   1.814   6.447   5.861
 4313TIP3    H212885   1.721   6.338   5.911
 4314TIP3   OH212886   1.262   2.605   5.455
 4314TIP3    H112887   1.290   2.578   5.542
 4314TIP3    H212888   1.343   2.610   5.404
 4315TIP3   OH212889   4.888   3.834   5.116
 4315TIP3    H112890   4.908   3.889   5.192
 4315TIP3    H212891   4.936   3.753   5.132
 4316TIP3   OH212892   4.678   6.220   4.124
 4316TIP3    H112893   4.691   6.175   4.208
 4316TIP3    H212894   4.747   6.287   4.123
 4317TIP3   OH212895   6.035   1.563   4.523
 4317TIP3    H112896   6.069   1.554   4.434
 4317TIP3    H212897   5.940   1.552   4.513
 4318TIP3   OH212898   0.756   6.979   4.447
 4318TIP3    H112899   0.730   6.974   4.355
 4318TIP3    H212900   0.696   7.043   4.486
 4319TIP3   OH212901   0.455   0.422   2.822
 4319TIP3    H112902   0.374   0.423   2.770
 4319TIP3    H212903   0.451   0.342   2.873
 4320TIP3   OH212904   3.497   5.432   2.443
 4320TIP3    H112905   3.464   5.356   2.491
 4320TIP3    H212906   3.587   5.408   2.420
 4321TIP3   OH212907   1.594   0.979   6.183
 4321TIP3    H112908   1.656   1.044   6.150
 4321TIP3    H212909   1.576   1.006   6.273
 4322TIP3   OH212910   7.802   7.824   4.404
 4322TIP3    H112911   7.801   7.730   4.390
 4322TIP3    H212912   7.857   7.836   4.482
 4323TIP3   OH212913   3.922   4.947   1.104
 4323TIP3    H112914   3.926   4.942   1.008
 4323TIP3    H212915   3.831   4.971   1.123
 4324TIP3   OH212916   7.216   4.342   0.143
 4324TIP3    H112917   7.124   4.370   0.146
 4324TIP3    H212918   7.259   4.394   0.211
 4325TIP3   OH212919   0.444   0.525   5.858
 4325TIP3    H112920   0.351   0.536   5.874
 4325TIP3    H212921   0.457   0.550   5.767
 4326TIP3   OH212922   0.371   4.449   6.193
 4326TIP3    H112923   0.362   4.356   6.171
 4326TIP3    H212924   0.308   4.493   6.137
 4327TIP3   OH212925   1.503   4.675   0.875
 4327TIP3    H112926   1.596   4.671   0.897
 4327TIP3    H212927   1.485   4.591   0.835
 4328TIP3   OH212928   3.289   5.173   6.461
 4328TIP3    H112929   3.368   5.123   6.484
 4328TIP3    H212930   3.286   5.171   6.366
 4329TIP3   OH212931   3.067   5.441   4.147
 4329TIP3    H112932   3.118   5.411   4.223
 4329TIP3    H212933   3.132   5.487   4.093
 4330TIP3   OH212934   4.292   6.725   3.982
 4330TIP3    H112935   4.231   6.781   4.028
 4330TIP3    H212936   4.296   6.645   4.035
 4331TIP3   OH212937   7.394   5.299   0.567
 4331TIP3    H112938   7.459   5.356   0.527
 4331TIP3    H212939   7.380   5.229   0.503
 4332TIP3   OH212940   7.333   1.538   4.115
 4332TIP3    H112941   7.370   1.459   4.077
 4332TIP3    H212942   7.353   1.608   4.053
 4333TIP3   OH212943   3.356   4.108   5.578
 4333TIP3    H112944   3.388   4.074   5.662
 4333TIP3    H212945   3.425   4.084   5.515
 4334TIP3   OH212946   5.337   0.356   5.930
 4334TIP3    H112947   5.260   0.412   5.923
 4334TIP3    H212948   5.319   0.282   5.873
 4335TIP3   OH212949   1.859   3.139   1.012
 4335TIP3    H112950   1.931   3.190   1.048
 4335TIP3    H212951   1.880   3.129   0.919
 4336TIP3   OH212952   1.204   2.904   3.871
 4336TIP3    H112953   1.191   2.838   3.939
 4336TIP3    H212954   1.210   2.853   3.790
 4337TIP3   OH212955   7.387   5.154   0.805
 4337TIP3    H112956   7.452   5.092   0.771
 4337TIP3    H212957   7.397   5.231   0.750
 4338TIP3   OH212958   7.950   5.586   2.587
 4338TIP3    H112959   7.948   5.662   2.528
 4338TIP3    H212960   7.992   5.620   2.667
 4339TIP3   OH212961   4.059   3.034   2.983
 4339TIP3    H112962   4.056   2.946   3.021
 4339TIP3    H212963   3.987   3.081   3.025
 4340TIP3   OH212964   3.583   6.982   6.780
 4340TIP3    H112965   3.489   6.995   6.789
 4340TIP3    H212966   3.592   6.896   6.740
 4341TIP3   OH212967   4.031   3.468   5.880
 4341TIP3    H112968   3.971   3.402   5.913
 4341TIP3    H212969   4.055   3.437   5.792
 4342TIP3   OH212970   1.207   7.640   4.008
 4342TIP3    H112971   1.287   7.589   4.023
 4342TIP3    H212972   1.234   7.710   3.948
 4343TIP3   OH212973   1.695   5.823   2.723
 4343TIP3    H112974   1.641   5.864   2.790
 4343TIP3    H212975   1.704   5.732   2.750
 4344TIP3   OH212976   4.790   1.770   4.812
 4344TIP3    H112977   4.731   1.844   4.822
 4344TIP3    H212978   4.878   1.808   4.813
 4345TIP3   OH212979   7.702   3.361   2.770
 4345TIP3    H112980   7.636   3.292   2.769
 4345TIP3    H212981   7.734   3.365   2.680
 4346TIP3   OH212982   6.859   6.682   2.567
 4346TIP3    H112983   6.946   6.650   2.545
 4346TIP3    H212984   6.799   6.619   2.528
 4347TIP3   OH212985   0.890   2.086   5.660
 4347TIP3    H112986   0.961   2.032   5.695
 4347TIP3    H212987   0.887   2.162   5.718
 4348TIP3   OH212988   6.138   6.159   0.700
 4348TIP3    H112989   6.217   6.108   0.682
 4348TIP3    H212990   6.081   6.142   0.626
 4349TIP3   OH212991   3.160   4.406   6.057
 4349TIP3    H112992   3.118   4.348   5.993
 4349TIP3    H212993   3.125   4.377   6.142
 4350TIP3   OH212994   3.042   7.036   2.594
 4350TIP3    H112995   2.978   6.977   2.553
 4350TIP3    H212996   3.063   6.994   2.677
 4351TIP3   OH212997   5.295   1.722   4.697
 4351TIP3    H112998   5.237   1.798   4.704
 4351TIP3    H212999   5.369   1.752   4.645
 4352TIP3   OH213000   2.909   1.165   1.105
 4352TIP3    H113001   3.005   1.168   1.112
 4352TIP3    H213002   2.883   1.257   1.099
 4353TIP3   OH213003   7.039   6.097   5.633
 4353TIP3    H113004   7.096   6.063   5.565
 4353TIP3    H213005   7.094   6.102   5.711
 4354TIP3   OH213006   7.783   4.922   6.008
 4354TIP3    H113007   7.861   4.878   5.977
 4354TIP3    H213008   7.711   4.862   5.987
 4355TIP3   OH213009   2.492   4.541   1.402
 4355TIP3    H113010   2.517   4.594   1.478
 4355TIP3    H213011   2.410   4.579   1.372
 4356TIP3   OH213012   1.645   7.120   3.747
 4356TIP3    H113013   1.706   7.048   3.767
 4356TIP3    H213014   1.567   7.076   3.713
 4357TIP3   OH213015   3.180   7.337   1.332
 4357TIP3    H113016   3.222   7.256   1.358
 4357TIP3    H213017   3.241   7.406   1.359
 4358TIP3   OH213018   4.295   6.656   2.764
 4358TIP3    H113019   4.292   6.563   2.790
 4358TIP3    H213020   4.203   6.683   2.763
 4359TIP3   OH213021   2.207   2.838   6.403
 4359TIP3    H113022   2.175   2.917   6.361
 4359TIP3    H213023   2.232   2.780   6.331
 4360TIP3   OH213024   6.331   5.158   1.222
 4360TIP3    H113025   6.386   5.098   1.172
 4360TIP3    H213026   6.246   5.115   1.226
 4361TIP3   OH213027   5.049   0.269   5.844
 4361TIP3    H113028   5.059   0.225   5.929
 4361TIP3    H213029   5.009   0.203   5.788
 4362TIP3   OH213030   0.693   6.958   4.871
 4362TIP3    H113031   0.663   7.047   4.854
 4362TIP3    H213032   0.727   6.961   4.961
 4363TIP3   OH213033   2.896   3.398   1.392
 4363TIP3    H113034   2.875   3.384   1.484
 4363TIP3    H213035   2.992   3.406   1.390
 4364TIP3   OH213036   6.956   6.589   1.695
 4364TIP3    H113037   6.865   6.567   1.714
 4364TIP3    H213038   6.952   6.675   1.653
 4365TIP3   OH213039   7.215   4.001   6.070
 4365TIP3    H113040   7.247   3.946   5.998
 4365TIP3    H213041   7.294   4.043   6.104
 4366TIP3   OH213042   6.397   0.177   2.373
 4366TIP3    H113043   6.456   0.199   2.301
 4366TIP3    H213044   6.435   0.221   2.449
 4367TIP3   OH213045   6.786   6.320   1.084
 4367TIP3    H113046   6.855   6.289   1.025
 4367TIP3    H213047   6.820   6.302   1.172
 4368TIP3   OH213048   3.184   2.093   2.974
 4368TIP3    H113049   3.114   2.028   2.964
 4368TIP3    H213050   3.212   2.084   3.065
 4369TIP3   OH213051   2.396   1.471   5.602
 4369TIP3    H113052   2.303   1.479   5.582
 4369TIP3    H213053   2.420   1.384   5.569
 4370TIP3   OH213054   1.659   0.639   4.165
 4370TIP3    H113055   1.671   0.601   4.252
 4370TIP3    H213056   1.572   0.678   4.168
 4371TIP3   OH213057   7.767   2.318   5.199
 4371TIP3    H113058   7.790   2.244   5.255
 4371TIP3    H213059   7.846   2.372   5.196
 4372TIP3   OH213060   5.082   0.184   5.123
 4372TIP3    H113061   4.994   0.146   5.122
 4372TIP3    H213062   5.078   0.254   5.189
 4373TIP3   OH213063   7.812   5.161   4.659
 4373TIP3    H113064   7.766   5.121   4.586
 4373TIP3    H213065   7.825   5.252   4.632
 4374TIP3   OH213066   3.107   1.561   1.973
 4374TIP3    H113067   3.129   1.654   1.972
 4374TIP3    H213068   3.191   1.516   1.956
 4375TIP3   OH213069   6.219   2.164   0.619
 4375TIP3    H113070   6.267   2.107   0.680
 4375TIP3    H213071   6.279   2.176   0.546
 4376TIP3   OH213072   1.906   3.485   5.729
 4376TIP3    H113073   1.842   3.552   5.705
 4376TIP3    H213074   1.987   3.534   5.746
 4377TIP3   OH213075   5.565   4.581   2.671
 4377TIP3    H113076   5.522   4.601   2.754
 4377TIP3    H213077   5.593   4.490   2.679
 4378TIP3   OH213078   0.604   5.773   1.725
 4378TIP3    H113079   0.546   5.849   1.734
 4378TIP3    H213080   0.640   5.780   1.636
 4379TIP3   OH213081   5.739   5.562   1.570
 4379TIP3    H113082   5.754   5.489   1.629
 4379TIP3    H213083   5.806   5.626   1.593
 4380TIP3   OH213084   6.235   6.213   2.332
 4380TIP3    H113085   6.252   6.229   2.425
 4380TIP3    H213086   6.157   6.264   2.313
 4381TIP3   OH213087   0.735   6.407   3.362
 4381TIP3    H113088   0.793   6.475   3.397
 4381TIP3    H213089   0.795   6.340   3.329
 4382TIP3   OH213090   7.850   1.554   2.594
 4382TIP3    H113091   7.879   1.474   2.550
 4382TIP3    H213092   7.922   1.576   2.654
 4383TIP3   OH213093   1.504   6.340   2.834
 4383TIP3    H113094   1.507   6.395   2.911
 4383TIP3    H213095   1.553   6.388   2.767
 4384TIP3   OH213096   7.683   1.599   5.193
 4384TIP3    H113097   7.729   1.682   5.184
 4384TIP3    H213098   7.593   1.623   5.216
 4385TIP3   OH213099   1.263   6.016   0.081
 4385TIP3    H113100   1.268   5.938   0.026
 4385TIP3    H213101   1.183   6.060   0.054
 4386TIP3   OH213102   7.259   4.040   0.217
 4386TIP3    H113103   7.254   4.117   0.160
 4386TIP3    H213104   7.234   4.072   0.304
 4387TIP3   OH213105   4.872   6.481   2.003
 4387TIP3    H113106   4.942   6.423   1.974
 4387TIP3    H213107   4.836   6.518   1.923
 4388TIP3   OH213108   4.676   2.371   4.916
 4388TIP3    H113109   4.694   2.365   4.822
 4388TIP3    H213110   4.746   2.426   4.950
 4389TIP3   OH213111   5.015   1.066   4.843
 4389TIP3    H113112   5.055   0.981   4.858
 4389TIP3    H213113   4.928   1.046   4.808
 4390TIP3   OH213114   6.957   4.358   5.099
 4390TIP3    H113115   6.901   4.285   5.072
 4390TIP3    H213116   6.928   4.432   5.045
 4391TIP3   OH213117   6.333   1.770   5.519
 4391TIP3    H113118   6.338   1.685   5.475
 4391TIP3    H213119   6.243   1.799   5.505
 4392TIP3   OH213120   5.388   2.259   1.531
 4392TIP3    H113121   5.470   2.308   1.538
 4392TIP3    H213122   5.344   2.295   1.454
 4393TIP3   OH213123   5.270   1.675   2.328
 4393TIP3    H113124   5.238   1.718   2.407
 4393TIP3    H213125   5.293   1.747   2.269
 4394TIP3   OH213126   7.952   2.664   1.376
 4394TIP3    H113127   8.029   2.646   1.430
 4394TIP3    H213128   7.972   2.747   1.332
 4395TIP3   OH213129   6.200   0.641   1.159
 4395TIP3    H113130   6.105   0.655   1.158
 4395TIP3    H213131   6.227   0.668   1.247
 4396TIP3   OH213132   6.400   7.034   4.378
 4396TIP3    H113133   6.409   6.956   4.323
 4396TIP3    H213134   6.391   7.000   4.467
 4397TIP3   OH213135   0.535   6.828   6.186
 4397TIP3    H113136   0.480   6.863   6.115
 4397TIP3    H213137   0.600   6.896   6.201
 4398TIP3   OH213138   6.062   6.077   4.662
 4398TIP3    H113139   5.990   6.052   4.719
 4398TIP3    H213140   6.032   6.157   4.619
 4399TIP3   OH213141   1.470   3.349   4.176
 4399TIP3    H113142   1.430   3.272   4.136
 4399TIP3    H213143   1.560   3.349   4.142
 4400TIP3   OH213144   4.592   1.297   1.223
 4400TIP3    H113145   4.626   1.226   1.277
 4400TIP3    H213146   4.609   1.376   1.274
 4401TIP3   OH213147   2.043   4.304   4.929
 4401TIP3    H113148   2.034   4.395   4.899
 4401TIP3    H213149   2.136   4.294   4.948
 4402TIP3   OH213150   5.964   6.829   2.891
 4402TIP3    H113151   5.869   6.826   2.902
 4402TIP3    H213152   5.992   6.905   2.942
 4403TIP3   OH213153   1.247   3.004   1.528
 4403TIP3    H113154   1.301   3.058   1.585
 4403TIP3    H213155   1.228   2.926   1.579
 4404TIP3   OH213156   4.512   5.680   3.468
 4404TIP3    H113157   4.487   5.607   3.411
 4404TIP3    H213158   4.437   5.689   3.528
 4405TIP3   OH213159   6.140   2.600   0.557
 4405TIP3    H113160   6.222   2.644   0.532
 4405TIP3    H213161   6.164   2.549   0.634
 4406TIP3   OH213162   2.903   7.158   2.226
 4406TIP3    H113163   2.980   7.101   2.234
 4406TIP3    H213164   2.932   7.229   2.168
 4407TIP3   OH213165   4.230   2.115   4.705
 4407TIP3    H113166   4.278   2.042   4.665
 4407TIP3    H213167   4.155   2.074   4.749
 4408TIP3   OH213168   5.060   4.975   6.073
 4408TIP3    H113169   5.120   4.929   6.132
 4408TIP3    H213170   5.005   5.028   6.131
 4409TIP3   OH213171   7.199   6.808   1.398
 4409TIP3    H113172   7.245   6.732   1.361
 4409TIP3    H213173   7.107   6.786   1.389
 4410TIP3   OH213174   2.781   2.717   4.811
 4410TIP3    H113175   2.821   2.657   4.874
 4410TIP3    H213176   2.773   2.800   4.858
 4411TIP3   OH213177   3.827   3.519   4.951
 4411TIP3    H113178   3.843   3.528   4.857
 4411TIP3    H213179   3.838   3.607   4.986
 4412TIP3   OH213180   3.592   3.669   0.178
 4412TIP3    H113181   3.597   3.684   0.084
 4412TIP3    H213182   3.660   3.604   0.196
 4413TIP3   OH213183   7.300   6.331   5.579
 4413TIP3    H113184   7.270   6.254   5.627
 4413TIP3    H213185   7.224   6.389   5.577
 4414TIP3   OH213186   0.929   3.847   0.622
 4414TIP3    H113187   0.941   3.904   0.546
 4414TIP3    H213188   0.854   3.793   0.600
 4415TIP3   OH213189   4.841   4.849   1.739
 4415TIP3    H113190   4.931   4.881   1.749
 4415TIP3    H213191   4.803   4.858   1.826
 4416TIP3   OH213192   3.155   3.770   2.644
 4416TIP3    H113193   3.120   3.842   2.695
 4416TIP3    H213194   3.227   3.735   2.697
 4417TIP3   OH213195   4.682   0.973   4.114
 4417TIP3    H113196   4.647   1.028   4.043
 4417TIP3    H213197   4.649   1.013   4.194
 4418TIP3   OH213198   0.059   5.668   0.479
 4418TIP3    H113199  -0.003   5.692   0.411
 4418TIP3    H213200   0.144   5.669   0.435
 4419TIP3   OH213201   4.562   0.744   4.697
 4419TIP3    H113202   4.647   0.701   4.701
 4419TIP3    H213203   4.544   0.755   4.603
 4420TIP3   OH213204   6.107   4.208   4.002
 4420TIP3    H113205   6.083   4.133   4.056
 4420TIP3    H213206   6.202   4.215   4.012
 4421TIP3   OH213207   4.101   3.373   3.392
 4421TIP3    H113208   4.147   3.455   3.408
 4421TIP3    H213209   4.158   3.305   3.427
 4422TIP3   OH213210   4.091   2.469   4.630
 4422TIP3    H113211   4.143   2.389   4.625
 4422TIP3    H213212   4.077   2.495   4.539
 4423TIP3   OH213213   8.150   5.381   5.286
 4423TIP3    H113214   8.160   5.474   5.269
 4423TIP3    H213215   8.165   5.339   5.201
 4424TIP3   OH213216   1.183   0.080   4.246
 4424TIP3    H113217   1.270   0.059   4.278
 4424TIP3    H213218   1.140  -0.005   4.236
 4425TIP3   OH213219   1.371   0.730   2.212
 4425TIP3    H113220   1.379   0.810   2.264
 4425TIP3    H213221   1.461   0.707   2.189
 4426TIP3   OH213222   7.007   3.904   4.788
 4426TIP3    H113223   7.081   3.962   4.804
 4426TIP3    H213224   7.014   3.880   4.696
 4427TIP3   OH213225   4.471   0.146   0.212
 4427TIP3    H113226   4.511   0.231   0.196
 4427TIP3    H213227   4.488   0.129   0.305
 4428TIP3   OH213228   6.823   7.146   2.840
 4428TIP3    H113229   6.867   7.063   2.857
 4428TIP3    H213230   6.757   7.126   2.774
 4429TIP3   OH213231   2.042   6.246   0.507
 4429TIP3    H113232   2.006   6.291   0.431
 4429TIP3    H213233   1.987   6.168   0.516
 4430TIP3   OH213234   1.013   0.712   1.915
 4430TIP3    H113235   1.056   0.740   1.835
 4430TIP3    H213236   0.952   0.644   1.886
 4431TIP3   OH213237   0.793   2.192   1.510
 4431TIP3    H113238   0.761   2.104   1.492
 4431TIP3    H213239   0.888   2.183   1.506
 4432TIP3   OH213240   1.839   5.479   4.709
 4432TIP3    H113241   1.779   5.430   4.765
 4432TIP3    H213242   1.926   5.453   4.739
 4433TIP3   OH213243   1.451   5.165   5.681
 4433TIP3    H113244   1.491   5.251   5.669
 4433TIP3    H213245   1.512   5.104   5.641
 4434TIP3   OH213246   5.115   3.218   5.409
 4434TIP3    H113247   5.157   3.273   5.342
 4434TIP3    H213248   5.038   3.182   5.365
 4435TIP3   OH213249   7.329   2.660   6.594
 4435TIP3    H113250   7.275   2.634   6.668
 4435TIP3    H213251   7.332   2.583   6.537
 4436TIP3   OH213252   6.926   2.424   0.255
 4436TIP3    H113253   7.020   2.440   0.250
 4436TIP3    H213254   6.901   2.402   0.165
 4437TIP3   OH213255   6.898   0.302   4.251
 4437TIP3    H113256   6.876   0.219   4.295
 4437TIP3    H213257   6.821   0.320   4.197
 4438TIP3   OH213258   6.055   5.284   5.142
 4438TIP3    H113259   6.068   5.192   5.167
 4438TIP3    H213260   6.140   5.311   5.106
 4439TIP3   OH213261   3.152   7.014   2.165
 4439TIP3    H113262   3.198   6.930   2.165
 4439TIP3    H213263   3.159   7.045   2.075
 4440TIP3   OH213264   0.662   7.052   6.281
 4440TIP3    H113265   0.736   7.004   6.320
 4440TIP3    H213266   0.701   7.100   6.208
 4441TIP3   OH213267   6.386   4.289   3.863
 4441TIP3    H113268   6.394   4.342   3.942
 4441TIP3    H213269   6.469   4.301   3.817
 4442TIP3   OH213270   1.798   6.355   3.028
 4442TIP3    H113271   1.876   6.346   3.083
 4442TIP3    H213272   1.831   6.351   2.939
 4443TIP3   OH213273   5.340   1.958   3.761
 4443TIP3    H113274   5.275   1.888   3.764
 4443TIP3    H213275   5.332   2.002   3.846
 4444TIP3   OH213276   3.212   0.623   3.086
 4444TIP3    H113277   3.181   0.533   3.092
 4444TIP3    H213278   3.171   0.658   3.007
 4445TIP3   OH213279   4.084   4.830   5.584
 4445TIP3    H113280   4.103   4.892   5.654
 4445TIP3    H213281   3.998   4.857   5.551
 4446TIP3   OH213282   7.839   6.987   5.609
 4446TIP3    H113283   7.803   6.900   5.593
 4446TIP3    H213284   7.931   6.980   5.587
 4447TIP3   OH213285   3.533   5.982   1.798
 4447TIP3    H113286   3.523   6.077   1.786
 4447TIP3    H213287   3.468   5.943   1.740
 4448TIP3   OH213288   4.814   5.568   6.300
 4448TIP3    H113289   4.883   5.608   6.248
 4448TIP3    H213290   4.764   5.641   6.335
 4449TIP3   OH213291   1.764   4.703   1.559
 4449TIP3    H113292   1.837   4.641   1.556
 4449TIP3    H213293   1.800   4.784   1.523
 4450TIP3   OH213294   4.496   1.557   1.832
 4450TIP3    H113295   4.459   1.481   1.876
 4450TIP3    H213296   4.423   1.593   1.781
 4451TIP3   OH213297   7.549   3.560   4.725
 4451TIP3    H113298   7.613   3.620   4.688
 4451TIP3    H213299   7.525   3.598   4.809
 4452TIP3   OH213300   2.125   3.960   1.637
 4452TIP3    H113301   2.182   3.886   1.655
 4452TIP3    H213302   2.039   3.921   1.620
 4453TIP3   OH213303   1.100   7.749   3.238
 4453TIP3    H113304   1.138   7.729   3.324
 4453TIP3    H213305   1.034   7.681   3.225
 4454TIP3   OH213306   6.851   7.535   3.829
 4454TIP3    H113307   6.867   7.619   3.873
 4454TIP3    H213308   6.892   7.471   3.886
 4455TIP3   OH213309   6.397   7.674   4.560
 4455TIP3    H113310   6.308   7.659   4.530
 4455TIP3    H213311   6.436   7.729   4.492
 4456TIP3   OH213312   5.268   6.869   1.421
 4456TIP3    H113313   5.227   6.821   1.493
 4456TIP3    H213314   5.196   6.887   1.360
 4457TIP3   OH213315   4.151   2.276   6.091
 4457TIP3    H113316   4.168   2.370   6.099
 4457TIP3    H213317   4.062   2.270   6.057
 4458TIP3   OH213318   5.552   2.764   4.039
 4458TIP3    H113319   5.571   2.700   3.969
 4458TIP3    H213320   5.585   2.847   4.005
 4459TIP3   OH213321   6.439   5.343   5.463
 4459TIP3    H113322   6.353   5.315   5.495
 4459TIP3    H213323   6.495   5.266   5.474
 4460TIP3   OH213324   4.342   7.462   5.591
 4460TIP3    H113325   4.309   7.389   5.539
 4460TIP3    H213326   4.370   7.422   5.674
 4461TIP3   OH213327   6.190   2.048   1.013
 4461TIP3    H113328   6.210   1.957   0.991
 4461TIP3    H213329   6.273   2.084   1.043
 4462TIP3   OH213330   1.352   2.154   3.913
 4462TIP3    H113331   1.366   2.190   4.001
 4462TIP3    H213332   1.269   2.107   3.920
 4463TIP3   OH213333   4.018   0.869   3.391
 4463TIP3    H113334   4.101   0.913   3.371
 4463TIP3    H213335   4.019   0.860   3.486
 4464TIP3   OH213336   7.973   4.404   1.840
 4464TIP3    H113337   7.973   4.493   1.876
 4464TIP3    H213338   7.957   4.416   1.746
 4465TIP3   OH213339   6.374   1.289   3.959
 4465TIP3    H113340   6.342   1.283   3.869
 4465TIP3    H213341   6.383   1.382   3.976
 4466TIP3   OH213342   4.675   6.194   4.836
 4466TIP3    H113343   4.606   6.227   4.778
 4466TIP3    H213344   4.638   6.201   4.924
 4467TIP3   OH213345   2.627   0.132   4.186
 4467TIP3    H113346   2.676   0.103   4.109
 4467TIP3    H213347   2.694   0.165   4.246
 4468TIP3   OH213348   4.371   1.558   1.404
 4468TIP3    H113349   4.356   1.592   1.316
 4468TIP3    H213350   4.361   1.464   1.395
 4469TIP3   OH213351   4.777   3.945   2.233
 4469TIP3    H113352   4.829   3.920   2.311
 4469TIP3    H213353   4.802   4.035   2.215
 4470TIP3   OH213354   1.386   0.327   3.524
 4470TIP3    H113355   1.470   0.348   3.484
 4470TIP3    H213356   1.404   0.254   3.583
 4471TIP3   OH213357   4.738   0.926   1.681
 4471TIP3    H113358   4.649   0.962   1.682
 4471TIP3    H213359   4.787   0.980   1.743
 4472TIP3   OH213360   4.130   2.301   1.470
 4472TIP3    H113361   4.153   2.384   1.513
 4472TIP3    H213362   4.103   2.244   1.541
 4473TIP3   OH213363   7.380   0.052   1.684
 4473TIP3    H113364   7.331   0.121   1.639
 4473TIP3    H213365   7.358   0.063   1.776
 4474TIP3   OH213366   6.142   3.361   2.265
 4474TIP3    H113367   6.060   3.317   2.287
 4474TIP3    H213368   6.141   3.368   2.170
 4475TIP3   OH213369   1.634   7.051   1.942
 4475TIP3    H113370   1.565   7.039   1.876
 4475TIP3    H213371   1.691   7.119   1.906
 4476TIP3   OH213372   1.315   4.436   6.709
 4476TIP3    H113373   1.295   4.496   6.781
 4476TIP3    H213374   1.368   4.489   6.649
 4477TIP3   OH213375   4.069   1.835   0.201
 4477TIP3    H113376   4.027   1.900   0.256
 4477TIP3    H213377   4.135   1.883   0.150
 4478TIP3   OH213378   0.307   3.086   4.123
 4478TIP3    H113379   0.274   3.057   4.209
 4478TIP3    H213380   0.368   3.157   4.143
 4479TIP3   OH213381   6.695   2.082   0.100
 4479TIP3    H113382   6.721   2.102   0.010
 4479TIP3    H213383   6.612   2.035   0.090
 4480TIP3   OH213384   5.878   2.396   1.824
 4480TIP3    H113385   5.924   2.364   1.746
 4480TIP3    H213386   5.841   2.317   1.864
 4481TIP3   OH213387   8.248   5.242   0.716
 4481TIP3    H113388   8.196   5.314   0.753
 4481TIP3    H213389   8.332   5.281   0.694
 4482TIP3   OH213390   0.952   0.366   2.891
 4482TIP3    H113391   0.938   0.273   2.875
 4482TIP3    H213392   0.865   0.405   2.882
 4483TIP3   OH213393   7.379   6.824   4.670
 4483TIP3    H113394   7.323   6.894   4.636
 4483TIP3    H213395   7.400   6.850   4.759
 4484TIP3   OH213396   4.292   0.356   2.435
 4484TIP3    H113397   4.376   0.395   2.410
 4484TIP3    H213398   4.275   0.290   2.368
 4485TIP3   OH213399   4.845   6.102   1.946
 4485TIP3    H113400   4.813   6.183   1.985
 4485TIP3    H213401   4.837   6.115   1.851
 4486TIP3   OH213402   8.222   6.008   2.711
 4486TIP3    H113403   8.248   5.922   2.679
 4486TIP3    H213404   8.174   5.991   2.792
 4487TIP3   OH213405   0.205   7.553   5.606
 4487TIP3    H113406   0.139   7.521   5.667
 4487TIP3    H213407   0.179   7.516   5.521
 4488TIP3   OH213408   6.291   5.439   6.442
 4488TIP3    H113409   6.329   5.409   6.360
 4488TIP3    H213410   6.310   5.532   6.446
 4489TIP3   OH213411   2.676   1.006   0.569
 4489TIP3    H113412   2.644   0.976   0.654
 4489TIP3    H213413   2.603   0.991   0.510
 4490TIP3   OH213414   4.093   0.729   2.912
 4490TIP3    H113415   4.039   0.767   2.843
 4490TIP3    H213416   4.103   0.799   2.976
 4491TIP3   OH213417   3.379   3.376   6.547
 4491TIP3    H113418   3.376   3.353   6.640
 4491TIP3    H213419   3.418   3.299   6.505
 4492TIP3   OH213420   6.675   6.991   1.680
 4492TIP3    H113421   6.700   7.082   1.697
 4492TIP3    H213422   6.625   6.994   1.599
 4493TIP3   OH213423   5.495   1.169   0.065
 4493TIP3    H113424   5.500   1.241   0.127
 4493TIP3    H213425   5.455   1.207  -0.013
 4494TIP3   OH213426   4.586   5.757   2.771
 4494TIP3    H113427   4.664   5.812   2.766
 4494TIP3    H213428   4.517   5.816   2.800
 4495TIP3   OH213429   3.232   6.473   0.405
 4495TIP3    H113430   3.195   6.387   0.384
 4495TIP3    H213431   3.157   6.526   0.432
 4496TIP3   OH213432   2.283   2.892   4.165
 4496TIP3    H113433   2.195   2.925   4.185
 4496TIP3    H213434   2.271   2.798   4.154
 4497TIP3   OH213435   5.083   4.102   2.002
 4497TIP3    H113436   5.104   4.043   1.929
 4497TIP3    H213437   4.996   4.135   1.981
 4498TIP3   OH213438   3.811   2.882   2.512
 4498TIP3    H113439   3.737   2.894   2.452
 4498TIP3    H213440   3.882   2.851   2.455
 4499TIP3   OH213441   1.302   3.469   4.652
 4499TIP3    H113442   1.331   3.377   4.648
 4499TIP3    H213443   1.262   3.485   4.566
 4500TIP3   OH213444   5.186   6.847   2.907
 4500TIP3    H113445   5.098   6.849   2.945
 4500TIP3    H213446   5.241   6.814   2.977
 4501TIP3   OH213447   5.323   1.504   1.718
 4501TIP3    H113448   5.345   1.589   1.681
 4501TIP3    H213449   5.400   1.450   1.702
 4502TIP3   OH213450   3.315   6.082   0.578
 4502TIP3    H113451   3.314   6.032   0.497
 4502TIP3    H213452   3.324   6.016   0.647
 4503TIP3   OH213453   0.502   5.620   5.346
 4503TIP3    H113454   0.442   5.597   5.275
 4503TIP3    H213455   0.566   5.548   5.348
 4504TIP3   OH213456   0.379   2.787   5.375
 4504TIP3    H113457   0.372   2.784   5.470
 4504TIP3    H213458   0.474   2.788   5.358
 4505TIP3   OH213459   2.174   5.382   6.668
 4505TIP3    H113460   2.153   5.446   6.736
 4505TIP3    H213461   2.270   5.381   6.665
 4506TIP3   OH213462   5.901   0.065   5.033
 4506TIP3    H113463   5.916   0.063   5.128
 4506TIP3    H213464   5.897  -0.028   5.008
 4507TIP3   OH213465   4.906   0.470   4.775
 4507TIP3    H113466   5.001   0.464   4.763
 4507TIP3    H213467   4.883   0.556   4.741
 4508TIP3   OH213468   3.846   4.049   0.210
 4508TIP3    H113469   3.807   4.133   0.234
 4508TIP3    H213470   3.802   4.025   0.128
 4509TIP3   OH213471   0.988  -0.010   0.571
 4509TIP3    H113472   0.946  -0.009   0.657
 4509TIP3    H213473   1.012   0.081   0.555
 4510TIP3   OH213474   1.178   7.825   3.795
 4510TIP3    H113475   1.201   7.738   3.764
 4510TIP3    H213476   1.170   7.878   3.715
 4511TIP3   OH213477   4.542   4.764   5.484
 4511TIP3    H113478   4.636   4.773   5.469
 4511TIP3    H213479   4.533   4.770   5.579
 4512TIP3   OH213480   3.982   5.804   5.857
 4512TIP3    H113481   3.964   5.805   5.763
 4512TIP3    H213482   3.953   5.890   5.888
 4513TIP3   OH213483   0.176   0.938   5.680
 4513TIP3    H113484   0.244   0.947   5.613
 4513TIP3    H213485   0.094   0.935   5.630
 4514TIP3   OH213486   7.313   6.553   4.696
 4514TIP3    H113487   7.330   6.496   4.621
 4514TIP3    H213488   7.342   6.639   4.667
 4515TIP3   OH213489   3.498   4.408   4.991
 4515TIP3    H113490   3.592   4.412   5.007
 4515TIP3    H213491   3.478   4.491   4.947
 4516TIP3   OH213492   0.074   3.537   6.084
 4516TIP3    H113493   0.013   3.513   6.155
 4516TIP3    H213494   0.158   3.504   6.113
 4517TIP3   OH213495   1.260   7.734   0.230
 4517TIP3    H113496   1.247   7.697   0.318
 4517TIP3    H213497   1.349   7.770   0.233
 4518TIP3   OH213498   1.616   4.767   0.618
 4518TIP3    H113499   1.680   4.823   0.574
 4518TIP3    H213500   1.658   4.745   0.702
 4519TIP3   OH213501   4.708   4.960   4.626
 4519TIP3    H113502   4.801   4.981   4.624
 4519TIP3    H213503   4.668   5.033   4.675
 4520TIP3   OH213504   6.723   3.233   3.177
 4520TIP3    H113505   6.630   3.249   3.192
 4520TIP3    H213506   6.751   3.306   3.123
 4521TIP3   OH213507   0.231   4.080   5.621
 4521TIP3    H113508   0.165   4.054   5.556
 4521TIP3    H213509   0.312   4.087   5.570
 4522TIP3   OH213510   2.623   4.447   3.198
 4522TIP3    H113511   2.541   4.449   3.248
 4522TIP3    H213512   2.673   4.375   3.238
 4523TIP3   OH213513   3.506   6.238   4.030
 4523TIP3    H113514   3.415   6.235   4.058
 4523TIP3    H213515   3.547   6.163   4.074
 4524TIP3   OH213516   4.691   6.437   1.562
 4524TIP3    H113517   4.665   6.400   1.478
 4524TIP3    H213518   4.785   6.419   1.569
 4525TIP3   OH213519   0.185   4.835   4.149
 4525TIP3    H113520   0.274   4.837   4.113
 4525TIP3    H213521   0.129   4.863   4.076
 4526TIP3   OH213522   5.605   1.318   3.587
 4526TIP3    H113523   5.516   1.292   3.566
 4526TIP3    H213524   5.610   1.410   3.563
 4527TIP3   OH213525   3.168   0.580   5.519
 4527TIP3    H113526   3.085   0.538   5.541
 4527TIP3    H213527   3.191   0.631   5.597
 4528TIP3   OH213528   1.261   4.284   5.202
 4528TIP3    H113529   1.324   4.355   5.190
 4528TIP3    H213530   1.233   4.293   5.293
 4529TIP3   OH213531   2.987   3.278   3.842
 4529TIP3    H113532   2.946   3.196   3.870
 4529TIP3    H213533   2.923   3.346   3.865
 4530TIP3   OH213534   6.746   1.927   5.167
 4530TIP3    H113535   6.805   1.891   5.101
 4530TIP3    H213536   6.663   1.938   5.122
 4531TIP3   OH213537   3.938   4.864   0.306
 4531TIP3    H113538   3.922   4.955   0.332
 4531TIP3    H213539   3.988   4.827   0.379
 4532TIP3   OH213540   3.626   2.386   0.939
 4532TIP3    H113541   3.622   2.380   0.843
 4532TIP3    H213542   3.714   2.355   0.961
 4533TIP3   OH213543   7.022   3.488   0.609
 4533TIP3    H113544   7.114   3.507   0.625
 4533TIP3    H213545   6.983   3.573   0.591
 4534TIP3   OH213546   5.778   2.955   3.041
 4534TIP3    H113547   5.859   2.999   3.016
 4534TIP3    H213548   5.761   2.894   2.969
 4535TIP3   OH213549   5.762   0.045   5.589
 4535TIP3    H113550   5.850   0.023   5.619
 4535TIP3    H213551   5.749  -0.008   5.510
 4536TIP3   OH213552   3.362   2.586   5.290
 4536TIP3    H113553   3.390   2.628   5.209
 4536TIP3    H213554   3.429   2.520   5.307
 4537TIP3   OH213555   3.966   1.767   1.694
 4537TIP3    H113556   3.895   1.728   1.643
 4537TIP3    H213557   3.922   1.809   1.768
 4538TIP3   OH213558   7.855   6.930   1.812
 4538TIP3    H113559   7.874   7.013   1.769
 4538TIP3    H213560   7.865   6.949   1.906
 4539TIP3   OH213561   5.747   5.001   3.875
 4539TIP3    H113562   5.793   5.072   3.920
 4539TIP3    H213563   5.675   5.044   3.829
 4540TIP3   OH213564   2.813   4.700   4.687
 4540TIP3    H113565   2.746   4.633   4.701
 4540TIP3    H213566   2.807   4.720   4.594
 4541TIP3   OH213567   1.268   2.126   5.151
 4541TIP3    H113568   1.308   2.180   5.219
 4541TIP3    H213569   1.225   2.188   5.093
 4542TIP3   OH213570   5.920   3.644   5.356
 4542TIP3    H113571   5.894   3.578   5.421
 4542TIP3    H213572   5.874   3.618   5.276
 4543TIP3   OH213573   7.241   1.898   3.996
 4543TIP3    H113574   7.249   1.915   4.090
 4543TIP3    H213575   7.311   1.949   3.956
 4544TIP3   OH213576   7.898   6.505   0.582
 4544TIP3    H113577   7.926   6.577   0.525
 4544TIP3    H213578   7.806   6.493   0.561
 4545TIP3   OH213579   1.949   2.111   4.381
 4545TIP3    H113580   1.876   2.165   4.412
 4545TIP3    H213581   1.977   2.063   4.459
 4546TIP3   OH213582   6.789   1.339   5.604
 4546TIP3    H113583   6.866   1.376   5.561
 4546TIP3    H213584   6.818   1.255   5.639
 4547TIP3   OH213585   5.488   7.093   2.667
 4547TIP3    H113586   5.431   7.137   2.604
 4547TIP3    H213587   5.469   7.135   2.751
 4548TIP3   OH213588   0.577   3.372   6.326
 4548TIP3    H113589   0.592   3.291   6.375
 4548TIP3    H213590   0.572   3.440   6.393
 4549TIP3   OH213591   7.416   6.140   1.780
 4549TIP3    H113592   7.333   6.185   1.791
 4549TIP3    H213593   7.482   6.206   1.800
 4550TIP3   OH213594   1.236   2.168   3.605
 4550TIP3    H113595   1.328   2.163   3.577
 4550TIP3    H213596   1.239   2.207   3.692
 4551TIP3   OH213597   8.102   6.145   4.459
 4551TIP3    H113598   8.131   6.152   4.368
 4551TIP3    H213599   8.102   6.050   4.477
 4552TIP3   OH213600   4.003   2.084   5.352
 4552TIP3    H113601   4.041   2.023   5.289
 4552TIP3    H213602   4.069   2.153   5.360
 4553TIP3   OH213603   4.616   1.149   3.930
 4553TIP3    H113604   4.569   1.231   3.942
 4553TIP3    H213605   4.708   1.175   3.921
 4554TIP3   OH213606   4.904   4.579   6.171
 4554TIP3    H113607   4.910   4.499   6.119
 4554TIP3    H213608   4.909   4.650   6.106
 4555TIP3   OH213609   1.254   6.932   0.617
 4555TIP3    H113610   1.279   6.898   0.531
 4555TIP3    H213611   1.238   7.026   0.603
 4556TIP3   OH213612   0.712   6.021   2.456
 4556TIP3    H113613   0.784   5.965   2.484
 4556TIP3    H213614   0.689   5.990   2.369
 4557TIP3   OH213615   3.371   5.906   6.319
 4557TIP3    H113616   3.320   5.850   6.378
 4557TIP3    H213617   3.307   5.971   6.288
 4558TIP3   OH213618   2.491   3.357   3.764
 4558TIP3    H113619   2.469   3.328   3.675
 4558TIP3    H213620   2.445   3.441   3.773
 4559TIP3   OH213621   7.255   5.509   5.370
 4559TIP3    H113622   7.256   5.588   5.425
 4559TIP3    H213623   7.269   5.542   5.281
 4560TIP3   OH213624   5.741   2.061   2.757
 4560TIP3    H113625   5.650   2.040   2.776
 4560TIP3    H213626   5.771   2.111   2.833
 4561TIP3   OH213627   3.618   4.845   0.604
 4561TIP3    H113628   3.545   4.784   0.618
 4561TIP3    H213629   3.618   4.900   0.683
 4562TIP3   OH213630   2.453   3.710   1.514
 4562TIP3    H113631   2.424   3.745   1.598
 4562TIP3    H213632   2.548   3.709   1.519
 4563TIP3   OH213633   6.894   6.741   4.100
 4563TIP3    H113634   6.814   6.690   4.116
 4563TIP3    H213635   6.935   6.699   4.025
 4564TIP3   OH213636   4.861   2.594   2.880
 4564TIP3    H113637   4.857   2.660   2.949
 4564TIP3    H213638   4.938   2.618   2.828
 4565TIP3   OH213639   4.692   4.248   5.092
 4565TIP3    H113640   4.625   4.285   5.035
 4565TIP3    H213641   4.766   4.230   5.034
 4566TIP3   OH213642   1.548   6.093   2.696
 4566TIP3    H113643   1.528   6.184   2.714
 4566TIP3    H213644   1.642   6.086   2.707
 4567TIP3   OH213645   2.688   7.424   5.061
 4567TIP3    H113646   2.623   7.476   5.108
 4567TIP3    H213647   2.636   7.364   5.007
 4568TIP3   OH213648   1.824   4.426   2.228
 4568TIP3    H113649   1.829   4.405   2.135
 4568TIP3    H213650   1.788   4.347   2.270
 4569TIP3   OH213651   4.337   5.003   5.962
 4569TIP3    H113652   4.380   5.087   5.979
 4569TIP3    H213653   4.294   5.015   5.877
 4570TIP3   OH213654   7.074   4.631   6.451
 4570TIP3    H113655   7.058   4.683   6.530
 4570TIP3    H213656   7.142   4.680   6.404
 4571TIP3   OH213657   3.911   3.328   0.785
 4571TIP3    H113658   3.877   3.249   0.829
 4571TIP3    H213659   3.940   3.385   0.856
 4572TIP3   OH213660   3.072   4.312   0.078
 4572TIP3    H113661   3.119   4.286   0.158
 4572TIP3    H213662   3.140   4.316   0.011
 4573TIP3   OH213663   4.196   3.546   4.898
 4573TIP3    H113664   4.204   3.573   4.989
 4573TIP3    H213665   4.108   3.575   4.872
 4574TIP3   OH213666   5.121   4.288   3.027
 4574TIP3    H113667   5.192   4.331   2.980
 4574TIP3    H213668   5.069   4.359   3.062
 4575TIP3   OH213669   6.744   2.095   1.781
 4575TIP3    H113670   6.779   2.057   1.861
 4575TIP3    H213671   6.729   2.020   1.724
 4576TIP3   OH213672   3.040   4.931   4.386
 4576TIP3    H113673   3.013   4.994   4.319
 4576TIP3    H213674   3.129   4.904   4.359
 4577TIP3   OH213675   2.661   0.721   4.200
 4577TIP3    H113676   2.605   0.643   4.199
 4577TIP3    H213677   2.600   0.795   4.203
 4578TIP3   OH213678   0.100   7.552   0.566
 4578TIP3    H113679   0.085   7.605   0.488
 4578TIP3    H213680   0.052   7.597   0.636
 4579TIP3   OH213681   6.061   1.038   0.072
 4579TIP3    H113682   6.031   1.063  -0.016
 4579TIP3    H213683   5.981   1.039   0.125
 4580TIP3   OH213684   3.758   3.689   5.742
 4580TIP3    H113685   3.696   3.750   5.783
 4580TIP3    H213686   3.764   3.616   5.804
 4581TIP3   OH213687   7.983   0.257   3.284
 4581TIP3    H113688   7.949   0.337   3.325
 4581TIP3    H213689   7.910   0.225   3.231
 4582TIP3   OH213690   7.995   1.574   1.562
 4582TIP3    H113691   7.921   1.618   1.519
 4582TIP3    H213692   8.012   1.497   1.508
 4583TIP3   OH213693   6.712   1.652   6.603
 4583TIP3    H113694   6.744   1.563   6.594
 4583TIP3    H213695   6.671   1.655   6.689
 4584TIP3   OH213696   0.563   1.525   1.424
 4584TIP3    H113697   0.500   1.592   1.449
 4584TIP3    H213698   0.516   1.470   1.361
 4585TIP3   OH213699   7.868   6.576   1.269
 4585TIP3    H113700   7.914   6.529   1.199
 4585TIP3    H213701   7.908   6.663   1.270
 4586TIP3   OH213702   5.341   0.009   6.626
 4586TIP3    H113703   5.395   0.053   6.561
 4586TIP3    H213704   5.259  -0.010   6.579
 4587TIP3   OH213705   3.812   7.159   1.566
 4587TIP3    H113706   3.892   7.147   1.616
 4587TIP3    H213707   3.745   7.179   1.632
 4588TIP3   OH213708   1.103   4.042   4.942
 4588TIP3    H113709   1.093   4.008   4.854
 4588TIP3    H213710   1.188   4.009   4.972
 4589TIP3   OH213711   6.128   6.047   2.038
 4589TIP3    H113712   6.117   5.975   2.100
 4589TIP3    H213713   6.115   6.126   2.091
 4590TIP3   OH213714   6.045   3.880   0.896
 4590TIP3    H113715   5.996   3.863   0.976
 4590TIP3    H213716   6.087   3.796   0.875
 4591TIP3   OH213717   4.894   4.127   3.097
 4591TIP3    H113718   4.988   4.110   3.107
 4591TIP3    H213719   4.854   4.041   3.106
 4592TIP3   OH213720   0.540   4.350   1.417
 4592TIP3    H113721   0.592   4.280   1.456
 4592TIP3    H213722   0.454   4.341   1.456
 4593TIP3   OH213723   7.847   5.439   4.609
 4593TIP3    H113724   7.900   5.462   4.533
 4593TIP3    H213725   7.896   5.475   4.683
 4594TIP3   OH213726   3.161   3.408   2.199
 4594TIP3    H113727   3.196   3.484   2.154
 4594TIP3    H213728   3.074   3.434   2.229
 4595TIP3   OH213729   1.872   7.381   5.371
 4595TIP3    H113730   1.828   7.436   5.306
 4595TIP3    H213731   1.943   7.339   5.322
 4596TIP3   OH213732   2.320   4.171   1.226
 4596TIP3    H113733   2.386   4.181   1.294
 4596TIP3    H213734   2.321   4.077   1.205
 4597TIP3   OH213735   6.779   4.763   4.538
 4597TIP3    H113736   6.760   4.670   4.530
 4597TIP3    H213737   6.872   4.767   4.561
 4598TIP3   OH213738   4.843   1.073   0.869
 4598TIP3    H113739   4.755   1.061   0.834
 4598TIP3    H213740   4.834   1.057   0.963
 4599TIP3   OH213741   1.974   4.372   4.568
 4599TIP3    H113742   1.906   4.371   4.635
 4599TIP3    H213743   1.996   4.279   4.556
 4600TIP3   OH213744   0.388   1.931   0.801
 4600TIP3    H113745   0.401   2.022   0.827
 4600TIP3    H213746   0.467   1.886   0.829
 4601TIP3   OH213747   3.750   0.233   2.419
 4601TIP3    H113748   3.808   0.305   2.443
 4601TIP3    H213749   3.791   0.156   2.459
 4602TIP3   OH213750   5.618   0.221   2.901
 4602TIP3    H113751   5.537   0.249   2.945
 4602TIP3    H213752   5.610   0.257   2.812
 4603TIP3   OH213753   3.059   1.499   1.391
 4603TIP3    H113754   3.135   1.452   1.426
 4603TIP3    H213755   3.060   1.584   1.437
 4604TIP3   OH213756   7.939   1.721   1.294
 4604TIP3    H113757   7.989   1.795   1.258
 4604TIP3    H213758   7.934   1.659   1.221
 4605TIP3   OH213759   1.806   1.340   5.855
 4605TIP3    H113760   1.875   1.320   5.791
 4605TIP3    H213761   1.795   1.258   5.903
 4606TIP3   OH213762   6.009   4.649   0.150
 4606TIP3    H113763   6.030   4.558   0.128
 4606TIP3    H213764   5.929   4.644   0.203
 4607TIP3   OH213765   2.364   6.719   2.440
 4607TIP3    H113766   2.421   6.644   2.460
 4607TIP3    H213767   2.294   6.682   2.386
 4608TIP3   OH213768   6.036   3.287   1.539
 4608TIP3    H113769   5.973   3.243   1.595
 4608TIP3    H213770   6.108   3.312   1.598
 4609TIP3   OH213771   1.489   3.305   0.343
 4609TIP3    H113772   1.401   3.330   0.370
 4609TIP3    H213773   1.510   3.229   0.397
 4610TIP3   OH213774   3.776   3.302   1.434
 4610TIP3    H113775   3.825   3.360   1.493
 4610TIP3    H213776   3.714   3.360   1.389
 4611TIP3   OH213777   4.532   5.760   3.867
 4611TIP3    H113778   4.467   5.775   3.798
 4611TIP3    H213779   4.511   5.824   3.935
 4612TIP3   OH213780   1.584   0.700   3.577
 4612TIP3    H113781   1.590   0.759   3.501
 4612TIP3    H213782   1.646   0.630   3.556
 4613TIP3   OH213783   6.936   5.778   2.664
 4613TIP3    H113784   6.872   5.787   2.593
 4613TIP3    H213785   6.926   5.688   2.695
 4614TIP3   OH213786   1.328   5.230   1.563
 4614TIP3    H113787   1.314   5.176   1.642
 4614TIP3    H213788   1.393   5.295   1.589
 4615TIP3   OH213789   5.806   7.089   5.096
 4615TIP3    H113790   5.794   6.997   5.074
 4615TIP3    H213791   5.762   7.098   5.181
 4616TIP3   OH213792   3.830   4.035   0.930
 4616TIP3    H113793   3.748   3.999   0.963
 4616TIP3    H213794   3.885   3.958   0.914
 4617TIP3   OH213795   0.812   2.353   6.136
 4617TIP3    H113796   0.761   2.428   6.168
 4617TIP3    H213797   0.799   2.285   6.202
 4618TIP3   OH213798   4.257   3.563   0.188
 4618TIP3    H113799   4.169   3.546   0.155
 4618TIP3    H213800   4.255   3.655   0.216
 4619TIP3   OH213801   1.310   1.850   3.227
 4619TIP3    H113802   1.308   1.833   3.133
 4619TIP3    H213803   1.402   1.841   3.252
 4620TIP3   OH213804   7.737   7.574   6.809
 4620TIP3    H113805   7.732   7.522   6.728
 4620TIP3    H213806   7.646   7.595   6.829
 4621TIP3   OH213807   6.561   1.038   4.494
 4621TIP3    H113808   6.525   0.971   4.435
 4621TIP3    H213809   6.655   1.034   4.479
 4622TIP3   OH213810   0.105   6.252   1.581
 4622TIP3    H113811   0.108   6.190   1.654
 4622TIP3    H213812   0.104   6.197   1.502
 4623TIP3   OH213813   1.307   1.719   3.743
 4623TIP3    H113814   1.390   1.757   3.773
 4623TIP3    H213815   1.251   1.721   3.820
 4624TIP3   OH213816   3.772   0.680   6.308
 4624TIP3    H113817   3.733   0.757   6.349
 4624TIP3    H213818   3.699   0.622   6.290
 4625TIP3   OH213819   6.733   0.143   2.693
 4625TIP3    H113820   6.719   0.119   2.601
 4625TIP3    H213821   6.810   0.093   2.719
 4626TIP3   OH213822   2.388   5.387   2.267
 4626TIP3    H113823   2.411   5.414   2.357
 4626TIP3    H213824   2.410   5.294   2.264
 4627TIP3   OH213825   1.375   7.394   4.721
 4627TIP3    H113826   1.393   7.381   4.814
 4627TIP3    H213827   1.458   7.424   4.684
 4628TIP3   OH213828   0.175   7.807   6.096
 4628TIP3    H113829   0.211   7.729   6.052
 4628TIP3    H213830   0.119   7.848   6.031
 4629TIP3   OH213831   2.757   4.313   0.107
 4629TIP3    H113832   2.847   4.283   0.098
 4629TIP3    H213833   2.704   4.246   0.065
 4630TIP3   OH213834   8.179   6.498   5.479
 4630TIP3    H113835   8.237   6.484   5.404
 4630TIP3    H213836   8.112   6.430   5.471
 4631TIP3   OH213837   2.644   7.047   6.115
 4631TIP3    H113838   2.715   7.108   6.095
 4631TIP3    H213839   2.567   7.084   6.072
 4632TIP3   OH213840   3.851   3.982   3.709
 4632TIP3    H113841   3.776   4.033   3.678
 4632TIP3    H213842   3.815   3.923   3.775
 4633TIP3   OH213843   0.108   3.437   1.164
 4633TIP3    H113844   0.031   3.382   1.145
 4633TIP3    H213845   0.156   3.439   1.081
 4634TIP3   OH213846   2.773   4.200   5.158
 4634TIP3    H113847   2.681   4.224   5.172
 4634TIP3    H213848   2.789   4.218   5.066
 4635TIP3   OH213849   3.528   3.815   5.500
 4635TIP3    H113850   3.483   3.807   5.584
 4635TIP3    H213851   3.618   3.839   5.522
 4636TIP3   OH213852   2.040   0.397   2.224
 4636TIP3    H113853   2.060   0.324   2.164
 4636TIP3    H213854   2.028   0.472   2.166
 4637TIP3   OH213855   0.177   1.894   2.478
 4637TIP3    H113856   0.207   1.831   2.543
 4637TIP3    H213857   0.152   1.841   2.402
 4638TIP3   OH213858   7.814   4.218   4.767
 4638TIP3    H113859   7.744   4.177   4.818
 4638TIP3    H213860   7.771   4.293   4.726
 4639TIP3   OH213861   0.833   4.857   1.579
 4639TIP3    H113862   0.805   4.786   1.522
 4639TIP3    H213863   0.924   4.873   1.553
 4640TIP3   OH213864   1.586   6.296   5.806
 4640TIP3    H113865   1.551   6.239   5.738
 4640TIP3    H213866   1.536   6.377   5.796
 4641TIP3   OH213867   8.235   2.255   5.809
 4641TIP3    H113868   8.311   2.230   5.861
 4641TIP3    H213869   8.160   2.233   5.864
 4642TIP3   OH213870   7.751   6.131   2.758
 4642TIP3    H113871   7.663   6.092   2.761
 4642TIP3    H213872   7.807   6.063   2.721
 4643TIP3   OH213873   1.213   4.194   0.616
 4643TIP3    H113874   1.187   4.273   0.570
 4643TIP3    H213875   1.265   4.225   0.690
 4644TIP3   OH213876   1.801   1.226   6.208
 4644TIP3    H113877   1.885   1.260   6.241
 4644TIP3    H213878   1.821   1.197   6.119
 4645TIP3   OH213879   5.161   6.574   1.400
 4645TIP3    H113880   5.121   6.643   1.347
 4645TIP3    H213881   5.203   6.516   1.336
 4646TIP3   OH213882   6.528   6.356   6.602
 4646TIP3    H113883   6.564   6.335   6.688
 4646TIP3    H213884   6.544   6.450   6.593
 4647TIP3   OH213885   4.158   0.822   1.089
 4647TIP3    H113886   4.191   0.911   1.103
 4647TIP3    H213887   4.214   0.767   1.144
 4648TIP3   OH213888   0.065   5.004   5.993
 4648TIP3    H113889   0.081   5.068   5.923
 4648TIP3    H213890  -0.027   5.017   6.016
 4649TIP3   OH213891   6.208   0.332   1.424
 4649TIP3    H113892   6.121   0.316   1.388
 4649TIP3    H213893   6.216   0.268   1.496
 4650TIP3   OH213894   8.231   5.170   1.461
 4650TIP3    H113895   8.197   5.209   1.542
 4650TIP3    H213896   8.227   5.242   1.397
 4651TIP3   OH213897   1.724   1.442   1.597
 4651TIP3    H113898   1.771   1.442   1.514
 4651TIP3    H213899   1.789   1.419   1.663
 4652TIP3   OH213900   0.567   7.223   3.051
 4652TIP3    H113901   0.547   7.278   2.975
 4652TIP3    H213902   0.658   7.198   3.039
 4653TIP3   OH213903   5.146   4.829   6.373
 4653TIP3    H113904   5.217   4.809   6.312
 4653TIP3    H213905   5.146   4.925   6.379
 4654TIP3   OH213906   6.775   1.707   2.029
 4654TIP3    H113907   6.714   1.654   2.079
 4654TIP3    H213908   6.725   1.735   1.952
 4655TIP3   OH213909   3.611   1.228   6.576
 4655TIP3    H113910   3.523   1.239   6.611
 4655TIP3    H213911   3.669   1.247   6.649
 4656TIP3   OH213912   1.402   2.571   3.967
 4656TIP3    H113913   1.384   2.532   3.881
 4656TIP3    H213914   1.483   2.527   3.996
 4657TIP3   OH213915   4.056   3.039   4.667
 4657TIP3    H113916   4.047   3.045   4.572
 4657TIP3    H213917   3.988   3.098   4.701
 4658TIP3   OH213918   5.132   6.667   6.648
 4658TIP3    H113919   5.189   6.699   6.718
 4658TIP3    H213920   5.043   6.687   6.678
 4659TIP3   OH213921   4.695   5.179   3.920
 4659TIP3    H113922   4.667   5.237   3.990
 4659TIP3    H213923   4.779   5.214   3.891
 4660TIP3   OH213924   6.303   4.522   4.932
 4660TIP3    H113925   6.350   4.469   4.868
 4660TIP3    H213926   6.269   4.459   4.996
 4661TIP3   OH213927   6.100   0.570   4.883
 4661TIP3    H113928   6.070   0.612   4.802
 4661TIP3    H213929   6.159   0.501   4.853
 4662TIP3   OH213930   4.482   6.680   2.223
 4662TIP3    H113931   4.529   6.694   2.140
 4662TIP3    H213932   4.525   6.603   2.262
 4663TIP3   OH213933   2.763   3.673   1.195
 4663TIP3    H113934   2.681   3.720   1.210
 4663TIP3    H213935   2.815   3.690   1.274
 4664TIP3   OH213936   0.371   1.707   4.643
 4664TIP3    H113937   0.454   1.721   4.598
 4664TIP3    H213938   0.353   1.789   4.689
 4665TIP3   OH213939   6.311   5.734   4.480
 4665TIP3    H113940   6.304   5.639   4.490
 4665TIP3    H213941   6.405   5.751   4.470
 4666TIP3   OH213942   4.052   5.268   5.664
 4666TIP3    H113943   4.073   5.356   5.632
 4666TIP3    H213944   3.970   5.277   5.711
 4667TIP3   OH213945   2.492   2.914   0.968
 4667TIP3    H113946   2.560   2.981   0.959
 4667TIP3    H213947   2.414   2.954   0.931
 4668TIP3   OH213948   0.000   0.161   1.923
 4668TIP3    H113949  -0.058   0.174   1.997
 4668TIP3    H213950   0.046   0.079   1.943
 4669TIP3   OH213951   7.437   4.621   4.643
 4669TIP3    H113952   7.371   4.682   4.609
 4669TIP3    H213953   7.390   4.571   4.711
 4670TIP3   OH213954   3.342   2.019   2.154
 4670TIP3    H113955   3.408   1.949   2.153
 4670TIP3    H213956   3.315   2.024   2.246
 4671TIP3   OH213957   6.898   3.856   5.718
 4671TIP3    H113958   6.940   3.774   5.693
 4671TIP3    H213959   6.845   3.834   5.794
 4672TIP3   OH213960   6.918   2.527   5.091
 4672TIP3    H113961   6.919   2.587   5.017
 4672TIP3    H213962   6.984   2.562   5.152
 4673TIP3   OH213963   2.103   5.648   1.205
 4673TIP3    H113964   2.029   5.605   1.162
 4673TIP3    H213965   2.066   5.729   1.241
 4674TIP3   OH213966   3.793   7.595   1.530
 4674TIP3    H113967   3.846   7.530   1.483
 4674TIP3    H213968   3.764   7.656   1.462
 4675TIP3   OH213969   2.479   5.691   1.527
 4675TIP3    H113970   2.563   5.661   1.492
 4675TIP3    H213971   2.415   5.628   1.494
 4676TIP3   OH213972   2.101   0.828   2.934
 4676TIP3    H113973   2.057   0.792   2.858
 4676TIP3    H213974   2.030   0.864   2.987
 4677TIP3   OH213975   5.367   3.464   3.048
 4677TIP3    H113976   5.304   3.511   2.994
 4677TIP3    H213977   5.390   3.387   2.996
 4678TIP3   OH213978   7.763   1.754   4.852
 4678TIP3    H113979   7.786   1.661   4.862
 4678TIP3    H213980   7.841   1.794   4.814
 4679TIP3   OH213981   3.929   2.983   3.611
 4679TIP3    H113982   3.874   2.946   3.681
 4679TIP3    H213983   3.883   2.962   3.530
 4680TIP3   OH213984   6.503   0.720   6.069
 4680TIP3    H113985   6.445   0.709   6.144
 4680TIP3    H213986   6.556   0.797   6.091
 4681TIP3   OH213987   3.255   6.530   2.377
 4681TIP3    H113988   3.330   6.486   2.417
 4681TIP3    H213989   3.293   6.582   2.305
 4682TIP3   OH213990   2.427   3.735   3.129
 4682TIP3    H113991   2.423   3.767   3.039
 4682TIP3    H213992   2.464   3.808   3.179
 4683TIP3   OH213993   6.266   7.243   4.287
 4683TIP3    H113994   6.341   7.288   4.249
 4683TIP3    H213995   6.305   7.173   4.340
 4684TIP3   OH213996   1.831   0.471   5.708
 4684TIP3    H113997   1.749   0.442   5.667
 4684TIP3    H213998   1.897   0.410   5.677
 4685TIP3   OH213999   2.736   5.868   0.007
 4685TIP3    H114000   2.706   5.958  -0.001
 4685TIP3    H214001   2.803   5.858  -0.060
 4686TIP3   OH214002   4.496   1.126   4.783
 4686TIP3    H114003   4.453   1.185   4.846
 4686TIP3    H214004   4.529   1.054   4.837
 4687TIP3   OH214005   7.703   5.460   5.594
 4687TIP3    H114006   7.629   5.426   5.543
 4687TIP3    H214007   7.722   5.393   5.659
 4688TIP3   OH214008   5.483   5.446   0.346
 4688TIP3    H114009   5.428   5.442   0.268
 4688TIP3    H214010   5.527   5.361   0.349
 4689TIP3   OH214011   1.929   2.608   1.249
 4689TIP3    H114012   2.018   2.629   1.277
 4689TIP3    H214013   1.920   2.652   1.164
 4690TIP3   OH214014   3.669   6.680   5.057
 4690TIP3    H114015   3.583   6.696   5.096
 4690TIP3    H214016   3.649   6.640   4.972
 4691TIP3   OH214017   3.287   1.377   3.418
 4691TIP3    H114018   3.313   1.453   3.366
 4691TIP3    H214019   3.367   1.352   3.466
 4692TIP3   OH214020   2.788   6.522   5.142
 4692TIP3    H114021   2.867   6.550   5.189
 4692TIP3    H214022   2.813   6.441   5.099
 4693TIP3   OH214023   7.804   7.784   5.397
 4693TIP3    H114024   7.775   7.746   5.480
 4693TIP3    H214025   7.898   7.766   5.394
 4694TIP3   OH214026   6.530   4.196   0.818
 4694TIP3    H114027   6.592   4.256   0.860
 4694TIP3    H214028   6.531   4.117   0.873
 4695TIP3   OH214029   3.437   2.323   2.696
 4695TIP3    H114030   3.505   2.313   2.630
 4695TIP3    H214031   3.431   2.237   2.738
 4696TIP3   OH214032   7.919   2.509   3.781
 4696TIP3    H114033   7.905   2.541   3.693
 4696TIP3    H214034   7.879   2.422   3.782
 4697TIP3   OH214035   6.027   4.225   2.359
 4697TIP3    H114036   6.057   4.170   2.287
 4697TIP3    H214037   6.011   4.310   2.318
 4698TIP3   OH214038   2.434   3.244   2.322
 4698TIP3    H114039   2.465   3.177   2.382
 4698TIP3    H214040   2.372   3.198   2.265
 4699TIP3   OH214041   1.064   0.193   4.000
 4699TIP3    H114042   0.969   0.187   4.008
 4699TIP3    H214043   1.098   0.172   4.087
 4700TIP3   OH214044   7.602   7.108   5.543
 4700TIP3    H114045   7.693   7.081   5.553
 4700TIP3    H214046   7.605   7.203   5.543
 4701TIP3   OH214047   4.092   4.154   5.714
 4701TIP3    H114048   4.046   4.148   5.797
 4701TIP3    H214049   4.171   4.204   5.734
 4702TIP3   OH214050   0.436   5.773   1.265
 4702TIP3    H114051   0.465   5.774   1.174
 4702TIP3    H214052   0.346   5.740   1.261
 4703TIP3   OH214053   3.009   3.135   3.246
 4703TIP3    H114054   2.963   3.217   3.264
 4703TIP3    H214055   3.004   3.086   3.328
 4704TIP3   OH214056   5.293   3.491   3.308
 4704TIP3    H114057   5.356   3.554   3.343
 4704TIP3    H214058   5.323   3.473   3.219
 4705TIP3   OH214059   3.062   1.963   5.861
 4705TIP3    H114060   3.129   1.895   5.868
 4705TIP3    H214061   2.994   1.937   5.923
 4706TIP3   OH214062   1.529   7.830   6.623
 4706TIP3    H114063   1.624   7.839   6.625
 4706TIP3    H214064   1.510   7.758   6.684
 4707TIP3   OH214065   2.940   1.171   2.918
 4707TIP3    H114066   2.844   1.173   2.923
 4707TIP3    H214067   2.961   1.217   2.837
 4708TIP3   OH214068   7.398   4.171   3.815
 4708TIP3    H114069   7.454   4.226   3.760
 4708TIP3    H214070   7.459   4.130   3.877
 4709TIP3   OH214071   0.087   1.449   0.525
 4709TIP3    H114072   0.120   1.408   0.445
 4709TIP3    H214073  -0.008   1.453   0.512
 4710TIP3   OH214074   5.372   5.574   6.050
 4710TIP3    H114075   5.291   5.584   6.100
 4710TIP3    H214076   5.430   5.643   6.084
 4711TIP3   OH214077   3.906   2.085   2.061
 4711TIP3    H114078   3.892   2.175   2.032
 4711TIP3    H214079   3.986   2.089   2.113
 4712TIP3   OH214080   3.069   6.314   2.237
 4712TIP3    H114081   3.061   6.384   2.172
 4712TIP3    H214082   3.036   6.236   2.191
 4713TIP3   OH214083   6.318   6.208   1.389
 4713TIP3    H114084   6.336   6.297   1.421
 4713TIP3    H214085   6.229   6.212   1.356
 4714TIP3   OH214086   0.156   1.577   4.518
 4714TIP3    H114087   0.201   1.493   4.531
 4714TIP3    H214088   0.201   1.638   4.576
 4715TIP3   OH214089   7.666   7.693   5.181
 4715TIP3    H114090   7.720   7.692   5.260
 4715TIP3    H214091   7.642   7.601   5.167
 4716TIP3   OH214092   4.440   3.374   1.889
 4716TIP3    H114093   4.490   3.393   1.809
 4716TIP3    H214094   4.349   3.390   1.864
 4717TIP3   OH214095   2.927   5.500   4.666
 4717TIP3    H114096   2.886   5.418   4.640
 4717TIP3    H214097   2.920   5.556   4.589
 4718TIP3   OH214098   0.292   3.154   5.436
 4718TIP3    H114099   0.249   3.077   5.400
 4718TIP3    H214100   0.260   3.160   5.526
 4719TIP3   OH214101   0.311   1.981   4.729
 4719TIP3    H114102   0.327   1.990   4.823
 4719TIP3    H214103   0.289   2.069   4.700
 4720TIP3   OH214104   5.789   3.301   2.768
 4720TIP3    H114105   5.810   3.357   2.693
 4720TIP3    H214106   5.847   3.332   2.838
 4721TIP3   OH214107   2.061   7.280   3.573
 4721TIP3    H114108   2.081   7.202   3.521
 4721TIP3    H214109   2.039   7.347   3.508
 4722TIP3   OH214110   4.820   7.659   0.920
 4722TIP3    H114111   4.737   7.623   0.949
 4722TIP3    H214112   4.835   7.619   0.834
 4723TIP3   OH214113   2.677   3.108   0.905
 4723TIP3    H114114   2.700   3.160   0.828
 4723TIP3    H214115   2.745   3.129   0.969
 4724TIP3   OH214116   1.731   4.873   4.760
 4724TIP3    H114117   1.826   4.885   4.769
 4724TIP3    H214118   1.705   4.940   4.696
 4725TIP3   OH214119   8.229   4.583   4.244
 4725TIP3    H114120   8.226   4.651   4.312
 4725TIP3    H214121   8.150   4.598   4.192
 4726TIP3   OH214122   0.854   7.560   2.966
 4726TIP3    H114123   0.872   7.580   2.874
 4726TIP3    H214124   0.830   7.467   2.965
 4727TIP3   OH214125   6.513   1.104   1.680
 4727TIP3    H114126   6.480   1.040   1.617
 4727TIP3    H214127   6.605   1.116   1.657
 4728TIP3   OH214128   2.086   0.160   5.286
 4728TIP3    H114129   2.158   0.101   5.305
 4728TIP3    H214130   2.008   0.115   5.318
 4729TIP3   OH214131   8.271   6.409   1.015
 4729TIP3    H114132   8.315   6.397   0.931
 4729TIP3    H214133   8.328   6.367   1.079
 4730TIP3   OH214134   1.982   1.593   5.221
 4730TIP3    H114135   2.003   1.684   5.202
 4730TIP3    H214136   2.030   1.573   5.302
 4731TIP3   OH214137   0.964   3.104   0.981
 4731TIP3    H114138   1.054   3.137   0.988
 4731TIP3    H214139   0.909   3.179   1.002
 4732TIP3   OH214140   1.704   7.813   1.764
 4732TIP3    H114141   1.799   7.825   1.770
 4732TIP3    H214142   1.692   7.744   1.699
 4733TIP3   OH214143   1.165   5.136   0.674
 4733TIP3    H114144   1.079   5.117   0.636
 4733TIP3    H214145   1.212   5.052   0.669
 4734TIP3   OH214146   3.301   7.032   4.864
 4734TIP3    H114147   3.357   7.108   4.848
 4734TIP3    H214148   3.224   7.047   4.809
 4735TIP3   OH214149   4.528   5.757   1.643
 4735TIP3    H114150   4.478   5.713   1.574
 4735TIP3    H214151   4.564   5.835   1.601
 4736TIP3   OH214152   5.064   6.315   1.925
 4736TIP3    H114153   5.087   6.262   1.848
 4736TIP3    H214154   5.115   6.277   1.996
 4737TIP3   OH214155   1.852   0.749   6.268
 4737TIP3    H114156   1.851   0.842   6.290
 4737TIP3    H214157   1.898   0.708   6.341
 4738TIP3   OH214158   0.299   3.904   0.271
 4738TIP3    H114159   0.270   3.819   0.237
 4738TIP3    H214160   0.218   3.951   0.288
 4739TIP3   OH214161   3.735   7.317   2.301
 4739TIP3    H114162   3.727   7.316   2.396
 4739TIP3    H214163   3.649   7.290   2.269
 4740TIP3   OH214164   0.173   6.043   2.303
 4740TIP3    H114165   0.209   5.954   2.303
 4740TIP3    H214166   0.083   6.032   2.335
 4741TIP3   OH214167   7.415   3.757   4.274
 4741TIP3    H114168   7.341   3.697   4.276
 4741TIP3    H214169   7.443   3.757   4.182
 4742TIP3   OH214170   4.313   4.210   0.281
 4742TIP3    H114171   4.343   4.126   0.316
 4742TIP3    H214172   4.230   4.189   0.238
 4743TIP3   OH214173   6.225   2.224   2.703
 4743TIP3    H114174   6.231   2.256   2.613
 4743TIP3    H214175   6.306   2.253   2.744
 4744TIP3   OH214176   0.738   5.517   4.074
 4744TIP3    H114177   0.695   5.439   4.037
 4744TIP3    H214178   0.667   5.567   4.114
 4745TIP3   OH214179   0.764   6.709   2.656
 4745TIP3    H114180   0.767   6.618   2.686
 4745TIP3    H214181   0.677   6.740   2.682
 4746TIP3   OH214182   0.512   2.369   3.460
 4746TIP3    H114183   0.574   2.300   3.440
 4746TIP3    H214184   0.513   2.426   3.383
 4747TIP3   OH214185   1.057   5.749   1.906
 4747TIP3    H114186   1.133   5.790   1.865
 4747TIP3    H214187   1.045   5.667   1.857
 4748TIP3   OH214188   5.394   7.487   6.524
 4748TIP3    H114189   5.304   7.517   6.528
 4748TIP3    H214190   5.394   7.418   6.458
 4749TIP3   OH214191   2.463   3.986   0.814
 4749TIP3    H114192   2.383   4.038   0.823
 4749TIP3    H214193   2.521   4.018   0.883
 4750TIP3   OH214194   1.713   1.745   5.424
 4750TIP3    H114195   1.718   1.767   5.517
 4750TIP3    H214196   1.719   1.650   5.421
 4751TIP3   OH214197   3.637   7.624   3.819
 4751TIP3    H114198   3.621   7.710   3.779
 4751TIP3    H214199   3.701   7.583   3.761
 4752TIP3   OH214200   0.740   5.646   3.159
 4752TIP3    H114201   0.752   5.724   3.214
 4752TIP3    H214202   0.706   5.580   3.220
 4753TIP3   OH214203   3.412   7.148   0.542
 4753TIP3    H114204   3.360   7.073   0.516
 4753TIP3    H214205   3.359   7.193   0.608
 4754TIP3   OH214206   2.849   1.926   6.492
 4754TIP3    H114207   2.855   1.962   6.580
 4754TIP3    H214208   2.882   1.996   6.435
 4755TIP3   OH214209   3.298   2.286   4.700
 4755TIP3    H114210   3.387   2.320   4.706
 4755TIP3    H214211   3.290   2.254   4.610
 4756TIP3   OH214212   5.431   6.487   4.857
 4756TIP3    H114213   5.481   6.480   4.938
 4756TIP3    H214214   5.351   6.533   4.883
 4757TIP3   OH214215   2.341   2.221   5.808
 4757TIP3    H114216   2.245   2.224   5.801
 4757TIP3    H214217   2.368   2.312   5.810
 4758TIP3   OH214218   3.737   7.267   3.694
 4758TIP3    H114219   3.666   7.330   3.680
 4758TIP3    H214220   3.693   7.183   3.702
 4759TIP3   OH214221   0.723   3.159   2.089
 4759TIP3    H114222   0.776   3.137   2.012
 4759TIP3    H214223   0.697   3.250   2.074
 4760TIP3   OH214224   6.537   4.889   4.440
 4760TIP3    H114225   6.627   4.867   4.463
 4760TIP3    H214226   6.484   4.820   4.480
 4761TIP3   OH214227   3.500   7.081   5.047
 4761TIP3    H114228   3.576   7.058   4.993
 4761TIP3    H214229   3.425   7.043   5.001
 4762TIP3   OH214230   6.422   5.019   0.525
 4762TIP3    H114231   6.462   4.944   0.569
 4762TIP3    H214232   6.425   4.997   0.432
 4763TIP3   OH214233   3.676   0.942   0.108
 4763TIP3    H114234   3.694   1.034   0.091
 4763TIP3    H214235   3.595   0.924   0.060
 4764TIP3   OH214236   5.383   4.018   4.247
 4764TIP3    H114237   5.347   4.103   4.272
 4764TIP3    H214238   5.344   3.956   4.309
 4765TIP3   OH214239   6.278   5.799   5.472
 4765TIP3    H114240   6.365   5.781   5.437
 4765TIP3    H214241   6.289   5.796   5.567
 4766TIP3   OH214242   0.760   4.606   2.251
 4766TIP3    H114243   0.746   4.691   2.210
 4766TIP3    H214244   0.687   4.552   2.221
 4767TIP3   OH214245   7.840   3.089   5.994
 4767TIP3    H114246   7.905   3.159   5.989
 4767TIP3    H214247   7.800   3.100   6.080
 4768TIP3   OH214248   7.959   0.464   5.976
 4768TIP3    H114249   7.954   0.381   5.929
 4768TIP3    H214250   7.930   0.443   6.065
 4769TIP3   OH214251   0.487   7.445   4.566
 4769TIP3    H114252   0.465   7.413   4.654
 4769TIP3    H214253   0.527   7.531   4.581
 4770TIP3   OH214254   2.272   2.775   3.087
 4770TIP3    H114255   2.179   2.771   3.065
 4770TIP3    H214256   2.275   2.821   3.171
 4771TIP3   OH214257   4.550   7.441   0.379
 4771TIP3    H114258   4.580   7.524   0.343
 4771TIP3    H214259   4.575   7.376   0.314
 4772TIP3   OH214260   3.868   6.893   1.709
 4772TIP3    H114261   3.866   6.925   1.619
 4772TIP3    H214262   3.783   6.852   1.723
 4773TIP3   OH214263   3.782   4.458   4.990
 4773TIP3    H114264   3.850   4.492   4.932
 4773TIP3    H214265   3.827   4.439   5.072
 4774TIP3   OH214266   7.101   2.456   6.147
 4774TIP3    H114267   7.130   2.484   6.234
 4774TIP3    H214268   7.169   2.488   6.088
 4775TIP3   OH214269   3.043   6.457   2.882
 4775TIP3    H114270   3.034   6.551   2.897
 4775TIP3    H214271   3.003   6.416   2.959
 4776TIP3   OH214272   3.060   6.499   5.550
 4776TIP3    H114273   3.146   6.458   5.536
 4776TIP3    H214274   3.075   6.592   5.532
 4777TIP3   OH214275   3.353   5.601   2.641
 4777TIP3    H114276   3.419   5.572   2.578
 4777TIP3    H214277   3.403   5.644   2.710
 4778TIP3   OH214278   5.382   6.900   5.563
 4778TIP3    H114279   5.396   6.941   5.477
 4778TIP3    H214280   5.470   6.886   5.598
 4779TIP3   OH214281   1.153   5.541   1.356
 4779TIP3    H114282   1.073   5.581   1.392
 4779TIP3    H214283   1.153   5.565   1.264
 4780TIP3   OH214284   1.472   0.067   6.558
 4780TIP3    H114285   1.428   0.150   6.540
 4780TIP3    H214286   1.437   0.007   6.492
 4781TIP3   OH214287   2.587   6.724   4.430
 4781TIP3    H114288   2.620   6.763   4.511
 4781TIP3    H214289   2.582   6.797   4.369
 4782TIP3   OH214290   2.869   7.055   1.358
 4782TIP3    H114291   2.840   7.145   1.345
 4782TIP3    H214292   2.931   7.060   1.431
 4783TIP3   OH214293   0.809   2.288   4.122
 4783TIP3    H114294   0.786   2.306   4.214
 4783TIP3    H214295   0.797   2.193   4.113
 4784TIP3   OH214296   1.860   3.405   0.810
 4784TIP3    H114297   1.878   3.400   0.903
 4784TIP3    H214298   1.858   3.314   0.780
 4785TIP3   OH214299   0.685   3.497   3.942
 4785TIP3    H114300   0.594   3.475   3.961
 4785TIP3    H214301   0.731   3.413   3.943
 4786TIP3   OH214302   7.004   0.995   6.455
 4786TIP3    H114303   7.089   0.987   6.498
 4786TIP3    H214304   6.941   1.000   6.527
 4787TIP3   OH214305   2.707   1.251   1.961
 4787TIP3    H114306   2.689   1.344   1.946
 4787TIP3    H214307   2.657   1.230   2.040
 4788TIP3   OH214308   0.215   5.436   6.201
 4788TIP3    H114309   0.243   5.431   6.110
 4788TIP3    H214310   0.283   5.488   6.244
 4789TIP3   OH214311   6.294   3.688   1.526
 4789TIP3    H114312   6.302   3.780   1.550
 4789TIP3    H214313   6.200   3.674   1.515
 4790TIP3   OH214314   6.650   6.807   3.615
 4790TIP3    H114315   6.615   6.876   3.672
 4790TIP3    H214316   6.735   6.840   3.587
 4791TIP3   OH214317   5.543   2.037   6.589
 4791TIP3    H114318   5.526   1.943   6.597
 4791TIP3    H214319   5.575   2.063   6.675
 4792TIP3   OH214320   3.308   3.201   4.621
 4792TIP3    H114321   3.337   3.254   4.547
 4792TIP3    H214322   3.246   3.139   4.583
 4793TIP3   OH214323   4.418   5.085   2.825
 4793TIP3    H114324   4.488   5.124   2.773
 4793TIP3    H214325   4.375   5.023   2.766
 4794TIP3   OH214326   2.040   3.977   6.128
 4794TIP3    H114327   1.985   4.038   6.079
 4794TIP3    H214328   2.005   3.981   6.217
 4795TIP3   OH214329   6.137   0.551   1.582
 4795TIP3    H114330   6.161   0.497   1.507
 4795TIP3    H214331   6.122   0.488   1.653
 4796TIP3   OH214332   3.329   4.887   5.462
 4796TIP3    H114333   3.366   4.820   5.406
 4796TIP3    H214334   3.370   4.969   5.433
 4797TIP3   OH214335   7.275   6.562   2.045
 4797TIP3    H114336   7.182   6.582   2.039
 4797TIP3    H214337   7.318   6.634   2.000
 4798TIP3   OH214338   3.260   1.983   5.153
 4798TIP3    H114339   3.232   2.048   5.217
 4798TIP3    H214340   3.316   2.032   5.092
 4799TIP3   OH214341   4.279   6.362   0.607
 4799TIP3    H114342   4.302   6.368   0.700
 4799TIP3    H214343   4.198   6.311   0.606
 4800TIP3   OH214344   0.831   6.942   1.134
 4800TIP3    H114345   0.742   6.908   1.139
 4800TIP3    H214346   0.845   6.959   1.041
 4801TIP3   OH214347   4.150   6.511   0.062
 4801TIP3    H114348   4.241   6.493   0.085
 4801TIP3    H214349   4.106   6.426   0.073
 4802TIP3   OH214350   5.608   7.359   5.884
 4802TIP3    H114351   5.684   7.331   5.935
 4802TIP3    H214352   5.572   7.432   5.933
 4803TIP3   OH214353   6.789   1.248   6.570
 4803TIP3    H114354   6.793   1.214   6.659
 4803TIP3    H214355   6.858   1.314   6.566
 4804TIP3   OH214356   5.416   6.328   5.190
 4804TIP3    H114357   5.453   6.410   5.221
 4804TIP3    H214358   5.482   6.293   5.130
 4805TIP3   OH214359   5.070   6.138   4.977
 4805TIP3    H114360   5.115   6.155   4.894
 4805TIP3    H214361   4.977   6.145   4.955
 4806TIP3   OH214362   8.164   2.890   3.860
 4806TIP3    H114363   8.239   2.907   3.804
 4806TIP3    H214364   8.117   2.974   3.864
 4807TIP3   OH214365   8.201   7.297   6.554
 4807TIP3    H114366   8.287   7.260   6.576
 4807TIP3    H214367   8.189   7.369   6.616
 4808TIP3   OH214368   6.354   4.832   4.210
 4808TIP3    H114369   6.384   4.891   4.280
 4808TIP3    H214370   6.299   4.768   4.256
 4809TIP3   OH214371   4.721   5.564   5.664
 4809TIP3    H114372   4.716   5.553   5.759
 4809TIP3    H214373   4.798   5.513   5.637
 4810TIP3   OH214374   0.585   5.700   0.281
 4810TIP3    H114375   0.660   5.658   0.240
 4810TIP3    H214376   0.623   5.767   0.337
 4811TIP3   OH214377   4.333   2.174   1.166
 4811TIP3    H114378   4.238   2.175   1.177
 4811TIP3    H214379   4.360   2.087   1.199
 4812TIP3   OH214380   4.843   7.693   4.937
 4812TIP3    H114381   4.893   7.675   5.017
 4812TIP3    H214382   4.878   7.632   4.872
 4813TIP3   OH214383   0.162   5.923   0.358
 4813TIP3    H114384   0.251   5.923   0.323
 4813TIP3    H214385   0.108   5.962   0.290
 4814TIP3   OH214386   0.844   3.575   3.557
 4814TIP3    H114387   0.826   3.482   3.543
 4814TIP3    H214388   0.759   3.615   3.572
 4815TIP3   OH214389   6.236   7.782   5.370
 4815TIP3    H114390   6.235   7.687   5.379
 4815TIP3    H214391   6.164   7.813   5.425
 4816TIP3   OH214392   7.239   7.288   0.589
 4816TIP3    H114393   7.263   7.323   0.503
 4816TIP3    H214394   7.155   7.328   0.609
 4817TIP3   OH214395   1.988   1.512   3.276
 4817TIP3    H114396   1.900   1.535   3.245
 4817TIP3    H214397   1.983   1.520   3.371
 4818TIP3   OH214398   3.483   6.659   5.530
 4818TIP3    H114399   3.573   6.648   5.562
 4818TIP3    H214400   3.457   6.745   5.562
 4819TIP3   OH214401   6.911   0.112   0.885
 4819TIP3    H114402   6.865   0.192   0.860
 4819TIP3    H214403   6.844   0.057   0.925
 4820TIP3   OH214404   6.469   4.334   3.575
 4820TIP3    H114405   6.493   4.390   3.502
 4820TIP3    H214406   6.375   4.349   3.587
 4821TIP3   OH214407   6.012   5.003   6.564
 4821TIP3    H114408   6.020   4.908   6.566
 4821TIP3    H214409   5.921   5.021   6.589
 4822TIP3   OH214410   4.999   0.069   6.724
 4822TIP3    H114411   5.092   0.050   6.719
 4822TIP3    H214412   4.994   0.160   6.755
 4823TIP3   OH214413   5.765   1.199   5.001
 4823TIP3    H114414   5.830   1.165   5.062
 4823TIP3    H214415   5.784   1.292   4.994
 4824TIP3   OH214416   4.357   5.824   1.117
 4824TIP3    H114417   4.402   5.884   1.057
 4824TIP3    H214418   4.314   5.760   1.059
 4825TIP3   OH214419   1.741   2.357   0.490
 4825TIP3    H114420   1.676   2.362   0.421
 4825TIP3    H214421   1.790   2.277   0.470
 4826TIP3   OH214422   5.702   7.811   3.011
 4826TIP3    H114423   5.655   7.781   3.089
 4826TIP3    H214424   5.638   7.805   2.941
 4827TIP3   OH214425   3.647   6.278   2.110
 4827TIP3    H114426   3.686   6.218   2.047
 4827TIP3    H214427   3.572   6.316   2.064
 4828TIP3   OH214428   5.197   1.738   5.063
 4828TIP3    H114429   5.116   1.759   5.018
 4828TIP3    H214430   5.263   1.793   5.020
 4829TIP3   OH214431   8.143   2.865   1.802
 4829TIP3    H114432   8.069   2.909   1.760
 4829TIP3    H214433   8.196   2.935   1.838
 4830TIP3   OH214434   4.939   0.688   5.168
 4830TIP3    H114435   4.929   0.783   5.174
 4830TIP3    H214436   4.912   0.656   5.255
 4831TIP3   OH214437   3.524   3.518   4.208
 4831TIP3    H114438   3.497   3.591   4.264
 4831TIP3    H214439   3.619   3.515   4.217
 4832TIP3   OH214440   5.468   4.906   2.886
 4832TIP3    H114441   5.408   4.927   2.814
 4832TIP3    H214442   5.514   4.988   2.903
 4833TIP3   OH214443   1.930   1.484   3.558
 4833TIP3    H114444   1.862   1.451   3.617
 4833TIP3    H214445   2.008   1.436   3.583
 4834TIP3   OH214446   0.866   6.470   2.770
 4834TIP3    H114447   0.914   6.442   2.692
 4834TIP3    H214448   0.918   6.542   2.805
 4835TIP3   OH214449   2.875   6.880   0.523
 4835TIP3    H114450   2.822   6.830   0.586
 4835TIP3    H214451   2.917   6.948   0.576
 4836TIP3   OH214452   1.670   1.705   4.118
 4836TIP3    H114453   1.619   1.640   4.070
 4836TIP3    H214454   1.690   1.663   4.201
 4837TIP3   OH214455   5.659   4.444   6.646
 4837TIP3    H114456   5.641   4.497   6.724
 4837TIP3    H214457   5.687   4.508   6.580
 4838TIP3   OH214458   5.035   0.359   5.322
 4838TIP3    H114459   4.956   0.413   5.311
 4838TIP3    H214460   5.082   0.400   5.395
 4839TIP3   OH214461   0.819   6.286   2.447
 4839TIP3    H114462   0.775   6.345   2.508
 4839TIP3    H214463   0.760   6.212   2.438
 4840TIP3   OH214464   1.054   5.099   4.293
 4840TIP3    H114465   1.131   5.045   4.274
 4840TIP3    H214466   1.005   5.049   4.358
 4841TIP3   OH214467   8.120   2.939   6.638
 4841TIP3    H114468   8.212   2.929   6.616
 4841TIP3    H214469   8.119   2.996   6.715
 4842TIP3   OH214470   6.037   2.256   1.618
 4842TIP3    H114471   5.978   2.231   1.547
 4842TIP3    H214472   6.115   2.202   1.604
 4843TIP3   OH214473   7.140   7.303   1.207
 4843TIP3    H114474   7.051   7.329   1.232
 4843TIP3    H214475   7.157   7.224   1.259
 4844TIP3   OH214476   7.905   4.382   6.144
 4844TIP3    H114477   7.908   4.430   6.061
 4844TIP3    H214478   7.986   4.331   6.145
 4845TIP3   OH214479   6.876   1.445   4.362
 4845TIP3    H114480   6.796   1.400   4.333
 4845TIP3    H214481   6.924   1.378   4.410
 4846TIP3   OH214482   7.697   2.327   2.394
 4846TIP3    H114483   7.776   2.277   2.372
 4846TIP3    H214484   7.640   2.316   2.318
 4847TIP3   OH214485   4.363   3.842   2.348
 4847TIP3    H114486   4.406   3.905   2.405
 4847TIP3    H214487   4.431   3.815   2.286
 4848TIP3   OH214488   5.289   2.155   6.535
 4848TIP3    H114489   5.240   2.088   6.487
 4848TIP3    H214490   5.357   2.106   6.582
 4849TIP3   OH214491   2.914   3.959   5.481
 4849TIP3    H114492   2.866   3.933   5.402
 4849TIP3    H214493   2.846   3.976   5.546
 4850TIP3   OH214494   6.210   1.321   1.172
 4850TIP3    H114495   6.116   1.303   1.177
 4850TIP3    H214496   6.242   1.306   1.261
 4851TIP3   OH214497   2.845   5.491   0.819
 4851TIP3    H114498   2.917   5.447   0.865
 4851TIP3    H214499   2.867   5.584   0.824
 4852TIP3   OH214500   6.638   7.405   6.455
 4852TIP3    H114501   6.640   7.328   6.510
 4852TIP3    H214502   6.546   7.430   6.452
 4853TIP3   OH214503   0.650   2.606   6.676
 4853TIP3    H114504   0.729   2.630   6.724
 4853TIP3    H214505   0.578   2.636   6.731
 4854TIP3   OH214506   4.544   1.129   3.402
 4854TIP3    H114507   4.523   1.186   3.476
 4854TIP3    H214508   4.603   1.063   3.440
 4855TIP3   OH214509   4.094   4.469   6.160
 4855TIP3    H114510   4.136   4.554   6.151
 4855TIP3    H214511   4.127   4.435   6.243
 4856TIP3   OH214512   7.401   3.479   3.596
 4856TIP3    H114513   7.318   3.470   3.643
 4856TIP3    H214514   7.457   3.411   3.633
 4857TIP3   OH214515   1.286   2.047   4.816
 4857TIP3    H114516   1.275   1.969   4.870
 4857TIP3    H214517   1.284   2.014   4.726
 4858TIP3   OH214518   1.998   4.480   5.203
 4858TIP3    H114519   2.017   4.563   5.247
 4858TIP3    H214520   1.935   4.503   5.135
 4859TIP3   OH214521   4.563   1.301   0.398
 4859TIP3    H114522   4.513   1.382   0.403
 4859TIP3    H214523   4.563   1.278   0.305
 4860TIP3   OH214524   1.307   3.181   3.043
 4860TIP3    H114525   1.317   3.231   2.962
 4860TIP3    H214526   1.307   3.247   3.113
 4861TIP3   OH214527   0.805   3.900   5.160
 4861TIP3    H114528   0.839   3.989   5.166
 4861TIP3    H214529   0.816   3.864   5.248
 4862TIP3   OH214530   6.076   2.470   6.380
 4862TIP3    H114531   6.041   2.382   6.395
 4862TIP3    H214532   6.107   2.469   6.290
 4863TIP3   OH214533   4.717   5.680   3.685
 4863TIP3    H114534   4.662   5.699   3.761
 4863TIP3    H214535   4.661   5.699   3.610
 4864TIP3   OH214536   3.853   3.140   3.174
 4864TIP3    H114537   3.787   3.166   3.238
 4864TIP3    H214538   3.829   3.051   3.148
 4865TIP3   OH214539   4.288   3.009   5.737
 4865TIP3    H114540   4.346   2.977   5.806
 4865TIP3    H214541   4.311   3.101   5.727
 4866TIP3   OH214542   7.806   6.594   3.465
 4866TIP3    H114543   7.788   6.544   3.384
 4866TIP3    H214544   7.732   6.654   3.472
 4867TIP3   OH214545   4.681   3.230   5.658
 4867TIP3    H114546   4.627   3.273   5.591
 4867TIP3    H214547   4.711   3.301   5.714
 4868TIP3   OH214548   1.284   7.161   1.482
 4868TIP3    H114549   1.316   7.249   1.500
 4868TIP3    H214550   1.217   7.145   1.548
 4869TIP3   OH214551   4.327   2.133   5.562
 4869TIP3    H114552   4.358   2.097   5.478
 4869TIP3    H214553   4.293   2.057   5.609
 4870TIP3   OH214554   5.706   0.748   3.413
 4870TIP3    H114555   5.779   0.694   3.444
 4870TIP3    H214556   5.722   0.834   3.451
 4871TIP3   OH214557   6.130   1.180   4.768
 4871TIP3    H114558   6.156   1.269   4.746
 4871TIP3    H214559   6.199   1.125   4.730
 4872TIP3   OH214560   3.508   4.915   0.915
 4872TIP3    H114561   3.598   4.905   0.947
 4872TIP3    H214562   3.505   5.003   0.879
 4873TIP3   OH214563   4.168   3.247   1.125
 4873TIP3    H114564   4.152   3.154   1.141
 4873TIP3    H214565   4.167   3.287   1.212
 4874TIP3   OH214566   5.690   4.401   6.270
 4874TIP3    H114567   5.627   4.329   6.264
 4874TIP3    H214568   5.640   4.474   6.307
 4875TIP3   OH214569   4.554   4.091   4.269
 4875TIP3    H114570   4.591   4.015   4.223
 4875TIP3    H214571   4.628   4.150   4.281
 4876TIP3   OH214572   7.288   5.817   5.719
 4876TIP3    H114573   7.331   5.738   5.686
 4876TIP3    H214574   7.237   5.787   5.794
 4877TIP3   OH214575   0.363   2.333   3.665
 4877TIP3    H114576   0.399   2.337   3.577
 4877TIP3    H214577   0.340   2.424   3.686
 4878TIP3   OH214578   1.614   6.704   6.025
 4878TIP3    H114579   1.580   6.680   6.111
 4878TIP3    H214580   1.557   6.659   5.963
 4879TIP3   OH214581   6.697   7.572   1.860
 4879TIP3    H114582   6.791   7.556   1.850
 4879TIP3    H214583   6.678   7.550   1.951
 4880TIP3   OH214584   2.435   3.314   5.954
 4880TIP3    H114585   2.476   3.390   5.996
 4880TIP3    H214586   2.342   3.323   5.975
 4881TIP3   OH214587   1.174   7.089   2.328
 4881TIP3    H114588   1.221   7.028   2.271
 4881TIP3    H214589   1.204   7.175   2.301
 4882TIP3   OH214590   0.827   1.109   0.486
 4882TIP3    H114591   0.839   1.081   0.576
 4882TIP3    H214592   0.897   1.064   0.438
 4883TIP3   OH214593   0.480   3.713   1.959
 4883TIP3    H114594   0.491   3.634   2.013
 4883TIP3    H214595   0.488   3.682   1.869
 4884TIP3   OH214596   0.421   1.085   0.678
 4884TIP3    H114597   0.395   1.166   0.635
 4884TIP3    H214598   0.515   1.078   0.660
 4885TIP3   OH214599   7.179   4.233   1.577
 4885TIP3    H114600   7.190   4.143   1.546
 4885TIP3    H214601   7.151   4.224   1.668
 4886TIP3   OH214602   7.029   1.898   0.137
 4886TIP3    H114603   7.112   1.866   0.102
 4886TIP3    H214604   7.013   1.980   0.091
 4887TIP3   OH214605   6.272   3.221   2.532
 4887TIP3    H114606   6.180   3.245   2.544
 4887TIP3    H214607   6.313   3.299   2.495
 4888TIP3   OH214608   5.723   2.540   1.475
 4888TIP3    H114609   5.708   2.529   1.569
 4888TIP3    H214610   5.728   2.451   1.440
 4889TIP3   OH214611   6.645   0.487   6.138
 4889TIP3    H114612   6.642   0.582   6.127
 4889TIP3    H214613   6.722   0.459   6.089
 4890TIP3   OH214614   4.841   4.033   2.569
 4890TIP3    H114615   4.883   4.070   2.646
 4890TIP3    H214616   4.865   4.093   2.498
 4891TIP3   OH214617   2.617   4.607   6.081
 4891TIP3    H114618   2.523   4.611   6.065
 4891TIP3    H214619   2.632   4.520   6.117
 4892TIP3   OH214620   4.660   6.642   1.108
 4892TIP3    H114621   4.704   6.703   1.168
 4892TIP3    H214622   4.685   6.673   1.021
 4893TIP3   OH214623   1.919   1.616   2.612
 4893TIP3    H114624   1.885   1.651   2.530
 4893TIP3    H214625   1.841   1.582   2.658
 4894TIP3   OH214626   1.587   6.906   0.406
 4894TIP3    H114627   1.637   6.974   0.451
 4894TIP3    H214628   1.653   6.857   0.357
 4895TIP3   OH214629   7.143   0.752   4.941
 4895TIP3    H114630   7.094   0.834   4.944
 4895TIP3    H214631   7.111   0.703   5.017
 4896TIP3   OH214632   2.177   5.669   4.026
 4896TIP3    H114633   2.089   5.706   4.015
 4896TIP3    H214634   2.166   5.599   4.090
 4897TIP3   OH214635   4.965   0.109   3.049
 4897TIP3    H114636   4.995   0.195   3.078
 4897TIP3    H214637   5.036   0.076   2.995
 4898TIP3   OH214638   8.210   3.664   6.316
 4898TIP3    H114639   8.150   3.680   6.389
 4898TIP3    H214640   8.296   3.691   6.348
 4899TIP3   OH214641   0.676   5.843   5.876
 4899TIP3    H114642   0.678   5.748   5.887
 4899TIP3    H214643   0.721   5.858   5.793
 4900TIP3   OH214644   1.342   1.229   2.806
 4900TIP3    H114645   1.406   1.168   2.844
 4900TIP3    H214646   1.394   1.303   2.776
 4901TIP3   OH214647   5.420   4.911   4.391
 4901TIP3    H114648   5.406   5.004   4.371
 4901TIP3    H214649   5.513   4.905   4.412
 4902TIP3   OH214650   4.822   5.191   6.645
 4902TIP3    H114651   4.747   5.240   6.611
 4902TIP3    H214652   4.865   5.252   6.705
 4903TIP3   OH214653   6.749   2.646   3.911
 4903TIP3    H114654   6.821   2.678   3.857
 4903TIP3    H214655   6.670   2.680   3.869
 4904TIP3   OH214656   3.572   2.277   6.296
 4904TIP3    H114657   3.617   2.346   6.248
 4904TIP3    H214658   3.611   2.196   6.264
 4905TIP3   OH214659   5.490   6.674   3.435
 4905TIP3    H114660   5.511   6.623   3.356
 4905TIP3    H214661   5.409   6.636   3.467
 4906TIP3   OH214662   3.936   1.916   6.292
 4906TIP3    H114663   4.011   1.867   6.258
 4906TIP3    H214664   3.975   1.985   6.345
 4907TIP3   OH214665   0.206   6.025   1.799
 4907TIP3    H114666   0.286   6.049   1.751
 4907TIP3    H214667   0.222   6.056   1.888
 4908TIP3   OH214668   4.520   2.064   2.723
 4908TIP3    H114669   4.451   2.075   2.658
 4908TIP3    H214670   4.592   2.119   2.691
 4909TIP3   OH214671   5.993   5.677   4.023
 4909TIP3    H114672   5.980   5.720   4.108
 4909TIP3    H214673   5.961   5.741   3.959
 4910TIP3   OH214674   4.028   2.619   1.492
 4910TIP3    H114675   4.062   2.601   1.580
 4910TIP3    H214676   4.094   2.676   1.452
 4911TIP3   OH214677   6.585   0.632   0.498
 4911TIP3    H114678   6.496   0.601   0.487
 4911TIP3    H214679   6.636   0.584   0.433
 4912TIP3   OH214680   4.564   1.728   5.441
 4912TIP3    H114681   4.601   1.736   5.530
 4912TIP3    H214682   4.641   1.729   5.384
 4913TIP3   OH214683   8.043   1.937   5.191
 4913TIP3    H114684   8.138   1.932   5.203
 4913TIP3    H214685   8.019   1.853   5.152
 4914TIP3   OH214686   1.728   6.809   0.948
 4914TIP3    H114687   1.817   6.822   0.983
 4914TIP3    H214688   1.731   6.724   0.904
 4915TIP3   OH214689   5.148   6.303   3.929
 4915TIP3    H114690   5.140   6.256   4.012
 4915TIP3    H214691   5.220   6.365   3.944
 4916TIP3   OH214692   4.539   5.208   1.356
 4916TIP3    H114693   4.600   5.279   1.335
 4916TIP3    H214694   4.492   5.193   1.274
 4917TIP3   OH214695   2.665   5.667   4.350
 4917TIP3    H114696   2.751   5.638   4.319
 4917TIP3    H214697   2.680   5.691   4.441
 4918TIP3   OH214698   3.826   3.818   2.924
 4918TIP3    H114699   3.845   3.770   3.004
 4918TIP3    H214700   3.824   3.910   2.950
 4919TIP3   OH214701   4.305   7.003   6.158
 4919TIP3    H114702   4.347   7.021   6.074
 4919TIP3    H214703   4.375   6.965   6.211
 4920TIP3   OH214704   1.089   7.831   5.086
 4920TIP3    H114705   1.078   7.828   5.181
 4920TIP3    H214706   1.180   7.805   5.072
 4921TIP3   OH214707   5.281   3.985   2.348
 4921TIP3    H114708   5.358   3.934   2.373
 4921TIP3    H214709   5.277   4.055   2.413
 4922TIP3   OH214710   0.078   5.857   4.502
 4922TIP3    H114711   0.164   5.836   4.466
 4922TIP3    H214712   0.069   5.952   4.490
 4923TIP3   OH214713   4.380   5.175   0.080
 4923TIP3    H114714   4.400   5.235   0.008
 4923TIP3    H214715   4.295   5.204   0.113
 4924TIP3   OH214716   1.174   6.216   4.912
 4924TIP3    H114717   1.079   6.222   4.910
 4924TIP3    H214718   1.197   6.171   4.831
 4925TIP3   OH214719   3.856   2.514   3.516
 4925TIP3    H114720   3.932   2.530   3.571
 4925TIP3    H214721   3.784   2.502   3.577
 4926TIP3   OH214722   0.125   2.090   5.641
 4926TIP3    H114723   0.155   2.103   5.552
 4926TIP3    H214724   0.166   2.161   5.691
 4927TIP3   OH214725   7.430   6.832   6.450
 4927TIP3    H114726   7.406   6.924   6.453
 4927TIP3    H214727   7.421   6.801   6.540
 4928TIP3   OH214728   1.896   7.001   1.701
 4928TIP3    H114729   1.890   7.014   1.606
 4928TIP3    H214730   1.836   7.066   1.738
 4929TIP3   OH214731   2.284   7.605   4.554
 4929TIP3    H114732   2.227   7.575   4.483
 4929TIP3    H214733   2.306   7.525   4.602
 4930TIP3   OH214734   2.634   3.205   2.010
 4930TIP3    H114735   2.700   3.148   2.051
 4930TIP3    H214736   2.667   3.218   1.921
 4931TIP3   OH214737   1.871   4.432   6.013
 4931TIP3    H114738   1.963   4.434   6.041
 4931TIP3    H214739   1.848   4.523   5.998
 4932TIP3   OH214740   0.895   3.565   0.821
 4932TIP3    H114741   0.923   3.640   0.873
 4932TIP3    H214742   0.975   3.516   0.805
 4933TIP3   OH214743   7.162   2.329   5.261
 4933TIP3    H114744   7.123   2.250   5.224
 4933TIP3    H214745   7.162   2.314   5.355
 4934TIP3   OH214746   0.569   0.911   5.754
 4934TIP3    H114747   0.489   0.946   5.714
 4934TIP3    H214748   0.578   0.824   5.717
 4935TIP3   OH214749   2.355   1.155   1.423
 4935TIP3    H114750   2.368   1.126   1.333
 4935TIP3    H214751   2.427   1.216   1.439
 4936TIP3   OH214752   1.630   5.786   0.370
 4936TIP3    H114753   1.601   5.762   0.458
 4936TIP3    H214754   1.568   5.853   0.342
 4937TIP3   OH214755   8.065   3.475   3.991
 4937TIP3    H114756   8.132   3.429   4.043
 4937TIP3    H214757   8.007   3.514   4.057
 4938TIP3   OH214758   6.474   2.933   6.039
 4938TIP3    H114759   6.388   2.904   6.008
 4938TIP3    H214760   6.509   2.984   5.966
 4939TIP3   OH214761   4.450   5.030   5.005
 4939TIP3    H114762   4.459   4.992   5.092
 4939TIP3    H214763   4.377   4.981   4.965
 4940TIP3   OH214764   0.433   0.029   4.902
 4940TIP3    H114765   0.484   0.043   4.981
 4940TIP3    H214766   0.456   0.104   4.845
 4941TIP3   OH214767   4.362   3.153   0.423
 4941TIP3    H114768   4.413   3.077   0.395
 4941TIP3    H214769   4.280   3.115   0.457
 4942TIP3   OH214770   1.650   2.530   6.661
 4942TIP3    H114771   1.723   2.539   6.599
 4942TIP3    H214772   1.583   2.589   6.626
 4943TIP3   OH214773   8.037   6.040   3.126
 4943TIP3    H114774   8.074   6.112   3.075
 4943TIP3    H214775   7.973   6.081   3.183
 4944TIP3   OH214776   6.557   6.133   0.626
 4944TIP3    H114777   6.636   6.158   0.578
 4944TIP3    H214778   6.489   6.128   0.560
 4945TIP3   OH214779   6.790   4.301   6.745
 4945TIP3    H114780   6.806   4.217   6.787
 4945TIP3    H214781   6.698   4.320   6.763
 4946TIP3   OH214782   7.663   1.456   4.077
 4946TIP3    H114783   7.743   1.433   4.125
 4946TIP3    H214784   7.603   1.384   4.095
 4947TIP3   OH214785   6.536   2.805   5.343
 4947TIP3    H114786   6.561   2.743   5.274
 4947TIP3    H214787   6.494   2.877   5.296
 4948TIP3   OH214788   4.428   6.663   1.270
 4948TIP3    H114789   4.492   6.686   1.203
 4948TIP3    H214790   4.477   6.664   1.352
 4949TIP3   OH214791   4.239   5.362   5.929
 4949TIP3    H114792   4.166   5.324   5.881
 4949TIP3    H214793   4.203   5.386   6.014
 4950TIP3   OH214794   1.927   6.297   4.329
 4950TIP3    H114795   1.958   6.380   4.366
 4950TIP3    H214796   1.921   6.313   4.235
 4951TIP3   OH214797   5.644   3.106   2.335
 4951TIP3    H114798   5.558   3.113   2.295
 4951TIP3    H214799   5.628   3.062   2.418
 4952TIP3   OH214800   2.921   5.007   1.884
 4952TIP3    H114801   3.008   5.035   1.913
 4952TIP3    H214802   2.860   5.049   1.945
 4953TIP3   OH214803   2.022   2.663   0.101
 4953TIP3    H114804   2.002   2.571   0.079
 4953TIP3    H214805   2.082   2.657   0.176
 4954TIP3   OH214806   1.439   2.592   3.354
 4954TIP3    H114807   1.482   2.520   3.308
 4954TIP3    H214808   1.347   2.587   3.326
 4955TIP3   OH214809   3.903   1.273   1.664
 4955TIP3    H114810   3.958   1.195   1.662
 4955TIP3    H214811   3.944   1.333   1.600
 4956TIP3   OH214812   3.051   1.792   1.440
 4956TIP3    H114813   3.123   1.804   1.378
 4956TIP3    H214814   3.066   1.858   1.508
 4957TIP3   OH214815   4.675   4.767   1.558
 4957TIP3    H114816   4.683   4.832   1.488
 4957TIP3    H214817   4.738   4.794   1.623
 4958TIP3   OH214818   5.936   1.261   1.163
 4958TIP3    H114819   5.854   1.287   1.122
 4958TIP3    H214820   5.916   1.256   1.257
 4959TIP3   OH214821   7.611   1.253   6.462
 4959TIP3    H114822   7.614   1.160   6.484
 4959TIP3    H214823   7.535   1.287   6.509
 4960TIP3   OH214824   6.842   5.175   6.018
 4960TIP3    H114825   6.751   5.175   6.048
 4960TIP3    H214826   6.884   5.104   6.067
 4961TIP3   OH214827   5.408   2.294   0.673
 4961TIP3    H114828   5.325   2.329   0.641
 4961TIP3    H214829   5.384   2.216   0.723
 4962TIP3   OH214830   4.540   4.374   5.956
 4962TIP3    H114831   4.495   4.387   6.040
 4962TIP3    H214832   4.473   4.338   5.899
 4963TIP3   OH214833   6.924   4.537   5.330
 4963TIP3    H114834   6.849   4.569   5.281
 4963TIP3    H214835   6.949   4.456   5.285
 4964TIP3   OH214836   2.142   7.722   0.780
 4964TIP3    H114837   2.189   7.678   0.709
 4964TIP3    H214838   2.100   7.651   0.828
 4965TIP3   OH214839   4.986   2.881   3.862
 4965TIP3    H114840   5.005   2.974   3.863
 4965TIP3    H214841   5.056   2.841   3.914
 4966TIP3   OH214842   4.902   2.045   3.202
 4966TIP3    H114843   4.919   2.034   3.295
 4966TIP3    H214844   4.957   2.119   3.176
 4967TIP3   OH214845   5.143   0.300   4.069
 4967TIP3    H114846   5.055   0.268   4.052
 4967TIP3    H214847   5.200   0.241   4.019
 4968TIP3   OH214848   2.016   3.052   2.238
 4968TIP3    H114849   2.108   3.029   2.257
 4968TIP3    H214850   2.017   3.082   2.148
 4969TIP3   OH214851   6.909   7.439   3.518
 4969TIP3    H114852   6.858   7.506   3.472
 4969TIP3    H214853   6.934   7.482   3.600
 4970TIP3   OH214854   1.274   0.640   0.431
 4970TIP3    H114855   1.264   0.578   0.359
 4970TIP3    H214856   1.203   0.703   0.420
 4971TIP3   OH214857   7.109   5.443   5.655
 4971TIP3    H114858   7.134   5.352   5.670
 4971TIP3    H214859   7.020   5.438   5.620
 4972TIP3   OH214860   3.324   6.787   3.489
 4972TIP3    H114861   3.385   6.828   3.428
 4972TIP3    H214862   3.262   6.740   3.433
 4973TIP3   OH214863   4.315   0.528   0.565
 4973TIP3    H114864   4.350   0.569   0.486
 4973TIP3    H214865   4.244   0.472   0.534
 4974TIP3   OH214866   4.592   7.040   5.018
 4974TIP3    H114867   4.654   6.979   4.978
 4974TIP3    H214868   4.645   7.116   5.042
 4975TIP3   OH214869   7.717   0.753   0.164
 4975TIP3    H114870   7.736   0.846   0.172
 4975TIP3    H214871   7.649   0.737   0.229
 4976TIP3   OH214872   5.552   2.878   3.193
 4976TIP3    H114873   5.597   2.896   3.276
 4976TIP3    H214874   5.609   2.916   3.126
 4977TIP3   OH214875   1.328   5.905   5.895
 4977TIP3    H114876   1.291   5.945   5.973
 4977TIP3    H214877   1.260   5.911   5.829
 4978TIP3   OH214878   7.249   4.999   3.602
 4978TIP3    H114879   7.263   5.092   3.583
 4978TIP3    H214880   7.312   4.953   3.546
 4979TIP3   OH214881   4.536   2.219   6.485
 4979TIP3    H114882   4.593   2.148   6.455
 4979TIP3    H214883   4.456   2.209   6.434
 4980TIP3   OH214884   1.142   3.978   6.586
 4980TIP3    H114885   1.171   4.065   6.556
 4980TIP3    H214886   1.221   3.925   6.582
 4981TIP3   OH214887   4.703   5.494   5.920
 4981TIP3    H114888   4.755   5.433   5.973
 4981TIP3    H214889   4.632   5.522   5.979
 4982TIP3   OH214890   1.551   6.750   6.519
 4982TIP3    H114891   1.487   6.781   6.583
 4982TIP3    H214892   1.627   6.807   6.531
 4983TIP3   OH214893   7.653   5.099   5.319
 4983TIP3    H114894   7.698   5.049   5.251
 4983TIP3    H214895   7.716   5.166   5.345
 4984TIP3   OH214896   1.193   6.779   0.383
 4984TIP3    H114897   1.118   6.771   0.324
 4984TIP3    H214898   1.187   6.702   0.440
 4985TIP3   OH214899   7.983   5.903   4.941
 4985TIP3    H114900   8.007   5.824   4.892
 4985TIP3    H214901   7.955   5.871   5.027
 4986TIP3   OH214902   0.883   6.653   5.287
 4986TIP3    H114903   0.844   6.726   5.239
 4986TIP3    H214904   0.899   6.688   5.375
 4987TIP3   OH214905   6.357   0.704   6.296
 4987TIP3    H114906   6.332   0.793   6.320
 4987TIP3    H214907   6.361   0.657   6.379
 4988TIP3   OH214908   2.974   6.864   6.661
 4988TIP3    H114909   3.055   6.907   6.635
 4988TIP3    H214910   2.960   6.891   6.752
 4989TIP3   OH214911   0.865   4.045   1.721
 4989TIP3    H114912   0.774   4.017   1.723
 4989TIP3    H214913   0.884   4.072   1.811
 4990TIP3   OH214914   1.528   3.925   5.794
 4990TIP3    H114915   1.614   3.901   5.828
 4990TIP3    H214916   1.514   4.014   5.825
 4991TIP3   OH214917   7.831   6.668   5.193
 4991TIP3    H114918   7.903   6.682   5.254
 4991TIP3    H214919   7.757   6.641   5.248
 4992TIP3   OH214920   5.788   6.567   2.651
 4992TIP3    H114921   5.828   6.643   2.608
 4992TIP3    H214922   5.816   6.492   2.599
 4993TIP3   OH214923   5.735   2.907   5.772
 4993TIP3    H114924   5.720   2.947   5.687
 4993TIP3    H214925   5.825   2.928   5.794
 4994TIP3   OH214926   1.136   1.475   5.756
 4994TIP3    H114927   1.060   1.503   5.807
 4994TIP3    H214928   1.133   1.380   5.758
 4995TIP3   OH214929   0.515   1.263   4.846
 4995TIP3    H114930   0.474   1.244   4.931
 4995TIP3    H214931   0.554   1.349   4.857
 4996TIP3   OH214932   4.940   1.891   3.661
 4996TIP3    H114933   4.976   1.926   3.743
 4996TIP3    H214934   4.854   1.856   3.686
 4997TIP3   OH214935   8.190   7.504   4.834
 4997TIP3    H114936   8.219   7.454   4.758
 4997TIP3    H214937   8.269   7.515   4.887
 4998TIP3   OH214938   3.400   3.119   1.121
 4998TIP3    H114939   3.324   3.176   1.112
 4998TIP3    H214940   3.368   3.044   1.171
 4999TIP3   OH214941   4.883   5.571   3.493
 4999TIP3    H114942   4.916   5.485   3.518
 4999TIP3    H214943   4.839   5.603   3.572
 5000TIP3   OH214944   7.672   4.913   0.112
 5000TIP3    H114945   7.694   4.916   0.205
 5000TIP3    H214946   7.604   4.980   0.102
 5001TIP3   OH214947   7.152   0.241   0.938
 5001TIP3    H114948   7.183   0.202   1.019
 5001TIP3    H214949   7.073   0.191   0.916
 5002TIP3   OH214950   0.648   0.451   1.327
 5002TIP3    H114951   0.588   0.525   1.335
 5002TIP3    H214952   0.603   0.379   1.371
 5003TIP3   OH214953   7.373   0.968   3.481
 5003TIP3    H114954   7.396   1.042   3.537
 5003TIP3    H214955   7.292   0.994   3.437
 5004TIP3   OH214956   2.766   4.969   4.438
 5004TIP3    H114957   2.694   4.920   4.398
 5004TIP3    H214958   2.845   4.933   4.397
 5005TIP3   OH214959   4.354   3.371   5.718
 5005TIP3    H114960   4.416   3.441   5.703
 5005TIP3    H214961   4.310   3.359   5.634
 5006TIP3   OH214962   2.004   0.866   1.420
 5006TIP3    H114963   2.043   0.841   1.336
 5006TIP3    H214964   2.017   0.960   1.425
 5007TIP3   OH214965   0.948   4.690   6.032
 5007TIP3    H114966   0.886   4.631   5.989
 5007TIP3    H214967   0.948   4.769   5.977
 5008TIP3   OH214968   6.119   0.041   6.279
 5008TIP3    H114969   6.085   0.105   6.341
 5008TIP3    H214970   6.214   0.053   6.280
 5009TIP3   OH214971   4.350   3.499   1.316
 5009TIP3    H114972   4.311   3.580   1.351
 5009TIP3    H214973   4.304   3.429   1.363
 5010TIP3   OH214974   1.925   5.135   6.373
 5010TIP3    H114975   1.841   5.147   6.418
 5010TIP3    H214976   1.970   5.219   6.382
 5011TIP3   OH214977   4.861   2.364   6.351
 5011TIP3    H114978   4.891   2.349   6.441
 5011TIP3    H214979   4.931   2.415   6.311
 5012TIP3   OH214980   6.039   1.162   0.897
 5012TIP3    H114981   6.022   1.117   0.980
 5012TIP3    H214982   5.963   1.218   0.884
 5013TIP3   OH214983   5.226   2.064   2.856
 5013TIP3    H114984   5.137   2.073   2.822
 5013TIP3    H214985   5.273   2.015   2.788
 5014TIP3   OH214986   2.339   6.750   4.278
 5014TIP3    H114987   2.406   6.804   4.235
 5014TIP3    H214988   2.379   6.726   4.362
 5015TIP3   OH214989   2.742   6.906   4.953
 5015TIP3    H114990   2.742   6.985   4.899
 5015TIP3    H214991   2.832   6.874   4.949
 5016TIP3   OH214992   1.776   1.173   5.275
 5016TIP3    H114993   1.805   1.086   5.302
 5016TIP3    H214994   1.683   1.175   5.296
 5017TIP3   OH214995   5.040   6.036   1.432
 5017TIP3    H114996   5.126   6.001   1.408
 5017TIP3    H214997   5.043   6.128   1.408
 5018TIP3   OH214998   7.472   3.012   4.178
 5018TIP3    H114999   7.490   3.091   4.128
 5018TIP3    H215000   7.481   3.038   4.269
 5019TIP3   OH215001   7.193   1.151   2.239
 5019TIP3    H115002   7.102   1.159   2.265
 5019TIP3    H215003   7.242   1.201   2.305
 5020TIP3   OH215004   7.435   1.272   6.678
 5020TIP3    H115005   7.357   1.231   6.715
 5020TIP3    H215006   7.508   1.224   6.716
 5021TIP3   OH215007   7.028   3.689   0.046
 5021TIP3    H115008   7.088   3.715   0.116
 5021TIP3    H215009   7.077   3.623  -0.004
 5022TIP3   OH215010   1.127   5.163   0.946
 5022TIP3    H115011   1.144   5.179   0.854
 5022TIP3    H215012   1.094   5.073   0.950
 5023TIP3   OH215013   2.657   3.500   5.766
 5023TIP3    H115014   2.745   3.498   5.727
 5023TIP3    H215015   2.672   3.526   5.857
 5024TIP3   OH215016   6.529   2.750   3.775
 5024TIP3    H115017   6.505   2.690   3.705
 5024TIP3    H215018   6.468   2.730   3.846
 5025TIP3   OH215019   3.036   0.432   1.184
 5025TIP3    H115020   3.026   0.361   1.121
 5025TIP3    H215021   3.113   0.408   1.235
 5026TIP3   OH215022   6.355   3.207   3.618
 5026TIP3    H115023   6.410   3.226   3.542
 5026TIP3    H215024   6.373   3.279   3.679
 5027TIP3   OH215025   2.369   3.986   3.696
 5027TIP3    H115026   2.301   4.053   3.707
 5027TIP3    H215027   2.443   4.018   3.747
 5028TIP3   OH215028   8.255   2.358   0.136
 5028TIP3    H115029   8.220   2.437   0.176
 5028TIP3    H215030   8.243   2.290   0.201
 5029TIP3   OH215031   1.494   5.953   0.735
 5029TIP3    H115032   1.533   5.946   0.822
 5029TIP3    H215033   1.419   6.011   0.747
 5030TIP3   OH215034   0.761   0.471   4.834
 5030TIP3    H115035   0.800   0.434   4.755
 5030TIP3    H215036   0.744   0.395   4.890
 5031TIP3   OH215037   4.552   3.668   3.459
 5031TIP3    H115038   4.617   3.660   3.388
 5031TIP3    H215039   4.468   3.667   3.414
 5032TIP3   OH215040   6.476   2.409   5.506
 5032TIP3    H115041   6.496   2.316   5.499
 5032TIP3    H215042   6.409   2.413   5.575
 5033TIP3   OH215043   3.013   6.708   2.988
 5033TIP3    H115044   2.934   6.736   3.036
 5033TIP3    H215045   3.044   6.787   2.945
 5034TIP3   OH215046   7.408   7.578   3.930
 5034TIP3    H115047   7.441   7.531   3.853
 5034TIP3    H215048   7.364   7.510   3.981
 5035TIP3   OH215049   0.347   6.874   3.770
 5035TIP3    H115050   0.407   6.826   3.712
 5035TIP3    H215051   0.260   6.852   3.737
 5036TIP3   OH215052   8.265   1.754   4.380
 5036TIP3    H115053   8.226   1.702   4.309
 5036TIP3    H215054   8.341   1.703   4.408
 5037TIP3   OH215055   5.701   4.411   3.049
 5037TIP3    H115056   5.704   4.506   3.032
 5037TIP3    H215057   5.707   4.404   3.144
 5038TIP3   OH215058   0.296   5.850   6.676
 5038TIP3    H115059   0.333   5.895   6.600
 5038TIP3    H215060   0.339   5.765   6.677
 5039TIP3   OH215061   3.295   3.586   1.801
 5039TIP3    H115062   3.248   3.547   1.727
 5039TIP3    H215063   3.388   3.572   1.781
 5040TIP3   OH215064   0.893   4.908   5.834
 5040TIP3    H115065   0.828   4.851   5.792
 5040TIP3    H215066   0.846   4.990   5.850
 5041TIP3   OH215067   7.672   0.672   3.348
 5041TIP3    H115068   7.751   0.666   3.295
 5041TIP3    H215069   7.654   0.766   3.355
 5042TIP3   OH215070   5.408   2.023   5.289
 5042TIP3    H115071   5.408   2.112   5.325
 5042TIP3    H215072   5.448   1.970   5.358
 5043TIP3   OH215073   5.484   7.192   0.438
 5043TIP3    H115074   5.475   7.157   0.349
 5043TIP3    H215075   5.470   7.286   0.428
 5044TIP3   OH215076   0.458   2.687   6.004
 5044TIP3    H115077   0.517   2.648   6.069
 5044TIP3    H215078   0.515   2.744   5.952
 5045TIP3   OH215079   5.834   7.068   5.413
 5045TIP3    H115080   5.773   7.065   5.487
 5045TIP3    H215081   5.853   6.976   5.395
 5046TIP3   OH215082   5.735   4.194   6.784
 5046TIP3    H115083   5.707   4.125   6.723
 5046TIP3    H215084   5.684   4.271   6.759
 5047TIP3   OH215085   6.480   1.139   5.404
 5047TIP3    H115086   6.503   1.065   5.460
 5047TIP3    H215087   6.564   1.171   5.371
 5048TIP3   OH215088   1.950   4.654   2.478
 5048TIP3    H115089   1.864   4.630   2.510
 5048TIP3    H215090   1.995   4.691   2.554
 5049TIP3   OH215091   5.284   2.365   5.906
 5049TIP3    H115092   5.318   2.408   5.828
 5049TIP3    H215093   5.336   2.400   5.978
 5050TIP3   OH215094   3.346   5.037   5.088
 5050TIP3    H115095   3.408   5.037   5.015
 5050TIP3    H215096   3.308   4.949   5.087
 5051TIP3   OH215097   4.426   5.075   3.419
 5051TIP3    H115098   4.346   5.119   3.446
 5051TIP3    H215099   4.420   5.070   3.323
 5052TIP3   OH215100   6.764   4.273   6.204
 5052TIP3    H115101   6.685   4.241   6.160
 5052TIP3    H215102   6.742   4.267   6.298
 5053TIP3   OH215103   1.466   4.592   6.521
 5053TIP3    H115104   1.475   4.609   6.427
 5053TIP3    H215105   1.551   4.556   6.547
 5054TIP3   OH215106   3.265   6.897   0.500
 5054TIP3    H115107   3.355   6.866   0.499
 5054TIP3    H215108   3.212   6.820   0.481
 5055TIP3   OH215109   6.863   4.044   1.732
 5055TIP3    H115110   6.878   4.137   1.747
 5055TIP3    H215111   6.792   4.041   1.668
 5056TIP3   OH215112   7.023   2.388   2.330
 5056TIP3    H115113   6.944   2.441   2.335
 5056TIP3    H215114   6.996   2.308   2.285
 5057TIP3   OH215115   3.215   4.885   0.220
 5057TIP3    H115116   3.234   4.861   0.129
 5057TIP3    H215117   3.265   4.822   0.272
 5058TIP3   OH215118   6.457   2.124   4.163
 5058TIP3    H115119   6.441   2.200   4.220
 5058TIP3    H215120   6.371   2.086   4.149
 5059TIP3   OH215121   8.206   6.614   6.006
 5059TIP3    H115122   8.220   6.634   5.914
 5059TIP3    H215123   8.150   6.686   6.038
 5060TIP3   OH215124   7.183   1.343   3.710
 5060TIP3    H115125   7.130   1.319   3.635
 5060TIP3    H215126   7.120   1.357   3.781
 5061TIP3   OH215127   4.595   4.180   6.647
 5061TIP3    H115128   4.686   4.200   6.628
 5061TIP3    H215129   4.551   4.265   6.645
 5062TIP3   OH215130   4.206   6.417   5.231
 5062TIP3    H115131   4.272   6.415   5.163
 5062TIP3    H215132   4.145   6.486   5.204
 5063TIP3   OH215133   6.387   7.195   1.784
 5063TIP3    H115134   6.376   7.170   1.692
 5063TIP3    H215135   6.399   7.290   1.782
 5064TIP3   OH215136   0.743   1.893   6.220
 5064TIP3    H115137   0.722   1.875   6.311
 5064TIP3    H215138   0.688   1.832   6.170
 5065TIP3   OH215139   1.013   2.962   5.831
 5065TIP3    H115140   1.084   2.938   5.771
 5065TIP3    H215141   1.057   3.009   5.902
 5066TIP3   OH215142   7.652   6.170   3.709
 5066TIP3    H115143   7.720   6.228   3.674
 5066TIP3    H215144   7.577   6.183   3.650
 5067TIP3   OH215145   2.490   3.100   6.709
 5067TIP3    H115146   2.555   3.032   6.729
 5067TIP3    H215147   2.459   3.079   6.621
 5068TIP3   OH215148   6.420   7.393   4.559
 5068TIP3    H115149   6.351   7.360   4.618
 5068TIP3    H215150   6.401   7.486   4.549
 5069TIP3   OH215151   7.840   0.422   6.219
 5069TIP3    H115152   7.760   0.456   6.258
 5069TIP3    H215153   7.826   0.328   6.213
 5070TIP3   OH215154   6.308   5.223   1.772
 5070TIP3    H115155   6.289   5.162   1.700
 5070TIP3    H215156   6.311   5.167   1.850
 5071TIP3   OH215157   6.991   2.361   4.778
 5071TIP3    H115158   7.064   2.382   4.836
 5071TIP3    H215159   7.027   2.373   4.690
 5072TIP3   OH215160   5.259   4.195   0.337
 5072TIP3    H115161   5.313   4.137   0.284
 5072TIP3    H215162   5.304   4.198   0.422
 5073TIP3   OH215163   3.075   3.359   1.595
 5073TIP3    H115164   3.169   3.342   1.593
 5073TIP3    H215165   3.034   3.273   1.592
 5074TIP3   OH215166   1.582   1.375   2.985
 5074TIP3    H115167   1.584   1.400   2.893
 5074TIP3    H215168   1.565   1.280   2.984
 5075TIP3   OH215169   3.313   5.140   4.458
 5075TIP3    H115170   3.255   5.112   4.529
 5075TIP3    H215171   3.351   5.058   4.425
 5076TIP3   OH215172   2.227   0.911   6.733
 5076TIP3    H115173   2.145   0.873   6.701
 5076TIP3    H215174   2.247   0.980   6.670
 5077TIP3   OH215175   4.357   0.997   1.171
 5077TIP3    H115176   4.379   1.059   1.102
 5077TIP3    H215177   4.438   0.949   1.188
 5078TIP3   OH215178   3.515   0.719   4.872
 5078TIP3    H115179   3.481   0.801   4.910
 5078TIP3    H215180   3.610   0.724   4.884
 5079TIP3   OH215181   3.502   0.380   2.798
 5079TIP3    H115182   3.462   0.466   2.811
 5079TIP3    H215183   3.566   0.393   2.727
 5080TIP3   OH215184   1.679   6.513   6.552
 5080TIP3    H115185   1.640   6.445   6.496
 5080TIP3    H215186   1.625   6.590   6.536
 5081TIP3   OH215187   6.226   6.987   6.439
 5081TIP3    H115188   6.164   6.923   6.473
 5081TIP3    H215189   6.305   6.975   6.493
 5082TIP3   OH215190   3.368   7.543   6.614
 5082TIP3    H115191   3.389   7.510   6.526
 5082TIP3    H215192   3.352   7.636   6.602
 5083TIP3   OH215193   5.013   6.151   4.602
 5083TIP3    H115194   4.985   6.230   4.556
 5083TIP3    H215195   5.082   6.180   4.661
 5084TIP3   OH215196   4.711   4.818   4.386
 5084TIP3    H115197   4.695   4.869   4.465
 5084TIP3    H215198   4.774   4.869   4.336
 5085TIP3   OH215199   8.148   7.317   1.211
 5085TIP3    H115200   8.183   7.308   1.122
 5085TIP3    H215201   8.079   7.250   1.216
 5086TIP3   OH215202   2.858   2.337   1.116
 5086TIP3    H115203   2.884   2.247   1.136
 5086TIP3    H215204   2.887   2.388   1.191
 5087TIP3   OH215205   7.048   7.031   5.549
 5087TIP3    H115206   6.964   7.027   5.504
 5087TIP3    H215207   7.096   7.101   5.505
 5088TIP3   OH215208   4.394   1.826   3.752
 5088TIP3    H115209   4.394   1.883   3.828
 5088TIP3    H215210   4.337   1.753   3.776
 5089TIP3   OH215211   5.072   6.496   1.067
 5089TIP3    H115212   5.139   6.438   1.029
 5089TIP3    H215213   5.027   6.441   1.132
 5090TIP3   OH215214   7.179   7.008   0.239
 5090TIP3    H115215   7.230   6.944   0.190
 5090TIP3    H215216   7.137   7.062   0.172
 5091TIP3   OH215217   5.211   0.498   1.256
 5091TIP3    H115218   5.152   0.534   1.322
 5091TIP3    H215219   5.298   0.504   1.296
 5092TIP3   OH215220   4.049   2.559   1.239
 5092TIP3    H115221   4.012   2.571   1.326
 5092TIP3    H215222   4.069   2.466   1.234
 5093TIP3   OH215223   0.212   3.356   0.930
 5093TIP3    H115224   0.174   3.274   0.962
 5093TIP3    H215225   0.215   3.346   0.835
 5094TIP3   OH215226   1.241   3.413   1.490
 5094TIP3    H115227   1.307   3.349   1.517
 5094TIP3    H215228   1.279   3.498   1.514
 5095TIP3   OH215229   5.513   0.897   0.087
 5095TIP3    H115230   5.586   0.867   0.032
 5095TIP3    H215231   5.517   0.992   0.083
 5096TIP3   OH215232   2.608   0.642   2.102
 5096TIP3    H115233   2.680   0.597   2.057
 5096TIP3    H215234   2.604   0.728   2.061
 5097TIP3   OH215235   3.157   6.640   5.838
 5097TIP3    H115236   3.117   6.727   5.836
 5097TIP3    H215237   3.093   6.584   5.793
 5098TIP3   OH215238   4.506   6.201   6.181
 5098TIP3    H115239   4.534   6.190   6.090
 5098TIP3    H215240   4.496   6.112   6.214
 5099TIP3   OH215241   0.052   2.436   3.451
 5099TIP3    H115242   0.114   2.452   3.522
 5099TIP3    H215243   0.084   2.488   3.378
 5100TIP3   OH215244   3.756   6.474   6.734
 5100TIP3    H115245   3.825   6.453   6.671
 5100TIP3    H215246   3.698   6.398   6.733
 5101TIP3   OH215247   3.349   5.864   3.832
 5101TIP3    H115248   3.296   5.939   3.804
 5101TIP3    H215249   3.344   5.865   3.927
 5102TIP3   OH215250   1.971   3.577   4.289
 5102TIP3    H115251   2.060   3.570   4.256
 5102TIP3    H215252   1.916   3.547   4.217
 5103TIP3   OH215253   5.521   1.846   5.507
 5103TIP3    H115254   5.549   1.841   5.598
 5103TIP3    H215255   5.573   1.779   5.462
 5104TIP3   OH215256   5.997   6.372   5.606
 5104TIP3    H115257   6.011   6.291   5.656
 5104TIP3    H215258   5.938   6.424   5.661
 5105TIP3   OH215259   5.358   6.090   0.700
 5105TIP3    H115260   5.263   6.095   0.694
 5105TIP3    H215261   5.389   6.139   0.623
 5106TIP3   OH215262   2.513   4.761   1.115
 5106TIP3    H115263   2.543   4.827   1.177
 5106TIP3    H215264   2.593   4.729   1.073
 5107TIP3   OH215265   7.659   3.998   1.353
 5107TIP3    H115266   7.609   3.993   1.272
 5107TIP3    H215267   7.713   3.919   1.353
 5108TIP3   OH215268   2.259   5.013   1.209
 5108TIP3    H115269   2.297   5.091   1.250
 5108TIP3    H215270   2.171   5.008   1.244
 5109TIP3   OH215271   3.842   4.374   5.799
 5109TIP3    H115272   3.938   4.375   5.798
 5109TIP3    H215273   3.818   4.461   5.830
 5110TIP3   OH215274   6.230   3.834   3.014
 5110TIP3    H115275   6.276   3.831   2.930
 5110TIP3    H215276   6.298   3.856   3.078
 5111TIP3   OH215277   2.065   6.373   2.745
 5111TIP3    H115278   2.128   6.312   2.708
 5111TIP3    H215279   2.105   6.404   2.826
 5112TIP3   OH215280   7.085   0.503   6.223
 5112TIP3    H115281   7.018   0.455   6.175
 5112TIP3    H215282   7.064   0.595   6.207
 5113TIP3   OH215283   8.122   2.616   3.214
 5113TIP3    H115284   8.137   2.710   3.222
 5113TIP3    H215285   8.044   2.599   3.267
 5114TIP3   OH215286   1.558   0.636   1.341
 5114TIP3    H115287   1.620   0.571   1.307
 5114TIP3    H215288   1.520   0.676   1.263
 5115TIP3   OH215289   0.458   2.175   2.962
 5115TIP3    H115290   0.390   2.138   3.017
 5115TIP3    H215291   0.445   2.134   2.877
 5116TIP3   OH215292   2.718   1.570   4.330
 5116TIP3    H115293   2.739   1.479   4.310
 5116TIP3    H215294   2.703   1.571   4.424
 5117TIP3   OH215295   1.190   0.796   0.932
 5117TIP3    H115296   1.253   0.867   0.923
 5117TIP3    H215297   1.178   0.788   1.027
 5118TIP3   OH215298   7.412   4.453   0.719
 5118TIP3    H115299   7.343   4.420   0.776
 5118TIP3    H215300   7.491   4.407   0.748
 5119TIP3   OH215301   1.374   3.404   5.098
 5119TIP3    H115302   1.283   3.405   5.069
 5119TIP3    H215303   1.420   3.352   5.032
 5120TIP3   OH215304   1.285   0.019   5.652
 5120TIP3    H115305   1.259   0.103   5.689
 5120TIP3    H215306   1.208  -0.011   5.605
 5121TIP3   OH215307   4.688   7.546   2.545
 5121TIP3    H115308   4.613   7.548   2.486
 5121TIP3    H215309   4.759   7.587   2.495
 5122TIP3   OH215310   5.438   6.534   2.461
 5122TIP3    H115311   5.511   6.586   2.426
 5122TIP3    H215312   5.427   6.567   2.550
 5123TIP3   OH215313   6.677   0.197   4.541
 5123TIP3    H115314   6.658   0.127   4.603
 5123TIP3    H215315   6.730   0.156   4.473
 5124TIP3   OH215316   5.527   2.363   2.409
 5124TIP3    H115317   5.540   2.388   2.500
 5124TIP3    H215318   5.456   2.420   2.379
 5125TIP3   OH215319   4.341   2.986   0.935
 5125TIP3    H115320   4.394   2.964   1.012
 5125TIP3    H215321   4.337   2.905   0.884
 5126TIP3   OH215322   4.285   0.256   2.151
 5126TIP3    H115323   4.380   0.250   2.156
 5126TIP3    H215324   4.261   0.189   2.087
 5127TIP3   OH215325   4.260   0.876   0.399
 5127TIP3    H115326   4.334   0.816   0.393
 5127TIP3    H215327   4.192   0.826   0.445
 5128TIP3   OH215328   1.559   0.422   5.912
 5128TIP3    H115329   1.611   0.490   5.954
 5128TIP3    H215330   1.500   0.391   5.980
 5129TIP3   OH215331   4.210   1.592   3.802
 5129TIP3    H115332   4.209   1.496   3.796
 5129TIP3    H215333   4.172   1.622   3.720
 5130TIP3   OH215334   0.655   6.160   4.619
 5130TIP3    H115335   0.703   6.093   4.570
 5130TIP3    H215336   0.589   6.111   4.668
 5131TIP3   OH215337   5.231   1.370   4.366
 5131TIP3    H115338   5.311   1.318   4.363
 5131TIP3    H215339   5.207   1.372   4.459
 5132TIP3   OH215340   8.192   6.027   5.979
 5132TIP3    H115341   8.196   6.109   6.028
 5132TIP3    H215342   8.234   5.962   6.035
 5133TIP3   OH215343   5.864   4.844   5.893
 5133TIP3    H115344   5.929   4.799   5.838
 5133TIP3    H215345   5.915   4.875   5.968
 5134TIP3   OH215346   3.540   6.822   2.491
 5134TIP3    H115347   3.457   6.863   2.516
 5134TIP3    H215348   3.520   6.729   2.485
 5135TIP3   OH215349   5.435   3.192   4.443
 5135TIP3    H115350   5.486   3.160   4.368
 5135TIP3    H215351   5.439   3.121   4.506
 5136TIP3   OH215352   6.184   2.864   0.355
 5136TIP3    H115353   6.280   2.861   0.360
 5136TIP3    H215354   6.158   2.775   0.331
 5137TIP3   OH215355   5.344   5.319   2.898
 5137TIP3    H115356   5.423   5.270   2.876
 5137TIP3    H215357   5.272   5.264   2.867
 5138TIP3   OH215358   4.911   4.498   3.881
 5138TIP3    H115359   4.824   4.536   3.871
 5138TIP3    H215360   4.971   4.573   3.871
 5139TIP3   OH215361   7.392   2.530   3.376
 5139TIP3    H115362   7.390   2.468   3.303
 5139TIP3    H215363   7.344   2.606   3.344
 5140TIP3   OH215364   3.101   5.825   5.351
 5140TIP3    H115365   3.078   5.748   5.403
 5140TIP3    H215366   3.103   5.792   5.261
 5141TIP3   OH215367   6.056   2.751   6.289
 5141TIP3    H115368   6.145   2.757   6.255
 5141TIP3    H215369   6.045   2.659   6.314
 5142TIP3   OH215370   7.588   5.799   6.346
 5142TIP3    H115371   7.529   5.864   6.385
 5142TIP3    H215372   7.555   5.788   6.257
 5143TIP3   OH215373   0.574   3.758   2.776
 5143TIP3    H115374   0.499   3.787   2.827
 5143TIP3    H215375   0.580   3.822   2.705
 5144TIP3   OH215376   3.507   6.521   2.487
 5144TIP3    H115377   3.536   6.441   2.529
 5144TIP3    H215378   3.587   6.563   2.455
 5145TIP3   OH215379   5.442   0.830   6.802
 5145TIP3    H115380   5.461   0.920   6.774
 5145TIP3    H215381   5.430   0.781   6.721
 5146TIP3   OH215382   8.164   2.381   6.394
 5146TIP3    H115383   8.112   2.453   6.359
 5146TIP3    H215384   8.172   2.319   6.321
 5147TIP3   OH215385   1.967   2.419   4.979
 5147TIP3    H115386   1.942   2.346   4.924
 5147TIP3    H215387   1.933   2.496   4.933
 5148TIP3   OH215388   0.358   2.542   1.370
 5148TIP3    H115389   0.382   2.475   1.434
 5148TIP3    H215390   0.389   2.507   1.286
 5149TIP3   OH215391   2.632   7.341   0.224
 5149TIP3    H115392   2.558   7.315   0.169
 5149TIP3    H215393   2.595   7.405   0.285
 5150TIP3   OH215394   7.572   7.655   2.483
 5150TIP3    H115395   7.606   7.735   2.444
 5150TIP3    H215396   7.571   7.673   2.577
 5151TIP3   OH215397   0.200   3.296   2.409
 5151TIP3    H115398   0.225   3.302   2.317
 5151TIP3    H215399   0.106   3.315   2.409
 5152TIP3   OH215400   5.697   2.749   2.854
 5152TIP3    H115401   5.736   2.668   2.889
 5152TIP3    H215402   5.702   2.739   2.759
 5153TIP3   OH215403   1.670   6.146   3.559
 5153TIP3    H115404   1.642   6.236   3.546
 5153TIP3    H215405   1.598   6.093   3.527
 5154TIP3   OH215406   2.898   3.300   4.131
 5154TIP3    H115407   2.927   3.391   4.129
 5154TIP3    H215408   2.978   3.250   4.146
 5155TIP3   OH215409   5.463   1.533   3.374
 5155TIP3    H115410   5.455   1.619   3.417
 5155TIP3    H215411   5.372   1.507   3.357
 5156TIP3   OH215412   5.469   6.101   3.204
 5156TIP3    H115413   5.460   6.064   3.116
 5156TIP3    H215414   5.438   6.192   3.195
 5157TIP3   OH215415   0.896   0.434   6.234
 5157TIP3    H115416   0.875   0.386   6.154
 5157TIP3    H215417   0.899   0.526   6.207
 5158TIP3   OH215418   2.921   7.141   6.750
 5158TIP3    H115419   2.996   7.192   6.721
 5158TIP3    H215420   2.847   7.201   6.744
 5159TIP3   OH215421   1.689   4.402   1.863
 5159TIP3    H115422   1.652   4.418   1.949
 5159TIP3    H215423   1.780   4.376   1.880
 5160TIP3   OH215424   5.949   7.700   3.682
 5160TIP3    H115425   6.006   7.711   3.757
 5160TIP3    H215426   5.938   7.789   3.647
 5161TIP3   OH215427   1.818   5.396   1.934
 5161TIP3    H115428   1.860   5.312   1.951
 5161TIP3    H215429   1.810   5.401   1.839
 5162TIP3   OH215430   1.470   3.582   0.214
 5162TIP3    H115431   1.439   3.627   0.293
 5162TIP3    H215432   1.428   3.629   0.142
 5163TIP3   OH215433   1.040   5.330   1.134
 5163TIP3    H115434   1.073   5.260   1.078
 5163TIP3    H215435   1.065   5.304   1.223
 5164TIP3   OH215436   5.954   0.709   6.417
 5164TIP3    H115437   5.921   0.753   6.339
 5164TIP3    H215438   5.876   0.692   6.470
 5165TIP3   OH215439   0.594   1.689   6.137
 5165TIP3    H115440   0.573   1.665   6.047
 5165TIP3    H215441   0.647   1.617   6.170
 5166TIP3   OH215442   5.640   2.494   5.347
 5166TIP3    H115443   5.629   2.587   5.368
 5166TIP3    H215444   5.708   2.464   5.407
 5167TIP3   OH215445   7.816   0.118   4.124
 5167TIP3    H115446   7.818   0.146   4.216
 5167TIP3    H215447   7.797   0.198   4.076
 5168TIP3   OH215448   0.726   5.172   5.312
 5168TIP3    H115449   0.710   5.098   5.370
 5168TIP3    H215450   0.712   5.137   5.224
 5169TIP3   OH215451   6.767   3.971   2.446
 5169TIP3    H115452   6.856   3.990   2.417
 5169TIP3    H215453   6.713   3.986   2.368
 5170TIP3   OH215454   2.370   2.530   4.637
 5170TIP3    H115455   2.334   2.472   4.571
 5170TIP3    H215456   2.405   2.604   4.588
 5171TIP3   OH215457   1.695   5.767   6.377
 5171TIP3    H115458   1.759   5.771   6.306
 5171TIP3    H215459   1.739   5.808   6.451
 5172TIP3   OH215460   5.501   4.762   3.513
 5172TIP3    H115461   5.535   4.692   3.457
 5172TIP3    H215462   5.575   4.822   3.523
 5173TIP3   OH215463   3.599   5.057   6.040
 5173TIP3    H115464   3.536   4.991   6.071
 5173TIP3    H215465   3.631   5.021   5.957
 5174TIP3   OH215466   2.386   1.349   1.161
 5174TIP3    H115467   2.372   1.324   1.070
 5174TIP3    H215468   2.318   1.302   1.209
 5175TIP3   OH215469   7.132   7.244   4.155
 5175TIP3    H115470   7.061   7.188   4.186
 5175TIP3    H215471   7.211   7.203   4.191
 5176TIP3   OH215472   3.673   5.082   0.754
 5176TIP3    H115473   3.704   5.144   0.820
 5176TIP3    H215474   3.749   5.026   0.736
 5177TIP3   OH215475   7.092   6.489   5.464
 5177TIP3    H115476   7.097   6.553   5.393
 5177TIP3    H215477   7.007   6.447   5.452
 5178TIP3   OH215478   0.436   1.717   5.830
 5178TIP3    H115479   0.461   1.629   5.801
 5178TIP3    H215480   0.483   1.776   5.772
 5179TIP3   OH215481   2.015   3.145   3.037
 5179TIP3    H115482   2.098   3.166   2.994
 5179TIP3    H215483   1.959   3.221   3.019
 5180TIP3   OH215484   7.267   6.308   2.925
 5180TIP3    H115485   7.265   6.306   3.021
 5180TIP3    H215486   7.207   6.379   2.901
 5181TIP3   OH215487   0.331   4.173   2.435
 5181TIP3    H115488   0.350   4.081   2.418
 5181TIP3    H215489   0.302   4.175   2.527
 5182TIP3   OH215490   0.450   2.308   6.737
 5182TIP3    H115491   0.358   2.300   6.762
 5182TIP3    H215492   0.480   2.387   6.781
 5183TIP3   OH215493   6.924   6.770   0.770
 5183TIP3    H115494   6.967   6.854   0.779
 5183TIP3    H215495   6.849   6.775   0.829
 5184TIP3   OH215496   7.458   7.652   0.679
 5184TIP3    H115497   7.383   7.698   0.642
 5184TIP3    H215498   7.428   7.562   0.692
 5185TIP3   OH215499   3.152   1.118   2.054
 5185TIP3    H115500   3.206   1.123   1.975
 5185TIP3    H215501   3.203   1.063   2.114
 5186TIP3   OH215502   2.757   4.319   0.985
 5186TIP3    H115503   2.760   4.388   1.050
 5186TIP3    H215504   2.795   4.243   1.029
 5187TIP3   OH215505   6.102   0.110   1.284
 5187TIP3    H115506   6.178   0.168   1.275
 5187TIP3    H215507   6.129   0.028   1.242
 5188TIP3   OH215508   6.938   4.251   4.792
 5188TIP3    H115509   6.900   4.311   4.727
 5188TIP3    H215510   6.875   4.180   4.798
 5189TIP3   OH215511   5.989   0.932   1.055
 5189TIP3    H115512   5.984   0.841   1.024
 5189TIP3    H215513   6.079   0.958   1.035
 5190TIP3   OH215514   0.278   1.646   2.163
 5190TIP3    H115515   0.230   1.616   2.241
 5190TIP3    H215516   0.211   1.650   2.094
 5191TIP3   OH215517   2.979   6.419   1.348
 5191TIP3    H115518   2.978   6.333   1.306
 5191TIP3    H215519   2.916   6.471   1.298
 5192TIP3   OH215520   6.305   0.907   2.982
 5192TIP3    H115521   6.258   0.961   2.918
 5192TIP3    H215522   6.245   0.835   3.002
 5193TIP3   OH215523   3.889   4.031   4.137
 5193TIP3    H115524   3.821   4.091   4.105
 5193TIP3    H215525   3.900   3.969   4.065
 5194TIP3   OH215526   1.729   3.726   6.284
 5194TIP3    H115527   1.769   3.697   6.202
 5194TIP3    H215528   1.646   3.679   6.288
 5195TIP3   OH215529   5.889   4.651   0.849
 5195TIP3    H115530   5.829   4.627   0.778
 5195TIP3    H215531   5.834   4.698   0.912
 5196TIP3   OH215532   4.229   2.769   2.719
 5196TIP3    H115533   4.180   2.851   2.715
 5196TIP3    H215534   4.238   2.741   2.628
 5197TIP3   OH215535   7.614   1.864   6.193
 5197TIP3    H115536   7.532   1.825   6.164
 5197TIP3    H215537   7.672   1.789   6.208
 5198TIP3   OH215538   1.379   1.727   4.333
 5198TIP3    H115539   1.445   1.775   4.384
 5198TIP3    H215540   1.401   1.635   4.346
 5199TIP3   OH215541   4.389   5.416   6.366
 5199TIP3    H115542   4.311   5.414   6.311
 5199TIP3    H215543   4.459   5.442   6.306
 5200TIP3   OH215544   3.608   5.752   6.383
 5200TIP3    H115545   3.676   5.795   6.331
 5200TIP3    H215546   3.527   5.799   6.359
 5201TIP3   OH215547   6.217   6.781   3.634
 5201TIP3    H115548   6.171   6.852   3.678
 5201TIP3    H215549   6.287   6.756   3.694
 5202TIP3   OH215550   6.758   2.301   2.323
 5202TIP3    H115551   6.731   2.357   2.250
 5202TIP3    H215552   6.723   2.344   2.401
 5203TIP3   OH215553   1.548   0.503   2.498
 5203TIP3    H115554   1.548   0.500   2.594
 5203TIP3    H215555   1.471   0.554   2.476
 5204TIP3   OH215556   1.583   2.822   3.224
 5204TIP3    H115557   1.506   2.777   3.187
 5204TIP3    H215558   1.602   2.891   3.162
 5205TIP3   OH215559   4.916   2.017   1.675
 5205TIP3    H115560   4.970   1.945   1.707
 5205TIP3    H215561   4.959   2.096   1.709
 5206TIP3   OH215562   7.841   6.363   3.604
 5206TIP3    H115563   7.813   6.442   3.558
 5206TIP3    H215564   7.905   6.393   3.668
 5207TIP3   OH215565   7.386   1.676   6.147
 5207TIP3    H115566   7.329   1.742   6.188
 5207TIP3    H215567   7.381   1.600   6.205
 5208TIP3   OH215568   0.029   0.908   1.593
 5208TIP3    H115569  -0.041   0.949   1.645
 5208TIP3    H215570   0.092   0.979   1.580
 5209TIP3   OH215571   4.948   5.484   2.422
 5209TIP3    H115572   5.001   5.420   2.375
 5209TIP3    H215573   4.903   5.534   2.354
 5210TIP3   OH215574   5.767   6.011   5.913
 5210TIP3    H115575   5.845   6.066   5.923
 5210TIP3    H215576   5.694   6.068   5.937
 5211TIP3   OH215577   6.408   6.806   2.726
 5211TIP3    H115578   6.463   6.864   2.779
 5211TIP3    H215579   6.364   6.750   2.790
 5212TIP3   OH215580   0.162   0.375   5.370
 5212TIP3    H115581   0.103   0.331   5.308
 5212TIP3    H215582   0.220   0.305   5.400
 5213TIP3   OH215583   4.855   5.054   3.134
 5213TIP3    H115584   4.777   5.075   3.084
 5213TIP3    H215585   4.822   5.000   3.206
 5214TIP3   OH215586   7.998   1.514   5.355
 5214TIP3    H115587   8.053   1.536   5.430
 5214TIP3    H215588   8.054   1.459   5.300
 5215TIP3   OH215589   4.876   3.543   0.584
 5215TIP3    H115590   4.810   3.577   0.645
 5215TIP3    H215591   4.903   3.460   0.623
 5216TIP3   OH215592   6.802   5.427   0.204
 5216TIP3    H115593   6.847   5.485   0.265
 5216TIP3    H215594   6.862   5.420   0.129
 5217TIP3   OH215595   1.379   5.877   1.195
 5217TIP3    H115596   1.396   5.839   1.281
 5217TIP3    H215597   1.418   5.965   1.200
 5218TIP3   OH215598   8.069   4.149   3.340
 5218TIP3    H115599   8.033   4.166   3.427
 5218TIP3    H215600   8.018   4.075   3.307
 5219TIP3   OH215601   6.311   0.301   2.042
 5219TIP3    H115602   6.294   0.352   2.121
 5219TIP3    H215603   6.294   0.211   2.068
 5220TIP3   OH215604   4.455   3.306   1.139
 5220TIP3    H115605   4.401   3.354   1.202
 5220TIP3    H215606   4.402   3.230   1.115
 5221TIP3   OH215607   7.927   2.435   0.408
 5221TIP3    H115608   7.974   2.482   0.339
 5221TIP3    H215609   7.994   2.416   0.474
 5222TIP3   OH215610   7.104   0.685   2.507
 5222TIP3    H115611   7.049   0.757   2.476
 5222TIP3    H215612   7.177   0.682   2.445
 5223TIP3   OH215613   1.797   5.468   5.230
 5223TIP3    H115614   1.721   5.515   5.196
 5223TIP3    H215615   1.774   5.375   5.220
 5224TIP3   OH215616   0.320   6.491   2.129
 5224TIP3    H115617   0.336   6.439   2.050
 5224TIP3    H215618   0.236   6.534   2.113
 5225TIP3   OH215619   6.128   7.534   2.765
 5225TIP3    H115620   6.088   7.456   2.803
 5225TIP3    H215621   6.106   7.528   2.672
 5226TIP3   OH215622   1.379   1.756   2.783
 5226TIP3    H115623   1.469   1.776   2.757
 5226TIP3    H215624   1.338   1.719   2.705
 5227TIP3   OH215625   5.308   6.609   4.523
 5227TIP3    H115626   5.251   6.585   4.596
 5227TIP3    H215627   5.369   6.673   4.560
 5228TIP3   OH215628   2.758   5.231   0.703
 5228TIP3    H115629   2.790   5.253   0.616
 5228TIP3    H215630   2.782   5.306   0.758
 5229TIP3   OH215631   6.355   0.180   3.242
 5229TIP3    H115632   6.396   0.106   3.198
 5229TIP3    H215633   6.425   0.219   3.295
 5230TIP3   OH215634   3.833   6.261   0.467
 5230TIP3    H115635   3.896   6.189   0.463
 5230TIP3    H215636   3.884   6.336   0.499
 5231TIP3   OH215637   4.665   1.529   2.385
 5231TIP3    H115638   4.695   1.477   2.311
 5231TIP3    H215639   4.601   1.590   2.347
 5232TIP3   OH215640   6.457   0.692   4.548
 5232TIP3    H115641   6.445   0.728   4.460
 5232TIP3    H215642   6.539   0.642   4.543
 5233TIP3   OH215643   6.240   2.923   1.269
 5233TIP3    H115644   6.175   2.925   1.339
 5233TIP3    H215645   6.275   3.012   1.266
 5234TIP3   OH215646   1.407   3.571   6.023
 5234TIP3    H115647   1.414   3.515   6.101
 5234TIP3    H215648   1.358   3.518   5.960
 5235TIP3   OH215649   1.201   0.899   4.406
 5235TIP3    H115650   1.187   0.942   4.490
 5235TIP3    H215651   1.296   0.898   4.395
 5236TIP3   OH215652   5.285   5.380   0.608
 5236TIP3    H115653   5.269   5.399   0.515
 5236TIP3    H215654   5.212   5.324   0.634
 5237TIP3   OH215655   1.105   1.415   6.276
 5237TIP3    H115656   1.129   1.384   6.189
 5237TIP3    H215657   1.103   1.336   6.331
 5238TIP3   OH215658   2.363   3.325   4.707
 5238TIP3    H115659   2.306   3.392   4.744
 5238TIP3    H215660   2.392   3.361   4.623
 5239TIP3   OH215661   0.257   4.824   6.106
 5239TIP3    H115662   0.208   4.742   6.109
 5239TIP3    H215663   0.192   4.890   6.083
 5240TIP3   OH215664   2.741   7.546   2.169
 5240TIP3    H115665   2.813   7.555   2.106
 5240TIP3    H215666   2.662   7.563   2.117
 5241TIP3   OH215667   3.716   5.165   3.244
 5241TIP3    H115668   3.648   5.212   3.291
 5241TIP3    H215669   3.669   5.107   3.184
 5242TIP3   OH215670   0.050   4.356   6.337
 5242TIP3    H115671   0.040   4.402   6.420
 5242TIP3    H215672  -0.029   4.377   6.287
 5243TIP3   OH215673   3.756   1.159   0.934
 5243TIP3    H115674   3.834   1.121   0.975
 5243TIP3    H215675   3.788   1.233   0.884
 5244TIP3   OH215676   7.469   2.689   3.018
 5244TIP3    H115677   7.438   2.704   2.929
 5244TIP3    H215678   7.429   2.606   3.043
 5245TIP3   OH215679   4.449   7.483   1.678
 5245TIP3    H115680   4.533   7.456   1.715
 5245TIP3    H215681   4.391   7.492   1.754
 5246TIP3   OH215682   2.250   3.158   2.890
 5246TIP3    H115683   2.333   3.183   2.850
 5246TIP3    H215684   2.244   3.063   2.878
 5247TIP3   OH215685   0.105   5.088   6.390
 5247TIP3    H115686   0.086   5.181   6.390
 5247TIP3    H215687   0.103   5.063   6.483
 5248TIP3   OH215688   1.328   0.889   4.870
 5248TIP3    H115689   1.305   0.810   4.919
 5248TIP3    H215690   1.422   0.881   4.855
 5249TIP3   OH215691   6.893   5.569   1.013
 5249TIP3    H115692   6.844   5.578   1.095
 5249TIP3    H215693   6.832   5.601   0.946
 5250TIP3   OH215694   3.087   1.476   6.108
 5250TIP3    H115695   3.049   1.534   6.174
 5250TIP3    H215696   3.051   1.390   6.128
 5251TIP3   OH215697   5.053   5.212   4.238
 5251TIP3    H115698   5.127   5.239   4.292
 5251TIP3    H215699   5.055   5.271   4.163
 5252TIP3   OH215700   7.953   5.855   3.381
 5252TIP3    H115701   7.959   5.771   3.425
 5252TIP3    H215702   7.919   5.834   3.294
 5253TIP3   OH215703   0.362   1.400   2.267
 5253TIP3    H115704   0.390   1.440   2.350
 5253TIP3    H215705   0.357   1.474   2.206
 5254TIP3   OH215706   1.482   7.736   4.479
 5254TIP3    H115707   1.522   7.690   4.405
 5254TIP3    H215708   1.531   7.706   4.555
 5255TIP3   OH215709   6.183   4.244   3.632
 5255TIP3    H115710   6.247   4.213   3.697
 5255TIP3    H215711   6.181   4.339   3.645
 5256TIP3   OH215712   2.222   3.481   0.753
 5256TIP3    H115713   2.176   3.504   0.673
 5256TIP3    H215714   2.278   3.556   0.772
 5257TIP3   OH215715   6.577   2.088   0.786
 5257TIP3    H115716   6.519   2.012   0.782
 5257TIP3    H215717   6.518   2.163   0.783
 5258TIP3   OH215718   5.469   3.909   3.136
 5258TIP3    H115719   5.520   3.983   3.169
 5258TIP3    H215720   5.426   3.942   3.057
 5259TIP3   OH215721   7.736   3.157   1.406
 5259TIP3    H115722   7.686   3.124   1.331
 5259TIP3    H215723   7.747   3.080   1.462
 5260TIP3   OH215724   5.177   4.133   5.708
 5260TIP3    H115725   5.236   4.118   5.781
 5260TIP3    H215726   5.137   4.048   5.692
 5261TIP3   OH215727   4.365   6.617   0.937
 5261TIP3    H115728   4.453   6.607   0.975
 5261TIP3    H215729   4.342   6.528   0.909
 5262TIP3   OH215730   1.584   1.740   0.374
 5262TIP3    H115731   1.627   1.712   0.455
 5262TIP3    H215732   1.568   1.834   0.387
 5263TIP3   OH215733   2.857   5.371   0.470
 5263TIP3    H115734   2.830   5.365   0.379
 5263TIP3    H215735   2.871   5.464   0.485
 5264TIP3   OH215736   0.370   7.645   5.833
 5264TIP3    H115737   0.368   7.685   5.746
 5264TIP3    H215738   0.278   7.630   5.854
 5265TIP3   OH215739   5.786   7.171   6.666
 5265TIP3    H115740   5.860   7.155   6.725
 5265TIP3    H215741   5.827   7.186   6.580
 5266TIP3   OH215742   0.861   6.303   0.048
 5266TIP3    H115743   0.828   6.318  -0.041
 5266TIP3    H215744   0.807   6.359   0.103
 5267TIP3   OH215745   5.026   7.371   5.268
 5267TIP3    H115746   4.974   7.310   5.215
 5267TIP3    H215747   4.991   7.458   5.246
 5268TIP3   OH215748   7.606   5.164   4.928
 5268TIP3    H115749   7.627   5.208   4.846
 5268TIP3    H215750   7.571   5.079   4.900
 5269TIP3   OH215751   6.165   7.631   0.505
 5269TIP3    H115752   6.114   7.557   0.473
 5269TIP3    H215753   6.103   7.704   0.508
 5270TIP3   OH215754   0.377   0.769   1.044
 5270TIP3    H115755   0.448   0.804   0.989
 5270TIP3    H215756   0.301   0.767   0.986
 5271TIP3   OH215757   6.393   1.952   2.673
 5271TIP3    H115758   6.416   2.038   2.640
 5271TIP3    H215759   6.477   1.909   2.690
 5272TIP3   OH215760   7.477   3.224   2.822
 5272TIP3    H115761   7.461   3.167   2.897
 5272TIP3    H215762   7.392   3.265   2.805
 5273TIP3   OH215763   3.288   0.130   0.348
 5273TIP3    H115764   3.353   0.060   0.353
 5273TIP3    H215765   3.224   0.099   0.283
 5274TIP3   OH215766   6.960   5.749   1.260
 5274TIP3    H115767   6.943   5.819   1.197
 5274TIP3    H215768   7.055   5.750   1.272
 5275TIP3   OH215769   0.189   5.621   3.933
 5275TIP3    H115770   0.209   5.527   3.926
 5275TIP3    H215771   0.155   5.645   3.847
 5276TIP3   OH215772   2.620   6.191   1.537
 5276TIP3    H115773   2.685   6.202   1.467
 5276TIP3    H215774   2.546   6.148   1.495
 5277TIP3   OH215775   4.518   0.340   6.673
 5277TIP3    H115776   4.460   0.348   6.749
 5277TIP3    H215777   4.537   0.431   6.648
 5278TIP3   OH215778   1.913   7.641   2.802
 5278TIP3    H115779   1.900   7.723   2.850
 5278TIP3    H215780   2.003   7.646   2.769
 5279TIP3   OH215781   0.887   6.620   6.416
 5279TIP3    H115782   0.829   6.545   6.399
 5279TIP3    H215783   0.955   6.585   6.474
 5280TIP3   OH215784   5.668   6.472   0.953
 5280TIP3    H115785   5.628   6.558   0.961
 5280TIP3    H215786   5.671   6.454   0.859
 5281TIP3   OH215787   3.653   2.077   6.798
 5281TIP3    H115788   3.681   2.169   6.798
 5281TIP3    H215789   3.580   2.074   6.736
 5282TIP3   OH215790   0.133   4.183   5.916
 5282TIP3    H115791   0.179   4.179   5.832
 5282TIP3    H215792   0.041   4.195   5.893
 5283TIP3   OH215793   1.411   1.982   2.316
 5283TIP3    H115794   1.407   1.888   2.330
 5283TIP3    H215795   1.498   2.007   2.348
 5284TIP3   OH215796   0.544   5.208   4.159
 5284TIP3    H115797   0.475   5.165   4.109
 5284TIP3    H215798   0.531   5.179   4.249
 5285TIP3   OH215799   3.897   2.615   6.715
 5285TIP3    H115800   3.934   2.571   6.792
 5285TIP3    H215801   3.969   2.667   6.680
 5286TIP3   OH215802   0.927   0.349   5.772
 5286TIP3    H115803   0.870   0.391   5.708
 5286TIP3    H215804   0.925   0.408   5.848
 5287TIP3   OH215805   3.942   7.541   2.070
 5287TIP3    H115806   3.854   7.560   2.104
 5287TIP3    H215807   3.959   7.611   2.007
 5288TIP3   OH215808   3.141   6.677   4.709
 5288TIP3    H115809   3.121   6.735   4.636
 5288TIP3    H215810   3.228   6.643   4.689
 5289TIP3   OH215811   7.683   0.621   1.930
 5289TIP3    H115812   7.673   0.716   1.924
 5289TIP3    H215813   7.687   0.603   2.024
 5290TIP3   OH215814   3.392   2.258   3.028
 5290TIP3    H115815   3.374   2.350   3.008
 5290TIP3    H215816   3.314   2.211   2.998
 5291TIP3   OH215817   0.547   2.591   4.239
 5291TIP3    H115818   0.613   2.555   4.298
 5291TIP3    H215819   0.468   2.599   4.293
 5292TIP3   OH215820   0.286   1.346   1.025
 5292TIP3    H115821   0.273   1.330   0.931
 5292TIP3    H215822   0.280   1.441   1.035
 5293TIP3   OH215823   3.128   0.843   0.406
 5293TIP3    H115824   3.033   0.850   0.407
 5293TIP3    H215825   3.159   0.933   0.392
 5294TIP3   OH215826   0.427   4.853   0.957
 5294TIP3    H115827   0.429   4.862   0.862
 5294TIP3    H215828   0.387   4.934   0.988
 5295TIP3   OH215829   2.484   7.246   4.968
 5295TIP3    H115830   2.479   7.150   4.975
 5295TIP3    H215831   2.393   7.274   4.960
 5296TIP3   OH215832   1.233   6.852   5.818
 5296TIP3    H115833   1.288   6.902   5.878
 5296TIP3    H215834   1.145   6.857   5.856
 5297TIP3   OH215835   4.076   6.528   4.304
 5297TIP3    H115836   4.155   6.474   4.299
 5297TIP3    H215837   4.014   6.473   4.353
 5298TIP3   OH215838   2.122   0.531   0.798
 5298TIP3    H115839   2.118   0.438   0.819
 5298TIP3    H215840   2.215   0.554   0.810
 5299TIP3   OH215841   4.475   3.855   2.700
 5299TIP3    H115842   4.552   3.846   2.643
 5299TIP3    H215843   4.510   3.891   2.782
 5300TIP3   OH215844   3.984   3.434   0.543
 5300TIP3    H115845   4.000   3.455   0.635
 5300TIP3    H215846   4.071   3.415   0.508
 5301TIP3   OH215847   5.941   1.770   4.945
 5301TIP3    H115848   5.923   1.797   5.035
 5301TIP3    H215849   6.033   1.795   4.931
 5302TIP3   OH215850   5.326   3.983   4.998
 5302TIP3    H115851   5.400   3.953   5.051
 5302TIP3    H215852   5.344   4.076   4.982
 5303TIP3   OH215853   5.867   5.806   1.118
 5303TIP3    H115854   5.944   5.836   1.166
 5303TIP3    H215855   5.799   5.797   1.185
 5304TIP3   OH215856   1.466   2.850   0.619
 5304TIP3    H115857   1.482   2.796   0.696
 5304TIP3    H215858   1.494   2.794   0.546
 5305TIP3   OH215859   7.781   6.835   3.687
 5305TIP3    H115860   7.780   6.772   3.759
 5305TIP3    H215861   7.719   6.903   3.713
 5306TIP3   OH215862   4.283   6.560   3.332
 5306TIP3    H115863   4.278   6.478   3.283
 5306TIP3    H215864   4.290   6.627   3.265
 5307TIP3   OH215865   8.193   2.157   6.225
 5307TIP3    H115866   8.144   2.081   6.257
 5307TIP3    H215867   8.147   2.183   6.146
 5308TIP3   OH215868   2.055   1.199   6.538
 5308TIP3    H115869   2.138   1.156   6.516
 5308TIP3    H215870   2.075   1.251   6.616
 5309TIP3   OH215871   5.008   1.853   1.146
 5309TIP3    H115872   4.938   1.860   1.080
 5309TIP3    H215873   4.963   1.864   1.230
 5310TIP3   OH215874   2.479   5.620   5.590
 5310TIP3    H115875   2.419   5.546   5.585
 5310TIP3    H215876   2.478   5.645   5.682
 5311TIP3   OH215877   1.005   1.664   6.281
 5311TIP3    H115878   0.910   1.652   6.280
 5311TIP3    H215879   1.041   1.576   6.292
 5312TIP3   OH215880   2.762   0.531   4.584
 5312TIP3    H115881   2.790   0.491   4.666
 5312TIP3    H215882   2.822   0.604   4.571
 5313TIP3   OH215883   4.289   2.104   2.579
 5313TIP3    H115884   4.234   2.098   2.501
 5313TIP3    H215885   4.250   2.174   2.631
 5314TIP3   OH215886   1.363   6.793   4.516
 5314TIP3    H115887   1.436   6.783   4.577
 5314TIP3    H215888   1.286   6.799   4.571
 5315TIP3   OH215889   1.965   3.507   0.139
 5315TIP3    H115890   1.925   3.583   0.096
 5315TIP3    H215891   2.058   3.528   0.143
 5316TIP3   OH215892   5.417   6.163   6.763
 5316TIP3    H115893   5.343   6.152   6.703
 5316TIP3    H215894   5.378   6.194   6.844
 5317TIP3   OH215895   7.202   4.139   3.301
 5317TIP3    H115896   7.228   4.068   3.359
 5317TIP3    H215897   7.111   4.157   3.324
 5318TIP3   OH215898   5.767   5.786   1.947
 5318TIP3    H115899   5.749   5.731   2.024
 5318TIP3    H215900   5.859   5.770   1.927
 5319TIP3   OH215901   6.328   5.351  -0.008
 5319TIP3    H115902   6.412   5.395  -0.022
 5319TIP3    H215903   6.318   5.350   0.087
 5320TIP3   OH215904   6.770   4.760   1.971
 5320TIP3    H115905   6.777   4.813   2.050
 5320TIP3    H215906   6.860   4.744   1.943
 5321TIP3   OH215907   5.757   2.167   1.915
 5321TIP3    H115908   5.684   2.219   1.948
 5321TIP3    H215909   5.779   2.108   1.987
 5322TIP3   OH215910   0.768   5.387   6.441
 5322TIP3    H115911   0.837   5.349   6.495
 5322TIP3    H215912   0.786   5.356   6.352
 5323TIP3   OH215913   0.877   3.312   6.463
 5323TIP3    H115914   0.878   3.230   6.512
 5323TIP3    H215915   0.870   3.380   6.530
 5324TIP3   OH215916   2.936   4.176   4.172
 5324TIP3    H115917   2.901   4.213   4.091
 5324TIP3    H215918   3.025   4.210   4.177
 5325TIP3   OH215919   0.129   6.206   4.743
 5325TIP3    H115920   0.033   6.204   4.737
 5325TIP3    H215921   0.153   6.116   4.765
 5326TIP3   OH215922   0.812   1.428   3.525
 5326TIP3    H115923   0.795   1.521   3.545
 5326TIP3    H215924   0.771   1.414   3.440
 5327TIP3   OH215925   7.873   5.143   0.008
 5327TIP3    H115926   7.929   5.096   0.071
 5327TIP3    H215927   7.853   5.078  -0.060
 5328TIP3   OH215928   5.297   6.218   6.452
 5328TIP3    H115929   5.218   6.192   6.499
 5328TIP3    H215930   5.299   6.314   6.458
 5329TIP3   OH215931   5.491   5.552   0.834
 5329TIP3    H115932   5.496   5.527   0.742
 5329TIP3    H215933   5.574   5.596   0.851
 5330TIP3   OH215934   6.762   2.286   4.911
 5330TIP3    H115935   6.731   2.197   4.896
 5330TIP3    H215936   6.834   2.297   4.848
 5331TIP3   OH215937   1.624   3.783   5.081
 5331TIP3    H115938   1.606   3.861   5.029
 5331TIP3    H215939   1.713   3.757   5.057
 5332TIP3   OH215940   0.695   1.081   0.748
 5332TIP3    H115941   0.713   1.173   0.767
 5332TIP3    H215942   0.745   1.033   0.815
 5333TIP3   OH215943   7.300   3.572   0.579
 5333TIP3    H115944   7.378   3.523   0.555
 5333TIP3    H215945   7.301   3.649   0.522
 5334TIP3   OH215946   0.261   0.883   2.416
 5334TIP3    H115947   0.332   0.861   2.477
 5334TIP3    H215948   0.207   0.947   2.463
 5335TIP3   OH215949   0.532   6.034   1.176
 5335TIP3    H115950   0.500   5.963   1.231
 5335TIP3    H215951   0.556   5.992   1.094
 5336TIP3   OH215952   6.298   5.298   0.264
 5336TIP3    H115953   6.247   5.295   0.345
 5336TIP3    H215954   6.389   5.293   0.292
 5337TIP3   OH215955   4.351   7.068   4.849
 5337TIP3    H115956   4.398   7.121   4.913
 5337TIP3    H215957   4.406   6.990   4.837
 5338TIP3   OH215958   5.516   6.656   5.097
 5338TIP3    H115959   5.493   6.659   5.190
 5338TIP3    H215960   5.431   6.658   5.052
 5339TIP3   OH215961   4.069   6.267   1.850
 5339TIP3    H115962   4.022   6.196   1.807
 5339TIP3    H215963   4.083   6.236   1.940
 5340TIP3   OH215964   6.538   3.467   4.477
 5340TIP3    H115965   6.508   3.541   4.424
 5340TIP3    H215966   6.617   3.498   4.521
 5341TIP3   OH215967   3.520   6.267   5.115
 5341TIP3    H115968   3.572   6.189   5.094
 5341TIP3    H215969   3.568   6.309   5.186
 5342TIP3   OH215970   4.317   5.018   1.800
 5342TIP3    H115971   4.296   5.111   1.806
 5342TIP3    H215972   4.354   5.007   1.712
 5343TIP3   OH215973   6.432   6.333   4.607
 5343TIP3    H115974   6.369   6.311   4.676
 5343TIP3    H215975   6.474   6.414   4.638
 5344TIP3   OH215976   2.017   6.202   4.063
 5344TIP3    H115977   2.018   6.290   4.027
 5344TIP3    H215978   2.023   6.145   3.986
 5345TIP3   OH215979   1.178   0.989   4.663
 5345TIP3    H115980   1.094   0.946   4.676
 5345TIP3    H215981   1.224   0.977   4.746
 5346TIP3   OH215982   2.412   6.425   0.791
 5346TIP3    H115983   2.361   6.365   0.736
 5346TIP3    H215984   2.391   6.398   0.881
 5347TIP3   OH215985   0.580   5.953   5.139
 5347TIP3    H115986   0.496   5.951   5.184
 5347TIP3    H215987   0.573   6.026   5.078
 5348TIP3   OH215988   1.375   4.851   1.907
 5348TIP3    H115989   1.438   4.784   1.882
 5348TIP3    H215990   1.291   4.820   1.873
 5349TIP3   OH215991   6.882   5.182   2.306
 5349TIP3    H115992   6.844   5.174   2.219
 5349TIP3    H215993   6.819   5.233   2.355
 5350TIP3   OH215994   0.760   3.666   0.495
 5350TIP3    H115995   0.748   3.621   0.411
 5350TIP3    H215996   0.685   3.639   0.548
 5351TIP3   OH215997   7.714   4.649   5.753
 5351TIP3    H115998   7.805   4.641   5.782
 5351TIP3    H215999   7.709   4.593   5.675
 5352TIP3   OH216000   6.030   2.891   5.288
 5352TIP3    H116001   6.015   2.964   5.349
 5352TIP3    H216002   5.963   2.903   5.220
 5353TIP3   OH216003   2.150   0.749   6.243
 5353TIP3    H116004   2.235   0.767   6.284
 5353TIP3    H216005   2.103   0.695   6.307
 5354TIP3   OH216006   0.250   4.246   5.000
 5354TIP3    H116007   0.229   4.228   5.091
 5354TIP3    H216008   0.314   4.180   4.976
 5355TIP3   OH216009   3.787   6.572   2.809
 5355TIP3    H116010   3.774   6.540   2.898
 5355TIP3    H216011   3.719   6.637   2.796
 5356TIP3   OH216012   1.811   1.069   5.978
 5356TIP3    H116013   1.884   1.026   6.023
 5356TIP3    H216014   1.771   1.000   5.926
 5357TIP3   OH216015   3.106   3.262   3.579
 5357TIP3    H116016   3.099   3.173   3.546
 5357TIP3    H216017   3.053   3.262   3.659
 5358TIP3   OH216018   4.465   3.169   0.127
 5358TIP3    H116019   4.489   3.255   0.091
 5358TIP3    H216020   4.370   3.163   0.113
 5359TIP3   OH216021   4.789   1.009   5.052
 5359TIP3    H116022   4.714   0.972   5.005
 5359TIP3    H216023   4.810   1.089   5.005
 5360TIP3   OH216024   3.177   2.326   0.440
 5360TIP3    H116025   3.157   2.317   0.347
 5360TIP3    H216026   3.189   2.236   0.471
 5361TIP3   OH216027   0.712   1.152   4.339
 5361TIP3    H116028   0.805   1.134   4.346
 5361TIP3    H216029   0.673   1.106   4.414
 5362TIP3   OH216030   7.721   1.347   2.347
 5362TIP3    H116031   7.656   1.360   2.416
 5362TIP3    H216032   7.794   1.302   2.391
 5363TIP3   OH216033   0.209   5.098   5.335
 5363TIP3    H116034   0.295   5.059   5.318
 5363TIP3    H216035   0.185   5.065   5.422
 5364TIP3   OH216036   6.141   1.113   0.652
 5364TIP3    H116037   6.227   1.087   0.683
 5364TIP3    H216038   6.089   1.124   0.731
 5365TIP3   OH216039   3.025   2.771   1.896
 5365TIP3    H116040   3.090   2.822   1.848
 5365TIP3    H216041   3.020   2.812   1.982
 5366TIP3   OH216042   2.417   6.007   1.414
 5366TIP3    H116043   2.408   6.061   1.336
 5366TIP3    H216044   2.461   5.928   1.383
 5367TIP3   OH216045   5.659   6.761   5.504
 5367TIP3    H116046   5.617   6.804   5.429
 5367TIP3    H216047   5.713   6.692   5.465
 5368TIP3   OH216048   5.300   4.068   5.930
 5368TIP3    H116049   5.354   3.989   5.918
 5368TIP3    H216050   5.354   4.125   5.984
 5369TIP3   OH216051   4.529   6.600   0.556
 5369TIP3    H116052   4.450   6.545   0.564
 5369TIP3    H216053   4.500   6.687   0.582
 5370TIP3   OH216054   1.456   5.727   6.139
 5370TIP3    H116055   1.483   5.691   6.055
 5370TIP3    H216056   1.529   5.784   6.165
 5371TIP3   OH216057   3.782   4.007   6.691
 5371TIP3    H116058   3.794   4.058   6.611
 5371TIP3    H216059   3.863   4.022   6.741
 5372TIP3   OH216060   7.111   7.218   6.319
 5372TIP3    H116061   7.136   7.308   6.342
 5372TIP3    H216062   7.182   7.187   6.263
 5373TIP3   OH216063   0.428   0.722   0.643
 5373TIP3    H116064   0.344   0.751   0.607
 5373TIP3    H216065   0.462   0.661   0.578
 5374TIP3   OH216066   2.999   1.094   1.363
 5374TIP3    H116067   2.965   1.005   1.363
 5374TIP3    H216068   2.947   1.140   1.297
 5375TIP3   OH216069   1.901   3.251   3.454
 5375TIP3    H116070   1.947   3.223   3.533
 5375TIP3    H216071   1.936   3.194   3.385
 5376TIP3   OH216072   8.021   2.471   4.879
 5376TIP3    H116073   7.953   2.414   4.843
 5376TIP3    H216074   7.994   2.486   4.970
 5377TIP3   OH216075   1.659   3.319   0.090
 5377TIP3    H116076   1.718   3.256   0.048
 5377TIP3    H216077   1.640   3.383   0.021
 5378TIP3   OH216078   1.170   3.195   0.647
 5378TIP3    H116079   1.242   3.153   0.694
 5378TIP3    H216080   1.096   3.135   0.659
 5379TIP3   OH216081   1.577   1.843   5.000
 5379TIP3    H116082   1.606   1.874   5.086
 5379TIP3    H216083   1.501   1.897   4.979
 5380TIP3   OH216084   7.001   3.168   4.714
 5380TIP3    H116085   6.999   3.077   4.744
 5380TIP3    H216086   7.093   3.182   4.689
 5381TIP3   OH216087   3.862   0.620   3.546
 5381TIP3    H116088   3.787   0.642   3.600
 5381TIP3    H216089   3.928   0.685   3.568
 5382TIP3   OH216090   6.636   3.761   5.053
 5382TIP3    H116091   6.674   3.687   5.099
 5382TIP3    H216092   6.570   3.796   5.112
 5383TIP3   OH216093   3.126   5.254   5.031
 5383TIP3    H116094   3.150   5.315   4.962
 5383TIP3    H216095   3.031   5.244   5.022
 5384TIP3   OH216096   3.977   2.324   6.605
 5384TIP3    H116097   3.889   2.328   6.567
 5384TIP3    H216098   4.010   2.238   6.581
 5385TIP3   OH216099   2.962   0.993   0.699
 5385TIP3    H116100   2.894   0.974   0.635
 5385TIP3    H216101   2.943   1.081   0.730
 5386TIP3   OH216102   7.338   1.155   1.301
 5386TIP3    H116103   7.357   1.094   1.230
 5386TIP3    H216104   7.243   1.149   1.312
 5387TIP3   OH216105   2.247   2.836   3.351
 5387TIP3    H116106   2.179   2.863   3.414
 5387TIP3    H216107   2.320   2.895   3.368
 5388TIP3   OH216108   8.077   7.645   5.889
 5388TIP3    H116109   8.067   7.553   5.865
 5388TIP3    H216110   8.112   7.643   5.978
 5389TIP3   OH216111   1.407   7.322   5.006
 5389TIP3    H116112   1.360   7.277   5.076
 5389TIP3    H216113   1.487   7.353   5.048
 5390TIP3   OH216114   0.502   2.200   0.894
 5390TIP3    H116115   0.449   2.204   0.814
 5390TIP3    H216116   0.583   2.156   0.867
 5391TIP3   OH216117   5.101   0.776   4.041
 5391TIP3    H116118   5.120   0.741   3.954
 5391TIP3    H216119   5.155   0.855   4.047
 5392TIP3   OH216120   2.579   7.603   3.052
 5392TIP3    H116121   2.624   7.604   3.136
 5392TIP3    H216122   2.648   7.614   2.987
 5393TIP3   OH216123   2.414   0.212   2.790
 5393TIP3    H116124   2.468   0.238   2.715
 5393TIP3    H216125   2.369   0.293   2.815
 5394TIP3   OH216126   5.449   6.802   0.070
 5394TIP3    H116127   5.488   6.731   0.120
 5394TIP3    H216128   5.507   6.877   0.084
 5395TIP3   OH216129   6.046   4.828   3.079
 5395TIP3    H116130   6.106   4.880   3.132
 5395TIP3    H216131   6.094   4.810   2.998
 5396TIP3   OH216132   7.187   2.599   0.451
 5396TIP3    H116133   7.277   2.629   0.441
 5396TIP3    H216134   7.181   2.570   0.542
 5397TIP3   OH216135   6.073   5.764   0.125
 5397TIP3    H116136   6.031   5.691   0.170
 5397TIP3    H216137   6.108   5.725   0.045
 5398TIP3   OH216138   3.730   2.208   3.533
 5398TIP3    H116139   3.650   2.246   3.570
 5398TIP3    H216140   3.698   2.144   3.469
 5399TIP3   OH216141   2.897   1.905   6.075
 5399TIP3    H116142   2.861   1.959   6.146
 5399TIP3    H216143   2.821   1.875   6.026
 5400TIP3   OH216144   2.809   1.517   1.929
 5400TIP3    H116145   2.828   1.536   1.838
 5400TIP3    H216146   2.884   1.466   1.959
 5401TIP3   OH216147   7.802   4.757   3.015
 5401TIP3    H116148   7.814   4.759   2.920
 5401TIP3    H216149   7.811   4.665   3.038
 5402TIP3   OH216150   1.218   3.707   0.358
 5402TIP3    H116151   1.170   3.646   0.414
 5402TIP3    H216152   1.219   3.789   0.407
 5403TIP3   OH216153   7.330   7.654   2.944
 5403TIP3    H116154   7.301   7.563   2.941
 5403TIP3    H216155   7.251   7.703   2.967
 5404TIP3   OH216156   7.712   4.396   1.892
 5404TIP3    H116157   7.681   4.486   1.902
 5404TIP3    H216158   7.805   4.400   1.913
 5405TIP3   OH216159   1.428   0.313   0.723
 5405TIP3    H116160   1.479   0.350   0.795
 5405TIP3    H216161   1.342   0.295   0.761
 5406TIP3   OH216162   4.293   1.803   5.367
 5406TIP3    H116163   4.263   1.731   5.312
 5406TIP3    H216164   4.375   1.771   5.406
 5407TIP3   OH216165   1.479   7.549   6.479
 5407TIP3    H116166   1.503   7.641   6.491
 5407TIP3    H216167   1.537   7.502   6.538
 5408TIP3   OH216168   5.260   4.548   1.637
 5408TIP3    H116169   5.182   4.559   1.691
 5408TIP3    H216170   5.258   4.456   1.611
 5409TIP3   OH216171   1.081   5.908   1.446
 5409TIP3    H116172   1.116   5.846   1.510
 5409TIP3    H216173   1.021   5.857   1.392
 5410TIP3   OH216174   8.077   6.267  -0.018
 5410TIP3    H116175   8.113   6.234   0.064
 5410TIP3    H216176   8.154   6.279  -0.075
 5411TIP3   OH216177   4.330   1.080   2.433
 5411TIP3    H116178   4.417   1.099   2.397
 5411TIP3    H216179   4.346   1.064   2.526
 5412TIP3   OH216180   5.223   1.531   3.079
 5412TIP3    H116181   5.303   1.515   3.029
 5412TIP3    H216182   5.250   1.528   3.170
 5413TIP3   OH216183   1.714   2.185   3.355
 5413TIP3    H116184   1.770   2.133   3.298
 5413TIP3    H216185   1.774   2.240   3.405
 5414TIP3   OH216186   2.608   5.294   4.758
 5414TIP3    H116187   2.521   5.325   4.732
 5414TIP3    H216188   2.634   5.353   4.828
 5415TIP3   OH216189   1.643   4.240   2.655
 5415TIP3    H116190   1.685   4.180   2.718
 5415TIP3    H216191   1.572   4.188   2.617
 5416TIP3   OH216192   0.442   5.328   3.107
 5416TIP3    H116193   0.535   5.312   3.124
 5416TIP3    H216194   0.413   5.382   3.181
 5417TIP3   OH216195   2.882   3.786   5.005
 5417TIP3    H116196   2.786   3.789   5.010
 5417TIP3    H216197   2.900   3.766   4.913
 5418TIP3   OH216198   3.388   7.388   6.378
 5418TIP3    H116199   3.332   7.333   6.323
 5418TIP3    H216200   3.470   7.339   6.386
 5419TIP3   OH216201   4.505   4.187   2.888
 5419TIP3    H116202   4.545   4.100   2.890
 5419TIP3    H216203   4.430   4.178   2.829
 5420TIP3   OH216204   2.487   2.945   3.362
 5420TIP3    H116205   2.516   2.955   3.271
 5420TIP3    H216206   2.553   2.887   3.401
 5421TIP3   OH216207   6.587   6.397   5.225
 5421TIP3    H116208   6.556   6.306   5.225
 5421TIP3    H216209   6.562   6.431   5.310
 5422TIP3   OH216210   1.406   6.620   5.866
 5422TIP3    H116211   1.346   6.694   5.853
 5422TIP3    H216212   1.349   6.544   5.875
 5423TIP3   OH216213   0.674   7.262   4.822
 5423TIP3    H116214   0.580   7.277   4.834
 5423TIP3    H216215   0.697   7.317   4.748
 5424TIP3   OH216216   8.039   3.862   0.694
 5424TIP3    H116217   8.018   3.845   0.786
 5424TIP3    H216218   8.069   3.953   0.693
 5425TIP3   OH216219   4.535   4.737   4.621
 5425TIP3    H116220   4.585   4.816   4.642
 5425TIP3    H216221   4.533   4.735   4.525
 5426TIP3   OH216222   2.574   5.098   5.000
 5426TIP3    H116223   2.642   5.103   5.067
 5426TIP3    H216224   2.622   5.080   4.919
 5427TIP3   OH216225   8.048   0.514   4.823
 5427TIP3    H116226   8.133   0.471   4.817
 5427TIP3    H216227   7.985   0.442   4.827
 5428TIP3   OH216228   4.056   6.949   2.937
 5428TIP3    H116229   4.092   6.982   2.855
 5428TIP3    H216230   4.130   6.950   2.998
 5429TIP3   OH216231   3.927   7.676   5.610
 5429TIP3    H116232   3.857   7.682   5.675
 5429TIP3    H216233   3.961   7.587   5.620
 5430TIP3   OH216234   1.404   1.414   1.583
 5430TIP3    H116235   1.455   1.372   1.514
 5430TIP3    H216236   1.463   1.481   1.619
 5431TIP3   OH216237   1.183   5.430   2.038
 5431TIP3    H116238   1.214   5.486   1.967
 5431TIP3    H216239   1.260   5.413   2.092
 5432TIP3   OH216240   7.702   6.856   4.994
 5432TIP3    H116241   7.731   6.824   5.080
 5432TIP3    H216242   7.607   6.848   4.997
 5433TIP3   OH216243   1.724   1.400   3.729
 5433TIP3    H116244   1.685   1.485   3.711
 5433TIP3    H216245   1.675   1.367   3.804
 5434TIP3   OH216246   0.327   3.059   5.735
 5434TIP3    H116247   0.322   3.102   5.820
 5434TIP3    H216248   0.242   3.078   5.694
 5435TIP3   OH216249   3.428   5.992   4.848
 5435TIP3    H116250   3.429   5.982   4.753
 5435TIP3    H216251   3.335   5.987   4.871
 5436TIP3   OH216252   2.361   2.786   2.006
 5436TIP3    H116253   2.417   2.806   1.931
 5436TIP3    H216254   2.404   2.829   2.080
 5437TIP3   OH216255   6.446   0.511   5.685
 5437TIP3    H116256   6.487   0.428   5.658
 5437TIP3    H216257   6.435   0.502   5.780
 5438TIP3   OH216258   0.933   6.117   1.699
 5438TIP3    H116259   0.984   6.092   1.776
 5438TIP3    H216260   0.986   6.089   1.624
 5439TIP3   OH216261   7.650   0.766   4.771
 5439TIP3    H116262   7.644   0.842   4.713
 5439TIP3    H216263   7.561   0.732   4.776
 5440TIP3   OH216264   0.821   3.973   4.536
 5440TIP3    H116265   0.810   3.948   4.445
 5440TIP3    H216266   0.735   3.958   4.576
 5441TIP3   OH216267   4.626   7.038   6.195
 5441TIP3    H116268   4.667   6.964   6.240
 5441TIP3    H216269   4.664   7.038   6.108
 5442TIP3   OH216270   0.772   7.724   4.337
 5442TIP3    H116271   0.735   7.637   4.351
 5442TIP3    H216272   0.864   7.715   4.363
 5443TIP3   OH216273   6.202   7.783   6.383
 5443TIP3    H116274   6.264   7.743   6.322
 5443TIP3    H216275   6.199   7.875   6.358
 5444TIP3   OH216276   0.424   7.725   6.399
 5444TIP3    H116277   0.515   7.755   6.391
 5444TIP3    H216278   0.428   7.631   6.381
 5445TIP3   OH216279   6.266   3.990   0.717
 5445TIP3    H116280   6.223   3.935   0.782
 5445TIP3    H216281   6.345   3.941   0.692
 5446TIP3   OH216282   6.722   4.236   0.602
 5446TIP3    H116283   6.649   4.224   0.663
 5446TIP3    H216284   6.714   4.326   0.572
 5447TIP3   OH216285   5.124   5.174   6.506
 5447TIP3    H116286   5.123   5.263   6.543
 5447TIP3    H216287   5.170   5.183   6.423
 5448TIP3   OH216288   8.080   4.009   6.268
 5448TIP3    H116289   8.088   4.104   6.253
 5448TIP3    H216290   7.989   3.989   6.245
 5449TIP3   OH216291   1.142   1.109   2.973
 5449TIP3    H116292   1.143   1.168   3.048
 5449TIP3    H216293   1.195   1.154   2.907
 5450TIP3   OH216294   6.030   2.436   5.236
 5450TIP3    H116295   6.068   2.524   5.238
 5450TIP3    H216296   6.024   2.414   5.143
 5451TIP3   OH216297   7.407   6.040   1.506
 5451TIP3    H116298   7.467   6.106   1.539
 5451TIP3    H216299   7.454   5.957   1.515
 5452TIP3   OH216300   6.722   5.110   3.313
 5452TIP3    H116301   6.679   5.033   3.276
 5452TIP3    H216302   6.781   5.140   3.244
 5453TIP3   OH216303   0.992   7.239   1.909
 5453TIP3    H116304   0.979   7.332   1.891
 5453TIP3    H216305   0.918   7.214   1.964
 5454TIP3   OH216306   0.138   2.037   6.478
 5454TIP3    H116307   0.163   2.059   6.388
 5454TIP3    H216308   0.108   1.947   6.474
 5455TIP3   OH216309   4.652   0.389   4.484
 5455TIP3    H116310   4.733   0.349   4.517
 5455TIP3    H216311   4.589   0.377   4.555
 5456TIP3   OH216312   0.993   6.536   0.098
 5456TIP3    H116313   0.980   6.442   0.081
 5456TIP3    H216314   0.950   6.550   0.183
 5457TIP3   OH216315   1.473   2.543   1.372
 5457TIP3    H116316   1.561   2.581   1.381
 5457TIP3    H216317   1.437   2.585   1.295
 5458TIP3   OH216318   0.252   6.512   2.386
 5458TIP3    H116319   0.236   6.418   2.376
 5458TIP3    H216320   0.269   6.543   2.297
 5459TIP3   OH216321   3.931   1.733   3.265
 5459TIP3    H116322   3.979   1.715   3.184
 5459TIP3    H216323   3.973   1.811   3.301
 5460TIP3   OH216324   6.299   3.135   5.893
 5460TIP3    H116325   6.323   3.085   5.815
 5460TIP3    H216326   6.379   3.182   5.917
 5461TIP3   OH216327   3.186   1.548   2.327
 5461TIP3    H116328   3.226   1.461   2.329
 5461TIP3    H216329   3.102   1.534   2.282
 5462TIP3   OH216330   2.630   0.664   6.496
 5462TIP3    H116331   2.593   0.737   6.447
 5462TIP3    H216332   2.564   0.644   6.563
 5463TIP3   OH216333   5.108   0.656   3.455
 5463TIP3    H116334   5.095   0.750   3.446
 5463TIP3    H216335   5.193   0.647   3.497
 5464TIP3   OH216336   2.746   5.428   6.473
 5464TIP3    H116337   2.811   5.377   6.425
 5464TIP3    H216338   2.763   5.408   6.565
 5465TIP3   OH216339   6.195   2.416   4.344
 5465TIP3    H116340   6.210   2.503   4.379
 5465TIP3    H216341   6.281   2.387   4.313
 5466TIP3   OH216342   1.480   6.726   6.253
 5466TIP3    H116343   1.511   6.763   6.335
 5466TIP3    H216344   1.386   6.713   6.267
 5467TIP3   OH216345   1.442   5.722   2.520
 5467TIP3    H116346   1.425   5.815   2.512
 5467TIP3    H216347   1.526   5.708   2.476
 5468TIP3   OH216348   5.907   0.206   6.407
 5468TIP3    H116349   5.862   0.209   6.323
 5468TIP3    H216350   5.839   0.229   6.471
 5469TIP3   OH216351   0.113   6.140   4.446
 5469TIP3    H116352   0.056   6.197   4.395
 5469TIP3    H216353   0.126   6.186   4.528
 5470TIP3   OH216354   5.604   3.135   2.638
 5470TIP3    H116355   5.656   3.182   2.704
 5470TIP3    H216356   5.605   3.193   2.562
 5471TIP3   OH216357   3.750   3.651   3.399
 5471TIP3    H116358   3.777   3.562   3.420
 5471TIP3    H216359   3.718   3.687   3.482
 5472TIP3   OH216360  -0.026   6.415   2.765
 5472TIP3    H116361   0.042   6.354   2.735
 5472TIP3    H216362  -0.001   6.499   2.726
 5473TIP3   OH216363   4.423   5.681   6.023
 5473TIP3    H116364   4.416   5.653   5.932
 5473TIP3    H216365   4.517   5.690   6.038
 5474TIP3   OH216366   6.905   2.144   6.532
 5474TIP3    H116367   6.996   2.121   6.554
 5474TIP3    H216368   6.856   2.063   6.545
 5475TIP3   OH216369   3.688   1.913   0.330
 5475TIP3    H116370   3.600   1.944   0.306
 5475TIP3    H216371   3.743   1.940   0.257
 5476TIP3   OH216372   4.444   5.484   6.735
 5476TIP3    H116373   4.426   5.556   6.796
 5476TIP3    H216374   4.357   5.448   6.716
 5477TIP3   OH216375   2.838   3.215   1.107
 5477TIP3    H116376   2.779   3.248   1.175
 5477TIP3    H216377   2.850   3.122   1.129
 5478TIP3   OH216378   7.510   6.093   0.362
 5478TIP3    H116379   7.510   5.998   0.369
 5478TIP3    H216380   7.439   6.112   0.300
 5479TIP3   OH216381   3.700   4.732   4.659
 5479TIP3    H116382   3.774   4.791   4.647
 5479TIP3    H216383   3.624   4.783   4.630
 5480TIP3   OH216384   1.865   1.360   1.040
 5480TIP3    H116385   1.899   1.271   1.047
 5480TIP3    H216386   1.938   1.416   1.069
 5481TIP3   OH216387   4.225   3.799   3.653
 5481TIP3    H116388   4.233   3.888   3.688
 5481TIP3    H216389   4.235   3.742   3.729
 5482TIP3   OH216390   3.326   4.364   4.495
 5482TIP3    H116391   3.382   4.417   4.439
 5482TIP3    H216392   3.278   4.428   4.548
 5483TIP3   OH216393   4.262   4.547   3.084
 5483TIP3    H116394   4.196   4.503   3.031
 5483TIP3    H216395   4.274   4.632   3.043
 5484TIP3   OH216396   5.799   0.377   4.316
 5484TIP3    H116397   5.754   0.296   4.293
 5484TIP3    H216398   5.785   0.386   4.411
 5485TIP3   OH216399   5.025   4.770   2.492
 5485TIP3    H116400   5.087   4.697   2.495
 5485TIP3    H216401   5.066   4.834   2.434
 5486TIP3   OH216402   4.026   5.435   0.518
 5486TIP3    H116403   3.966   5.456   0.447
 5486TIP3    H216404   4.111   5.425   0.475
 5487TIP3   OH216405   0.019   4.443   5.830
 5487TIP3    H116406   0.114   4.437   5.821
 5487TIP3    H216407  -0.014   4.424   5.742
 5488TIP3   OH216408   5.094   7.408   1.647
 5488TIP3    H116409   5.018   7.440   1.597
 5488TIP3    H216410   5.142   7.488   1.669
 5489TIP3   OH216411   2.056   6.083   1.374
 5489TIP3    H116412   2.129   6.029   1.404
 5489TIP3    H216413   2.095   6.143   1.310
 5490TIP3   OH216414   3.945   5.700   2.290
 5490TIP3    H116415   3.991   5.772   2.245
 5490TIP3    H216416   3.975   5.621   2.246
 5491TIP3   OH216417   6.561   5.882   3.638
 5491TIP3    H116418   6.539   5.789   3.638
 5491TIP3    H216419   6.501   5.920   3.702
 5492TIP3   OH216420   4.964   1.037   6.094
 5492TIP3    H116421   5.058   1.026   6.082
 5492TIP3    H216422   4.946   1.125   6.061
 5493TIP3   OH216423   2.924   7.556   4.674
 5493TIP3    H116424   2.846   7.612   4.674
 5493TIP3    H216425   2.913   7.499   4.749
 5494TIP3   OH216426   8.136   3.009   0.448
 5494TIP3    H116427   8.081   3.082   0.478
 5494TIP3    H216428   8.098   2.984   0.364
 5495TIP3   OH216429   8.046   6.108   3.765
 5495TIP3    H116430   8.013   6.189   3.804
 5495TIP3    H216431   8.140   6.109   3.786
 5496TIP3   OH216432   7.064   7.245   5.919
 5496TIP3    H116433   7.158   7.235   5.906
 5496TIP3    H216434   7.031   7.156   5.928
 5497TIP3   OH216435   0.517   1.772   1.260
 5497TIP3    H116436   0.543   1.712   1.190
 5497TIP3    H216437   0.521   1.859   1.220
 5498TIP3   OH216438   5.169   1.935   6.385
 5498TIP3    H116439   5.174   1.932   6.290
 5498TIP3    H216440   5.109   1.864   6.409
 5499TIP3   OH216441   0.407   2.277   3.934
 5499TIP3    H116442   0.432   2.185   3.937
 5499TIP3    H216443   0.368   2.288   3.847
 5500TIP3   OH216444   0.278   6.141   3.779
 5500TIP3    H116445   0.333   6.216   3.802
 5500TIP3    H216446   0.274   6.143   3.683
 5501TIP3   OH216447   7.047   3.222   0.572
 5501TIP3    H116448   7.089   3.161   0.633
 5501TIP3    H216449   7.037   3.302   0.622
 5502TIP3   OH216450   4.780   2.183   4.711
 5502TIP3    H116451   4.801   2.277   4.715
 5502TIP3    H216452   4.831   2.151   4.637
 5503TIP3   OH216453   6.703   0.628   6.557
 5503TIP3    H116454   6.750   0.639   6.474
 5503TIP3    H216455   6.676   0.716   6.582
 5504TIP3   OH216456   4.030   4.512   3.552
 5504TIP3    H116457   4.090   4.537   3.481
 5504TIP3    H216458   3.985   4.435   3.520
 5505TIP3   OH216459   5.183   2.612   4.495
 5505TIP3    H116460   5.113   2.648   4.440
 5505TIP3    H216461   5.159   2.637   4.584
 5506TIP3   OH216462   5.313   7.417   0.121
 5506TIP3    H116463   5.377   7.435   0.052
 5506TIP3    H216464   5.242   7.479   0.105
 5507TIP3   OH216465   6.139   0.001   6.570
 5507TIP3    H116466   6.050   0.018   6.540
 5507TIP3    H216467   6.171   0.086   6.600
 5508TIP3   OH216468   6.911   4.204   5.980
 5508TIP3    H116469   6.854   4.250   6.041
 5508TIP3    H216470   6.855   4.137   5.940
 5509TIP3   OH216471   1.708   4.551   4.046
 5509TIP3    H116472   1.691   4.499   3.967
 5509TIP3    H216473   1.750   4.630   4.014
 5510TIP3   OH216474   5.202   3.334   5.938
 5510TIP3    H116475   5.239   3.422   5.936
 5510TIP3    H216476   5.263   3.283   5.991
 5511TIP3   OH216477   2.889   1.614   5.402
 5511TIP3    H116478   2.954   1.545   5.415
 5511TIP3    H216479   2.861   1.637   5.491
 5512TIP3   OH216480   6.950   1.029   0.129
 5512TIP3    H116481   7.004   1.101   0.161
 5512TIP3    H216482   6.869   1.071   0.100
 5513TIP3   OH216483   3.957   2.528   0.491
 5513TIP3    H116484   3.999   2.445   0.516
 5513TIP3    H216485   3.865   2.504   0.479
 5514TIP3   OH216486   7.843   1.082   4.642
 5514TIP3    H116487   7.800   1.150   4.694
 5514TIP3    H216488   7.902   1.038   4.703
 5515TIP3   OH216489   6.604   0.648   1.407
 5515TIP3    H116490   6.592   0.555   1.390
 5515TIP3    H216491   6.695   0.666   1.383
 5516TIP3   OH216492   1.089   1.123   0.329
 5516TIP3    H116493   1.145   1.157   0.399
 5516TIP3    H216494   1.114   1.174   0.252
 5517TIP3   OH216495   6.666   4.341   2.170
 5517TIP3    H116496   6.646   4.354   2.078
 5517TIP3    H216497   6.726   4.412   2.192
 5518TIP3   OH216498   0.398   5.542   5.925
 5518TIP3    H116499   0.449   5.468   5.891
 5518TIP3    H216500   0.416   5.614   5.865
 5519TIP3   OH216501   5.949   0.989   5.131
 5519TIP3    H116502   5.896   0.995   5.210
 5519TIP3    H216503   5.997   0.907   5.141
 5520TIP3   OH216504   7.648   6.624   4.474
 5520TIP3    H116505   7.700   6.666   4.542
 5520TIP3    H216506   7.641   6.533   4.501
 5521TIP3   OH216507   5.619   3.229   4.093
 5521TIP3    H116508   5.713   3.222   4.080
 5521TIP3    H216509   5.593   3.146   4.132
 5522TIP3   OH216510   6.792   2.038   2.471
 5522TIP3    H116511   6.804   2.086   2.388
 5522TIP3    H216512   6.785   1.947   2.444
 5523TIP3   OH216513   0.432   3.875   6.473
 5523TIP3    H116514   0.355   3.927   6.448
 5523TIP3    H216515   0.459   3.912   6.557
 5524TIP3   OH216516   1.308   2.908   2.165
 5524TIP3    H116517   1.236   2.923   2.104
 5524TIP3    H216518   1.327   2.814   2.157
 5525TIP3   OH216519   6.777   0.238   6.459
 5525TIP3    H116520   6.808   0.166   6.405
 5525TIP3    H216521   6.692   0.262   6.422
 5526TIP3   OH216522   5.264   5.799   5.582
 5526TIP3    H116523   5.288   5.708   5.600
 5526TIP3    H216524   5.178   5.793   5.541
 5527TIP3   OH216525   1.299   3.139   4.078
 5527TIP3    H116526   1.267   3.117   4.166
 5527TIP3    H216527   1.256   3.075   4.020
 5528TIP3   OH216528   1.039   4.420   0.320
 5528TIP3    H116529   0.958   4.397   0.276
 5528TIP3    H216530   1.086   4.337   0.329
 5529TIP3   OH216531   5.574   4.866   4.056
 5529TIP3    H116532   5.633   4.919   4.003
 5529TIP3    H216533   5.504   4.926   4.081
 5530TIP3   OH216534   5.985   2.700   4.292
 5530TIP3    H116535   5.935   2.695   4.210
 5530TIP3    H216536   5.970   2.616   4.335
 5531TIP3   OH216537   1.271   0.444   6.742
 5531TIP3    H116538   1.198   0.474   6.797
 5531TIP3    H216539   1.350   0.474   6.788
 5532TIP3   OH216540   4.178   5.620   1.262
 5532TIP3    H116541   4.144   5.692   1.313
 5532TIP3    H216542   4.157   5.542   1.313
 5533TIP3   OH216543   7.775   4.076   3.390
 5533TIP3    H116544   7.720   4.010   3.346
 5533TIP3    H216545   7.838   4.025   3.441
 5534TIP3   OH216546   5.247   6.648   5.019
 5534TIP3    H116547   5.274   6.676   5.107
 5534TIP3    H216548   5.166   6.599   5.033
 5535TIP3   OH216549   7.306   0.018   4.477
 5535TIP3    H116550   7.279  -0.064   4.520
 5535TIP3    H216551   7.225   0.055   4.443
 5536TIP3   OH216552   3.841   0.899   3.195
 5536TIP3    H116553   3.803   0.813   3.175
 5536TIP3    H216554   3.913   0.879   3.255
 5537TIP3   OH216555   0.239   7.229   1.294
 5537TIP3    H116556   0.205   7.231   1.383
 5537TIP3    H216557   0.186   7.162   1.250
 5538TIP3   OH216558   6.540   7.450   2.640
 5538TIP3    H116559   6.512   7.513   2.707
 5538TIP3    H216560   6.468   7.447   2.578
 5539TIP3   OH216561   1.661   5.977   3.805
 5539TIP3    H116562   1.706   6.033   3.743
 5539TIP3    H216563   1.630   6.036   3.874
 5540TIP3   OH216564   8.282   1.843   5.043
 5540TIP3    H116565   8.265   1.828   4.950
 5540TIP3    H216566   8.355   1.904   5.044
 5541TIP3   OH216567   3.945   7.599   3.395
 5541TIP3    H116568   3.941   7.509   3.365
 5541TIP3    H216569   3.867   7.641   3.359
 5542TIP3   OH216570   0.566   1.779   3.099
 5542TIP3    H116571   0.476   1.795   3.127
 5542TIP3    H216572   0.585   1.851   3.038
 5543TIP3   OH216573   0.206   1.667   5.999
 5543TIP3    H116574   0.291   1.695   5.964
 5543TIP3    H216575   0.143   1.689   5.930
 5544TIP3   OH216576   3.689   6.622   1.229
 5544TIP3    H116577   3.733   6.574   1.299
 5544TIP3    H216578   3.746   6.697   1.211
 5545TIP3   OH216579   0.499   4.728   1.616
 5545TIP3    H116580   0.568   4.705   1.554
 5545TIP3    H216581   0.531   4.695   1.700
 5546TIP3   OH216582   2.495   7.761   5.057
 5546TIP3    H116583   2.512   7.725   5.144
 5546TIP3    H216584   2.454   7.689   5.009
 5547TIP3   OH216585   1.216   5.525   5.002
 5547TIP3    H116586   1.171   5.558   4.925
 5547TIP3    H216587   1.232   5.432   4.983
 5548TIP3   OH216588   7.037   0.866   3.613
 5548TIP3    H116589   7.037   0.786   3.560
 5548TIP3    H216590   7.082   0.931   3.559
 5549TIP3   OH216591   1.867   2.113   5.065
 5549TIP3    H116592   1.774   2.130   5.083
 5549TIP3    H216593   1.900   2.072   5.145
 5550TIP3   OH216594   6.114   4.752   1.687
 5550TIP3    H116595   6.042   4.693   1.708
 5550TIP3    H216596   6.098   4.777   1.595
 5551TIP3   OH216597   3.316   7.191   4.130
 5551TIP3    H116598   3.344   7.207   4.040
 5551TIP3    H216599   3.324   7.277   4.173
 5552TIP3   OH216600   0.882   2.111   3.818
 5552TIP3    H116601   0.895   2.050   3.746
 5552TIP3    H216602   0.818   2.175   3.784
 5553TIP3   OH216603   1.219   6.001   6.163
 5553TIP3    H116604   1.162   6.079   6.163
 5553TIP3    H216605   1.175   5.940   6.222
 5554TIP3   OH216606   7.775   2.610   6.151
 5554TIP3    H116607   7.759   2.559   6.072
 5554TIP3    H216608   7.807   2.695   6.119
 5555TIP3   OH216609   3.719   7.713   3.310
 5555TIP3    H116610   3.652   7.691   3.374
 5555TIP3    H216611   3.701   7.657   3.234
 5556TIP3   OH216612   1.141   2.276   1.003
 5556TIP3    H116613   1.116   2.259   1.094
 5556TIP3    H216614   1.221   2.225   0.990
 5557TIP3   OH216615   1.434   7.121   6.653
 5557TIP3    H116616   1.503   7.107   6.588
 5557TIP3    H216617   1.367   7.172   6.607
 5558TIP3   OH216618   4.967   2.690   1.685
 5558TIP3    H116619   4.962   2.697   1.589
 5558TIP3    H216620   4.924   2.608   1.705
 5559TIP3   OH216621   7.887   7.648   2.303
 5559TIP3    H116622   7.971   7.676   2.266
 5559TIP3    H216623   7.833   7.626   2.227
 5560TIP3   OH216624   3.343   1.217   4.731
 5560TIP3    H116625   3.253   1.198   4.706
 5560TIP3    H216626   3.341   1.218   4.827
 5561TIP3   OH216627   3.629   6.532   1.634
 5561TIP3    H116628   3.662   6.572   1.714
 5561TIP3    H216629   3.536   6.517   1.652
 5562TIP3   OH216630   8.004   5.908   1.318
 5562TIP3    H116631   8.033   5.850   1.248
 5562TIP3    H216632   7.909   5.909   1.311
 5563TIP3   OH216633   8.234   3.276   4.081
 5563TIP3    H116634   8.286   3.249   4.006
 5563TIP3    H216635   8.296   3.282   4.154
 5564TIP3   OH216636   4.714   6.740   5.243
 5564TIP3    H116637   4.705   6.766   5.335
 5564TIP3    H216638   4.640   6.781   5.199
 5565TIP3   OH216639   2.339   0.776   0.778
 5565TIP3    H116640   2.412   0.837   0.771
 5565TIP3    H216641   2.357   0.709   0.712
 5566TIP3   OH216642   2.754   4.343   6.128
 5566TIP3    H116643   2.844   4.347   6.162
 5566TIP3    H216644   2.704   4.300   6.198
 5567TIP3   OH216645   1.939   4.602   4.198
 5567TIP3    H116646   1.927   4.691   4.165
 5567TIP3    H216647   1.868   4.551   4.159
 5568TIP3   OH216648   2.734   2.784   2.074
 5568TIP3    H116649   2.798   2.844   2.035
 5568TIP3    H216650   2.738   2.707   2.018
 5569TIP3   OH216651   3.324   0.118   5.246
 5569TIP3    H116652   3.270   0.040   5.235
 5569TIP3    H216653   3.262   0.191   5.234
 5570TIP3   OH216654   0.688   4.345   4.597
 5570TIP3    H116655   0.606   4.296   4.602
 5570TIP3    H216656   0.735   4.306   4.523
 5571TIP3   OH216657   4.387   5.267   4.211
 5571TIP3    H116658   4.345   5.278   4.296
 5571TIP3    H216659   4.399   5.357   4.179
 5572TIP3   OH216660   3.152   1.461   3.949
 5572TIP3    H116661   3.134   1.537   4.003
 5572TIP3    H216662   3.145   1.386   4.008
 5573TIP3   OH216663   7.498   1.348   1.638
 5573TIP3    H116664   7.523   1.358   1.730
 5573TIP3    H216665   7.402   1.350   1.639
 5574TIP3   OH216666   7.281   1.140   2.869
 5574TIP3    H116667   7.283   1.221   2.920
 5574TIP3    H216668   7.188   1.127   2.849
 5575TIP3   OH216669   3.731   1.181   5.451
 5575TIP3    H116670   3.651   1.232   5.465
 5575TIP3    H216671   3.772   1.221   5.375
 5576TIP3   OH216672   2.146   1.138   1.121
 5576TIP3    H116673   2.072   1.093   1.161
 5576TIP3    H216674   2.190   1.071   1.069
 5577TIP3   OH216675   2.076   0.458   2.959
 5577TIP3    H116676   2.154   0.462   2.904
 5577TIP3    H216677   2.003   0.456   2.898
 5578TIP3   OH216678   4.507   4.763   1.009
 5578TIP3    H116679   4.417   4.787   0.986
 5578TIP3    H216680   4.559   4.839   0.984
 5579TIP3   OH216681   4.192   1.450   6.736
 5579TIP3    H116682   4.205   1.488   6.648
 5579TIP3    H216683   4.134   1.375   6.721
 5580TIP3   OH216684   5.128   4.490   6.360
 5580TIP3    H116685   5.122   4.585   6.347
 5580TIP3    H216686   5.087   4.452   6.283
 5581TIP3   OH216687   3.280   0.952   0.172
 5581TIP3    H116688   3.360   0.959   0.120
 5581TIP3    H216689   3.256   0.859   0.168
 5582TIP3   OH216690   7.589   5.102   5.699
 5582TIP3    H116691   7.585   5.021   5.647
 5582TIP3    H216692   7.680   5.131   5.692
 5583TIP3   OH216693   4.583   1.938   1.492
 5583TIP3    H116694   4.567   1.993   1.415
 5583TIP3    H216695   4.628   1.996   1.553
 5584TIP3   OH216696   7.543   1.617   1.225
 5584TIP3    H116697   7.504   1.622   1.312
 5584TIP3    H216698   7.468   1.599   1.167
 5585TIP3   OH216699   6.835   2.769   5.978
 5585TIP3    H116700   6.860   2.677   5.981
 5585TIP3    H216701   6.857   2.797   5.889
 5586TIP3   OH216702   4.515   7.219   3.238
 5586TIP3    H116703   4.442   7.278   3.219
 5586TIP3    H216704   4.591   7.276   3.249
 5587TIP3   OH216705   5.262   0.374   4.419
 5587TIP3    H116706   5.292   0.310   4.354
 5587TIP3    H216707   5.331   0.441   4.420
 5588TIP3   OH216708   1.493   4.171   2.036
 5588TIP3    H116709   1.400   4.188   2.049
 5588TIP3    H216710   1.532   4.258   2.029
 5589TIP3   OH216711   8.221   1.671   1.719
 5589TIP3    H116712   8.265   1.586   1.712
 5589TIP3    H216713   8.145   1.663   1.662
 5590TIP3   OH216714   2.808   6.780   4.060
 5590TIP3    H116715   2.797   6.842   3.989
 5590TIP3    H216716   2.873   6.717   4.026
 5591TIP3   OH216717   7.285   4.464   6.200
 5591TIP3    H116718   7.248   4.384   6.163
 5591TIP3    H216719   7.214   4.529   6.193
 5592TIP3   OH216720   4.160   1.586   0.291
 5592TIP3    H116721   4.108   1.568   0.369
 5592TIP3    H216722   4.119   1.663   0.252
 5593TIP3   OH216723   2.397   1.169   3.691
 5593TIP3    H116724   2.344   1.105   3.739
 5593TIP3    H216725   2.385   1.251   3.740
 5594TIP3   OH216726   5.790   3.431   2.035
 5594TIP3    H116727   5.875   3.472   2.054
 5594TIP3    H216728   5.803   3.387   1.951
 5595TIP3   OH216729   3.077   0.047   0.160
 5595TIP3    H116730   3.024   0.119   0.124
 5595TIP3    H216731   3.022   0.009   0.228
 5596TIP3   OH216732   2.481   7.298   4.172
 5596TIP3    H116733   2.498   7.331   4.084
 5596TIP3    H216734   2.502   7.371   4.230
 5597TIP3   OH216735   6.004   6.750   3.385
 5597TIP3    H116736   6.020   6.800   3.465
 5597TIP3    H216737   5.955   6.673   3.415
 5598TIP3   OH216738   5.496   0.729   4.597
 5598TIP3    H116739   5.586   0.722   4.628
 5598TIP3    H216740   5.442   0.722   4.677
 5599TIP3   OH216741   7.738   5.532   5.231
 5599TIP3    H116742   7.666   5.469   5.225
 5599TIP3    H216743   7.749   5.549   5.324
 5600TIP3   OH216744   4.794   0.074   5.342
 5600TIP3    H116745   4.756   0.091   5.256
 5600TIP3    H216746   4.724   0.033   5.393
 5601TIP3   OH216747   0.211   3.539   6.687
 5601TIP3    H116748   0.260   3.520   6.766
 5601TIP3    H216749   0.131   3.581   6.718
 5602TIP3   OH216750   2.520   5.880   2.665
 5602TIP3    H116751   2.582   5.898   2.595
 5602TIP3    H216752   2.564   5.814   2.719
 5603TIP3   OH216753   6.495   6.756  -0.010
 5603TIP3    H116754   6.547   6.680  -0.035
 5603TIP3    H216755   6.540   6.793   0.066
 5604TIP3   OH216756   1.036   6.604   5.014
 5604TIP3    H116757   1.121   6.648   5.008
 5604TIP3    H216758   1.011   6.588   4.923
 5605TIP3   OH216759   4.550   3.077   6.142
 5605TIP3    H116760   4.582   2.987   6.148
 5605TIP3    H216761   4.497   3.078   6.062
 5606TIP3   OH216762   7.866   6.114   0.096
 5606TIP3    H116763   7.860   6.182   0.030
 5606TIP3    H216764   7.922   6.047   0.057
 5607TIP3   OH216765   2.049   6.721   0.377
 5607TIP3    H116766   2.089   6.681   0.300
 5607TIP3    H216767   1.969   6.670   0.392
 5608TIP3   OH216768   4.666   1.183   6.037
 5608TIP3    H116769   4.671   1.164   5.943
 5608TIP3    H216770   4.670   1.097   6.079
 5609TIP3   OH216771   1.054   1.270   4.129
 5609TIP3    H116772   1.044   1.357   4.168
 5609TIP3    H216773   1.031   1.209   4.199
 5610TIP3   OH216774   7.858   4.388   5.257
 5610TIP3    H116775   7.937   4.442   5.248
 5610TIP3    H216776   7.812   4.400   5.173
 5611TIP3   OH216777   1.725   4.498   2.611
 5611TIP3    H116778   1.743   4.546   2.692
 5611TIP3    H216779   1.710   4.408   2.640
 5612TIP3   OH216780   7.123   0.044   5.152
 5612TIP3    H116781   7.148   0.018   5.063
 5612TIP3    H216782   7.086   0.131   5.142
 5613TIP3   OH216783   1.154   4.671   6.384
 5613TIP3    H116784   1.061   4.691   6.394
 5613TIP3    H216785   1.160   4.619   6.304
 5614TIP3   OH216786   1.144   7.855   0.862
 5614TIP3    H116787   1.072   7.795   0.844
 5614TIP3    H216788   1.181   7.825   0.945
 5615TIP3   OH216789   0.434   1.595   2.920
 5615TIP3    H116790   0.433   1.499   2.927
 5615TIP3    H216791   0.492   1.623   2.990
 5616TIP3   OH216792   7.645   0.475   3.897
 5616TIP3    H116793   7.570   0.417   3.909
 5616TIP3    H216794   7.711   0.441   3.956
 5617TIP3   OH216795   5.098   5.893   0.755
 5617TIP3    H116796   5.153   5.817   0.734
 5617TIP3    H216797   5.080   5.934   0.670
 5618TIP3   OH216798   8.201   6.303   5.976
 5618TIP3    H116799   8.121   6.322   5.927
 5618TIP3    H216800   8.224   6.386   6.018
 5619TIP3   OH216801   0.071   5.670   5.713
 5619TIP3    H116802   0.018   5.748   5.730
 5619TIP3    H216803   0.018   5.618   5.652
 5620TIP3   OH216804   6.011   6.432   3.664
 5620TIP3    H116805   6.085   6.443   3.724
 5620TIP3    H216806   6.005   6.338   3.650
 5621TIP3   OH216807   1.330   2.558   1.057
 5621TIP3    H116808   1.420   2.540   1.030
 5621TIP3    H216809   1.305   2.483   1.111
 5622TIP3   OH216810   4.745   0.890   4.488
 5622TIP3    H116811   4.797   0.865   4.412
 5622TIP3    H216812   4.657   0.905   4.452
 5623TIP3   OH216813   2.180   5.649   0.612
 5623TIP3    H116814   2.268   5.622   0.585
 5623TIP3    H216815   2.194   5.695   0.695
 5624TIP3   OH216816   3.982   2.689   4.451
 5624TIP3    H116817   3.929   2.675   4.529
 5624TIP3    H216818   3.962   2.615   4.394
 5625TIP3   OH216819   3.317   7.780   0.631
 5625TIP3    H116820   3.227   7.811   0.619
 5625TIP3    H216821   3.363   7.813   0.555
 5626TIP3   OH216822   4.539   3.161   3.073
 5626TIP3    H116823   4.541   3.071   3.106
 5626TIP3    H216824   4.465   3.201   3.118
 5627TIP3   OH216825   4.524   4.315   3.448
 5627TIP3    H116826   4.470   4.392   3.464
 5627TIP3    H216827   4.506   4.291   3.357
 5628TIP3   OH216828   1.988   0.875   6.604
 5628TIP3    H116829   1.926   0.903   6.537
 5628TIP3    H216830   1.939   0.882   6.686
 5629TIP3   OH216831   0.024   0.424   2.197
 5629TIP3    H116832   0.061   0.480   2.265
 5629TIP3    H216833   0.048   0.467   2.115
 5630TIP3   OH216834   0.438   7.681   2.783
 5630TIP3    H116835   0.385   7.677   2.863
 5630TIP3    H216836   0.375   7.692   2.712
 5631TIP3   OH216837   1.294   3.712   6.314
 5631TIP3    H116838   1.221   3.668   6.359
 5631TIP3    H216839   1.253   3.756   6.240
 5632TIP3   OH216840   6.513   4.383   4.712
 5632TIP3    H116841   6.556   4.354   4.793
 5632TIP3    H216842   6.585   4.401   4.652
 5633TIP3   OH216843   2.980   5.994   5.520
 5633TIP3    H116844   3.011   5.950   5.441
 5633TIP3    H216845   3.054   6.049   5.547
 5634TIP3   OH216846   5.284   5.860   4.872
 5634TIP3    H116847   5.339   5.923   4.824
 5634TIP3    H216848   5.343   5.788   4.893
 5635TIP3   OH216849   2.075   4.026   6.782
 5635TIP3    H116850   2.037   3.940   6.764
 5635TIP3    H216851   2.167   4.007   6.803
 5636TIP3   OH216852   5.681   4.344   3.326
 5636TIP3    H116853   5.591   4.317   3.345
 5636TIP3    H216854   5.732   4.310   3.399
 5637TIP3   OH216855   1.173   4.111   3.802
 5637TIP3    H116856   1.187   4.199   3.838
 5637TIP3    H216857   1.208   4.117   3.712
 5638TIP3   OH216858   3.821   6.822   5.811
 5638TIP3    H116859   3.858   6.742   5.850
 5638TIP3    H216860   3.788   6.793   5.726
 5639TIP3   OH216861   3.114   5.719   1.609
 5639TIP3    H116862   3.171   5.777   1.659
 5639TIP3    H216863   3.031   5.721   1.657
 5640TIP3   OH216864   6.286   6.663   2.926
 5640TIP3    H116865   6.379   6.643   2.926
 5640TIP3    H216866   6.272   6.715   3.005
 5641TIP3   OH216867   4.800   0.925   5.604
 5641TIP3    H116868   4.792   0.896   5.513
 5641TIP3    H216869   4.785   0.846   5.656
 5642TIP3   OH216870   6.395   7.739   5.040
 5642TIP3    H116871   6.380   7.673   5.108
 5642TIP3    H216872   6.435   7.691   4.968
 5643TIP3   OH216873   3.429   3.620   1.219
 5643TIP3    H116874   3.379   3.557   1.165
 5643TIP3    H216875   3.367   3.648   1.286
 5644TIP3   OH216876   3.424   7.495   2.171
 5644TIP3    H116877   3.450   7.415   2.217
 5644TIP3    H216878   3.344   7.472   2.124
 5645TIP3   OH216879   6.238   0.078   3.510
 5645TIP3    H116880   6.175   0.147   3.534
 5645TIP3    H216881   6.296   0.119   3.446
 5646TIP3   OH216882   2.745   7.771   2.910
 5646TIP3    H116883   2.760   7.730   2.825
 5646TIP3    H216884   2.768   7.863   2.896
 5647TIP3   OH216885   5.869   1.535   4.067
 5647TIP3    H116886   5.807   1.463   4.079
 5647TIP3    H216887   5.940   1.498   4.015
 5648TIP3   OH216888   2.240   1.332   3.900
 5648TIP3    H116889   2.245   1.425   3.875
 5648TIP3    H216890   2.149   1.308   3.884
 5649TIP3   OH216891   3.218   2.858   6.096
 5649TIP3    H116892   3.266   2.786   6.055
 5649TIP3    H216893   3.137   2.864   6.046
 5650TIP3   OH216894   5.968   1.919   3.265
 5650TIP3    H116895   5.938   2.010   3.258
 5650TIP3    H216896   5.976   1.904   3.359
 5651TIP3   OH216897   5.717   1.024   2.595
 5651TIP3    H116898   5.656   1.093   2.572
 5651TIP3    H216899   5.661   0.949   2.618
 5652TIP3   OH216900   5.646   1.643   2.208
 5652TIP3    H116901   5.729   1.596   2.197
 5652TIP3    H216902   5.600   1.593   2.276
 5653TIP3   OH216903   6.720   1.997   5.700
 5653TIP3    H116904   6.629   2.007   5.673
 5653TIP3    H216905   6.768   1.982   5.618
 5654TIP3   OH216906   3.260   4.077   4.432
 5654TIP3    H116907   3.290   4.160   4.468
 5654TIP3    H216908   3.311   4.066   4.352
 5655TIP3   OH216909   6.649   5.377   6.454
 5655TIP3    H116910   6.681   5.344   6.538
 5655TIP3    H216911   6.576   5.319   6.433
 5656TIP3   OH216912   7.532   4.628   3.381
 5656TIP3    H116913   7.611   4.645   3.331
 5656TIP3    H216914   7.495   4.549   3.342
 5657TIP3   OH216915   3.345   0.397   6.308
 5657TIP3    H116916   3.259   0.437   6.312
 5657TIP3    H216917   3.334   0.311   6.349
 5658TIP3   OH216918   7.517   3.073   3.778
 5658TIP3    H116919   7.444   3.012   3.784
 5658TIP3    H216920   7.595   3.018   3.777
 5659TIP3   OH216921   6.509   2.287   1.540
 5659TIP3    H116922   6.589   2.302   1.590
 5659TIP3    H216923   6.538   2.253   1.456
 5660TIP3   OH216924   0.155   7.467   5.354
 5660TIP3    H116925   0.083   7.404   5.347
 5660TIP3    H216926   0.222   7.433   5.295
 5661TIP3   OH216927   1.557   3.991   2.234
 5661TIP3    H116928   1.533   4.048   2.161
 5661TIP3    H216929   1.583   3.909   2.194
 5662TIP3   OH216930   5.286   7.152   0.628
 5662TIP3    H116931   5.349   7.154   0.556
 5662TIP3    H216932   5.279   7.243   0.655
 5663TIP3   OH216933   5.720   5.865   1.696
 5663TIP3    H116934   5.809   5.833   1.681
 5663TIP3    H216935   5.701   5.842   1.786
 5664TIP3   OH216936   0.390   7.192   6.273
 5664TIP3    H116937   0.457   7.171   6.209
 5664TIP3    H216938   0.315   7.223   6.221
 5665TIP3   OH216939   3.007   7.476   1.505
 5665TIP3    H116940   3.087   7.433   1.475
 5665TIP3    H216941   2.993   7.546   1.441
 5666TIP3   OH216942   7.168   7.331   2.101
 5666TIP3    H116943   7.246   7.277   2.115
 5666TIP3    H216944   7.110   7.277   2.048
 5667TIP3   OH216945   0.892   1.631   1.124
 5667TIP3    H116946   0.966   1.673   1.168
 5667TIP3    H216947   0.870   1.692   1.053
 5668TIP3   OH216948   5.711   5.343   6.670
 5668TIP3    H116949   5.741   5.264   6.716
 5668TIP3    H216950   5.791   5.396   6.660
 5669TIP3   OH216951   0.339   3.897   2.354
 5669TIP3    H116952   0.360   3.811   2.317
 5669TIP3    H216953   0.251   3.916   2.320
 5670TIP3   OH216954   3.554   3.918   0.819
 5670TIP3    H116955   3.474   3.951   0.860
 5670TIP3    H216956   3.586   3.852   0.881
 5671TIP3   OH216957   0.530   5.958   6.117
 5671TIP3    H116958   0.459   6.015   6.089
 5671TIP3    H216959   0.547   5.902   6.041
 5672TIP3   OH216960   3.609   2.709   0.250
 5672TIP3    H116961   3.598   2.790   0.300
 5672TIP3    H216962   3.703   2.704   0.233
 5673TIP3   OH216963  -0.001   5.271   2.196
 5673TIP3    H116964  -0.016   5.300   2.106
 5673TIP3    H216965   0.078   5.318   2.223
 5674TIP3   OH216966   3.608   7.207   1.733
 5674TIP3    H116967   3.607   7.292   1.690
 5674TIP3    H216968   3.590   7.226   1.825
 5675TIP3   OH216969   4.214   7.545   2.993
 5675TIP3    H116970   4.134   7.512   3.035
 5675TIP3    H216971   4.214   7.639   3.014
 5676TIP3   OH216972   7.629   7.191   1.537
 5676TIP3    H116973   7.725   7.193   1.539
 5676TIP3    H216974   7.608   7.098   1.522
 5677TIP3   OH216975   6.926   1.190   2.291
 5677TIP3    H116976   6.895   1.211   2.203
 5677TIP3    H216977   6.875   1.114   2.317
 5678TIP3   OH216978   5.882   1.504   2.195
 5678TIP3    H116979   5.967   1.539   2.167
 5678TIP3    H216980   5.879   1.416   2.157
 5679TIP3   OH216981   4.753   3.082   2.408
 5679TIP3    H116982   4.807   3.067   2.330
 5679TIP3    H216983   4.810   3.131   2.467
 5680TIP3   OH216984   6.110   4.344   1.685
 5680TIP3    H116985   6.093   4.323   1.593
 5680TIP3    H216986   6.169   4.274   1.714
 5681TIP3   OH216987   2.423   7.602   1.061
 5681TIP3    H116988   2.332   7.596   1.089
 5681TIP3    H216989   2.466   7.652   1.130
 5682TIP3   OH216990   6.539   6.394   0.345
 5682TIP3    H116991   6.476   6.451   0.300
 5682TIP3    H216992   6.527   6.309   0.303
 5683TIP3   OH216993   3.143   2.941   2.993
 5683TIP3    H116994   3.221   2.886   2.987
 5683TIP3    H216995   3.073   2.889   2.952
 5684TIP3   OH216996   7.177   1.813   2.162
 5684TIP3    H116997   7.089   1.850   2.166
 5684TIP3    H216998   7.172   1.732   2.214
 5685TIP3   OH216999   6.462   7.373   2.184
 5685TIP3    H117000   6.460   7.301   2.121
 5685TIP3    H217001   6.396   7.434   2.152
 5686TIP3   OH217002   6.357   4.279   0.606
 5686TIP3    H117003   6.411   4.356   0.589
 5686TIP3    H217004   6.402   4.235   0.679
 5687TIP3   OH217005   0.690   4.251   5.680
 5687TIP3    H117006   0.614   4.203   5.713
 5687TIP3    H217007   0.653   4.321   5.626
 5688TIP3   OH217008   4.141   1.845   6.523
 5688TIP3    H117009   4.188   1.813   6.445
 5688TIP3    H217010   4.205   1.839   6.594
 5689TIP3   OH217011   1.246   4.447   3.023
 5689TIP3    H117012   1.170   4.497   3.051
 5689TIP3    H217013   1.320   4.507   3.035
 5690TIP3   OH217014   6.863   2.163   4.527
 5690TIP3    H117015   6.874   2.090   4.588
 5690TIP3    H217016   6.818   2.125   4.451
 5691TIP3   OH217017   7.141   1.003   6.739
 5691TIP3    H117018   7.157   1.089   6.780
 5691TIP3    H217019   7.209   0.996   6.672
 5692TIP3   OH217020   1.473   4.855   1.481
 5692TIP3    H117021   1.495   4.762   1.487
 5692TIP3    H217022   1.541   4.899   1.533
 5693TIP3   OH217023   7.711   7.043   5.860
 5693TIP3    H117024   7.776   6.980   5.891
 5693TIP3    H217025   7.739   7.064   5.770
 5694TIP3   OH217026   5.874   0.152   2.982
 5694TIP3    H117027   5.943   0.209   2.947
 5694TIP3    H217028   5.795   0.182   2.937
 5695TIP3   OH217029   0.741   7.560   5.195
 5695TIP3    H117030   0.762   7.649   5.165
 5695TIP3    H217031   0.803   7.504   5.148
 5696TIP3   OH217032   6.235   5.770   2.939
 5696TIP3    H117033   6.314   5.723   2.912
 5696TIP3    H217034   6.254   5.799   3.028
 5697TIP3   OH217035   6.480   3.917   6.688
 5697TIP3    H117036   6.445   3.998   6.726
 5697TIP3    H217037   6.434   3.847   6.734
 5698TIP3   OH217038   0.377   7.041   3.118
 5698TIP3    H117039   0.376   7.043   3.022
 5698TIP3    H217040   0.439   7.110   3.143
 5699TIP3   OH217041   1.562   5.073   2.578
 5699TIP3    H117042   1.572   5.009   2.648
 5699TIP3    H217043   1.476   5.055   2.540
 5700TIP3   OH217044   8.278   4.693   0.972
 5700TIP3    H117045   8.342   4.623   0.957
 5700TIP3    H217046   8.224   4.662   1.044
 5701TIP3   OH217047   2.260   2.633   4.857
 5701TIP3    H117048   2.299   2.582   4.786
 5701TIP3    H217049   2.266   2.724   4.828
 5702TIP3   OH217050   3.342   5.216   5.573
 5702TIP3    H117051   3.413   5.157   5.600
 5702TIP3    H217052   3.297   5.237   5.654
 5703TIP3   OH217053   6.086   4.900   0.731
 5703TIP3    H117054   6.161   4.859   0.775
 5703TIP3    H217055   6.010   4.851   0.763
 5704TIP3   OH217056   4.144   4.775   2.549
 5704TIP3    H117057   4.137   4.681   2.566
 5704TIP3    H217058   4.055   4.802   2.525
 5705TIP3   OH217059   4.065   0.332   4.421
 5705TIP3    H117060   4.062   0.239   4.400
 5705TIP3    H217061   4.132   0.339   4.490
 5706TIP3   OH217062   5.021   3.001   5.107
 5706TIP3    H117063   4.964   3.076   5.126
 5706TIP3    H217064   5.041   2.964   5.193
 5707TIP3   OH217065   4.457   2.682   0.281
 5707TIP3    H117066   4.528   2.689   0.217
 5707TIP3    H217067   4.453   2.768   0.323
 5708TIP3   OH217068   2.667   4.524   3.613
 5708TIP3    H117069   2.592   4.472   3.583
 5708TIP3    H217070   2.663   4.519   3.708
 5709TIP3   OH217071   4.229   3.501   1.787
 5709TIP3    H117072   4.247   3.573   1.848
 5709TIP3    H217073   4.257   3.534   1.702
 5710TIP3   OH217074   0.663   2.689   2.467
 5710TIP3    H117075   0.620   2.742   2.399
 5710TIP3    H217076   0.610   2.610   2.473
 5711TIP3   OH217077   5.039   4.084   6.024
 5711TIP3    H117078   5.126   4.047   6.012
 5711TIP3    H217079   4.985   4.011   6.055
 5712TIP3   OH217080   4.147   6.609   5.631
 5712TIP3    H117081   4.176   6.669   5.562
 5712TIP3    H217082   4.138   6.524   5.586
 5713TIP3   OH217083   1.618   1.992   0.458
 5713TIP3    H117084   1.575   2.030   0.534
 5713TIP3    H217085   1.701   2.040   0.450
 5714TIP3   OH217086   1.712   0.884   1.371
 5714TIP3    H117087   1.697   0.799   1.330
 5714TIP3    H217088   1.798   0.875   1.414
 5715TIP3   OH217089   5.101   0.407   5.596
 5715TIP3    H117090   5.190   0.441   5.587
 5715TIP3    H217091   5.099   0.369   5.684
 5716TIP3   OH217092   5.763   5.662   2.197
 5716TIP3    H117093   5.757   5.648   2.292
 5716TIP3    H217094   5.677   5.694   2.172
 5717TIP3   OH217095   1.202   5.619   4.464
 5717TIP3    H117096   1.169   5.600   4.552
 5717TIP3    H217097   1.227   5.533   4.429
 5718TIP3   OH217098   7.983   2.191   2.826
 5718TIP3    H117099   7.925   2.218   2.754
 5718TIP3    H217100   8.012   2.274   2.864
 5719TIP3   OH217101   2.452   0.247   3.297
 5719TIP3    H117102   2.424   0.330   3.258
 5719TIP3    H217103   2.488   0.272   3.382
 5720TIP3   OH217104   6.744   0.516   0.766
 5720TIP3    H117105   6.686   0.591   0.780
 5720TIP3    H217106   6.714   0.451   0.829
 5721TIP3   OH217107   5.223   6.204   5.698
 5721TIP3    H117108   5.202   6.238   5.611
 5721TIP3    H217109   5.319   6.207   5.702
 5722TIP3   OH217110   4.828   4.197   5.850
 5722TIP3    H117111   4.915   4.157   5.859
 5722TIP3    H217112   4.838   4.285   5.887
 5723TIP3   OH217113   5.308   3.697   6.550
 5723TIP3    H117114   5.375   3.672   6.614
 5723TIP3    H217115   5.245   3.625   6.552
 5724TIP3   OH217116   3.615   0.447   6.450
 5724TIP3    H117117   3.710   0.448   6.457
 5724TIP3    H217118   3.594   0.355   6.434
 5725TIP3   OH217119   5.002   0.230   1.555
 5725TIP3    H117120   5.037   0.284   1.626
 5725TIP3    H217121   4.940   0.287   1.509
 5726TIP3   OH217122   5.095   6.213   4.196
 5726TIP3    H117123   5.054   6.135   4.234
 5726TIP3    H217124   5.187   6.208   4.224
 5727TIP3   OH217125   5.172   6.846   6.009
 5727TIP3    H117126   5.116   6.902   6.062
 5727TIP3    H217127   5.246   6.901   5.985
 5728TIP3   OH217128   5.528   3.448   2.138
 5728TIP3    H117129   5.603   3.452   2.078
 5728TIP3    H217130   5.452   3.443   2.080
 5729TIP3   OH217131   3.540   1.980   3.453
 5729TIP3    H117132   3.474   2.030   3.405
 5729TIP3    H217133   3.490   1.921   3.509
 5730TIP3   OH217134   8.138   4.871   4.875
 5730TIP3    H117135   8.148   4.840   4.784
 5730TIP3    H217136   8.228   4.880   4.906
 5731TIP3   OH217137   2.908   2.937   4.572
 5731TIP3    H117138   2.979   2.905   4.515
 5731TIP3    H217139   2.865   3.005   4.520
 5732TIP3   OH217140   4.248   0.942   6.497
 5732TIP3    H117141   4.222   0.862   6.544
 5732TIP3    H217142   4.182   0.953   6.429
 5733TIP3   OH217143   5.222   1.515   5.212
 5733TIP3    H117144   5.210   1.590   5.154
 5733TIP3    H217145   5.282   1.546   5.280
 5734TIP3   OH217146   4.631   2.795   3.424
 5734TIP3    H117147   4.684   2.813   3.502
 5734TIP3    H217148   4.593   2.709   3.440
 5735TIP3   OH217149   0.222   0.581   2.971
 5735TIP3    H117150   0.164   0.506   2.980
 5735TIP3    H217151   0.293   0.550   2.915
 5736TIP3   OH217152   2.975   1.889   3.005
 5736TIP3    H117153   2.987   1.802   2.965
 5736TIP3    H217154   2.951   1.870   3.096
 5737TIP3   OH217155   0.905   0.762   2.175
 5737TIP3    H117156   0.899   0.856   2.192
 5737TIP3    H217157   0.959   0.755   2.097
 5738TIP3   OH217158   7.763   3.112   4.625
 5738TIP3    H117159   7.729   3.061   4.552
 5738TIP3    H217160   7.826   3.053   4.668
 5739TIP3   OH217161   3.952   7.761   0.961
 5739TIP3    H117162   3.916   7.691   0.905
 5739TIP3    H217163   3.882   7.826   0.965
 5740TIP3   OH217164   1.207   4.622   1.312
 5740TIP3    H117165   1.260   4.614   1.233
 5740TIP3    H217166   1.247   4.561   1.374
 5741TIP3   OH217167   6.070   6.918   1.591
 5741TIP3    H117168   6.041   6.916   1.682
 5741TIP3    H217169   6.165   6.931   1.596
 5742TIP3   OH217170   5.090   4.291   3.897
 5742TIP3    H117171   5.035   4.367   3.879
 5742TIP3    H217172   5.108   4.253   3.810
 5743TIP3   OH217173   1.966   6.306   0.813
 5743TIP3    H117174   2.014   6.389   0.815
 5743TIP3    H217175   1.981   6.272   0.725
 5744TIP3   OH217176   7.522   0.947   5.118
 5744TIP3    H117177   7.568   0.866   5.093
 5744TIP3    H217178   7.509   0.993   5.035
 5745TIP3   OH217179   2.667   4.919   1.780
 5745TIP3    H117180   2.744   4.965   1.813
 5745TIP3    H217181   2.619   4.985   1.730
 5746TIP3   OH217182   6.452   4.954   5.813
 5746TIP3    H117183   6.392   5.028   5.822
 5746TIP3    H217184   6.439   4.902   5.892
 5747TIP3   OH217185   3.268   0.039   1.267
 5747TIP3    H117186   3.244  -0.031   1.206
 5747TIP3    H217187   3.353   0.070   1.235
 5748TIP3   OH217188   4.417   3.191   5.214
 5748TIP3    H117189   4.408   3.190   5.119
 5748TIP3    H217190   4.410   3.099   5.240
 5749TIP3   OH217191   7.714   2.359   0.572
 5749TIP3    H117192   7.794   2.385   0.525
 5749TIP3    H217193   7.746   2.313   0.649
 5750TIP3   OH217194   6.741   0.740   1.975
 5750TIP3    H117195   6.728   0.769   1.885
 5750TIP3    H217196   6.836   0.738   1.987
 5751TIP3   OH217197   3.427   2.971   4.454
 5751TIP3    H117198   3.346   2.963   4.504
 5751TIP3    H217199   3.455   2.880   4.440
 5752TIP3   OH217200   6.457   4.179   5.255
 5752TIP3    H117201   6.397   4.213   5.188
 5752TIP3    H217202   6.467   4.086   5.233
 5753TIP3   OH217203   2.801   6.378   0.241
 5753TIP3    H117204   2.885   6.424   0.233
 5753TIP3    H217205   2.758   6.418   0.316
 5754TIP3   OH217206   2.352   2.269   1.534
 5754TIP3    H117207   2.445   2.247   1.536
 5754TIP3    H217208   2.337   2.303   1.446
 5755TIP3   OH217209   0.640   7.348   1.890
 5755TIP3    H117210   0.715   7.397   1.856
 5755TIP3    H217211   0.634   7.374   1.982
 5756TIP3   OH217212   7.252   6.539   1.725
 5756TIP3    H117213   7.158   6.555   1.734
 5756TIP3    H217214   7.287   6.622   1.692
 5757TIP3   OH217215   8.208   6.829   0.964
 5757TIP3    H117216   8.164   6.785   0.891
 5757TIP3    H217217   8.215   6.920   0.937
 5758TIP3   OH217218   6.620   5.561   2.741
 5758TIP3    H117219   6.679   5.486   2.747
 5758TIP3    H217220   6.669   5.633   2.782
 5759TIP3   OH217221   7.100   1.630   4.594
 5759TIP3    H117222   7.062   1.622   4.506
 5759TIP3    H217223   7.061   1.558   4.644
 5760TIP3   OH217224   2.913   2.677   0.353
 5760TIP3    H117225   3.008   2.669   0.350
 5760TIP3    H217226   2.881   2.611   0.291
 5761TIP3   OH217227   5.287   0.152   1.059
 5761TIP3    H117228   5.234   0.187   1.132
 5761TIP3    H217229   5.223   0.134   0.990
 5762TIP3   OH217230   2.072   2.543   0.404
 5762TIP3    H117231   2.115   2.628   0.417
 5762TIP3    H217232   2.015   2.533   0.480
 5763TIP3   OH217233   2.538   1.635   5.426
 5763TIP3    H117234   2.552   1.580   5.349
 5763TIP3    H217235   2.499   1.576   5.490
 5764TIP3   OH217236   0.283   0.581   4.322
 5764TIP3    H117237   0.298   0.490   4.295
 5764TIP3    H217238   0.297   0.581   4.417
 5765TIP3   OH217239   7.298   4.670   1.637
 5765TIP3    H117240   7.354   4.619   1.578
 5765TIP3    H217241   7.255   4.604   1.691
 5766TIP3   OH217242   5.787   2.692   5.580
 5766TIP3    H117243   5.716   2.733   5.532
 5766TIP3    H217244   5.758   2.693   5.671
 5767TIP3   OH217245   6.942   0.567   1.626
 5767TIP3    H117246   6.869   0.548   1.685
 5767TIP3    H217247   7.020   0.561   1.681
 5768TIP3   OH217248   7.274   2.044   5.701
 5768TIP3    H117249   7.242   1.972   5.755
 5768TIP3    H217250   7.309   2.000   5.622
 5769TIP3   OH217251   0.757   4.964   6.480
 5769TIP3    H117252   0.851   4.973   6.469
 5769TIP3    H217253   0.720   5.041   6.438
 5770TIP3   OH217254   4.605   3.095   0.891
 5770TIP3    H117255   4.544   3.130   0.826
 5770TIP3    H217256   4.550   3.045   0.952
 5771TIP3   OH217257  -0.043   0.623   6.062
 5771TIP3    H117258  -0.058   0.667   5.979
 5771TIP3    H217259   0.044   0.653   6.089
 5772TIP3   OH217260   5.250   3.195   4.931
 5772TIP3    H117261   5.248   3.178   5.025
 5772TIP3    H217262   5.252   3.290   4.924
 5773TIP3   OH217263   2.024   1.123   3.462
 5773TIP3    H117264   2.104   1.176   3.471
 5773TIP3    H217265   2.014   1.079   3.546
 5774TIP3   OH217266   1.558   6.075   0.417
 5774TIP3    H117267   1.554   6.060   0.322
 5774TIP3    H217268   1.648   6.056   0.441
 5775TIP3   OH217269   5.181   4.534   2.387
 5775TIP3    H117270   5.160   4.496   2.302
 5775TIP3    H217271   5.255   4.481   2.419
 5776TIP3   OH217272   5.402   0.072   3.477
 5776TIP3    H117273   5.447   0.085   3.394
 5776TIP3    H217274   5.349   0.151   3.489
 5777TIP3   OH217275   0.095   3.860   0.907
 5777TIP3    H117276   0.120   3.807   0.831
 5777TIP3    H217277   0.009   3.825   0.933
 5778TIP3   OH217278   7.372   4.494   5.724
 5778TIP3    H117279   7.383   4.564   5.659
 5778TIP3    H217280   7.290   4.515   5.768
 5779TIP3   OH217281   0.741   3.033   5.831
 5779TIP3    H117282   0.824   2.988   5.815
 5779TIP3    H217283   0.736   3.039   5.926
 5780TIP3   OH217284   1.263   1.205   0.936
 5780TIP3    H117285   1.213   1.271   0.985
 5780TIP3    H217286   1.349   1.246   0.922
 5781TIP3   OH217287   5.147   0.055   1.915
 5781TIP3    H117288   5.136   0.065   2.010
 5781TIP3    H217289   5.058   0.054   1.880
 5782TIP3   OH217290   7.865   1.094   3.402
 5782TIP3    H117291   7.775   1.071   3.425
 5782TIP3    H217292   7.911   1.095   3.485
 5783TIP3   OH217293   0.508   1.000   3.881
 5783TIP3    H117294   0.593   0.979   3.842
 5783TIP3    H217295   0.520   0.988   3.975
 5784TIP3   OH217296   4.294   4.796   5.401
 5784TIP3    H117297   4.248   4.815   5.482
 5784TIP3    H217298   4.385   4.779   5.428
 5785TIP3   OH217299   4.752   0.939   3.491
 5785TIP3    H117300   4.827   0.995   3.510
 5785TIP3    H217301   4.712   0.923   3.577
 5786TIP3   OH217302   6.864   3.727   0.587
 5786TIP3    H117303   6.864   3.816   0.622
 5786TIP3    H217304   6.780   3.691   0.614
 5787TIP3   OH217305   4.637   7.266   1.331
 5787TIP3    H117306   4.574   7.196   1.349
 5787TIP3    H217307   4.603   7.310   1.253
 5788TIP3   OH217308   5.838   2.097   4.962
 5788TIP3    H117309   5.891   2.103   4.883
 5788TIP3    H217310   5.881   2.155   5.025
 5789TIP3   OH217311   4.706   3.716   0.068
 5789TIP3    H117312   4.649   3.684  -0.002
 5789TIP3    H217313   4.729   3.805   0.041
 5790TIP3   OH217314   6.848   6.103   3.961
 5790TIP3    H117315   6.781   6.131   3.900
 5790TIP3    H217316   6.924   6.081   3.906
 5791TIP3   OH217317   1.159   3.221   5.464
 5791TIP3    H117318   1.195   3.185   5.382
 5791TIP3    H217319   1.075   3.259   5.438
 5792TIP3   OH217320   2.998   4.239   5.303
 5792TIP3    H117321   2.910   4.220   5.271
 5792TIP3    H217322   3.053   4.237   5.225
 5793TIP3   OH217323   1.939   0.134   3.129
 5793TIP3    H117324   2.012   0.086   3.089
 5793TIP3    H217325   1.910   0.078   3.201
 5794TIP3   OH217326   7.198   2.662   2.224
 5794TIP3    H117327   7.280   2.613   2.222
 5794TIP3    H217328   7.185   2.690   2.134
 5795TIP3   OH217329   5.013   2.226   0.102
 5795TIP3    H117330   5.033   2.316   0.077
 5795TIP3    H217331   5.004   2.180   0.019
 5796TIP3   OH217332   4.095   1.314   2.070
 5796TIP3    H117333   4.060   1.232   2.037
 5796TIP3    H217334   4.150   1.288   2.144
 5797TIP3   OH217335   3.092   7.298   6.598
 5797TIP3    H117336   3.046   7.382   6.603
 5797TIP3    H217337   3.184   7.323   6.591
 5798TIP3   OH217338   7.980   5.518   1.085
 5798TIP3    H117339   7.970   5.499   1.179
 5798TIP3    H217340   7.969   5.434   1.042
 5799TIP3   OH217341   2.119   4.766   1.769
 5799TIP3    H117342   2.166   4.698   1.816
 5799TIP3    H217343   2.116   4.840   1.829
 5800TIP3   OH217344   5.903   5.358   4.351
 5800TIP3    H117345   5.900   5.407   4.269
 5800TIP3    H217346   5.828   5.298   4.346
 5801TIP3   OH217347   0.931   6.784   4.365
 5801TIP3    H117348   0.928   6.780   4.269
 5801TIP3    H217349   0.904   6.874   4.385
 5802TIP3   OH217350   4.904   5.404   2.107
 5802TIP3    H117351   4.868   5.468   2.046
 5802TIP3    H217352   4.985   5.374   2.065
 5803TIP3   OH217353   7.465   2.077   3.927
 5803TIP3    H117354   7.527   2.109   3.994
 5803TIP3    H217355   7.435   2.156   3.883
 5804TIP3   OH217356   0.389   1.525   0.151
 5804TIP3    H117357   0.476   1.502   0.181
 5804TIP3    H217358   0.404   1.579   0.074
 5805TIP3   OH217359   0.275   0.148   3.643
 5805TIP3    H117360   0.314   0.183   3.563
 5805TIP3    H217361   0.193   0.108   3.614
 5806TIP3   OH217362   1.427   2.652   2.040
 5806TIP3    H117363   1.517   2.639   2.071
 5806TIP3    H217364   1.431   2.735   1.992
 5807TIP3   OH217365   3.335   7.549   1.411
 5807TIP3    H117366   3.387   7.606   1.355
 5807TIP3    H217367   3.300   7.607   1.478
 5808TIP3   OH217368   0.342   5.275   0.051
 5808TIP3    H117369   0.369   5.233   0.133
 5808TIP3    H217370   0.421   5.318   0.019
 5809TIP3   OH217371   6.450   3.150   3.985
 5809TIP3    H117372   6.520   3.176   3.925
 5809TIP3    H217373   6.475   3.189   4.069
 5810TIP3   OH217374   4.423   0.143   4.526
 5810TIP3    H117375   4.508   0.106   4.552
 5810TIP3    H217376   4.361   0.071   4.539
 5811TIP3   OH217377   2.330   1.849   5.468
 5811TIP3    H117378   2.394   1.778   5.468
 5811TIP3    H217379   2.354   1.902   5.392
 5812TIP3   OH217380   6.619   1.515   3.036
 5812TIP3    H117381   6.706   1.544   3.010
 5812TIP3    H217382   6.621   1.420   3.025
 5813TIP3   OH217383   1.686   1.948   5.252
 5813TIP3    H117384   1.684   2.019   5.317
 5813TIP3    H217385   1.705   1.869   5.302
 5814TIP3   OH217386   1.026   3.627   6.409
 5814TIP3    H117387   0.984   3.553   6.366
 5814TIP3    H217388   0.956   3.691   6.420
 5815TIP3   OH217389   2.477   7.158   5.946
 5815TIP3    H117390   2.382   7.156   5.954
 5815TIP3    H217391   2.494   7.119   5.860
 5816TIP3   OH217392   6.771   1.847   0.303
 5816TIP3    H117393   6.819   1.895   0.234
 5816TIP3    H217394   6.679   1.870   0.288
 5817TIP3   OH217395   6.914   3.100   5.600
 5817TIP3    H117396   6.993   3.056   5.568
 5817TIP3    H217397   6.929   3.192   5.580
 5818TIP3   OH217398   5.224   0.401   2.406
 5818TIP3    H117399   5.309   0.444   2.414
 5818TIP3    H217400   5.162   0.461   2.447
 5819TIP3   OH217401   6.250   6.377   0.161
 5819TIP3    H117402   6.235   6.419   0.076
 5819TIP3    H217403   6.242   6.283   0.143
 5820TIP3   OH217404   2.404   0.457   5.128
 5820TIP3    H117405   2.429   0.546   5.154
 5820TIP3    H217406   2.331   0.469   5.068
 5821TIP3   OH217407   2.968   1.942   0.433
 5821TIP3    H117408   2.996   1.883   0.503
 5821TIP3    H217409   2.939   2.021   0.479
 5822TIP3   OH217410   4.041   1.109   0.625
 5822TIP3    H117411   4.007   1.119   0.536
 5822TIP3    H217412   4.081   1.022   0.625
 5823TIP3   OH217413   4.332   4.869   0.667
 5823TIP3    H117414   4.266   4.934   0.645
 5823TIP3    H217415   4.333   4.866   0.763
 5824TIP3   OH217416   2.461   0.333   5.553
 5824TIP3    H117417   2.378   0.324   5.506
 5824TIP3    H217418   2.447   0.289   5.637
 5825TIP3   OH217419   6.435   4.276   5.756
 5825TIP3    H117420   6.486   4.263   5.676
 5825TIP3    H217421   6.382   4.353   5.739
 5826TIP3   OH217422   3.959   5.893   4.979
 5826TIP3    H117423   3.903   5.841   4.921
 5826TIP3    H217424   3.966   5.840   5.058
 5827TIP3   OH217425   6.274   7.429   2.002
 5827TIP3    H117426   6.308   7.415   1.914
 5827TIP3    H217427   6.207   7.497   1.992
 5828TIP3   OH217428   8.122   5.015   0.840
 5828TIP3    H117429   8.166   4.936   0.807
 5828TIP3    H217430   8.178   5.087   0.811
 5829TIP3   OH217431   3.555   3.325   6.185
 5829TIP3    H117432   3.613   3.399   6.171
 5829TIP3    H217433   3.587   3.285   6.266
 5830TIP3   OH217434   2.870   1.423   2.452
 5830TIP3    H117435   2.863   1.476   2.373
 5830TIP3    H217436   2.781   1.392   2.468
 5831TIP3   OH217437   3.776   5.295   6.630
 5831TIP3    H117438   3.687   5.328   6.643
 5831TIP3    H217439   3.805   5.337   6.548
 5832TIP3   OH217440   4.142   3.247   6.719
 5832TIP3    H117441   4.164   3.219   6.808
 5832TIP3    H217442   4.074   3.314   6.731
 5833TIP3   OH217443   3.050   4.150   0.743
 5833TIP3    H117444   3.116   4.135   0.675
 5833TIP3    H217445   2.979   4.197   0.699
 5834TIP3   OH217446   2.479   3.211   2.753
 5834TIP3    H117447   2.554   3.189   2.809
 5834TIP3    H217448   2.495   3.302   2.727
 5835TIP3   OH217449   1.002   1.376   5.438
 5835TIP3    H117450   1.049   1.361   5.520
 5835TIP3    H217451   1.026   1.464   5.411
 5836TIP3   OH217452   2.381   6.868   6.267
 5836TIP3    H117453   2.424   6.945   6.303
 5836TIP3    H217454   2.448   6.824   6.216
 5837TIP3   OH217455   0.584   7.363   0.090
 5837TIP3    H117456   0.544   7.447   0.068
 5837TIP3    H217457   0.528   7.297   0.048
 5838TIP3   OH217458   5.228   3.090   0.244
 5838TIP3    H117459   5.172   3.071   0.169
 5838TIP3    H217460   5.313   3.113   0.205
 5839TIP3   OH217461   1.213   0.705   1.679
 5839TIP3    H117462   1.262   0.781   1.709
 5839TIP3    H217463   1.261   0.630   1.715
 5840TIP3   OH217464   6.820   6.710   5.635
 5840TIP3    H117465   6.788   6.685   5.548
 5840TIP3    H217466   6.911   6.733   5.622
 5841TIP3   OH217467   2.308   3.588   3.459
 5841TIP3    H117468   2.334   3.595   3.551
 5841TIP3    H217469   2.391   3.574   3.413
 5842TIP3   OH217470   7.269   6.311   5.256
 5842TIP3    H117471   7.341   6.365   5.224
 5842TIP3    H217472   7.234   6.360   5.331
 5843TIP3   OH217473   5.770   1.074   0.103
 5843TIP3    H117474   5.732   1.162   0.104
 5843TIP3    H217475   5.768   1.048   0.011
 5844TIP3   OH217476   7.205   3.118   4.990
 5844TIP3    H117477   7.144   3.070   4.933
 5844TIP3    H217478   7.286   3.123   4.940
 5845TIP3   OH217479   8.131   5.960   2.185
 5845TIP3    H117480   8.139   6.009   2.103
 5845TIP3    H217481   8.150   6.025   2.253
 5846TIP3   OH217482   3.353   4.908   2.435
 5846TIP3    H117483   3.288   4.876   2.372
 5846TIP3    H217484   3.431   4.855   2.419
 5847TIP3   OH217485   0.598   6.067   3.015
 5847TIP3    H117486   0.587   6.148   3.063
 5847TIP3    H217487   0.569   6.088   2.926
 5848TIP3   OH217488   4.792   1.880   0.481
 5848TIP3    H117489   4.882   1.877   0.448
 5848TIP3    H217490   4.802   1.898   0.575
 5849TIP3   OH217491   3.798   7.062   5.931
 5849TIP3    H117492   3.886   7.063   5.968
 5849TIP3    H217493   3.791   6.978   5.886
 5850TIP3   OH217494   1.973   5.140   3.118
 5850TIP3    H117495   1.945   5.171   3.204
 5850TIP3    H217496   1.940   5.207   3.057
 5851TIP3   OH217497   6.011   5.719   1.851
 5851TIP3    H117498   6.004   5.709   1.756
 5851TIP3    H217499   6.104   5.738   1.866
 5852TIP3   OH217500   8.286   5.785   4.779
 5852TIP3    H117501   8.297   5.783   4.684
 5852TIP3    H217502   8.208   5.731   4.795
 5853TIP3   OH217503   5.983   6.320   3.269
 5853TIP3    H117504   5.977   6.415   3.268
 5853TIP3    H217505   6.070   6.301   3.234
 5854TIP3   OH217506   7.096   6.811   4.268
 5854TIP3    H117507   7.021   6.791   4.212
 5854TIP3    H217508   7.057   6.828   4.354
 5855TIP3   OH217509   0.848   5.307   1.722
 5855TIP3    H117510   0.922   5.258   1.758
 5855TIP3    H217511   0.819   5.254   1.647
 5856TIP3   OH217512   0.628   4.497   4.058
 5856TIP3    H117513   0.610   4.584   4.022
 5856TIP3    H217514   0.690   4.512   4.129
 5857TIP3   OH217515   2.321   7.121   3.976
 5857TIP3    H117516   2.401   7.148   4.020
 5857TIP3    H217517   2.261   7.195   3.989
 5858TIP3   OH217518   4.267   3.959   2.884
 5858TIP3    H117519   4.359   3.964   2.911
 5858TIP3    H217520   4.228   3.895   2.944
 5859TIP3   OH217521   3.094   3.600   0.058
 5859TIP3    H117522   3.035   3.576  -0.013
 5859TIP3    H217523   3.064   3.548   0.133
 5860TIP3   OH217524   7.541   3.825   4.533
 5860TIP3    H117525   7.636   3.820   4.544
 5860TIP3    H217526   7.525   3.794   4.444
 5861TIP3   OH217527   2.840   6.530   1.570
 5861TIP3    H117528   2.748   6.502   1.574
 5861TIP3    H217529   2.881   6.467   1.511
 5862TIP3   OH217530   0.737   0.069   2.976
 5862TIP3    H117531   0.700   0.136   3.034
 5862TIP3    H217532   0.673  -0.001   2.977
 5863TIP3   OH217533   0.781   4.861   2.148
 5863TIP3    H117534   0.852   4.920   2.172
 5863TIP3    H217535   0.788   4.852   2.053
 5864TIP3   OH217536   4.235   6.289   4.305
 5864TIP3    H117537   4.270   6.202   4.286
 5864TIP3    H217538   4.310   6.339   4.336
 5865TIP3   OH217539   7.050   1.347   0.159
 5865TIP3    H117540   6.961   1.374   0.137
 5865TIP3    H217541   7.087   1.421   0.207
 5866TIP3   OH217542   5.338   4.585   6.674
 5866TIP3    H117543   5.252   4.553   6.698
 5866TIP3    H217544   5.334   4.680   6.690
 5867TIP3   OH217545   6.826   1.277   2.828
 5867TIP3    H117546   6.773   1.262   2.750
 5867TIP3    H217547   6.892   1.206   2.825
 5868TIP3   OH217548   6.728   2.291   5.226
 5868TIP3    H117549   6.646   2.246   5.244
 5868TIP3    H217550   6.772   2.297   5.311
 5869TIP3   OH217551   0.566   6.834   0.608
 5869TIP3    H117552   0.507   6.773   0.652
 5869TIP3    H217553   0.523   6.920   0.616
 5870TIP3   OH217554   6.785   2.802   3.329
 5870TIP3    H117555   6.735   2.875   3.364
 5870TIP3    H217556   6.758   2.726   3.381
 5871TIP3   OH217557   1.359   6.518   1.488
 5871TIP3    H117558   1.272   6.554   1.475
 5871TIP3    H217559   1.374   6.522   1.582
 5872TIP3   OH217560   1.838   6.220   2.584
 5872TIP3    H117561   1.801   6.146   2.631
 5872TIP3    H217562   1.844   6.290   2.650
 5873TIP3   OH217563   2.138   3.980   5.176
 5873TIP3    H117564   2.159   4.067   5.209
 5873TIP3    H217565   2.058   3.992   5.125
 5874TIP3   OH217566   0.210   1.853   1.023
 5874TIP3    H117567   0.232   1.881   0.935
 5874TIP3    H217568   0.236   1.926   1.079
 5875TIP3   OH217569   1.098   6.978   6.159
 5875TIP3    H117570   1.185   7.001   6.128
 5875TIP3    H217571   1.040   7.001   6.087
 5876TIP3   OH217572   3.032   5.173   2.404
 5876TIP3    H117573   2.954   5.227   2.402
 5876TIP3    H217574   3.043   5.141   2.314
 5877TIP3   OH217575   5.995   0.529   5.803
 5877TIP3    H117576   5.998   0.433   5.808
 5877TIP3    H217577   6.082   0.554   5.772
 5878TIP3   OH217578   3.446   7.722   1.167
 5878TIP3    H117579   3.526   7.693   1.211
 5878TIP3    H217580   3.460   7.700   1.075
 5879TIP3   OH217581   8.155   7.336   6.278
 5879TIP3    H117582   8.175   7.307   6.367
 5879TIP3    H217583   8.217   7.287   6.223
 5880TIP3   OH217584   1.140   6.690   1.132
 5880TIP3    H117585   1.118   6.749   1.059
 5880TIP3    H217586   1.235   6.699   1.141
 5881TIP3   OH217587   5.731   7.538   3.670
 5881TIP3    H117588   5.800   7.603   3.655
 5881TIP3    H217589   5.762   7.460   3.625
 5882TIP3   OH217590   8.051   1.975   0.435
 5882TIP3    H117591   7.989   1.930   0.493
 5882TIP3    H217592   8.096   1.905   0.388
 5883TIP3   OH217593   4.365   7.452   3.222
 5883TIP3    H117594   4.395   7.530   3.269
 5883TIP3    H217595   4.339   7.484   3.136
 5884TIP3   OH217596   6.386   4.745   3.179
 5884TIP3    H117597   6.340   4.754   3.096
 5884TIP3    H217598   6.337   4.801   3.240
 5885TIP3   OH217599   8.165   2.617   3.806
 5885TIP3    H117600   8.078   2.585   3.832
 5885TIP3    H217601   8.175   2.700   3.852
 5886TIP3   OH217602   6.089   6.369   0.886
 5886TIP3    H117603   6.079   6.293   0.827
 5886TIP3    H217604   6.149   6.339   0.954
 5887TIP3   OH217605   1.445   3.474   2.391
 5887TIP3    H117606   1.440   3.379   2.382
 5887TIP3    H217607   1.453   3.506   2.302
 5888TIP3   OH217608   0.968   1.004   1.146
 5888TIP3    H117609   1.035   1.044   1.201
 5888TIP3    H217610   0.886   1.043   1.175
 5889TIP3   OH217611   0.802   3.518   4.674
 5889TIP3    H117612   0.849   3.448   4.720
 5889TIP3    H217613   0.866   3.556   4.614
 5890TIP3   OH217614   1.344   3.644   1.557
 5890TIP3    H117615   1.377   3.712   1.499
 5890TIP3    H217616   1.413   3.632   1.622
 5891TIP3   OH217617   7.002   4.234   4.130
 5891TIP3    H117618   6.947   4.204   4.058
 5891TIP3    H217619   7.055   4.157   4.153
 5892TIP3   OH217620   2.130   2.199   1.916
 5892TIP3    H117621   2.041   2.166   1.913
 5892TIP3    H217622   2.133   2.269   1.851
 5893TIP3   OH217623   7.179   1.581   0.823
 5893TIP3    H117624   7.139   1.625   0.748
 5893TIP3    H217625   7.272   1.602   0.817
 5894TIP3   OH217626   2.131   2.440   6.656
 5894TIP3    H117627   2.176   2.521   6.630
 5894TIP3    H217628   2.045   2.446   6.614
 5895TIP3   OH217629   0.419   6.682   0.777
 5895TIP3    H117630   0.335   6.728   0.767
 5895TIP3    H217631   0.432   6.675   0.872
 5896TIP3   OH217632   4.948   5.781   5.546
 5896TIP3    H117633   4.863   5.759   5.509
 5896TIP3    H217634   4.943   5.875   5.563
 5897TIP3   OH217635   0.431   2.983   2.852
 5897TIP3    H117636   0.493   3.035   2.801
 5897TIP3    H217637   0.443   3.013   2.942
 5898TIP3   OH217638   8.114   0.945   2.589
 5898TIP3    H117639   8.130   0.856   2.620
 5898TIP3    H217640   8.026   0.966   2.622
 5899TIP3   OH217641   6.930   3.422   1.628
 5899TIP3    H117642   6.946   3.513   1.653
 5899TIP3    H217643   7.006   3.398   1.575
 5900TIP3   OH217644   5.988   6.553   4.514
 5900TIP3    H117645   6.056   6.620   4.521
 5900TIP3    H217646   5.915   6.587   4.566
 5901TIP3   OH217647   6.173   3.896   4.948
 5901TIP3    H117648   6.186   3.873   5.040
 5901TIP3    H217649   6.095   3.847   4.922
 5902TIP3   OH217650   7.824   2.392   2.637
 5902TIP3    H117651   7.781   2.383   2.552
 5902TIP3    H217652   7.858   2.482   2.637
 5903TIP3   OH217653   6.935   3.048   6.424
 5903TIP3    H117654   6.901   3.102   6.353
 5903TIP3    H217655   6.944   3.108   6.498
 5904TIP3   OH217656   6.346   1.022   2.247
 5904TIP3    H117657   6.391   0.982   2.173
 5904TIP3    H217658   6.352   1.116   2.231
 5905TIP3   OH217659   0.360   0.798   3.053
 5905TIP3    H117660   0.306   0.733   3.009
 5905TIP3    H217661   0.357   0.875   2.997
 5906TIP3   OH217662   4.972   2.478   0.691
 5906TIP3    H117663   4.906   2.412   0.708
 5906TIP3    H217664   4.924   2.551   0.652
 5907TIP3   OH217665   5.673   7.428   4.270
 5907TIP3    H117666   5.636   7.452   4.185
 5907TIP3    H217667   5.767   7.423   4.254
 5908TIP3   OH217668   4.233   0.466   3.401
 5908TIP3    H117669   4.312   0.504   3.439
 5908TIP3    H217670   4.238   0.488   3.308
 5909TIP3   OH217671   7.082   3.942   2.761
 5909TIP3    H117672   7.144   3.897   2.703
 5909TIP3    H217673   7.035   3.872   2.806
 5910TIP3   OH217674   4.866   4.746   5.388
 5910TIP3    H117675   4.901   4.829   5.420
 5910TIP3    H217676   4.917   4.679   5.434
 5911TIP3   OH217677   0.525   4.646   4.625
 5911TIP3    H117678   0.478   4.595   4.690
 5911TIP3    H217679   0.528   4.589   4.547
 5912TIP3   OH217680   7.043   0.083   1.281
 5912TIP3    H117681   7.072   0.174   1.281
 5912TIP3    H217682   6.951   0.086   1.258
 5913TIP3   OH217683   5.834   4.902   2.702
 5913TIP3    H117684   5.795   4.983   2.669
 5913TIP3    H217685   5.922   4.927   2.729
 5914TIP3   OH217686   5.982   4.061   0.149
 5914TIP3    H117687   5.966   3.991   0.213
 5914TIP3    H217688   6.026   4.016   0.076
 5915TIP3   OH217689   1.154   3.327   0.126
 5915TIP3    H117690   1.193   3.342   0.212
 5915TIP3    H217691   1.137   3.415   0.092
 5916TIP3   OH217692   4.347   4.761   4.984
 5916TIP3    H117693   4.395   4.711   4.918
 5916TIP3    H217694   4.397   4.750   5.064
 5917TIP3   OH217695   3.902   1.010   2.315
 5917TIP3    H117696   3.808   1.029   2.314
 5917TIP3    H217697   3.934   1.049   2.396
 5918TIP3   OH217698   1.567   1.901   6.472
 5918TIP3    H117699   1.590   1.821   6.426
 5918TIP3    H217700   1.651   1.941   6.494
 5919TIP3   OH217701   1.928   0.291   6.070
 5919TIP3    H117702   1.898   0.379   6.047
 5919TIP3    H217703   1.877   0.233   6.013
 5920TIP3   OH217704   1.423   1.707   0.703
 5920TIP3    H117705   1.516   1.692   0.722
 5920TIP3    H217706   1.399   1.779   0.761
 5921TIP3   OH217707   5.490   7.787   2.863
 5921TIP3    H117708   5.408   7.799   2.910
 5921TIP3    H217709   5.465   7.750   2.779
 5922TIP3   OH217710   7.733   6.669   6.730
 5922TIP3    H117711   7.679   6.592   6.715
 5922TIP3    H217712   7.821   6.635   6.743
 5923TIP3   OH217713   3.725   7.236   4.560
 5923TIP3    H117714   3.690   7.295   4.626
 5923TIP3    H217715   3.659   7.235   4.491
 5924TIP3   OH217716   7.944   2.646   2.636
 5924TIP3    H117717   8.025   2.626   2.683
 5924TIP3    H217718   7.886   2.683   2.703
 5925TIP3   OH217719   5.295   0.547   4.060
 5925TIP3    H117720   5.234   0.621   4.058
 5925TIP3    H217721   5.239   0.469   4.060
 5926TIP3   OH217722   5.705   7.117   5.669
 5926TIP3    H117723   5.692   7.042   5.727
 5926TIP3    H217724   5.629   7.174   5.686
 5927TIP3   OH217725   5.458   2.395   4.260
 5927TIP3    H117726   5.476   2.427   4.172
 5927TIP3    H217727   5.514   2.318   4.269
 5928TIP3   OH217728   1.972   4.864   0.923
 5928TIP3    H117729   2.008   4.947   0.952
 5928TIP3    H217730   2.036   4.830   0.860
 5929TIP3   OH217731   5.862   2.151   3.340
 5929TIP3    H117732   5.825   2.236   3.318
 5929TIP3    H217733   5.927   2.170   3.408
 5930TIP3   OH217734   6.433   0.473   3.612
 5930TIP3    H117735   6.478   0.440   3.534
 5930TIP3    H217736   6.495   0.534   3.651
 5931TIP3   OH217737   4.920   4.895   4.204
 5931TIP3    H117738   4.940   4.879   4.111
 5931TIP3    H217739   4.993   4.855   4.251
 5932TIP3   OH217740   4.545   3.413   2.911
 5932TIP3    H117741   4.552   3.320   2.933
 5932TIP3    H217742   4.466   3.443   2.957
 5933TIP3   OH217743   7.221   3.547   6.054
 5933TIP3    H117744   7.274   3.591   6.121
 5933TIP3    H217745   7.139   3.525   6.099
 5934TIP3   OH217746   3.580   5.152   4.186
 5934TIP3    H117747   3.663   5.199   4.184
 5934TIP3    H217748   3.595   5.079   4.246
 5935TIP3   OH217749   5.452   4.043   0.987
 5935TIP3    H117750   5.429   4.119   1.040
 5935TIP3    H217751   5.397   4.051   0.909
 5936TIP3   OH217752   8.080   6.199   5.244
 5936TIP3    H117753   8.144   6.180   5.175
 5936TIP3    H217754   8.027   6.270   5.207
 5937TIP3   OH217755   1.195   7.211   6.578
 5937TIP3    H117756   1.106   7.207   6.613
 5937TIP3    H217757   1.202   7.300   6.542
 5938TIP3   OH217758   1.755   5.862   1.459
 5938TIP3    H117759   1.758   5.780   1.408
 5938TIP3    H217760   1.786   5.929   1.398
 5939TIP3   OH217761   5.567   5.070   3.352
 5939TIP3    H117762   5.504   5.141   3.342
 5939TIP3    H217763   5.547   5.010   3.281
 5940TIP3   OH217764   5.504   3.174   4.840
 5940TIP3    H117765   5.508   3.106   4.773
 5940TIP3    H217766   5.420   3.160   4.883
 5941TIP3   OH217767   0.755   5.538   4.789
 5941TIP3    H117768   0.675   5.589   4.782
 5941TIP3    H217769   0.740   5.461   4.733
 5942TIP3   OH217770   4.090   5.779   3.761
 5942TIP3    H117771   4.025   5.711   3.745
 5942TIP3    H217772   4.077   5.804   3.852
 5943TIP3   OH217773   2.790   1.025   4.238
 5943TIP3    H117774   2.864   1.052   4.182
 5943TIP3    H217775   2.716   1.019   4.177
 5944TIP3   OH217776   5.050   4.956   4.844
 5944TIP3    H117777   5.058   5.035   4.791
 5944TIP3    H217778   4.978   4.974   4.905
 5945TIP3   OH217779   1.456   6.767   1.957
 5945TIP3    H117780   1.496   6.848   1.989
 5945TIP3    H217781   1.485   6.700   2.019
 5946TIP3   OH217782   4.152   7.810   0.238
 5946TIP3    H117783   4.076   7.756   0.259
 5946TIP3    H217784   4.165   7.798   0.144
 5947TIP3   OH217785   4.933   2.716   4.399
 5947TIP3    H117786   4.912   2.716   4.305
 5947TIP3    H217787   4.944   2.808   4.421
 5948TIP3   OH217788   5.955   7.023   0.497
 5948TIP3    H117789   5.896   7.043   0.570
 5948TIP3    H217790   5.897   6.990   0.428
 5949TIP3   OH217791   5.483   0.716   1.844
 5949TIP3    H117792   5.418   0.715   1.773
 5949TIP3    H217793   5.549   0.778   1.814
 5950TIP3   OH217794   7.305   0.569   1.527
 5950TIP3    H117795   7.373   0.617   1.479
 5950TIP3    H217796   7.324   0.585   1.619
 5951TIP3   OH217797   0.080   2.823   0.209
 5951TIP3    H117798   0.105   2.912   0.233
 5951TIP3    H217799  -0.004   2.833   0.164
 5952TIP3   OH217800   1.864   5.890   6.575
 5952TIP3    H117801   1.822   5.975   6.591
 5952TIP3    H217802   1.927   5.907   6.505
 5953TIP3   OH217803   5.230   2.223   4.160
 5953TIP3    H117804   5.304   2.284   4.162
 5953TIP3    H217805   5.167   2.259   4.223
 5954TIP3   OH217806   5.496   4.518   3.858
 5954TIP3    H117807   5.429   4.498   3.924
 5954TIP3    H217808   5.454   4.580   3.799
 5955TIP3   OH217809   5.089   4.942   2.303
 5955TIP3    H117810   5.136   4.890   2.238
 5955TIP3    H217811   5.052   5.015   2.253
 5956TIP3   OH217812   7.838   3.230   0.713
 5956TIP3    H117813   7.750   3.244   0.747
 5956TIP3    H217814   7.872   3.318   0.697
 5957TIP3   OH217815   4.613   1.694   4.569
 5957TIP3    H117816   4.602   1.599   4.560
 5957TIP3    H217817   4.649   1.705   4.658
 5958TIP3   OH217818   6.736   5.088   3.711
 5958TIP3    H117819   6.653   5.135   3.700
 5958TIP3    H217820   6.795   5.153   3.749
 5959TIP3   OH217821   0.755   2.531   2.972
 5959TIP3    H117822   0.828   2.492   3.020
 5959TIP3    H217823   0.751   2.621   3.005
 5960TIP3   OH217824   3.684   3.889   3.889
 5960TIP3    H117825   3.669   3.865   3.980
 5960TIP3    H217826   3.639   3.973   3.878
 5961TIP3   OH217827   3.061   3.834   4.101
 5961TIP3    H117828   3.006   3.885   4.160
 5961TIP3    H217829   3.002   3.806   4.031
 5962TIP3   OH217830   6.656   1.104   0.865
 5962TIP3    H117831   6.642   1.191   0.828
 5962TIP3    H217832   6.667   1.047   0.789
 5963TIP3   OH217833   7.806   2.291   3.729
 5963TIP3    H117834   7.864   2.215   3.729
 5963TIP3    H217835   7.766   2.291   3.642
 5964TIP3   OH217836   0.705   2.835   6.265
 5964TIP3    H117837   0.785   2.848   6.316
 5964TIP3    H217838   0.636   2.874   6.319
 5965TIP3   OH217839   7.345   6.314   2.095
 5965TIP3    H117840   7.301   6.394   2.125
 5965TIP3    H217841   7.367   6.332   2.004
 5966TIP3   OH217842   7.612   1.362   4.456
 5966TIP3    H117843   7.532   1.331   4.499
 5966TIP3    H217844   7.605   1.457   4.459
 5967TIP3   OH217845   5.528   3.966   6.181
 5967TIP3    H117846   5.550   3.910   6.256
 5967TIP3    H217847   5.433   3.979   6.187
 5968TIP3   OH217848   3.962   2.805   0.471
 5968TIP3    H117849   3.975   2.712   0.486
 5968TIP3    H217850   4.044   2.835   0.432
 5969TIP3   OH217851   4.238   7.652   3.403
 5969TIP3    H117852   4.143   7.658   3.409
 5969TIP3    H217853   4.261   7.699   3.323
 5970TIP3   OH217854   0.771   3.218   1.310
 5970TIP3    H117855   0.835   3.244   1.244
 5970TIP3    H217856   0.757   3.124   1.294
 5971TIP3   OH217857   6.797   0.562   3.684
 5971TIP3    H117858   6.819   0.470   3.676
 5971TIP3    H217859   6.878   0.604   3.713
 5972TIP3   OH217860   5.393   5.302   0.866
 5972TIP3    H117861   5.301   5.278   0.861
 5972TIP3    H217862   5.404   5.370   0.800
 5973TIP3   OH217863   4.615   4.184   5.683
 5973TIP3    H117864   4.638   4.262   5.632
 5973TIP3    H217865   4.674   4.186   5.758
 5974TIP3   OH217866   1.825   5.374   1.669
 5974TIP3    H117867   1.883   5.433   1.620
 5974TIP3    H217868   1.861   5.287   1.655
 5975TIP3   OH217869   7.885   4.852   4.005
 5975TIP3    H117870   7.828   4.807   3.943
 5975TIP3    H217871   7.942   4.783   4.039
 5976TIP3   OH217872   2.352   7.338   1.126
 5976TIP3    H117873   2.436   7.310   1.163
 5976TIP3    H217874   2.375   7.390   1.049
 5977TIP3   OH217875   7.392  -0.024   3.712
 5977TIP3    H117876   7.317  -0.040   3.655
 5977TIP3    H217877   7.417   0.067   3.693
 5978TIP3   OH217878   7.578   1.637   2.663
 5978TIP3    H117879   7.643   1.679   2.719
 5978TIP3    H217880   7.612   1.548   2.648
 5979TIP3   OH217881   3.402   4.568   2.812
 5979TIP3    H117882   3.331   4.619   2.772
 5979TIP3    H217883   3.357   4.501   2.862
 5980TIP3   OH217884   6.107   6.055   2.958
 5980TIP3    H117885   6.149   6.134   2.991
 5980TIP3    H217886   6.157   5.983   2.997
 5981TIP3   OH217887   4.606   0.220   3.459
 5981TIP3    H117888   4.600   0.300   3.512
 5981TIP3    H217889   4.617   0.252   3.369
 5982TIP3   OH217890   4.075   5.981   6.228
 5982TIP3    H117891   4.132   6.016   6.296
 5982TIP3    H217892   4.100   5.889   6.221
 5983TIP3   OH217893   0.481   3.294   0.985
 5983TIP3    H117894   0.509   3.312   0.895
 5983TIP3    H217895   0.395   3.335   0.992
 5984TIP3   OH217896   5.262   2.887   5.022
 5984TIP3    H117897   5.251   2.913   4.931
 5984TIP3    H217898   5.174   2.894   5.060
 5985TIP3   OH217899   1.384   2.433   4.742
 5985TIP3    H117900   1.356   2.394   4.825
 5985TIP3    H217901   1.304   2.468   4.704
 5986TIP3   OH217902   1.143   0.745   1.216
 5986TIP3    H117903   1.109   0.724   1.303
 5986TIP3    H217904   1.144   0.841   1.213
 5987TIP3   OH217905   5.999   6.278   2.176
 5987TIP3    H117906   5.924   6.219   2.181
 5987TIP3    H217907   5.996   6.315   2.088
 5988TIP3   OH217908   5.771   2.564   6.385
 5988TIP3    H117909   5.713   2.488   6.382
 5988TIP3    H217910   5.854   2.529   6.418
 5989TIP3   OH217911   4.278   2.735   5.017
 5989TIP3    H117912   4.249   2.766   4.931
 5989TIP3    H217913   4.373   2.723   5.007
 5990TIP3   OH217914   4.702   2.353   3.411
 5990TIP3    H117915   4.720   2.378   3.320
 5990TIP3    H217916   4.787   2.326   3.445
 5991TIP3   OH217917   4.241   6.458   4.045
 5991TIP3    H117918   4.232   6.363   4.052
 5991TIP3    H217919   4.313   6.480   4.104
 5992TIP3   OH217920   4.490   7.040   4.566
 5992TIP3    H117921   4.543   6.972   4.527
 5992TIP3    H217922   4.402   7.004   4.569
 5993TIP3   OH217923   2.358   4.728   4.148
 5993TIP3    H117924   2.340   4.635   4.154
 5993TIP3    H217925   2.274   4.768   4.128
 5994TIP3   OH217926   0.498   2.822   1.761
 5994TIP3    H117927   0.438   2.864   1.698
 5994TIP3    H217928   0.579   2.810   1.712
 5995TIP3   OH217929   3.306   0.144   3.737
 5995TIP3    H117930   3.259   0.152   3.820
 5995TIP3    H217931   3.265   0.209   3.680
 5996TIP3   OH217932   7.626   3.900   0.389
 5996TIP3    H117933   7.695   3.839   0.414
 5996TIP3    H217934   7.653   3.933   0.303
 5997TIP3   OH217935   4.272   5.605   2.042
 5997TIP3    H117936   4.196   5.561   2.080
 5997TIP3    H217937   4.296   5.671   2.107
 5998TIP3   OH217938   4.124   7.408   2.283
 5998TIP3    H117939   4.116   7.466   2.207
 5998TIP3    H217940   4.034   7.381   2.301
 5999TIP3   OH217941   7.361   5.603   0.294
 5999TIP3    H117942   7.291   5.666   0.309
 5999TIP3    H217943   7.332   5.552   0.219
 6000TIP3   OH217944   6.556   6.166   6.360
 6000TIP3    H117945   6.503   6.104   6.409
 6000TIP3    H217946   6.592   6.225   6.427
 6001TIP3   OH217947   5.576   4.459   5.046
 6001TIP3    H117948   5.571   4.472   4.952
 6001TIP3    H217949   5.495   4.412   5.069
 6002TIP3   OH217950   6.368   2.456   1.102
 6002TIP3    H117951   6.343   2.403   1.178
 6002TIP3    H217952   6.402   2.537   1.140
 6003TIP3   OH217953   4.413   5.346   1.562
 6003TIP3    H117954   4.462   5.322   1.641
 6003TIP3    H217955   4.466   5.310   1.490
 6004TIP3   OH217956   5.977   3.912   2.696
 6004TIP3    H117957   5.928   3.835   2.668
 6004TIP3    H217958   5.977   3.970   2.619
 6005TIP3   OH217959   6.822   3.947   0.936
 6005TIP3    H117960   6.827   4.007   1.011
 6005TIP3    H217961   6.770   3.874   0.967
 6006TIP3   OH217962   2.095   1.858   4.215
 6006TIP3    H117963   2.008   1.878   4.180
 6006TIP3    H217964   2.136   1.805   4.147
 6007TIP3   OH217965   4.250   0.717   1.714
 6007TIP3    H117966   4.246   0.657   1.640
 6007TIP3    H217967   4.247   0.805   1.675
 6008TIP3   OH217968   4.627   1.772   3.626
 6008TIP3    H117969   4.589   1.820   3.552
 6008TIP3    H217970   4.557   1.771   3.691
 6009TIP3   OH217971   0.692   5.590   5.692
 6009TIP3    H117972   0.606   5.563   5.661
 6009TIP3    H217973   0.725   5.649   5.625
 6010TIP3   OH217974   4.875   6.136   5.982
 6010TIP3    H117975   4.868   6.093   5.897
 6010TIP3    H217976   4.969   6.149   5.994
 6011TIP3   OH217977   0.378   7.081   1.064
 6011TIP3    H117978   0.290   7.043   1.066
 6011TIP3    H217979   0.363   7.176   1.064
 6012TIP3   OH217980   5.661   7.759   1.160
 6012TIP3    H117981   5.663   7.770   1.255
 6012TIP3    H217982   5.568   7.761   1.137
 6013TIP3   OH217983   5.116   7.101   2.835
 6013TIP3    H117984   5.096   7.112   2.742
 6013TIP3    H217985   5.175   7.025   2.837
 6014TIP3   OH217986   1.975   1.872   1.788
 6014TIP3    H117987   2.017   1.927   1.722
 6014TIP3    H217988   1.965   1.929   1.864
 6015TIP3   OH217989   2.484   2.054   0.861
 6015TIP3    H117990   2.467   2.108   0.939
 6015TIP3    H217991   2.564   2.007   0.882
 6016TIP3   OH217992   5.685   3.791   4.873
 6016TIP3    H117993   5.666   3.851   4.946
 6016TIP3    H217994   5.706   3.848   4.800
 6017TIP3   OH217995   7.395   6.964   3.030
 6017TIP3    H117996   7.390   7.024   3.104
 6017TIP3    H217997   7.478   6.985   2.987
 6018TIP3   OH217998   4.050   5.811   1.014
 6018TIP3    H117999   4.030   5.720   0.995
 6018TIP3    H218000   4.054   5.815   1.110
 6019TIP3   OH218001   1.984   6.247   3.317
 6019TIP3    H118002   2.069   6.284   3.293
 6019TIP3    H218003   1.929   6.324   3.333
 6020TIP3   OH218004   0.082   2.882   4.341
 6020TIP3    H118005   0.141   2.944   4.383
 6020TIP3    H218006  -0.006   2.916   4.357
 6021TIP3   OH218007   3.562   7.801   5.551
 6021TIP3    H118008   3.597   7.819   5.638
 6021TIP3    H218009   3.576   7.707   5.538
 6022TIP3   OH218010   2.196   0.275   3.756
 6022TIP3    H118011   2.187   0.261   3.662
 6022TIP3    H218012   2.251   0.202   3.786
 6023TIP3   OH218013   6.703   6.399   2.936
 6023TIP3    H118014   6.644   6.404   3.011
 6023TIP3    H218015   6.646   6.410   2.860
 6024TIP3   OH218016   7.695   0.217   5.157
 6024TIP3    H118017   7.691   0.304   5.195
 6024TIP3    H218018   7.621   0.214   5.096
 6025TIP3   OH218019   2.430   3.747   6.267
 6025TIP3    H118020   2.477   3.719   6.345
 6025TIP3    H218021   2.356   3.798   6.300
 6026TIP3   OH218022   5.334   4.673   5.349
 6026TIP3    H118023   5.277   4.609   5.307
 6026TIP3    H218024   5.364   4.729   5.277
 6027TIP3   OH218025   5.779   7.125   2.753
 6027TIP3    H118026   5.724   7.113   2.831
 6027TIP3    H218027   5.724   7.174   2.692
 6028TIP3   OH218028   7.622   6.344   0.159
 6028TIP3    H118029   7.568   6.324   0.083
 6028TIP3    H218030   7.647   6.259   0.195
 6029TIP3   OH218031   0.891   4.760   1.130
 6029TIP3    H118032   0.805   4.795   1.153
 6029TIP3    H218033   0.874   4.671   1.101
 6030TIP3   OH218034   4.075   0.448   3.686
 6030TIP3    H118035   4.050   0.523   3.739
 6030TIP3    H218036   3.992   0.416   3.649
 6031TIP3   OH218037   0.188   2.132   6.208
 6031TIP3    H118038   0.252   2.061   6.206
 6031TIP3    H218039   0.239   2.210   6.189
 6032TIP3   OH218040   6.899   6.938   3.615
 6032TIP3    H118041   6.883   6.939   3.710
 6032TIP3    H218042   6.918   7.029   3.593
 6033TIP3   OH218043   5.647   6.432   2.025
 6033TIP3    H118044   5.568   6.474   2.059
 6033TIP3    H218045   5.647   6.345   2.065
 6034TIP3   OH218046   5.700   1.902   2.144
 6034TIP3    H118047   5.677   1.814   2.172
 6034TIP3    H218048   5.778   1.924   2.195
 6035TIP3   OH218049   4.171   3.531   4.398
 6035TIP3    H118050   4.261   3.522   4.428
 6035TIP3    H218051   4.121   3.473   4.456
 6036TIP3   OH218052   1.466   6.529   0.294
 6036TIP3    H118053   1.407   6.454   0.295
 6036TIP3    H218054   1.442   6.577   0.215
 6037TIP3   OH218055   6.089   0.303   3.572
 6037TIP3    H118056   6.004   0.279   3.534
 6037TIP3    H218057   6.130   0.360   3.506
 6038TIP3   OH218058   8.229  -0.009   4.309
 6038TIP3    H118059   8.138  -0.009   4.338
 6038TIP3    H218060   8.235   0.066   4.250
 6039TIP3   OH218061   7.786   4.410   3.755
 6039TIP3    H118062   7.761   4.411   3.847
 6039TIP3    H218063   7.703   4.414   3.707
 6040TIP3   OH218064   5.170   7.500   1.077
 6040TIP3    H118065   5.192   7.434   1.143
 6040TIP3    H218066   5.093   7.544   1.112
 6041TIP3   OH218067   4.810   4.673   2.322
 6041TIP3    H118068   4.840   4.582   2.315
 6041TIP3    H218069   4.887   4.720   2.353
 6042TIP3   OH218070   7.514   3.186   1.188
 6042TIP3    H118071   7.478   3.182   1.099
 6042TIP3    H218072   7.474   3.111   1.232
 6043TIP3   OH218073   4.777   4.259   4.295
 6043TIP3    H118074   4.837   4.195   4.331
 6043TIP3    H218075   4.787   4.253   4.200
 6044TIP3   OH218076   1.894   3.779   5.258
 6044TIP3    H118077   1.881   3.863   5.215
 6044TIP3    H218078   1.968   3.793   5.318
 6045TIP3   OH218079   2.364   4.717   4.467
 6045TIP3    H118080   2.304   4.644   4.452
 6045TIP3    H218081   2.311   4.795   4.452
 6046TIP3   OH218082   2.185   5.048   0.238
 6046TIP3    H118083   2.166   5.058   0.145
 6046TIP3    H218084   2.196   4.954   0.250
 6047TIP3   OH218085   5.452   1.544   2.708
 6047TIP3    H118086   5.371   1.495   2.690
 6047TIP3    H218087   5.471   1.525   2.800
 6048TIP3   OH218088   3.294   1.980   3.204
 6048TIP3    H118089   3.244   1.901   3.228
 6048TIP3    H218090   3.300   2.029   3.286
 6049TIP3   OH218091   8.022   7.520   5.611
 6049TIP3    H118092   8.030   7.615   5.599
 6049TIP3    H218093   7.959   7.492   5.544
 6050TIP3   OH218094   1.722   3.398   2.743
 6050TIP3    H118095   1.714   3.483   2.700
 6050TIP3    H218096   1.790   3.352   2.693
 6051TIP3   OH218097   5.915   1.742   2.021
 6051TIP3    H118098   5.829   1.784   2.031
 6051TIP3    H218099   5.977   1.807   2.055
 6052TIP3   OH218100   3.808   2.027   4.319
 6052TIP3    H118101   3.719   2.012   4.352
 6052TIP3    H218102   3.808   2.119   4.291
 6053TIP3   OH218103   0.967   3.130   2.920
 6053TIP3    H118104   0.916   3.202   2.956
 6053TIP3    H218105   1.056   3.163   2.914
 6054TIP3   OH218106   0.628   3.297   6.061
 6054TIP3    H118107   0.640   3.207   6.089
 6054TIP3    H218108   0.579   3.339   6.133
 6055TIP3   OH218109   3.619   1.003   2.031
 6055TIP3    H118110   3.648   0.912   2.035
 6055TIP3    H218111   3.613   1.030   2.123
 6056TIP3   OH218112   3.836   5.254   4.183
 6056TIP3    H118113   3.864   5.231   4.272
 6056TIP3    H218114   3.912   5.231   4.128
 6057TIP3   OH218115   2.192   0.288   3.482
 6057TIP3    H118116   2.261   0.243   3.434
 6057TIP3    H218117   2.128   0.312   3.415
 6058TIP3   OH218118   2.124   1.869   6.119
 6058TIP3    H118119   2.135   1.963   6.134
 6058TIP3    H218120   2.205   1.830   6.151
 6059TIP3   OH218121   0.374   4.912   1.322
 6059TIP3    H118122   0.409   4.832   1.284
 6059TIP3    H218123   0.413   4.982   1.271
 6060TIP3   OH218124   6.971   0.006   2.432
 6060TIP3    H118125   6.959  -0.039   2.348
 6060TIP3    H218126   6.882   0.015   2.466
 6061TIP3   OH218127   3.988   4.607   1.508
 6061TIP3    H118128   3.920   4.628   1.445
 6061TIP3    H218129   4.039   4.688   1.517
 6062TIP3   OH218130   3.879   3.731   6.147
 6062TIP3    H118131   3.931   3.771   6.078
 6062TIP3    H218132   3.937   3.728   6.223
 6063TIP3   OH218133   1.576   6.103   5.094
 6063TIP3    H118134   1.509   6.166   5.122
 6063TIP3    H218135   1.562   6.093   5.000
 6064TIP3   OH218136   0.335   0.181   5.645
 6064TIP3    H118137   0.254   0.221   5.675
 6064TIP3    H218138   0.400   0.206   5.711
 6065TIP3   OH218139   7.004   0.399   6.649
 6065TIP3    H118140   6.922   0.380   6.604
 6065TIP3    H218141   6.999   0.492   6.670
 6066TIP3   OH218142   7.124   5.929   6.479
 6066TIP3    H118143   7.170   5.893   6.555
 6066TIP3    H218144   7.173   5.897   6.404
 6067TIP3   OH218145   8.303   3.091   3.383
 6067TIP3    H118146   8.356   3.171   3.378
 6067TIP3    H218147   8.214   3.122   3.400
 6068TIP3   OH218148   6.372   5.253   4.126
 6068TIP3    H118149   6.447   5.222   4.177
 6068TIP3    H218150   6.296   5.221   4.175
 6069TIP3   OH218151   6.739   2.066   6.100
 6069TIP3    H118152   6.746   1.984   6.148
 6069TIP3    H218153   6.787   2.051   6.019
 6070TIP3   OH218154   7.202   1.642   1.395
 6070TIP3    H118155   7.173   1.607   1.479
 6070TIP3    H218156   7.256   1.573   1.357
 6071TIP3   OH218157   2.891   5.481   2.891
 6071TIP3    H118158   2.946   5.558   2.880
 6071TIP3    H218159   2.912   5.449   2.979
 6072TIP3   OH218160   6.581   2.316   3.091
 6072TIP3    H118161   6.586   2.395   3.037
 6072TIP3    H218162   6.656   2.322   3.150
 6073TIP3   OH218163   4.761   0.118   0.337
 6073TIP3    H118164   4.738   0.126   0.245
 6073TIP3    H218165   4.834   0.179   0.349
 6074TIP3   OH218166   3.094   0.357   3.039
 6074TIP3    H118167   3.034   0.289   3.009
 6074TIP3    H218168   3.134   0.391   2.959
 6075TIP3   OH218169   1.158   6.083   5.634
 6075TIP3    H118170   1.164   5.988   5.626
 6075TIP3    H218171   1.224   6.117   5.573
 6076TIP3   OH218172   4.540   0.184   0.488
 6076TIP3    H118173   4.617   0.155   0.439
 6076TIP3    H218174   4.566   0.177   0.580
 6077TIP3   OH218175   7.428   6.929   4.928
 6077TIP3    H118176   7.363   6.934   4.997
 6077TIP3    H218177   7.433   7.018   4.893
 6078TIP3   OH218178   3.160   0.433   0.154
 6078TIP3    H118179   3.089   0.371   0.141
 6078TIP3    H218180   3.139   0.477   0.236
 6079TIP3   OH218181   2.258   7.031   4.428
 6079TIP3    H118182   2.244   6.941   4.458
 6079TIP3    H218183   2.339   7.058   4.470
 6080TIP3   OH218184   2.081   6.164   5.299
 6080TIP3    H118185   2.169   6.128   5.297
 6080TIP3    H218186   2.082   6.234   5.233
 6081TIP3   OH218187   7.227   3.945   5.299
 6081TIP3    H118188   7.184   4.001   5.234
 6081TIP3    H218189   7.320   3.966   5.290
 6082TIP3   OH218190   2.347   2.094   4.706
 6082TIP3    H118191   2.290   2.114   4.632
 6082TIP3    H218192   2.294   2.115   4.783
 6083TIP3   OH218193   3.513   1.095   1.808
 6083TIP3    H118194   3.530   1.060   1.895
 6083TIP3    H218195   3.599   1.119   1.775
 6084TIP3   OH218196   3.769   6.956   0.285
 6084TIP3    H118197   3.762   6.873   0.331
 6084TIP3    H218198   3.793   7.020   0.352
 6085TIP3   OH218199   7.824   6.663   3.141
 6085TIP3    H118200   7.903   6.687   3.190
 6085TIP3    H218201   7.842   6.575   3.109
 6086TIP3   OH218202   1.187   5.788   2.772
 6086TIP3    H118203   1.270   5.751   2.802
 6086TIP3    H218204   1.178   5.869   2.821
 6087TIP3   OH218205   1.138   6.467   0.503
 6087TIP3    H118206   1.149   6.505   0.590
 6087TIP3    H218207   1.069   6.401   0.515
 6088TIP3   OH218208   2.111   3.943   0.916
 6088TIP3    H118209   2.031   3.957   0.967
 6088TIP3    H218210   2.101   3.855   0.880
 6089TIP3   OH218211   2.173   5.507   4.250
 6089TIP3    H118212   2.228   5.457   4.190
 6089TIP3    H218213   2.181   5.462   4.334
 6090TIP3   OH218214   3.392   2.404   6.574
 6090TIP3    H118215   3.438   2.479   6.536
 6090TIP3    H218216   3.342   2.368   6.501
 6091TIP3   OH218217   4.054   1.068   5.209
 6091TIP3    H118218   3.992   1.012   5.162
 6091TIP3    H218219   4.063   1.146   5.154
 6092TIP3   OH218220   2.638   1.829   4.198
 6092TIP3    H118221   2.665   1.747   4.238
 6092TIP3    H218222   2.668   1.822   4.107
 6093TIP3   OH218223   4.005   4.827   0.035
 6093TIP3    H118224   3.966   4.894  -0.022
 6093TIP3    H218225   4.004   4.867   0.122
 6094TIP3   OH218226   4.851   1.501   6.049
 6094TIP3    H118227   4.758   1.483   6.037
 6094TIP3    H218228   4.876   1.552   5.973
 6095TIP3   OH218229   7.224   2.914   2.872
 6095TIP3    H118230   7.167   2.989   2.856
 6095TIP3    H218231   7.166   2.846   2.905
 6096TIP3   OH218232   5.559   3.056   6.224
 6096TIP3    H118233   5.590   3.008   6.147
 6096TIP3    H218234   5.622   3.127   6.235
 6097TIP3   OH218235   7.618   0.043   1.574
 6097TIP3    H118236   7.694   0.054   1.631
 6097TIP3    H218237   7.543   0.038   1.633
 6098TIP3   OH218238   2.152   6.244   1.948
 6098TIP3    H118239   2.089   6.172   1.949
 6098TIP3    H218240   2.237   6.201   1.957
 6099TIP3   OH218241   6.445   2.539   3.443
 6099TIP3    H118242   6.364   2.519   3.396
 6099TIP3    H218243   6.454   2.469   3.508
 6100TIP3   OH218244   1.321   7.535   3.214
 6100TIP3    H118245   1.243   7.507   3.260
 6100TIP3    H218246   1.350   7.457   3.166
 6101TIP3   OH218247   8.224   6.094   2.429
 6101TIP3    H118248   8.261   6.068   2.513
 6101TIP3    H218249   8.196   6.185   2.441
 6102TIP3   OH218250   6.115   6.528   2.768
 6102TIP3    H118251   6.076   6.603   2.723
 6102TIP3    H218252   6.186   6.565   2.821
 6103TIP3   OH218253   6.016   0.132   0.838
 6103TIP3    H118254   6.050   0.084   0.762
 6103TIP3    H218255   6.081   0.119   0.907
 6104TIP3   OH218256   5.486   0.649   3.829
 6104TIP3    H118257   5.444   0.650   3.915
 6104TIP3    H218258   5.473   0.737   3.795
 6105TIP3   OH218259   4.812   4.156   1.163
 6105TIP3    H118260   4.759   4.082   1.133
 6105TIP3    H218261   4.870   4.175   1.089
 6106TIP3   OH218262   2.394   7.566   2.211
 6106TIP3    H118263   2.330   7.636   2.224
 6106TIP3    H218264   2.452   7.599   2.142
 6107TIP3   OH218265   6.438   0.479   3.274
 6107TIP3    H118266   6.521   0.463   3.230
 6107TIP3    H218267   6.455   0.553   3.332
 6108TIP3   OH218268   0.377   7.532   1.279
 6108TIP3    H118269   0.321   7.581   1.339
 6108TIP3    H218270   0.318   7.504   1.209
 6109TIP3   OH218271   7.433   4.782   0.247
 6109TIP3    H118272   7.436   4.876   0.259
 6109TIP3    H218273   7.395   4.748   0.329
 6110TIP3   OH218274   0.905   7.789   3.495
 6110TIP3    H118275   0.893   7.821   3.585
 6110TIP3    H218276   0.830   7.824   3.447
 6111TIP3   OH218277   1.561   5.531   0.815
 6111TIP3    H118278   1.491   5.473   0.785
 6111TIP3    H218279   1.641   5.480   0.801
 6112TIP3   OH218280   0.821   7.308  -0.019
 6112TIP3    H118281   0.826   7.213  -0.006
 6112TIP3    H218282   0.744   7.335   0.031
 6113TIP3   OH218283   6.529   2.507   0.166
 6113TIP3    H118284   6.563   2.522   0.078
 6113TIP3    H218285   6.438   2.479   0.153
 6114TIP3   OH218286   4.998   4.574   5.545
 6114TIP3    H118287   5.046   4.643   5.591
 6114TIP3    H218288   5.051   4.496   5.558
 6115TIP3   OH218289   8.010   1.015   4.362
 6115TIP3    H118290   7.914   1.019   4.360
 6115TIP3    H218291   8.036   1.082   4.426
 6116TIP3   OH218292   4.207   6.004   4.168
 6116TIP3    H118293   4.137   5.939   4.175
 6116TIP3    H218294   4.167   6.076   4.120
 6117TIP3   OH218295   0.339   3.061   6.168
 6117TIP3    H118296   0.284   3.060   6.090
 6117TIP3    H218297   0.318   3.143   6.212
 6118TIP3   OH218298   4.326   4.033   3.800
 6118TIP3    H118299   4.353   4.031   3.891
 6118TIP3    H218300   4.394   4.084   3.756
 6119TIP3   OH218301   5.584   3.449   0.888
 6119TIP3    H118302   5.598   3.365   0.844
 6119TIP3    H218303   5.667   3.467   0.932
 6120TIP3   OH218304   0.010   5.646   1.877
 6120TIP3    H118305   0.064   5.662   1.955
 6120TIP3    H218306   0.012   5.729   1.830
 6121TIP3   OH218307   8.060   2.077   4.784
 6121TIP3    H118308   7.973   2.083   4.824
 6121TIP3    H218309   8.060   2.143   4.715
 6122TIP3   OH218310   1.760   3.567   2.086
 6122TIP3    H118311   1.814   3.555   2.008
 6122TIP3    H218312   1.801   3.512   2.152
 6123TIP3   OH218313   0.191   2.383   3.164
 6123TIP3    H118314   0.104   2.382   3.126
 6123TIP3    H218315   0.193   2.462   3.218
 6124TIP3   OH218316   6.856   6.663   4.624
 6124TIP3    H118317   6.867   6.735   4.562
 6124TIP3    H218318   6.875   6.701   4.709
 6125TIP3   OH218319   4.876   5.811   4.229
 6125TIP3    H118320   4.873   5.735   4.287
 6125TIP3    H218321   4.955   5.858   4.256
 6126TIP3   OH218322   2.453   5.043   4.601
 6126TIP3    H118323   2.495   4.990   4.533
 6126TIP3    H218324   2.524   5.063   4.663
 6127TIP3   OH218325   3.673   5.748   3.787
 6127TIP3    H118326   3.658   5.759   3.881
 6127TIP3    H218327   3.684   5.837   3.753
 6128TIP3   OH218328   6.358   6.346   2.909
 6128TIP3    H118329   6.439   6.303   2.881
 6128TIP3    H218330   6.321   6.381   2.828
 6129TIP3   OH218331   0.147   4.842   1.929
 6129TIP3    H118332   0.151   4.867   1.837
 6129TIP3    H218333   0.057   4.860   1.955
 6130TIP3   OH218334   5.148   5.440   6.226
 6130TIP3    H118335   5.225   5.386   6.207
 6130TIP3    H218336   5.146   5.445   6.321
 6131TIP3   OH218337   6.818   0.979   4.416
 6131TIP3    H118338   6.853   0.898   4.452
 6131TIP3    H218339   6.859   0.987   4.330
 6132TIP3   OH218340   5.089   7.497   3.385
 6132TIP3    H118341   4.993   7.489   3.387
 6132TIP3    H218342   5.105   7.590   3.376
 6133TIP3   OH218343   0.227   6.046   1.121
 6133TIP3    H118344   0.267   5.963   1.092
 6133TIP3    H218345   0.296   6.111   1.108
 6134TIP3   OH218346   7.324   6.338   6.732
 6134TIP3    H118347   7.298   6.339   6.640
 6134TIP3    H218348   7.260   6.393   6.776
 6135TIP3   OH218349   7.182   7.115   4.983
 6135TIP3    H118350   7.241   7.169   4.930
 6135TIP3    H218351   7.151   7.174   5.052
 6136TIP3   OH218352   7.710   5.160   2.843
 6136TIP3    H118353   7.734   5.232   2.784
 6136TIP3    H218354   7.649   5.106   2.792
 6137TIP3   OH218355   6.618   2.594   0.961
 6137TIP3    H118356   6.549   2.655   0.985
 6137TIP3    H218357   6.664   2.637   0.889
 6138TIP3   OH218358   1.440   5.093   3.347
 6138TIP3    H118359   1.424   5.186   3.365
 6138TIP3    H218360   1.357   5.050   3.369
 6139TIP3   OH218361   4.739   2.979   4.024
 6139TIP3    H118362   4.678   3.028   3.969
 6139TIP3    H218363   4.819   3.032   4.024
 6140TIP3   OH218364   2.197   3.615   3.111
 6140TIP3    H118365   2.219   3.563   3.033
 6140TIP3    H218366   2.281   3.628   3.156
 6141TIP3   OH218367   5.170   3.799   1.136
 6141TIP3    H118368   5.156   3.705   1.143
 6141TIP3    H218369   5.261   3.807   1.107
 6142TIP3   OH218370   3.757   3.785   5.009
 6142TIP3    H118371   3.747   3.880   5.010
 6142TIP3    H218372   3.720   3.755   5.092
 6143TIP3   OH218373   4.376   4.554   0.640
 6143TIP3    H118374   4.283   4.539   0.658
 6143TIP3    H218375   4.417   4.468   0.651
 6144TIP3   OH218376   6.334   5.694   1.151
 6144TIP3    H118377   6.330   5.639   1.229
 6144TIP3    H218378   6.367   5.778   1.184
 6145TIP3   OH218379   5.257   1.956   1.103
 6145TIP3    H118380   5.167   1.925   1.113
 6145TIP3    H218381   5.274   2.005   1.184
 6146TIP3   OH218382   7.853   3.502   0.111
 6146TIP3    H118383   7.932   3.529   0.158
 6146TIP3    H218384   7.855   3.406   0.113
 6147TIP3   OH218385   2.008   2.972   4.695
 6147TIP3    H118386   2.054   2.945   4.616
 6147TIP3    H218387   2.071   3.026   4.742
 6148TIP3   OH218388   0.105   5.333   6.465
 6148TIP3    H118389   0.148   5.392   6.403
 6148TIP3    H218390   0.175   5.303   6.522
 6149TIP3   OH218391   5.952   1.988   1.175
 6149TIP3    H118392   5.875   1.931   1.169
 6149TIP3    H218393   6.012   1.956   1.108
 6150TIP3   OH218394   7.637   3.492   6.197
 6150TIP3    H118395   7.594   3.474   6.280
 6150TIP3    H218396   7.566   3.498   6.133
 6151TIP3   OH218397   4.273   7.680   1.453
 6151TIP3    H118398   4.329   7.619   1.405
 6151TIP3    H218399   4.280   7.763   1.407
 6152TIP3   OH218400   5.530   5.413   1.428
 6152TIP3    H118401   5.622   5.438   1.439
 6152TIP3    H218402   5.527   5.322   1.458
 6153TIP3   OH218403   3.650   6.036   3.747
 6153TIP3    H118404   3.710   6.066   3.816
 6153TIP3    H218405   3.707   6.021   3.671
 6154TIP3   OH218406   1.511   7.184   5.922
 6154TIP3    H118407   1.557   7.181   5.838
 6154TIP3    H218408   1.579   7.203   5.986
 6155TIP3   OH218409   7.689   3.932   5.350
 6155TIP3    H118410   7.646   3.988   5.414
 6155TIP3    H218411   7.743   3.992   5.298
 6156TIP3   OH218412   5.711   7.001   1.413
 6156TIP3    H118413   5.784   6.971   1.358
 6156TIP3    H218414   5.638   6.944   1.390
 6157TIP3   OH218415   1.402   6.649   1.100
 6157TIP3    H118416   1.455   6.584   1.145
 6157TIP3    H218417   1.414   6.630   1.007
 6158TIP3   OH218418   3.826   4.678   2.018
 6158TIP3    H118419   3.903   4.714   1.973
 6158TIP3    H218420   3.757   4.743   2.002
 6159TIP3   OH218421   3.327   0.992   2.219
 6159TIP3    H118422   3.416   1.011   2.249
 6159TIP3    H218423   3.312   0.901   2.243
 6160TIP3   OH218424   0.074   1.565   6.723
 6160TIP3    H118425  -0.012   1.542   6.688
 6160TIP3    H218426   0.134   1.546   6.651
 6161TIP3   OH218427   1.231   3.017   2.785
 6161TIP3    H118428   1.284   3.026   2.863
 6161TIP3    H218429   1.289   2.976   2.721
 6162TIP3   OH218430   0.926   0.578   3.657
 6162TIP3    H118431   1.020   0.562   3.648
 6162TIP3    H218432   0.913   0.589   3.752
 6163TIP3   OH218433   1.789   2.569   2.554
 6163TIP3    H118434   1.880   2.547   2.573
 6163TIP3    H218435   1.780   2.660   2.579
 6164TIP3   OH218436   6.933   6.996   0.446
 6164TIP3    H118437   6.991   6.938   0.395
 6164TIP3    H218438   6.987   7.028   0.517
 6165TIP3   OH218439   7.805   3.631   0.771
 6165TIP3    H118440   7.761   3.707   0.734
 6165TIP3    H218441   7.834   3.580   0.696
 6166TIP3   OH218442   3.966   7.619   0.424
 6166TIP3    H118443   3.999   7.547   0.370
 6166TIP3    H218444   4.007   7.606   0.510
 6167TIP3   OH218445   7.082   3.754   5.010
 6167TIP3    H118446   7.023   3.786   5.078
 6167TIP3    H218447   7.053   3.799   4.930
 6168TIP3   OH218448   0.110   0.133   5.065
 6168TIP3    H118449   0.092   0.146   4.972
 6168TIP3    H218450   0.029   0.158   5.109
 6169TIP3   OH218451   3.927   7.473   1.744
 6169TIP3    H118452   3.894   7.537   1.680
 6169TIP3    H218453   3.866   7.480   1.818
 6170TIP3   OH218454   2.945   4.373   6.655
 6170TIP3    H118455   3.007   4.443   6.637
 6170TIP3    H218456   2.997   4.293   6.654
 6171TIP3   OH218457   0.962   7.109   3.949
 6171TIP3    H118458   0.889   7.159   3.983
 6171TIP3    H218459   0.937   7.089   3.859
 6172TIP3   OH218460   3.325   5.412   3.732
 6172TIP3    H118461   3.290   5.354   3.799
 6172TIP3    H218462   3.414   5.380   3.716
 6173TIP3   OH218463   7.966   5.541   3.162
 6173TIP3    H118464   8.059   5.558   3.176
 6173TIP3    H218465   7.935   5.509   3.246
 6174TIP3   OH218466   4.844   1.427   1.919
 6174TIP3    H118467   4.812   1.511   1.952
 6174TIP3    H218468   4.937   1.441   1.902
 6175TIP3   OH218469   0.161   4.705   4.593
 6175TIP3    H118470   0.090   4.679   4.652
 6175TIP3    H218471   0.231   4.641   4.610
 6176TIP3   OH218472   2.649   0.044   3.346
 6176TIP3    H118473   2.591   0.120   3.340
 6176TIP3    H218474   2.660   0.016   3.255
 6177TIP3   OH218475   3.451   3.446   3.542
 6177TIP3    H118476   3.405   3.490   3.471
 6177TIP3    H218477   3.448   3.508   3.615
 6178TIP3   OH218478   0.859   6.670   1.372
 6178TIP3    H118479   0.773   6.706   1.347
 6178TIP3    H218480   0.839   6.600   1.434
 6179TIP3   OH218481   3.069   0.768   3.611
 6179TIP3    H118482   3.013   0.691   3.614
 6179TIP3    H218483   3.027   0.831   3.670
 6180TIP3   OH218484   8.216   6.931   1.619
 6180TIP3    H118485   8.294   6.881   1.643
 6180TIP3    H218486   8.196   6.983   1.697
 6181TIP3   OH218487   4.086   6.711   0.467
 6181TIP3    H118488   4.153   6.662   0.419
 6181TIP3    H218489   4.006   6.699   0.415
 6182TIP3   OH218490   1.105   5.065   5.922
 6182TIP3    H118491   1.036   5.002   5.901
 6182TIP3    H218492   1.060   5.149   5.929
 6183TIP3   OH218493   4.574   1.838   4.336
 6183TIP3    H118494   4.540   1.785   4.264
 6183TIP3    H218495   4.604   1.774   4.400
 6184TIP3   OH218496   7.190   4.776   1.007
 6184TIP3    H118497   7.245   4.777   0.928
 6184TIP3    H218498   7.241   4.823   1.072
 6185TIP3   OH218499   4.236   4.296   6.468
 6185TIP3    H118500   4.179   4.290   6.545
 6185TIP3    H218501   4.205   4.374   6.422
 6186TIP3   OH218502   0.355   4.016   5.311
 6186TIP3    H118503   0.430   4.013   5.370
 6186TIP3    H218504   0.375   3.950   5.244
 6187TIP3   OH218505   4.822   5.548   0.331
 6187TIP3    H118506   4.742   5.594   0.356
 6187TIP3    H218507   4.828   5.561   0.236
 6188TIP3   OH218508   4.467   5.452   3.881
 6188TIP3    H118509   4.452   5.523   3.818
 6188TIP3    H218510   4.510   5.383   3.830
 6189TIP3   OH218511   2.524   2.173   1.105
 6189TIP3    H118512   2.533   2.102   1.168
 6189TIP3    H218513   2.545   2.252   1.154
 6190TIP3   OH218514   0.615   7.215   0.335
 6190TIP3    H118515   0.524   7.237   0.354
 6190TIP3    H218516   0.633   7.257   0.250
 6191TIP3   OH218517   7.608   0.812   2.444
 6191TIP3    H118518   7.688   0.759   2.448
 6191TIP3    H218519   7.591   0.821   2.350
 6192TIP3   OH218520   1.313   6.643   4.960
 6192TIP3    H118521   1.390   6.624   5.013
 6192TIP3    H218522   1.300   6.565   4.907
 6193TIP3   OH218523   4.207   0.211   3.717
 6193TIP3    H118524   4.186   0.303   3.728
 6193TIP3    H218525   4.190   0.193   3.625
 6194TIP3   OH218526   5.389   5.924   2.447
 6194TIP3    H118527   5.337   5.987   2.496
 6194TIP3    H218528   5.326   5.859   2.416
 6195TIP3   OH218529   6.743   3.549   5.978
 6195TIP3    H118530   6.757   3.643   5.992
 6195TIP3    H218531   6.814   3.507   6.027
 6196TIP3   OH218532   6.972   3.139   4.179
 6196TIP3    H118533   6.997   3.102   4.264
 6196TIP3    H218534   6.877   3.145   4.183
 6197TIP3   OH218535   0.229   7.601   1.950
 6197TIP3    H118536   0.178   7.667   1.997
 6197TIP3    H218537   0.268   7.648   1.877
 6198TIP3   OH218538   4.596   5.487   2.813
 6198TIP3    H118539   4.593   5.583   2.819
 6198TIP3    H218540   4.636   5.470   2.728
 6199TIP3   OH218541   1.080   0.848   5.742
 6199TIP3    H118542   1.075   0.943   5.733
 6199TIP3    H218543   0.990   0.820   5.758
 6200TIP3   OH218544   6.204   4.788   3.625
 6200TIP3    H118545   6.265   4.836   3.680
 6200TIP3    H218546   6.117   4.811   3.659
 6201TIP3   OH218547   2.388   1.255   5.205
 6201TIP3    H118548   2.431   1.208   5.134
 6201TIP3    H218549   2.295   1.237   5.192
 6202TIP3   OH218550   6.542   4.238   1.210
 6202TIP3    H118551   6.473   4.303   1.192
 6202TIP3    H218552   6.616   4.268   1.158
 6203TIP3   OH218553   2.689   2.564   0.711
 6203TIP3    H118554   2.782   2.585   0.714
 6203TIP3    H218555   2.676   2.498   0.779
 6204TIP3   OH218556   7.709   1.622   0.120
 6204TIP3    H118557   7.686   1.544   0.170
 6204TIP3    H218558   7.741   1.684   0.185
 6205TIP3   OH218559   0.104   6.858   2.415
 6205TIP3    H118560   0.023   6.807   2.416
 6205TIP3    H218561   0.139   6.849   2.504
 6206TIP3   OH218562   2.820   5.983   3.392
 6206TIP3    H118563   2.735   5.942   3.376
 6206TIP3    H218564   2.868   5.920   3.444
 6207TIP3   OH218565   8.015   4.910   1.078
 6207TIP3    H118566   8.060   4.950   1.004
 6207TIP3    H218567   8.071   4.929   1.153
 6208TIP3   OH218568   6.286   0.520   2.224
 6208TIP3    H118569   6.325   0.577   2.290
 6208TIP3    H218570   6.252   0.580   2.157
 6209TIP3   OH218571   0.683   2.592   6.156
 6209TIP3    H118572   0.698   2.684   6.176
 6209TIP3    H218573   0.644   2.557   6.236
 6210TIP3   OH218574   4.328   0.071   4.877
 6210TIP3    H118575   4.402   0.014   4.857
 6210TIP3    H218576   4.367   0.157   4.893
 6211TIP3   OH218577   5.826   7.304   1.073
 6211TIP3    H118578   5.806   7.362   1.000
 6211TIP3    H218579   5.777   7.223   1.053
 6212TIP3   OH218580   3.558   1.645   2.687
 6212TIP3    H118581   3.483   1.697   2.659
 6212TIP3    H218582   3.529   1.554   2.680
 6213TIP3   OH218583   1.627   0.642   2.151
 6213TIP3    H118584   1.637   0.564   2.097
 6213TIP3    H218585   1.688   0.705   2.112
 6214TIP3   OH218586   0.681   1.106   1.811
 6214TIP3    H118587   0.748   1.087   1.746
 6214TIP3    H218588   0.696   1.197   1.836
 6215TIP3   OH218589   0.924   4.605   3.675
 6215TIP3    H118590   0.960   4.590   3.763
 6215TIP3    H218591   0.901   4.518   3.643
 6216TIP3   OH218592   1.227   0.621   3.511
 6216TIP3    H118593   1.300   0.587   3.563
 6216TIP3    H218594   1.243   0.715   3.504
 6217TIP3   OH218595   1.615   7.443   1.361
 6217TIP3    H118596   1.671   7.365   1.362
 6217TIP3    H218597   1.617   7.474   1.271
 6218TIP3   OH218598   4.874   7.445   1.903
 6218TIP3    H118599   4.933   7.379   1.866
 6218TIP3    H218600   4.857   7.506   1.831
 6219TIP3   OH218601   1.081   5.011   0.249
 6219TIP3    H118602   1.068   4.927   0.292
 6219TIP3    H218603   0.996   5.033   0.213
 6220TIP3   OH218604   5.049   6.843   1.984
 6220TIP3    H118605   5.090   6.764   1.947
 6220TIP3    H218606   5.052   6.829   2.079
 6221TIP3   OH218607   2.035   2.489   3.741
 6221TIP3    H118608   2.122   2.492   3.700
 6221TIP3    H218609   1.976   2.525   3.675
 6222TIP3   OH218610   4.159   2.855   3.718
 6222TIP3    H118611   4.141   2.767   3.686
 6222TIP3    H218612   4.083   2.906   3.690
 6223TIP3   OH218613   6.617   3.884   4.533
 6223TIP3    H118614   6.554   3.875   4.605
 6223TIP3    H218615   6.615   3.977   4.511
 6224TIP3   OH218616   7.608   4.557   0.961
 6224TIP3    H118617   7.681   4.574   1.021
 6224TIP3    H218618   7.647   4.509   0.888
 6225TIP3   OH218619   5.160   1.412   5.816
 6225TIP3    H118620   5.206   1.429   5.734
 6225TIP3    H218621   5.151   1.498   5.857
 6226TIP3   OH218622   0.533   1.712   2.044
 6226TIP3    H118623   0.449   1.698   2.087
 6226TIP3    H218624   0.591   1.742   2.115
 6227TIP3   OH218625   6.240   3.522   2.675
 6227TIP3    H118626   6.265   3.509   2.583
 6227TIP3    H218627   6.153   3.561   2.670
 6228TIP3   OH218628   7.405   4.413   1.587
 6228TIP3    H118629   7.466   4.353   1.631
 6228TIP3    H218630   7.326   4.362   1.574
 6229TIP3   OH218631   6.759   7.152   5.882
 6229TIP3    H118632   6.690   7.217   5.894
 6229TIP3    H218633   6.757   7.131   5.789
 6230TIP3   OH218634   2.688   5.907   6.590
 6230TIP3    H118635   2.674   5.907   6.496
 6230TIP3    H218636   2.651   5.991   6.620
 6231TIP3   OH218637   3.255   7.476   2.819
 6231TIP3    H118638   3.182   7.444   2.872
 6231TIP3    H218639   3.230   7.565   2.794
 6232TIP3   OH218640   0.536   0.190   3.113
 6232TIP3    H118641   0.472   0.209   3.044
 6232TIP3    H218642   0.497   0.118   3.162
 6233TIP3   OH218643   5.229   0.585   0.845
 6233TIP3    H118644   5.157   0.637   0.879
 6233TIP3    H218645   5.202   0.494   0.860
 6234TIP3   OH218646   1.414   4.467   0.749
 6234TIP3    H118647   1.410   4.446   0.656
 6234TIP3    H218648   1.322   4.476   0.775
 6235TIP3   OH218649   3.699   4.471   1.831
 6235TIP3    H118650   3.762   4.417   1.878
 6235TIP3    H218651   3.640   4.503   1.899
 6236TIP3   OH218652   0.443   4.053   3.341
 6236TIP3    H118653   0.530   4.084   3.365
 6236TIP3    H218654   0.398   4.130   3.307
 6237TIP3   OH218655   4.674   1.418   3.060
 6237TIP3    H118656   4.759   1.419   3.105
 6237TIP3    H218657   4.659   1.325   3.038
 6238TIP3   OH218658   1.825   3.702   4.713
 6238TIP3    H118659   1.760   3.645   4.670
 6238TIP3    H218660   1.841   3.659   4.797
 6239TIP3   OH218661   3.534   5.131   2.308
 6239TIP3    H118662   3.595   5.203   2.296
 6239TIP3    H218663   3.454   5.173   2.339
 6240TIP3   OH218664   5.467   1.552   4.224
 6240TIP3    H118665   5.441   1.557   4.316
 6240TIP3    H218666   5.562   1.559   4.225
 6241TIP3   OH218667   8.098   1.831   2.031
 6241TIP3    H118668   8.163   1.830   1.961
 6241TIP3    H218669   8.078   1.924   2.045
 6242TIP3   OH218670   7.349   1.451   2.110
 6242TIP3    H118671   7.389   1.532   2.140
 6242TIP3    H218672   7.312   1.412   2.190
 6243TIP3   OH218673   4.534   2.627   5.464
 6243TIP3    H118674   4.509   2.618   5.372
 6243TIP3    H218675   4.558   2.538   5.491
 6244TIP3   OH218676   1.583   3.880   2.488
 6244TIP3    H118677   1.564   3.919   2.403
 6244TIP3    H218678   1.522   3.922   2.548
 6245TIP3   OH218679   0.461   1.361   0.565
 6245TIP3    H118680   0.460   1.418   0.488
 6245TIP3    H218681   0.547   1.374   0.604
 6246TIP3   OH218682   3.183   1.242   1.132
 6246TIP3    H118683   3.210   1.154   1.159
 6246TIP3    H218684   3.251   1.270   1.070
 6247TIP3   OH218685   4.774   1.361   0.806
 6247TIP3    H118686   4.844   1.415   0.771
 6247TIP3    H218687   4.818   1.284   0.842
 6248TIP3   OH218688   4.059   3.964   1.611
 6248TIP3    H118689   4.123   3.989   1.677
 6248TIP3    H218690   4.017   4.047   1.586
 6249TIP3   OH218691   7.120   3.589   5.227
 6249TIP3    H118692   7.154   3.577   5.138
 6249TIP3    H218693   7.139   3.681   5.247
 6250TIP3   OH218694   2.404   7.292   2.185
 6250TIP3    H118695   2.372   7.381   2.197
 6250TIP3    H218696   2.450   7.294   2.100
 6251TIP3   OH218697   1.315   0.549   6.383
 6251TIP3    H118698   1.252   0.593   6.441
 6251TIP3    H218699   1.363   0.490   6.441
 6252TIP3   OH218700   1.665   7.651   1.548
 6252TIP3    H118701   1.674   7.571   1.495
 6252TIP3    H218702   1.612   7.709   1.494
 6253TIP3   OH218703   2.213   2.911   5.086
 6253TIP3    H118704   2.210   2.949   5.174
 6253TIP3    H218705   2.290   2.853   5.088
 6254TIP3   OH218706   7.869   0.516   1.689
 6254TIP3    H118707   7.882   0.607   1.663
 6254TIP3    H218708   7.826   0.522   1.775
 6255TIP3   OH218709   6.187   0.661   5.686
 6255TIP3    H118710   6.221   0.724   5.750
 6255TIP3    H218711   6.262   0.604   5.666
 6256TIP3   OH218712   5.006   3.329   2.289
 6256TIP3    H118713   5.041   3.419   2.295
 6256TIP3    H218714   4.950   3.319   2.365
 6257TIP3   OH218715   4.187   0.585   5.014
 6257TIP3    H118716   4.101   0.549   4.989
 6257TIP3    H218717   4.195   0.566   5.107
 6258TIP3   OH218718   3.436   2.885   5.334
 6258TIP3    H118719   3.366   2.826   5.361
 6258TIP3    H218720   3.468   2.848   5.252
 6259TIP3   OH218721   6.034   2.362   0.183
 6259TIP3    H118722   5.981   2.386   0.106
 6259TIP3    H218723   6.018   2.433   0.245
 6260TIP3   OH218724   5.968   4.125   5.846
 6260TIP3    H118725   5.904   4.115   5.917
 6260TIP3    H218726   6.032   4.188   5.881
 6261TIP3   OH218727   3.645   2.555   5.283
 6261TIP3    H118728   3.675   2.551   5.192
 6261TIP3    H218729   3.684   2.479   5.325
 6262TIP3   OH218730   6.978   1.965   0.476
 6262TIP3    H118731   6.944   1.951   0.387
 6262TIP3    H218732   6.907   2.009   0.522
 6263TIP3   OH218733   7.767   7.208   2.629
 6263TIP3    H118734   7.791   7.213   2.722
 6263TIP3    H218735   7.703   7.278   2.617
 6264TIP3   OH218736   7.316   0.397   5.034
 6264TIP3    H118737   7.355   0.484   5.047
 6264TIP3    H218738   7.288   0.370   5.122
 6265TIP3   OH218739   7.806   1.302   2.740
 6265TIP3    H118740   7.718   1.301   2.703
 6265TIP3    H218741   7.818   1.392   2.770
 6266TIP3   OH218742   4.524   5.248   1.830
 6266TIP3    H118743   4.554   5.262   1.920
 6266TIP3    H218744   4.570   5.169   1.801
 6267TIP3   OH218745   7.273   6.160   6.121
 6267TIP3    H118746   7.220   6.212   6.060
 6267TIP3    H218747   7.291   6.079   6.074
 6268TIP3   OH218748   4.797   2.359   4.385
 6268TIP3    H118749   4.780   2.389   4.296
 6268TIP3    H218750   4.719   2.386   4.434
 6269TIP3   OH218751   3.230   0.194   2.171
 6269TIP3    H118752   3.178   0.177   2.092
 6269TIP3    H218753   3.212   0.286   2.192
 6270TIP3   OH218754   4.825   0.295   5.505
 6270TIP3    H118755   4.918   0.316   5.508
 6270TIP3    H218756   4.820   0.218   5.448
 6271TIP3   OH218757   7.689   1.129   5.263
 6271TIP3    H118758   7.627   1.062   5.235
 6271TIP3    H218759   7.774   1.096   5.234
 6272TIP3   OH218760   4.547   0.308   2.932
 6272TIP3    H118761   4.472   0.301   2.991
 6272TIP3    H218762   4.592   0.388   2.959
 6273TIP3   OH218763   7.289   0.986   6.510
 6273TIP3    H118764   7.385   0.981   6.514
 6273TIP3    H218765   7.263   0.910   6.459
 6274TIP3   OH218766   2.317   3.910   4.743
 6274TIP3    H118767   2.314   3.970   4.668
 6274TIP3    H218768   2.225   3.891   4.762
 6275TIP3   OH218769   4.825   0.720   4.683
 6275TIP3    H118770   4.833   0.798   4.739
 6275TIP3    H218771   4.813   0.755   4.595
 6276TIP3   OH218772   6.797   1.060   4.705
 6276TIP3    H118773   6.806   0.968   4.679
 6276TIP3    H218774   6.849   1.108   4.641
 6277TIP3   OH218775   7.498   2.363   1.695
 6277TIP3    H118776   7.438   2.290   1.705
 6277TIP3    H218777   7.498   2.381   1.601
 6278TIP3   OH218778   6.876   3.835   4.449
 6278TIP3    H118779   6.803   3.822   4.509
 6278TIP3    H218780   6.871   3.927   4.424
 6279TIP3   OH218781   7.450   6.637   4.944
 6279TIP3    H118782   7.403   6.608   4.866
 6279TIP3    H218783   7.421   6.727   4.958
 6280TIP3   OH218784   3.752   0.493   4.684
 6280TIP3    H118785   3.697   0.474   4.760
 6280TIP3    H218786   3.837   0.455   4.706
 6281TIP3   OH218787   3.801   3.229   5.636
 6281TIP3    H118788   3.787   3.192   5.549
 6281TIP3    H218789   3.863   3.168   5.678
 6282TIP3   OH218790   0.716   6.687   1.773
 6282TIP3    H118791   0.759   6.665   1.691
 6282TIP3    H218792   0.785   6.724   1.828
 6283TIP3   OH218793   7.284   1.771   3.103
 6283TIP3    H118794   7.196   1.809   3.107
 6283TIP3    H218795   7.315   1.775   3.193
 6284TIP3   OH218796   3.228   3.126   2.217
 6284TIP3    H118797   3.162   3.091   2.277
 6284TIP3    H218798   3.217   3.221   2.221
 6285TIP3   OH218799   6.120   5.617   3.246
 6285TIP3    H118800   6.109   5.704   3.285
 6285TIP3    H218801   6.154   5.563   3.318
 6286TIP3   OH218802   1.522   1.706   1.037
 6286TIP3    H118803   1.560   1.637   0.983
 6286TIP3    H218804   1.544   1.787   0.991
 6287TIP3   OH218805   0.301   4.517   5.513
 6287TIP3    H118806   0.324   4.438   5.464
 6287TIP3    H218807   0.352   4.586   5.472
 6288TIP3   OH218808   1.550   0.257   1.814
 6288TIP3    H118809   1.495   0.189   1.851
 6288TIP3    H218810   1.555   0.237   1.721
 6289TIP3   OH218811   3.994   0.445   4.820
 6289TIP3    H118812   4.001   0.395   4.901
 6289TIP3    H218813   4.050   0.398   4.758
 6290TIP3   OH218814   2.785   4.678   1.767
 6290TIP3    H118815   2.754   4.768   1.775
 6290TIP3    H218816   2.865   4.675   1.819
 6291TIP3   OH218817   2.896   3.356   5.977
 6291TIP3    H118818   2.890   3.260   5.974
 6291TIP3    H218819   2.987   3.375   5.954
 6292TIP3   OH218820   0.408   2.593   2.290
 6292TIP3    H118821   0.338   2.548   2.243
 6292TIP3    H218822   0.424   2.673   2.239
 6293TIP3   OH218823   5.528   2.698   1.771
 6293TIP3    H118824   5.435   2.709   1.791
 6293TIP3    H218825   5.541   2.603   1.772
 6294TIP3   OH218826   2.278   7.633   5.674
 6294TIP3    H118827   2.195   7.588   5.687
 6294TIP3    H218828   2.344   7.572   5.708
 6295TIP3   OH218829   3.720   0.805   2.498
 6295TIP3    H118830   3.727   0.764   2.411
 6295TIP3    H218831   3.733   0.898   2.482
 6296TIP3   OH218832   4.585   3.756   2.168
 6296TIP3    H118833   4.649   3.825   2.182
 6296TIP3    H218834   4.535   3.785   2.092
 6297TIP3   OH218835   1.330   3.177   2.014
 6297TIP3    H118836   1.318   3.253   1.956
 6297TIP3    H218837   1.242   3.139   2.021
 6298TIP3   OH218838   7.568   1.355   2.564
 6298TIP3    H118839   7.474   1.361   2.582
 6298TIP3    H218840   7.585   1.262   2.557
 6299TIP3   OH218841   0.575   4.078   3.671
 6299TIP3    H118842   0.622   4.023   3.734
 6299TIP3    H218843   0.636   4.086   3.597
 6300TIP3   OH218844   3.238   5.509   3.187
 6300TIP3    H118845   3.307   5.570   3.214
 6300TIP3    H218846   3.263   5.483   3.098
 6301TIP3   OH218847   1.442   4.178   2.483
 6301TIP3    H118848   1.367   4.235   2.498
 6301TIP3    H218849   1.419   4.129   2.404
 6302TIP3   OH218850   4.611   2.092   5.731
 6302TIP3    H118851   4.559   2.016   5.756
 6302TIP3    H218852   4.552   2.166   5.741
 6303TIP3   OH218853   5.030   1.982   4.255
 6303TIP3    H118854   5.095   1.913   4.268
 6303TIP3    H218855   5.068   2.038   4.187
 6304TIP3   OH218856   4.461   1.888   3.406
 6304TIP3    H118857   4.439   1.803   3.367
 6304TIP3    H218858   4.519   1.930   3.341
 6305TIP3   OH218859   4.898   0.326   1.938
 6305TIP3    H118860   4.966   0.348   2.001
 6305TIP3    H218861   4.941   0.270   1.874
 6306TIP3   OH218862   0.705   1.142   2.098
 6306TIP3    H118863   0.677   1.120   2.010
 6306TIP3    H218864   0.625   1.146   2.150
 6307TIP3   OH218865   2.947   0.843  -0.004
 6307TIP3    H118866   3.020   0.782   0.010
 6307TIP3    H218867   2.870   0.795   0.027
 6308TIP3   OH218868   0.385   7.328   0.939
 6308TIP3    H118869   0.474   7.318   0.974
 6308TIP3    H218870   0.385   7.415   0.899
 6309TIP3   OH218871   6.680   4.727   3.221
 6309TIP3    H118872   6.736   4.650   3.215
 6309TIP3    H218873   6.608   4.700   3.278
 6310TIP3   OH218874   2.959   0.167   3.999
 6310TIP3    H118875   3.015   0.199   3.928
 6310TIP3    H218876   3.019   0.141   4.068
 6311TIP3   OH218877   6.961   5.512   2.810
 6311TIP3    H118878   7.014   5.460   2.749
 6311TIP3    H218879   6.881   5.461   2.822
 6312TIP3   OH218880   5.876   1.510   2.769
 6312TIP3    H118881   5.871   1.481   2.678
 6312TIP3    H218882   5.920   1.438   2.815
 6313TIP3   OH218883   1.153   2.815   4.847
 6313TIP3    H118884   1.176   2.744   4.907
 6313TIP3    H218885   1.238   2.853   4.822
 6314TIP3   OH218886   1.035   6.251   0.654
 6314TIP3    H118887   0.986   6.266   0.735
 6314TIP3    H218888   0.972   6.210   0.595
 6315TIP3   OH218889   0.975   7.156   3.434
 6315TIP3    H118890   0.918   7.079   3.434
 6315TIP3    H218891   1.059   7.124   3.400
 6316TIP3   OH218892   0.656   5.347   4.592
 6316TIP3    H118893   0.578   5.369   4.540
 6316TIP3    H218894   0.691   5.269   4.549
 6317TIP3   OH218895   3.876   4.772   2.459
 6317TIP3    H118896   3.854   4.696   2.406
 6317TIP3    H218897   3.845   4.847   2.408
 6318TIP3   OH218898   2.119   1.478   0.213
 6318TIP3    H118899   2.026   1.484   0.190
 6318TIP3    H218900   2.121   1.415   0.285
 6319TIP3   OH218901   5.887   2.330   6.052
 6319TIP3    H118902   5.800   2.308   6.086
 6319TIP3    H218903   5.947   2.275   6.102
 6320TIP3   OH218904   7.410   4.549   4.915
 6320TIP3    H118905   7.340   4.512   4.969
 6320TIP3    H218906   7.476   4.580   4.978
 6321TIP3   OH218907   8.174   6.398   0.440
 6321TIP3    H118908   8.241   6.333   0.420
 6321TIP3    H218909   8.095   6.365   0.398
 6322TIP3   OH218910   4.501   1.734   0.248
 6322TIP3    H118911   4.475   1.665   0.310
 6322TIP3    H218912   4.450   1.716   0.169
 6323TIP3   OH218913   7.149   5.339   3.331
 6323TIP3    H118914   7.123   5.429   3.312
 6323TIP3    H218915   7.089   5.311   3.400
 6324TIP3   OH218916   0.799   6.681   3.139
 6324TIP3    H118917   0.827   6.590   3.129
 6324TIP3    H218918   0.866   6.720   3.196
 6325TIP3   OH218919   2.310   4.969   0.510
 6325TIP3    H118920   2.308   5.034   0.440
 6325TIP3    H218921   2.242   4.997   0.571
 6326TIP3   OH218922   4.088   0.783   0.807
 6326TIP3    H118923   4.163   0.838   0.783
 6326TIP3    H218924   4.109   0.753   0.895
 6327TIP3   OH218925   5.511   7.676   2.619
 6327TIP3    H118926   5.466   7.592   2.628
 6327TIP3    H218927   5.600   7.659   2.651
 6328TIP3   OH218928   2.278   5.563   1.785
 6328TIP3    H118929   2.263   5.556   1.879
 6328TIP3    H218930   2.231   5.642   1.759
 6329TIP3   OH218931   2.276   5.764   6.738
 6329TIP3    H118932   2.288   5.688   6.681
 6329TIP3    H218933   2.228   5.730   6.814
 6330TIP3   OH218934   3.627   3.324   0.187
 6330TIP3    H118935   3.673   3.240   0.182
 6330TIP3    H218936   3.692   3.385   0.221
 6331TIP3   OH218937   7.140   5.131   2.458
 6331TIP3    H118938   7.086   5.132   2.378
 6331TIP3    H218939   7.214   5.074   2.436
 6332TIP3   OH218940   0.381   1.611   1.712
 6332TIP3    H118941   0.383   1.657   1.628
 6332TIP3    H218942   0.404   1.678   1.776
 6333TIP3   OH218943   0.171   5.270   1.201
 6333TIP3    H118944   0.216   5.350   1.228
 6333TIP3    H218945   0.078   5.294   1.200
 6334TIP3   OH218946   0.463   0.102   6.727
 6334TIP3    H118947   0.377   0.062   6.738
 6334TIP3    H218948   0.445   0.188   6.689
 6335TIP3   OH218949   0.126   2.031   0.044
 6335TIP3    H118950   0.049   2.011  -0.008
 6335TIP3    H218951   0.126   1.966   0.114
 6336TIP3   OH218952   1.310   0.347   5.583
 6336TIP3    H118953   1.290   0.277   5.521
 6336TIP3    H218954   1.227   0.392   5.597
 6337TIP3   OH218955   6.100   7.680   3.004
 6337TIP3    H118956   6.136   7.625   2.934
 6337TIP3    H218957   6.081   7.619   3.075
 6338TIP3   OH218958   7.257   0.192   0.669
 6338TIP3    H118959   7.227   0.225   0.754
 6338TIP3    H218960   7.205   0.113   0.654
 6339TIP3   OH218961   4.538   6.690   6.245
 6339TIP3    H118962   4.509   6.719   6.158
 6339TIP3    H218963   4.470   6.719   6.304
 6340TIP3   OH218964   3.631   6.360   6.087
 6340TIP3    H118965   3.715   6.390   6.051
 6340TIP3    H218966   3.618   6.274   6.047
 6341TIP3   OH218967   6.634   5.164   6.205
 6341TIP3    H118968   6.608   5.072   6.208
 6341TIP3    H218969   6.671   5.182   6.291
 6342TIP3   OH218970   2.610   0.351   2.591
 6342TIP3    H118971   2.547   0.335   2.520
 6342TIP3    H218972   2.604   0.446   2.606
 6343TIP3   OH218973   6.004   5.868   4.213
 6343TIP3    H118974   6.098   5.878   4.227
 6343TIP3    H218975   5.966   5.880   4.300
 6344TIP3   OH218976   0.007   0.565   4.983
 6344TIP3    H118977   0.033   0.489   4.932
 6344TIP3    H218978   0.066   0.565   5.058
 6345TIP3   OH218979   4.076   3.009   2.720
 6345TIP3    H118980   4.138   3.078   2.694
 6345TIP3    H218981   4.074   3.014   2.816
 6346TIP3   OH218982   1.525   1.984   5.529
 6346TIP3    H118983   1.510   1.969   5.622
 6346TIP3    H218984   1.608   2.031   5.526
 6347TIP3   OH218985   2.728   3.925   0.529
 6347TIP3    H118986   2.726   4.015   0.561
 6347TIP3    H218987   2.691   3.873   0.600
 6348TIP3   OH218988   1.055   1.804   2.611
 6348TIP3    H118989   1.132   1.747   2.622
 6348TIP3    H218990   1.069   1.847   2.527
 6349TIP3   OH218991   7.717   1.173   1.778
 6349TIP3    H118992   7.683   1.234   1.844
 6349TIP3    H218993   7.788   1.220   1.735
 6350TIP3   OH218994   2.414   6.693   3.044
 6350TIP3    H118995   2.449   6.674   2.957
 6350TIP3    H218996   2.424   6.612   3.093
 6351TIP3   OH218997   5.052   4.661   0.442
 6351TIP3    H118998   5.097   4.629   0.520
 6351TIP3    H218999   5.098   4.619   0.369
 6352TIP3   OH219000   2.319   2.708   6.175
 6352TIP3    H119001   2.266   2.676   6.101
 6352TIP3    H219002   2.409   2.705   6.143
 6353TIP3   OH219003   3.918   7.750   5.348
 6353TIP3    H119004   3.906   7.707   5.432
 6353TIP3    H219005   4.006   7.726   5.320
 6354TIP3   OH219006   5.043   6.226   1.116
 6354TIP3    H119007   5.094   6.155   1.076
 6354TIP3    H219008   4.952   6.198   1.109
 6355TIP3   OH219009   6.571   1.096   0.357
 6355TIP3    H119010   6.645   1.035   0.358
 6355TIP3    H219011   6.564   1.123   0.265
 6356TIP3   OH219012   6.853   4.437   2.886
 6356TIP3    H119013   6.910   4.500   2.842
 6356TIP3    H219014   6.893   4.352   2.867
 6357TIP3   OH219015   3.259   1.047   2.536
 6357TIP3    H119016   3.170   1.031   2.504
 6357TIP3    H219017   3.279   0.972   2.591
 6358TIP3   OH219018   4.360   4.091   0.671
 6358TIP3    H119019   4.397   4.047   0.594
 6358TIP3    H219020   4.267   4.069   0.669
 6359TIP3   OH219021   3.012   7.597   5.855
 6359TIP3    H119022   3.089   7.654   5.852
 6359TIP3    H219023   3.040   7.521   5.904
 6360TIP3   OH219024   0.238   4.342   4.114
 6360TIP3    H119025   0.238   4.434   4.142
 6360TIP3    H219026   0.147   4.324   4.092
 6361TIP3   OH219027   4.807   0.389   6.729
 6361TIP3    H119028   4.768   0.400   6.816
 6361TIP3    H219029   4.752   0.323   6.687
 6362TIP3   OH219030   0.306   7.272   4.039
 6362TIP3    H119031   0.333   7.212   3.970
 6362TIP3    H219032   0.212   7.257   4.049
 6363TIP3   OH219033   7.399   7.357   5.010
 6363TIP3    H119034   7.439   7.302   4.942
 6363TIP3    H219035   7.472   7.385   5.064
 6364TIP3   OH219036   7.466   7.154   3.598
 6364TIP3    H119037   7.438   7.134   3.508
 6364TIP3    H219038   7.508   7.240   3.591
 6365TIP3   OH219039   0.279   1.600   1.059
 6365TIP3    H119040   0.248   1.688   1.041
 6365TIP3    H219041   0.371   1.611   1.083
 6366TIP3   OH219042   6.321   2.949   3.539
 6366TIP3    H119043   6.321   3.033   3.584
 6366TIP3    H219044   6.230   2.919   3.544
 6367TIP3   OH219045   5.739   7.302   3.105
 6367TIP3    H119046   5.719   7.211   3.083
 6367TIP3    H219047   5.703   7.353   3.033
 6368TIP3   OH219048   0.419   1.183   6.257
 6368TIP3    H119049   0.333   1.166   6.294
 6368TIP3    H219050   0.409   1.162   6.164
 6369TIP3   OH219051   2.901   4.415   4.772
 6369TIP3    H119052   2.806   4.410   4.769
 6369TIP3    H219053   2.924   4.392   4.862
 6370TIP3   OH219054   0.447   5.276   4.761
 6370TIP3    H119055   0.517   5.321   4.715
 6370TIP3    H219056   0.461   5.298   4.853
 6371TIP3   OH219057   3.115   4.896   6.711
 6371TIP3    H119058   3.173   4.870   6.783
 6371TIP3    H219059   3.036   4.845   6.725
 6372TIP3   OH219060   5.606   2.150   4.273
 6372TIP3    H119061   5.700   2.158   4.258
 6372TIP3    H219062   5.578   2.078   4.217
 6373TIP3   OH219063   0.189   2.526   2.933
 6373TIP3    H119064   0.258   2.479   2.979
 6373TIP3    H219065   0.226   2.613   2.917
 6374TIP3   OH219066   4.005   3.720   4.259
 6374TIP3    H119067   4.070   3.672   4.311
 6374TIP3    H219068   4.051   3.800   4.231
 6375TIP3   OH219069   0.680   4.631   1.426
 6375TIP3    H119070   0.633   4.547   1.430
 6375TIP3    H219071   0.762   4.609   1.382
 6376TIP3   OH219072   7.979   5.251   1.001
 6376TIP3    H119073   8.025   5.170   0.977
 6376TIP3    H219074   7.907   5.257   0.939
 6377TIP3   OH219075   7.146   1.081   5.486
 6377TIP3    H119076   7.073   1.041   5.438
 6377TIP3    H219077   7.171   1.157   5.433
 6378TIP3   OH219078   1.769   3.091   5.142
 6378TIP3    H119079   1.779   3.132   5.228
 6378TIP3    H219080   1.785   2.998   5.159
 6379TIP3   OH219081   5.052   6.770   0.893
 6379TIP3    H119082   4.989   6.698   0.896
 6379TIP3    H219083   5.035   6.814   0.810
 6380TIP3   OH219084   1.570   6.784   2.927
 6380TIP3    H119085   1.497   6.724   2.941
 6380TIP3    H219086   1.546   6.832   2.847
 6381TIP3   OH219087   3.096   6.384   4.420
 6381TIP3    H119088   3.057   6.346   4.341
 6381TIP3    H219089   3.034   6.450   4.448
 6382TIP3   OH219090   5.764   2.207   5.315
 6382TIP3    H119091   5.788   2.271   5.382
 6382TIP3    H219092   5.671   2.223   5.299
 6383TIP3   OH219093   1.551   5.554   1.889
 6383TIP3    H119094   1.612   5.622   1.918
 6383TIP3    H219095   1.572   5.477   1.941
 6384TIP3   OH219096   2.564   5.553   2.090
 6384TIP3    H119097   2.546   5.554   1.996
 6384TIP3    H219098   2.504   5.487   2.125
 6385TIP3   OH219099   0.733   6.438   0.237
 6385TIP3    H119100   0.776   6.424   0.321
 6385TIP3    H219101   0.676   6.513   0.251
 6386TIP3   OH219102   5.994   3.909   3.299
 6386TIP3    H119103   5.931   3.915   3.371
 6386TIP3    H219104   5.948   3.858   3.232
 6387TIP3   OH219105   1.524   5.436   4.483
 6387TIP3    H119106   1.507   5.342   4.481
 6387TIP3    H219107   1.467   5.472   4.416
 6388TIP3   OH219108   1.401   6.863   4.822
 6388TIP3    H119109   1.312   6.893   4.804
 6388TIP3    H219110   1.389   6.786   4.877
 6389TIP3   OH219111   2.560   6.688   0.763
 6389TIP3    H119112   2.509   6.610   0.786
 6389TIP3    H219113   2.651   6.659   0.766
 6390TIP3   OH219114   2.129   4.560   4.425
 6390TIP3    H119115   2.050   4.583   4.376
 6390TIP3    H219116   2.100   4.491   4.485
 6391TIP3   OH219117   8.024   6.795   1.203
 6391TIP3    H119118   8.033   6.790   1.108
 6391TIP3    H219119   8.091   6.858   1.230
 6392TIP3   OH219120   1.072   0.208   6.366
 6392TIP3    H119121   1.025   0.266   6.306
 6392TIP3    H219122   1.055   0.120   6.330
 6393TIP3   OH219123   7.974   0.463   4.550
 6393TIP3    H119124   7.886   0.455   4.588
 6393TIP3    H219125   8.023   0.515   4.614
 6394TIP3   OH219126   3.011   4.825   6.070
 6394TIP3    H119127   2.940   4.820   6.006
 6394TIP3    H219128   3.078   4.766   6.037
 6395TIP3   OH219129   3.680   5.034   1.133
 6395TIP3    H119130   3.594   5.029   1.176
 6395TIP3    H219131   3.691   5.127   1.112
 6396TIP3   OH219132   4.760   5.367   1.292
 6396TIP3    H119133   4.852   5.345   1.276
 6396TIP3    H219134   4.718   5.363   1.206
 6397TIP3   OH219135   1.685   2.241   6.370
 6397TIP3    H119136   1.712   2.181   6.440
 6397TIP3    H219137   1.716   2.327   6.398
 6398TIP3   OH219138   1.039   5.109   5.639
 6398TIP3    H119139   0.989   5.046   5.690
 6398TIP3    H219140   1.114   5.131   5.695
 6399TIP3   OH219141   1.089   5.636   3.704
 6399TIP3    H119142   1.149   5.688   3.651
 6399TIP3    H219143   1.103   5.666   3.794
 6400TIP3   OH219144   2.180   3.573   4.095
 6400TIP3    H119145   2.136   3.625   4.027
 6400TIP3    H219146   2.195   3.488   4.053
 6401TIP3   OH219147   0.411   6.647   3.381
 6401TIP3    H119148   0.450   6.560   3.387
 6401TIP3    H219149   0.447   6.684   3.300
 6402TIP3   OH219150   4.222   2.854   3.244
 6402TIP3    H119151   4.218   2.803   3.325
 6402TIP3    H219152   4.143   2.830   3.196
 6403TIP3   OH219153   1.035   7.244   2.712
 6403TIP3    H119154   0.943   7.219   2.719
 6403TIP3    H219155   1.080   7.164   2.686
 6404TIP3   OH219156   7.018   5.237   1.451
 6404TIP3    H119157   7.104   5.208   1.479
 6404TIP3    H219158   6.976   5.158   1.416
 6405TIP3   OH219159   6.581   0.296   0.479
 6405TIP3    H119160   6.584   0.217   0.426
 6405TIP3    H219161   6.499   0.339   0.454
 6406TIP3   OH219162   0.965   5.008   3.772
 6406TIP3    H119163   0.922   5.091   3.750
 6406TIP3    H219164   1.018   5.028   3.849
 6407TIP3   OH219165   5.923   5.438   2.184
 6407TIP3    H119166   5.979   5.506   2.222
 6407TIP3    H219167   5.841   5.484   2.164
 6408TIP3   OH219168   2.558   1.752   5.100
 6408TIP3    H119169   2.498   1.779   5.030
 6408TIP3    H219170   2.540   1.659   5.113
 6409TIP3   OH219171   5.578   7.485   5.068
 6409TIP3    H119172   5.582   7.475   4.973
 6409TIP3    H219173   5.670   7.479   5.097
 6410TIP3   OH219174   5.827   5.982   2.921
 6410TIP3    H119175   5.920   6.004   2.921
 6410TIP3    H219176   5.786   6.052   2.870
 6411TIP3   OH219177   7.215   7.461   1.512
 6411TIP3    H119178   7.212   7.556   1.522
 6411TIP3    H219179   7.308   7.440   1.509
 6412TIP3   OH219180   3.194   3.758   2.238
 6412TIP3    H119181   3.211   3.765   2.144
 6412TIP3    H219182   3.264   3.701   2.271
 6413TIP3   OH219183   5.888   0.587   1.141
 6413TIP3    H119184   5.884   0.550   1.052
 6413TIP3    H219185   5.840   0.524   1.195
 6414TIP3   OH219186   5.651   3.912   5.911
 6414TIP3    H119187   5.707   3.975   5.959
 6414TIP3    H219188   5.711   3.842   5.887
 6415TIP3   OH219189   6.891   5.140   0.197
 6415TIP3    H119190   6.962   5.131   0.260
 6415TIP3    H219191   6.880   5.235   0.187
 6416TIP3   OH219192   1.379   5.877   1.973
 6416TIP3    H119193   1.425   5.805   2.016
 6416TIP3    H219194   1.341   5.837   1.894
 6417TIP3   OH219195   0.022   3.032   2.060
 6417TIP3    H119196   0.030   3.045   1.966
 6417TIP3    H219197   0.004   3.119   2.096
 6418TIP3   OH219198   2.034   3.952   3.641
 6418TIP3    H119199   2.058   3.860   3.652
 6418TIP3    H219200   2.012   3.981   3.730
 6419TIP3   OH219201   3.402   2.014   5.686
 6419TIP3    H119202   3.342   1.942   5.666
 6419TIP3    H219203   3.405   2.066   5.606
 6420TIP3   OH219204   3.642   1.625   1.994
 6420TIP3    H119205   3.560   1.617   2.041
 6420TIP3    H219206   3.688   1.543   2.010
 6421TIP3   OH219207   4.059   1.450   5.805
 6421TIP3    H119208   3.981   1.400   5.785
 6421TIP3    H219209   4.078   1.499   5.725
 6422TIP3   OH219210   1.591   7.560   4.667
 6422TIP3    H119211   1.622   7.551   4.757
 6422TIP3    H219212   1.640   7.494   4.618
 6423TIP3   OH219213   7.481   4.926   4.766
 6423TIP3    H119214   7.394   4.958   4.742
 6423TIP3    H219215   7.475   4.831   4.754
 6424TIP3   OH219216   2.478   5.012   6.613
 6424TIP3    H119217   2.496   4.919   6.627
 6424TIP3    H219218   2.506   5.029   6.523
 6425TIP3   OH219219   2.140   5.797   1.999
 6425TIP3    H119220   2.110   5.880   1.962
 6425TIP3    H219221   2.072   5.735   1.976
 6426TIP3   OH219222   0.327   2.035   0.515
 6426TIP3    H119223   0.310   1.945   0.542
 6426TIP3    H219224   0.333   2.032   0.420
 6427TIP3   OH219225   6.647   6.850   5.819
 6427TIP3    H119226   6.697   6.928   5.844
 6427TIP3    H219227   6.711   6.793   5.776
 6428TIP3   OH219228   3.484   5.293   3.000
 6428TIP3    H119229   3.527   5.334   3.075
 6428TIP3    H219230   3.450   5.210   3.035
 6429TIP3   OH219231   6.255   4.122   1.062
 6429TIP3    H119232   6.285   4.053   1.003
 6429TIP3    H219233   6.335   4.164   1.093
 6430TIP3   OH219234   0.130   0.602   1.987
 6430TIP3    H119235   0.219   0.632   1.967
 6430TIP3    H219236   0.103   0.554   1.909
 6431TIP3   OH219237   1.428   7.292   4.374
 6431TIP3    H119238   1.357   7.229   4.360
 6431TIP3    H219239   1.384   7.376   4.384
 6432TIP3   OH219240   7.410   4.938   2.351
 6432TIP3    H119241   7.473   5.005   2.324
 6432TIP3    H219242   7.444   4.856   2.315
 6433TIP3   OH219243   5.058   0.576   2.532
 6433TIP3    H119244   4.971   0.605   2.507
 6433TIP3    H219245   5.116   0.648   2.506
 6434TIP3   OH219246   2.212   1.121   0.379
 6434TIP3    H119247   2.121   1.150   0.387
 6434TIP3    H219248   2.213   1.033   0.415
 6435TIP3   OH219249   0.585   2.570   5.081
 6435TIP3    H119250   0.677   2.546   5.091
 6435TIP3    H219251   0.569   2.634   5.150
 6436TIP3   OH219252   5.012   1.650   2.927
 6436TIP3    H119253   5.084   1.608   2.975
 6436TIP3    H219254   4.977   1.715   2.988
 6437TIP3   OH219255   1.218   2.201   4.490
 6437TIP3    H119256   1.169   2.221   4.569
 6437TIP3    H219257   1.219   2.283   4.441
 6438TIP3   OH219258   4.874   3.046   6.394
 6438TIP3    H119259   4.966   3.059   6.371
 6438TIP3    H219260   4.853   2.958   6.363
 6439TIP3   OH219261   4.748   3.473   5.837
 6439TIP3    H119262   4.734   3.518   5.920
 6439TIP3    H219263   4.843   3.457   5.834
 6440TIP3   OH219264   7.604   3.086   6.348
 6440TIP3    H119265   7.537   3.028   6.312
 6440TIP3    H219266   7.605   3.161   6.288
 6441TIP3   OH219267   7.344   7.815   3.672
 6441TIP3    H119268   7.313   7.811   3.762
 6441TIP3    H219269   7.436   7.789   3.677
 6442TIP3   OH219270   7.281   3.087   3.275
 6442TIP3    H119271   7.337   3.140   3.331
 6442TIP3    H219272   7.194   3.126   3.284
 6443TIP3   OH219273   5.057   5.971   4.360
 6443TIP3    H119274   5.148   5.945   4.369
 6443TIP3    H219275   5.038   6.021   4.440
 6444TIP3   OH219276   7.179   6.058   1.391
 6444TIP3    H119277   7.275   6.063   1.399
 6444TIP3    H219278   7.164   6.038   1.299
 6445TIP3   OH219279   3.256   1.231   0.202
 6445TIP3    H119280   3.225   1.219   0.292
 6445TIP3    H219281   3.231   1.151   0.157
 6446TIP3   OH219282   6.176   6.417   1.556
 6446TIP3    H119283   6.110   6.473   1.517
 6446TIP3    H219284   6.129   6.336   1.578
 6447TIP3   OH219285   1.265   0.994   5.160
 6447TIP3    H119286   1.258   0.956   5.073
 6447TIP3    H219287   1.293   1.085   5.144
 6448TIP3   OH219288   7.813   5.861   2.903
 6448TIP3    H119289   7.867   5.907   2.839
 6448TIP3    H219290   7.857   5.876   2.987
 6449TIP3   OH219291   5.789   6.767   0.397
 6449TIP3    H119292   5.803   6.849   0.350
 6449TIP3    H219293   5.876   6.729   0.406
 6450TIP3   OH219294   2.698   0.095   4.549
 6450TIP3    H119295   2.690   0.002   4.528
 6450TIP3    H219296   2.770   0.126   4.495
 6451TIP3   OH219297   5.979   1.672   1.446
 6451TIP3    H119298   5.970   1.767   1.453
 6451TIP3    H219299   6.073   1.656   1.449
 6452TIP3   OH219300   5.743   0.985   2.026
 6452TIP3    H119301   5.790   0.978   2.109
 6452TIP3    H219302   5.655   1.013   2.050
 6453TIP3   OH219303   1.610   0.710   2.962
 6453TIP3    H119304   1.686   0.768   2.951
 6453TIP3    H219305   1.556   0.754   3.028
 6454TIP3   OH219306   6.537   3.696   5.814
 6454TIP3    H119307   6.496   3.747   5.883
 6454TIP3    H219308   6.592   3.633   5.860
 6455TIP3   OH219309   3.381   3.006   5.016
 6455TIP3    H119310   3.440   3.065   4.968
 6455TIP3    H219311   3.301   3.057   5.029
 6456TIP3   OH219312   2.378   7.645   6.738
 6456TIP3    H119313   2.342   7.566   6.778
 6456TIP3    H219314   2.381   7.625   6.645
 6457TIP3   OH219315   6.158   3.325   5.627
 6457TIP3    H119316   6.211   3.324   5.706
 6457TIP3    H219317   6.134   3.417   5.615
 6458TIP3   OH219318   4.748   1.554   4.970
 6458TIP3    H119319   4.795   1.491   4.915
 6458TIP3    H219320   4.765   1.639   4.930
 6459TIP3   OH219321   3.894   6.341   6.005
 6459TIP3    H119322   3.946   6.366   6.081
 6459TIP3    H219323   3.923   6.401   5.936
 6460TIP3   OH219324   0.614   3.606   5.432
 6460TIP3    H119325   0.549   3.536   5.427
 6460TIP3    H219326   0.696   3.562   5.454
 6461TIP3   OH219327   0.051   6.314  -0.037
 6461TIP3    H119328   0.070   6.374   0.035
 6461TIP3    H219329   0.044   6.228   0.006
 6462TIP3   OH219330   8.144   7.721   2.230
 6462TIP3    H119331   8.185   7.639   2.201
 6462TIP3    H219332   8.201   7.752   2.300
 6463TIP3   OH219333   1.210   2.007   2.008
 6463TIP3    H119334   1.286   1.958   2.039
 6463TIP3    H219335   1.136   1.947   2.020
 6464TIP3   OH219336   6.333   4.784   0.830
 6464TIP3    H119337   6.308   4.831   0.909
 6464TIP3    H219338   6.428   4.791   0.827
 6465TIP3   OH219339   6.458   1.359   6.193
 6465TIP3    H119340   6.380   1.398   6.231
 6465TIP3    H219341   6.431   1.330   6.106
 6466TIP3   OH219342   2.217   2.839   6.654
 6466TIP3    H119343   2.219   2.820   6.560
 6466TIP3    H219344   2.237   2.932   6.660
 6467TIP3   OH219345   3.043   6.739   5.196
 6467TIP3    H119346   3.052   6.774   5.108
 6467TIP3    H219347   3.026   6.816   5.251
 6468TIP3   OH219348   5.140   6.071   6.650
 6468TIP3    H119349   5.106   5.981   6.650
 6468TIP3    H219350   5.155   6.090   6.743
 6469TIP3   OH219351   6.680   5.907   1.788
 6469TIP3    H119352   6.770   5.936   1.771
 6469TIP3    H219353   6.689   5.834   1.849
 6470TIP3   OH219354   2.778   2.667   5.410
 6470TIP3    H119355   2.873   2.665   5.425
 6470TIP3    H219356   2.751   2.575   5.413
 6471TIP3   OH219357   2.281   1.556   3.314
 6471TIP3    H119358   2.186   1.551   3.306
 6471TIP3    H219359   2.307   1.621   3.249
 6472TIP3   OH219360   2.015   1.318   5.348
 6472TIP3    H119361   2.016   1.384   5.417
 6472TIP3    H219362   1.924   1.290   5.344
 6473TIP3   OH219363   7.367   5.647   3.798
 6473TIP3    H119364   7.355   5.567   3.746
 6473TIP3    H219365   7.289   5.699   3.779
 6474TIP3   OH219366   4.130   4.514   4.993
 6474TIP3    H119367   4.121   4.574   5.068
 6474TIP3    H219368   4.081   4.557   4.923
 6475TIP3   OH219369   3.559   4.451   2.620
 6475TIP3    H119370   3.501   4.385   2.581
 6475TIP3    H219371   3.517   4.475   2.703
 6476TIP3   OH219372   5.158   4.497   0.648
 6476TIP3    H119373   5.143   4.494   0.743
 6476TIP3    H219374   5.074   4.473   0.609
 6477TIP3   OH219375   0.618   4.639   0.253
 6477TIP3    H119376   0.558   4.671   0.186
 6477TIP3    H219377   0.668   4.716   0.279
 6478TIP3   OH219378   7.156   5.781   3.684
 6478TIP3    H119379   7.132   5.818   3.599
 6478TIP3    H219380   7.074   5.775   3.732
 6479TIP3   OH219381   3.141   6.186   6.429
 6479TIP3    H119382   3.120   6.137   6.349
 6479TIP3    H219383   3.129   6.123   6.500
 6480TIP3   OH219384   3.637   2.136   1.964
 6480TIP3    H119385   3.703   2.126   2.033
 6480TIP3    H219386   3.602   2.048   1.951
 6481TIP3   OH219387   6.205   5.997   5.793
 6481TIP3    H119388   6.121   5.953   5.779
 6481TIP3    H219389   6.186   6.090   5.779
 6482TIP3   OH219390   2.155   6.859   2.839
 6482TIP3    H119391   2.155   6.954   2.838
 6482TIP3    H219392   2.246   6.834   2.826
 6483TIP3   OH219393   1.011   3.525   0.475
 6483TIP3    H119394   0.973   3.456   0.529
 6483TIP3    H219395   0.958   3.602   0.494
 6484TIP3   OH219396   1.987   1.990   3.504
 6484TIP3    H119397   2.023   2.053   3.566
 6484TIP3    H219398   2.033   2.008   3.422
 6485TIP3   OH219399   5.987   5.311   2.688
 6485TIP3    H119400   5.917   5.374   2.703
 6485TIP3    H219401   5.999   5.267   2.772
 6486TIP3   OH219402   1.520   1.469   6.684
 6486TIP3    H119403   1.430   1.482   6.655
 6486TIP3    H219404   1.552   1.396   6.630
 6487TIP3   OH219405   7.461   6.478   5.172
 6487TIP3    H119406   7.447   6.525   5.090
 6487TIP3    H219407   7.517   6.535   5.224
 6488TIP3   OH219408   3.075   3.755   5.997
 6488TIP3    H119409   3.069   3.846   5.968
 6488TIP3    H219410   3.140   3.756   6.067
 6489TIP3   OH219411   5.914   6.988   0.972
 6489TIP3    H119412   5.872   6.919   0.920
 6489TIP3    H219413   5.899   6.961   1.062
 6490TIP3   OH219414   5.019   4.728   5.841
 6490TIP3    H119415   5.110   4.714   5.866
 6490TIP3    H219416   4.975   4.757   5.921
 6491TIP3   OH219417   3.936   4.854   6.547
 6491TIP3    H119418   4.016   4.895   6.580
 6491TIP3    H219419   3.872   4.867   6.618
 6492TIP3   OH219420   3.844   6.986   0.971
 6492TIP3    H119421   3.824   7.034   1.051
 6492TIP3    H219422   3.918   7.033   0.932
 6493TIP3   OH219423   3.095   6.129   6.740
 6493TIP3    H119424   3.033   6.056   6.735
 6493TIP3    H219425   3.041   6.207   6.732
 6494TIP3   OH219426   8.088   4.663   2.870
 6494TIP3    H119427   8.013   4.615   2.905
 6494TIP3    H219428   8.135   4.694   2.947
 6495TIP3   OH219429   2.927   1.791   3.256
 6495TIP3    H119430   2.871   1.719   3.284
 6495TIP3    H219431   3.015   1.765   3.281
 6496TIP3   OH219432   3.386   5.642   0.510
 6496TIP3    H119433   3.319   5.661   0.576
 6496TIP3    H219434   3.443   5.578   0.552
 6497TIP3   OH219435   4.703   6.575   5.896
 6497TIP3    H119436   4.662   6.589   5.982
 6497TIP3    H219437   4.782   6.628   5.899
 6498TIP3   OH219438   4.660   3.116   4.639
 6498TIP3    H119439   4.604   3.119   4.561
 6498TIP3    H219440   4.717   3.192   4.630
 6499TIP3   OH219441   6.865   4.197   3.891
 6499TIP3    H119442   6.791   4.218   3.834
 6499TIP3    H219443   6.871   4.101   3.889
 6500TIP3   OH219444   7.240   6.327   3.799
 6500TIP3    H119445   7.234   6.420   3.822
 6500TIP3    H219446   7.206   6.322   3.710
 6501TIP3   OH219447   3.256   5.129   4.751
 6501TIP3    H119448   3.200   5.105   4.825
 6501TIP3    H219449   3.227   5.216   4.726
 6502TIP3   OH219450   6.580   7.154   5.072
 6502TIP3    H119451   6.520   7.091   5.113
 6502TIP3    H219452   6.664   7.108   5.068
 6503TIP3   OH219453   6.553   3.160   0.119
 6503TIP3    H119454   6.601   3.141   0.200
 6503TIP3    H219455   6.472   3.109   0.126
 6504TIP3   OH219456   4.582   4.268   3.941
 6504TIP3    H119457   4.544   4.352   3.966
 6504TIP3    H219458   4.511   4.205   3.954
 6505TIP3   OH219459   4.655   4.452   1.004
 6505TIP3    H119460   4.664   4.357   1.005
 6505TIP3    H219461   4.561   4.468   1.013
 6506TIP3   OH219462   0.890   0.215   3.637
 6506TIP3    H119463   0.884   0.126   3.603
 6506TIP3    H219464   0.977   0.245   3.611
 6507TIP3   OH219465   7.664   1.307   0.464
 6507TIP3    H119466   7.724   1.382   0.468
 6507TIP3    H219467   7.703   1.242   0.523
 6508TIP3   OH219468   2.912   6.315   3.087
 6508TIP3    H119469   2.903   6.389   3.147
 6508TIP3    H219470   2.973   6.256   3.132
 6509TIP3   OH219471   7.202   5.464   0.095
 6509TIP3    H119472   7.122   5.423   0.063
 6509TIP3    H219473   7.272   5.425   0.043
 6510TIP3   OH219474   4.985   1.492   5.327
 6510TIP3    H119475   4.996   1.441   5.407
 6510TIP3    H219476   5.068   1.482   5.280
 6511TIP3   OH219477   1.345   7.727   3.514
 6511TIP3    H119478   1.368   7.819   3.526
 6511TIP3    H219479   1.411   7.694   3.454
 6512TIP3   OH219480   4.893   4.800   2.733
 6512TIP3    H119481   4.808   4.756   2.737
 6512TIP3    H219482   4.913   4.805   2.639
 6513TIP3   OH219483   3.529   4.918   2.677
 6513TIP3    H119484   3.444   4.963   2.670
 6513TIP3    H219485   3.528   4.856   2.604
 6514TIP3   OH219486   1.884   0.958   3.299
 6514TIP3    H119487   1.888   1.017   3.374
 6514TIP3    H219488   1.970   0.918   3.295
 6515TIP3   OH219489   1.027   2.445   1.545
 6515TIP3    H119490   1.020   2.444   1.641
 6515TIP3    H219491   1.046   2.354   1.522
 6516TIP3   OH219492   3.953   0.518   1.665
 6516TIP3    H119493   4.011   0.470   1.725
 6516TIP3    H219494   3.870   0.471   1.670
 6517TIP3   OH219495   0.586   0.108   4.095
 6517TIP3    H119496   0.511   0.083   4.149
 6517TIP3    H219497   0.548   0.128   4.010
 6518TIP3   OH219498   3.728   1.345   2.272
 6518TIP3    H119499   3.748   1.385   2.357
 6518TIP3    H219500   3.798   1.375   2.215
 6519TIP3   OH219501   6.465   6.131   1.772
 6519TIP3    H119502   6.506   6.068   1.830
 6519TIP3    H219503   6.528   6.143   1.701
 6520TIP3   OH219504   0.552   0.689   4.569
 6520TIP3    H119505   0.585   0.602   4.546
 6520TIP3    H219506   0.466   0.672   4.608
 6521TIP3   OH219507   7.512   2.451   2.020
 6521TIP3    H119508   7.497   2.518   2.085
 6521TIP3    H219509   7.532   2.372   2.070
 6522TIP3   OH219510   6.207   7.610   1.598
 6522TIP3    H119511   6.173   7.687   1.643
 6522TIP3    H219512   6.134   7.580   1.544
 6523TIP3   OH219513   4.843   6.525   6.549
 6523TIP3    H119514   4.920   6.472   6.570
 6523TIP3    H219515   4.840   6.591   6.619
 6524TIP3   OH219516   7.413   2.442   1.021
 6524TIP3    H119517   7.470   2.386   1.073
 6524TIP3    H219518   7.433   2.420   0.930
 6525TIP3   OH219519   5.705   4.295   4.797
 6525TIP3    H119520   5.692   4.210   4.754
 6525TIP3    H219521   5.738   4.352   4.728
 6526TIP3   OH219522   1.837   4.145   0.188
 6526TIP3    H119523   1.816   4.239   0.191
 6526TIP3    H219524   1.881   4.134   0.104
 6527TIP3   OH219525   7.547   2.937   3.486
 6527TIP3    H119526   7.576   2.883   3.413
 6527TIP3    H219527   7.623   2.989   3.510
 6528TIP3   OH219528   6.570   5.844   4.460
 6528TIP3    H119529   6.588   5.938   4.459
 6528TIP3    H219530   6.604   5.814   4.545
 6529TIP3   OH219531   4.499   2.619   1.874
 6529TIP3    H119532   4.429   2.675   1.909
 6529TIP3    H219533   4.457   2.571   1.802
 6530TIP3   OH219534   6.973   4.082   5.426
 6530TIP3    H119535   6.945   4.016   5.363
 6530TIP3    H219536   7.022   4.146   5.374
 6531TIP3   OH219537   7.563   7.211   6.714
 6531TIP3    H119538   7.625   7.194   6.643
 6531TIP3    H219539   7.480   7.229   6.671
 6532TIP3   OH219540   2.766   0.495   1.951
 6532TIP3    H119541   2.783   0.548   1.874
 6532TIP3    H219542   2.790   0.406   1.925
 6533TIP3   OH219543   6.302   4.863   6.023
 6533TIP3    H119544   6.254   4.790   5.984
 6533TIP3    H219545   6.237   4.932   6.036
 6534TIP3   OH219546   7.132   2.787   1.995
 6534TIP3    H119547   7.129   2.812   1.903
 6534TIP3    H219548   7.074   2.849   2.038
 6535TIP3   OH219549   1.760   1.825   3.482
 6535TIP3    H119550   1.793   1.899   3.432
 6535TIP3    H219551   1.836   1.794   3.532
 6536TIP3   OH219552   7.370   6.141   0.140
 6536TIP3    H119553   7.460   6.111   0.125
 6536TIP3    H219554   7.350   6.195   0.064
 6537TIP3   OH219555   3.290   1.958   1.371
 6537TIP3    H119556   3.306   1.923   1.458
 6537TIP3    H219557   3.316   2.050   1.376
 6538TIP3   OH219558   8.102   2.159   5.581
 6538TIP3    H119559   8.028   2.132   5.635
 6538TIP3    H219560   8.175   2.166   5.641
 6539TIP3   OH219561   1.966   4.020   3.910
 6539TIP3    H119562   1.932   3.980   3.990
 6539TIP3    H219563   1.906   4.092   3.891
 6540TIP3   OH219564   0.667   5.800   6.326
 6540TIP3    H119565   0.751   5.768   6.293
 6540TIP3    H219566   0.638   5.862   6.260
 6541TIP3   OH219567   4.707   5.074   0.144
 6541TIP3    H119568   4.746   5.160   0.125
 6541TIP3    H219569   4.624   5.094   0.188
 6542TIP3   OH219570   8.163   1.241   1.522
 6542TIP3    H119571   8.175   1.163   1.576
 6542TIP3    H219572   8.217   1.308   1.565
 6543TIP3   OH219573   0.956   2.116   0.114
 6543TIP3    H119574   1.010   2.177   0.164
 6543TIP3    H219575   0.975   2.137   0.023
 6544TIP3   OH219576   5.935   5.247   4.621
 6544TIP3    H119577   5.949   5.234   4.527
 6544TIP3    H219578   6.009   5.204   4.663
 6545TIP3   OH219579   0.933   6.120   5.841
 6545TIP3    H119580   0.942   6.044   5.899
 6545TIP3    H219581   1.008   6.115   5.782
 6546TIP3   OH219582   7.622   7.352   3.996
 6546TIP3    H119583   7.591   7.287   4.058
 6546TIP3    H219584   7.595   7.436   4.034
 6547TIP3   OH219585   3.265   1.688   5.225
 6547TIP3    H119586   3.333   1.750   5.199
 6547TIP3    H219587   3.183   1.733   5.205
 6548TIP3   OH219588   4.565   0.718   5.418
 6548TIP3    H119589   4.515   0.793   5.386
 6548TIP3    H219590   4.510   0.681   5.487
 6549TIP3   OH219591   0.665   2.917   1.337
 6549TIP3    H119592   0.715   2.879   1.265
 6549TIP3    H219593   0.591   2.960   1.295
 6550TIP3   OH219594   2.180   4.891   2.521
 6550TIP3    H119595   2.145   4.847   2.598
 6550TIP3    H219596   2.114   4.956   2.498
 6551TIP3   OH219597   4.159   1.204   5.422
 6551TIP3    H119598   4.107   1.156   5.357
 6551TIP3    H219599   4.128   1.171   5.506
 6552TIP3   OH219600   5.657   3.781   0.452
 6552TIP3    H119601   5.698   3.736   0.526
 6552TIP3    H219602   5.698   3.867   0.451
 6553TIP3   OH219603   1.229   1.981   0.775
 6553TIP3    H119604   1.176   1.904   0.796
 6553TIP3    H219605   1.179   2.026   0.706
 6554TIP3   OH219606   3.069   3.512   6.716
 6554TIP3    H119607   3.091   3.604   6.726
 6554TIP3    H219608   3.153   3.466   6.727
 6555TIP3   OH219609   1.367   5.626   3.379
 6555TIP3    H119610   1.356   5.687   3.452
 6555TIP3    H219611   1.327   5.669   3.304
 6556TIP3   OH219612   1.415   1.873   5.296
 6556TIP3    H119613   1.491   1.905   5.247
 6556TIP3    H219614   1.440   1.883   5.388
 6557TIP3   OH219615   4.808   7.554   0.231
 6557TIP3    H119616   4.756   7.634   0.239
 6557TIP3    H219617   4.793   7.524   0.142
 6558TIP3   OH219618   5.315   2.308   4.517
 6558TIP3    H119619   5.367   2.227   4.517
 6558TIP3    H219620   5.332   2.347   4.431
 6559TIP3   OH219621   6.573   5.269   5.028
 6559TIP3    H119622   6.525   5.351   5.042
 6559TIP3    H219623   6.519   5.202   5.070
 6560TIP3   OH219624   6.775   0.568   1.162
 6560TIP3    H119625   6.822   0.485   1.178
 6560TIP3    H219626   6.808   0.627   1.229
 6561TIP3   OH219627   6.792   2.363   2.758
 6561TIP3    H119628   6.822   2.368   2.849
 6561TIP3    H219629   6.839   2.288   2.721
 6562TIP3   OH219630   4.328   7.766   3.823
 6562TIP3    H119631   4.370   7.731   3.745
 6562TIP3    H219632   4.395   7.762   3.891
 6563TIP3   OH219633   7.869   1.321   3.768
 6563TIP3    H119634   7.838   1.336   3.857
 6563TIP3    H219635   7.942   1.260   3.778
 6564TIP3   OH219636   5.362   1.196   3.855
 6564TIP3    H119637   5.362   1.200   3.951
 6564TIP3    H219638   5.455   1.202   3.831
 6565TIP3   OH219639   4.672   1.156   2.997
 6565TIP3    H119640   4.664   1.171   2.903
 6565TIP3    H219641   4.630   1.071   3.010
 6566TIP3   OH219642   7.371   5.568   5.650
 6566TIP3    H119643   7.433   5.497   5.634
 6566TIP3    H219644   7.286   5.525   5.653
 6567TIP3   OH219645   2.120   3.207   3.716
 6567TIP3    H119646   2.164   3.206   3.631
 6567TIP3    H219647   2.064   3.129   3.714
 6568TIP3   OH219648   5.785   1.138   1.797
 6568TIP3    H119649   5.771   1.087   1.877
 6568TIP3    H219650   5.702   1.185   1.783
 6569TIP3   OH219651   1.849   6.028   2.814
 6569TIP3    H119652   1.815   5.941   2.791
 6569TIP3    H219653   1.812   6.047   2.900
 6570TIP3   OH219654   4.971   2.341   1.529
 6570TIP3    H119655   5.063   2.359   1.549
 6570TIP3    H219656   4.973   2.300   1.442
 6571TIP3   OH219657   5.533   0.063   2.332
 6571TIP3    H119658   5.593   0.080   2.404
 6571TIP3    H219659   5.515  -0.031   2.336
 6572TIP3   OH219660   5.438   2.697   1.035
 6572TIP3    H119661   5.453   2.634   0.965
 6572TIP3    H219662   5.353   2.672   1.072
 6573TIP3   OH219663   0.454   6.704   2.364
 6573TIP3    H119664   0.387   6.643   2.395
 6573TIP3    H219665   0.494   6.660   2.289
 6574TIP3   OH219666   3.289   5.965   0.321
 6574TIP3    H119667   3.207   5.923   0.294
 6574TIP3    H219668   3.287   6.051   0.280
 6575TIP3   OH219669   7.796   5.597   5.912
 6575TIP3    H119670   7.794   5.512   5.957
 6575TIP3    H219671   7.704   5.624   5.908
 6576TIP3   OH219672   1.782   2.733   4.562
 6576TIP3    H119673   1.845   2.713   4.492
 6576TIP3    H219674   1.776   2.651   4.611
 6577TIP3   OH219675   4.098   6.172   0.703
 6577TIP3    H119676   4.076   6.262   0.727
 6577TIP3    H219677   4.124   6.131   0.786
 6578TIP3   OH219678   2.660   5.270   1.859
 6578TIP3    H119679   2.681   5.262   1.952
 6578TIP3    H219680   2.614   5.354   1.852
 6579TIP3   OH219681   7.881   0.188   5.890
 6579TIP3    H119682   7.944   0.153   5.953
 6579TIP3    H219683   7.903   0.144   5.807
 6580TIP3   OH219684   4.323   2.302   0.907
 6580TIP3    H119685   4.317   2.239   0.979
 6580TIP3    H219686   4.327   2.248   0.828
 6581TIP3   OH219687   0.285   5.926   0.621
 6581TIP3    H119688   0.239   5.907   0.539
 6581TIP3    H219689   0.327   6.010   0.607
 6582TIP3   OH219690   8.012   6.606   6.680
 6582TIP3    H119691   8.070   6.530   6.687
 6582TIP3    H219692   8.071   6.681   6.693
 6583TIP3   OH219693   2.694   6.152   0.128
 6583TIP3    H119694   2.725   6.227   0.179
 6583TIP3    H219695   2.617   6.185   0.081
 6584TIP3   OH219696   0.872   7.074   5.084
 6584TIP3    H119697   0.929   7.092   5.010
 6584TIP3    H219698   0.932   7.063   5.159
 6585TIP3   OH219699   4.404   3.634   6.318
 6585TIP3    H119700   4.444   3.611   6.402
 6585TIP3    H219701   4.373   3.723   6.330
 6586TIP3   OH219702   5.006   2.089   3.882
 6586TIP3    H119703   5.000   2.184   3.897
 6586TIP3    H219704   4.924   2.055   3.918
 6587TIP3   OH219705   6.574   5.780   0.507
 6587TIP3    H119706   6.594   5.805   0.417
 6587TIP3    H219707   6.565   5.863   0.553
 6588TIP3   OH219708   3.169   2.753   0.681
 6588TIP3    H119709   3.138   2.800   0.758
 6588TIP3    H219710   3.241   2.699   0.714
 6589TIP3   OH219711   2.551   3.455   4.926
 6589TIP3    H119712   2.519   3.370   4.957
 6589TIP3    H219713   2.473   3.501   4.896
 6590TIP3   OH219714   2.151   4.524   5.523
 6590TIP3    H119715   2.132   4.567   5.440
 6590TIP3    H219716   2.067   4.517   5.567
 6591TIP3   OH219717   2.510   7.465   5.740
 6591TIP3    H119718   2.560   7.441   5.819
 6591TIP3    H219719   2.559   7.539   5.703
 6592TIP3   OH219720   0.140   7.359   2.659
 6592TIP3    H119721   0.066   7.375   2.600
 6592TIP3    H219722   0.216   7.360   2.602
 6593TIP3   OH219723   3.863   4.053   5.029
 6593TIP3    H119724   3.870   4.135   4.980
 6593TIP3    H219725   3.953   4.021   5.034
 6594TIP3   OH219726   6.865   7.524   3.061
 6594TIP3    H119727   6.770   7.517   3.068
 6594TIP3    H219728   6.888   7.600   3.113
 6595TIP3   OH219729   3.974   0.089   1.922
 6595TIP3    H119730   4.023   0.027   1.868
 6595TIP3    H219731   3.940   0.153   1.860
 6596TIP3   OH219732   7.546   1.791   1.442
 6596TIP3    H119733   7.474   1.755   1.493
 6596TIP3    H219734   7.527   1.885   1.438
 6597TIP3   OH219735   2.008   7.304   6.419
 6597TIP3    H119736   2.051   7.293   6.504
 6597TIP3    H219737   1.991   7.215   6.389
 6598TIP3   OH219738   7.033   0.809   2.746
 6598TIP3    H119739   7.019   0.751   2.672
 6598TIP3    H219740   7.069   0.753   2.815
 6599TIP3   OH219741   1.716   4.496   6.583
 6599TIP3    H119742   1.741   4.462   6.669
 6599TIP3    H219743   1.776   4.452   6.522
 6600TIP3   OH219744   1.095   2.649   0.903
 6600TIP3    H119745   1.037   2.644   0.979
 6600TIP3    H219746   1.183   2.636   0.938
 6601TIP3   OH219747   5.147   4.496   3.582
 6601TIP3    H119748   5.057   4.506   3.615
 6601TIP3    H219749   5.168   4.404   3.598
 6602TIP3   OH219750   8.076   5.101   5.842
 6602TIP3    H119751   8.164   5.133   5.822
 6602TIP3    H219752   8.055   5.140   5.927
 6603TIP3   OH219753   1.040   0.761   1.467
 6603TIP3    H119754   1.036   0.850   1.503
 6603TIP3    H219755   1.103   0.715   1.522
 6604TIP3   OH219756   6.266   2.726   4.272
 6604TIP3    H119757   6.174   2.752   4.277
 6604TIP3    H219758   6.309   2.782   4.338
 6605TIP3   OH219759   5.642   1.695   0.952
 6605TIP3    H119760   5.562   1.748   0.956
 6605TIP3    H219761   5.612   1.606   0.972
 6606TIP3   OH219762   0.668   6.574   3.838
 6606TIP3    H119763   0.618   6.594   3.917
 6606TIP3    H219764   0.606   6.588   3.766
 6607TIP3   OH219765   8.315   1.914   4.044
 6607TIP3    H119766   8.260   1.849   4.087
 6607TIP3    H219767   8.267   1.936   3.964
 6608TIP3   OH219768   3.547   0.213   3.141
 6608TIP3    H119769   3.570   0.145   3.077
 6608TIP3    H219770   3.473   0.258   3.101
 6609TIP3   OH219771   6.732   5.451   3.130
 6609TIP3    H119772   6.694   5.365   3.112
 6609TIP3    H219773   6.815   5.452   3.081
 6610TIP3   OH219774   3.932   1.384   1.371
 6610TIP3    H119775   4.006   1.434   1.408
 6610TIP3    H219776   3.904   1.436   1.296
 6611TIP3   OH219777   7.883   2.141   0.050
 6611TIP3    H119778   7.914   2.062   0.005
 6611TIP3    H219779   7.811   2.110   0.105
 6612TIP3   OH219780   7.486   3.241   4.017
 6612TIP3    H119781   7.524   3.193   3.942
 6612TIP3    H219782   7.450   3.320   3.978
 6613TIP3   OH219783   4.545   1.027   6.687
 6613TIP3    H119784   4.465   1.042   6.737
 6613TIP3    H219785   4.536   1.085   6.610
 6614TIP3   OH219786   2.193   7.365   2.736
 6614TIP3    H119787   2.217   7.421   2.662
 6614TIP3    H219788   2.235   7.405   2.812
 6615TIP3   OH219789   3.814   1.049   6.175
 6615TIP3    H119790   3.759   1.002   6.112
 6615TIP3    H219791   3.793   1.141   6.160
 6616TIP3   OH219792   6.720   0.626   5.465
 6616TIP3    H119793   6.685   0.614   5.377
 6616TIP3    H219794   6.763   0.543   5.485
 6617TIP3   OH219795   6.057   5.710   6.665
 6617TIP3    H119796   6.143   5.735   6.630
 6617TIP3    H219797   6.021   5.792   6.701
 6618TIP3   OH219798   6.320   2.962   5.688
 6618TIP3    H119799   6.369   2.883   5.664
 6618TIP3    H219800   6.322   3.017   5.609
 6619TIP3   OH219801   1.730   3.817   3.395
 6619TIP3    H119802   1.733   3.745   3.458
 6619TIP3    H219803   1.738   3.896   3.449
 6620TIP3   OH219804   3.772   5.946   0.995
 6620TIP3    H119805   3.864   5.920   0.996
 6620TIP3    H219806   3.772   6.034   0.957
 6621TIP3   OH219807   1.937   3.520   6.778
 6621TIP3    H119808   2.000   3.466   6.730
 6621TIP3    H219809   1.872   3.545   6.712
 6622TIP3   OH219810   0.773   6.104   4.113
 6622TIP3    H119811   0.695   6.058   4.144
 6622TIP3    H219812   0.754   6.197   4.124
 6623TIP3   OH219813   4.828   0.582   0.312
 6623TIP3    H119814   4.746   0.628   0.333
 6623TIP3    H219815   4.889   0.653   0.293
 6624TIP3   OH219816   7.444   2.469   2.511
 6624TIP3    H119817   7.522   2.414   2.518
 6624TIP3    H219818   7.376   2.421   2.558
 6625TIP3   OH219819   2.656   7.019   6.652
 6625TIP3    H119820   2.652   7.090   6.588
 6625TIP3    H219821   2.746   7.020   6.683
 6626TIP3   OH219822   4.710   1.491   1.673
 6626TIP3    H119823   4.643   1.527   1.730
 6626TIP3    H219824   4.773   1.449   1.732
 6627TIP3   OH219825   4.933   7.431   0.442
 6627TIP3    H119826   4.889   7.350   0.466
 6627TIP3    H219827   4.877   7.471   0.376
 6628TIP3   OH219828   6.901   3.140   1.642
 6628TIP3    H119829   6.958   3.148   1.718
 6628TIP3    H219830   6.868   3.228   1.626
 6629TIP3   OH219831   5.016   5.192   5.114
 6629TIP3    H119832   5.053   5.153   5.193
 6629TIP3    H219833   4.943   5.135   5.090
 6630TIP3   OH219834   3.585   7.335   0.364
 6630TIP3    H119835   3.521   7.339   0.292
 6630TIP3    H219836   3.538   7.291   0.435
 6631TIP3   OH219837   7.300   4.853   0.766
 6631TIP3    H119838   7.391   4.828   0.755
 6631TIP3    H219839   7.303   4.946   0.790
 6632TIP3   OH219840   2.445   0.728   2.448
 6632TIP3    H119841   2.410   0.695   2.365
 6632TIP3    H219842   2.481   0.814   2.426
 6633TIP3   OH219843   2.123   1.642   0.631
 6633TIP3    H119844   2.116   1.677   0.542
 6633TIP3    H219845   2.035   1.651   0.667
 6634TIP3   OH219846   2.649   0.574   1.243
 6634TIP3    H119847   2.624   0.623   1.321
 6634TIP3    H219848   2.578   0.588   1.180
 6635TIP3   OH219849   7.424   6.942   3.915
 6635TIP3    H119850   7.345   6.972   3.871
 6635TIP3    H219851   7.393   6.893   3.991
 6636TIP3   OH219852   3.426   0.103   5.811
 6636TIP3    H119853   3.420   0.135   5.721
 6636TIP3    H219854   3.398   0.176   5.865
 6637TIP3   OH219855   1.925   4.477   1.598
 6637TIP3    H119856   2.020   4.471   1.606
 6637TIP3    H219857   1.892   4.401   1.645
 6638TIP3   OH219858   0.711   5.472   6.776
 6638TIP3    H119859   0.699   5.534   6.848
 6638TIP3    H219860   0.632   5.481   6.723
 6639TIP3   OH219861   3.461   3.191   1.800
 6639TIP3    H119862   3.400   3.118   1.790
 6639TIP3    H219863   3.419   3.249   1.864
 6640TIP3   OH219864   7.606   3.908   6.778
 6640TIP3    H119865   7.553   3.987   6.769
 6640TIP3    H219866   7.597   3.864   6.694
 6641TIP3   OH219867   0.335   2.162   5.438
 6641TIP3    H119868   0.404   2.097   5.425
 6641TIP3    H219869   0.368   2.218   5.508
 6642TIP3   OH219870   4.815   1.377   0.316
 6642TIP3    H119871   4.748   1.329   0.365
 6642TIP3    H219872   4.817   1.463   0.358
 6643TIP3   OH219873   6.997   6.917   1.143
 6643TIP3    H119874   7.073   6.963   1.181
 6643TIP3    H219875   6.988   6.954   1.056
 6644TIP3   OH219876   4.205   1.711   6.037
 6644TIP3    H119877   4.118   1.730   6.003
 6644TIP3    H219878   4.225   1.623   6.003
 6645TIP3   OH219879   0.840   3.349   1.062
 6645TIP3    H119880   0.913   3.409   1.045
 6645TIP3    H219881   0.764   3.392   1.024
 6646TIP3   OH219882   4.485   5.469   5.232
 6646TIP3    H119883   4.443   5.385   5.211
 6646TIP3    H219884   4.563   5.471   5.178
 6647TIP3   OH219885   4.528   2.070   4.500
 6647TIP3    H119886   4.544   1.987   4.455
 6647TIP3    H219887   4.526   2.135   4.430
 6648TIP3   OH219888   1.110   2.067   3.995
 6648TIP3    H119889   1.041   2.077   3.930
 6648TIP3    H219890   1.068   2.088   4.078
 6649TIP3   OH219891   0.817   2.539   5.219
 6649TIP3    H119892   0.862   2.606   5.271
 6649TIP3    H219893   0.881   2.469   5.209
 6650TIP3   OH219894   8.013   6.254   5.549
 6650TIP3    H119895   7.930   6.226   5.589
 6650TIP3    H219896   8.009   6.218   5.460
 6651TIP3   OH219897   2.375   7.315   1.712
 6651TIP3    H119898   2.346   7.230   1.681
 6651TIP3    H219899   2.297   7.355   1.749
 6652TIP3   OH219900   5.892   0.689   0.482
 6652TIP3    H119901   5.892   0.759   0.547
 6652TIP3    H219902   5.984   0.669   0.467
 6653TIP3   OH219903   7.322   3.832   2.197
 6653TIP3    H119904   7.292   3.843   2.287
 6653TIP3    H219905   7.255   3.778   2.156
 6654TIP3   OH219906   6.132   6.807   4.931
 6654TIP3    H119907   6.125   6.896   4.896
 6654TIP3    H219908   6.147   6.753   4.853
 6655TIP3   OH219909   3.543   5.823   0.900
 6655TIP3    H119910   3.611   5.868   0.949
 6655TIP3    H219911   3.560   5.730   0.915
 6656TIP3   OH219912   1.607   5.455   4.149
 6656TIP3    H119913   1.649   5.369   4.155
 6656TIP3    H219914   1.680   5.517   4.144
 6657TIP3   OH219915   2.404   5.025   2.824
 6657TIP3    H119916   2.345   4.950   2.818
 6657TIP3    H219917   2.490   4.986   2.837
 6658TIP3   OH219918   8.127   5.302   0.027
 6658TIP3    H119919   8.099   5.215   0.057
 6658TIP3    H219920   8.221   5.293   0.010
 6659TIP3   OH219921   2.941   2.260   5.242
 6659TIP3    H119922   2.997   2.329   5.207
 6659TIP3    H219923   2.867   2.306   5.280
 6660TIP3   OH219924   2.191   6.312   0.084
 6660TIP3    H119925   2.272   6.317   0.033
 6660TIP3    H219926   2.184   6.398   0.126
 6661TIP3   OH219927   4.967   3.015   3.241
 6661TIP3    H119928   4.999   2.969   3.319
 6661TIP3    H219929   5.026   3.089   3.231
 6662TIP3   OH219930   3.470   4.340   3.565
 6662TIP3    H119931   3.409   4.413   3.570
 6662TIP3    H219932   3.540   4.362   3.627
 6663TIP3   OH219933   2.750   2.846   0.219
 6663TIP3    H119934   2.819   2.883   0.163
 6663TIP3    H219935   2.797   2.785   0.276
 6664TIP3   OH219936   7.990   2.384   1.958
 6664TIP3    H119937   7.992   2.410   2.050
 6664TIP3    H219938   7.913   2.328   1.950
 6665TIP3   OH219939   6.332   5.738   3.761
 6665TIP3    H119940   6.378   5.707   3.839
 6665TIP3    H219941   6.313   5.830   3.779
 6666TIP3   OH219942   1.367   4.315   6.308
 6666TIP3    H119943   1.336   4.394   6.264
 6666TIP3    H219944   1.382   4.253   6.237
 6667TIP3   OH219945   1.442   0.786   4.079
 6667TIP3    H119946   1.369   0.724   4.085
 6667TIP3    H219947   1.488   0.761   3.999
 6668TIP3   OH219948   2.085   7.064   5.072
 6668TIP3    H119949   2.141   7.017   5.009
 6668TIP3    H219950   2.105   7.025   5.156
 6669TIP3   OH219951   0.379   2.291   6.459
 6669TIP3    H119952   0.285   2.306   6.449
 6669TIP3    H219953   0.398   2.314   6.550
 6670TIP3   OH219954   1.765   5.579   4.460
 6670TIP3    H119955   1.786   5.580   4.553
 6670TIP3    H219956   1.697   5.511   4.451
 6671TIP3   OH219957   6.091   1.663   2.372
 6671TIP3    H119958   6.181   1.695   2.371
 6671TIP3    H219959   6.052   1.696   2.291
 6672TIP3   OH219960   0.031   1.438   3.664
 6672TIP3    H119961  -0.053   1.471   3.631
 6672TIP3    H219962   0.087   1.516   3.667
 6673TIP3   OH219963   6.292   4.127   6.114
 6673TIP3    H119964   6.240   4.051   6.088
 6673TIP3    H219965   6.236   4.202   6.094
 6674TIP3   OH219966   5.394   0.103   1.795
 6674TIP3    H119967   5.409   0.022   1.747
 6674TIP3    H219968   5.319   0.084   1.851
 6675TIP3   OH219969   1.517   7.197   5.351
 6675TIP3    H119970   1.577   7.207   5.277
 6675TIP3    H219971   1.552   7.253   5.419
 6676TIP3   OH219972   2.102   6.572   0.914
 6676TIP3    H119973   2.103   6.649   0.857
 6676TIP3    H219974   2.013   6.570   0.949
 6677TIP3   OH219975   3.690   2.541   0.477
 6677TIP3    H119976   3.639   2.601   0.423
 6677TIP3    H219977   3.625   2.492   0.527
 6678TIP3   OH219978   0.942   0.335   4.635
 6678TIP3    H119979   0.978   0.350   4.547
 6678TIP3    H219980   0.979   0.251   4.662
 6679TIP3   OH219981   7.581   3.017   1.852
 6679TIP3    H119982   7.566   3.112   1.846
 6679TIP3    H219983   7.636   3.007   1.929
 6680TIP3   OH219984   5.344   3.724   5.575
 6680TIP3    H119985   5.308   3.641   5.546
 6680TIP3    H219986   5.275   3.788   5.557
 6681TIP3   OH219987   5.089   3.659   4.766
 6681TIP3    H119988   5.029   3.668   4.692
 6681TIP3    H219989   5.134   3.744   4.771
 6682TIP3   OH219990   5.061   1.828   3.166
 6682TIP3    H119991   5.058   1.771   3.242
 6682TIP3    H219992   4.987   1.888   3.178
 6683TIP3   OH219993   0.458   0.372   2.257
 6683TIP3    H119994   0.443   0.279   2.276
 6683TIP3    H219995   0.404   0.418   2.321
 6684TIP3   OH219996   3.992   5.336   4.561
 6684TIP3    H119997   3.982   5.325   4.655
 6684TIP3    H219998   3.956   5.255   4.524
 6685TIP3   OH219999   2.500   2.844   1.789
 6685TIP3    H120000   2.510   2.803   1.703
 6685TIP3    H220001   2.512   2.937   1.772
 6686TIP3   OH220002   4.117   0.505   5.630
 6686TIP3    H120003   4.076   0.584   5.596
 6686TIP3    H220004   4.063   0.434   5.598
 6687TIP3   OH220005   6.710   0.106   1.781
 6687TIP3    H120006   6.755   0.190   1.781
 6687TIP3    H220007   6.689   0.089   1.689
 6688TIP3   OH220008   5.076   1.592   2.112
 6688TIP3    H120009   5.002   1.652   2.103
 6688TIP3    H220010   5.123   1.623   2.189
 6689TIP3   OH220011   6.647   2.316   4.506
 6689TIP3    H120012   6.734   2.279   4.519
 6689TIP3    H220013   6.591   2.266   4.567
 6690TIP3   OH220014   4.182   0.139   1.617
 6690TIP3    H120015   4.267   0.110   1.584
 6690TIP3    H220016   4.203   0.206   1.682
 6691TIP3   OH220017   7.018   0.329   3.211
 6691TIP3    H120018   7.016   0.297   3.121
 6691TIP3    H220019   7.111   0.332   3.234
 6692TIP3   OH220020   1.846   7.017   1.231
 6692TIP3    H120021   1.918   7.017   1.167
 6692TIP3    H220022   1.852   6.931   1.272
 6693TIP3   OH220023   5.820   6.229   4.027
 6693TIP3    H120024   5.731   6.264   4.019
 6693TIP3    H220025   5.861   6.282   4.095
 6694TIP3   OH220026   3.248   2.051   0.482
 6694TIP3    H120027   3.311   2.057   0.411
 6694TIP3    H220028   3.171   2.011   0.442
 6695TIP3   OH220029   6.298   7.037   4.639
 6695TIP3    H120030   6.233   7.074   4.698
 6695TIP3    H220031   6.365   7.001   4.696
 6696TIP3   OH220032   2.620   6.701   5.300
 6696TIP3    H120033   2.677   6.749   5.360
 6696TIP3    H220034   2.676   6.634   5.262
 6697TIP3   OH220035   6.935   6.367   1.499
 6697TIP3    H120036   6.925   6.430   1.571
 6697TIP3    H220037   7.003   6.406   1.444
 6698TIP3   OH220038   6.778   6.188   0.446
 6698TIP3    H120039   6.846   6.123   0.429
 6698TIP3    H220040   6.784   6.249   0.373
 6699TIP3   OH220041   7.370   0.506   0.038
 6699TIP3    H120042   7.434   0.459   0.093
 6699TIP3    H220043   7.303   0.535   0.100
 6700TIP3   OH220044   0.136   5.706   1.211
 6700TIP3    H120045   0.041   5.703   1.223
 6700TIP3    H220046   0.151   5.670   1.124
 6701TIP3   OH220047   0.561   4.791   4.242
 6701TIP3    H120048   0.520   4.715   4.285
 6701TIP3    H220049   0.531   4.866   4.293
 6702TIP3   OH220050   2.674   0.290   0.209
 6702TIP3    H120051   2.648   0.203   0.178
 6702TIP3    H220052   2.693   0.277   0.302
 6703TIP3   OH220053   1.041   1.382   1.049
 6703TIP3    H120054   1.021   1.473   1.070
 6703TIP3    H220055   0.960   1.334   1.068
 6704TIP3   OH220056   1.527   3.827   1.358
 6704TIP3    H120057   1.600   3.873   1.315
 6704TIP3    H220058   1.453   3.886   1.347
 6705TIP3   OH220059   6.170   6.821   5.858
 6705TIP3    H120060   6.134   6.827   5.770
 6705TIP3    H220061   6.178   6.728   5.875
 6706TIP3   OH220062   7.892   5.408   2.337
 6706TIP3    H120063   7.942   5.444   2.410
 6706TIP3    H220064   7.849   5.483   2.297
 6707TIP3   OH220065   4.402   1.900   1.844
 6707TIP3    H120066   4.497   1.902   1.857
 6707TIP3    H220067   4.383   1.812   1.812
 6708TIP3   OH220068   6.209   7.282   6.047
 6708TIP3    H120069   6.164   7.314   6.125
 6708TIP3    H220070   6.229   7.191   6.066
 6709TIP3   OH220071   2.327   1.445   6.486
 6709TIP3    H120072   2.347   1.483   6.571
 6709TIP3    H220073   2.236   1.468   6.470
 6710TIP3   OH220074   0.477   5.660   0.564
 6710TIP3    H120075   0.469   5.755   0.562
 6710TIP3    H220076   0.571   5.643   0.553
 6711TIP3   OH220077   3.842   1.159   2.827
 6711TIP3    H120078   3.797   1.187   2.906
 6711TIP3    H220079   3.821   1.066   2.819
 6712TIP3   OH220080   5.573   1.223   1.032
 6712TIP3    H120081   5.592   1.167   1.107
 6712TIP3    H220082   5.487   1.259   1.051
 6713TIP3   OH220083   3.124   7.075   0.363
 6713TIP3    H120084   3.163   6.994   0.395
 6713TIP3    H220085   3.091   7.118   0.441
 6714TIP3   OH220086   7.459   1.106   4.878
 6714TIP3    H120087   7.372   1.145   4.875
 6714TIP3    H220088   7.463   1.049   4.802
 6715TIP3   OH220089   7.508   0.317   0.590
 6715TIP3    H120090   7.420   0.298   0.624
 6715TIP3    H220091   7.496   0.396   0.537
 6716TIP3   OH220092   5.990   0.983   2.611
 6716TIP3    H120093   5.901   0.988   2.577
 6716TIP3    H220094   6.041   1.041   2.554
 6717TIP3   OH220095   5.806   1.272   4.176
 6717TIP3    H120096   5.747   1.217   4.229
 6717TIP3    H220097   5.892   1.260   4.217
 6718TIP3   OH220098   0.332   0.801   4.169
 6718TIP3    H120099   0.356   0.741   4.240
 6718TIP3    H220100   0.397   0.871   4.174
 6719TIP3   OH220101   6.283   5.885   2.665
 6719TIP3    H120102   6.317   5.820   2.604
 6719TIP3    H220103   6.264   5.835   2.745
 6720TIP3   OH220104   0.509   4.004   5.521
 6720TIP3    H120105   0.598   3.971   5.516
 6720TIP3    H220106   0.479   3.981   5.609
 6721TIP3   OH220107   1.961   0.221   3.941
 6721TIP3    H120108   2.023   0.178   3.882
 6721TIP3    H220109   1.989   0.312   3.944
 6722TIP3   OH220110   4.002   6.568   3.968
 6722TIP3    H120111   3.972   6.617   4.045
 6722TIP3    H220112   4.084   6.527   3.997
 6723TIP3   OH220113   3.892   5.953   3.597
 6723TIP3    H120114   3.836   5.990   3.529
 6723TIP3    H220115   3.973   5.930   3.551
 6724TIP3   OH220116   2.492   1.743   0.420
 6724TIP3    H120117   2.477   1.723   0.512
 6724TIP3    H220118   2.510   1.837   0.418
 6725TIP3   OH220119   1.666   6.361   2.390
 6725TIP3    H120120   1.737   6.330   2.446
 6725TIP3    H220121   1.709   6.384   2.308
 6726TIP3   OH220122   5.042   0.807   6.738
 6726TIP3    H120123   4.974   0.761   6.688
 6726TIP3    H220124   4.993   0.853   6.806
 6727TIP3   OH220125   6.614   2.455   4.086
 6727TIP3    H120126   6.558   2.510   4.032
 6727TIP3    H220127   6.703   2.483   4.064
 6728TIP3   OH220128   0.498   1.070   5.973
 6728TIP3    H120129   0.409   1.083   5.939
 6728TIP3    H220130   0.529   0.990   5.930
 6729TIP3   OH220131   2.621   0.108   1.978
 6729TIP3    H120132   2.533   0.141   1.995
 6729TIP3    H220133   2.627   0.102   1.883
 6730TIP3   OH220134   4.291   3.625   0.931
 6730TIP3    H120135   4.346   3.616   1.008
 6730TIP3    H220136   4.335   3.571   0.864
 6731TIP3   OH220137   6.932   6.232   0.673
 6731TIP3    H120138   6.929   6.140   0.697
 6731TIP3    H220139   6.860   6.244   0.611
 6732TIP3   OH220140   6.327   3.294   6.202
 6732TIP3    H120141   6.307   3.261   6.290
 6732TIP3    H220142   6.241   3.308   6.162
 6733TIP3   OH220143   2.791   0.766   0.857
 6733TIP3    H120144   2.738   0.690   0.880
 6733TIP3    H220145   2.781   0.774   0.762
 6734TIP3   OH220146   3.882   7.130   6.234
 6734TIP3    H120147   3.953   7.097   6.179
 6734TIP3    H220148   3.899   7.224   6.243
 6735TIP3   OH220149   1.542   2.623   5.422
 6735TIP3    H120150   1.538   2.704   5.474
 6735TIP3    H220151   1.607   2.569   5.467
 6736TIP3   OH220152   6.441   2.915   0.711
 6736TIP3    H120153   6.473   2.905   0.621
 6736TIP3    H220154   6.396   2.832   0.729
 6737TIP3   OH220155   1.302   4.134   2.857
 6737TIP3    H120156   1.213   4.102   2.874
 6737TIP3    H220157   1.291   4.229   2.844
 6738TIP3   OH220158   7.604   7.558   5.856
 6738TIP3    H120159   7.656   7.623   5.904
 6738TIP3    H220160   7.656   7.478   5.863
 6739TIP3   OH220161   2.016   2.565   2.975
 6739TIP3    H120162   1.972   2.623   3.038
 6739TIP3    H220163   1.945   2.533   2.919
 6740TIP3   OH220164   3.545   2.002   4.414
 6740TIP3    H120165   3.549   2.024   4.508
 6740TIP3    H220166   3.453   1.979   4.399
 6741TIP3   OH220167   1.399   2.898   2.569
 6741TIP3    H120168   1.323   2.841   2.556
 6741TIP3    H220169   1.456   2.881   2.494
 6742TIP3   OH220170   4.657   1.590   4.092
 6742TIP3    H120171   4.577   1.643   4.083
 6742TIP3    H220172   4.696   1.591   4.004
 6743TIP3   OH220173   1.858   5.093   0.172
 6743TIP3    H120174   1.940   5.140   0.155
 6743TIP3    H220175   1.884   5.013   0.216
 6744TIP3   OH220176   3.315   2.829   6.789
 6744TIP3    H120177   3.259   2.802   6.862
 6744TIP3    H220178   3.344   2.746   6.749
 6745TIP3   OH220179   2.416   4.327   6.116
 6745TIP3    H120180   2.389   4.415   6.142
 6745TIP3    H220181   2.385   4.271   6.187
 6746TIP3   OH220182   3.918   6.037   1.707
 6746TIP3    H120183   3.970   6.030   1.627
 6746TIP3    H220184   3.915   5.947   1.741
 6747TIP3   OH220185   6.859   6.559   5.940
 6747TIP3    H120186   6.885   6.501   5.868
 6747TIP3    H220187   6.936   6.563   5.996
 6748TIP3   OH220188   8.028   3.651   6.110
 6748TIP3    H120189   8.110   3.663   6.159
 6748TIP3    H220190   7.988   3.573   6.149
 6749TIP3   OH220191   3.996   2.031   2.917
 6749TIP3    H120192   3.944   1.952   2.937
 6749TIP3    H220193   3.984   2.043   2.823
 6750TIP3   OH220194   4.451   2.413   4.144
 6750TIP3    H120195   4.537   2.448   4.169
 6750TIP3    H220196   4.452   2.412   4.048
 6751TIP3   OH220197   4.741   4.630   1.212
 6751TIP3    H120198   4.735   4.575   1.134
 6751TIP3    H220199   4.823   4.604   1.254
 6752TIP3   OH220200   3.120   1.143   0.450
 6752TIP3    H120201   3.076   1.173   0.531
 6752TIP3    H220202   3.051   1.145   0.384
 6753TIP3   OH220203   5.239   5.655   5.189
 6753TIP3    H120204   5.151   5.691   5.177
 6753TIP3    H220205   5.296   5.731   5.193
 6754TIP3   OH220206   6.356   3.920   6.407
 6754TIP3    H120207   6.389   4.006   6.383
 6754TIP3    H220208   6.400   3.899   6.490
 6755TIP3   OH220209   6.665   3.565   2.075
 6755TIP3    H120210   6.737   3.503   2.064
 6755TIP3    H220211   6.666   3.618   1.996
 6756TIP3   OH220212   6.181   1.830   2.568
 6756TIP3    H120213   6.131   1.886   2.627
 6756TIP3    H220214   6.272   1.859   2.579
 6757TIP3   OH220215   3.773   4.141   2.987
 6757TIP3    H120216   3.705   4.207   2.995
 6757TIP3    H220217   3.842   4.169   3.046
 6758TIP3   OH220218   4.565   0.203   4.279
 6758TIP3    H120219   4.573   0.293   4.310
 6758TIP3    H220220   4.521   0.156   4.350
 6759TIP3   OH220221   2.686   7.597   1.756
 6759TIP3    H120222   2.643   7.512   1.747
 6759TIP3    H220223   2.736   7.607   1.675
 6760TIP3   OH220224   5.766   3.779   3.152
 6760TIP3    H120225   5.700   3.841   3.120
 6760TIP3    H220226   5.735   3.693   3.122
 6761TIP3   OH220227   4.059   3.894   5.330
 6761TIP3    H120228   4.094   3.981   5.353
 6761TIP3    H220229   4.135   3.847   5.295
 6762TIP3   OH220230   4.378   2.784   6.663
 6762TIP3    H120231   4.297   2.736   6.677
 6762TIP3    H220232   4.375   2.810   6.571
 6763TIP3   OH220233   0.229   6.391   1.109
 6763TIP3    H120234   0.281   6.374   1.031
 6763TIP3    H220235   0.293   6.400   1.180
 6764TIP3   OH220236   0.993   6.569   5.756
 6764TIP3    H120237   0.904   6.572   5.721
 6764TIP3    H220238   1.004   6.654   5.800
 6765TIP3   OH220239   1.948   6.930   6.615
 6765TIP3    H120240   1.934   6.956   6.706
 6765TIP3    H220241   1.929   6.836   6.613
 6766TIP3   OH220242   6.142   6.261   5.846
 6766TIP3    H120243   6.204   6.292   5.912
 6766TIP3    H220244   6.130   6.335   5.787
 6767TIP3   OH220245   1.203   5.978   2.949
 6767TIP3    H120246   1.279   6.029   2.920
 6767TIP3    H220247   1.158   6.035   3.011
 6768TIP3   OH220248   3.172   4.767   2.282
 6768TIP3    H120249   3.205   4.741   2.196
 6768TIP3    H220250   3.178   4.689   2.336
 6769TIP3   OH220251   2.997   2.893   5.537
 6769TIP3    H120252   3.039   2.815   5.501
 6769TIP3    H220253   3.065   2.960   5.537
 6770TIP3   OH220254   1.622   3.054   2.659
 6770TIP3    H120255   1.530   3.047   2.631
 6770TIP3    H220256   1.618   3.106   2.739
 6771TIP3   OH220257   6.043   7.071   6.242
 6771TIP3    H120258   6.123   7.039   6.284
 6771TIP3    H220259   6.051   7.166   6.242
 6772TIP3   OH220260   4.637   1.640   0.743
 6772TIP3    H120261   4.681   1.569   0.790
 6772TIP3    H220262   4.670   1.720   0.784
 6773TIP3   OH220263   5.723   1.930   2.509
 6773TIP3    H120264   5.718   1.989   2.584
 6773TIP3    H220265   5.725   1.842   2.546
 6774TIP3   OH220266   3.024   4.617   2.872
 6774TIP3    H120267   2.949   4.596   2.816
 6774TIP3    H220268   3.094   4.639   2.810
 6775TIP3   OH220269   3.880   5.390   1.948
 6775TIP3    H120270   3.894   5.484   1.959
 6775TIP3    H220271   3.917   5.370   1.861
 6776TIP3   OH220272   4.444   3.182   0.695
 6776TIP3    H120273   4.453   3.201   0.602
 6776TIP3    H220274   4.351   3.168   0.708
 6777TIP3   OH220275   2.231   7.683   3.631
 6777TIP3    H120276   2.160   7.737   3.597
 6777TIP3    H220277   2.257   7.628   3.557
 6778TIP3   OH220278   5.701   7.107   2.042
 6778TIP3    H120279   5.675   7.033   1.988
 6778TIP3    H220280   5.713   7.070   2.130
 6779TIP3   OH220281   1.492   5.847   5.684
 6779TIP3    H120282   1.443   5.862   5.765
 6779TIP3    H220283   1.506   5.752   5.683
 6780TIP3   OH220284   0.422   1.230   3.578
 6780TIP3    H120285   0.505   1.250   3.535
 6780TIP3    H220286   0.406   1.138   3.557
 6781TIP3   OH220287   4.030   6.728   2.770
 6781TIP3    H120288   3.943   6.690   2.757
 6781TIP3    H220289   4.044   6.723   2.865
 6782TIP3   OH220290   5.580   6.584   0.217
 6782TIP3    H120291   5.591   6.501   0.264
 6782TIP3    H220292   5.648   6.641   0.253
 6783TIP3   OH220293   5.164   0.668   4.688
 6783TIP3    H120294   5.160   0.698   4.598
 6783TIP3    H220295   5.189   0.575   4.682
 6784TIP3   OH220296   6.468   5.650   1.764
 6784TIP3    H120297   6.418   5.690   1.835
 6784TIP3    H220298   6.560   5.658   1.792
 6785TIP3   OH220299   6.936   3.387   4.027
 6785TIP3    H120300   6.958   3.295   4.045
 6785TIP3    H220301   7.006   3.416   3.968
 6786TIP3   OH220302   0.292   0.470   3.753
 6786TIP3    H120303   0.205   0.433   3.740
 6786TIP3    H220304   0.301   0.479   3.848
 6787TIP3   OH220305   6.553   0.910   5.049
 6787TIP3    H120306   6.543   1.001   5.077
 6787TIP3    H220307   6.464   0.877   5.040
 6788TIP3   OH220308   3.876   0.729   5.437
 6788TIP3    H120309   3.847   0.760   5.351
 6788TIP3    H220310   3.826   0.782   5.499
 6789TIP3   OH220311   2.560   7.032   0.893
 6789TIP3    H120312   2.544   6.999   0.805
 6789TIP3    H220313   2.475   7.027   0.937
 6790TIP3   OH220314   7.522   4.010   2.557
 6790TIP3    H120315   7.438   3.980   2.523
 6790TIP3    H220316   7.513   4.004   2.652
 6791TIP3   OH220317   3.778   7.538   6.595
 6791TIP3    H120318   3.823   7.454   6.603
 6791TIP3    H220319   3.720   7.542   6.671
 6792TIP3   OH220320   3.309   5.582   1.461
 6792TIP3    H120321   3.343   5.641   1.393
 6792TIP3    H220322   3.240   5.632   1.504
 6793TIP3   OH220323   1.923   3.008   3.742
 6793TIP3    H120324   1.854   3.047   3.689
 6793TIP3    H220325   1.883   2.929   3.779
 6794TIP3   OH220326   4.454   1.500   3.759
 6794TIP3    H120327   4.473   1.474   3.849
 6794TIP3    H220328   4.393   1.574   3.768
 6795TIP3   OH220329   2.632   4.080   0.306
 6795TIP3    H120330   2.680   4.035   0.375
 6795TIP3    H220331   2.689   4.076   0.230
 6796TIP3   OH220332   0.308   4.240   2.168
 6796TIP3    H120333   0.326   4.211   2.258
 6796TIP3    H220334   0.311   4.159   2.116
 6797TIP3   OH220335   1.612   0.573   0.061
 6797TIP3    H120336   1.613   0.487   0.103
 6797TIP3    H220337   1.700   0.608   0.074
 6798TIP3   OH220338   7.172   7.738   4.114
 6798TIP3    H120339   7.204   7.657   4.076
 6798TIP3    H220340   7.191   7.805   4.048
 6799TIP3   OH220341   8.254   4.390   0.233
 6799TIP3    H120342   8.200   4.458   0.274
 6799TIP3    H220343   8.322   4.372   0.298
 6800TIP3   OH220344   8.288   3.688   2.307
 6800TIP3    H120345   8.326   3.691   2.394
 6800TIP3    H220346   8.194   3.698   2.322
 6801TIP3   OH220347   4.841   6.817   1.608
 6801TIP3    H120348   4.773   6.797   1.673
 6801TIP3    H220349   4.813   6.900   1.569
 6802TIP3   OH220350   2.075   5.300   6.118
 6802TIP3    H120351   2.062   5.373   6.058
 6802TIP3    H220352   2.049   5.334   6.204
 6803TIP3   OH220353   5.648   2.834   6.038
 6803TIP3    H120354   5.730   2.848   5.990
 6803TIP3    H220355   5.676   2.815   6.127
 6804TIP3   OH220356   5.575   7.466   4.788
 6804TIP3    H120357   5.494   7.417   4.769
 6804TIP3    H220358   5.576   7.536   4.723
 6805TIP3   OH220359   5.061   0.611   1.479
 6805TIP3    H120360   5.026   0.695   1.449
 6805TIP3    H220361   4.985   0.555   1.490
 6806TIP3   OH220362   1.934   0.770   5.761
 6806TIP3    H120363   2.002   0.740   5.820
 6806TIP3    H220364   1.911   0.692   5.710
 6807TIP3   OH220365   0.647   5.921   3.673
 6807TIP3    H120366   0.646   5.855   3.741
 6807TIP3    H220367   0.645   6.004   3.720
 6808TIP3   OH220368   5.185   4.350   6.569
 6808TIP3    H120369   5.163   4.412   6.500
 6808TIP3    H220370   5.131   4.377   6.644
 6809TIP3   OH220371   2.979   7.294   1.979
 6809TIP3    H120372   2.950   7.371   1.929
 6809TIP3    H220373   2.957   7.220   1.922
 6810TIP3   OH220374   3.987   3.137   4.370
 6810TIP3    H120375   4.007   3.205   4.305
 6810TIP3    H220376   4.011   3.055   4.327
 6811TIP3   OH220377   1.017   5.837   0.221
 6811TIP3    H120378   1.029   5.921   0.176
 6811TIP3    H220379   1.073   5.842   0.298
 6812TIP3   OH220380   7.407   0.303   3.900
 6812TIP3    H120381   7.458   0.222   3.909
 6812TIP3    H220382   7.325   0.276   3.859
 6813TIP3   OH220383   2.508   0.395   1.448
 6813TIP3    H120384   2.422   0.405   1.406
 6813TIP3    H220385   2.560   0.467   1.413
 6814TIP3   OH220386   0.291   6.797   4.666
 6814TIP3    H120387   0.211   6.774   4.618
 6814TIP3    H220388   0.340   6.851   4.605
 6815TIP3   OH220389   2.105   0.797   3.306
 6815TIP3    H120390   2.150   0.796   3.222
 6815TIP3    H220391   2.165   0.753   3.367
 6816TIP3   OH220392   3.273   5.936   1.714
 6816TIP3    H120393   3.236   5.908   1.798
 6816TIP3    H220394   3.216   6.008   1.686
 6817TIP3   OH220395   3.245   5.374   4.341
 6817TIP3    H120396   3.320   5.413   4.385
 6817TIP3    H220397   3.242   5.284   4.373
 6818TIP3   OH220398   5.876   3.157   3.995
 6818TIP3    H120399   5.937   3.097   4.035
 6818TIP3    H220400   5.929   3.209   3.934
 6819TIP3   OH220401   4.917   3.603   2.703
 6819TIP3    H120402   4.921   3.644   2.790
 6819TIP3    H220403   4.832   3.560   2.700
 6820TIP3   OH220404   7.305   5.805   3.343
 6820TIP3    H120405   7.319   5.740   3.275
 6820TIP3    H220406   7.215   5.790   3.371
 6821TIP3   OH220407   0.404   4.408   6.456
 6821TIP3    H120408   0.374   4.396   6.366
 6821TIP3    H220409   0.500   4.405   6.450
 6822TIP3   OH220410   5.185   3.606   2.604
 6822TIP3    H120411   5.091   3.617   2.617
 6822TIP3    H220412   5.199   3.627   2.511
 6823TIP3   OH220413   1.669   4.049   1.016
 6823TIP3    H120414   1.579   4.072   1.041
 6823TIP3    H220415   1.699   4.123   0.963
 6824TIP3   OH220416   7.630   6.685   1.188
 6824TIP3    H120417   7.715   6.654   1.219
 6824TIP3    H220418   7.609   6.629   1.114
 6825TIP3   OH220419   2.106   3.951   1.325
 6825TIP3    H120420   2.151   4.004   1.391
 6825TIP3    H220421   2.028   4.003   1.303
 6826TIP3   OH220422   0.193   1.376   1.301
 6826TIP3    H120423   0.130   1.447   1.309
 6826TIP3    H220424   0.210   1.368   1.207
 6827TIP3   OH220425   5.583   5.895   2.215
 6827TIP3    H120426   5.538   5.915   2.133
 6827TIP3    H220427   5.516   5.910   2.282
 6828TIP3   OH220428   5.673   4.479   5.870
 6828TIP3    H120429   5.648   4.516   5.785
 6828TIP3    H220430   5.624   4.531   5.934
 6829TIP3   OH220431   0.618   1.077   0.325
 6829TIP3    H120432   0.696   1.092   0.379
 6829TIP3    H220433   0.554   1.039   0.385
 6830TIP3   OH220434   2.995   0.166   2.873
 6830TIP3    H120435   3.060   0.204   2.813
 6830TIP3    H220436   2.911   0.185   2.832
 6831TIP3   OH220437   3.641   4.061   3.522
 6831TIP3    H120438   3.581   3.988   3.538
 6831TIP3    H220439   3.597   4.115   3.456
 6832TIP3   OH220440   0.776   0.257   3.880
 6832TIP3    H120441   0.700   0.310   3.860
 6832TIP3    H220442   0.817   0.240   3.795
 6833TIP3   OH220443   3.163   3.266   1.104
 6833TIP3    H120444   3.071   3.244   1.093
 6833TIP3    H220445   3.167   3.311   1.189
 6834TIP3   OH220446   3.383   0.699   4.633
 6834TIP3    H120447   3.300   0.727   4.671
 6834TIP3    H220448   3.432   0.664   4.708
 6835TIP3   OH220449   5.992   1.945   3.546
 6835TIP3    H120450   6.020   1.996   3.622
 6835TIP3    H220451   6.065   1.887   3.527
 6836TIP3   OH220452   6.717   3.459   6.625
 6836TIP3    H120453   6.795   3.440   6.573
 6836TIP3    H220454   6.714   3.555   6.630
 6837TIP3   OH220455   4.427   6.152   1.224
 6837TIP3    H120456   4.404   6.098   1.148
 6837TIP3    H220457   4.403   6.241   1.199
 6838TIP3   OH220458   5.886   5.212   3.987
 6838TIP3    H120459   5.931   5.244   3.909
 6838TIP3    H220460   5.884   5.287   4.046
 6839TIP3   OH220461   1.486   1.637   3.011
 6839TIP3    H120462   1.510   1.544   3.012
 6839TIP3    H220463   1.460   1.654   2.920
 6840TIP3   OH220464   4.842   1.080   1.894
 6840TIP3    H120465   4.767   1.126   1.932
 6840TIP3    H220466   4.906   1.148   1.875
 6841TIP3   OH220467   1.779   4.116   4.464
 6841TIP3    H120468   1.864   4.154   4.444
 6841TIP3    H220469   1.756   4.154   4.549
 6842TIP3   OH220470   3.008   0.751   3.324
 6842TIP3    H120471   3.012   0.664   3.285
 6842TIP3    H220472   3.033   0.737   3.416
 6843TIP3   OH220473   2.622   4.795   3.540
 6843TIP3    H120474   2.633   4.701   3.550
 6843TIP3    H220475   2.639   4.811   3.447
 6844TIP3   OH220476   7.181   1.642   1.676
 6844TIP3    H120477   7.238   1.710   1.641
 6844TIP3    H220478   7.170   1.666   1.768
 6845TIP3   OH220479   3.280   7.727   1.617
 6845TIP3    H120480   3.280   7.759   1.707
 6845TIP3    H220481   3.218   7.784   1.571
 6846TIP3   OH220482   2.133   3.609   0.503
 6846TIP3    H120483   2.053   3.653   0.475
 6846TIP3    H220484   2.202   3.674   0.490
 6847TIP3   OH220485   2.343   6.785   4.630
 6847TIP3    H120486   2.358   6.691   4.639
 6847TIP3    H220487   2.431   6.823   4.627
 6848TIP3   OH220488   8.248   6.110   0.869
 6848TIP3    H120489   8.323   6.145   0.821
 6848TIP3    H220490   8.248   6.016   0.848
 6849TIP3   OH220491   0.039   3.157   6.645
 6849TIP3    H120492  -0.037   3.154   6.704
 6849TIP3    H220493   0.091   3.081   6.669
 6850TIP3   OH220494   8.122   6.896   5.097
 6850TIP3    H120495   8.216   6.918   5.096
 6850TIP3    H220496   8.119   6.805   5.126
 6851TIP3   OH220497   6.657   5.204   3.042
 6851TIP3    H120498   6.568   5.168   3.044
 6851TIP3    H220499   6.713   5.128   3.028
 6852TIP3   OH220500   4.455   4.301   6.288
 6852TIP3    H120501   4.394   4.305   6.362
 6852TIP3    H220502   4.470   4.393   6.264
 6853TIP3   OH220503   0.846   5.520   3.704
 6853TIP3    H120504   0.795   5.576   3.763
 6853TIP3    H220505   0.930   5.564   3.696
 6854TIP3   OH220506   7.691   7.206   4.351
 6854TIP3    H120507   7.727   7.171   4.270
 6854TIP3    H220508   7.607   7.244   4.326
 6855TIP3   OH220509   3.494   2.466   0.154
 6855TIP3    H120510   3.523   2.554   0.176
 6855TIP3    H220511   3.400   2.475   0.136
 6856TIP3   OH220512   1.872   7.822   4.593
 6856TIP3    H120513   1.964   7.848   4.596
 6856TIP3    H220514   1.874   7.730   4.568
 6857TIP3   OH220515   3.102   7.385   3.628
 6857TIP3    H120516   3.140   7.455   3.681
 6857TIP3    H220517   3.132   7.404   3.539
 6858TIP3   OH220518   5.247   7.550   5.835
 6858TIP3    H120519   5.199   7.467   5.834
 6858TIP3    H220520   5.317   7.537   5.899
 6859TIP3   OH220521   0.882   1.590   2.387
 6859TIP3    H120522   0.948   1.640   2.435
 6859TIP3    H220523   0.915   1.500   2.387
 6860TIP3   OH220524   8.120   1.487   3.910
 6860TIP3    H120525   8.103   1.393   3.909
 6860TIP3    H220526   8.151   1.508   3.822
 6861TIP3   OH220527   3.756   7.056   6.563
 6861TIP3    H120528   3.835   7.010   6.591
 6861TIP3    H220529   3.693   7.042   6.633
 6862TIP3   OH220530   2.487   5.133   1.694
 6862TIP3    H120531   2.541   5.196   1.742
 6862TIP3    H220532   2.416   5.185   1.657
 6863TIP3   OH220533   6.073   3.475   6.076
 6863TIP3    H120534   6.075   3.518   5.990
 6863TIP3    H220535   6.070   3.381   6.056
 6864TIP3   OH220536   7.897   1.697   3.955
 6864TIP3    H120537   7.916   1.709   3.862
 6864TIP3    H220538   7.849   1.614   3.960
 6865TIP3   OH220539   7.642   2.727   2.253
 6865TIP3    H120540   7.616   2.795   2.191
 6865TIP3    H220541   7.734   2.744   2.271
 6866TIP3   OH220542   6.137   5.194   6.717
 6866TIP3    H120543   6.116   5.126   6.654
 6866TIP3    H220544   6.091   5.169   6.797
 6867TIP3   OH220545   3.945   5.151   3.379
 6867TIP3    H120546   3.934   5.237   3.421
 6867TIP3    H220547   3.860   5.134   3.337
 6868TIP3   OH220548   0.705   1.100   3.608
 6868TIP3    H120549   0.674   1.134   3.692
 6868TIP3    H220550   0.637   1.039   3.580
 6869TIP3   OH220551   5.489   2.054   2.398
 6869TIP3    H120552   5.525   2.141   2.382
 6869TIP3    H220553   5.565   1.998   2.413
 6870TIP3   OH220554   6.947   2.179   2.644
 6870TIP3    H120555   6.971   2.096   2.686
 6870TIP3    H220556   6.901   2.153   2.565
 6871TIP3   OH220557   6.194   2.906   3.131
 6871TIP3    H120558   6.270   2.847   3.131
 6871TIP3    H220559   6.155   2.895   3.218
 6872TIP3   OH220560   7.231   2.487   5.664
 6872TIP3    H120561   7.218   2.573   5.706
 6872TIP3    H220562   7.294   2.504   5.594
 6873TIP3   OH220563   2.400   7.347   3.833
 6873TIP3    H120564   2.448   7.293   3.896
 6873TIP3    H220565   2.436   7.435   3.843
 6874TIP3   OH220566   6.823   7.209   2.146
 6874TIP3    H120567   6.818   7.172   2.058
 6874TIP3    H220568   6.740   7.182   2.187
 6875TIP3   OH220569   6.915   7.332   5.685
 6875TIP3    H120570   6.870   7.247   5.676
 6875TIP3    H220571   6.969   7.322   5.763
 6876TIP3   OH220572   1.240   4.946   4.486
 6876TIP3    H120573   1.155   4.907   4.505
 6876TIP3    H220574   1.251   4.932   4.392
 6877TIP3   OH220575   4.652   4.234   3.150
 6877TIP3    H120576   4.740   4.199   3.133
 6877TIP3    H220577   4.618   4.255   3.063
 6878TIP3   OH220578   6.264   2.511   3.240
 6878TIP3    H120579   6.272   2.454   3.163
 6878TIP3    H220580   6.334   2.575   3.230
 6879TIP3   OH220581   6.693   7.635   4.313
 6879TIP3    H120582   6.785   7.610   4.307
 6879TIP3    H220583   6.660   7.589   4.390
 6880TIP3   OH220584   8.017   6.992   0.240
 6880TIP3    H120585   7.965   6.923   0.201
 6880TIP3    H220586   7.955   7.043   0.292
 6881TIP3   OH220587   6.371   7.159   3.255
 6881TIP3    H120588   6.288   7.115   3.239
 6881TIP3    H220589   6.436   7.089   3.256
 6882TIP3   OH220590   3.827   0.068   6.533
 6882TIP3    H120591   3.888   0.141   6.524
 6882TIP3    H220592   3.798   0.071   6.624
 6883TIP3   OH220593   6.928   4.697   1.027
 6883TIP3    H120594   6.940   4.689   1.121
 6883TIP3    H220595   6.996   4.759   0.999
 6884TIP3   OH220596   3.968   1.656   2.283
 6884TIP3    H120597   4.010   1.585   2.332
 6884TIP3    H220598   3.922   1.707   2.349
 6885TIP3   OH220599   3.445   2.746   2.511
 6885TIP3    H120600   3.541   2.741   2.514
 6885TIP3    H220601   3.424   2.742   2.418
 6886TIP3   OH220602   0.255   2.096   2.099
 6886TIP3    H120603   0.296   2.050   2.172
 6886TIP3    H220604   0.186   2.149   2.140
 6887TIP3   OH220605   2.386   3.490   1.138
 6887TIP3    H120606   2.364   3.477   1.230
 6887TIP3    H220607   2.328   3.431   1.090
 6888TIP3   OH220608   3.571   3.838   4.157
 6888TIP3    H120609   3.635   3.767   4.155
 6888TIP3    H220610   3.573   3.869   4.248
 6889TIP3   OH220611   1.470   7.244   0.887
 6889TIP3    H120612   1.421   7.182   0.942
 6889TIP3    H220613   1.527   7.188   0.834
 6890TIP3   OH220614   6.454   2.301   0.878
 6890TIP3    H120615   6.424   2.352   0.954
 6890TIP3    H220616   6.475   2.367   0.812
 6891TIP3   OH220617   1.773   2.046   6.583
 6891TIP3    H120618   1.803   2.081   6.667
 6891TIP3    H220619   1.852   2.018   6.539
 6892TIP3   OH220620   2.742   4.268   5.862
 6892TIP3    H120621   2.680   4.312   5.805
 6892TIP3    H220622   2.721   4.300   5.950
 6893TIP3   OH220623   5.622   0.909   1.722
 6893TIP3    H120624   5.689   0.967   1.686
 6893TIP3    H220625   5.551   0.912   1.658
 6894TIP3   OH220626   7.416   1.836   2.503
 6894TIP3    H120627   7.468   1.785   2.565
 6894TIP3    H220628   7.390   1.914   2.552
 6895TIP3   OH220629   1.336   4.805   3.982
 6895TIP3    H120630   1.269   4.738   3.971
 6895TIP3    H220631   1.335   4.854   3.900
 6896TIP3   OH220632   5.988   5.882   5.453
 6896TIP3    H120633   6.034   5.798   5.460
 6896TIP3    H220634   5.947   5.881   5.367
 6897TIP3   OH220635   7.597   0.229   1.117
 6897TIP3    H120636   7.662   0.195   1.178
 6897TIP3    H220637   7.631   0.205   1.031
 6898TIP3   OH220638   4.425   4.033   4.903
 6898TIP3    H120639   4.512   3.996   4.891
 6898TIP3    H220640   4.438   4.128   4.904
 6899TIP3   OH220641   1.565   4.278   0.394
 6899TIP3    H120642   1.644   4.330   0.377
 6899TIP3    H220643   1.532   4.254   0.308
 6900TIP3   OH220644   7.550   2.211   2.183
 6900TIP3    H120645   7.460   2.231   2.210
 6900TIP3    H220646   7.568   2.126   2.221
 6901TIP3   OH220647   0.152   4.336   3.647
 6901TIP3    H120648   0.106   4.262   3.607
 6901TIP3    H220649   0.174   4.393   3.574
 6902TIP3   OH220650   2.505   0.688   5.233
 6902TIP3    H120651   2.441   0.741   5.280
 6902TIP3    H220652   2.542   0.748   5.167
 6903TIP3   OH220653   5.938   3.540   6.315
 6903TIP3    H120654   5.982   3.507   6.237
 6903TIP3    H220655   5.967   3.631   6.323
 6904TIP3   OH220656   2.134   3.698   6.186
 6904TIP3    H120657   2.225   3.691   6.156
 6904TIP3    H220658   2.107   3.786   6.162
 6905TIP3   OH220659   3.030   6.622   0.570
 6905TIP3    H120660   3.043   6.641   0.662
 6905TIP3    H220661   2.981   6.697   0.536
 6906TIP3   OH220662   3.367   5.882   5.316
 6906TIP3    H120663   3.397   5.972   5.326
 6906TIP3    H220664   3.275   5.884   5.341
 6907TIP3   OH220665   3.798   0.724   4.871
 6907TIP3    H120666   3.793   0.665   4.795
 6907TIP3    H220667   3.885   0.763   4.865
 6908TIP3   OH220668   6.618   4.458   4.043
 6908TIP3    H120669   6.658   4.470   3.957
 6908TIP3    H220670   6.605   4.547   4.076
 6909TIP3   OH220671   8.127   3.766   0.120
 6909TIP3    H120672   8.106   3.682   0.161
 6909TIP3    H220673   8.054   3.782   0.060
 6910TIP3   OH220674   4.097   1.236   6.459
 6910TIP3    H120675   4.121   1.211   6.548
 6910TIP3    H220676   4.020   1.183   6.438
 6911TIP3   OH220677   6.926   4.708   1.367
 6911TIP3    H120678   6.899   4.713   1.459
 6911TIP3    H220679   7.012   4.667   1.370
 6912TIP3   OH220680   7.776   0.119   3.171
 6912TIP3    H120681   7.714   0.079   3.232
 6912TIP3    H220682   7.733   0.111   3.086
 6913TIP3   OH220683   0.702   2.277   5.006
 6913TIP3    H120684   0.719   2.271   5.100
 6913TIP3    H220685   0.613   2.312   4.999
 6914TIP3   OH220686   2.568   1.406  -0.003
 6914TIP3    H120687   2.497   1.470  -0.003
 6914TIP3    H220688   2.626   1.435   0.068
 6915TIP3   OH220689   1.616   3.836   5.410
 6915TIP3    H120690   1.703   3.838   5.372
 6915TIP3    H220691   1.582   3.749   5.388
 6916TIP3   OH220692   4.012   6.154   2.287
 6916TIP3    H120693   3.993   6.099   2.363
 6916TIP3    H220694   4.106   6.146   2.273
 6917TIP3   OH220695   0.759   0.490   4.486
 6917TIP3    H120696   0.813   0.567   4.466
 6917TIP3    H220697   0.814   0.439   4.546
 6918TIP3   OH220698   2.028   7.782   3.267
 6918TIP3    H120699   2.064   7.699   3.237
 6918TIP3    H220700   1.989   7.821   3.188
 6919TIP3   OH220701   5.234   6.906   6.539
 6919TIP3    H120702   5.195   6.835   6.589
 6919TIP3    H220703   5.329   6.890   6.544
 6920TIP3   OH220704   1.505   4.616   6.184
 6920TIP3    H120705   1.438   4.582   6.125
 6920TIP3    H220706   1.529   4.701   6.146
 6921TIP3   OH220707   4.328   5.362   2.925
 6921TIP3    H120708   4.352   5.302   2.855
 6921TIP3    H220709   4.408   5.411   2.944
 6922TIP3   OH220710   2.142   0.600   6.007
 6922TIP3    H120711   2.049   0.579   5.997
 6922TIP3    H220712   2.144   0.663   6.079
 6923TIP3   OH220713   2.027   3.836   3.356
 6923TIP3    H120714   1.942   3.792   3.364
 6923TIP3    H220715   2.041   3.877   3.441
 6924TIP3   OH220716   1.136   1.827   4.295
 6924TIP3    H120717   1.215   1.777   4.276
 6924TIP3    H220718   1.084   1.769   4.350
 6925TIP3   OH220719   2.147   1.464   1.758
 6925TIP3    H120720   2.220   1.402   1.759
 6925TIP3    H220721   2.123   1.471   1.666
 6926TIP3   OH220722   8.240   3.411   3.391
 6926TIP3    H120723   8.149   3.384   3.384
 6926TIP3    H220724   8.237   3.496   3.435
 6927TIP3   OH220725   2.817   2.095   0.225
 6927TIP3    H120726   2.881   2.030   0.254
 6927TIP3    H220727   2.840   2.174   0.274
 6928TIP3   OH220728   1.886   3.443   4.511
 6928TIP3    H120729   1.899   3.360   4.465
 6928TIP3    H220730   1.908   3.510   4.447
 6929TIP3   OH220731   3.849   3.187   2.426
 6929TIP3    H120732   3.759   3.160   2.438
 6929TIP3    H220733   3.894   3.108   2.394
 6930TIP3   OH220734   5.719   7.032   3.015
 6930TIP3    H120735   5.676   6.948   2.998
 6930TIP3    H220736   5.784   7.013   3.082
 6931TIP3   OH220737   8.236   5.230   5.565
 6931TIP3    H120738   8.168   5.209   5.501
 6931TIP3    H220739   8.254   5.323   5.552
 6932TIP3   OH220740   0.389   2.288   1.204
 6932TIP3    H120741   0.403   2.355   1.136
 6932TIP3    H220742   0.464   2.299   1.263
 6933TIP3   OH220743   5.725   1.786   4.800
 6933TIP3    H120744   5.682   1.742   4.873
 6933TIP3    H220745   5.813   1.807   4.832
 6934TIP3   OH220746   0.103   4.178   1.816
 6934TIP3    H120747   0.090   4.272   1.805
 6934TIP3    H220748   0.040   4.153   1.884
 6935TIP3   OH220749   2.478   5.045   0.725
 6935TIP3    H120750   2.428   5.006   0.653
 6935TIP3    H220751   2.424   5.030   0.803
 6936TIP3   OH220752   0.794   3.167   4.432
 6936TIP3    H120753   0.854   3.221   4.482
 6936TIP3    H220754   0.849   3.100   4.392
 6937TIP3   OH220755   1.337   4.615   5.823
 6937TIP3    H120756   1.328   4.701   5.863
 6937TIP3    H220757   1.259   4.606   5.768
 6938TIP3   OH220758   3.878   4.326   5.257
 6938TIP3    H120759   3.792   4.295   5.227
 6938TIP3    H220760   3.921   4.247   5.290
 6939TIP3   OH220761   7.654   1.569   6.732
 6939TIP3    H120762   7.594   1.496   6.723
 6939TIP3    H220763   7.735   1.530   6.764
 6940TIP3   OH220764   0.552   7.566   5.434
 6940TIP3    H120765   0.616   7.581   5.364
 6940TIP3    H220766   0.504   7.488   5.406
 6941TIP3   OH220767   2.640   4.330   4.800
 6941TIP3    H120768   2.589   4.344   4.720
 6941TIP3    H220769   2.605   4.394   4.862
 6942TIP3   OH220770   2.988   1.052   5.110
 6942TIP3    H120771   2.924   1.123   5.120
 6942TIP3    H220772   3.021   1.038   5.198
 6943TIP3   OH220773   2.495   6.117   5.592
 6943TIP3    H120774   2.530   6.098   5.505
 6943TIP3    H220775   2.516   6.209   5.607
 6944TIP3   OH220776   7.066   2.342   4.507
 6944TIP3    H120777   6.986   2.289   4.512
 6944TIP3    H220778   7.137   2.278   4.513
 6945TIP3   OH220779   0.686   4.535   5.882
 6945TIP3    H120780   0.669   4.481   5.805
 6945TIP3    H220781   0.702   4.472   5.952
 6946TIP3   OH220782   6.039   4.768   3.976
 6946TIP3    H120783   6.121   4.793   3.933
 6946TIP3    H220784   6.010   4.847   4.021
 6947TIP3   OH220785   3.073   6.120   3.244
 6947TIP3    H120786   3.007   6.066   3.289
 6947TIP3    H220787   3.156   6.078   3.266
 6948TIP3   OH220788   7.194   3.117   4.036
 6948TIP3    H120789   7.127   3.138   4.100
 6948TIP3    H220790   7.270   3.167   4.063
 6949TIP3   OH220791   3.955   0.621   2.190
 6949TIP3    H120792   3.938   0.531   2.163
 6949TIP3    H220793   4.013   0.613   2.266
 6950TIP3   OH220794   8.169   7.721   6.401
 6950TIP3    H120795   8.091   7.776   6.411
 6950TIP3    H220796   8.242   7.783   6.395
 6951TIP3   OH220797   7.572   7.607   3.099
 6951TIP3    H120798   7.646   7.607   3.037
 6951TIP3    H220799   7.497   7.634   3.046
 6952TIP3   OH220800   7.618   3.151   2.552
 6952TIP3    H120801   7.586   3.123   2.638
 6952TIP3    H220802   7.666   3.076   2.519
 6953TIP3   OH220803   1.052   5.565   2.647
 6953TIP3    H120804   1.050   5.611   2.731
 6953TIP3    H220805   1.083   5.630   2.584
 6954TIP3   OH220806   1.332   5.727   3.077
 6954TIP3    H120807   1.372   5.726   2.990
 6954TIP3    H220808   1.319   5.819   3.097
 6955TIP3   OH220809   7.489   4.038   6.091
 6955TIP3    H120810   7.567   4.056   6.144
 6955TIP3    H220811   7.520   4.044   6.001
 6956TIP3   OH220812   5.099   3.549   1.299
 6956TIP3    H120813   5.135   3.461   1.286
 6956TIP3    H220814   5.075   3.551   1.392
 6957TIP3   OH220815   6.369   3.250   0.378
 6957TIP3    H120816   6.322   3.253   0.295
 6957TIP3    H220817   6.444   3.308   0.366
 6958TIP3   OH220818   0.976   0.695   2.475
 6958TIP3    H120819   0.922   0.723   2.549
 6958TIP3    H220820   1.010   0.776   2.438
 6959TIP3   OH220821   2.493   2.749   5.850
 6959TIP3    H120822   2.432   2.705   5.791
 6959TIP3    H220823   2.535   2.816   5.796
 6960TIP3   OH220824   7.933   3.532   3.532
 6960TIP3    H120825   7.895   3.601   3.587
 6960TIP3    H220826   7.964   3.466   3.593
 6961TIP3   OH220827   1.018   5.998   3.394
 6961TIP3    H120828   1.112   5.987   3.408
 6961TIP3    H220829   0.979   5.991   3.481
 6962TIP3   OH220830   5.130   0.556   6.056
 6962TIP3    H120831   5.075   0.620   6.011
 6962TIP3    H220832   5.195   0.608   6.102
 6963TIP3   OH220833   5.279   2.452   3.890
 6963TIP3    H120834   5.310   2.479   3.804
 6963TIP3    H220835   5.358   2.451   3.945
 6964TIP3   OH220836   0.801   5.475   2.899
 6964TIP3    H120837   0.864   5.433   2.841
 6964TIP3    H220838   0.815   5.569   2.887
 6965TIP3   OH220839   4.814   0.570   5.380
 6965TIP3    H120840   4.788   0.506   5.446
 6965TIP3    H220841   4.743   0.633   5.377
 6966TIP3   OH220842   4.348   4.606   4.183
 6966TIP3    H120843   4.350   4.659   4.103
 6966TIP3    H220844   4.311   4.522   4.154
 6967TIP3   OH220845   1.344   3.455   3.115
 6967TIP3    H120846   1.373   3.519   3.050
 6967TIP3    H220847   1.315   3.509   3.189
 6968TIP3   OH220848   4.907   4.281   4.902
 6968TIP3    H120849   4.940   4.315   4.819
 6968TIP3    H220850   4.966   4.317   4.968
 6969TIP3   OH220851   0.327   3.093   0.802
 6969TIP3    H120852   0.305   3.043   0.724
 6969TIP3    H220853   0.408   3.053   0.834
 6970TIP3   OH220854   6.816   5.653   4.572
 6970TIP3    H120855   6.762   5.691   4.641
 6970TIP3    H220856   6.872   5.725   4.543
 6971TIP3   OH220857   7.579   5.997   5.659
 6971TIP3    H120858   7.562   5.903   5.652
 6971TIP3    H220859   7.579   6.014   5.753
 6972TIP3   OH220860   1.788   5.731   0.862
 6972TIP3    H120861   1.796   5.692   0.776
 6972TIP3    H220862   1.754   5.660   0.917
 6973TIP3   OH220863   2.272   1.698   2.013
 6973TIP3    H120864   2.219   1.667   1.940
 6973TIP3    H220865   2.223   1.672   2.091
 6974TIP3   OH220866   7.440   4.326   1.958
 6974TIP3    H120867   7.535   4.336   1.950
 6974TIP3    H220868   7.424   4.233   1.944
 6975TIP3   OH220869   0.323   0.676   2.655
 6975TIP3    H120870   0.249   0.735   2.667
 6975TIP3    H220871   0.285   0.589   2.654
 6976TIP3   OH220872   0.106   7.642   2.258
 6976TIP3    H120873   0.163   7.574   2.223
 6976TIP3    H220874   0.159   7.685   2.325
 6977TIP3   OH220875   8.196   0.191   5.234
 6977TIP3    H120876   8.114   0.235   5.214
 6977TIP3    H220877   8.181   0.149   5.319
 6978TIP3   OH220878   4.720   6.509   0.279
 6978TIP3    H120879   4.719   6.580   0.214
 6978TIP3    H220880   4.629   6.480   0.284
 6979TIP3   OH220881   5.238   0.697   2.019
 6979TIP3    H120882   5.226   0.655   1.933
 6979TIP3    H220883   5.186   0.777   2.014
 6980TIP3   OH220884   2.952   3.184   2.973
 6980TIP3    H120885   2.964   3.140   3.057
 6980TIP3    H220886   3.035   3.171   2.927
 6981TIP3   OH220887   5.301   0.864   5.499
 6981TIP3    H120888   5.394   0.844   5.507
 6981TIP3    H220889   5.271   0.873   5.589
 6982TIP3   OH220890   5.330   0.367   1.968
 6982TIP3    H120891   5.358   0.288   2.015
 6982TIP3    H220892   5.400   0.430   1.981
 6983TIP3   OH220893   0.882   3.281   0.589
 6983TIP3    H120894   0.890   3.192   0.624
 6983TIP3    H220895   0.898   3.271   0.495
 6984TIP3   OH220896   6.056   4.051   4.274
 6984TIP3    H120897   5.995   4.085   4.340
 6984TIP3    H220898   6.136   4.101   4.289
 6985TIP3   OH220899   5.533   1.667   4.957
 6985TIP3    H120900   5.507   1.587   4.912
 6985TIP3    H220901   5.453   1.721   4.958
 6986TIP3   OH220902   4.357   7.741   5.940
 6986TIP3    H120903   4.445   7.741   5.903
 6986TIP3    H220904   4.369   7.772   6.030
 6987TIP3   OH220905   3.592   3.607   6.609
 6987TIP3    H120906   3.663   3.558   6.567
 6987TIP3    H220907   3.512   3.567   6.575
 6988TIP3   OH220908   3.663   1.673   0.744
 6988TIP3    H120909   3.663   1.595   0.688
 6988TIP3    H220910   3.583   1.665   0.795
 6989TIP3   OH220911   1.135   4.179   5.486
 6989TIP3    H120912   1.118   4.086   5.480
 6989TIP3    H220913   1.058   4.221   5.447
 6990TIP3   OH220914   6.984   3.362   2.505
 6990TIP3    H120915   7.044   3.312   2.449
 6990TIP3    H220916   6.924   3.297   2.541
 6991TIP3   OH220917   3.941   5.572   4.026
 6991TIP3    H120918   4.032   5.542   4.028
 6991TIP3    H220919   3.903   5.536   4.106
 6992TIP3   OH220920   6.143   0.298   0.485
 6992TIP3    H120921   6.051   0.276   0.499
 6992TIP3    H220922   6.187   0.214   0.470
 6993TIP3   OH220923   3.022   1.445   3.497
 6993TIP3    H120924   3.058   1.501   3.566
 6993TIP3    H220925   3.094   1.437   3.434
 6994TIP3   OH220926   3.685   5.531   4.513
 6994TIP3    H120927   3.593   5.554   4.500
 6994TIP3    H220928   3.730   5.615   4.520
 6995TIP3   OH220929   2.888   4.901   2.971
 6995TIP3    H120930   2.895   4.820   3.023
 6995TIP3    H220931   2.976   4.913   2.935
 6996TIP3   OH220932   5.947   7.301   5.952
 6996TIP3    H120933   6.040   7.309   5.975
 6996TIP3    H220934   5.948   7.265   5.864
 6997TIP3   OH220935   8.130   4.828   4.588
 6997TIP3    H120936   8.038   4.831   4.563
 6997TIP3    H220937   8.178   4.839   4.506
 6998TIP3   OH220938   2.894   2.430   3.485
 6998TIP3    H120939   2.986   2.441   3.465
 6998TIP3    H220940   2.872   2.344   3.449
 6999TIP3   OH220941   3.213   4.813   6.453
 6999TIP3    H120942   3.207   4.837   6.546
 6999TIP3    H220943   3.151   4.872   6.409
 7000TIP3   OH220944   4.850   7.284   4.545
 7000TIP3    H120945   4.929   7.275   4.491
 7000TIP3    H220946   4.834   7.195   4.578
 7001TIP3   OH220947   2.562   3.179   3.507
 7001TIP3    H120948   2.600   3.114   3.566
 7001TIP3    H220949   2.549   3.132   3.424
 7002TIP3   OH220950   2.041   2.295   5.656
 7002TIP3    H120951   1.957   2.257   5.632
 7002TIP3    H220952   2.105   2.250   5.601
 7003TIP3   OH220953   1.857   5.047   0.684
 7003TIP3    H120954   1.841   5.006   0.599
 7003TIP3    H220955   1.785   5.018   0.739
 7004TIP3   OH220956   4.418   7.771   0.397
 7004TIP3    H120957   4.370   7.768   0.480
 7004TIP3    H220958   4.363   7.824   0.339
 7005TIP3   OH220959   7.202   7.308   2.463
 7005TIP3    H120960   7.151   7.339   2.388
 7005TIP3    H220961   7.159   7.227   2.490
 7006TIP3   OH220962   3.148   3.449   5.913
 7006TIP3    H120963   3.177   3.428   5.824
 7006TIP3    H220964   3.145   3.545   5.915
 7007TIP3   OH220965   3.532   0.690   3.184
 7007TIP3    H120966   3.579   0.640   3.251
 7007TIP3    H220967   3.442   0.658   3.189
 7008TIP3   OH220968   1.269   0.923   6.431
 7008TIP3    H120969   1.229   0.848   6.475
 7008TIP3    H220970   1.230   0.923   6.343
 7009TIP3   OH220971   1.208   7.003   3.394
 7009TIP3    H120972   1.249   7.025   3.478
 7009TIP3    H220973   1.282   6.996   3.333
 7010TIP3   OH220974   0.719   4.819   3.698
 7010TIP3    H120975   0.770   4.742   3.675
 7010TIP3    H220976   0.783   4.890   3.703
 7011TIP3   OH220977   3.241   7.304   4.516
 7011TIP3    H120978   3.267   7.391   4.484
 7011TIP3    H220979   3.254   7.246   4.441
 7012TIP3   OH220980   2.130   3.420   2.319
 7012TIP3    H120981   2.126   3.375   2.404
 7012TIP3    H220982   2.170   3.356   2.260
 7013TIP3   OH220983   6.267   6.165   6.137
 7013TIP3    H120984   6.263   6.249   6.183
 7013TIP3    H220985   6.355   6.163   6.101
 7014TIP3   OH220986   1.159   2.456   6.706
 7014TIP3    H120987   1.155   2.378   6.652
 7014TIP3    H220988   1.226   2.511   6.665
 7015TIP3   OH220989   0.586   7.375   3.904
 7015TIP3    H120990   0.509   7.318   3.900
 7015TIP3    H220991   0.645   7.331   3.965
 7016TIP3   OH220992   6.729   0.677   4.352
 7016TIP3    H120993   6.821   0.650   4.343
 7016TIP3    H220994   6.693   0.619   4.419
 7017TIP3   OH220995   5.755   7.382   0.504
 7017TIP3    H120996   5.668   7.401   0.469
 7017TIP3    H220997   5.770   7.449   0.569
 7018TIP3   OH220998   7.353   2.164   1.823
 7018TIP3    H120999   7.383   2.106   1.893
 7018TIP3    H221000   7.270   2.200   1.856
 7019TIP3   OH221001   6.345   5.501   4.231
 7019TIP3    H121002   6.296   5.516   4.312
 7019TIP3    H221003   6.345   5.405   4.221
 7020TIP3   OH221004   0.310   3.276   1.600
 7020TIP3    H121005   0.387   3.231   1.563
 7020TIP3    H221006   0.236   3.221   1.575
 7021TIP3   OH221007   5.537   2.462   4.697
 7021TIP3    H121008   5.539   2.526   4.626
 7021TIP3    H221009   5.453   2.418   4.686
 7022TIP3   OH221010   0.569   5.294   1.836
 7022TIP3    H121011   0.644   5.269   1.781
 7022TIP3    H221012   0.506   5.331   1.774
 7023TIP3   OH221013   6.980   4.198   0.787
 7023TIP3    H121014   6.938   4.263   0.730
 7023TIP3    H221015   6.912   4.175   0.851
 7024TIP3   OH221016   7.092   0.127   6.572
 7024TIP3    H121017   7.069   0.215   6.605
 7024TIP3    H221018   7.169   0.142   6.518
 7025TIP3   OH221019   0.927   5.245   4.690
 7025TIP3    H121020   0.934   5.232   4.785
 7025TIP3    H221021   0.845   5.201   4.666
 7026TIP3   OH221022   2.845   2.598   2.627
 7026TIP3    H121023   2.833   2.637   2.540
 7026TIP3    H221024   2.802   2.513   2.621
 7027TIP3   OH221025   7.585   6.936   2.068
 7027TIP3    H121026   7.661   6.992   2.059
 7027TIP3    H221027   7.512   6.996   2.083
 7028TIP3   OH221028   2.575   1.285   1.478
 7028TIP3    H121029   2.598   1.365   1.431
 7028TIP3    H221030   2.616   1.294   1.563
 7029TIP3   OH221031   3.444   6.550   6.369
 7029TIP3    H121032   3.480   6.557   6.457
 7029TIP3    H221033   3.438   6.456   6.353
 7030TIP3   OH221034   6.251   7.041   0.802
 7030TIP3    H121035   6.292   7.059   0.717
 7030TIP3    H221036   6.175   6.988   0.781
 7031TIP3   OH221037   5.028   3.516   1.993
 7031TIP3    H121038   4.938   3.521   1.961
 7031TIP3    H221039   5.029   3.575   2.068
 7032TIP3   OH221040   7.167   7.650   5.297
 7032TIP3    H121041   7.158   7.555   5.285
 7032TIP3    H221042   7.177   7.684   5.208
 7033TIP3   OH221043   1.322   4.981   4.203
 7033TIP3    H121044   1.301   4.894   4.168
 7033TIP3    H221045   1.362   5.028   4.130
 7034TIP3   OH221046   1.882   4.290   6.395
 7034TIP3    H121047   1.802   4.294   6.343
 7034TIP3    H221048   1.949   4.330   6.340
 7035TIP3   OH221049   4.281   2.435   3.524
 7035TIP3    H121050   4.330   2.353   3.520
 7035TIP3    H221051   4.266   2.459   3.433
 7036TIP3   OH221052   2.403   2.021   3.850
 7036TIP3    H121053   2.425   1.988   3.937
 7036TIP3    H221054   2.341   1.956   3.815
 7037TIP3   OH221055   6.045   2.629   0.184
 7037TIP3    H121056   6.125   2.598   0.142
 7037TIP3    H221057   5.997   2.675   0.115
 7038TIP3   OH221058   5.284   2.294   2.982
 7038TIP3    H121059   5.275   2.207   2.943
 7038TIP3    H221060   5.200   2.308   3.027
 7039TIP3   OH221061   6.012   0.292   4.560
 7039TIP3    H121062   6.072   0.358   4.528
 7039TIP3    H221063   6.068   0.218   4.584
 7040TIP3   OH221064   2.274   2.575   2.787
 7040TIP3    H121065   2.327   2.508   2.831
 7040TIP3    H221066   2.332   2.609   2.718
 7041TIP3   OH221067   6.334   1.791   3.329
 7041TIP3    H121068   6.374   1.704   3.323
 7041TIP3    H221069   6.280   1.786   3.408
 7042TIP3   OH221070   6.629   2.202   1.302
 7042TIP3    H121071   6.705   2.158   1.341
 7042TIP3    H221072   6.667   2.265   1.241
 7043TIP3   OH221073   0.315   6.883   2.211
 7043TIP3    H121074   0.359   6.802   2.234
 7043TIP3    H221075   0.250   6.897   2.280
 7044TIP3   OH221076   7.326   0.376   2.036
 7044TIP3    H121077   7.368   0.431   1.970
 7044TIP3    H221078   7.392   0.366   2.104
 7045TIP3   OH221079   6.149   3.262   1.302
 7045TIP3    H121080   6.122   3.261   1.394
 7045TIP3    H221081   6.243   3.281   1.305
 7046TIP3   OH221082   2.048   0.101   4.205
 7046TIP3    H121083   1.996   0.143   4.136
 7046TIP3    H221084   1.985   0.083   4.275
 7047TIP3   OH221085   5.814   0.727   0.209
 7047TIP3    H121086   5.745   0.710   0.273
 7047TIP3    H221087   5.894   0.733   0.261
 7048TIP3   OH221088   1.062   2.102   4.281
 7048TIP3    H121089   1.083   2.009   4.272
 7048TIP3    H221090   1.130   2.136   4.338
 7049TIP3   OH221091   3.693   7.439   1.901
 7049TIP3    H121092   3.716   7.480   1.984
 7049TIP3    H221093   3.612   7.390   1.921
 7050TIP3   OH221094   6.517   6.338   4.009
 7050TIP3    H121095   6.549   6.255   4.045
 7050TIP3    H221096   6.455   6.370   4.074
 7051TIP3   OH221097   6.773   4.950   3.075
 7051TIP3    H121098   6.737   4.882   3.133
 7051TIP3    H221099   6.847   4.907   3.032
 7052TIP3   OH221100   5.972   3.359   2.534
 7052TIP3    H121101   5.974   3.453   2.517
 7052TIP3    H221102   5.914   3.324   2.466
 7053TIP3   OH221103   4.912   0.896   3.030
 7053TIP3    H121104   4.874   0.826   3.083
 7053TIP3    H221105   4.905   0.865   2.940
 7054TIP3   OH221106   3.061   3.587   4.233
 7054TIP3    H121107   3.083   3.672   4.196
 7054TIP3    H221108   3.118   3.525   4.187
 7055TIP3   OH221109   1.029   4.822   5.309
 7055TIP3    H121110   1.045   4.800   5.401
 7055TIP3    H221111   1.025   4.918   5.308
 7056TIP3   OH221112   2.013   0.333   5.074
 7056TIP3    H121113   1.921   0.317   5.052
 7056TIP3    H221114   2.033   0.269   5.143
 7057TIP3   OH221115   2.157   5.076   1.565
 7057TIP3    H121116   2.186   5.156   1.609
 7057TIP3    H221117   2.238   5.031   1.542
 7058TIP3   OH221118   3.886   0.287   5.036
 7058TIP3    H121119   3.946   0.312   5.106
 7058TIP3    H221120   3.864   0.196   5.055
 7059TIP3   OH221121   7.369   5.881   1.842
 7059TIP3    H121122   7.394   5.966   1.806
 7059TIP3    H221123   7.363   5.896   1.937
 7060TIP3   OH221124   3.070   5.737   3.177
 7060TIP3    H121125   3.093   5.645   3.191
 7060TIP3    H221126   3.120   5.784   3.244
 7061TIP3   OH221127   6.491   0.298   0.747
 7061TIP3    H121128   6.533   0.299   0.661
 7061TIP3    H221129   6.459   0.387   0.760
 7062TIP3   OH221130   3.724   5.141   5.606
 7062TIP3    H121131   3.746   5.206   5.673
 7062TIP3    H221132   3.637   5.110   5.632
 7063TIP3   OH221133   5.940   7.386   4.234
 7063TIP3    H121134   5.941   7.295   4.204
 7063TIP3    H221135   5.997   7.387   4.311
 7064TIP3   OH221136   2.505   5.729   4.148
 7064TIP3    H121137   2.568   5.722   4.220
 7064TIP3    H221138   2.419   5.727   4.191
 7065TIP3   OH221139   2.022   4.389   1.231
 7065TIP3    H121140   2.018   4.484   1.245
 7065TIP3    H221141   2.081   4.379   1.156
 7066TIP3   OH221142   2.828   1.183   5.677
 7066TIP3    H121143   2.894   1.247   5.703
 7066TIP3    H221144   2.872   1.098   5.689
 7067TIP3   OH221145   4.883   5.804   0.903
 7067TIP3    H121146   4.962   5.830   0.857
 7067TIP3    H221147   4.825   5.880   0.898
 7068TIP3   OH221148   8.197   2.205   0.353
 7068TIP3    H121149   8.139   2.138   0.389
 7068TIP3    H221150   8.262   2.219   0.423
 7069TIP3   OH221151   3.512   0.050   2.196
 7069TIP3    H121152   3.430   0.093   2.172
 7069TIP3    H221153   3.515  -0.029   2.141
 7070TIP3   OH221154   2.155   5.401   3.355
 7070TIP3    H121155   2.190   5.460   3.289
 7070TIP3    H221156   2.197   5.317   3.336
 7071TIP3   OH221157   7.116   4.187   1.833
 7071TIP3    H121158   7.048   4.193   1.899
 7071TIP3    H221159   7.180   4.126   1.870
 7072TIP3   OH221160   7.524   6.440   1.761
 7072TIP3    H121161   7.570   6.524   1.753
 7072TIP3    H221162   7.432   6.464   1.769
 7073TIP3   OH221163   0.948   6.212   6.130
 7073TIP3    H121164   0.939   6.119   6.149
 7073TIP3    H221165   0.858   6.245   6.130
 7074TIP3   OH221166   7.801   7.361   0.885
 7074TIP3    H121167   7.755   7.432   0.930
 7074TIP3    H221168   7.733   7.316   0.835
 7075TIP3   OH221169   8.286   3.880   0.325
 7075TIP3    H121170   8.207   3.874   0.271
 7075TIP3    H221171   8.277   3.810   0.389
 7076TIP3   OH221172   2.043   6.113   0.993
 7076TIP3    H121173   2.040   6.170   1.070
 7076TIP3    H221174   1.995   6.162   0.926
 7077TIP3   OH221175   3.006   4.275   1.976
 7077TIP3    H121176   3.024   4.362   2.013
 7077TIP3    H221177   2.971   4.225   2.050
 7078TIP3   OH221178   3.103   7.019   1.579
 7078TIP3    H121179   3.195   7.012   1.556
 7078TIP3    H221180   3.072   6.929   1.585
 7079TIP3   OH221181   0.489   2.121   1.424
 7079TIP3    H121182   0.551   2.050   1.439
 7079TIP3    H221183   0.427   2.114   1.496
 7080TIP3   OH221184   0.479   7.004   0.819
 7080TIP3    H121185   0.406   6.961   0.776
 7080TIP3    H221186   0.441   7.043   0.898
 7081TIP3   OH221187   3.791   3.688   0.455
 7081TIP3    H121188   3.779   3.609   0.507
 7081TIP3    H221189   3.741   3.755   0.501
 7082TIP3   OH221190   1.160   0.944   3.910
 7082TIP3    H121191   1.224   0.944   3.839
 7082TIP3    H221192   1.075   0.955   3.867
 7083TIP3   OH221193   2.700   3.394   3.564
 7083TIP3    H121194   2.707   3.411   3.658
 7083TIP3    H221195   2.667   3.304   3.558
 7084TIP3   OH221196   8.286   1.210   5.721
 7084TIP3    H121197   8.275   1.286   5.664
 7084TIP3    H221198   8.294   1.136   5.661
 7085TIP3   OH221199   0.280   4.663   1.471
 7085TIP3    H121200   0.297   4.714   1.391
 7085TIP3    H221201   0.358   4.678   1.525
 7086TIP3   OH221202   3.212   4.663   5.973
 7086TIP3    H121203   3.203   4.572   6.001
 7086TIP3    H221204   3.282   4.662   5.908
 7087TIP3   OH221205   7.575   0.323   4.832
 7087TIP3    H121206   7.566   0.245   4.777
 7087TIP3    H221207   7.485   0.354   4.843
 7088TIP3   OH221208   7.379   4.990   2.026
 7088TIP3    H121209   7.465   4.965   1.992
 7088TIP3    H221210   7.317   4.949   1.964
 7089TIP3   OH221211   5.942   2.217   6.428
 7089TIP3    H121212   5.896   2.137   6.404
 7089TIP3    H221213   5.887   2.256   6.496
 7090TIP3   OH221214   5.219   4.871   4.207
 7090TIP3    H121215   5.202   4.783   4.170
 7090TIP3    H221216   5.294   4.858   4.265
 7091TIP3   OH221217   5.498   7.120   6.713
 7091TIP3    H121218   5.449   7.201   6.698
 7091TIP3    H221219   5.590   7.145   6.699
 7092TIP3   OH221220   5.005   6.247   0.709
 7092TIP3    H121221   4.953   6.311   0.757
 7092TIP3    H221222   4.956   6.165   0.718
 7093TIP3   OH221223   1.575   2.845   5.572
 7093TIP3    H121224   1.518   2.914   5.536
 7093TIP3    H221225   1.612   2.884   5.652
 7094TIP3   OH221226   0.772   1.672   3.302
 7094TIP3    H121227   0.725   1.694   3.382
 7094TIP3    H221228   0.728   1.722   3.233
 7095TIP3   OH221229   2.135   4.453   5.909
 7095TIP3    H121230   2.095   4.503   5.838
 7095TIP3    H221231   2.110   4.362   5.891
 7096TIP3   OH221232   5.488   7.559   0.651
 7096TIP3    H121233   5.482   7.632   0.713
 7096TIP3    H221234   5.456   7.483   0.700
 7097TIP3   OH221235   1.415   2.870   3.508
 7097TIP3    H121236   1.455   2.818   3.439
 7097TIP3    H221237   1.342   2.817   3.540
 7098TIP3   OH221238   0.578   3.101   5.626
 7098TIP3    H121239   0.637   3.050   5.681
 7098TIP3    H221240   0.492   3.088   5.665
 7099TIP3   OH221241   1.536   3.340   4.496
 7099TIP3    H121242   1.514   3.433   4.510
 7099TIP3    H221243   1.553   3.334   4.402
 7100TIP3   OH221244   0.242   3.384   3.311
 7100TIP3    H121245   0.243   3.292   3.338
 7100TIP3    H221246   0.149   3.405   3.301
 7101TIP3   OH221247   7.746   5.620   2.206
 7101TIP3    H121248   7.725   5.565   2.130
 7101TIP3    H221249   7.750   5.709   2.171
 7102TIP3   OH221250   5.614   3.658   6.071
 7102TIP3    H121251   5.709   3.645   6.066
 7102TIP3    H221252   5.604   3.753   6.071
 7103TIP3   OH221253   6.018   2.147   5.214
 7103TIP3    H121254   5.937   2.173   5.259
 7103TIP3    H221255   6.040   2.223   5.159
 7104TIP3   OH221256   1.463   3.014   5.395
 7104TIP3    H121257   1.402   2.979   5.330
 7104TIP3    H221258   1.430   3.102   5.414
 7105TIP3   OH221259   7.668   7.799   3.346
 7105TIP3    H121260   7.576   7.771   3.343
 7105TIP3    H221261   7.692   7.793   3.439
 7106TIP3   OH221262   3.631   1.089   2.309
 7106TIP3    H121263   3.619   1.091   2.404
 7106TIP3    H221264   3.617   1.180   2.281
 7107TIP3   OH221265   3.181   3.200   5.047
 7107TIP3    H121266   3.121   3.133   5.016
 7107TIP3    H221267   3.128   3.256   5.103
 7108TIP3   OH221268   8.082   0.597   2.159
 7108TIP3    H121269   8.077   0.571   2.067
 7108TIP3    H221270   8.161   0.554   2.192
 7109TIP3   OH221271   1.748   2.009   1.071
 7109TIP3    H121272   1.788   2.093   1.049
 7109TIP3    H221273   1.671   2.033   1.122
 7110TIP3   OH221274   5.102   1.554   6.073
 7110TIP3    H121275   5.084   1.619   6.005
 7110TIP3    H221276   5.017   1.518   6.096
 7111TIP3   OH221277   0.739   1.176   3.890
 7111TIP3    H121278   0.666   1.194   3.950
 7111TIP3    H221279   0.816   1.212   3.935
 7112TIP3   OH221280   6.556   6.407   2.705
 7112TIP3    H121281   6.561   6.332   2.645
 7112TIP3    H221282   6.563   6.484   2.649
 7113TIP3   OH221283   0.171   0.452   3.315
 7113TIP3    H121284   0.189   0.398   3.392
 7113TIP3    H221285   0.151   0.539   3.351
 7114TIP3   OH221286   0.022   5.559   2.437
 7114TIP3    H121287  -0.033   5.485   2.463
 7114TIP3    H221288  -0.034   5.612   2.380
 7115TIP3   OH221289   7.848   0.314   4.847
 7115TIP3    H121290   7.864   0.222   4.825
 7115TIP3    H221291   7.753   0.319   4.857
 7116TIP3   OH221292   6.397   1.931   2.966
 7116TIP3    H121293   6.393   1.966   2.876
 7116TIP3    H221294   6.306   1.932   2.996
 7117TIP3   OH221295   2.719   6.314   2.369
 7117TIP3    H121296   2.636   6.281   2.404
 7117TIP3    H221297   2.781   6.243   2.384
 7118TIP3   OH221298   1.639   6.591   1.211
 7118TIP3    H121299   1.678   6.544   1.137
 7118TIP3    H221300   1.698   6.665   1.225
 7119TIP3   OH221301   2.090   4.379   6.202
 7119TIP3    H121302   2.158   4.312   6.202
 7119TIP3    H221303   2.136   4.460   6.224
 7120TIP3   OH221304   6.123   6.285   4.844
 7120TIP3    H121305   6.062   6.358   4.851
 7120TIP3    H221306   6.067   6.209   4.828
 7121TIP3   OH221307   5.584   4.580   5.608
 7121TIP3    H121308   5.611   4.670   5.592
 7121TIP3    H221309   5.596   4.536   5.524
 7122TIP3   OH221310   4.007   3.884   0.379
 7122TIP3    H121311   3.947   3.810   0.387
 7122TIP3    H221312   3.956   3.952   0.335
 7123TIP3   OH221313   5.786   4.218   5.505
 7123TIP3    H121314   5.713   4.224   5.567
 7123TIP3    H221315   5.818   4.128   5.516
 7124TIP3   OH221316   6.178   1.872   6.299
 7124TIP3    H121317   6.244   1.803   6.301
 7124TIP3    H221318   6.223   1.946   6.257
 7125TIP3   OH221319   1.916   6.667   2.318
 7125TIP3    H121320   1.921   6.605   2.391
 7125TIP3    H221321   2.007   6.683   2.293
 7126TIP3   OH221322   4.604   4.651   1.945
 7126TIP3    H121323   4.673   4.716   1.932
 7126TIP3    H221324   4.523   4.702   1.942
 7127TIP3   OH221325   3.423   3.306   4.348
 7127TIP3    H121326   3.475   3.228   4.330
 7127TIP3    H221327   3.469   3.377   4.304
 7128TIP3   OH221328   1.535   4.657   1.813
 7128TIP3    H121329   1.548   4.660   1.718
 7128TIP3    H221330   1.612   4.610   1.846
 7129TIP3   OH221331   1.940   3.334   2.593
 7129TIP3    H121332   1.936   3.429   2.602
 7129TIP3    H221333   2.032   3.312   2.604
 7130TIP3   OH221334   0.802   3.795   4.899
 7130TIP3    H121335   0.881   3.750   4.870
 7130TIP3    H221336   0.830   3.847   4.974
 7131TIP3   OH221337   0.954   7.801   2.691
 7131TIP3    H121338   0.985   7.766   2.607
 7131TIP3    H221339   1.032   7.801   2.746
 7132TIP3   OH221340   6.156   3.704   5.762
 7132TIP3    H121341   6.231   3.658   5.799
 7132TIP3    H221342   6.135   3.656   5.682
 7133TIP3   OH221343   3.859   4.765   3.345
 7133TIP3    H121344   3.806   4.809   3.279
 7133TIP3    H221345   3.798   4.709   3.392
 7134TIP3   OH221346   3.779   2.613   3.901
 7134TIP3    H121347   3.828   2.690   3.874
 7134TIP3    H221348   3.687   2.639   3.895
 7135TIP3   OH221349   8.015   2.963   2.284
 7135TIP3    H121350   8.091   2.994   2.334
 7135TIP3    H221351   8.017   3.014   2.203
 7136TIP3   OH221352   4.192   2.643   2.453
 7136TIP3    H121353   4.257   2.681   2.394
 7136TIP3    H221354   4.182   2.553   2.422
 7137TIP3   OH221355   1.614   3.113   1.998
 7137TIP3    H121356   1.640   3.130   2.088
 7137TIP3    H221357   1.520   3.133   1.996
 7138TIP3   OH221358   6.879   2.873   5.730
 7138TIP3    H121359   6.867   2.818   5.652
 7138TIP3    H221360   6.866   2.962   5.699
 7139TIP3   OH221361   5.485   0.892   0.754
 7139TIP3    H121362   5.477   0.983   0.783
 7139TIP3    H221363   5.491   0.898   0.658
 7140TIP3   OH221364   5.695   0.234   0.865
 7140TIP3    H121365   5.741   0.201   0.942
 7140TIP3    H221366   5.758   0.223   0.793
 7141TIP3   OH221367   5.860   3.386   1.284
 7141TIP3    H121368   5.924   3.319   1.307
 7141TIP3    H221369   5.775   3.341   1.290
 7142TIP3   OH221370   0.728   1.469   4.865
 7142TIP3    H121371   0.692   1.553   4.834
 7142TIP3    H221372   0.718   1.473   4.960
 7143TIP3   OH221373   7.858  -0.009   5.044
 7143TIP3    H121374   7.884  -0.058   5.121
 7143TIP3    H221375   7.812   0.068   5.078
 7144TIP3   OH221376   5.673   1.298   2.839
 7144TIP3    H121377   5.680   1.324   2.747
 7144TIP3    H221378   5.584   1.325   2.864
 7145TIP3   OH221379   2.907   1.457   1.674
 7145TIP3    H121380   3.002   1.462   1.680
 7145TIP3    H221381   2.890   1.414   1.590
 7146TIP3   OH221382   2.518   2.866   4.307
 7146TIP3    H121383   2.571   2.904   4.237
 7146TIP3    H221384   2.428   2.873   4.277
 7147TIP3   OH221385   7.714   3.652   5.408
 7147TIP3    H121386   7.692   3.736   5.367
 7147TIP3    H221387   7.805   3.636   5.382
 7148TIP3   OH221388   0.686   6.203   5.932
 7148TIP3    H121389   0.781   6.195   5.924
 7148TIP3    H221390   0.655   6.113   5.931
 7149TIP3   OH221391   4.232   0.670   6.652
 7149TIP3    H121392   4.213   0.576   6.653
 7149TIP3    H221393   4.231   0.696   6.744
 7150TIP3   OH221394   3.409   1.716   3.509
 7150TIP3    H121395   3.369   1.668   3.581
 7150TIP3    H221396   3.500   1.686   3.507
 7151TIP3   OH221397   6.492   1.029   0.056
 7151TIP3    H121398   6.434   0.974   0.109
 7151TIP3    H221399   6.433   1.085   0.006
 7152TIP3   OH221400   7.713   1.038   6.018
 7152TIP3    H121401   7.733   1.038   5.924
 7152TIP3    H221402   7.769   1.106   6.054
 7153TIP3   OH221403   6.564   6.584   5.023
 7153TIP3    H121404   6.563   6.508   5.081
 7153TIP3    H221405   6.489   6.637   5.051
 7154TIP3   OH221406   0.109   2.344   1.227
 7154TIP3    H121407   0.190   2.301   1.199
 7154TIP3    H221408   0.138   2.428   1.262
 7155TIP3   OH221409   8.138   1.757   0.161
 7155TIP3    H121410   8.088   1.739   0.081
 7155TIP3    H221411   8.226   1.725   0.142
 7156TIP3   OH221412   3.268   0.308   2.496
 7156TIP3    H121413   3.209   0.273   2.430
 7156TIP3    H221414   3.348   0.257   2.486
 7157TIP3   OH221415   6.829   6.995   5.103
 7157TIP3    H121416   6.864   7.064   5.046
 7157TIP3    H221417   6.877   6.916   5.076
 7158TIP3   OH221418   6.830   5.902   5.524
 7158TIP3    H121419   6.905   5.845   5.542
 7158TIP3    H221420   6.856   5.955   5.449
 7159TIP3   OH221421   5.002   2.783   0.238
 7159TIP3    H121422   5.098   2.776   0.246
 7159TIP3    H221423   4.988   2.819   0.150
 7160TIP3   OH221424   6.251   5.253   0.529
 7160TIP3    H121425   6.298   5.171   0.544
 7160TIP3    H221426   6.290   5.315   0.590
 7161TIP3   OH221427   5.775   1.594   4.435
 7161TIP3    H121428   5.699   1.537   4.451
 7161TIP3    H221429   5.738   1.669   4.389
 7162TIP3   OH221430   6.398   5.305   4.622
 7162TIP3    H121431   6.376   5.216   4.651
 7162TIP3    H221432   6.484   5.295   4.581
 7163TIP3   OH221433   7.863   4.577   6.544
 7163TIP3    H121434   7.941   4.538   6.583
 7163TIP3    H221435   7.792   4.555   6.605
 7164TIP3   OH221436   8.164   6.617   5.151
 7164TIP3    H121437   8.101   6.549   5.173
 7164TIP3    H221438   8.249   6.581   5.177
 7165TIP3   OH221439   3.773   2.672   1.037
 7165TIP3    H121440   3.786   2.623   0.957
 7165TIP3    H221441   3.680   2.665   1.055
 7166TIP3   OH221442   5.165   5.567   3.200
 7166TIP3    H121443   5.167   5.629   3.127
 7166TIP3    H221444   5.138   5.484   3.161
 7167TIP3   OH221445   4.986   1.367   3.204
 7167TIP3    H121446   5.052   1.393   3.140
 7167TIP3    H221447   4.984   1.272   3.200
 7168TIP3   OH221448   5.632   3.954   1.241
 7168TIP3    H121449   5.628   4.040   1.199
 7168TIP3    H221450   5.543   3.939   1.274
 7169TIP3   OH221451   0.408   5.922   3.144
 7169TIP3    H121452   0.487   5.946   3.097
 7169TIP3    H221453   0.434   5.922   3.236
 7170TIP3   OH221454   7.594   3.840   4.877
 7170TIP3    H121455   7.657   3.817   4.808
 7170TIP3    H221456   7.612   3.932   4.895
 7171TIP3   OH221457   1.302   4.429   0.494
 7171TIP3    H121458   1.366   4.366   0.460
 7171TIP3    H221459   1.336   4.515   0.467
 7172TIP3   OH221460   6.637   6.728   1.325
 7172TIP3    H121461   6.669   6.641   1.348
 7172TIP3    H221462   6.542   6.717   1.316
 7173TIP3   OH221463   4.347   4.215   5.787
 7173TIP3    H121464   4.422   4.184   5.737
 7173TIP3    H221465   4.345   4.160   5.865
 7174TIP3   OH221466   6.337   4.790   5.599
 7174TIP3    H121467   6.338   4.703   5.639
 7174TIP3    H221468   6.388   4.844   5.659
 7175TIP3   OH221469   6.989   7.516   1.873
 7175TIP3    H121470   6.952   7.439   1.917
 7175TIP3    H221471   7.079   7.492   1.854
 7176TIP3   OH221472   7.425   2.032   0.227
 7176TIP3    H121473   7.434   1.943   0.262
 7176TIP3    H221474   7.336   2.058   0.250
 7177TIP3   OH221475   3.269   0.868   2.770
 7177TIP3    H121476   3.232   0.897   2.853
 7177TIP3    H221477   3.215   0.793   2.744
 7178TIP3   OH221478   3.243   2.332   5.895
 7178TIP3    H121479   3.277   2.373   5.815
 7178TIP3    H221480   3.319   2.289   5.934
 7179TIP3   OH221481   8.018   3.826   1.258
 7179TIP3    H121482   7.985   3.839   1.169
 7179TIP3    H221483   7.942   3.796   1.308
 7180TIP3   OH221484   6.971   0.902   2.388
 7180TIP3    H121485   6.877   0.921   2.392
 7180TIP3    H221486   6.996   0.921   2.298
 7181TIP3   OH221487   8.105   6.154   1.392
 7181TIP3    H121488   8.062   6.075   1.361
 7181TIP3    H221489   8.175   6.170   1.328
 7182TIP3   OH221490   7.458   7.405   3.240
 7182TIP3    H121491   7.387   7.449   3.287
 7182TIP3    H221492   7.499   7.474   3.188
 7183TIP3   OH221493   3.843   6.696   5.276
 7183TIP3    H121494   3.922   6.649   5.248
 7183TIP3    H221495   3.781   6.682   5.204
 7184TIP3   OH221496   1.083   2.816   0.105
 7184TIP3    H121497   1.085   2.723   0.082
 7184TIP3    H221498   1.043   2.818   0.192
 7185TIP3   OH221499   5.105   0.950   2.121
 7185TIP3    H121500   5.034   0.905   2.075
 7185TIP3    H221501   5.118   1.031   2.073
 7186TIP3   OH221502   4.100   0.963   3.088
 7186TIP3    H121503   4.009   0.986   3.103
 7186TIP3    H221504   4.149   1.042   3.110
 7187TIP3   OH221505   5.665   2.343   0.277
 7187TIP3    H121506   5.570   2.332   0.281
 7187TIP3    H221507   5.697   2.300   0.356
 7188TIP3   OH221508   7.107   1.906   1.292
 7188TIP3    H121509   7.134   1.815   1.305
 7188TIP3    H221510   7.123   1.948   1.377
 7189TIP3   OH221511   8.287   4.881   0.633
 7189TIP3    H121512   8.312   4.911   0.546
 7189TIP3    H221513   8.354   4.917   0.692
 7190TIP3   OH221514   3.269   2.015   2.405
 7190TIP3    H121515   3.265   2.022   2.501
 7190TIP3    H221516   3.192   1.963   2.382
 7191TIP3   OH221517   3.764   3.055   0.188
 7191TIP3    H121518   3.752   3.039   0.282
 7191TIP3    H221519   3.841   3.003   0.165
 7192TIP3   OH221520   7.747   5.629   3.673
 7192TIP3    H121521   7.835   5.597   3.653
 7192TIP3    H221522   7.710   5.563   3.731
 7193TIP3   OH221523   4.591   6.719   6.750
 7193TIP3    H121524   4.668   6.698   6.802
 7193TIP3    H221525   4.568   6.638   6.705
 7194TIP3   OH221526   2.236   6.223   2.536
 7194TIP3    H121527   2.243   6.132   2.509
 7194TIP3    H221528   2.239   6.273   2.455
 7195TIP3   OH221529   2.682   2.176   1.863
 7195TIP3    H121530   2.587   2.166   1.864
 7195TIP3    H221531   2.705   2.203   1.952
 7196TIP3   OH221532   2.169   5.489   2.594
 7196TIP3    H121533   2.125   5.532   2.521
 7196TIP3    H221534   2.196   5.561   2.651
 7197TIP3   OH221535   1.372   1.583   5.252
 7197TIP3    H121536   1.411   1.668   5.270
 7197TIP3    H221537   1.372   1.539   5.337
 7198TIP3   OH221538   4.871   6.413   0.880
 7198TIP3    H121539   4.790   6.397   0.930
 7198TIP3    H221540   4.938   6.427   0.947
 7199TIP3   OH221541   7.761   4.977   5.093
 7199TIP3    H121542   7.700   5.043   5.061
 7199TIP3    H221543   7.847   5.006   5.062
 7200TIP3   OH221544   5.514   0.638   0.848
 7200TIP3    H121545   5.422   0.614   0.859
 7200TIP3    H221546   5.512   0.731   0.824
 7201TIP3   OH221547   6.086   6.169   1.236
 7201TIP3    H121548   6.144   6.171   1.159
 7201TIP3    H221549   6.023   6.239   1.221
 7202TIP3   OH221550   2.781   7.788   1.535
 7202TIP3    H121551   2.825   7.873   1.526
 7202TIP3    H221552   2.704   7.794   1.479
 7203TIP3   OH221553   1.055   7.720   4.358
 7203TIP3    H121554   1.129   7.764   4.317
 7203TIP3    H221555   1.087   7.694   4.444
 7204TIP3   OH221556   5.532   0.317   0.264
 7204TIP3    H121557   5.623   0.344   0.259
 7204TIP3    H221558   5.482   0.398   0.256
 7205TIP3   OH221559   7.096   4.228   6.219
 7205TIP3    H121560   7.130   4.142   6.194
 7205TIP3    H221561   7.023   4.243   6.159
 7206TIP3   OH221562   1.136   3.584   5.476
 7206TIP3    H121563   1.143   3.535   5.394
 7206TIP3    H221564   1.221   3.626   5.486
 7207TIP3   OH221565   5.675   6.362   5.402
 7207TIP3    H121566   5.684   6.267   5.394
 7207TIP3    H221567   5.655   6.377   5.494
 7208TIP3   OH221568   3.739   4.916   1.408
 7208TIP3    H121569   3.774   4.827   1.401
 7208TIP3    H221570   3.721   4.942   1.318
 7209TIP3   OH221571   3.095   4.224   5.577
 7209TIP3    H121572   3.045   4.216   5.496
 7209TIP3    H221573   3.183   4.194   5.553
 7210TIP3   OH221574   6.496   5.230   2.333
 7210TIP3    H121575   6.409   5.252   2.300
 7210TIP3    H221576   6.520   5.151   2.284
 7211TIP3   OH221577   6.487   2.197   4.727
 7211TIP3    H121578   6.556   2.147   4.771
 7211TIP3    H221579   6.432   2.130   4.685
 7212TIP3   OH221580   6.411   7.314   4.937
 7212TIP3    H121581   6.462   7.233   4.932
 7212TIP3    H221582   6.340   7.293   4.997
 7213TIP3   OH221583   7.772   5.214   4.189
 7213TIP3    H121584   7.741   5.197   4.100
 7213TIP3    H221585   7.695   5.247   4.235
 7214TIP3   OH221586   2.053   5.106   1.016
 7214TIP3    H121587   2.121   5.136   0.956
 7214TIP3    H221588   2.046   5.175   1.082
 7215TIP3   OH221589   8.241   5.409   1.958
 7215TIP3    H121590   8.149   5.410   1.984
 7215TIP3    H221591   8.264   5.501   1.946
 7216TIP3   OH221592   7.758   1.765   1.962
 7216TIP3    H121593   7.781   1.706   1.890
 7216TIP3    H221594   7.837   1.772   2.014
 7217TIP3   OH221595   0.629   4.273   6.018
 7217TIP3    H121596   0.547   4.280   6.066
 7217TIP3    H221597   0.612   4.207   5.951
 7218TIP3   OH221598   1.971   1.532   4.179
 7218TIP3    H121599   1.887   1.494   4.205
 7218TIP3    H221600   2.015   1.552   4.261
 7219TIP3   OH221601   7.337   1.662   5.859
 7219TIP3    H121602   7.327   1.588   5.918
 7219TIP3    H221603   7.412   1.711   5.893
 7220TIP3   OH221604   6.479   7.576   4.856
 7220TIP3    H121605   6.462   7.482   4.853
 7220TIP3    H221606   6.573   7.584   4.842
 7221TIP3   OH221607   0.361   5.638   3.094
 7221TIP3    H121608   0.310   5.718   3.079
 7221TIP3    H221609   0.443   5.653   3.047
 7222TIP3   OH221610   7.278   1.501   0.405
 7222TIP3    H121611   7.330   1.421   0.392
 7222TIP3    H221612   7.302   1.530   0.493
 7223TIP3   OH221613   2.803   7.736   6.721
 7223TIP3    H121614   2.753   7.720   6.800
 7223TIP3    H221615   2.737   7.745   6.652
 7224TIP3   OH221616   0.379   1.964   5.012
 7224TIP3    H121617   0.290   1.994   5.033
 7224TIP3    H221618   0.416   1.937   5.095
 7225TIP3   OH221619   7.107   2.600   5.274
 7225TIP3    H121620   7.165   2.625   5.346
 7225TIP3    H221621   7.123   2.506   5.262
 7226TIP3   OH221622   3.070   4.988   6.290
 7226TIP3    H121623   3.161   5.016   6.282
 7226TIP3    H221624   3.052   4.940   6.209
 7227TIP3   OH221625   8.249   2.127   3.051
 7227TIP3    H121626   8.284   2.090   3.132
 7227TIP3    H221627   8.266   2.221   3.059
 7228TIP3   OH221628   3.109   1.750   6.510
 7228TIP3    H121629   3.177   1.692   6.476
 7228TIP3    H221630   3.110   1.825   6.451
 7229TIP3   OH221631   0.410   6.253   1.319
 7229TIP3    H121632   0.447   6.173   1.282
 7229TIP3    H221633   0.323   6.227   1.350
 7230TIP3   OH221634   1.703   2.136   2.936
 7230TIP3    H121635   1.625   2.149   2.989
 7230TIP3    H221636   1.670   2.103   2.852
 7231TIP3   OH221637   5.157   7.327   1.277
 7231TIP3    H121638   5.154   7.231   1.273
 7231TIP3    H221639   5.156   7.347   1.371
 7232TIP3   OH221640   1.129   0.526   5.679
 7232TIP3    H121641   1.153   0.610   5.718
 7232TIP3    H221642   1.041   0.509   5.714
 7233TIP3   OH221643   2.845   5.653   0.435
 7233TIP3    H121644   2.809   5.662   0.346
 7233TIP3    H221645   2.767   5.644   0.491
 7234TIP3   OH221646   5.975   6.819   5.325
 7234TIP3    H121647   5.947   6.832   5.234
 7234TIP3    H221648   5.939   6.734   5.349
 7235TIP3   OH221649   1.901   5.525   3.320
 7235TIP3    H121650   1.989   5.490   3.322
 7235TIP3    H221651   1.844   5.450   3.337
 7236TIP3   OH221652   0.322   2.149   3.206
 7236TIP3    H121653   0.290   2.239   3.206
 7236TIP3    H221654   0.243   2.095   3.199
 7237TIP3   OH221655   2.928   3.681   4.472
 7237TIP3    H121656   2.992   3.741   4.509
 7237TIP3    H221657   2.977   3.629   4.409
 7238TIP3   OH221658   1.157   6.038   4.245
 7238TIP3    H121659   1.246   6.067   4.227
 7238TIP3    H221660   1.165   5.977   4.318
 7239TIP3   OH221661   0.716   4.148   3.416
 7239TIP3    H121662   0.740   4.198   3.338
 7239TIP3    H221663   0.789   4.087   3.428
 7240TIP3   OH221664   1.490   4.679   3.439
 7240TIP3    H121665   1.420   4.640   3.493
 7240TIP3    H221666   1.520   4.608   3.383
 7241TIP3   OH221667   3.670   1.077   2.561
 7241TIP3    H121668   3.605   1.084   2.631
 7241TIP3    H221669   3.754   1.085   2.605
 7242TIP3   OH221670   5.422   3.109   3.887
 7242TIP3    H121671   5.486   3.051   3.927
 7242TIP3    H221672   5.442   3.196   3.922
 7243TIP3   OH221673   2.619   6.095   6.067
 7243TIP3    H121674   2.570   6.103   5.985
 7243TIP3    H221675   2.709   6.117   6.044
 7244TIP3   OH221676   5.457   2.806   1.366
 7244TIP3    H121677   5.480   2.867   1.436
 7244TIP3    H221678   5.542   2.775   1.333
 7245TIP3   OH221679   6.650   5.737   5.291
 7245TIP3    H121680   6.741   5.713   5.277
 7245TIP3    H221681   6.626   5.693   5.373
 7246TIP3   OH221682   4.253   6.000   4.718
 7246TIP3    H121683   4.343   5.991   4.688
 7246TIP3    H221684   4.211   5.917   4.695
 7247TIP3   OH221685   6.060   7.209   6.713
 7247TIP3    H121686   6.073   7.131   6.768
 7247TIP3    H221687   6.145   7.252   6.712
 7248TIP3   OH221688   7.561   4.267   2.661
 7248TIP3    H121689   7.523   4.183   2.636
 7248TIP3    H221690   7.616   4.291   2.586
 7249TIP3   OH221691   2.957   3.507   1.058
 7249TIP3    H121692   2.913   3.423   1.046
 7249TIP3    H221693   2.975   3.512   1.151
 7250TIP3   OH221694   5.586   4.224   1.529
 7250TIP3    H121695   5.608   4.139   1.491
 7250TIP3    H221696   5.536   4.269   1.461
 7251TIP3   OH221697   7.410   6.630   0.426
 7251TIP3    H121698   7.498   6.598   0.443
 7251TIP3    H221699   7.418   6.725   0.426
 7252TIP3   OH221700   2.330   0.036   3.178
 7252TIP3    H121701   2.260   0.021   3.240
 7252TIP3    H221702   2.387   0.100   3.220
 7253TIP3   OH221703   2.606   0.947   2.069
 7253TIP3    H121704   2.595   0.956   1.974
 7253TIP3    H221705   2.695   0.977   2.085
 7254TIP3   OH221706   6.002   6.929   2.077
 7254TIP3    H121707   6.089   6.954   2.045
 7254TIP3    H221708   5.950   6.917   1.998
 7255TIP3   OH221709   6.315   3.503   1.021
 7255TIP3    H121710   6.276   3.468   0.941
 7255TIP3    H221711   6.245   3.497   1.087
 7256TIP3   OH221712   4.388   2.311   4.769
 7256TIP3    H121713   4.332   2.372   4.817
 7256TIP3    H221714   4.337   2.231   4.763
 7257TIP3   OH221715   4.461   3.968   0.429
 7257TIP3    H121716   4.544   3.996   0.390
 7257TIP3    H221717   4.418   3.919   0.359
 7258TIP3   OH221718   4.902   7.506   0.701
 7258TIP3    H121719   4.827   7.447   0.709
 7258TIP3    H221720   4.925   7.504   0.608
 7259TIP3   OH221721   5.030   4.690   2.934
 7259TIP3    H121722   4.986   4.737   2.863
 7259TIP3    H221723   4.970   4.699   3.009
 7260TIP3   OH221724   6.407   4.200   4.523
 7260TIP3    H121725   6.375   4.233   4.607
 7260TIP3    H221726   6.502   4.190   4.537
 7261TIP3   OH221727   7.101   6.825   3.166
 7261TIP3    H121728   7.153   6.871   3.233
 7261TIP3    H221729   7.148   6.743   3.151
 7262TIP3   OH221730   5.317   6.492   6.473
 7262TIP3    H121731   5.306   6.550   6.397
 7262TIP3    H221732   5.251   6.521   6.535
 7263TIP3   OH221733   7.597   3.220   6.112
 7263TIP3    H121734   7.544   3.293   6.081
 7263TIP3    H221735   7.594   3.156   6.041
 7264TIP3   OH221736   7.485   5.626   1.858
 7264TIP3    H121737   7.444   5.712   1.863
 7264TIP3    H221738   7.526   5.623   1.771
 7265TIP3   OH221739   4.798   4.760   0.373
 7265TIP3    H121740   4.800   4.817   0.296
 7265TIP3    H221741   4.889   4.732   0.384
 7266TIP3   OH221742   7.781   4.980   2.526
 7266TIP3    H121743   7.762   4.991   2.433
 7266TIP3    H221744   7.816   4.891   2.533
 7267TIP3   OH221745   3.328   3.651   2.785
 7267TIP3    H121746   3.368   3.721   2.836
 7267TIP3    H221747   3.302   3.585   2.849
 7268TIP3   OH221748   0.139   4.950   0.827
 7268TIP3    H121749   0.098   4.870   0.860
 7268TIP3    H221750   0.194   4.981   0.900
 7269TIP3   OH221751   4.665   5.283   2.246
 7269TIP3    H121752   4.741   5.291   2.188
 7269TIP3    H221753   4.703   5.264   2.332
 7270TIP3   OH221754   7.677   6.567   0.416
 7270TIP3    H121755   7.730   6.520   0.351
 7270TIP3    H221756   7.653   6.501   0.480
 7271TIP3   OH221757   4.949   4.743   0.758
 7271TIP3    H121758   4.865   4.698   0.766
 7271TIP3    H221759   4.927   4.831   0.731
 7272TIP3   OH221760   2.578   2.418   4.831
 7272TIP3    H121761   2.514   2.438   4.763
 7272TIP3    H221762   2.636   2.354   4.791
 7273TIP3   OH221763   1.547   5.844   5.237
 7273TIP3    H121764   1.464   5.800   5.216
 7273TIP3    H221765   1.546   5.924   5.185
 7274TIP3   OH221766   8.040   5.839   1.592
 7274TIP3    H121767   7.944   5.841   1.595
 7274TIP3    H221768   8.062   5.875   1.506
 7275TIP3   OH221769   2.000   0.993   0.640
 7275TIP3    H121770   1.960   1.036   0.565
 7275TIP3    H221771   1.948   0.914   0.653
 7276TIP3   OH221772   2.191   5.947   3.253
 7276TIP3    H121773   2.266   5.990   3.212
 7276TIP3    H221774   2.142   6.018   3.295
 7277TIP3   OH221775   1.144   2.355   2.815
 7277TIP3    H121776   1.083   2.289   2.847
 7277TIP3    H221777   1.230   2.327   2.848
 7278TIP3   OH221778   7.460   1.261   4.073
 7278TIP3    H121779   7.416   1.234   4.154
 7278TIP3    H221780   7.428   1.200   4.007
 7279TIP3   OH221781   2.617   5.714   0.979
 7279TIP3    H121782   2.656   5.643   1.030
 7279TIP3    H221783   2.692   5.759   0.941
 7280TIP3   OH221784   7.063   4.146   3.068
 7280TIP3    H121785   7.115   4.164   3.146
 7280TIP3    H221786   6.986   4.099   3.100
 7281TIP3   OH221787   4.042   2.760   2.958
 7281TIP3    H121788   4.094   2.782   2.880
 7281TIP3    H221789   3.964   2.717   2.924
 7282TIP3   OH221790   3.788   2.856   3.416
 7282TIP3    H121791   3.804   2.832   3.325
 7282TIP3    H221792   3.768   2.773   3.460
 7283TIP3   OH221793   5.670   1.715   2.699
 7283TIP3    H121794   5.738   1.693   2.763
 7283TIP3    H221795   5.607   1.644   2.707
 7284TIP3   OH221796   0.909   1.676   1.647
 7284TIP3    H121797   0.832   1.716   1.688
 7284TIP3    H221798   0.875   1.633   1.569
 7285TIP3   OH221799   2.200   0.926   0.955
 7285TIP3    H121800   2.251   0.886   0.885
 7285TIP3    H221801   2.109   0.909   0.931
 7286TIP3   OH221802   2.021   2.894   3.500
 7286TIP3    H121803   2.007   2.983   3.469
 7286TIP3    H221804   2.020   2.901   3.596
 7287TIP3   OH221805   5.348   5.934   6.389
 7287TIP3    H121806   5.309   5.861   6.437
 7287TIP3    H221807   5.338   6.010   6.447
 7288TIP3   OH221808   4.038   4.799   2.845
 7288TIP3    H121809   4.086   4.762   2.771
 7288TIP3    H221810   4.006   4.883   2.814
 7289TIP3   OH221811   0.272   5.206   6.631
 7289TIP3    H121812   0.364   5.182   6.643
 7289TIP3    H221813   0.226   5.123   6.627
 7290TIP3   OH221814   2.809   4.917   5.085
 7290TIP3    H121815   2.848   4.970   5.015
 7290TIP3    H221816   2.839   4.828   5.067
 7291TIP3   OH221817   0.437   3.796   3.259
 7291TIP3    H121818   0.526   3.779   3.229
 7291TIP3    H221819   0.441   3.884   3.296
 7292TIP3   OH221820   7.452   4.089   2.893
 7292TIP3    H121821   7.381   4.152   2.907
 7292TIP3    H221822   7.527   4.143   2.871
 7293TIP3   OH221823   3.955   0.266   1.184
 7293TIP3    H121824   4.014   0.333   1.149
 7293TIP3    H221825   3.868   0.299   1.164
 7294TIP3   OH221826   0.655   5.264   2.653
 7294TIP3    H121827   0.586   5.309   2.701
 7294TIP3    H221828   0.629   5.172   2.652
 7295TIP3   OH221829   6.160   0.998   5.708
 7295TIP3    H121830   6.121   0.952   5.783
 7295TIP3    H221831   6.148   0.938   5.634
 7296TIP3   OH221832   3.928   2.706   6.026
 7296TIP3    H121833   4.000   2.732   5.968
 7296TIP3    H221834   3.894   2.626   5.987
 7297TIP3   OH221835   0.235   3.409   4.162
 7297TIP3    H121836   0.197   3.326   4.191
 7297TIP3    H221837   0.241   3.462   4.241
 7298TIP3   OH221838   2.980   1.917   0.042
 7298TIP3    H121839   2.968   1.864  -0.036
 7298TIP3    H221840   2.980   2.007   0.010
 7299TIP3   OH221841   0.883   6.837   3.826
 7299TIP3    H121842   0.872   6.763   3.767
 7299TIP3    H221843   0.802   6.839   3.877
 7300TIP3   OH221844   2.749   2.285   6.005
 7300TIP3    H121845   2.801   2.280   5.925
 7300TIP3    H221846   2.811   2.315   6.072
 7301TIP3   OH221847   1.197   6.861   2.092
 7301TIP3    H121848   1.250   6.820   2.160
 7301TIP3    H221849   1.176   6.789   2.032
 7302TIP3   OH221850   3.782   5.907   2.099
 7302TIP3    H121851   3.689   5.931   2.102
 7302TIP3    H221852   3.809   5.904   2.190
 7303TIP3   OH221853   1.490   0.101   4.904
 7303TIP3    H121854   1.445   0.167   4.957
 7303TIP3    H221855   1.502   0.143   4.819
 7304TIP3   OH221856   6.181   1.882   6.710
 7304TIP3    H121857   6.184   1.838   6.794
 7304TIP3    H221858   6.243   1.834   6.655
 7305TIP3   OH221859   7.934   4.012   2.524
 7305TIP3    H121860   7.890   4.011   2.439
 7305TIP3    H221861   8.020   4.051   2.505
 7306TIP3   OH221862   2.747   1.798   1.476
 7306TIP3    H121863   2.728   1.879   1.429
 7306TIP3    H221864   2.842   1.796   1.484
 7307TIP3   OH221865   5.104   4.077   5.193
 7307TIP3    H121866   5.186   4.055   5.238
 7307TIP3    H221867   5.131   4.097   5.103
 7308TIP3   OH221868   6.815   3.340   1.166
 7308TIP3    H121869   6.856   3.398   1.102
 7308TIP3    H221870   6.740   3.389   1.199
 7309TIP3   OH221871   7.083   3.160   1.857
 7309TIP3    H121872   7.124   3.175   1.942
 7309TIP3    H221873   7.146   3.105   1.809
 7310TIP3   OH221874   5.811   6.912   3.237
 7310TIP3    H121875   5.871   6.839   3.254
 7310TIP3    H221876   5.823   6.971   3.311
 7311TIP3   OH221877   5.505   2.037   3.442
 7311TIP3    H121878   5.581   2.014   3.496
 7311TIP3    H221879   5.532   2.019   3.352
 7312TIP3   OH221880   6.507   4.938   3.014
 7312TIP3    H121881   6.518   4.857   3.064
 7312TIP3    H221882   6.563   4.926   2.936
 7313TIP3   OH221883   5.842   2.018   0.152
 7313TIP3    H121884   5.818   1.984   0.066
 7313TIP3    H221885   5.761   2.017   0.202
 7314TIP3   OH221886   2.705   5.779   4.590
 7314TIP3    H121887   2.771   5.832   4.546
 7314TIP3    H221888   2.710   5.804   4.682
 7315TIP3   OH221889   0.612   4.850   4.848
 7315TIP3    H121890   0.670   4.774   4.855
 7315TIP3    H221891   0.611   4.870   4.755
 7316TIP3   OH221892   1.345   5.455   4.257
 7316TIP3    H121893   1.288   5.511   4.204
 7316TIP3    H221894   1.417   5.432   4.199
 7317TIP3   OH221895   4.305   6.660   4.444
 7317TIP3    H121896   4.226   6.655   4.390
 7317TIP3    H221897   4.313   6.753   4.467
 7318TIP3   OH221898   5.921   7.535   3.954
 7318TIP3    H121899   6.006   7.567   3.925
 7318TIP3    H221900   5.885   7.607   4.006
 7319TIP3   OH221901   7.150   6.764   3.732
 7319TIP3    H121902   7.158   6.858   3.748
 7319TIP3    H221903   7.056   6.747   3.740
 7320TIP3   OH221904   2.138   6.233   5.027
 7320TIP3    H121905   2.202   6.229   4.956
 7320TIP3    H221906   2.134   6.325   5.050
 7321TIP3   OH221907   4.637   0.381   5.688
 7321TIP3    H121908   4.567   0.440   5.660
 7321TIP3    H221909   4.687   0.364   5.608
 7322TIP3   OH221910   3.004   6.870   5.738
 7322TIP3    H121911   3.027   6.828   5.655
 7322TIP3    H221912   2.908   6.868   5.739
 7323TIP3   OH221913   0.770   5.961   4.881
 7323TIP3    H121914   0.822   5.954   4.801
 7323TIP3    H221915   0.825   5.922   4.949
 7324TIP3   OH221916   0.991   7.678   0.665
 7324TIP3    H121917   1.003   7.588   0.635
 7324TIP3    H221918   0.897   7.687   0.678
 7325TIP3   OH221919   0.623   3.743   3.825
 7325TIP3    H121920   0.640   3.667   3.880
 7325TIP3    H221921   0.597   3.706   3.741
 7326TIP3   OH221922   6.134   1.902   5.207
 7326TIP3    H121923   6.113   1.993   5.184
 7326TIP3    H221924   6.108   1.894   5.299
 7327TIP3   OH221925   6.213   3.664   6.468
 7327TIP3    H121926   6.284   3.603   6.449
 7327TIP3    H221927   6.242   3.747   6.429
 7328TIP3   OH221928   5.972   1.025   4.364
 7328TIP3    H121929   6.016   1.108   4.346
 7328TIP3    H221930   5.926   1.003   4.283
 7329TIP3   OH221931   2.030   5.174   2.344
 7329TIP3    H121932   1.958   5.134   2.393
 7329TIP3    H221933   2.095   5.195   2.411
 7330TIP3   OH221934   4.513   2.265   5.327
 7330TIP3    H121935   4.498   2.302   5.239
 7330TIP3    H221936   4.501   2.171   5.316
 7331TIP3   OH221937   4.189   6.793   1.249
 7331TIP3    H121938   4.218   6.829   1.166
 7331TIP3    H221939   4.267   6.750   1.285
 7332TIP3   OH221940   7.446   0.977   4.636
 7332TIP3    H121941   7.467   1.003   4.546
 7332TIP3    H221942   7.420   0.885   4.629
 7333TIP3   OH221943   8.014   5.747   6.349
 7333TIP3    H121944   7.958   5.784   6.417
 7333TIP3    H221945   7.963   5.753   6.268
 7334TIP3   OH221946   7.132   3.985   1.481
 7334TIP3    H121947   7.042   3.977   1.448
 7334TIP3    H221948   7.186   3.943   1.415
 7335TIP3   OH221949   5.899   0.904   5.413
 7335TIP3    H121950   5.878   0.825   5.463
 7335TIP3    H221951   5.993   0.914   5.422
 7336TIP3   OH221952   6.002   3.510   3.723
 7336TIP3    H121953   5.933   3.560   3.767
 7336TIP3    H221954   6.024   3.563   3.646
 7337TIP3   OH221955   8.196   0.400   5.816
 7337TIP3    H121956   8.221   0.418   5.725
 7337TIP3    H221957   8.138   0.473   5.839
 7338TIP3   OH221958   4.375   4.417   0.999
 7338TIP3    H121959   4.317   4.345   1.023
 7338TIP3    H221960   4.315   4.488   0.973
 7339TIP3   OH221961   4.021   2.444   4.366
 7339TIP3    H121962   3.965   2.445   4.288
 7339TIP3    H221963   4.022   2.352   4.394
 7340TIP3   OH221964   6.876   1.675   3.791
 7340TIP3    H121965   6.895   1.650   3.700
 7340TIP3    H221966   6.903   1.767   3.796
 7341TIP3   OH221967   7.443   0.564   6.481
 7341TIP3    H121968   7.465   0.615   6.403
 7341TIP3    H221969   7.361   0.520   6.458
 7342TIP3   OH221970   2.503   0.014   2.959
 7342TIP3    H121971   2.472   0.083   2.901
 7342TIP3    H221972   2.440   0.012   3.031
 7343TIP3   OH221973   3.566   0.978   6.781
 7343TIP3    H121974   3.607   0.944   6.701
 7343TIP3    H221975   3.474   0.951   6.774
 7344TIP3   OH221976   2.919   0.822   1.897
 7344TIP3    H121977   2.917   0.917   1.907
 7344TIP3    H221978   2.833   0.799   1.863
 7345TIP3   OH221979   7.927   1.321   1.647
 7345TIP3    H121980   7.890   1.409   1.644
 7345TIP3    H221981   8.013   1.329   1.605
 7346TIP3   OH221982   5.719   0.277   3.167
 7346TIP3    H121983   5.761   0.363   3.161
 7346TIP3    H221984   5.767   0.222   3.105
 7347TIP3   OH221985   0.333   1.043   4.354
 7347TIP3    H121986   0.316   1.109   4.287
 7347TIP3    H221987   0.266   0.976   4.339
 7348TIP3   OH221988   2.841   5.164   2.090
 7348TIP3    H121989   2.901   5.231   2.059
 7348TIP3    H221990   2.890   5.118   2.159
 7349TIP3   OH221991   8.290   4.692   2.672
 7349TIP3    H121992   8.248   4.743   2.603
 7349TIP3    H221993   8.224   4.686   2.741
 7350TIP3   OH221994   0.624   0.847   6.152
 7350TIP3    H121995   0.542   0.892   6.132
 7350TIP3    H221996   0.605   0.754   6.137
 7351TIP3   OH221997   4.117   0.748   3.877
 7351TIP3    H121998   4.209   0.740   3.899
 7351TIP3    H221999   4.077   0.665   3.904
 7352TIP3   OH222000   5.718   6.719   2.928
 7352TIP3    H122001   5.674   6.657   2.986
 7352TIP3    H222002   5.748   6.666   2.855
 7353TIP3   OH222003   7.059   0.400   3.538
 7353TIP3    H122004   7.068   0.483   3.491
 7353TIP3    H222005   6.969   0.373   3.521
 7354TIP3   OH222006   4.455   3.949   6.672
 7354TIP3    H122007   4.429   3.951   6.764
 7354TIP3    H222008   4.512   4.025   6.661
 7355TIP3   OH222009   0.247   4.817   3.212
 7355TIP3    H122010   0.327   4.783   3.252
 7355TIP3    H222011   0.266   4.909   3.196
 7356TIP3   OH222012   1.328   1.290   4.124
 7356TIP3    H122013   1.369   1.207   4.147
 7356TIP3    H222014   1.234   1.270   4.125
 7357TIP3   OH222015   4.014   6.126   5.098
 7357TIP3    H122016   3.976   6.051   5.053
 7357TIP3    H222017   3.985   6.117   5.189
 7358TIP3   OH222018   3.166   7.525   0.803
 7358TIP3    H122019   3.165   7.495   0.894
 7358TIP3    H222020   3.105   7.598   0.802
 7359TIP3   OH222021   5.857   3.918   5.206
 7359TIP3    H122022   5.769   3.925   5.171
 7359TIP3    H222023   5.847   3.862   5.284
 7360TIP3   OH222024   6.529   4.824   2.752
 7360TIP3    H122025   6.613   4.852   2.716
 7360TIP3    H222026   6.550   4.747   2.805
 7361TIP3   OH222027   7.669   2.457   3.914
 7361TIP3    H122028   7.703   2.425   3.831
 7361TIP3    H222029   7.727   2.530   3.938
 7362TIP3   OH222030   3.987   6.415   2.461
 7362TIP3    H122031   4.034   6.338   2.430
 7362TIP3    H222032   4.010   6.422   2.554
 7363TIP3   OH222033   3.865   4.240   4.822
 7363TIP3    H122034   3.802   4.305   4.854
 7363TIP3    H222035   3.831   4.215   4.736
 7364TIP3   OH222036   5.013   3.476   1.541
 7364TIP3    H122037   5.050   3.448   1.625
 7364TIP3    H222038   4.926   3.438   1.539
 7365TIP3   OH222039   8.155   3.491   1.974
 7365TIP3    H122040   8.077   3.440   1.953
 7365TIP3    H222041   8.164   3.552   1.900
 7366TIP3   OH222042   6.447   7.669   2.799
 7366TIP3    H122043   6.420   7.649   2.888
 7366TIP3    H222044   6.523   7.726   2.809
 7367TIP3   OH222045   6.734   5.581   6.263
 7367TIP3    H122046   6.756   5.522   6.335
 7367TIP3    H222047   6.676   5.529   6.207
 7368TIP3   OH222048   8.058   0.191   6.119
 7368TIP3    H122049   8.093   0.271   6.158
 7368TIP3    H222050   8.058   0.128   6.191
 7369TIP3   OH222051   6.096   4.432   1.046
 7369TIP3    H122052   6.037   4.368   1.085
 7369TIP3    H222053   6.136   4.386   0.972
 7370TIP3   OH222054   0.104   6.354   6.469
 7370TIP3    H122055   0.095   6.278   6.411
 7370TIP3    H222056   0.026   6.407   6.451
 7371TIP3   OH222057   6.874   2.574   4.203
 7371TIP3    H122058   6.924   2.522   4.141
 7371TIP3    H222059   6.873   2.662   4.166
 7372TIP3   OH222060   2.506   3.164   1.162
 7372TIP3    H122061   2.459   3.177   1.080
 7372TIP3    H222062   2.551   3.247   1.178
 7373TIP3   OH222063   6.193   1.424   6.246
 7373TIP3    H122064   6.156   1.344   6.207
 7373TIP3    H222065   6.132   1.447   6.315
 7374TIP3   OH222066   1.242   0.858   5.429
 7374TIP3    H122067   1.266   0.775   5.470
 7374TIP3    H222068   1.280   0.925   5.486
 7375TIP3   OH222069   3.902   7.283   6.599
 7375TIP3    H122070   3.845   7.207   6.585
 7375TIP3    H222071   3.991   7.248   6.592
 7376TIP3   OH222072   1.492   6.446   6.300
 7376TIP3    H122073   1.501   6.401   6.216
 7376TIP3    H222074   1.559   6.515   6.298
 7377TIP3   OH222075   3.004   4.096   0.414
 7377TIP3    H122076   2.929   4.154   0.401
 7377TIP3    H222077   3.076   4.139   0.368
 7378TIP3   OH222078   6.049   1.010   2.168
 7378TIP3    H122079   6.018   0.937   2.221
 7378TIP3    H222080   6.140   1.021   2.194
 7379TIP3   OH222081   2.784   4.583   6.335
 7379TIP3    H122082   2.762   4.589   6.242
 7379TIP3    H222083   2.721   4.522   6.371
 7380TIP3   OH222084   4.382   5.451   4.854
 7380TIP3    H122085   4.374   5.403   4.937
 7380TIP3    H222086   4.475   5.444   4.831
 7381TIP3   OH222087   6.740   0.093   1.513
 7381TIP3    H122088   6.819   0.144   1.531
 7381TIP3    H222089   6.759   0.050   1.429
 7382TIP3   OH222090   4.600   0.057   6.329
 7382TIP3    H122091   4.646   0.106   6.260
 7382TIP3    H222092   4.661   0.055   6.402
 7383TIP3   OH222093   2.814   5.327   6.713
 7383TIP3    H122094   2.750   5.257   6.724
 7383TIP3    H222095   2.894   5.283   6.685
 7384TIP3   OH222096   4.984   3.155   6.061
 7384TIP3    H122097   4.916   3.180   6.123
 7384TIP3    H222098   5.030   3.236   6.042
 7385TIP3   OH222099   1.972   2.814   2.539
 7385TIP3    H122100   1.897   2.790   2.484
 7385TIP3    H222101   1.961   2.908   2.555
 7386TIP3   OH222102   5.698   7.688   4.357
 7386TIP3    H122103   5.606   7.712   4.367
 7386TIP3    H222104   5.702   7.598   4.390
 7387TIP3   OH222105   0.453   5.598   1.569
 7387TIP3    H122106   0.474   5.647   1.648
 7387TIP3    H222107   0.529   5.541   1.554
 7388TIP3   OH222108   0.008   4.881   0.313
 7388TIP3    H122109   0.032   4.968   0.283
 7388TIP3    H222110   0.011   4.826   0.235
 7389TIP3   OH222111   6.374   0.609   0.149
 7389TIP3    H122112   6.344   0.570   0.067
 7389TIP3    H222113   6.354   0.702   0.141
 7390TIP3   OH222114   2.814   3.014   4.806
 7390TIP3    H122115   2.769   3.089   4.768
 7390TIP3    H222116   2.856   2.971   4.731
 7391TIP3   OH222117   1.235   2.400   1.254
 7391TIP3    H122118   1.293   2.365   1.322
 7391TIP3    H222119   1.157   2.346   1.259
 7392TIP3   OH222120   5.581   6.875   1.082
 7392TIP3    H122121   5.516   6.809   1.059
 7392TIP3    H222122   5.607   6.852   1.172
 7393TIP3   OH222123   1.472   5.443   3.845
 7393TIP3    H122124   1.412   5.516   3.859
 7393TIP3    H222125   1.418   5.365   3.857
 7394TIP3   OH222126   0.798   2.713   5.547
 7394TIP3    H122127   0.823   2.625   5.574
 7394TIP3    H222128   0.868   2.770   5.580
 7395TIP3   OH222129   6.447   3.809   1.981
 7395TIP3    H122130   6.539   3.799   1.957
 7395TIP3    H222131   6.421   3.893   1.943
 7396TIP3   OH222132   1.433   5.438   2.195
 7396TIP3    H122133   1.368   5.497   2.234
 7396TIP3    H222134   1.508   5.444   2.254
 7397TIP3   OH222135   3.816   2.347   3.078
 7397TIP3    H122136   3.890   2.340   3.138
 7397TIP3    H222137   3.741   2.315   3.129
 7398TIP3   OH222138   8.086   3.342   5.032
 7398TIP3    H122139   7.997   3.377   5.027
 7398TIP3    H222140   8.142   3.415   5.006
 7399TIP3   OH222141   4.150   0.869   2.377
 7399TIP3    H122142   4.060   0.883   2.349
 7399TIP3    H222143   4.188   0.957   2.383
 7400TIP3   OH222144   6.483   3.279   3.385
 7400TIP3    H122145   6.516   3.368   3.380
 7400TIP3    H222146   6.410   3.276   3.323
 7401TIP3   OH222147   7.596   1.642   5.947
 7401TIP3    H122148   7.599   1.642   6.043
 7401TIP3    H222149   7.668   1.583   5.922
 7402TIP3   OH222150   4.831   2.462   4.677
 7402TIP3    H122151   4.803   2.485   4.588
 7402TIP3    H222152   4.918   2.425   4.666
 7403TIP3   OH222153   8.117   2.488   1.536
 7403TIP3    H122154   8.023   2.476   1.546
 7403TIP3    H222155   8.143   2.425   1.468
 7404TIP3   OH222156   6.604   0.471   6.766
 7404TIP3    H122157   6.642   0.481   6.679
 7404TIP3    H222158   6.677   0.489   6.826
 7405TIP3   OH222159   5.550   2.189   4.982
 7405TIP3    H122160   5.555   2.259   5.046
 7405TIP3    H222161   5.639   2.153   4.979
 7406TIP3   OH222162   8.211   4.647   1.616
 7406TIP3    H122163   8.256   4.713   1.668
 7406TIP3    H222164   8.229   4.671   1.526
 7407TIP3   OH222165   2.965   0.068   3.236
 7407TIP3    H122166   2.893   0.042   3.179
 7407TIP3    H222167   2.938   0.041   3.323
 7408TIP3   OH222168   3.404   4.388   5.882
 7408TIP3    H122169   3.329   4.372   5.939
 7408TIP3    H222170   3.457   4.452   5.930
 7409TIP3   OH222171   1.793   3.209   5.386
 7409TIP3    H122172   1.739   3.231   5.462
 7409TIP3    H222173   1.879   3.191   5.423
 7410TIP3   OH222174   7.332   1.861   1.645
 7410TIP3    H122175   7.424   1.885   1.657
 7410TIP3    H222176   7.284   1.928   1.692
 7411TIP3   OH222177   1.399   2.894   5.845
 7411TIP3    H122178   1.440   2.981   5.841
 7411TIP3    H222179   1.313   2.906   5.804
 7412TIP3   OH222180   6.529   4.009   4.141
 7412TIP3    H122181   6.594   3.939   4.135
 7412TIP3    H222182   6.470   3.981   4.211
 7413TIP3   OH222183   1.823   0.879   3.031
 7413TIP3    H122184   1.842   0.916   3.117
 7413TIP3    H222185   1.837   0.952   2.970
 7414TIP3   OH222186   8.038   1.732   2.285
 7414TIP3    H122187   8.039   1.641   2.257
 7414TIP3    H222188   8.043   1.782   2.204
 7415TIP3   OH222189   5.170   7.357   3.177
 7415TIP3    H122190   5.096   7.346   3.118
 7415TIP3    H222191   5.136   7.411   3.249
 7416TIP3   OH222192   1.674   5.050   1.108
 7416TIP3    H122193   1.586   5.063   1.073
 7416TIP3    H222194   1.732   5.077   1.037
 7417TIP3   OH222195   2.039   1.484   4.455
 7417TIP3    H122196   2.068   1.433   4.531
 7417TIP3    H222197   1.977   1.547   4.491
 7418TIP3   OH222198   7.119   0.718   4.607
 7418TIP3    H122199   7.142   0.680   4.691
 7418TIP3    H222200   7.165   0.664   4.543
 7419TIP3   OH222201   1.354   3.764   4.322
 7419TIP3    H122202   1.350   3.673   4.353
 7419TIP3    H222203   1.372   3.757   4.229
 7420TIP3   OH222204   1.124   1.167   1.286
 7420TIP3    H122205   1.183   1.241   1.279
 7420TIP3    H222206   1.073   1.184   1.366
 7421TIP3   OH222207   1.977   7.678   1.668
 7421TIP3    H122208   1.903   7.698   1.610
 7421TIP3    H222209   1.950   7.598   1.714
 7422TIP3   OH222210   7.327   5.483   3.571
 7422TIP3    H122211   7.383   5.523   3.505
 7422TIP3    H222212   7.243   5.526   3.560
 7423TIP3   OH222213   3.774   1.669   0.419
 7423TIP3    H122214   3.720   1.740   0.384
 7423TIP3    H222215   3.713   1.614   0.467
 7424TIP3   OH222216   4.943   6.228   6.263
 7424TIP3    H122217   4.929   6.177   6.183
 7424TIP3    H222218   4.909   6.315   6.243
 7425TIP3   OH222219   7.348   1.005   2.089
 7425TIP3    H122220   7.385   1.084   2.050
 7425TIP3    H222221   7.279   1.037   2.147
 7426TIP3   OH222222   7.767   5.839   4.757
 7426TIP3    H122223   7.835   5.869   4.817
 7426TIP3    H222224   7.797   5.752   4.729
 7427TIP3   OH222225   3.985   5.214   2.464
 7427TIP3    H122226   4.055   5.276   2.445
 7427TIP3    H222227   4.029   5.129   2.469
 7428TIP3   OH222228   1.847   2.628   3.580
 7428TIP3    H122229   1.861   2.674   3.663
 7428TIP3    H222230   1.824   2.696   3.518
 7429TIP3   OH222231   3.128   3.655   5.071
 7429TIP3    H122232   3.050   3.710   5.082
 7429TIP3    H222233   3.175   3.695   4.998
 7430TIP3   OH222234   5.810   1.506   1.599
 7430TIP3    H122235   5.860   1.561   1.538
 7430TIP3    H222236   5.843   1.530   1.685
 7431TIP3   OH222237   0.764   0.253   2.676
 7431TIP3    H122238   0.820   0.245   2.599
 7431TIP3    H222239   0.715   0.170   2.679
 7432TIP3   OH222240   0.033   2.054   6.003
 7432TIP3    H122241   0.123   2.021   6.013
 7432TIP3    H222242   0.018   2.105   6.082
 7433TIP3   OH222243   6.290   1.583   2.589
 7433TIP3    H122244   6.227   1.654   2.578
 7433TIP3    H222245   6.337   1.605   2.669
 7434TIP3   OH222246   0.534   6.428   5.899
 7434TIP3    H122247   0.564   6.504   5.950
 7434TIP3    H222248   0.598   6.360   5.918
 7435TIP3   OH222249   2.589   5.437   5.367
 7435TIP3    H122250   2.599   5.531   5.352
 7435TIP3    H222251   2.513   5.429   5.424
 7436TIP3   OH222252   4.030   6.068   0.475
 7436TIP3    H122253   4.054   6.113   0.556
 7436TIP3    H222254   4.113   6.055   0.429
 7437TIP3   OH222255   4.751   5.818   6.434
 7437TIP3    H122256   4.826   5.873   6.410
 7437TIP3    H222257   4.758   5.808   6.529
 7438TIP3   OH222258   3.746   1.354   4.840
 7438TIP3    H122259   3.761   1.310   4.757
 7438TIP3    H222260   3.828   1.346   4.888
 7439TIP3   OH222261   1.778   7.465   2.061
 7439TIP3    H122262   1.695   7.421   2.076
 7439TIP3    H222263   1.775   7.543   2.117
 7440TIP3   OH222264   1.292   1.841   0.061
 7440TIP3    H122265   1.381   1.806   0.058
 7440TIP3    H222266   1.302   1.933   0.039
 7441TIP3   OH222267   3.518   4.933   3.485
 7441TIP3    H122268   3.427   4.904   3.478
 7441TIP3    H222269   3.521   4.987   3.564
 7442TIP3   OH222270   1.745   1.597   3.247
 7442TIP3    H122271   1.717   1.683   3.217
 7442TIP3    H222272   1.664   1.549   3.262
 7443TIP3   OH222273   0.749   5.786   4.577
 7443TIP3    H122274   0.713   5.770   4.664
 7443TIP3    H222275   0.674   5.781   4.519
 7444TIP3   OH222276   2.657   4.694   4.177
 7444TIP3    H122277   2.700   4.773   4.143
 7444TIP3    H222278   2.567   4.721   4.193
 7445TIP3   OH222279   5.577   0.328   2.239
 7445TIP3    H122280   5.554   0.241   2.271
 7445TIP3    H222281   5.615   0.313   2.153
 7446TIP3   OH222282   6.604   1.794   2.704
 7446TIP3    H122283   6.551   1.721   2.735
 7446TIP3    H222284   6.679   1.753   2.661
 7447TIP3   OH222285   7.943   4.293   3.572
 7447TIP3    H122286   7.913   4.348   3.645
 7447TIP3    H222287   7.868   4.237   3.552
 7448TIP3   OH222288   6.835   7.838   1.074
 7448TIP3    H122289   6.781   7.764   1.044
 7448TIP3    H222290   6.873   7.809   1.156
 7449TIP3   OH222291   2.082   7.070   0.561
 7449TIP3    H122292   2.086   7.126   0.483
 7449TIP3    H222293   2.171   7.074   0.597
 7450TIP3   OH222294   2.282   7.758   5.363
 7450TIP3    H122295   2.192   7.791   5.368
 7450TIP3    H222296   2.323   7.787   5.445
 7451TIP3   OH222297   1.556   5.453   0.010
 7451TIP3    H122298   1.472   5.466   0.055
 7451TIP3    H222299   1.602   5.536   0.021
 7452TIP3   OH222300   0.314   2.634   1.849
 7452TIP3    H122301   0.233   2.654   1.803
 7452TIP3    H222302   0.368   2.713   1.839
 7453TIP3   OH222303   6.827   3.294   0.425
 7453TIP3    H122304   6.877   3.332   0.352
 7453TIP3    H222305   6.893   3.259   0.484
 7454TIP3   OH222306   6.067   3.587   3.099
 7454TIP3    H122307   6.056   3.563   3.191
 7454TIP3    H222308   6.098   3.678   3.101
 7455TIP3   OH222309   7.579   0.847   2.170
 7455TIP3    H122310   7.628   0.921   2.136
 7455TIP3    H222311   7.487   0.872   2.161
 7456TIP3   OH222312   6.066   7.326   4.466
 7456TIP3    H122313   6.141   7.298   4.413
 7456TIP3    H222314   6.101   7.334   4.555
 7457TIP3   OH222315   6.622   4.307   5.957
 7457TIP3    H122316   6.579   4.348   6.032
 7457TIP3    H222317   6.553   4.300   5.891
 7458TIP3   OH222318   2.435   2.212   2.180
 7458TIP3    H122319   2.525   2.209   2.149
 7458TIP3    H222320   2.385   2.169   2.111
 7459TIP3   OH222321   7.735   5.388   2.704
 7459TIP3    H122322   7.661   5.442   2.674
 7459TIP3    H222323   7.812   5.443   2.689
 7460TIP3   OH222324   4.559   0.218   2.184
 7460TIP3    H122325   4.548   0.158   2.258
 7460TIP3    H222326   4.625   0.281   2.214
 7461TIP3   OH222327   0.617   3.321   0.720
 7461TIP3    H122328   0.705   3.308   0.686
 7461TIP3    H222329   0.612   3.416   0.737
 7462TIP3   OH222330   0.167   0.970   0.334
 7462TIP3    H122331   0.117   0.893   0.309
 7462TIP3    H222332   0.183   1.016   0.251
 7463TIP3   OH222333   4.382   0.684   2.129
 7463TIP3    H122334   4.377   0.701   2.223
 7463TIP3    H222335   4.353   0.765   2.088
 7464TIP3   OH222336   5.629   2.328   6.449
 7464TIP3    H122337   5.636   2.352   6.541
 7464TIP3    H222338   5.684   2.250   6.439
 7465TIP3   OH222339   2.674   1.604   3.561
 7465TIP3    H122340   2.702   1.542   3.629
 7465TIP3    H222341   2.736   1.590   3.490
 7466TIP3   OH222342   3.124   7.489   3.981
 7466TIP3    H122343   3.215   7.473   3.954
 7466TIP3    H222344   3.094   7.559   3.922
 7467TIP3   OH222345   1.638   0.248   4.333
 7467TIP3    H122346   1.662   0.335   4.367
 7467TIP3    H222347   1.673   0.248   4.243
 7468TIP3   OH222348   5.711   7.497   1.548
 7468TIP3    H122349   5.689   7.418   1.498
 7468TIP3    H222350   5.716   7.566   1.483
 7469TIP3   OH222351   4.675   2.776   0.145
 7469TIP3    H122352   4.770   2.769   0.154
 7469TIP3    H222353   4.655   2.867   0.168
 7470TIP3   OH222354   3.045   5.456   1.247
 7470TIP3    H122355   3.067   5.379   1.299
 7470TIP3    H222356   3.002   5.515   1.308
 7471TIP3   OH222357   0.927   5.964   3.933
 7471TIP3    H122358   0.914   5.872   3.957
 7471TIP3    H222359   0.894   6.013   4.008
 7472TIP3   OH222360   1.851   0.305   3.514
 7472TIP3    H122361   1.891   0.296   3.428
 7472TIP3    H222362   1.807   0.221   3.529
 7473TIP3   OH222363   2.740   4.092   6.323
 7473TIP3    H122364   2.763   4.025   6.388
 7473TIP3    H222365   2.644   4.095   6.324
 7474TIP3   OH222366   2.226   2.560   5.145
 7474TIP3    H122367   2.250   2.615   5.071
 7474TIP3    H222368   2.171   2.491   5.108
 7475TIP3   OH222369   5.483   4.581   3.195
 7475TIP3    H122370   5.464   4.488   3.185
 7475TIP3    H222371   5.577   4.585   3.212
 7476TIP3   OH222372   0.411   5.768   4.052
 7476TIP3    H122373   0.405   5.710   4.128
 7476TIP3    H222374   0.356   5.725   3.986
 7477TIP3   OH222375   5.384   1.933   4.997
 7477TIP3    H122376   5.384   1.949   5.092
 7477TIP3    H222377   5.403   2.019   4.959
 7478TIP3   OH222378   6.841   3.030   6.157
 7478TIP3    H122379   6.760   3.067   6.192
 7478TIP3    H222380   6.812   2.954   6.107
 7479TIP3   OH222381   7.348   2.658   5.438
 7479TIP3    H122382   7.376   2.750   5.442
 7479TIP3    H222383   7.419   2.613   5.392
 7480TIP3   OH222384   1.843   4.959   3.481
 7480TIP3    H122385   1.769   4.906   3.450
 7480TIP3    H222386   1.804   5.022   3.541
 7481TIP3   OH222387   6.542   4.093   6.222
 7481TIP3    H122388   6.462   4.131   6.185
 7481TIP3    H222389   6.527   3.998   6.217
 7482TIP3   OH222390   2.905   5.111   4.205
 7482TIP3    H122391   2.936   5.171   4.138
 7482TIP3    H222392   2.822   5.149   4.234
 7483TIP3   OH222393   4.654   4.652   4.178
 7483TIP3    H122394   4.680   4.727   4.230
 7483TIP3    H222395   4.573   4.621   4.219
 7484TIP3   OH222396   2.596   6.780   0.420
 7484TIP3    H122397   2.611   6.692   0.455
 7484TIP3    H222398   2.683   6.812   0.398
 7485TIP3   OH222399   6.315   3.475   5.806
 7485TIP3    H122400   6.401   3.459   5.767
 7485TIP3    H222401   6.328   3.456   5.899
 7486TIP3   OH222402   4.308   0.573   6.193
 7486TIP3    H122403   4.389   0.537   6.230
 7486TIP3    H222404   4.337   0.651   6.146
 7487TIP3   OH222405   0.527   5.917   3.396
 7487TIP3    H122406   0.596   5.895   3.334
 7487TIP3    H222407   0.573   5.949   3.474
 7488TIP3   OH222408   6.062   1.060   1.536
 7488TIP3    H122409   5.984   1.095   1.492
 7488TIP3    H222410   6.073   1.115   1.613
 7489TIP3   OH222411   5.346   0.102   5.838
 7489TIP3    H122412   5.278   0.040   5.865
 7489TIP3    H222413   5.426   0.049   5.834
 7490TIP3   OH222414   7.974   1.441   0.547
 7490TIP3    H122415   8.029   1.476   0.477
 7490TIP3    H222416   8.013   1.356   0.568
 7491TIP3   OH222417   6.918   5.380   5.432
 7491TIP3    H122418   6.886   5.393   5.343
 7491TIP3    H222419   6.847   5.335   5.477
 7492TIP3   OH222420   5.090   5.042   2.990
 7492TIP3    H122421   5.007   5.025   3.036
 7492TIP3    H222422   5.157   5.031   3.057
 7493TIP3   OH222423   0.666   2.215   3.672
 7493TIP3    H122424   0.612   2.293   3.659
 7493TIP3    H222425   0.606   2.141   3.658
 7494TIP3   OH222426   3.609   6.694   5.977
 7494TIP3    H122427   3.529   6.746   5.984
 7494TIP3    H222428   3.669   6.748   5.926
 7495TIP3   OH222429   6.401   3.922   2.321
 7495TIP3    H122430   6.483   3.900   2.276
 7495TIP3    H222431   6.428   3.949   2.408
 7496TIP3   OH222432   3.965   2.897   4.257
 7496TIP3    H122433   3.873   2.888   4.232
 7496TIP3    H222434   3.984   2.818   4.308
 7497TIP3   OH222435   5.338   4.093   2.113
 7497TIP3    H122436   5.257   4.123   2.072
 7497TIP3    H222437   5.309   4.031   2.180
 7498TIP3   OH222438   2.328   3.726   0.743
 7498TIP3    H122439   2.346   3.799   0.802
 7498TIP3    H222440   2.278   3.765   0.671
 7499TIP3   OH222441   0.033   6.194   0.389
 7499TIP3    H122442   0.013   6.135   0.462
 7499TIP3    H222443   0.021   6.139   0.311
 7500TIP3   OH222444   4.365   1.705   4.895
 7500TIP3    H122445   4.378   1.622   4.849
 7500TIP3    H222446   4.274   1.729   4.876
 7501TIP3   OH222447   3.260   0.070   3.235
 7501TIP3    H122448   3.299   0.085   3.148
 7501TIP3    H222449   3.173   0.109   3.230
 7502TIP3   OH222450   7.155   5.843   4.960
 7502TIP3    H122451   7.066   5.839   4.924
 7502TIP3    H222452   7.151   5.910   5.028
 7503TIP3   OH222453   3.513   4.380   2.044
 7503TIP3    H122454   3.562   4.318   2.099
 7503TIP3    H222455   3.439   4.329   2.012
 7504TIP3   OH222456   4.432   5.384   2.101
 7504TIP3    H122457   4.525   5.395   2.123
 7504TIP3    H222458   4.400   5.474   2.089
 7505TIP3   OH222459   1.358   0.321   2.459
 7505TIP3    H122460   1.292   0.345   2.395
 7505TIP3    H222461   1.426   0.388   2.451
 7506TIP3   OH222462   5.740   0.148   4.807
 7506TIP3    H122463   5.765   0.240   4.808
 7506TIP3    H222464   5.782   0.110   4.884
 7507TIP3   OH222465   2.350   1.725   6.689
 7507TIP3    H122466   2.363   1.763   6.602
 7507TIP3    H222467   2.347   1.801   6.748
 7508TIP3   OH222468   1.552   3.758   3.756
 7508TIP3    H122469   1.582   3.715   3.836
 7508TIP3    H222470   1.553   3.851   3.776
 7509TIP3   OH222471   8.279   4.378   5.357
 7509TIP3    H122472   8.264   4.426   5.275
 7509TIP3    H222473   8.316   4.295   5.330
 7510TIP3   OH222474   2.256   6.392   3.004
 7510TIP3    H122475   2.350   6.383   2.986
 7510TIP3    H222476   2.248   6.374   3.098
 7511TIP3   OH222477   7.082   6.362   2.578
 7511TIP3    H122478   7.145   6.290   2.580
 7511TIP3    H222479   7.054   6.371   2.669
 7512TIP3   OH222480   7.905   2.452   3.334
 7512TIP3    H122481   7.902   2.506   3.414
 7512TIP3    H222482   7.827   2.478   3.285
 7513TIP3   OH222483   5.914   1.727   0.513
 7513TIP3    H122484   5.954   1.640   0.501
 7513TIP3    H222485   5.959   1.763   0.590
 7514TIP3   OH222486   0.476   1.885   2.424
 7514TIP3    H122487   0.386   1.912   2.410
 7514TIP3    H222488   0.472   1.820   2.494
 7515TIP3   OH222489   4.167   7.798   2.756
 7515TIP3    H122490   4.198   7.707   2.750
 7515TIP3    H222491   4.241   7.851   2.727
 7516TIP3   OH222492   6.021   7.807   2.783
 7516TIP3    H122493   6.039   7.768   2.868
 7516TIP3    H222494   6.096   7.782   2.728
 7517TIP3   OH222495   6.591   2.707   6.107
 7517TIP3    H122496   6.681   2.708   6.076
 7517TIP3    H222497   6.555   2.791   6.080
 7518TIP3   OH222498   8.265   4.295   5.620
 7518TIP3    H122499   8.312   4.215   5.600
 7518TIP3    H222500   8.271   4.348   5.541
 7519TIP3   OH222501   2.828   3.488   5.019
 7519TIP3    H122502   2.734   3.467   5.027
 7519TIP3    H222503   2.838   3.569   5.069
 7520TIP3   OH222504   0.968   4.425   5.671
 7520TIP3    H122505   1.035   4.493   5.671
 7520TIP3    H222506   0.947   4.412   5.578
 7521TIP3   OH222507   7.779   0.153   1.327
 7521TIP3    H122508   7.826   0.234   1.305
 7521TIP3    H222509   7.725   0.177   1.403
 7522TIP3   OH222510   2.266   4.777   1.362
 7522TIP3    H122511   2.308   4.805   1.443
 7522TIP3    H222512   2.290   4.844   1.298
 7523TIP3   OH222513   4.104   4.115   0.128
 7523TIP3    H122514   4.091   4.187   0.067
 7523TIP3    H222515   4.018   4.074   0.136
 7524TIP3   OH222516   0.273   5.079   3.105
 7524TIP3    H122517   0.339   5.145   3.085
 7524TIP3    H222518   0.200   5.099   3.047
 7525TIP3   OH222519   4.398   2.676   1.234
 7525TIP3    H122520   4.408   2.704   1.143
 7525TIP3    H222521   4.411   2.581   1.232
 7526TIP3   OH222522   2.469   5.572   2.506
 7526TIP3    H122523   2.494   5.481   2.520
 7526TIP3    H222524   2.387   5.582   2.555
 7527TIP3   OH222525   0.474   0.707   1.416
 7527TIP3    H122526   0.470   0.729   1.509
 7527TIP3    H222527   0.393   0.744   1.380
 7528TIP3   OH222528   7.183   3.987   0.512
 7528TIP3    H122529   7.141   3.942   0.585
 7528TIP3    H222530   7.207   4.073   0.548
 7529TIP3   OH222531   2.562   2.433   3.885
 7529TIP3    H122532   2.502   2.402   3.952
 7529TIP3    H222533   2.631   2.479   3.933
 7530TIP3   OH222534   8.170   5.339   2.474
 7530TIP3    H122535   8.108   5.280   2.518
 7530TIP3    H222536   8.195   5.293   2.394
 7531TIP3   OH222537   7.687   5.277   1.642
 7531TIP3    H122538   7.696   5.267   1.737
 7531TIP3    H222539   7.767   5.239   1.606
 7532TIP3   OH222540   6.949   6.709   1.372
 7532TIP3    H122541   6.863   6.726   1.332
 7532TIP3    H222542   6.946   6.756   1.455
 7533TIP3   OH222543   5.183   7.272   1.943
 7533TIP3    H122544   5.146   7.211   1.879
 7533TIP3    H222545   5.245   7.324   1.893
 7534TIP3   OH222546   3.206   2.467   0.112
 7534TIP3    H122547   3.151   2.503   0.043
 7534TIP3    H222548   3.161   2.387   0.140
 7535TIP3   OH222549   0.982   0.064   4.730
 7535TIP3    H122550   0.947  -0.025   4.723
 7535TIP3    H222551   1.067   0.059   4.685
 7536TIP3   OH222552   0.896   4.742   6.300
 7536TIP3    H122553   0.856   4.828   6.312
 7536TIP3    H222554   0.924   4.741   6.209
 7537TIP3   OH222555   8.190   3.352   6.221
 7537TIP3    H122556   8.114   3.393   6.263
 7537TIP3    H222557   8.155   3.311   6.142
 7538TIP3   OH222558   4.763   3.239   3.246
 7538TIP3    H122559   4.693   3.203   3.192
 7538TIP3    H222560   4.828   3.169   3.250
 7539TIP3   OH222561   6.362   7.807   1.349
 7539TIP3    H122562   6.379   7.822   1.256
 7539TIP3    H222563   6.267   7.803   1.356
 7540TIP3   OH222564   6.618   1.504   2.128
 7540TIP3    H122565   6.554   1.510   2.057
 7540TIP3    H222566   6.628   1.410   2.143
 7541TIP3   OH222567   1.838   1.752   2.943
 7541TIP3    H122568   1.917   1.803   2.964
 7541TIP3    H222569   1.770   1.790   2.998
 7542TIP3   OH222570   4.020   6.876   1.932
 7542TIP3    H122571   3.967   6.833   1.999
 7542TIP3    H222572   3.964   6.880   1.855
 7543TIP3   OH222573   0.017   1.995   4.535
 7543TIP3    H122574   0.001   1.929   4.467
 7543TIP3    H222575   0.037   2.075   4.486
 7544TIP3   OH222576   3.683   2.598   2.534
 7544TIP3    H122577   3.694   2.549   2.453
 7544TIP3    H222578   3.766   2.646   2.545
 7545TIP3   OH222579   6.711   4.489   1.169
 7545TIP3    H122580   6.772   4.513   1.239
 7545TIP3    H222581   6.633   4.541   1.187
 7546TIP3   OH222582   4.008   3.772   5.920
 7546TIP3    H122583   4.002   3.814   5.834
 7546TIP3    H222584   4.022   3.679   5.900
 7547TIP3   OH222585   6.403   3.101   6.750
 7547TIP3    H122586   6.363   3.014   6.744
 7547TIP3    H222587   6.488   3.091   6.708
 7548TIP3   OH222588   2.018   2.229   1.533
 7548TIP3    H122589   2.063   2.149   1.561
 7548TIP3    H222590   1.927   2.216   1.558
 7549TIP3   OH222591   5.923   4.192   6.159
 7549TIP3    H122592   5.927   4.287   6.154
 7549TIP3    H222593   5.832   4.171   6.143
 7550TIP3   OH222594   7.290   2.750   5.789
 7550TIP3    H122595   7.376   2.735   5.750
 7550TIP3    H222596   7.273   2.843   5.775
 7551TIP3   OH222597   2.487   4.066   6.222
 7551TIP3    H122598   2.427   4.053   6.148
 7551TIP3    H222599   2.432   4.054   6.300
 7552TIP3   OH222600   0.498   1.501   4.042
 7552TIP3    H122601   0.419   1.453   4.015
 7552TIP3    H222602   0.560   1.486   3.971
 7553TIP3   OH222603   1.405   4.525   3.945
 7553TIP3    H122604   1.421   4.560   4.033
 7553TIP3    H222605   1.312   4.541   3.930
 7554TIP3   OH222606   3.958   1.071   2.575
 7554TIP3    H122607   4.006   1.021   2.642
 7554TIP3    H222608   3.980   1.162   2.594
 7555TIP3   OH222609   2.753   7.729   5.451
 7555TIP3    H122610   2.683   7.677   5.412
 7555TIP3    H222611   2.789   7.779   5.378
 7556TIP3   OH222612   5.890   7.731   4.143
 7556TIP3    H122613   5.963   7.685   4.184
 7556TIP3    H222614   5.815   7.714   4.200
 7557TIP3   OH222615   7.667   6.424   2.442
 7557TIP3    H122616   7.604   6.365   2.483
 7557TIP3    H222617   7.622   6.458   2.365
 7558TIP3   OH222618   2.135   6.156   4.590
 7558TIP3    H122619   2.156   6.096   4.662
 7558TIP3    H222620   2.122   6.241   4.632
 7559TIP3   OH222621   0.436   1.278   3.841
 7559TIP3    H122622   0.454   1.192   3.878
 7559TIP3    H222623   0.404   1.260   3.753
 7560TIP3   OH222624   2.035   3.019   5.830
 7560TIP3    H122625   1.983   3.099   5.815
 7560TIP3    H222626   2.040   3.012   5.925
 7561TIP3   OH222627   7.337   3.290   6.502
 7561TIP3    H122628   7.340   3.374   6.548
 7561TIP3    H222629   7.296   3.230   6.565
 7562TIP3   OH222630   1.036   4.828   1.889
 7562TIP3    H122631   1.012   4.903   1.944
 7562TIP3    H222632   1.056   4.866   1.804
 7563TIP3   OH222633   2.113   6.818   6.288
 7563TIP3    H122634   2.191   6.820   6.233
 7563TIP3    H222635   2.140   6.861   6.370
 7564TIP3   OH222636   2.269   4.349   1.039
 7564TIP3    H122637   2.357   4.380   1.016
 7564TIP3    H222638   2.282   4.290   1.112
 7565TIP3   OH222639   6.015   6.817   6.587
 7565TIP3    H122640   6.020   6.828   6.682
 7565TIP3    H222641   5.921   6.815   6.569
 7566TIP3   OH222642   3.672   2.195   2.515
 7566TIP3    H122643   3.620   2.118   2.537
 7566TIP3    H222644   3.718   2.217   2.596
 7567TIP3   OH222645   2.296   5.180   3.267
 7567TIP3    H122646   2.221   5.123   3.282
 7567TIP3    H222647   2.361   5.123   3.225
 7568TIP3   OH222648   4.430   5.075   3.979
 7568TIP3    H122649   4.508   5.120   3.945
 7568TIP3    H222650   4.420   5.109   4.068
 7569TIP3   OH222651   4.261   2.192   4.105
 7569TIP3    H122652   4.235   2.137   4.179
 7569TIP3    H222653   4.306   2.266   4.146
 7570TIP3   OH222654   2.180   5.559   5.753
 7570TIP3    H122655   2.167   5.645   5.712
 7570TIP3    H222656   2.092   5.525   5.765
 7571TIP3   OH222657   6.184   5.455   3.011
 7571TIP3    H122658   6.251   5.515   2.979
 7571TIP3    H222659   6.147   5.499   3.088
 7572TIP3   OH222660   2.658   0.590   3.400
 7572TIP3    H122661   2.648   0.561   3.309
 7572TIP3    H222662   2.595   0.661   3.410
 7573TIP3   OH222663   1.147   4.783   2.888
 7573TIP3    H122664   1.094   4.791   2.810
 7573TIP3    H222665   1.102   4.718   2.941
 7574TIP3   OH222666   4.835   6.034   5.376
 7574TIP3    H122667   4.817   6.128   5.380
 7574TIP3    H222668   4.771   5.996   5.436
 7575TIP3   OH222669   0.679   7.676   5.657
 7575TIP3    H122670   0.661   7.760   5.699
 7575TIP3    H222671   0.617   7.673   5.584
 7576TIP3   OH222672   1.357   2.314   3.048
 7576TIP3    H122673   1.359   2.242   2.986
 7576TIP3    H222674   1.448   2.326   3.076
 7577TIP3   OH222675   7.058   7.772   1.297
 7577TIP3    H122676   7.004   7.701   1.333
 7577TIP3    H222677   7.059   7.839   1.365
 7578TIP3   OH222678   2.686   4.190   0.722
 7578TIP3    H122679   2.597   4.156   0.725
 7578TIP3    H222680   2.702   4.225   0.809
 7579TIP3   OH222681   4.068   0.143   2.475
 7579TIP3    H122682   4.066   0.182   2.562
 7579TIP3    H222683   4.140   0.080   2.478
 7580TIP3   OH222684   0.188   7.562   0.865
 7580TIP3    H122685   0.119   7.623   0.838
 7580TIP3    H222686   0.231   7.606   0.939
 7581TIP3   OH222687   4.679   4.879   1.271
 7581TIP3    H122688   4.704   4.787   1.267
 7581TIP3    H222689   4.649   4.901   1.183
 7582TIP3   OH222690   6.954   6.136   6.408
 7582TIP3    H122691   7.012   6.209   6.387
 7582TIP3    H222692   7.012   6.063   6.427
 7583TIP3   OH222693   6.053   0.228   5.615
 7583TIP3    H122694   6.118   0.158   5.614
 7583TIP3    H222695   6.014   0.223   5.703
 7584TIP3   OH222696   8.238   5.610   3.182
 7584TIP3    H122697   8.298   5.623   3.108
 7584TIP3    H222698   8.281   5.653   3.256
 7585TIP3   OH222699   3.754   1.933   3.880
 7585TIP3    H122700   3.828   1.920   3.940
 7585TIP3    H222701   3.795   1.949   3.795
 7586TIP3   OH222702   1.065   3.969   4.667
 7586TIP3    H122703   1.107   3.991   4.584
 7586TIP3    H222704   0.972   3.969   4.647
 7587TIP3   OH222705   2.546   4.684   0.052
 7587TIP3    H122706   2.510   4.601   0.083
 7587TIP3    H222707   2.471   4.730   0.015
 7588TIP3   OH222708   2.419   4.494   5.567
 7588TIP3    H122709   2.330   4.522   5.547
 7588TIP3    H222710   2.455   4.565   5.620
 7589TIP3   OH222711   0.421   2.558   0.361
 7589TIP3    H122712   0.397   2.477   0.316
 7589TIP3    H222713   0.408   2.626   0.295
 7590TIP3   OH222714   6.332   2.074   3.667
 7590TIP3    H122715   6.394   2.014   3.710
 7590TIP3    H222716   6.252   2.067   3.719
 7591TIP3   OH222717   8.259   6.149   1.152
 7591TIP3    H122718   8.221   6.116   1.070
 7591TIP3    H222719   8.353   6.137   1.140
 7592TIP3   OH222720   3.435   4.209   0.177
 7592TIP3    H122721   3.507   4.270   0.163
 7592TIP3    H222722   3.435   4.153   0.100
 7593TIP3   OH222723   0.870   7.481   1.788
 7593TIP3    H122724   0.901   7.564   1.826
 7593TIP3    H222725   0.933   7.461   1.719
 7594TIP3   OH222726   2.561   6.737   3.716
 7594TIP3    H122727   2.518   6.821   3.702
 7594TIP3    H222728   2.514   6.697   3.789
 7595TIP3   OH222729   3.925   2.660   3.198
 7595TIP3    H122730   3.895   2.604   3.270
 7595TIP3    H222731   4.004   2.617   3.166
 7596TIP3   OH222732   5.152   2.364   2.228
 7596TIP3    H122733   5.144   2.413   2.146
 7596TIP3    H222734   5.227   2.403   2.273
 7597TIP3   OH222735   4.706   7.013   3.194
 7597TIP3    H122736   4.636   7.078   3.184
 7597TIP3    H222737   4.662   6.929   3.188
 7598TIP3   OH222738   2.258   2.491   3.596
 7598TIP3    H122739   2.277   2.500   3.503
 7598TIP3    H222740   2.315   2.419   3.625
 7599TIP3   OH222741   0.479   7.576   4.937
 7599TIP3    H122742   0.448   7.490   4.908
 7599TIP3    H222743   0.566   7.559   4.973
 7600TIP3   OH222744   8.024   0.820   3.968
 7600TIP3    H122745   8.071   0.772   4.036
 7600TIP3    H222746   8.051   0.778   3.886
 7601TIP3   OH222747   1.983   3.238   2.013
 7601TIP3    H122748   1.931   3.318   2.009
 7601TIP3    H222749   2.072   3.268   2.029
 7602TIP3   OH222750   5.790   4.471   1.316
 7602TIP3    H122751   5.860   4.536   1.314
 7602TIP3    H222752   5.807   4.415   1.241
 7603TIP3   OH222753   7.808   1.830   4.184
 7603TIP3    H122754   7.824   1.792   4.097
 7603TIP3    H222755   7.895   1.848   4.219
 7604TIP3   OH222756   1.763   0.693   3.331
 7604TIP3    H122757   1.816   0.772   3.336
 7604TIP3    H222758   1.814   0.634   3.275
 7605TIP3   OH222759   5.555   6.263   2.980
 7605TIP3    H122760   5.636   6.288   3.025
 7605TIP3    H222761   5.536   6.337   2.923
 7606TIP3   OH222762   2.172   6.827   2.010
 7606TIP3    H122763   2.258   6.868   2.013
 7606TIP3    H222764   2.122   6.874   2.078
 7607TIP3   OH222765   4.864   7.032   2.335
 7607TIP3    H122766   4.786   7.085   2.348
 7607TIP3    H222767   4.848   6.985   2.253
 7608TIP3   OH222768   0.113   2.097   5.021
 7608TIP3    H122769   0.086   2.139   4.940
 7608TIP3    H222770   0.089   2.160   5.089
 7609TIP3   OH222771   7.972   5.545   4.332
 7609TIP3    H122772   7.987   5.497   4.251
 7609TIP3    H222773   7.945   5.632   4.304
 7610TIP3   OH222774   5.726   4.291   3.598
 7610TIP3    H122775   5.727   4.259   3.688
 7610TIP3    H222776   5.739   4.386   3.606
 7611TIP3   OH222777   5.381   6.532   2.140
 7611TIP3    H122778   5.403   6.606   2.083
 7611TIP3    H222779   5.325   6.476   2.086
 7612TIP3   OH222780   2.974   0.417   5.635
 7612TIP3    H122781   2.981   0.333   5.591
 7612TIP3    H222782   3.009   0.401   5.723
 7613TIP3   OH222783   2.150   1.026   2.320
 7613TIP3    H122784   2.174   0.952   2.375
 7613TIP3    H222785   2.170   0.997   2.230
 7614TIP3   OH222786   3.004   7.741   6.411
 7614TIP3    H122787   3.079   7.693   6.377
 7614TIP3    H222788   2.939   7.738   6.341
 7615TIP3   OH222789   0.841   2.846   3.383
 7615TIP3    H122790   0.848   2.756   3.352
 7615TIP3    H222791   0.848   2.899   3.304
 7616TIP3   OH222792   6.250   7.027   1.951
 7616TIP3    H122793   6.276   7.073   1.871
 7616TIP3    H222794   6.228   7.097   2.013
 7617TIP3   OH222795   2.188   0.811   0.130
 7617TIP3    H122796   2.146   0.800   0.044
 7617TIP3    H222797   2.189   0.722   0.167
 7618TIP3   OH222798   0.534   4.304   1.801
 7618TIP3    H122799   0.506   4.242   1.734
 7618TIP3    H222800   0.630   4.298   1.800
 7619TIP3   OH222801   5.016   6.852   5.306
 7619TIP3    H122802   5.032   6.811   5.391
 7619TIP3    H222803   4.925   6.881   5.311
 7620TIP3   OH222804   4.201   1.901   1.591
 7620TIP3    H122805   4.279   1.855   1.624
 7620TIP3    H222806   4.128   1.844   1.616
 7621TIP3   OH222807   7.665   0.444   4.398
 7621TIP3    H122808   7.581   0.400   4.415
 7621TIP3    H222809   7.703   0.456   4.485
 7622TIP3   OH222810   3.341   6.531   4.339
 7622TIP3    H122811   3.265   6.486   4.377
 7622TIP3    H222812   3.311   6.560   4.253
 7623TIP3   OH222813   5.195   5.512   4.919
 7623TIP3    H122814   5.256   5.578   4.953
 7623TIP3    H222815   5.173   5.543   4.832
 7624TIP3   OH222816   8.128   5.033   3.484
 7624TIP3    H122817   8.118   4.938   3.491
 7624TIP3    H222818   8.070   5.058   3.413
 7625TIP3   OH222819   3.801   4.244   0.708
 7625TIP3    H122820   3.884   4.284   0.683
 7625TIP3    H222821   3.824   4.183   0.778
 7626TIP3   OH222822   5.540   2.395   2.946
 7626TIP3    H122823   5.522   2.428   2.858
 7626TIP3    H222824   5.454   2.368   2.979
 7627TIP3   OH222825   3.009   2.291   6.784
 7627TIP3    H122826   3.058   2.211   6.765
 7627TIP3    H222827   3.040   2.354   6.719
 7628TIP3   OH222828   2.992   1.341   2.109
 7628TIP3    H122829   3.045   1.263   2.092
 7628TIP3    H222830   3.037   1.411   2.062
 7629TIP3   OH222831   0.096   6.755   3.710
 7629TIP3    H122832   0.132   6.666   3.711
 7629TIP3    H222833   0.042   6.760   3.789
 7630TIP3   OH222834   4.512   6.390   5.619
 7630TIP3    H122835   4.525   6.343   5.537
 7630TIP3    H222836   4.551   6.333   5.685
 7631TIP3   OH222837   2.893   0.750   5.254
 7631TIP3    H122838   2.973   0.701   5.236
 7631TIP3    H222839   2.848   0.700   5.322
 7632TIP3   OH222840   5.445   6.990   2.137
 7632TIP3    H122841   5.472   6.921   2.199
 7632TIP3    H222842   5.441   7.069   2.191
 7633TIP3   OH222843   3.372   7.005   1.480
 7633TIP3    H122844   3.388   6.911   1.485
 7633TIP3    H222845   3.364   7.023   1.386
 7634TIP3   OH222846   5.284   1.843   1.589
 7634TIP3    H122847   5.278   1.914   1.653
 7634TIP3    H222848   5.369   1.803   1.606
 7635TIP3   OH222849   2.763   2.445   2.310
 7635TIP3    H122850   2.817   2.523   2.314
 7635TIP3    H222851   2.673   2.478   2.306
 7636TIP3   OH222852   6.464   5.705   2.531
 7636TIP3    H122853   6.427   5.628   2.487
 7636TIP3    H222854   6.535   5.669   2.584
 7637TIP3   OH222855   5.634   7.492   2.923
 7637TIP3    H122856   5.557   7.539   2.956
 7637TIP3    H222857   5.676   7.553   2.863
 7638TIP3   OH222858   5.884   0.654   5.557
 7638TIP3    H122859   5.833   0.591   5.609
 7638TIP3    H222860   5.966   0.663   5.605
 7639TIP3   OH222861   5.194   4.012   2.922
 7639TIP3    H122862   5.201   4.082   2.987
 7639TIP3    H222863   5.123   3.956   2.954
 7640TIP3   OH222864   2.859   4.785   6.723
 7640TIP3    H122865   2.846   4.695   6.752
 7640TIP3    H222866   2.837   4.838   6.799
 7641TIP3   OH222867   4.873   0.264   4.062
 7641TIP3    H122868   4.876   0.169   4.072
 7641TIP3    H222869   4.809   0.293   4.126
 7642TIP3   OH222870   6.025   2.920   3.374
 7642TIP3    H122871   6.015   2.944   3.466
 7642TIP3    H222872   5.964   2.978   3.327
 7643TIP3   OH222873   7.995   2.526   4.241
 7643TIP3    H122874   8.090   2.530   4.243
 7643TIP3    H222875   7.975   2.438   4.207
 7644TIP3   OH222876   8.172   3.363   3.767
 7644TIP3    H122877   8.150   3.420   3.841
 7644TIP3    H222878   8.268   3.363   3.765
 7645TIP3   OH222879   0.976   5.165   3.409
 7645TIP3    H122880   1.007   5.253   3.430
 7645TIP3    H222881   0.881   5.170   3.420
 7646TIP3   OH222882   4.160   2.136   2.128
 7646TIP3    H122883   4.191   2.225   2.108
 7646TIP3    H222884   4.230   2.079   2.096
 7647TIP3   OH222885   5.169   5.476   1.518
 7647TIP3    H122886   5.127   5.562   1.513
 7647TIP3    H222887   5.168   5.443   1.427
 7648TIP3   OH222888   6.009   1.389   0.070
 7648TIP3    H122889   6.083   1.374   0.130
 7648TIP3    H222890   6.037   1.348  -0.013
 7649TIP3   OH222891   2.924   5.346   3.367
 7649TIP3    H122892   2.932   5.302   3.282
 7649TIP3    H222893   2.886   5.431   3.345
 7650TIP3   OH222894   5.927   1.187   3.089
 7650TIP3    H122895   5.888   1.112   3.043
 7650TIP3    H222896   5.863   1.257   3.079
 7651TIP3   OH222897   4.261   1.759   6.292
 7651TIP3    H122898   4.262   1.740   6.199
 7651TIP3    H222899   4.254   1.673   6.334
 7652TIP3   OH222900   4.139   0.418   6.358
 7652TIP3    H122901   4.187   0.364   6.420
 7652TIP3    H222902   4.206   0.459   6.303
 7653TIP3   OH222903   1.438   0.444   1.529
 7653TIP3    H122904   1.452   0.449   1.623
 7653TIP3    H222905   1.484   0.520   1.493
 7654TIP3   OH222906   3.314   1.607   1.328
 7654TIP3    H122907   3.291   1.650   1.245
 7654TIP3    H222908   3.341   1.519   1.302
 7655TIP3   OH222909   0.914   5.424   4.361
 7655TIP3    H122910   0.856   5.358   4.399
 7655TIP3    H222911   0.942   5.477   4.435
 7656TIP3   OH222912   2.084   6.645   5.839
 7656TIP3    H122913   2.018   6.704   5.874
 7656TIP3    H222914   2.036   6.566   5.814
 7657TIP3   OH222915   4.823   7.110   5.710
 7657TIP3    H122916   4.798   7.197   5.678
 7657TIP3    H222917   4.747   7.055   5.689
 7658TIP3   OH222918   8.260   6.310   4.993
 7658TIP3    H122919   8.183   6.308   4.935
 7658TIP3    H222920   8.303   6.393   4.972
 7659TIP3   OH222921   2.471   2.504   1.608
 7659TIP3    H122922   2.565   2.519   1.597
 7659TIP3    H222923   2.437   2.497   1.519
 7660TIP3   OH222924   7.181   6.721   5.844
 7660TIP3    H122925   7.272   6.727   5.815
 7660TIP3    H222926   7.131   6.707   5.763
 7661TIP3   OH222927   6.681   1.033   3.513
 7661TIP3    H122928   6.699   1.056   3.422
 7661TIP3    H222929   6.699   0.939   3.518
 7662TIP3   OH222930   0.133   0.299   2.435
 7662TIP3    H122931   0.102   0.354   2.363
 7662TIP3    H222932   0.068   0.230   2.444
 7663TIP3   OH222933   3.915   5.271   3.047
 7663TIP3    H122934   3.912   5.223   2.965
 7663TIP3    H222935   3.878   5.211   3.112
 7664TIP3   OH222936   0.125   2.540   3.698
 7664TIP3    H122937   0.034   2.539   3.728
 7664TIP3    H222938   0.175   2.573   3.773
 7665TIP3   OH222939   2.924   7.029   1.036
 7665TIP3    H122940   3.013   7.015   1.002
 7665TIP3    H222941   2.934   7.024   1.131
 7666TIP3   OH222942   8.055   3.568   2.718
 7666TIP3    H122943   8.038   3.480   2.751
 7666TIP3    H222944   8.121   3.604   2.778
 7667TIP3   OH222945   7.506   3.188   3.397
 7667TIP3    H122946   7.544   3.233   3.472
 7667TIP3    H222947   7.518   3.095   3.416
 7668TIP3   OH222948   7.801   7.436   1.227
 7668TIP3    H122949   7.722   7.480   1.196
 7668TIP3    H222950   7.795   7.348   1.191
 7669TIP3   OH222951   7.544   6.115   6.211
 7669TIP3    H122952   7.471   6.159   6.168
 7669TIP3    H222953   7.508   6.085   6.295
 7670TIP3   OH222954   3.257   0.603   3.360
 7670TIP3    H122955   3.198   0.527   3.365
 7670TIP3    H222956   3.233   0.648   3.279
 7671TIP3   OH222957   0.269   5.382   3.757
 7671TIP3    H122958   0.182   5.350   3.730
 7671TIP3    H222959   0.315   5.396   3.674
 7672TIP3   OH222960   7.936   6.737   0.172
 7672TIP3    H122961   7.927   6.646   0.199
 7672TIP3    H222962   8.001   6.735   0.101
 7673TIP3   OH222963   5.211   6.560   5.875
 7673TIP3    H122964   5.207   6.563   5.780
 7673TIP3    H222965   5.211   6.652   5.902
 7674TIP3   OH222966   5.558   5.432   3.906
 7674TIP3    H122967   5.557   5.523   3.934
 7674TIP3    H222968   5.637   5.424   3.853
 7675TIP3   OH222969   2.720   5.303   2.762
 7675TIP3    H122970   2.648   5.277   2.820
 7675TIP3    H222971   2.785   5.342   2.820
 7676TIP3   OH222972   7.162   0.534   5.930
 7676TIP3    H122973   7.172   0.464   5.995
 7676TIP3    H222974   7.189   0.613   5.976
 7677TIP3   OH222975   2.082   2.279   1.233
 7677TIP3    H122976   2.096   2.294   1.326
 7677TIP3    H222977   2.167   2.296   1.193
 7678TIP3   OH222978   0.097   7.502   5.002
 7678TIP3    H122979   0.140   7.512   4.917
 7678TIP3    H222980   0.153   7.442   5.051
 7679TIP3   OH222981   6.526   1.312   6.510
 7679TIP3    H122982   6.614   1.274   6.517
 7679TIP3    H222983   6.507   1.312   6.416
 7680TIP3   OH222984   4.503   2.371   3.073
 7680TIP3    H122985   4.429   2.316   3.095
 7680TIP3    H222986   4.530   2.341   2.986
 7681TIP3   OH222987   1.090   3.921   6.005
 7681TIP3    H122988   1.005   3.883   5.984
 7681TIP3    H222989   1.153   3.866   5.960
 7682TIP3   OH222990   5.088   1.275   1.709
 7682TIP3    H122991   5.120   1.350   1.759
 7682TIP3    H222992   5.017   1.310   1.655
 7683TIP3   OH222993   7.069   1.781   5.887
 7683TIP3    H122994   7.033   1.760   5.972
 7683TIP3    H222995   7.154   1.737   5.885
 7684TIP3   OH222996   0.562   6.455   0.642
 7684TIP3    H122997   0.491   6.409   0.598
 7684TIP3    H222998   0.529   6.543   0.656
 7685TIP3   OH222999   0.829   6.442   0.518
 7685TIP3    H123000   0.735   6.449   0.539
 7685TIP3    H223001   0.873   6.484   0.592
 7686TIP3   OH223002   2.408   6.391   3.528
 7686TIP3    H123003   2.380   6.359   3.614
 7686TIP3    H223004   2.455   6.317   3.489
 7687TIP3   OH223005   0.216   1.997   1.452
 7687TIP3    H123006   0.183   1.937   1.518
 7687TIP3    H223007   0.258   2.067   1.503
 7688TIP3   OH223008   6.880   6.033   6.022
 7688TIP3    H123009   6.839   6.020   5.937
 7688TIP3    H223010   6.856   6.122   6.047
 7689TIP3   OH223011   4.506   0.402   4.729
 7689TIP3    H123012   4.544   0.319   4.757
 7689TIP3    H223013   4.530   0.465   4.797
 7690TIP3   OH223014   7.965   4.828   3.640
 7690TIP3    H123015   7.898   4.837   3.572
 7690TIP3    H223016   7.917   4.794   3.716
 7691TIP3   OH223017   2.405   7.110   6.409
 7691TIP3    H123018   2.345   7.088   6.480
 7691TIP3    H223019   2.349   7.137   6.337
 7692TIP3   OH223020   8.148   6.757   4.161
 7692TIP3    H123021   8.082   6.721   4.221
 7692TIP3    H223022   8.232   6.727   4.197
 7693TIP3   OH223023   1.877   2.255   1.021
 7693TIP3    H123024   1.959   2.258   1.071
 7693TIP3    H223025   1.858   2.347   1.001
 7694TIP3   OH223026   1.933   5.146   2.716
 7694TIP3    H123027   1.897   5.076   2.663
 7694TIP3    H223028   1.900   5.129   2.804
 7695TIP3   OH223029   2.786   4.757   5.953
 7695TIP3    H123030   2.705   4.729   5.995
 7695TIP3    H223031   2.793   4.704   5.874
 7696TIP3   OH223032   4.784   0.029   6.544
 7696TIP3    H123033   4.847   0.052   6.613
 7696TIP3    H223034   4.821  -0.048   6.502
 7697TIP3   OH223035   5.582   4.949   0.483
 7697TIP3    H123036   5.566   5.042   0.467
 7697TIP3    H223037   5.677   4.943   0.494
 7698TIP3   OH223038   5.588   4.265   2.679
 7698TIP3    H123039   5.650   4.195   2.697
 7698TIP3    H223040   5.502   4.222   2.677
 7699TIP3   OH223041   0.036   3.548   3.132
 7699TIP3    H123042   0.068   3.631   3.168
 7699TIP3    H223043  -0.040   3.527   3.186
 7700TIP3   OH223044   7.768   7.261   4.687
 7700TIP3    H123045   7.707   7.331   4.708
 7700TIP3    H223046   7.795   7.225   4.771
 7701TIP3   OH223047   7.660   1.343   6.216
 7701TIP3    H123048   7.594   1.368   6.280
 7701TIP3    H223049   7.720   1.285   6.263
 7702TIP3   OH223050   1.371   3.168   6.656
 7702TIP3    H123051   1.320   3.113   6.596
 7702TIP3    H223052   1.339   3.145   6.743
 7703TIP3   OH223053   3.065   3.016   0.369
 7703TIP3    H123054   3.025   2.973   0.294
 7703TIP3    H223055   2.995   3.071   0.405
 7704TIP3   OH223056   6.657   0.901   6.658
 7704TIP3    H123057   6.660   0.996   6.673
 7704TIP3    H223058   6.570   0.886   6.621
 7705TIP3   OH223059   2.352   6.048   5.240
 7705TIP3    H123060   2.438   6.090   5.242
 7705TIP3    H223061   2.363   5.968   5.291
 7706TIP3   OH223062   4.641   1.349   2.158
 7706TIP3    H123063   4.552   1.375   2.133
 7706TIP3    H223064   4.697   1.388   2.091
 7707TIP3   OH223065   4.853   4.518   1.613
 7707TIP3    H123066   4.781   4.518   1.676
 7707TIP3    H223067   4.818   4.565   1.537
 7708TIP3   OH223068   1.499   0.443   5.274
 7708TIP3    H123069   1.444   0.416   5.201
 7708TIP3    H223070   1.483   0.537   5.283
 7709TIP3   OH223071   0.042   0.416   1.498
 7709TIP3    H123072  -0.053   0.411   1.504
 7709TIP3    H223073   0.062   0.509   1.505
 7710TIP3   OH223074   8.093   4.673   4.027
 7710TIP3    H123075   8.088   4.584   3.994
 7710TIP3    H223076   8.178   4.705   3.998
 7711TIP3   OH223077   6.749   1.662   4.138
 7711TIP3    H123078   6.809   1.608   4.087
 7711TIP3    H223079   6.788   1.749   4.137
 7712TIP3   OH223080   1.258   1.871   5.051
 7712TIP3    H123081   1.291   1.838   5.134
 7712TIP3    H223082   1.248   1.965   5.064
 7713TIP3   OH223083   0.343   1.320   2.915
 7713TIP3    H123084   0.289   1.292   2.840
 7713TIP3    H223085   0.400   1.245   2.933
 7714TIP3   OH223086   2.563   4.307   2.761
 7714TIP3    H123087   2.503   4.381   2.747
 7714TIP3    H223088   2.531   4.267   2.842
 7715TIP3   OH223089   3.152   3.166   4.106
 7715TIP3    H123090   3.086   3.102   4.079
 7715TIP3    H223091   3.229   3.114   4.128
 7716TIP3   OH223092   1.896   5.284   4.436
 7716TIP3    H123093   1.984   5.293   4.472
 7716TIP3    H223094   1.852   5.366   4.458
 7717TIP3   OH223095   5.611   1.046   3.326
 7717TIP3    H123096   5.615   1.133   3.285
 7717TIP3    H223097   5.676   1.051   3.397
 7718TIP3   OH223098   4.236   7.656   0.917
 7718TIP3    H123099   4.200   7.744   0.903
 7718TIP3    H223100   4.330   7.667   0.901
 7719TIP3   OH223101   7.540   4.619   2.562
 7719TIP3    H123102   7.635   4.618   2.564
 7719TIP3    H223103   7.515   4.628   2.654
 7720TIP3   OH223104   0.873   2.971   3.978
 7720TIP3    H123105   0.807   3.019   3.928
 7720TIP3    H223106   0.950   2.970   3.922
 7721TIP3   OH223107   4.332   2.492   5.911
 7721TIP3    H123108   4.272   2.512   5.983
 7721TIP3    H223109   4.276   2.497   5.833
 7722TIP3   OH223110   5.460   5.477   3.234
 7722TIP3    H123111   5.456   5.403   3.295
 7722TIP3    H223112   5.373   5.515   3.237
 7723TIP3   OH223113   7.760   1.867   5.248
 7723TIP3    H123114   7.848   1.905   5.248
 7723TIP3    H223115   7.734   1.869   5.340
 7724TIP3   OH223116   2.040   3.961   0.301
 7724TIP3    H123117   2.064   3.932   0.213
 7724TIP3    H223118   1.960   4.012   0.288
 7725TIP3   OH223119   1.324   7.401   6.045
 7725TIP3    H123120   1.391   7.335   6.022
 7725TIP3    H223121   1.297   7.438   5.961
 7726TIP3   OH223122   7.816   2.849   0.543
 7726TIP3    H123123   7.802   2.873   0.635
 7726TIP3    H223124   7.789   2.757   0.538
 7727TIP3   OH223125   7.566   5.378   4.641
 7727TIP3    H123126   7.525   5.443   4.584
 7727TIP3    H223127   7.659   5.396   4.635
 7728TIP3   OH223128   2.422   2.650   2.429
 7728TIP3    H123129   2.433   2.603   2.346
 7728TIP3    H223130   2.488   2.720   2.426
 7729TIP3   OH223131   4.608   5.277   5.732
 7729TIP3    H123132   4.645   5.365   5.727
 7729TIP3    H223133   4.681   5.222   5.761
 7730TIP3   OH223134   1.542   5.307   6.243
 7730TIP3    H123135   1.532   5.390   6.290
 7730TIP3    H223136   1.541   5.332   6.150
 7731TIP3   OH223137   8.291   5.262   4.042
 7731TIP3    H123138   8.208   5.231   4.079
 7731TIP3    H223139   8.296   5.354   4.068
 7732TIP3   OH223140   2.735   3.581   2.678
 7732TIP3    H123141   2.803   3.519   2.653
 7732TIP3    H223142   2.777   3.638   2.743
 7733TIP3   OH223143   4.998   6.487   0.273
 7733TIP3    H123144   4.904   6.490   0.287
 7733TIP3    H223145   5.035   6.469   0.359
 7734TIP3   OH223146   7.733   2.919   0.089
 7734TIP3    H123147   7.678   2.840   0.095
 7734TIP3    H223148   7.786   2.904   0.011
 7735TIP3   OH223149   4.821   4.211   0.141
 7735TIP3    H123150   4.745   4.179   0.093
 7735TIP3    H223151   4.896   4.175   0.093
 7736TIP3   OH223152   3.925   5.156   5.391
 7736TIP3    H123153   3.862   5.113   5.449
 7736TIP3    H223154   3.882   5.237   5.364
 7737TIP3   OH223155   7.569   0.290   5.520
 7737TIP3    H123156   7.567   0.281   5.615
 7737TIP3    H223157   7.543   0.204   5.487
 7738TIP3   OH223158   7.561   6.674   3.048
 7738TIP3    H123159   7.648   6.662   3.086
 7738TIP3    H223160   7.545   6.768   3.052
 7739TIP3   OH223161   0.513   7.312   6.671
 7739TIP3    H123162   0.478   7.234   6.628
 7739TIP3    H223163   0.524   7.376   6.601
 7740TIP3   OH223164   4.167   5.957   2.436
 7740TIP3    H123165   4.183   6.015   2.511
 7740TIP3    H223166   4.252   5.952   2.391
 7741TIP3   OH223167   6.642   0.457   2.176
 7741TIP3    H123168   6.552   0.486   2.193
 7741TIP3    H223169   6.654   0.470   2.082
 7742TIP3   OH223170   0.866   0.826   0.428
 7742TIP3    H123171   0.855   0.732   0.410
 7742TIP3    H223172   0.779   0.856   0.454
 7743TIP3   OH223173   6.397   5.537   3.572
 7743TIP3    H123174   6.330   5.488   3.525
 7743TIP3    H223175   6.355   5.564   3.654
 7744TIP3   OH223176   4.601   4.202   2.106
 7744TIP3    H123177   4.599   4.298   2.103
 7744TIP3    H223178   4.554   4.179   2.186
 7745TIP3   OH223179   5.675   2.953   3.884
 7745TIP3    H123180   5.671   2.980   3.792
 7745TIP3    H223181   5.740   3.012   3.923
 7746TIP3   OH223182   8.075   5.177   6.330
 7746TIP3    H123183   8.106   5.247   6.387
 7746TIP3    H223184   8.068   5.101   6.386
 7747TIP3   OH223185   1.782   0.882   3.794
 7747TIP3    H123186   1.717   0.926   3.848
 7747TIP3    H223187   1.755   0.902   3.704
 7748TIP3   OH223188   1.777   7.100   0.500
 7748TIP3    H123189   1.779   7.181   0.449
 7748TIP3    H223190   1.863   7.095   0.541
 7749TIP3   OH223191   3.591   2.205   3.207
 7749TIP3    H123192   3.541   2.241   3.133
 7749TIP3    H223193   3.609   2.115   3.181
 7750TIP3   OH223194   1.262   0.608   4.652
 7750TIP3    H123195   1.187   0.631   4.707
 7750TIP3    H223196   1.223   0.575   4.571
 7751TIP3   OH223197   1.982   1.638   1.917
 7751TIP3    H123198   1.968   1.713   1.859
 7751TIP3    H223199   2.039   1.580   1.868
 7752TIP3   OH223200   0.920   7.376   2.436
 7752TIP3    H123201   0.928   7.295   2.386
 7752TIP3    H223202   0.826   7.391   2.444
 7753TIP3   OH223203   4.648   0.569   2.089
 7753TIP3    H123204   4.630   0.593   1.998
 7753TIP3    H223205   4.570   0.599   2.137
 7754TIP3   OH223206   2.309   4.000   6.029
 7754TIP3    H123207   2.227   3.999   6.076
 7754TIP3    H223208   2.284   3.997   5.936
 7755TIP3   OH223209   2.684   1.004   1.459
 7755TIP3    H123210   2.735   1.024   1.538
 7755TIP3    H223211   2.642   1.087   1.436
 7756TIP3   OH223212   0.235   4.543   4.988
 7756TIP3    H123213   0.304   4.599   5.023
 7756TIP3    H223214   0.261   4.454   5.011
 7757TIP3   OH223215   5.686   1.352   3.955
 7757TIP3    H123216   5.614   1.321   4.012
 7757TIP3    H223217   5.765   1.315   3.995
 7758TIP3   OH223218   0.097   5.355   0.012
 7758TIP3    H123219   0.175   5.305  -0.014
 7758TIP3    H223220   0.122   5.446   0.000
 7759TIP3   OH223221   2.932   6.883   1.964
 7759TIP3    H123222   2.949   6.948   2.033
 7759TIP3    H223223   2.971   6.920   1.885
 7760TIP3   OH223224   1.015   4.467   1.586
 7760TIP3    H123225   1.042   4.384   1.547
 7760TIP3    H223226   0.965   4.510   1.517
 7761TIP3   OH223227   2.084   3.774   4.743
 7761TIP3    H123228   2.084   3.762   4.838
 7761TIP3    H223229   1.991   3.765   4.718
 7762TIP3   OH223230   7.151   2.130   4.212
 7762TIP3    H123231   7.209   2.174   4.275
 7762TIP3    H223232   7.112   2.058   4.262
 7763TIP3   OH223233   4.379   1.326   5.530
 7763TIP3    H123234   4.433   1.351   5.455
 7763TIP3    H223235   4.314   1.267   5.494
 7764TIP3   OH223236   0.343   0.839   5.278
 7764TIP3    H123237   0.358   0.934   5.276
 7764TIP3    H223238   0.301   0.819   5.194
 7765TIP3   OH223239   1.901   6.821   2.763
 7765TIP3    H123240   1.986   6.854   2.792
 7765TIP3    H223241   1.837   6.870   2.814
 7766TIP3   OH223242   8.155   1.873   3.801
 7766TIP3    H123243   8.117   1.802   3.853
 7766TIP3    H223244   8.137   1.849   3.710
 7767TIP3   OH223245   0.513   7.705   4.690
 7767TIP3    H123246   0.525   7.799   4.694
 7767TIP3    H223247   0.488   7.680   4.779
 7768TIP3   OH223248   2.801   7.504   3.862
 7768TIP3    H123249   2.837   7.558   3.792
 7768TIP3    H223250   2.879   7.469   3.907
 7769TIP3   OH223251   0.009   0.577   2.783
 7769TIP3    H123252   0.054   0.504   2.740
 7769TIP3    H223253   0.042   0.655   2.739
 7770TIP3   OH223254   7.940   1.120   5.763
 7770TIP3    H123255   7.857   1.073   5.755
 7770TIP3    H223256   7.951   1.163   5.678
 7771TIP3   OH223257   6.017   4.919   1.486
 7771TIP3    H123258   6.031   4.987   1.420
 7771TIP3    H223259   5.935   4.878   1.461
 7772TIP3   OH223260   2.852   6.896   2.450
 7772TIP3    H123261   2.763   6.928   2.438
 7772TIP3    H223262   2.873   6.851   2.368
 7773TIP3   OH223263   5.639   2.599   5.874
 7773TIP3    H123264   5.574   2.584   5.942
 7773TIP3    H223265   5.668   2.690   5.886
 7774TIP3   OH223266   3.688   0.198   0.399
 7774TIP3    H123267   3.682   0.172   0.490
 7774TIP3    H223268   3.715   0.118   0.353
 7775TIP3   OH223269   5.844   5.657   4.593
 7775TIP3    H123270   5.921   5.702   4.559
 7775TIP3    H223271   5.878   5.574   4.627
 7776TIP3   OH223272   7.058   3.534   1.896
 7776TIP3    H123273   7.126   3.585   1.941
 7776TIP3    H223274   7.106   3.484   1.830
 7777TIP3   OH223275   6.492   0.077   6.597
 7777TIP3    H123276   6.407   0.120   6.604
 7777TIP3    H223277   6.520   0.064   6.688
 7778TIP3   OH223278   4.321   5.707   2.317
 7778TIP3    H123279   4.233   5.743   2.302
 7778TIP3    H223280   4.327   5.699   2.412
 7779TIP3   OH223281   5.757   4.423   2.238
 7779TIP3    H123282   5.728   4.353   2.296
 7779TIP3    H223283   5.716   4.403   2.154
 7780TIP3   OH223284   3.437   3.977   3.235
 7780TIP3    H123285   3.409   3.948   3.321
 7780TIP3    H223286   3.532   3.980   3.240
 7781TIP3   OH223287   6.297   0.759   6.769
 7781TIP3    H123288   6.237   0.816   6.720
 7781TIP3    H223289   6.259   0.672   6.763
 7782TIP3   OH223290   7.225   5.745   1.657
 7782TIP3    H123291   7.166   5.813   1.624
 7782TIP3    H223292   7.258   5.779   1.740
 7783TIP3   OH223293   3.090   4.690   4.101
 7783TIP3    H123294   3.109   4.669   4.193
 7783TIP3    H223295   3.004   4.733   4.104
 7784TIP3   OH223296   4.584   7.797   5.358
 7784TIP3    H123297   4.520   7.863   5.382
 7784TIP3    H223298   4.546   7.753   5.282
 7785TIP3   OH223299   4.007   1.834   2.533
 7785TIP3    H123300   4.051   1.834   2.618
 7785TIP3    H223301   4.037   1.913   2.490
 7786TIP3   OH223302   1.065   3.681   1.552
 7786TIP3    H123303   1.158   3.670   1.534
 7786TIP3    H223304   1.023   3.606   1.510
 7787TIP3   OH223305   4.968   4.003   6.391
 7787TIP3    H123306   4.974   3.967   6.302
 7787TIP3    H223307   4.874   4.014   6.406
 7788TIP3   OH223308   4.385   1.382   2.058
 7788TIP3    H123309   4.392   1.287   2.060
 7788TIP3    H223310   4.310   1.399   2.001
 7789TIP3   OH223311   2.936   0.256   0.489
 7789TIP3    H123312   3.023   0.296   0.487
 7789TIP3    H223313   2.875   0.330   0.492
 7790TIP3   OH223314   1.121   2.242   0.290
 7790TIP3    H123315   1.153   2.153   0.272
 7790TIP3    H223316   1.171   2.269   0.368
 7791TIP3   OH223317   3.308   3.199   3.837
 7791TIP3    H123318   3.223   3.180   3.877
 7791TIP3    H223319   3.338   3.278   3.882
 7792TIP3   OH223320   0.436   1.228   5.104
 7792TIP3    H123321   0.362   1.288   5.104
 7792TIP3    H223322   0.456   1.213   5.196
 7793TIP3   OH223323   0.885   2.458   5.585
 7793TIP3    H123324   0.867   2.433   5.676
 7793TIP3    H223325   0.929   2.382   5.547
 7794TIP3   OH223326   5.983  -0.001   1.907
 7794TIP3    H123327   5.903  -0.013   1.855
 7794TIP3    H223328   5.979   0.090   1.936
 7795TIP3   OH223329   1.165   7.500   6.563
 7795TIP3    H123330   1.253   7.513   6.525
 7795TIP3    H223331   1.167   7.550   6.645
 7796TIP3   OH223332   7.158   3.793   1.996
 7796TIP3    H123333   7.064   3.812   1.985
 7796TIP3    H223334   7.200   3.839   1.923
 7797TIP3   OH223335   5.608   6.240   2.465
 7797TIP3    H123336   5.703   6.244   2.472
 7797TIP3    H223337   5.590   6.243   2.371
 7798TIP3   OH223338   4.096   4.390   1.699
 7798TIP3    H123339   4.038   4.419   1.629
 7798TIP3    H223340   4.040   4.388   1.777
 7799TIP3   OH223341   6.804   1.629   2.632
 7799TIP3    H123342   6.893   1.655   2.655
 7799TIP3    H223343   6.801   1.535   2.649
 7800TIP3   OH223344   6.893   2.851   6.637
 7800TIP3    H123345   6.865   2.761   6.624
 7800TIP3    H223346   6.915   2.883   6.550
 7801TIP3   OH223347   8.153   1.892   2.500
 7801TIP3    H123348   8.120   1.829   2.436
 7801TIP3    H223349   8.193   1.839   2.568
 7802TIP3   OH223350   3.608   4.624   0.070
 7802TIP3    H123351   3.518   4.645   0.098
 7802TIP3    H223352   3.663   4.679   0.126
 7803TIP3   OH223353   3.927   7.250   2.044
 7803TIP3    H123354   3.944   7.223   2.134
 7803TIP3    H223355   3.928   7.345   2.046
 7804TIP3   OH223356   3.697   2.362   6.755
 7804TIP3    H123357   3.701   2.357   6.659
 7804TIP3    H223358   3.697   2.456   6.773
 7805TIP3   OH223359   7.040   5.785   3.424
 7805TIP3    H123360   6.993   5.809   3.344
 7805TIP3    H223361   7.028   5.691   3.431
 7806TIP3   OH223362   6.136   7.308   3.559
 7806TIP3    H123363   6.221   7.352   3.556
 7806TIP3    H223364   6.074   7.375   3.531
 7807TIP3   OH223365   0.675   1.716   4.543
 7807TIP3    H123366   0.646   1.777   4.475
 7807TIP3    H223367   0.721   1.647   4.495
 7808TIP3   OH223368   6.665   0.558   3.026
 7808TIP3    H123369   6.571   0.561   3.040
 7808TIP3    H223370   6.688   0.467   3.044
 7809TIP3   OH223371   2.834   3.076   6.465
 7809TIP3    H123372   2.921   3.040   6.451
 7809TIP3    H223373   2.807   3.108   6.379
 7810TIP3   OH223374   0.170   4.381   3.010
 7810TIP3    H123375   0.145   4.416   2.924
 7810TIP3    H223376   0.107   4.421   3.071
 7811TIP3   OH223377   7.364   5.713   4.806
 7811TIP3    H123378   7.321   5.703   4.720
 7811TIP3    H223379   7.293   5.736   4.866
 7812TIP3   OH223380   5.881   3.570   3.368
 7812TIP3    H123381   5.869   3.591   3.275
 7812TIP3    H223382   5.797   3.535   3.396
 7813TIP3   OH223383   3.509   3.647   4.472
 7813TIP3    H123384   3.499   3.742   4.470
 7813TIP3    H223385   3.521   3.626   4.564
 7814TIP3   OH223386   4.095   4.549   0.704
 7814TIP3    H123387   4.008   4.578   0.732
 7814TIP3    H223388   4.091   4.454   0.710
 7815TIP3   OH223389   3.286   3.842   6.537
 7815TIP3    H123390   3.359   3.848   6.600
 7815TIP3    H223391   3.212   3.813   6.590
 7816TIP3   OH223392   2.934   7.812   2.548
 7816TIP3    H123393   2.890   7.740   2.594
 7816TIP3    H223394   3.016   7.774   2.517
 7817TIP3   OH223395   5.534   1.180   2.491
 7817TIP3    H123396   5.525   1.275   2.484
 7817TIP3    H223397   5.444   1.147   2.490
 7818TIP3   OH223398   1.207   0.482   1.356
 7818TIP3    H123399   1.285   0.456   1.404
 7818TIP3    H223400   1.225   0.572   1.329
 7819TIP3   OH223401   4.329   7.391   6.679
 7819TIP3    H123402   4.269   7.464   6.692
 7819TIP3    H223403   4.293   7.343   6.604
 7820TIP3   OH223404   0.459   4.768   3.608
 7820TIP3    H123405   0.417   4.728   3.684
 7820TIP3    H223406   0.550   4.781   3.636
 7821TIP3   OH223407   0.539   0.397   4.071
 7821TIP3    H123408   0.511   0.403   4.163
 7821TIP3    H223409   0.590   0.317   4.066
 7822TIP3   OH223410   5.325   4.329   1.394
 7822TIP3    H123411   5.280   4.338   1.310
 7822TIP3    H223412   5.290   4.249   1.432
 7823TIP3   OH223413   1.157   2.762   1.527
 7823TIP3    H123414   1.101   2.743   1.603
 7823TIP3    H223415   1.098   2.757   1.452
 7824TIP3   OH223416   5.737   1.081   2.292
 7824TIP3    H123417   5.735   0.986   2.287
 7824TIP3    H223418   5.670   1.104   2.356
 7825TIP3   OH223419   7.008   6.009   5.282
 7825TIP3    H123420   7.089   6.039   5.324
 7825TIP3    H223421   6.958   6.089   5.266
 7826TIP3   OH223422   1.860   4.058   1.967
 7826TIP3    H123423   1.891   3.978   1.925
 7826TIP3    H223424   1.785   4.029   2.020
 7827TIP3   OH223425   5.476   5.945   1.926
 7827TIP3    H123426   5.403   5.936   1.864
 7827TIP3    H223427   5.545   5.988   1.876
 7828TIP3   OH223428   6.648   6.534   1.669
 7828TIP3    H123429   6.600   6.459   1.704
 7828TIP3    H223430   6.586   6.607   1.673
 7829TIP3   OH223431   5.805   3.989   6.608
 7829TIP3    H123432   5.899   3.973   6.617
 7829TIP3    H223433   5.799   4.070   6.557
 7830TIP3   OH223434   7.590   5.828   5.404
 7830TIP3    H123435   7.590   5.798   5.495
 7830TIP3    H223436   7.498   5.830   5.379
 7831TIP3   OH223437   4.303   2.191   6.316
 7831TIP3    H123438   4.258   2.232   6.241
 7831TIP3    H223439   4.368   2.133   6.276
 7832TIP3   OH223440   2.540   6.356   5.005
 7832TIP3    H123441   2.453   6.322   4.983
 7832TIP3    H223442   2.573   6.296   5.072
 7833TIP3   OH223443   4.987   5.768   5.151
 7833TIP3    H123444   4.894   5.788   5.147
 7833TIP3    H223445   5.031   5.853   5.150
 7834TIP3   OH223446   7.409   3.575   5.129
 7834TIP3    H123447   7.363   3.594   5.047
 7834TIP3    H223448   7.460   3.654   5.146
 7835TIP3   OH223449   4.099   6.472   0.861
 7835TIP3    H123450   4.125   6.564   0.866
 7835TIP3    H223451   4.062   6.453   0.947
 7836TIP3   OH223452   3.689   5.491   3.175
 7836TIP3    H123453   3.744   5.483   3.253
 7836TIP3    H223454   3.752   5.506   3.104
 7837TIP3   OH223455   3.771   4.227   4.572
 7837TIP3    H123456   3.680   4.243   4.550
 7837TIP3    H223457   3.808   4.186   4.494
 7838TIP3   OH223458   5.354   7.018   5.832
 7838TIP3    H123459   5.392   6.948   5.779
 7838TIP3    H223460   5.274   7.044   5.785
 7839TIP3   OH223461   7.369   4.642   4.279
 7839TIP3    H123462   7.337   4.698   4.350
 7839TIP3    H223463   7.291   4.607   4.238
 7840TIP3   OH223464   0.240   5.336   5.506
 7840TIP3    H123465   0.331   5.363   5.489
 7840TIP3    H223466   0.212   5.295   5.424
 7841TIP3   OH223467   5.390   6.830   4.697
 7841TIP3    H123468   5.437   6.899   4.745
 7841TIP3    H223469   5.297   6.849   4.714
 7842TIP3   OH223470   2.031   4.836   1.528
 7842TIP3    H123471   2.080   4.917   1.518
 7842TIP3    H223472   2.060   4.800   1.612
 7843TIP3   OH223473   6.597   3.181   1.649
 7843TIP3    H123474   6.591   3.119   1.576
 7843TIP3    H223475   6.506   3.190   1.680
 7844TIP3   OH223476   6.381   5.327   6.712
 7844TIP3    H123477   6.399   5.364   6.799
 7844TIP3    H223478   6.288   5.305   6.714
 7845TIP3   OH223479   7.049   0.578   3.807
 7845TIP3    H123480   7.046   0.509   3.873
 7845TIP3    H223481   7.140   0.582   3.779
 7846TIP3   OH223482   4.759   7.286   6.218
 7846TIP3    H123483   4.682   7.330   6.253
 7846TIP3    H223484   4.731   7.196   6.204
 7847TIP3   OH223485   2.535   2.501   4.209
 7847TIP3    H123486   2.488   2.424   4.178
 7847TIP3    H223487   2.507   2.512   4.300
 7848TIP3   OH223488   7.432   2.925   5.487
 7848TIP3    H123489   7.442   3.011   5.446
 7848TIP3    H223490   7.520   2.901   5.515
 7849TIP3   OH223491   2.638   2.740   3.451
 7849TIP3    H123492   2.609   2.665   3.502
 7849TIP3    H223493   2.653   2.705   3.363
 7850TIP3   OH223494   6.838   0.376   2.592
 7850TIP3    H123495   6.802   0.306   2.648
 7850TIP3    H223496   6.921   0.399   2.633
 7851TIP3   OH223497   0.178   5.322   1.851
 7851TIP3    H123498   0.221   5.403   1.878
 7851TIP3    H223499   0.088   5.331   1.883
 7852TIP3   OH223500   6.783   1.177   6.292
 7852TIP3    H123501   6.867   1.148   6.256
 7852TIP3    H223502   6.793   1.167   6.387
 7853TIP3   OH223503   7.308   0.799   1.895
 7853TIP3    H123504   7.216   0.772   1.902
 7853TIP3    H223505   7.316   0.873   1.956
 7854TIP3   OH223506   6.545   1.575   2.399
 7854TIP3    H123507   6.476   1.635   2.372
 7854TIP3    H223508   6.596   1.560   2.320
 7855TIP3   OH223509   5.439   7.577   5.303
 7855TIP3    H123510   5.502   7.566   5.231
 7855TIP3    H223511   5.444   7.494   5.351
 7856TIP3   OH223512   0.886   2.484   3.893
 7856TIP3    H123513   0.941   2.451   3.822
 7856TIP3    H223514   0.867   2.407   3.947
 7857TIP3   OH223515   4.981   2.605   1.991
 7857TIP3    H123516   4.987   2.700   2.001
 7857TIP3    H223517   4.887   2.586   1.993
 7858TIP3   OH223518   4.061   6.478   6.252
 7858TIP3    H123519   4.063   6.565   6.211
 7858TIP3    H223520   4.153   6.454   6.264
 7859TIP3   OH223521   6.172   4.249   5.497
 7859TIP3    H123522   6.236   4.198   5.546
 7859TIP3    H223523   6.178   4.215   5.408
 7860TIP3   OH223524   0.248   1.948   3.638
 7860TIP3    H123525   0.208   2.034   3.629
 7860TIP3    H223526   0.198   1.905   3.707
 7861TIP3   OH223527   1.366   4.035   0.406
 7861TIP3    H123528   1.318   4.053   0.487
 7861TIP3    H223529   1.455   4.065   0.423
 7862TIP3   OH223530   7.275   3.171   0.401
 7862TIP3    H123531   7.188   3.191   0.438
 7862TIP3    H223532   7.258   3.147   0.310
 7863TIP3   OH223533   0.556   4.437   4.925
 7863TIP3    H123534   0.574   4.371   4.992
 7863TIP3    H223535   0.635   4.437   4.870
 7864TIP3   OH223536   6.354   7.427   3.265
 7864TIP3    H123537   6.382   7.336   3.277
 7864TIP3    H223538   6.360   7.466   3.352
 7865TIP3   OH223539   7.054   7.658   2.311
 7865TIP3    H123540   7.108   7.635   2.236
 7865TIP3    H223541   7.027   7.574   2.348
 7866TIP3   OH223542   1.200   2.729   2.507
 7866TIP3    H123543   1.197   2.633   2.504
 7866TIP3    H223544   1.140   2.757   2.438
 7867TIP3   OH223545   7.571   4.877   5.457
 7867TIP3    H123546   7.649   4.825   5.439
 7867TIP3    H223547   7.600   4.968   5.449
 7868TIP3   OH223548   3.880   2.277   1.002
 7868TIP3    H123549   3.940   2.243   1.068
 7868TIP3    H223550   3.912   2.365   0.984
 7869TIP3   OH223551   4.904   4.397   0.589
 7869TIP3    H123552   4.873   4.421   0.502
 7869TIP3    H223553   4.828   4.355   0.631
 7870TIP3   OH223554   6.622   6.175   5.438
 7870TIP3    H123555   6.636   6.189   5.344
 7870TIP3    H223556   6.529   6.192   5.451
 7871TIP3   OH223557   0.288   3.134   3.361
 7871TIP3    H123558   0.255   3.082   3.433
 7871TIP3    H223559   0.294   3.074   3.287
 7872TIP3   OH223560   1.067   7.472   0.920
 7872TIP3    H123561   1.063   7.392   0.868
 7872TIP3    H223562   1.000   7.529   0.882
 7873TIP3   OH223563   5.515   5.494   6.578
 7873TIP3    H123564   5.444   5.454   6.628
 7873TIP3    H223565   5.592   5.443   6.600
 7874TIP3   OH223566   6.932   5.743   5.249
 7874TIP3    H123567   6.989   5.819   5.257
 7874TIP3    H223568   6.953   5.689   5.326
 7875TIP3   OH223569   1.164   3.051  -0.013
 7875TIP3    H123570   1.139   2.973   0.037
 7875TIP3    H223571   1.151   3.123   0.048
 7876TIP3   OH223572   7.165   7.711   4.998
 7876TIP3    H123573   7.127   7.795   4.972
 7876TIP3    H223574   7.259   7.721   4.982
 7877TIP3   OH223575   2.560   0.929   4.581
 7877TIP3    H123576   2.542   1.000   4.642
 7877TIP3    H223577   2.541   0.966   4.495
 7878TIP3   OH223578   0.527   1.477   1.917
 7878TIP3    H123579   0.530   1.554   1.975
 7878TIP3    H223580   0.465   1.501   1.848
 7879TIP3   OH223581   5.094   5.735   3.387
 7879TIP3    H123582   5.022   5.683   3.421
 7879TIP3    H223583   5.119   5.692   3.305
 7880TIP3   OH223584   2.334   6.316   4.437
 7880TIP3    H123585   2.280   6.241   4.462
 7880TIP3    H223586   2.279   6.392   4.456
 7881TIP3   OH223587   4.768   5.957   4.642
 7881TIP3    H123588   4.831   6.029   4.637
 7881TIP3    H223589   4.806   5.897   4.706
 7882TIP3   OH223590   1.129   2.254   6.538
 7882TIP3    H123591   1.058   2.193   6.518
 7882TIP3    H223592   1.131   2.313   6.463
 7883TIP3   OH223593   1.552   1.327   5.650
 7883TIP3    H123594   1.585   1.393   5.710
 7883TIP3    H223595   1.575   1.244   5.690
 7884TIP3   OH223596   1.134   3.500   4.984
 7884TIP3    H123597   1.113   3.569   5.047
 7884TIP3    H223598   1.148   3.547   4.901
 7885TIP3   OH223599   0.528   3.985   2.171
 7885TIP3    H123600   0.501   3.940   2.251
 7885TIP3    H223601   0.452   3.977   2.113
 7886TIP3   OH223602   3.123   7.502   1.741
 7886TIP3    H123603   3.069   7.507   1.662
 7886TIP3    H223604   3.188   7.572   1.729
 7887TIP3   OH223605   8.222   0.230   4.807
 7887TIP3    H123606   8.201   0.244   4.715
 7887TIP3    H223607   8.170   0.153   4.832
 7888TIP3   OH223608   6.978   0.164   4.652
 7888TIP3    H123609   6.909   0.139   4.714
 7888TIP3    H223610   7.055   0.180   4.706
 7889TIP3   OH223611   8.215   4.235   1.456
 7889TIP3    H123612   8.269   4.170   1.501
 7889TIP3    H223613   8.153   4.265   1.523
 7890TIP3   OH223614   4.833   3.811   1.928
 7890TIP3    H123615   4.811   3.719   1.943
 7890TIP3    H223616   4.791   3.857   2.001
 7891TIP3   OH223617   1.099   3.609   0.115
 7891TIP3    H123618   1.016   3.653   0.102
 7891TIP3    H223619   1.132   3.642   0.198
 7892TIP3   OH223620   4.714   0.656   3.618
 7892TIP3    H123621   4.797   0.644   3.664
 7892TIP3    H223622   4.655   0.693   3.683
 7893TIP3   OH223623   2.279   3.917   1.116
 7893TIP3    H123624   2.241   3.926   1.029
 7893TIP3    H223625   2.203   3.924   1.175
 7894TIP3   OH223626   4.982   7.637   5.851
 7894TIP3    H123627   5.078   7.638   5.856
 7894TIP3    H223628   4.956   7.571   5.916
 7895TIP3   OH223629   3.158   2.836   5.208
 7895TIP3    H123630   3.133   2.927   5.197
 7895TIP3    H223631   3.227   2.822   5.143
 7896TIP3   OH223632   1.114   0.971   3.244
 7896TIP3    H123633   1.044   1.007   3.298
 7896TIP3    H223634   1.195   1.002   3.286
 7897TIP3   OH223635   0.507   6.605   1.053
 7897TIP3    H123636   0.453   6.588   1.130
 7897TIP3    H223637   0.596   6.579   1.080
 7898TIP3   OH223638   0.154   7.733   5.257
 7898TIP3    H123639   0.079   7.762   5.205
 7898TIP3    H223640   0.121   7.660   5.309
 7899TIP3   OH223641   2.224   2.219   4.915
 7899TIP3    H123642   2.219   2.206   5.009
 7899TIP3    H223643   2.202   2.311   4.902
 7900TIP3   OH223644   0.322   6.064   2.824
 7900TIP3    H123645   0.333   6.138   2.884
 7900TIP3    H223646   0.403   6.062   2.773
 7901TIP3   OH223647   1.477   0.175   3.134
 7901TIP3    H123648   1.483   0.146   3.043
 7901TIP3    H223649   1.498   0.269   3.130
 7902TIP3   OH223650   5.958   2.194   1.352
 7902TIP3    H123651   5.974   2.272   1.300
 7902TIP3    H223652   5.953   2.122   1.289
 7903TIP3   OH223653   3.478   5.294   5.947
 7903TIP3    H123654   3.415   5.329   6.010
 7903TIP3    H223655   3.541   5.246   6.001
 7904TIP3   OH223656   4.868   7.267   2.609
 7904TIP3    H123657   4.856   7.285   2.516
 7904TIP3    H223658   4.892   7.352   2.646
 7905TIP3   OH223659   6.812   4.502   0.552
 7905TIP3    H123660   6.828   4.590   0.519
 7905TIP3    H223661   6.900   4.465   0.564
 7906TIP3   OH223662   2.309   0.890   5.616
 7906TIP3    H123663   2.222   0.865   5.586
 7906TIP3    H223664   2.346   0.809   5.652
 7907TIP3   OH223665   5.411   6.166   2.248
 7907TIP3    H123666   5.341   6.153   2.185
 7907TIP3    H223667   5.385   6.114   2.324
 7908TIP3   OH223668   5.544   0.822   3.191
 7908TIP3    H123669   5.606   0.803   3.262
 7908TIP3    H223670   5.538   0.918   3.190
 7909TIP3   OH223671   5.740   6.030   3.269
 7909TIP3    H123672   5.664   6.074   3.230
 7909TIP3    H223673   5.807   6.032   3.200
 7910TIP3   OH223674   3.680   7.549   1.252
 7910TIP3    H123675   3.688   7.478   1.316
 7910TIP3    H223676   3.755   7.536   1.193
 7911TIP3   OH223677   6.447   6.960   5.653
 7911TIP3    H123678   6.392   7.031   5.687
 7911TIP3    H223679   6.509   6.942   5.723
 7912TIP3   OH223680   7.600   0.127   3.884
 7912TIP3    H123681   7.600   0.039   3.922
 7912TIP3    H223682   7.640   0.116   3.798
 7913TIP3   OH223683   4.836   4.823   6.029
 7913TIP3    H123684   4.915   4.876   6.024
 7913TIP3    H223685   4.775   4.863   5.968
 7914TIP3   OH223686   4.530   6.609   2.904
 7914TIP3    H123687   4.567   6.545   2.843
 7914TIP3    H223688   4.439   6.618   2.877
 7915TIP3   OH223689   0.706   1.799   5.075
 7915TIP3    H123690   0.713   1.883   5.120
 7915TIP3    H223691   0.748   1.737   5.134
 7916TIP3   OH223692   5.606   4.154   3.033
 7916TIP3    H123693   5.655   4.121   2.957
 7916TIP3    H223694   5.627   4.247   3.037
 7917TIP3   OH223695   1.614   5.003   0.797
 7917TIP3    H123696   1.610   4.910   0.775
 7917TIP3    H223697   1.540   5.016   0.857
 7918TIP3   OH223698   2.311   1.761   3.734
 7918TIP3    H123699   2.350   1.712   3.662
 7918TIP3    H223700   2.216   1.758   3.718
 7919TIP3   OH223701   3.544   1.115   4.611
 7919TIP3    H123702   3.519   1.066   4.532
 7919TIP3    H223703   3.461   1.145   4.647
 7920TIP3   OH223704   1.651   0.782   1.652
 7920TIP3    H123705   1.593   0.774   1.728
 7920TIP3    H223706   1.592   0.782   1.577
 7921TIP3   OH223707   2.511   6.095   2.408
 7921TIP3    H123708   2.528   6.003   2.387
 7921TIP3    H223709   2.500   6.096   2.503
 7922TIP3   OH223710   6.249   3.655   1.843
 7922TIP3    H123711   6.286   3.697   1.765
 7922TIP3    H223712   6.297   3.694   1.916
 7923TIP3   OH223713   4.707   0.545   3.026
 7923TIP3    H123714   4.689   0.611   2.959
 7923TIP3    H223715   4.802   0.539   3.029
 7924TIP3   OH223716   1.633   7.124   6.472
 7924TIP3    H123717   1.673   7.189   6.529
 7924TIP3    H223718   1.707   7.080   6.431
 7925TIP3   OH223719   2.254   1.106   0.705
 7925TIP3    H123720   2.185   1.040   0.702
 7925TIP3    H223721   2.252   1.148   0.619
 7926TIP3   OH223722   4.651   5.235   3.250
 7926TIP3    H123723   4.570   5.188   3.230
 7926TIP3    H223724   4.669   5.286   3.172
 7927TIP3   OH223725   3.363   3.468   2.966
 7927TIP3    H123726   3.455   3.466   2.937
 7927TIP3    H223727   3.331   3.380   2.950
 7928TIP3   OH223728   5.297   5.297   3.949
 7928TIP3    H123729   5.232   5.294   3.879
 7928TIP3    H223730   5.375   5.336   3.909
 7929TIP3   OH223731   2.683   7.137   4.269
 7929TIP3    H123732   2.743   7.204   4.301
 7929TIP3    H223733   2.607   7.186   4.238
 7930TIP3   OH223734   3.573   2.674   3.406
 7930TIP3    H123735   3.556   2.763   3.439
 7930TIP3    H223736   3.566   2.618   3.483
 7931TIP3   OH223737   4.481   2.795   0.735
 7931TIP3    H123738   4.500   2.760   0.822
 7931TIP3    H223739   4.443   2.721   0.687
 7932TIP3   OH223740   2.509   1.573   1.262
 7932TIP3    H123741   2.582   1.547   1.319
 7932TIP3    H223742   2.475   1.490   1.227
 7933TIP3   OH223743   6.578   5.946   2.390
 7933TIP3    H123744   6.512   5.881   2.415
 7933TIP3    H223745   6.656   5.922   2.441
 7934TIP3   OH223746   4.123   2.115   6.519
 7934TIP3    H123747   4.206   2.138   6.475
 7934TIP3    H223748   4.119   2.020   6.513
 7935TIP3   OH223749   1.937   5.672   4.929
 7935TIP3    H123750   1.961   5.764   4.935
 7935TIP3    H223751   1.842   5.671   4.941
 7936TIP3   OH223752   7.151   7.722   1.583
 7936TIP3    H123753   7.146   7.700   1.676
 7936TIP3    H223754   7.117   7.811   1.577
 7937TIP3   OH223755   5.760   2.369   0.873
 7937TIP3    H123756   5.839   2.319   0.857
 7937TIP3    H223757   5.784   2.459   0.854
 7938TIP3   OH223758   5.060   6.482   5.332
 7938TIP3    H123759   5.076   6.500   5.240
 7938TIP3    H223760   5.123   6.412   5.355
 7939TIP3   OH223761   3.366   5.982   2.706
 7939TIP3    H123762   3.356   5.960   2.613
 7939TIP3    H223763   3.429   5.919   2.739
 7940TIP3   OH223764   5.941   2.800   6.665
 7940TIP3    H123765   5.915   2.836   6.750
 7940TIP3    H223766   6.006   2.734   6.685
 7941TIP3   OH223767   5.811   7.134   4.234
 7941TIP3    H123768   5.832   7.061   4.176
 7941TIP3    H223769   5.725   7.165   4.204
 7942TIP3   OH223770   0.878   1.415   0.342
 7942TIP3    H123771   0.899   1.400   0.434
 7942TIP3    H223772   0.962   1.416   0.297
 7943TIP3   OH223773   7.192   5.620   2.105
 7943TIP3    H123774   7.253   5.560   2.062
 7943TIP3    H223775   7.118   5.565   2.131
 7944TIP3   OH223776   2.796   3.697   3.623
 7944TIP3    H123777   2.742   3.688   3.545
 7944TIP3    H223778   2.849   3.617   3.625
 7945TIP3   OH223779   4.186   4.318   0.562
 7945TIP3    H123780   4.229   4.324   0.477
 7945TIP3    H223781   4.235   4.250   0.609
 7946TIP3   OH223782   5.225   7.088   4.238
 7946TIP3    H123783   5.201   7.020   4.301
 7946TIP3    H223784   5.194   7.170   4.277
 7947TIP3   OH223785   3.833   1.696   2.707
 7947TIP3    H123786   3.875   1.731   2.628
 7947TIP3    H223787   3.741   1.719   2.697
 7948TIP3   OH223788   7.697   1.349   5.075
 7948TIP3    H123789   7.685   1.295   5.153
 7948TIP3    H223790   7.667   1.436   5.101
 7949TIP3   OH223791   3.117   0.668   4.416
 7949TIP3    H123792   3.051   0.699   4.353
 7949TIP3    H223793   3.149   0.748   4.458
 7950TIP3   OH223794   2.544   3.164   1.702
 7950TIP3    H123795   2.632   3.196   1.723
 7950TIP3    H223796   2.555   3.117   1.619
 7951TIP3   OH223797   5.981   5.300   1.921
 7951TIP3    H123798   5.973   5.212   1.959
 7951TIP3    H223799   5.977   5.359   1.997
 7952TIP3   OH223800   4.167   3.148   0.772
 7952TIP3    H123801   4.150   3.227   0.824
 7952TIP3    H223802   4.184   3.080   0.836
 7953TIP3   OH223803   0.184   6.492   3.337
 7953TIP3    H123804   0.259   6.544   3.364
 7953TIP3    H223805   0.114   6.517   3.397
 7954TIP3   OH223806   7.706   7.097   1.018
 7954TIP3    H123807   7.748   7.173   0.976
 7954TIP3    H223808   7.659   7.134   1.092
 7955TIP3   OH223809   1.565   7.671   3.863
 7955TIP3    H123810   1.535   7.660   3.773
 7955TIP3    H223811   1.609   7.755   3.865
 7956TIP3   OH223812   2.929   2.684   3.616
 7956TIP3    H123813   2.895   2.619   3.555
 7956TIP3    H223814   2.876   2.672   3.695
 7957TIP3   OH223815   2.612   2.454   6.162
 7957TIP3    H123816   2.581   2.514   6.094
 7957TIP3    H223817   2.656   2.384   6.115
 7958TIP3   OH223818   2.299   6.541   6.598
 7958TIP3    H123819   2.384   6.573   6.630
 7958TIP3    H223820   2.313   6.527   6.505
 7959TIP3   OH223821   5.794   1.724   3.210
 7959TIP3    H123822   5.850   1.801   3.226
 7959TIP3    H223823   5.705   1.759   3.212
 7960TIP3   OH223824   2.891   4.434   1.727
 7960TIP3    H123825   2.850   4.521   1.732
 7960TIP3    H223826   2.846   4.382   1.793
 7961TIP3   OH223827   3.096   5.666   5.106
 7961TIP3    H123828   3.106   5.579   5.146
 7961TIP3    H223829   3.032   5.653   5.036
 7962TIP3   OH223830   5.845   5.007   2.200
 7962TIP3    H123831   5.930   4.985   2.161
 7962TIP3    H223832   5.803   5.062   2.134
 7963TIP3   OH223833   0.861   1.849   0.634
 7963TIP3    H123834   0.893   1.769   0.591
 7963TIP3    H223835   0.900   1.920   0.583
 7964TIP3   OH223836   1.870   0.531   5.978
 7964TIP3    H123837   1.842   0.529   5.887
 7964TIP3    H223838   1.805   0.585   6.023
 7965TIP3   OH223839   4.136   4.011   4.959
 7965TIP3    H123840   4.144   4.016   4.864
 7965TIP3    H223841   4.222   3.981   4.989
 7966TIP3   OH223842   7.334   4.053   1.952
 7966TIP3    H123843   7.301   4.019   2.035
 7966TIP3    H223844   7.365   3.975   1.905
 7967TIP3   OH223845   0.261   2.520   5.777
 7967TIP3    H123846   0.235   2.597   5.828
 7967TIP3    H223847   0.342   2.546   5.734
 7968TIP3   OH223848   2.657   2.641   2.854
 7968TIP3    H123849   2.598   2.621   2.927
 7968TIP3    H223850   2.616   2.600   2.778
 7969TIP3   OH223851   6.127   5.220   4.281
 7969TIP3    H123852   6.161   5.167   4.353
 7969TIP3    H223853   6.047   5.259   4.316
 7970TIP3   OH223854   7.509   1.837   4.740
 7970TIP3    H123855   7.540   1.865   4.654
 7970TIP3    H223856   7.588   1.806   4.785
 7971TIP3   OH223857   5.717   3.207   1.054
 7971TIP3    H123858   5.740   3.277   1.116
 7971TIP3    H223859   5.770   3.132   1.082
 7972TIP3   OH223860   3.084   0.185   1.066
 7972TIP3    H123861   3.167   0.168   1.110
 7972TIP3    H223862   3.109   0.202   0.975
 7973TIP3   OH223863   0.898   7.564   3.217
 7973TIP3    H123864   0.815   7.596   3.253
 7973TIP3    H223865   0.888   7.574   3.122
 7974TIP3   OH223866   2.009   4.745   4.643
 7974TIP3    H123867   1.974   4.803   4.576
 7974TIP3    H223868   2.074   4.691   4.598
 7975TIP3   OH223869   5.340   5.093   0.353
 7975TIP3    H123870   5.317   5.008   0.389
 7975TIP3    H223871   5.272   5.152   0.386
 7976TIP3   OH223872   7.768   0.513   2.196
 7976TIP3    H123873   7.863   0.504   2.205
 7976TIP3    H223874   7.747   0.594   2.242
 7977TIP3   OH223875   7.125   5.484   1.580
 7977TIP3    H123876   7.149   5.575   1.600
 7977TIP3    H223877   7.132   5.439   1.664
 7978TIP3   OH223878   5.195   1.732   3.782
 7978TIP3    H123879   5.224   1.651   3.741
 7978TIP3    H223880   5.134   1.703   3.851
 7979TIP3   OH223881   5.423   1.598   3.957
 7979TIP3    H123882   5.436   1.583   4.050
 7979TIP3    H223883   5.510   1.592   3.919
 7980TIP3   OH223884   6.849   3.369   1.967
 7980TIP3    H123885   6.898   3.293   1.937
 7980TIP3    H223886   6.900   3.444   1.937
 7981TIP3   OH223887   5.558   3.315   5.242
 7981TIP3    H123888   5.609   3.298   5.163
 7981TIP3    H223889   5.519   3.401   5.227
 7982TIP3   OH223890   7.644   2.599   1.768
 7982TIP3    H123891   7.737   2.603   1.789
 7982TIP3    H223892   7.640   2.616   1.674
 7983TIP3   OH223893   7.294   3.768   0.160
 7983TIP3    H123894   7.355   3.724   0.219
 7983TIP3    H223895   7.265   3.845   0.208
 7984TIP3   OH223896   5.106   6.699   3.381
 7984TIP3    H123897   5.013   6.702   3.360
 7984TIP3    H223898   5.122   6.777   3.435
 7985TIP3   OH223899   1.771   6.429   2.142
 7985TIP3    H123900   1.796   6.437   2.050
 7985TIP3    H223901   1.839   6.374   2.180
 7986TIP3   OH223902   7.895   1.156   1.144
 7986TIP3    H123903   7.823   1.197   1.096
 7986TIP3    H223904   7.858   1.131   1.228
 7987TIP3   OH223905   5.880   1.449   0.422
 7987TIP3    H123906   5.957   1.463   0.367
 7987TIP3    H223907   5.904   1.376   0.478
 7988TIP3   OH223908   7.164   7.775   6.120
 7988TIP3    H123909   7.236   7.837   6.130
 7988TIP3    H223910   7.095   7.810   6.176
 7989TIP3   OH223911   8.175   5.946   6.459
 7989TIP3    H123912   8.155   5.877   6.396
 7989TIP3    H223913   8.232   5.904   6.523
 7990TIP3   OH223914   3.633   1.480   6.423
 7990TIP3    H123915   3.583   1.456   6.345
 7990TIP3    H223916   3.607   1.416   6.489
 7991TIP3   OH223917   8.126   3.860   4.172
 7991TIP3    H123918   8.157   3.918   4.102
 7991TIP3    H223919   8.070   3.915   4.226
 7992TIP3   OH223920   6.189   7.385   4.716
 7992TIP3    H123921   6.222   7.374   4.805
 7992TIP3    H223922   6.142   7.469   4.718
 7993TIP3   OH223923   4.968   2.085   2.756
 7993TIP3    H123924   4.993   2.145   2.686
 7993TIP3    H223925   4.890   2.125   2.795
 7994TIP3   OH223926   2.964   7.411   5.177
 7994TIP3    H123927   2.886   7.360   5.201
 7994TIP3    H223928   3.023   7.346   5.139
 7995TIP3   OH223929   6.813   2.884   4.605
 7995TIP3    H123930   6.738   2.936   4.635
 7995TIP3    H223931   6.845   2.930   4.528
 7996TIP3   OH223932   4.508   4.154   2.389
 7996TIP3    H123933   4.575   4.209   2.431
 7996TIP3    H223934   4.434   4.158   2.449
 7997TIP3   OH223935   1.041   1.378   4.520
 7997TIP3    H123936   0.958   1.381   4.569
 7997TIP3    H223937   1.107   1.402   4.585
 7998TIP3   OH223938   3.848   0.242   3.627
 7998TIP3    H123939   3.756   0.216   3.632
 7998TIP3    H223940   3.872   0.226   3.535
 7999TIP3   OH223941   6.366   2.122   0.378
 7999TIP3    H123942   6.308   2.132   0.302
 7999TIP3    H223943   6.392   2.030   0.377
 8000TIP3   OH223944   3.439   6.281   6.344
 8000TIP3    H123945   3.407   6.193   6.364
 8000TIP3    H223946   3.408   6.298   6.255
 8001TIP3   OH223947   2.228   0.042   2.389
 8001TIP3    H123948   2.270  -0.042   2.372
 8001TIP3    H223949   2.257   0.099   2.317
 8002TIP3   OH223950   3.371   0.445   5.166
 8002TIP3    H123951   3.383   0.532   5.129
 8002TIP3    H223952   3.458   0.406   5.164
 8003TIP3   OH223953   7.331   5.156   5.564
 8003TIP3    H123954   7.390   5.230   5.551
 8003TIP3    H223955   7.384   5.091   5.610
 8004TIP3   OH223956   7.729   3.271   4.222
 8004TIP3    H123957   7.668   3.312   4.161
 8004TIP3    H223958   7.781   3.212   4.168
 8005TIP3   OH223959   1.835   0.790   0.565
 8005TIP3    H123960   1.879   0.790   0.480
 8005TIP3    H223961   1.743   0.806   0.543
 8006TIP3   OH223962   1.891   0.265   4.749
 8006TIP3    H123963   1.825   0.273   4.817
 8006TIP3    H223964   1.855   0.313   4.674
 8007TIP3   OH223965   1.650   7.194   4.248
 8007TIP3    H123966   1.617   7.197   4.158
 8007TIP3    H223967   1.582   7.237   4.300
 8008TIP3   OH223968   1.279   6.549   3.733
 8008TIP3    H123969   1.323   6.525   3.815
 8008TIP3    H223970   1.238   6.468   3.704
 8009TIP3   OH223971   2.055   7.533   0.995
 8009TIP3    H123972   2.002   7.506   1.070
 8009TIP3    H223973   2.095   7.452   0.963
 8010TIP3   OH223974   7.234   0.842   4.277
 8010TIP3    H123975   7.223   0.756   4.318
 8010TIP3    H223976   7.262   0.822   4.188
 8011TIP3   OH223977   1.345   0.848   0.192
 8011TIP3    H123978   1.277   0.812   0.249
 8011TIP3    H223979   1.330   0.807   0.107
 8012TIP3   OH223980   2.107   5.000   1.916
 8012TIP3    H123981   2.122   5.031   2.006
 8012TIP3    H223982   2.122   5.077   1.862
 8013TIP3   OH223983   6.353   1.758   6.567
 8013TIP3    H123984   6.383   1.754   6.476
 8013TIP3    H223985   6.356   1.668   6.598
 8014TIP3   OH223986   6.221   4.854   6.720
 8014TIP3    H123987   6.184   4.791   6.658
 8014TIP3    H223988   6.233   4.934   6.669
 8015TIP3   OH223989   7.708   4.485   3.200
 8015TIP3    H123990   7.791   4.495   3.248
 8015TIP3    H223991   7.709   4.393   3.171
 8016TIP3   OH223992   3.593   2.810   2.908
 8016TIP3    H123993   3.579   2.717   2.888
 8016TIP3    H223994   3.631   2.846   2.828
 8017TIP3   OH223995   2.445   1.693   6.228
 8017TIP3    H123996   2.361   1.653   6.202
 8017TIP3    H223997   2.509   1.655   6.168
 8018TIP3   OH223998   6.880   7.756   3.190
 8018TIP3    H123999   6.893   7.846   3.160
 8018TIP3    H224000   6.887   7.761   3.285
 8019TIP3   OH224001   1.671   4.667   4.477
 8019TIP3    H124002   1.657   4.726   4.403
 8019TIP3    H224003   1.599   4.687   4.537
 8020TIP3   OH224004   3.835   1.967   4.690
 8020TIP3    H124005   3.801   1.898   4.632
 8020TIP3    H224006   3.822   2.048   4.641
 8021TIP3   OH224007   3.427   0.947   4.440
 8021TIP3    H124008   3.462   0.906   4.361
 8021TIP3    H224009   3.404   0.873   4.497
 8022TIP3   OH224010   4.698   0.942   3.752
 8022TIP3    H124011   4.688   1.016   3.812
 8022TIP3    H224012   4.609   0.920   3.725
 8023TIP3   OH224013   6.805   4.445   3.472
 8023TIP3    H124014   6.814   4.512   3.540
 8023TIP3    H224015   6.711   4.432   3.464
 8024TIP3   OH224016   4.518   4.351   0.446
 8024TIP3    H124017   4.466   4.299   0.385
 8024TIP3    H224018   4.591   4.386   0.393
 8025TIP3   OH224019   2.851   1.514   4.663
 8025TIP3    H124020   2.908   1.543   4.735
 8025TIP3    H224021   2.780   1.578   4.663
 8026TIP3   OH224022   2.073   4.413   2.324
 8026TIP3    H124023   2.001   4.393   2.265
 8026TIP3    H224024   2.060   4.504   2.349
 8027TIP3   OH224025   2.139   5.015   3.509
 8027TIP3    H124026   2.050   4.992   3.481
 8027TIP3    H224027   2.196   4.963   3.453
 8028TIP3   OH224028   1.453   2.766   0.031
 8028TIP3    H124029   1.449   2.672   0.046
 8028TIP3    H224030   1.542   2.791   0.059
 8029TIP3   OH224031   5.791   7.297   1.385
 8029TIP3    H124032   5.745   7.338   1.312
 8029TIP3    H224033   5.793   7.204   1.364
 8030TIP3   OH224034   7.170   1.125   3.377
 8030TIP3    H124035   7.100   1.129   3.312
 8030TIP3    H224036   7.250   1.141   3.327
 8031TIP3   OH224037   8.066   1.852   5.812
 8031TIP3    H124038   8.043   1.824   5.723
 8031TIP3    H224039   8.016   1.932   5.825
 8032TIP3   OH224040   7.958   2.805   2.964
 8032TIP3    H124041   7.881   2.778   2.913
 8032TIP3    H224042   8.011   2.725   2.971
 8033TIP3   OH224043   5.082   6.426   0.528
 8033TIP3    H124044   5.043   6.343   0.556
 8033TIP3    H224045   5.117   6.464   0.608
 8034TIP3   OH224046   2.823   7.679   5.014
 8034TIP3    H124047   2.795   7.612   5.078
 8034TIP3    H224048   2.914   7.656   4.995
 8035TIP3   OH224049   7.971   0.038   0.446
 8035TIP3    H124050   7.984  -0.013   0.527
 8035TIP3    H224051   7.893   0.090   0.464
 8036TIP3   OH224052   4.648   2.376   6.191
 8036TIP3    H124053   4.682   2.316   6.125
 8036TIP3    H224054   4.714   2.376   6.260
 8037TIP3   OH224055   2.244   3.080   6.189
 8037TIP3    H124056   2.244   3.173   6.170
 8037TIP3    H224057   2.321   3.046   6.142
 8038TIP3   OH224058   2.643   4.811   0.256
 8038TIP3    H124059   2.738   4.807   0.244
 8038TIP3    H224060   2.608   4.748   0.193
 8039TIP3   OH224061   7.199   2.909   4.222
 8039TIP3    H124062   7.137   2.897   4.151
 8039TIP3    H224063   7.271   2.960   4.184
 8040TIP3   OH224064  -0.017   3.437   1.473
 8040TIP3    H124065   0.034   3.490   1.412
 8040TIP3    H224066   0.004   3.347   1.450
 8041TIP3   OH224067   6.085   0.309   3.854
 8041TIP3    H124068   6.080   0.320   3.759
 8041TIP3    H224069   6.008   0.354   3.888
 8042TIP3   OH224070   1.608   0.380   3.363
 8042TIP3    H124071   1.627   0.351   3.273
 8042TIP3    H224072   1.694   0.387   3.404
 8043TIP3   OH224073   3.901   2.057   0.770
 8043TIP3    H124074   3.882   2.135   0.823
 8043TIP3    H224075   3.819   2.040   0.723
 8044TIP3   OH224076   0.954   3.395   1.961
 8044TIP3    H124077   0.973   3.468   1.903
 8044TIP3    H224078   0.996   3.320   1.920
 8045TIP3   OH224079   3.984   5.681   6.270
 8045TIP3    H124080   4.009   5.672   6.362
 8045TIP3    H224081   3.919   5.752   6.269
 8046TIP3   OH224082   2.662   7.776   4.476
 8046TIP3    H124083   2.695   7.863   4.453
 8046TIP3    H224084   2.644   7.781   4.569
 8047TIP3   OH224085   3.969   5.828   4.065
 8047TIP3    H124086   3.964   5.735   4.045
 8047TIP3    H224087   3.955   5.833   4.160
 8048TIP3   OH224088   3.994   6.573   1.995
 8048TIP3    H124089   3.998   6.506   2.064
 8048TIP3    H224090   3.914   6.552   1.946
 8049TIP3   OH224091   4.342   2.965   1.593
 8049TIP3    H124092   4.336   2.975   1.689
 8049TIP3    H224093   4.396   2.888   1.580
 8050TIP3   OH224094   7.815   2.753   4.052
 8050TIP3    H124095   7.834   2.730   4.143
 8050TIP3    H224096   7.721   2.770   4.050
 8051TIP3   OH224097   6.731   2.607   0.331
 8051TIP3    H124098   6.791   2.534   0.312
 8051TIP3    H224099   6.650   2.583   0.287
 8052TIP3   OH224100   0.725   2.900   2.781
 8052TIP3    H124101   0.819   2.895   2.759
 8052TIP3    H224102   0.704   2.993   2.770
 8053TIP3   OH224103   6.374   0.118   6.352
 8053TIP3    H124104   6.405   0.206   6.330
 8053TIP3    H224105   6.428   0.090   6.425
 8054TIP3   OH224106   6.009   5.450   6.382
 8054TIP3    H124107   6.091   5.498   6.397
 8054TIP3    H224108   5.974   5.434   6.470
 8055TIP3   OH224109   6.227   5.927   2.341
 8055TIP3    H124110   6.266   6.015   2.338
 8055TIP3    H224111   6.152   5.937   2.399
 8056TIP3   OH224112   4.616   3.060   1.805
 8056TIP3    H124113   4.654   3.104   1.729
 8056TIP3    H224114   4.654   2.972   1.803
 8057TIP3   OH224115   5.550   5.181   0.648
 8057TIP3    H124116   5.574   5.134   0.728
 8057TIP3    H224117   5.461   5.212   0.665
 8058TIP3   OH224118   0.258   4.930   6.624
 8058TIP3    H124119   0.201   4.867   6.579
 8058TIP3    H224120   0.346   4.905   6.597
 8059TIP3   OH224121   6.898   7.123   4.857
 8059TIP3    H124122   6.963   7.191   4.840
 8059TIP3    H224123   6.865   7.099   4.771
 8060TIP3   OH224124   6.036   2.069   4.415
 8060TIP3    H124125   6.063   2.011   4.343
 8060TIP3    H224126   6.095   2.145   4.407
 8061TIP3   OH224127   5.447   3.746   3.345
 8061TIP3    H124128   5.364   3.755   3.391
 8061TIP3    H224129   5.430   3.779   3.257
 8062TIP3   OH224130   5.177   3.458   6.592
 8062TIP3    H124131   5.220   3.377   6.567
 8062TIP3    H224132   5.085   3.445   6.568
 8063TIP3   OH224133   5.227   1.253   5.451
 8063TIP3    H124134   5.248   1.172   5.498
 8063TIP3    H224135   5.141   1.279   5.485
 8064TIP3   OH224136   7.028   6.538   0.816
 8064TIP3    H124137   7.048   6.591   0.893
 8064TIP3    H224138   6.967   6.591   0.765
 8065TIP3   OH224139   0.297   7.306   5.768
 8065TIP3    H124140   0.231   7.311   5.699
 8065TIP3    H224141   0.352   7.383   5.755
 8066TIP3   OH224142   6.891   3.746   1.178
 8066TIP3    H124143   6.811   3.707   1.142
 8066TIP3    H224144   6.954   3.674   1.182
 8067TIP3   OH224145   1.720   2.565   2.038
 8067TIP3    H124146   1.811   2.592   2.031
 8067TIP3    H224147   1.697   2.582   2.130
 8068TIP3   OH224148   6.626   2.008   3.740
 8068TIP3    H124149   6.574   1.929   3.758
 8068TIP3    H224150   6.642   2.046   3.825
 8069TIP3   OH224151   4.988   0.636   3.119
 8069TIP3    H124152   5.007   0.693   3.194
 8069TIP3    H224153   5.059   0.653   3.057
 8070TIP3   OH224154   1.273   3.723   1.954
 8070TIP3    H124155   1.182   3.724   1.923
 8070TIP3    H224156   1.325   3.710   1.874
 8071TIP3   OH224157   3.055   5.803   0.560
 8071TIP3    H124158   3.037   5.790   0.653
 8071TIP3    H224159   2.983   5.758   0.515
 8072TIP3   OH224160   6.256   7.808   2.621
 8072TIP3    H124161   6.303   7.750   2.681
 8072TIP3    H224162   6.278   7.777   2.534
 8073TIP3   OH224163   2.940   3.557   1.731
 8073TIP3    H124164   2.928   3.545   1.825
 8073TIP3    H224165   2.996   3.484   1.704
 8074TIP3   OH224166   8.072   1.517   3.611
 8074TIP3    H124167   8.081   1.496   3.518
 8074TIP3    H224168   7.995   1.468   3.640
 8075TIP3   OH224169   7.080   4.304   1.251
 8075TIP3    H124170   7.170   4.303   1.283
 8075TIP3    H224171   7.040   4.379   1.295
 8076TIP3   OH224172   5.441   0.183   0.775
 8076TIP3    H124173   5.513   0.239   0.804
 8076TIP3    H224174   5.392   0.162   0.855
 8077TIP3   OH224175   5.670   5.986   6.478
 8077TIP3    H124176   5.727   5.950   6.410
 8077TIP3    H224177   5.621   5.911   6.511
 8078TIP3   OH224178   6.630   6.622   4.146
 8078TIP3    H124179   6.576   6.629   4.067
 8078TIP3    H224180   6.627   6.529   4.169
 8079TIP3   OH224181   1.798   2.099   0.745
 8079TIP3    H124182   1.858   2.034   0.782
 8079TIP3    H224183   1.838   2.125   0.662
 8080TIP3   OH224184   3.553   2.410   2.040
 8080TIP3    H124185   3.559   2.326   2.087
 8080TIP3    H224186   3.571   2.387   1.949
 8081TIP3   OH224187   3.868   4.084   6.442
 8081TIP3    H124188   3.912   4.027   6.379
 8081TIP3    H224189   3.812   4.141   6.388
 8082TIP3   OH224190   1.390   3.070   0.775
 8082TIP3    H124191   1.352   3.056   0.862
 8082TIP3    H224192   1.389   2.984   0.734
 8083TIP3   OH224193   4.345   1.565   0.666
 8083TIP3    H124194   4.420   1.544   0.721
 8083TIP3    H224195   4.344   1.661   0.663
 8084TIP3   OH224196   3.421   6.082   4.344
 8084TIP3    H124197   3.454   6.023   4.276
 8084TIP3    H224198   3.329   6.096   4.321
 8085TIP3   OH224199   3.892   7.607   4.919
 8085TIP3    H124200   3.851   7.654   4.991
 8085TIP3    H224201   3.822   7.554   4.881
 8086TIP3   OH224202   2.917   0.289   3.467
 8086TIP3    H124203   2.941   0.200   3.493
 8086TIP3    H224204   2.822   0.292   3.476
 8087TIP3   OH224205   1.231   7.778   4.601
 8087TIP3    H124206   1.291   7.746   4.535
 8087TIP3    H224207   1.283   7.838   4.655
 8088TIP3   OH224208   5.861   4.601   5.250
 8088TIP3    H124209   5.782   4.608   5.304
 8088TIP3    H224210   5.862   4.510   5.221
 8089TIP3   OH224211   1.332   6.471   2.105
 8089TIP3    H124212   1.302   6.409   2.171
 8089TIP3    H224213   1.404   6.518   2.147
 8090TIP3   OH224214   3.710   6.718   3.568
 8090TIP3    H124215   3.792   6.676   3.595
 8090TIP3    H224216   3.641   6.660   3.601
 8091TIP3   OH224217   4.875   2.786   0.901
 8091TIP3    H124218   4.862   2.716   0.837
 8091TIP3    H224219   4.839   2.750   0.982
 8092TIP3   OH224220   2.258   2.189   5.499
 8092TIP3    H124221   2.303   2.151   5.575
 8092TIP3    H224222   2.327   2.230   5.448
 8093TIP3   OH224223   5.277   0.629   0.582
 8093TIP3    H124224   5.200   0.615   0.528
 8093TIP3    H224225   5.245   0.625   0.672
 8094TIP3   OH224226   0.674   2.608   3.787
 8094TIP3    H124227   0.609   2.613   3.857
 8094TIP3    H224228   0.746   2.558   3.825
 8095TIP3   OH224229   6.080   4.557   2.477
 8095TIP3    H124230   6.057   4.528   2.389
 8095TIP3    H224231   6.074   4.652   2.474
 8096TIP3   OH224232   6.432   2.759   1.144
 8096TIP3    H124233   6.452   2.838   1.093
 8096TIP3    H224234   6.365   2.787   1.207
 8097TIP3   OH224235   1.513   6.714   0.576
 8097TIP3    H124236   1.510   6.640   0.515
 8097TIP3    H224237   1.524   6.790   0.520
 8098TIP3   OH224238   6.300   7.548   5.932
 8098TIP3    H124239   6.275   7.479   5.995
 8098TIP3    H224240   6.391   7.527   5.909
 8099TIP3   OH224241   5.932   2.538   2.427
 8099TIP3    H124242   5.891   2.567   2.346
 8099TIP3    H224243   6.025   2.558   2.414
 8100TIP3   OH224244   2.766   2.400   6.766
 8100TIP3    H124245   2.789   2.489   6.742
 8100TIP3    H224246   2.850   2.359   6.789
 8101TIP3   OH224247   6.792   3.903   6.415
 8101TIP3    H124248   6.775   3.997   6.417
 8101TIP3    H224249   6.718   3.867   6.366
 8102TIP3   OH224250   4.688   4.886   3.750
 8102TIP3    H124251   4.680   4.957   3.686
 8102TIP3    H224252   4.752   4.918   3.814
 8103TIP3   OH224253   7.014   0.193   5.960
 8103TIP3    H124254   7.108   0.183   5.979
 8103TIP3    H224255   6.983   0.104   5.944
 8104TIP3   OH224256   6.196   5.536   3.877
 8104TIP3    H124257   6.135   5.566   3.945
 8104TIP3    H224258   6.217   5.615   3.828
 8105TIP3   OH224259   2.776   3.952   2.732
 8105TIP3    H124260   2.839   3.923   2.666
 8105TIP3    H224261   2.821   4.024   2.777
 8106TIP3   OH224262   2.568   6.368   5.526
 8106TIP3    H124263   2.612   6.407   5.601
 8106TIP3    H224264   2.620   6.394   5.450
 8107TIP3   OH224265   2.285   0.591   4.406
 8107TIP3    H124266   2.337   0.615   4.328
 8107TIP3    H224267   2.343   0.609   4.480
 8108TIP3   OH224268   7.467   7.150   4.545
 8108TIP3    H124269   7.495   7.239   4.526
 8108TIP3    H224270   7.548   7.099   4.543
 8109TIP3   OH224271   2.708   5.695   0.205
 8109TIP3    H124272   2.732   5.754   0.133
 8109TIP3    H224273   2.631   5.648   0.172
 8110TIP3   OH224274   7.272   1.885   0.720
 8110TIP3    H124275   7.197   1.849   0.672
 8110TIP3    H224276   7.234   1.952   0.777
 8111TIP3   OH224277   7.523   0.768   6.277
 8111TIP3    H124278   7.597   0.783   6.218
 8111TIP3    H224279   7.549   0.813   6.358
 8112TIP3   OH224280   0.129   4.968   5.554
 8112TIP3    H124281   0.101   4.876   5.554
 8112TIP3    H224282   0.133   4.993   5.646
 8113TIP3   OH224283   5.946   4.363   0.026
 8113TIP3    H124284   5.940   4.419  -0.051
 8113TIP3    H224285   5.984   4.282  -0.007
 8114TIP3   OH224286   3.802   4.387   0.094
 8114TIP3    H124287   3.751   4.467   0.088
 8114TIP3    H224288   3.782   4.352   0.181
 8115TIP3   OH224289   5.095   0.072   4.321
 8115TIP3    H124290   5.182   0.048   4.288
 8115TIP3    H224291   5.036   0.051   4.249
 8116TIP3   OH224292   2.618   7.014   0.070
 8116TIP3    H124293   2.528   7.024   0.099
 8116TIP3    H224294   2.670   7.058   0.138
 8117TIP3   OH224295   5.553   2.339   3.471
 8117TIP3    H124296   5.520   2.373   3.387
 8117TIP3    H224297   5.578   2.249   3.452
 8118TIP3   OH224298   5.704   7.742   1.932
 8118TIP3    H124299   5.773   7.779   1.987
 8118TIP3    H224300   5.665   7.673   1.985
 8119TIP3   OH224301   1.769   3.986   3.626
 8119TIP3    H124302   1.736   3.978   3.715
 8119TIP3    H224303   1.863   3.974   3.634
 8120TIP3   OH224304   1.711   6.325   1.702
 8120TIP3    H124305   1.664   6.371   1.772
 8120TIP3    H224306   1.691   6.375   1.623
 8121TIP3   OH224307   4.853   0.443   0.061
 8121TIP3    H124308   4.828   0.460   0.153
 8121TIP3    H224309   4.917   0.373   0.066
 8122TIP3   OH224310   6.232   5.459   4.490
 8122TIP3    H124311   6.148   5.414   4.492
 8122TIP3    H224312   6.290   5.405   4.544
 8123TIP3   OH224313   1.370   5.179   3.885
 8123TIP3    H124314   1.335   5.125   3.814
 8123TIP3    H224315   1.304   5.174   3.954
 8124TIP3   OH224316   6.307   0.950   5.240
 8124TIP3    H124317   6.298   0.950   5.145
 8124TIP3    H224318   6.357   1.030   5.259
 8125TIP3   OH224319   7.784   2.674   4.901
 8125TIP3    H124320   7.727   2.622   4.958
 8125TIP3    H224321   7.748   2.763   4.906
 8126TIP3   OH224322   3.531   7.818   4.943
 8126TIP3    H124323   3.475   7.820   5.021
 8126TIP3    H224324   3.471   7.794   4.872
 8127TIP3   OH224325   5.346   2.920   1.926
 8127TIP3    H124326   5.319   2.938   1.836
 8127TIP3    H224327   5.285   2.970   1.980
 8128TIP3   OH224328   3.711   5.598   1.170
 8128TIP3    H124329   3.641   5.532   1.174
 8128TIP3    H224330   3.694   5.654   1.246
 8129TIP3   OH224331   8.199   5.217   0.443
 8129TIP3    H124332   8.282   5.258   0.420
 8129TIP3    H224333   8.185   5.239   0.535
 8130TIP3   OH224334   7.572   1.917   2.281
 8130TIP3    H124335   7.649   1.861   2.287
 8130TIP3    H224336   7.523   1.900   2.362
 8131TIP3   OH224337   6.679   1.332   4.204
 8131TIP3    H124338   6.740   1.356   4.134
 8131TIP3    H224339   6.598   1.310   4.158
 8132TIP3   OH224340   8.035   4.513   5.879
 8132TIP3    H124341   8.026   4.516   5.783
 8132TIP3    H224342   8.129   4.510   5.894
 8133TIP3   OH224343   1.287   6.286   1.066
 8133TIP3    H124344   1.203   6.330   1.052
 8133TIP3    H224345   1.264   6.195   1.081
 8134TIP3   OH224346   2.219   0.801   3.585
 8134TIP3    H124347   2.170   0.883   3.592
 8134TIP3    H224348   2.165   0.737   3.632
 8135TIP3   OH224349   8.024   6.810   4.664
 8135TIP3    H124350   7.968   6.742   4.703
 8135TIP3    H224351   7.963   6.870   4.623
 8136TIP3   OH224352   2.253   2.734   0.245
 8136TIP3    H124353   2.338   2.764   0.213
 8136TIP3    H224354   2.251   2.763   0.337
 8137TIP3   OH224355   2.182   2.516   5.922
 8137TIP3    H124356   2.143   2.495   6.007
 8137TIP3    H224357   2.111   2.555   5.872
 8138TIP3   OH224358   6.108   2.590   2.716
 8138TIP3    H124359   6.078   2.542   2.793
 8138TIP3    H224360   6.113   2.681   2.745
 8139TIP3   OH224361   1.512   0.659   3.844
 8139TIP3    H124362   1.596   0.616   3.862
 8139TIP3    H224363   1.523   0.697   3.757
 8140TIP3   OH224364   2.017   5.542   1.521
 8140TIP3    H124365   2.063   5.622   1.545
 8140TIP3    H224366   1.989   5.557   1.430
 8141TIP3   OH224367   2.913   6.161   3.727
 8141TIP3    H124368   2.950   6.186   3.812
 8141TIP3    H224369   2.958   6.218   3.664
 8142TIP3   OH224370   4.092   4.677   5.235
 8142TIP3    H124371   4.015   4.733   5.233
 8142TIP3    H224372   4.159   4.729   5.279
 8143TIP3   OH224373   4.502   0.786   2.366
 8143TIP3    H124374   4.486   0.754   2.455
 8143TIP3    H224375   4.493   0.881   2.374
 8144TIP3   OH224376   1.230   2.002   0.291
 8144TIP3    H124377   1.212   1.948   0.214
 8144TIP3    H224378   1.292   1.950   0.342
 8145TIP3   OH224379   4.188   3.444   2.109
 8145TIP3    H124380   4.127   3.395   2.054
 8145TIP3    H224381   4.175   3.409   2.197
 8146TIP3   OH224382   7.478   5.360   5.440
 8146TIP3    H124383   7.498   5.337   5.349
 8146TIP3    H224384   7.392   5.401   5.436
 8147TIP3   OH224385   1.284   5.033   0.029
 8147TIP3    H124386   1.358   5.035   0.089
 8147TIP3    H224387   1.208   5.055   0.083
 8148TIP3   OH224388   3.546   3.581   2.030
 8148TIP3    H124389   3.489   3.609   2.102
 8148TIP3    H224390   3.598   3.658   2.009
 8149TIP3   OH224391   0.817   4.695   5.129
 8149TIP3    H124392   0.870   4.740   5.194
 8149TIP3    H224393   0.859   4.715   5.046
 8150TIP3   OH224394   1.547   4.749   4.929
 8150TIP3    H124395   1.594   4.720   5.007
 8150TIP3    H224396   1.615   4.782   4.870
 8151TIP3   OH224397   2.254   0.735   2.644
 8151TIP3    H124398   2.296   0.794   2.707
 8151TIP3    H224399   2.319   0.726   2.574
 8152TIP3   OH224400   3.456   7.770   4.418
 8152TIP3    H124401   3.458   7.858   4.382
 8152TIP3    H224402   3.521   7.722   4.367
 8153TIP3   OH224403   0.664   7.486   4.365
 8153TIP3    H124404   0.619   7.436   4.433
 8153TIP3    H224405   0.704   7.420   4.309
 8154TIP3   OH224406   2.948  -0.003   0.405
 8154TIP3    H124407   2.877  -0.034   0.462
 8154TIP3    H224408   2.948   0.092   0.416
 8155TIP3   OH224409   7.451   4.411   4.366
 8155TIP3    H124410   7.520   4.435   4.427
 8155TIP3    H224411   7.418   4.495   4.333
 8156TIP3   OH224412   5.803   0.556   0.876
 8156TIP3    H124413   5.709   0.548   0.862
 8156TIP3    H224414   5.828   0.636   0.828
 8157TIP3   OH224415   7.950   0.251   0.766
 8157TIP3    H124416   7.961   0.185   0.835
 8157TIP3    H224417   7.888   0.210   0.704
 8158TIP3   OH224418   6.068   5.049   2.030
 8158TIP3    H124419   6.160   5.068   2.010
 8158TIP3    H224420   6.033   5.017   1.947
 8159TIP3   OH224421   0.657   7.067   5.982
 8159TIP3    H124422   0.607   7.080   5.902
 8159TIP3    H224423   0.651   7.151   6.028
 8160TIP3   OH224424   0.245   0.750   3.682
 8160TIP3    H124425   0.329   0.796   3.681
 8160TIP3    H224426   0.268   0.657   3.682
 8161TIP3   OH224427   6.613   6.623   4.460
 8161TIP3    H124428   6.619   6.536   4.421
 8161TIP3    H224429   6.703   6.647   4.480
 8162TIP3   OH224430   5.081   0.794   4.929
 8162TIP3    H124431   5.075   0.722   4.992
 8162TIP3    H224432   5.076   0.752   4.843
 8163TIP3   OH224433   1.201   0.192   0.819
 8163TIP3    H124434   1.127   0.134   0.802
 8163TIP3    H224435   1.252   0.148   0.886
 8164TIP3   OH224436   6.255   6.059   3.582
 8164TIP3    H124437   6.321   5.993   3.601
 8164TIP3    H224438   6.286   6.138   3.628
 8165TIP3   OH224439   4.835   7.470   4.728
 8165TIP3    H124440   4.860   7.417   4.803
 8165TIP3    H224441   4.816   7.407   4.659
 8166TIP3   OH224442   2.519   6.263   2.646
 8166TIP3    H124443   2.521   6.270   2.741
 8166TIP3    H224444   2.437   6.305   2.621
 8167TIP3   OH224445   6.113   7.027   1.318
 8167TIP3    H124446   6.074   6.993   1.399
 8167TIP3    H224447   6.131   7.119   1.337
 8168TIP3   OH224448   6.730   6.095   2.838
 8168TIP3    H124449   6.822   6.097   2.814
 8168TIP3    H224450   6.721   6.166   2.903
 8169TIP3   OH224451   5.317   1.933   2.200
 8169TIP3    H124452   5.366   1.935   2.118
 8169TIP3    H224453   5.371   1.984   2.261
 8170TIP3   OH224454   5.418   4.735   5.108
 8170TIP3    H124455   5.444   4.655   5.062
 8170TIP3    H224456   5.369   4.785   5.042
 8171TIP3   OH224457   4.905   2.082   2.381
 8171TIP3    H124458   4.959   2.093   2.303
 8171TIP3    H224459   4.886   1.988   2.385
 8172TIP3   OH224460   5.439   4.359   0.924
 8172TIP3    H124461   5.465   4.444   0.887
 8172TIP3    H224462   5.419   4.305   0.848
 8173TIP3   OH224463   5.279   1.069   3.420
 8173TIP3    H124464   5.373   1.053   3.406
 8173TIP3    H224465   5.275   1.159   3.452
 8174TIP3   OH224466   2.004   0.700   3.708
 8174TIP3    H124467   1.970   0.613   3.686
 8174TIP3    H224468   1.941   0.734   3.772
 8175TIP3   OH224469   2.599   2.057   3.078
 8175TIP3    H124470   2.675   2.000   3.063
 8175TIP3    H224471   2.548   2.011   3.144
 8176TIP3   OH224472   4.087   2.587   3.693
 8176TIP3    H124473   4.071   2.537   3.773
 8176TIP3    H224474   4.151   2.534   3.645
 8177TIP3   OH224475   6.567   0.188   2.160
 8177TIP3    H124476   6.537   0.166   2.072
 8177TIP3    H224477   6.610   0.273   2.150
 8178TIP3   OH224478   3.356   0.538   0.706
 8178TIP3    H124479   3.366   0.623   0.663
 8178TIP3    H224480   3.310   0.558   0.788
 8179TIP3   OH224481   4.090   0.708   0.538
 8179TIP3    H124482   4.072   0.614   0.526
 8179TIP3    H224483   4.087   0.721   0.633
 8180TIP3   OH224484   1.858   0.530   2.802
 8180TIP3    H124485   1.846   0.622   2.781
 8180TIP3    H224486   1.872   0.488   2.717
 8181TIP3   OH224487   7.075   7.603   5.548
 8181TIP3    H124488   7.107   7.662   5.616
 8181TIP3    H224489   7.075   7.656   5.469
 8182TIP3   OH224490   5.378   7.727   3.372
 8182TIP3    H124491   5.394   7.645   3.418
 8182TIP3    H224492   5.465   7.766   3.364
 8183TIP3   OH224493   2.174   1.818   4.824
 8183TIP3    H124494   2.168   1.743   4.883
 8183TIP3    H224495   2.266   1.844   4.828
 8184TIP3   OH224496   0.132   5.791   0.815
 8184TIP3    H124497   0.038   5.803   0.807
 8184TIP3    H224498   0.169   5.840   0.742
 8185TIP3   OH224499   7.308   2.882   3.907
 8185TIP3    H124500   7.220   2.850   3.888
 8185TIP3    H224501   7.294   2.965   3.953
 8186TIP3   OH224502   0.452   3.720   5.256
 8186TIP3    H124503   0.523   3.719   5.320
 8186TIP3    H224504   0.495   3.706   5.172
 8187TIP3   OH224505   0.631   0.309   6.378
 8187TIP3    H124506   0.541   0.316   6.347
 8187TIP3    H224507   0.682   0.289   6.299
 8188TIP3   OH224508   3.871   1.328   0.721
 8188TIP3    H124509   3.932   1.255   0.711
 8188TIP3    H224510   3.924   1.407   0.711
 8189TIP3   OH224511   5.922   0.655   6.035
 8189TIP3    H124512   5.922   0.609   5.951
 8189TIP3    H224513   6.011   0.641   6.070
 8190TIP3   OH224514   0.470   5.478   4.151
 8190TIP3    H124515   0.393   5.433   4.117
 8190TIP3    H224516   0.525   5.409   4.187
 8191TIP3   OH224517   1.568   6.927   4.346
 8191TIP3    H124518   1.540   6.838   4.326
 8191TIP3    H224519   1.518   6.952   4.424
 8192TIP3   OH224520   3.132   4.879   3.615
 8192TIP3    H124521   3.196   4.873   3.687
 8192TIP3    H224522   3.047   4.866   3.657
 8193TIP3   OH224523   5.089   1.310   2.239
 8193TIP3    H124524   5.103   1.344   2.150
 8193TIP3    H224525   5.177   1.300   2.276
 8194TIP3   OH224526   7.879   2.048   5.721
 8194TIP3    H124527   7.818   2.055   5.795
 8194TIP3    H224528   7.823   2.024   5.647
 8195TIP3   OH224529   2.545   0.961   2.341
 8195TIP3    H124530   2.545   0.971   2.245
 8195TIP3    H224531   2.502   1.040   2.373
 8196TIP3   OH224532   3.606   0.635   1.901
 8196TIP3    H124533   3.642   0.660   1.816
 8196TIP3    H224534   3.668   0.670   1.964
 8197TIP3   OH224535   3.913   3.806   1.428
 8197TIP3    H124536   3.969   3.848   1.493
 8197TIP3    H224537   3.923   3.861   1.350
 8198TIP3   OH224538   6.100   7.604   3.411
 8198TIP3    H124539   6.031   7.576   3.351
 8198TIP3    H224540   6.054   7.653   3.479
 8199TIP3   OH224541   8.086   1.232   4.512
 8199TIP3    H124542   8.067   1.232   4.606
 8199TIP3    H224543   8.042   1.310   4.478
 8200TIP3   OH224544   0.251   2.677   3.923
 8200TIP3    H124545   0.224   2.682   4.014
 8200TIP3    H224546   0.330   2.623   3.923
 8201TIP3   OH224547   3.505   1.944   6.591
 8201TIP3    H124548   3.589   1.924   6.550
 8201TIP3    H224549   3.481   1.865   6.638
 8202TIP3   OH224550   8.173   1.058   5.284
 8202TIP3    H124551   8.105   1.101   5.233
 8202TIP3    H224552   8.233   1.022   5.219
 8203TIP3   OH224553   3.777   1.205   3.964
 8203TIP3    H124554   3.747   1.172   3.879
 8203TIP3    H224555   3.815   1.128   4.008
 8204TIP3   OH224556   1.535   6.104   1.228
 8204TIP3    H124557   1.628   6.105   1.252
 8204TIP3    H224558   1.497   6.175   1.281
 8205TIP3   OH224559   2.110   5.626   4.594
 8205TIP3    H124560   2.021   5.656   4.613
 8205TIP3    H224561   2.166   5.698   4.624
 8206TIP3   OH224562   6.892   5.860   3.209
 8206TIP3    H124563   6.935   5.942   3.184
 8206TIP3    H224564   6.898   5.805   3.131
 8207TIP3   OH224565   1.503   5.699   4.362
 8207TIP3    H124566   1.589   5.659   4.372
 8207TIP3    H224567   1.457   5.643   4.300
 8208TIP3   OH224568   8.241   6.431   2.248
 8208TIP3    H124569   8.216   6.443   2.340
 8208TIP3    H224570   8.275   6.516   2.221
 8209TIP3   OH224571   8.282   2.263   5.178
 8209TIP3    H124572   8.193   2.272   5.143
 8209TIP3    H224573   8.310   2.353   5.197
 8210TIP3   OH224574   3.870   7.484   1.079
 8210TIP3    H124575   3.962   7.505   1.096
 8210TIP3    H224576   3.872   7.420   1.008
 8211TIP3   OH224577   4.036   3.895   1.174
 8211TIP3    H124578   4.035   3.987   1.149
 8211TIP3    H224579   4.002   3.848   1.098
 8212TIP3   OH224580   5.741   6.805   6.031
 8212TIP3    H124581   5.774   6.721   6.000
 8212TIP3    H224582   5.815   6.865   6.023
 8213TIP3   OH224583   0.587   6.731   1.391
 8213TIP3    H124584   0.591   6.784   1.311
 8213TIP3    H224585   0.563   6.793   1.460
 8214TIP3   OH224586   6.378   1.694   5.992
 8214TIP3    H124587   6.346   1.623   5.937
 8214TIP3    H224588   6.308   1.759   5.991
 8215TIP3   OH224589   1.022   2.736   1.291
 8215TIP3    H124590   1.033   2.658   1.236
 8215TIP3    H224591   0.954   2.787   1.248
 8216TIP3   OH224592   5.071   6.609   5.579
 8216TIP3    H124593   5.149   6.557   5.560
 8216TIP3    H224594   5.005   6.576   5.519
 8217TIP3   OH224595   4.784   3.015   4.332
 8217TIP3    H124596   4.733   2.983   4.406
 8217TIP3    H224597   4.754   2.962   4.258
 8218TIP3   OH224598   5.781   1.330   6.289
 8218TIP3    H124599   5.820   1.311   6.204
 8218TIP3    H224600   5.687   1.334   6.272
 8219TIP3   OH224601   5.533   0.126   1.191
 8219TIP3    H124602   5.617   0.150   1.151
 8219TIP3    H224603   5.469   0.181   1.146
 8220TIP3   OH224604   3.634   0.599   4.228
 8220TIP3    H124605   3.542   0.625   4.216
 8220TIP3    H224606   3.654   0.624   4.318
 8221TIP3   OH224607   1.577   5.506   5.053
 8221TIP3    H124608   1.591   5.591   5.013
 8221TIP3    H224609   1.567   5.446   4.978
 8222TIP3   OH224610   2.880   6.223   6.188
 8222TIP3    H124611   2.894   6.262   6.102
 8222TIP3    H224612   2.870   6.129   6.171
 8223TIP3   OH224613   3.243   6.564   4.053
 8223TIP3    H124614   3.171   6.588   4.113
 8223TIP3    H224615   3.216   6.600   3.969
 8224TIP3   OH224616   6.438   5.738   0.212
 8224TIP3    H124617   6.362   5.787   0.179
 8224TIP3    H224618   6.510   5.800   0.210
 8225TIP3   OH224619   6.624   5.544   4.830
 8225TIP3    H124620   6.691   5.570   4.893
 8225TIP3    H224621   6.620   5.448   4.839
 8226TIP3   OH224622   5.666   7.138   0.690
 8226TIP3    H124623   5.646   7.186   0.610
 8226TIP3    H224624   5.754   7.166   0.714
 8227TIP3   OH224625   0.960   4.504   6.577
 8227TIP3    H124626   1.053   4.528   6.583
 8227TIP3    H224627   0.960   4.415   6.542
 8228TIP3   OH224628   1.741   6.751   3.120
 8228TIP3    H124629   1.690   6.809   3.063
 8228TIP3    H224630   1.684   6.676   3.135
 8229TIP3   OH224631   7.132   0.967   6.187
 8229TIP3    H124632   7.223   0.973   6.160
 8229TIP3    H224633   7.085   1.027   6.129
 8230TIP3   OH224634   5.237   1.024   6.581
 8230TIP3    H124635   5.145   0.996   6.582
 8230TIP3    H224636   5.243   1.082   6.505
 8231TIP3   OH224637   1.171   7.467   2.438
 8231TIP3    H124638   1.176   7.492   2.531
 8231TIP3    H224639   1.086   7.423   2.430
 8232TIP3   OH224640   3.210   6.889   6.107
 8232TIP3    H124641   3.267   6.841   6.166
 8232TIP3    H224642   3.249   6.878   6.020
 8233TIP3   OH224643   0.217   5.940   4.872
 8233TIP3    H124644   0.219   5.940   4.968
 8233TIP3    H224645   0.143   5.883   4.850
 8234TIP3   OH224646   7.949   6.279   0.337
 8234TIP3    H124647   7.869   6.297   0.386
 8234TIP3    H224648   7.946   6.184   0.321
 8235TIP3   OH224649   0.262   0.933   2.133
 8235TIP3    H124650   0.225   0.907   2.218
 8235TIP3    H224651   0.355   0.950   2.151
 8236TIP3   OH224652   3.615   1.188   0.479
 8236TIP3    H124653   3.669   1.135   0.420
 8236TIP3    H224654   3.628   1.149   0.565
 8237TIP3   OH224655   6.265   5.714   0.674
 8237TIP3    H124656   6.289   5.634   0.627
 8237TIP3    H224657   6.244   5.685   0.762
 8238TIP3   OH224658   6.838   2.074   3.193
 8238TIP3    H124659   6.757   2.096   3.146
 8238TIP3    H224660   6.843   1.978   3.188
 8239TIP3   OH224661   2.120   2.086   0.241
 8239TIP3    H124662   2.119   2.056   0.332
 8239TIP3    H224663   2.207   2.063   0.210
 8240TIP3   OH224664   7.249   2.490   2.920
 8240TIP3    H124665   7.306   2.515   2.847
 8240TIP3    H224666   7.199   2.569   2.939
 8241TIP3   OH224667   3.751   4.658   6.766
 8241TIP3    H124668   3.768   4.745   6.802
 8241TIP3    H224669   3.836   4.615   6.766
 8242TIP3   OH224670   7.095   1.827   4.836
 8242TIP3    H124671   7.160   1.761   4.813
 8242TIP3    H224672   7.145   1.908   4.846
 8243TIP3   OH224673   4.799   0.399   1.493
 8243TIP3    H124674   4.750   0.425   1.415
 8243TIP3    H224675   4.735   0.400   1.564
 8244TIP3   OH224676   1.660   7.029   1.514
 8244TIP3    H124677   1.625   7.072   1.437
 8244TIP3    H224678   1.590   6.971   1.544
 8245TIP3   OH224679   1.862   3.226   0.488
 8245TIP3    H124680   1.951   3.252   0.464
 8245TIP3    H224681   1.819   3.308   0.513
 8246TIP3   OH224682   3.479   7.047   2.142
 8246TIP3    H124683   3.432   6.964   2.138
 8246TIP3    H224684   3.567   7.022   2.172
 8247TIP3   OH224685   1.576   7.656   3.339
 8247TIP3    H124686   1.646   7.713   3.307
 8247TIP3    H224687   1.504   7.670   3.278
 8248TIP3   OH224688   0.544   4.756   3.943
 8248TIP3    H124689   0.607   4.800   3.886
 8248TIP3    H224690   0.548   4.805   4.025
 8249TIP3   OH224691   4.423   7.616   3.631
 8249TIP3    H124692   4.328   7.605   3.641
 8249TIP3    H224693   4.453   7.533   3.594
 8250TIP3   OH224694   4.696   3.916   6.466
 8250TIP3    H124695   4.654   3.920   6.552
 8250TIP3    H224696   4.644   3.973   6.411
 8251TIP3   OH224697   5.703   0.543   6.189
 8251TIP3    H124698   5.778   0.554   6.131
 8251TIP3    H224699   5.705   0.620   6.246
 8252TIP3   OH224700   6.444   7.194   2.755
 8252TIP3    H124701   6.495   7.134   2.701
 8252TIP3    H224702   6.502   7.269   2.769
 8253TIP3   OH224703   6.614   1.721   6.344
 8253TIP3    H124704   6.548   1.668   6.301
 8253TIP3    H224705   6.632   1.676   6.427
 8254TIP3   OH224706   2.437   3.802   4.114
 8254TIP3    H124707   2.421   3.767   4.202
 8254TIP3    H224708   2.380   3.879   4.108
 8255TIP3   OH224709   6.417   5.850   5.163
 8255TIP3    H124710   6.502   5.839   5.205
 8255TIP3    H224711   6.381   5.929   5.204
 8256TIP3   OH224712   0.694   6.139   1.551
 8256TIP3    H124713   0.695   6.072   1.483
 8256TIP3    H224714   0.759   6.110   1.615
 8257TIP3   OH224715   3.160   0.822   5.641
 8257TIP3    H124716   3.222   0.835   5.713
 8257TIP3    H224717   3.162   0.904   5.593
 8258TIP3   OH224718   2.056   5.779   4.356
 8258TIP3    H124719   2.099   5.708   4.403
 8258TIP3    H224720   2.124   5.816   4.300
 8259TIP3   OH224721   3.223   6.502   1.451
 8259TIP3    H124722   3.282   6.459   1.388
 8259TIP3    H224723   3.136   6.492   1.412
 8260TIP3   OH224724   1.327   2.682   4.497
 8260TIP3    H124725   1.235   2.686   4.524
 8260TIP3    H224726   1.327   2.715   4.407
 8261TIP3   OH224727   2.683   4.846   3.278
 8261TIP3    H124728   2.681   4.771   3.218
 8261TIP3    H224729   2.775   4.872   3.281
 8262TIP3   OH224730   2.110   1.838   5.178
 8262TIP3    H124731   2.187   1.871   5.131
 8262TIP3    H224732   2.097   1.900   5.249
 8263TIP3   OH224733   0.435   2.950   0.294
 8263TIP3    H124734   0.480   2.893   0.356
 8263TIP3    H224735   0.374   2.892   0.248
 8264TIP3   OH224736   4.555   7.778   3.972
 8264TIP3    H124737   4.587   7.803   3.886
 8264TIP3    H224738   4.633   7.782   4.028
 8265TIP3   OH224739   2.228   3.698   1.357
 8265TIP3    H124740   2.309   3.727   1.397
 8265TIP3    H224741   2.184   3.779   1.331
 8266TIP3   OH224742   1.964   4.690   3.565
 8266TIP3    H124743   1.910   4.736   3.629
 8266TIP3    H224744   2.054   4.710   3.591
 8267TIP3   OH224745   4.163   5.606   0.152
 8267TIP3    H124746   4.159   5.657   0.071
 8267TIP3    H224747   4.093   5.642   0.206
 8268TIP3   OH224748   6.922   6.760   0.254
 8268TIP3    H124749   6.971   6.799   0.181
 8268TIP3    H224750   6.939   6.666   0.247
 8269TIP3   OH224751   1.228   4.555   0.163
 8269TIP3    H124752   1.160   4.605   0.118
 8269TIP3    H224753   1.181   4.506   0.230
 8270TIP3   OH224754   1.151   5.734   3.965
 8270TIP3    H124755   1.114   5.697   4.045
 8270TIP3    H224756   1.240   5.758   3.989
 8271TIP3   OH224757   4.630   3.412   4.072
 8271TIP3    H124758   4.594   3.387   4.157
 8271TIP3    H224759   4.555   3.407   4.012
 8272TIP3   OH224760   0.320   2.257   5.724
 8272TIP3    H124761   0.370   2.239   5.803
 8272TIP3    H224762   0.314   2.353   5.721
 8273TIP3   OH224763   1.773   1.560   4.631
 8273TIP3    H124764   1.821   1.526   4.706
 8273TIP3    H224765   1.724   1.635   4.665
 8274TIP3   OH224766   5.082   6.024   5.259
 8274TIP3    H124767   5.062   6.072   5.178
 8274TIP3    H224768   4.998   6.018   5.304
 8275TIP3   OH224769   6.802   1.322   1.464
 8275TIP3    H124770   6.885   1.275   1.472
 8275TIP3    H224771   6.821   1.393   1.402
 8276TIP3   OH224772   5.911   1.674   6.314
 8276TIP3    H124773   5.875   1.718   6.391
 8276TIP3    H224774   5.990   1.723   6.292
 8277TIP3   OH224775   4.054   7.036   1.281
 8277TIP3    H124776   3.961   7.025   1.264
 8277TIP3    H224777   4.090   6.947   1.276
 8278TIP3   OH224778   1.997   5.146   4.831
 8278TIP3    H124779   2.048   5.106   4.902
 8278TIP3    H224780   1.992   5.239   4.855
 8279TIP3   OH224781   1.312   1.713   5.851
 8279TIP3    H124782   1.260   1.655   5.797
 8279TIP3    H224783   1.257   1.732   5.927
 8280TIP3   OH224784   8.030   5.895   4.503
 8280TIP3    H124785   8.056   5.826   4.564
 8280TIP3    H224786   8.016   5.850   4.420
 8281TIP3   OH224787   7.599   2.203   1.079
 8281TIP3    H124788   7.646   2.137   1.029
 8281TIP3    H224789   7.511   2.168   1.089
 8282TIP3   OH224790   4.939   4.004   4.894
 8282TIP3    H124791   4.916   4.097   4.896
 8282TIP3    H224792   4.904   3.969   4.975
 8283TIP3   OH224793   5.728   7.188   6.081
 8283TIP3    H124794   5.800   7.237   6.121
 8283TIP3    H224795   5.765   7.153   5.999
 8284TIP3   OH224796   2.555   4.532   4.948
 8284TIP3    H124797   2.528   4.606   4.893
 8284TIP3    H224798   2.520   4.552   5.034
 8285TIP3   OH224799   0.361   6.186   0.559
 8285TIP3    H124800   0.291   6.226   0.610
 8285TIP3    H224801   0.342   6.211   0.468
 8286TIP3   OH224802   0.407   1.090   0.978
 8286TIP3    H124803   0.404   1.053   0.889
 8286TIP3    H224804   0.315   1.103   1.001
 8287TIP3   OH224805   0.267   2.972   4.980
 8287TIP3    H124806   0.260   2.877   4.991
 8287TIP3    H224807   0.361   2.987   4.971
 8288TIP3   OH224808   2.521   1.144   5.886
 8288TIP3    H124809   2.528   1.107   5.798
 8288TIP3    H224810   2.606   1.126   5.926
 8289TIP3   OH224811   3.743   1.559   5.240
 8289TIP3    H124812   3.648   1.564   5.255
 8289TIP3    H224813   3.780   1.618   5.305
 8290TIP3   OH224814   3.126   6.656   3.323
 8290TIP3    H124815   3.036   6.625   3.313
 8290TIP3    H224816   3.170   6.630   3.242
 8291TIP3   OH224817   3.561   4.224   0.574
 8291TIP3    H124818   3.504   4.170   0.628
 8291TIP3    H224819   3.622   4.264   0.636
 8292TIP3   OH224820   1.877   7.099   3.382
 8292TIP3    H124821   1.878   7.179   3.435
 8292TIP3    H224822   1.968   7.070   3.381
 8293TIP3   OH224823   2.759   4.464   1.205
 8293TIP3    H124824   2.692   4.499   1.264
 8293TIP3    H224825   2.841   4.476   1.253
 8294TIP3   OH224826   6.194   6.628   6.772
 8294TIP3    H124827   6.149   6.586   6.699
 8294TIP3    H224828   6.287   6.617   6.752
 8295TIP3   OH224829   7.120   3.662   3.506
 8295TIP3    H124830   7.083   3.745   3.537
 8295TIP3    H224831   7.110   3.602   3.580
 8296TIP3   OH224832   8.049   3.649   3.296
 8296TIP3    H124833   8.042   3.745   3.293
 8296TIP3    H224834   8.008   3.625   3.379
 8297TIP3   OH224835   3.433   4.665   4.837
 8297TIP3    H124836   3.496   4.737   4.840
 8297TIP3    H224837   3.374   4.681   4.911
 8298TIP3   OH224838   1.966   4.616   5.696
 8298TIP3    H124839   2.013   4.697   5.718
 8298TIP3    H224840   1.877   4.645   5.676
 8299TIP3   OH224841   8.088   3.657   5.835
 8299TIP3    H124842   8.067   3.660   5.929
 8299TIP3    H224843   8.041   3.580   5.803
 8300TIP3   OH224844   5.740   1.889   6.128
 8300TIP3    H124845   5.744   1.934   6.043
 8300TIP3    H224846   5.710   1.801   6.107
 8301TIP3   OH224847   2.985   1.755   5.205
 8301TIP3    H124848   2.942   1.681   5.247
 8301TIP3    H224849   2.918   1.823   5.203
 8302TIP3   OH224850   0.999   1.037  -0.031
 8302TIP3    H124851   1.046   1.116  -0.003
 8302TIP3    H224852   0.908   1.053  -0.005
 8303TIP3   OH224853   0.257   6.165   6.238
 8303TIP3    H124854   0.273   6.124   6.154
 8303TIP3    H224855   0.209   6.245   6.218
 8304TIP3   OH224856   5.483   0.526   3.136
 8304TIP3    H124857   5.497   0.619   3.150
 8304TIP3    H224858   5.524   0.483   3.211
 8305TIP3   OH224859   1.406   5.749   6.429
 8305TIP3    H124860   1.356   5.674   6.399
 8305TIP3    H224861   1.454   5.779   6.352
 8306TIP3   OH224862   2.095   3.540   1.625
 8306TIP3    H124863   2.170   3.481   1.638
 8306TIP3    H224864   2.133   3.628   1.628
 8307TIP3   OH224865   6.339   1.653   6.248
 8307TIP3    H124866   6.265   1.593   6.238
 8307TIP3    H224867   6.359   1.682   6.159
 8308TIP3   OH224868   6.071   0.685   0.248
 8308TIP3    H124869   6.073   0.590   0.245
 8308TIP3    H224870   6.066   0.712   0.156
 8309TIP3   OH224871   5.032   7.533   3.734
 8309TIP3    H124872   5.045   7.591   3.808
 8309TIP3    H224873   5.017   7.592   3.660
 8310TIP3   OH224874   7.484   0.456   5.972
 8310TIP3    H124875   7.482   0.362   5.953
 8310TIP3    H224876   7.560   0.488   5.923
 8311TIP3   OH224877   6.720   6.998   1.955
 8311TIP3    H124878   6.724   6.987   1.860
 8311TIP3    H224879   6.688   6.915   1.988
 8312TIP3   OH224880   6.201   7.819   1.781
 8312TIP3    H124881   6.205   7.914   1.793
 8312TIP3    H224882   6.292   7.790   1.785
 8313TIP3   OH224883   5.793   7.256   0.177
 8313TIP3    H124884   5.782   7.267   0.082
 8313TIP3    H224885   5.800   7.346   0.210
 8314TIP3   OH224886   6.653   3.687   3.451
 8314TIP3    H124887   6.714   3.666   3.522
 8314TIP3    H224888   6.619   3.773   3.473
 8315TIP3   OH224889   5.105   3.851   5.565
 8315TIP3    H124890   5.065   3.936   5.546
 8315TIP3    H224891   5.031   3.793   5.583
 8316TIP3   OH224892   5.475   4.644   2.934
 8316TIP3    H124893   5.483   4.621   3.026
 8316TIP3    H224894   5.481   4.739   2.932
 8317TIP3   OH224895   0.813   7.265   1.204
 8317TIP3    H124896   0.823   7.226   1.118
 8317TIP3    H224897   0.776   7.195   1.258
 8318TIP3   OH224898   1.445   2.334   5.323
 8318TIP3    H124899   1.536   2.312   5.302
 8318TIP3    H224900   1.450   2.377   5.408
 8319TIP3   OH224901   3.868   0.385   6.439
 8319TIP3    H124902   3.879   0.377   6.534
 8319TIP3    H224903   3.957   0.400   6.406
 8320TIP3   OH224904   1.119   7.402   4.944
 8320TIP3    H124905   1.120   7.335   4.875
 8320TIP3    H224906   1.175   7.366   5.012
 8321TIP3   OH224907   4.880   6.956   4.058
 8321TIP3    H124908   4.814   6.992   4.117
 8321TIP3    H224909   4.832   6.941   3.976
 8322TIP3   OH224910   2.719   3.952   5.279
 8322TIP3    H124911   2.759   4.022   5.227
 8322TIP3    H224912   2.657   3.910   5.219
 8323TIP3   OH224913   6.169   2.646   6.747
 8323TIP3    H124914   6.230   2.588   6.702
 8323TIP3    H224915   6.222   2.723   6.770
 8324TIP3   OH224916   7.211   1.201   4.844
 8324TIP3    H124917   7.139   1.150   4.882
 8324TIP3    H224918   7.208   1.285   4.890
 8325TIP3   OH224919   4.362   0.535   4.139
 8325TIP3    H124920   4.445   0.572   4.169
 8325TIP3    H224921   4.381   0.497   4.053
 8326TIP3   OH224922   7.400   6.155   4.325
 8326TIP3    H124923   7.402   6.236   4.273
 8326TIP3    H224924   7.474   6.104   4.292
 8327TIP3   OH224925   1.267   3.614   3.870
 8327TIP3    H124926   1.182   3.571   3.858
 8327TIP3    H224927   1.251   3.706   3.850
 8328TIP3   OH224928   1.858   6.820   0.573
 8328TIP3    H124929   1.953   6.830   0.570
 8328TIP3    H224930   1.829   6.842   0.485
 8329TIP3   OH224931   5.621   2.428   1.741
 8329TIP3    H124932   5.703   2.442   1.788
 8329TIP3    H224933   5.559   2.400   1.809
 8330TIP3   OH224934   1.547   3.144   6.441
 8330TIP3    H124935   1.464   3.162   6.485
 8330TIP3    H224936   1.568   3.054   6.466
 8331TIP3   OH224937   5.277   5.560   1.778
 8331TIP3    H124938   5.201   5.594   1.826
 8331TIP3    H224939   5.249   5.557   1.687
 8332TIP3   OH224940   0.015   1.388   1.688
 8332TIP3    H124941   0.096   1.408   1.642
 8332TIP3    H224942   0.042   1.329   1.759
 8333TIP3   OH224943   6.255   4.913   3.360
 8333TIP3    H124944   6.211   4.994   3.335
 8333TIP3    H224945   6.208   4.884   3.438
 8334TIP3   OH224946   5.170   7.684   2.658
 8334TIP3    H124947   5.205   7.672   2.570
 8334TIP3    H224948   5.159   7.596   2.692
 8335TIP3   OH224949   5.218   5.694   2.404
 8335TIP3    H124950   5.197   5.618   2.457
 8335TIP3    H224951   5.256   5.658   2.324
 8336TIP3   OH224952   7.853   2.565   0.743
 8336TIP3    H124953   7.887   2.510   0.814
 8336TIP3    H224954   7.921   2.631   0.730
 8337TIP3   OH224955   4.108   4.439   5.896
 8337TIP3    H124956   4.111   4.456   5.990
 8337TIP3    H224957   4.111   4.343   5.888
 8338TIP3   OH224958   0.307   0.836   5.889
 8338TIP3    H124959   0.287   0.746   5.863
 8338TIP3    H224960   0.270   0.889   5.817
 8339TIP3   OH224961   1.212   5.261   0.295
 8339TIP3    H124962   1.157   5.188   0.267
 8339TIP3    H224963   1.290   5.221   0.332
 8340TIP3   OH224964   0.886   5.623   1.450
 8340TIP3    H124965   0.873   5.605   1.357
 8340TIP3    H224966   0.810   5.676   1.475
 8341TIP3   OH224967   6.154   1.256   6.583
 8341TIP3    H124968   6.150   1.349   6.560
 8341TIP3    H224969   6.086   1.215   6.530
 8342TIP3   OH224970   6.665   5.377   4.517
 8342TIP3    H124971   6.686   5.339   4.602
 8342TIP3    H224972   6.680   5.471   4.529
 8343TIP3   OH224973   3.973   3.447   6.743
 8343TIP3    H124974   4.027   3.511   6.697
 8343TIP3    H224975   3.949   3.489   6.825
 8344TIP3   OH224976   6.034   1.732   2.860
 8344TIP3    H124977   6.035   1.774   2.773
 8344TIP3    H224978   5.971   1.661   2.852
 8345TIP3   OH224979   1.226   6.006   1.013
 8345TIP3    H124980   1.293   5.960   1.063
 8345TIP3    H224981   1.144   5.960   1.036
 8346TIP3   OH224982   4.522   5.336   3.626
 8346TIP3    H124983   4.525   5.240   3.629
 8346TIP3    H224984   4.598   5.360   3.573
 8347TIP3   OH224985   5.783   5.365   5.850
 8347TIP3    H124986   5.802   5.347   5.758
 8347TIP3    H224987   5.690   5.347   5.859
 8348TIP3   OH224988   6.565   5.276   0.307
 8348TIP3    H124989   6.624   5.342   0.272
 8348TIP3    H224990   6.621   5.217   0.357
 8349TIP3   OH224991   2.346   3.191   4.289
 8349TIP3    H124992   2.381   3.125   4.350
 8349TIP3    H224993   2.341   3.271   4.342
 8350TIP3   OH224994   6.431   4.345   1.465
 8350TIP3    H124995   6.472   4.356   1.379
 8350TIP3    H224996   6.500   4.367   1.527
 8351TIP3   OH224997   7.941   4.095   1.069
 8351TIP3    H124998   7.846   4.091   1.058
 8351TIP3    H224999   7.975   4.021   1.019
 8352TIP3   OH225000   5.135   5.314   1.981
 8352TIP3    H125001   5.194   5.239   1.993
 8352TIP3    H225002   5.157   5.349   1.895
 8353TIP3   OH225003   2.252   6.865   4.948
 8353TIP3    H125004   2.220   6.824   5.028
 8353TIP3    H225005   2.265   6.792   4.887
 8354TIP3   OH225006   3.425   1.697   6.698
 8354TIP3    H125007   3.385   1.684   6.612
 8354TIP3    H225008   3.487   1.625   6.706
 8355TIP3   OH225009   3.101   6.446   6.381
 8355TIP3    H125010   3.101   6.450   6.285
 8355TIP3    H225011   3.129   6.357   6.401
 8356TIP3   OH225012   4.174   1.231   1.090
 8356TIP3    H125013   4.131   1.157   1.046
 8356TIP3    H225014   4.248   1.253   1.033
 8357TIP3   OH225015   4.705   3.895   1.393
 8357TIP3    H125016   4.686   3.987   1.373
 8357TIP3    H225017   4.754   3.863   1.317
 8358TIP3   OH225018   2.615   6.541   0.097
 8358TIP3    H125019   2.669   6.480   0.147
 8358TIP3    H225020   2.627   6.514   0.006
 8359TIP3   OH225021   7.812   1.810   1.527
 8359TIP3    H125022   7.721   1.801   1.500
 8359TIP3    H225023   7.862   1.795   1.447
 8360TIP3   OH225024   0.708   2.351   1.717
 8360TIP3    H125025   0.737   2.322   1.630
 8360TIP3    H225026   0.780   2.325   1.775
 8361TIP3   OH225027   5.678   6.147   2.764
 8361TIP3    H125028   5.710   6.140   2.675
 8361TIP3    H225029   5.608   6.213   2.760
 8362TIP3   OH225030   1.274   4.850   5.197
 8362TIP3    H125031   1.277   4.837   5.103
 8362TIP3    H225032   1.184   4.829   5.222
 8363TIP3   OH225033   5.313   2.773   3.253
 8363TIP3    H125034   5.263   2.766   3.172
 8363TIP3    H225035   5.393   2.820   3.229
 8364TIP3   OH225036   7.020   5.083   2.889
 8364TIP3    H125037   7.028   5.173   2.858
 8364TIP3    H225038   7.010   5.091   2.984
 8365TIP3   OH225039   4.099   1.642   3.529
 8365TIP3    H125040   4.150   1.625   3.450
 8365TIP3    H225041   4.027   1.698   3.500
 8366TIP3   OH225042   1.985   4.161   3.454
 8366TIP3    H125043   1.992   4.088   3.516
 8366TIP3    H225044   1.917   4.134   3.392
 8367TIP3   OH225045   3.447   0.777   6.067
 8367TIP3    H125046   3.466   0.695   6.111
 8367TIP3    H225047   3.358   0.799   6.094
 8368TIP3   OH225048   0.626   5.401   1.484
 8368TIP3    H125049   0.593   5.400   1.394
 8368TIP3    H225050   0.699   5.338   1.483
 8369TIP3   OH225051   1.175   5.657   1.107
 8369TIP3    H125052   1.233   5.732   1.121
 8369TIP3    H225053   1.087   5.695   1.105
 8370TIP3   OH225054   2.751   1.524   1.391
 8370TIP3    H125055   2.752   1.611   1.431
 8370TIP3    H225056   2.842   1.511   1.362
 8371TIP3   OH225057   2.457   3.695   5.756
 8371TIP3    H125058   2.504   3.612   5.763
 8371TIP3    H225059   2.474   3.739   5.840
 8372TIP3   OH225060   1.683   4.160   5.152
 8372TIP3    H125061   1.616   4.179   5.087
 8372TIP3    H225062   1.636   4.151   5.234
 8373TIP3   OH225063   5.559   4.140   5.261
 8373TIP3    H125064   5.485   4.199   5.245
 8373TIP3    H225065   5.631   4.199   5.282
 8374TIP3   OH225066   6.927   3.399   6.468
 8374TIP3    H125067   6.972   3.335   6.412
 8374TIP3    H225068   6.994   3.464   6.489
 8375TIP3   OH225069   6.429   5.439   5.185
 8375TIP3    H125070   6.373   5.515   5.201
 8375TIP3    H225071   6.444   5.401   5.271
 8376TIP3   OH225072   7.437   1.676   0.822
 8376TIP3    H125073   7.523   1.697   0.858
 8376TIP3    H225074   7.404   1.759   0.787
 8377TIP3   OH225075   0.078   0.530   6.449
 8377TIP3    H125076   0.023   0.601   6.416
 8377TIP3    H225077   0.100   0.557   6.538
 8378TIP3   OH225078   3.536   1.055   3.513
 8378TIP3    H125079   3.473   0.990   3.544
 8378TIP3    H225080   3.613   1.043   3.569
 8379TIP3   OH225081   4.559   2.394   4.515
 8379TIP3    H125082   4.483   2.397   4.457
 8379TIP3    H225083   4.525   2.360   4.598
 8380TIP3   OH225084   2.012   6.025   5.506
 8380TIP3    H125085   2.027   6.060   5.418
 8380TIP3    H225086   1.934   6.071   5.537
 8381TIP3   OH225087   3.505   0.880   5.524
 8381TIP3    H125088   3.481   0.966   5.559
 8381TIP3    H225089   3.468   0.817   5.586
 8382TIP3   OH225090   7.516   6.852   4.372
 8382TIP3    H125091   7.531   6.761   4.400
 8382TIP3    H225092   7.589   6.871   4.313
 8383TIP3   OH225093   6.358   1.491   5.808
 8383TIP3    H125094   6.434   1.482   5.750
 8383TIP3    H225095   6.320   1.404   5.812
 8384TIP3   OH225096   4.906   0.840   1.954
 8384TIP3    H125097   4.841   0.809   2.017
 8384TIP3    H225098   4.874   0.927   1.928
 8385TIP3   OH225099   1.211   0.934   3.519
 8385TIP3    H125100   1.272   0.924   3.592
 8385TIP3    H225101   1.172   1.020   3.531
 8386TIP3   OH225102   5.111   3.672   0.568
 8386TIP3    H125103   5.029   3.624   0.574
 8386TIP3    H225104   5.131   3.697   0.658
 8387TIP3   OH225105   0.099   6.432   6.128
 8387TIP3    H125106   0.037   6.437   6.201
 8387TIP3    H225107   0.074   6.502   6.069
 8388TIP3   OH225108   4.004   2.800   1.085
 8388TIP3    H125109   3.917   2.773   1.056
 8388TIP3    H225110   4.031   2.732   1.147
 8389TIP3   OH225111   5.950   4.900   1.046
 8389TIP3    H125112   5.877   4.840   1.063
 8389TIP3    H225113   5.915   4.962   0.981
 8390TIP3   OH225114   8.171   6.249   2.974
 8390TIP3    H125115   8.212   6.307   3.037
 8390TIP3    H225116   8.192   6.286   2.888
 8391TIP3   OH225117   5.647   0.028   0.211
 8391TIP3    H125118   5.611   0.112   0.239
 8391TIP3    H225119   5.581  -0.036   0.238
 8392TIP3   OH225120   1.501   5.552   4.724
 8392TIP3    H125121   1.503   5.471   4.775
 8392TIP3    H225122   1.537   5.527   4.639
 8393TIP3   OH225123   3.524   0.175   1.346
 8393TIP3    H125124   3.507   0.211   1.433
 8393TIP3    H225125   3.576   0.242   1.301
 8394TIP3   OH225126   0.647   7.719   3.645
 8394TIP3    H125127   0.603   7.802   3.663
 8394TIP3    H225128   0.711   7.710   3.716
 8395TIP3   OH225129   4.654   6.005   4.320
 8395TIP3    H125130   4.696   5.970   4.398
 8395TIP3    H225131   4.704   5.967   4.247
 8396TIP3   OH225132   6.697   5.817   2.827
 8396TIP3    H125133   6.688   5.912   2.834
 8396TIP3    H225134   6.645   5.783   2.900
 8397TIP3   OH225135   2.037   5.997   3.877
 8397TIP3    H125136   1.995   5.911   3.872
 8397TIP3    H225137   2.031   6.032   3.788
 8398TIP3   OH225138   3.430   1.350   1.344
 8398TIP3    H125139   3.482   1.351   1.424
 8398TIP3    H225140   3.475   1.287   1.287
 8399TIP3   OH225141   4.398   2.671   3.888
 8399TIP3    H125142   4.364   2.697   3.973
 8399TIP3    H225143   4.406   2.576   3.893
 8400TIP3   OH225144   3.176   4.801   4.641
 8400TIP3    H125145   3.198   4.709   4.625
 8400TIP3    H225146   3.180   4.842   4.555
 8401TIP3   OH225147   3.911   5.049   6.260
 8401TIP3    H125148   3.871   5.122   6.212
 8401TIP3    H225149   3.837   4.996   6.288
 8402TIP3   OH225150   7.128   5.025   5.423
 8402TIP3    H125151   7.185   5.082   5.473
 8402TIP3    H225152   7.095   5.079   5.351
 8403TIP3   OH225153   1.054   5.917   5.288
 8403TIP3    H125154   1.135   5.942   5.243
 8403TIP3    H225155   1.083   5.861   5.360
 8404TIP3   OH225156   5.075   3.251   2.932
 8404TIP3    H125157   4.989   3.243   2.891
 8404TIP3    H225158   5.128   3.298   2.867
 8405TIP3   OH225159   0.462   1.600   3.577
 8405TIP3    H125160   0.443   1.609   3.483
 8405TIP3    H225161   0.547   1.557   3.580
 8406TIP3   OH225162   4.786   7.714   3.080
 8406TIP3    H125163   4.722   7.711   3.009
 8406TIP3    H225164   4.760   7.789   3.133
 8407TIP3   OH225165   4.478   1.692   3.233
 8407TIP3    H125166   4.431   1.630   3.178
 8407TIP3    H225167   4.541   1.734   3.174
 8408TIP3   OH225168   2.408   3.929   5.032
 8408TIP3    H125169   2.376   3.919   4.942
 8408TIP3    H225170   2.328   3.934   5.085
 8409TIP3   OH225171   1.760   2.287   2.424
 8409TIP3    H125172   1.739   2.350   2.355
 8409TIP3    H225173   1.678   2.238   2.438
 8410TIP3   OH225174   6.518   4.073   1.881
 8410TIP3    H125175   6.577   4.079   1.806
 8410TIP3    H225176   6.576   4.057   1.956
 8411TIP3   OH225177   1.751   2.388   5.764
 8411TIP3    H125178   1.766   2.412   5.673
 8411TIP3    H225179   1.667   2.427   5.785
 8412TIP3   OH225180   7.694   7.803   4.675
 8412TIP3    H125181   7.780   7.764   4.689
 8412TIP3    H225182   7.689   7.874   4.738
 8413TIP3   OH225183   7.024   2.089   5.197
 8413TIP3    H125184   6.939   2.058   5.168
 8413TIP3    H225185   7.047   2.032   5.271
 8414TIP3   OH225186   5.625   5.382   3.049
 8414TIP3    H125187   5.561   5.433   3.098
 8414TIP3    H225188   5.710   5.416   3.078
 8415TIP3   OH225189   3.412   6.188   3.720
 8415TIP3    H125190   3.462   6.241   3.657
 8415TIP3    H225191   3.478   6.136   3.765
 8416TIP3   OH225192   6.811   3.798   3.223
 8416TIP3    H125193   6.776   3.769   3.307
 8416TIP3    H225194   6.851   3.884   3.242
 8417TIP3   OH225195   1.588   1.079   2.922
 8417TIP3    H125196   1.538   1.017   2.976
 8417TIP3    H225197   1.606   1.031   2.841
 8418TIP3   OH225198   5.344   0.935   4.476
 8418TIP3    H125199   5.263   0.980   4.497
 8418TIP3    H225200   5.335   0.849   4.517
 8419TIP3   OH225201   5.401   1.421   4.959
 8419TIP3    H125202   5.339   1.448   5.026
 8419TIP3    H225203   5.462   1.364   5.006
 8420TIP3   OH225204   2.262   1.689   4.091
 8420TIP3    H125205   2.330   1.622   4.097
 8420TIP3    H225206   2.208   1.662   4.017
 8421TIP3   OH225207   2.201   1.732   0.364
 8421TIP3    H125208   2.192   1.669   0.293
 8421TIP3    H225209   2.295   1.742   0.376
 8422TIP3   OH225210   3.741   5.542   0.768
 8422TIP3    H125211   3.654   5.510   0.743
 8422TIP3    H225212   3.782   5.567   0.686
 8423TIP3   OH225213   6.356   0.215   1.158
 8423TIP3    H125214   6.342   0.135   1.108
 8423TIP3    H225215   6.307   0.282   1.111
 8424TIP3   OH225216   6.086   5.058   1.216
 8424TIP3    H125217   5.999   5.096   1.225
 8424TIP3    H225218   6.070   4.970   1.182
 8425TIP3   OH225219   3.981   6.156   5.390
 8425TIP3    H125220   4.042   6.124   5.457
 8425TIP3    H225221   3.917   6.086   5.380
 8426TIP3   OH225222   1.417   6.273   0.080
 8426TIP3    H125223   1.370   6.305   0.157
 8426TIP3    H225224   1.378   6.187   0.062
 8427TIP3   OH225225   1.812   5.558   2.802
 8427TIP3    H125226   1.849   5.605   2.727
 8427TIP3    H225227   1.876   5.490   2.821
 8428TIP3   OH225228   1.518   1.878   3.382
 8428TIP3    H125229   1.494   1.955   3.434
 8428TIP3    H225230   1.576   1.828   3.439
 8429TIP3   OH225231   1.764   5.087   6.126
 8429TIP3    H125232   1.724   5.150   6.186
 8429TIP3    H225233   1.831   5.043   6.179
 8430TIP3   OH225234   4.294   0.274   0.738
 8430TIP3    H125235   4.294   0.361   0.698
 8430TIP3    H225236   4.208   0.265   0.777
 8431TIP3   OH225237   5.525   5.888   5.751
 8431TIP3    H125238   5.500   5.910   5.661
 8431TIP3    H225239   5.544   5.973   5.791
 8432TIP3   OH225240   5.391   7.841   6.322
 8432TIP3    H125241   5.484   7.853   6.306
 8432TIP3    H225242   5.386   7.801   6.409
 8433TIP3   OH225243   2.371   6.111   0.987
 8433TIP3    H125244   2.286   6.144   1.017
 8433TIP3    H225245   2.355   6.080   0.898
 8434TIP3   OH225246   4.774   6.902   5.455
 8434TIP3    H125247   4.759   6.880   5.548
 8434TIP3    H225248   4.768   6.997   5.452
 8435TIP3   OH225249   4.456   2.619   3.616
 8435TIP3    H125250   4.425   2.641   3.704
 8435TIP3    H225251   4.385   2.570   3.576
 8436TIP3   OH225252   3.110   0.972   3.036
 8436TIP3    H125253   3.155   1.020   3.106
 8436TIP3    H225254   3.045   1.034   3.002
 8437TIP3   OH225255   0.522   4.110   5.821
 8437TIP3    H125256   0.438   4.157   5.813
 8437TIP3    H225257   0.507   4.047   5.891
 8438TIP3   OH225258   1.697   5.399   1.110
 8438TIP3    H125259   1.605   5.397   1.083
 8438TIP3    H225260   1.702   5.336   1.182
 8439TIP3   OH225261   5.384   5.005   3.815
 8439TIP3    H125262   5.438   5.063   3.761
 8439TIP3    H225263   5.406   5.028   3.905
 8440TIP3   OH225264   5.196   6.448   3.285
 8440TIP3    H125265   5.163   6.537   3.298
 8440TIP3    H225266   5.141   6.394   3.341
 8441TIP3   OH225267   3.655   0.618   6.723
 8441TIP3    H125268   3.584   0.635   6.661
 8441TIP3    H225269   3.720   0.685   6.704
 8442TIP3   OH225270   3.547   2.382   4.618
 8442TIP3    H125271   3.636   2.347   4.625
 8442TIP3    H225272   3.530   2.385   4.524
 8443TIP3   OH225273   3.536   3.865   6.674
 8443TIP3    H125274   3.564   3.780   6.640
 8443TIP3    H225275   3.617   3.912   6.692
 8444TIP3   OH225276   2.605   0.784   4.930
 8444TIP3    H125277   2.652   0.707   4.963
 8444TIP3    H225278   2.544   0.749   4.865
 8445TIP3   OH225279   4.072   3.618   0.773
 8445TIP3    H125280   4.130   3.655   0.706
 8445TIP3    H225281   4.131   3.584   0.840
 8446TIP3   OH225282   5.523   2.138   1.263
 8446TIP3    H125283   5.444   2.178   1.225
 8446TIP3    H225284   5.595   2.185   1.223
 8447TIP3   OH225285   4.971   4.160   2.335
 8447TIP3    H125286   5.052   4.149   2.385
 8447TIP3    H225287   4.999   4.195   2.250
 8448TIP3   OH225288   3.959   4.956   3.981
 8448TIP3    H125289   3.995   5.010   3.912
 8448TIP3    H225290   4.025   4.957   4.050
 8449TIP3   OH225291   0.297   0.489   4.010
 8449TIP3    H125292   0.255   0.467   4.093
 8449TIP3    H225293   0.380   0.443   4.011
 8450TIP3   OH225294   5.278   6.789   0.327
 8450TIP3    H125295   5.238   6.760   0.245
 8450TIP3    H225296   5.369   6.806   0.305
 8451TIP3   OH225297   6.012   5.245   2.957
 8451TIP3    H125298   5.957   5.205   3.024
 8451TIP3    H225299   6.046   5.324   2.999
 8452TIP3   OH225300   7.667   2.555   5.560
 8452TIP3    H125301   7.636   2.542   5.471
 8452TIP3    H225302   7.665   2.467   5.599
 8453TIP3   OH225303   6.782   4.799   3.701
 8453TIP3    H125304   6.758   4.891   3.711
 8453TIP3    H225305   6.876   4.801   3.682
 8454TIP3   OH225306   4.050   2.124   1.674
 8454TIP3    H125307   4.077   2.035   1.651
 8454TIP3    H225308   3.965   2.114   1.717
 8455TIP3   OH225309   2.526   2.765   1.388
 8455TIP3    H125310   2.583   2.747   1.313
 8455TIP3    H225311   2.441   2.786   1.349
 8456TIP3   OH225312   6.747   6.469   2.420
 8456TIP3    H125313   6.652   6.455   2.422
 8456TIP3    H225314   6.784   6.380   2.422
 8457TIP3   OH225315   5.382   0.541   3.597
 8457TIP3    H125316   5.330   0.461   3.600
 8457TIP3    H225317   5.416   0.551   3.686
 8458TIP3   OH225318   3.468   6.938   5.606
 8458TIP3    H125319   3.386   6.988   5.606
 8458TIP3    H225320   3.531   6.997   5.566
 8459TIP3   OH225321   6.494   4.000   0.006
 8459TIP3    H125322   6.463   4.090  -0.003
 8459TIP3    H225323   6.415   3.946  -0.006
 8460TIP3   OH225324   0.232   2.675   4.198
 8460TIP3    H125325   0.186   2.750   4.235
 8460TIP3    H225326   0.274   2.633   4.273
 8461TIP3   OH225327   8.095   4.682   1.844
 8461TIP3    H125328   8.067   4.773   1.832
 8461TIP3    H225329   8.102   4.647   1.756
 8462TIP3   OH225330   7.555   4.563   5.346
 8462TIP3    H125331   7.575   4.610   5.265
 8462TIP3    H225332   7.628   4.584   5.405
 8463TIP3   OH225333   3.507   5.788   2.864
 8463TIP3    H125334   3.536   5.712   2.913
 8463TIP3    H225335   3.552   5.862   2.904
 8464TIP3   OH225336   5.852   4.519   0.339
 8464TIP3    H125337   5.890   4.433   0.320
 8464TIP3    H225338   5.923   4.568   0.381
 8465TIP3   OH225339   2.701   0.098   5.520
 8465TIP3    H125340   2.638   0.054   5.577
 8465TIP3    H225341   2.646   0.154   5.464
 8466TIP3   OH225342   2.518   1.501   4.548
 8466TIP3    H125343   2.424   1.517   4.541
 8466TIP3    H225344   2.552   1.580   4.589
 8467TIP3   OH225345   2.722   2.222   2.123
 8467TIP3    H125346   2.756   2.148   2.175
 8467TIP3    H225347   2.735   2.298   2.179
 8468TIP3   OH225348   0.683   3.200   4.693
 8468TIP3    H125349   0.705   3.178   4.603
 8468TIP3    H225350   0.759   3.248   4.726
 8469TIP3   OH225351   4.557   6.244   5.080
 8469TIP3    H125352   4.494   6.174   5.064
 8469TIP3    H225353   4.503   6.324   5.080
 8470TIP3   OH225354   0.790   0.821   4.046
 8470TIP3    H125355   0.844   0.859   3.976
 8470TIP3    H225356   0.852   0.770   4.098
 8471TIP3   OH225357   5.439   6.572   2.952
 8471TIP3    H125358   5.355   6.551   2.991
 8471TIP3    H225359   5.501   6.572   3.025
 8472TIP3   OH225360   6.382   3.150   2.262
 8472TIP3    H125361   6.461   3.194   2.295
 8472TIP3    H225362   6.311   3.188   2.314
 8473TIP3   OH225363   7.945   4.805   1.485
 8473TIP3    H125364   7.961   4.881   1.430
 8473TIP3    H225365   7.997   4.821   1.564
 8474TIP3   OH225366   3.693   2.784   6.356
 8474TIP3    H125367   3.690   2.843   6.280
 8474TIP3    H225368   3.778   2.741   6.349
 8475TIP3   OH225369   5.168   1.519   3.388
 8475TIP3    H125370   5.110   1.583   3.429
 8475TIP3    H225371   5.114   1.479   3.319
 8476TIP3   OH225372   2.958   6.229   1.996
 8476TIP3    H125373   2.915   6.285   1.931
 8476TIP3    H225374   3.051   6.235   1.976
 8477TIP3   OH225375   7.335   2.139   1.084
 8477TIP3    H125376   7.298   2.059   1.047
 8477TIP3    H225377   7.265   2.203   1.077
 8478TIP3   OH225378   3.764   1.716   5.021
 8478TIP3    H125379   3.804   1.687   4.939
 8478TIP3    H225380   3.790   1.649   5.084
 8479TIP3   OH225381   5.133   1.193   2.830
 8479TIP3    H125382   5.154   1.157   2.744
 8479TIP3    H225383   5.068   1.260   2.813
 8480TIP3   OH225384   7.805   1.506   4.625
 8480TIP3    H125385   7.798   1.560   4.547
 8480TIP3    H225386   7.772   1.420   4.598
 8481TIP3   OH225387   4.820   0.917   5.320
 8481TIP3    H125388   4.912   0.929   5.341
 8481TIP3    H225389   4.813   0.941   5.227
 8482TIP3   OH225390   2.404   5.766   3.612
 8482TIP3    H125391   2.378   5.673   3.613
 8482TIP3    H225392   2.439   5.781   3.700
 8483TIP3   OH225393   8.039   2.044   3.252
 8483TIP3    H125394   7.965   2.069   3.308
 8483TIP3    H225395   8.090   2.125   3.244
 8484TIP3   OH225396   4.148   1.697   4.385
 8484TIP3    H125397   4.127   1.608   4.414
 8484TIP3    H225398   4.203   1.685   4.308
 8485TIP3   OH225399   3.222   4.569   1.780
 8485TIP3    H125400   3.280   4.606   1.713
 8485TIP3    H225401   3.185   4.491   1.738
 8486TIP3   OH225402   5.761   0.894   3.798
 8486TIP3    H125403   5.808   0.832   3.742
 8486TIP3    H225404   5.701   0.840   3.849
 8487TIP3   OH225405   7.011   6.546   2.024
 8487TIP3    H125406   7.009   6.450   2.028
 8487TIP3    H225407   6.941   6.569   1.964
 8488TIP3   OH225408   1.619   2.314   0.727
 8488TIP3    H125409   1.695   2.263   0.755
 8488TIP3    H225410   1.641   2.343   0.639
 8489TIP3   OH225411   0.555   1.158   5.361
 8489TIP3    H125412   0.604   1.224   5.410
 8489TIP3    H225413   0.620   1.095   5.333
 8490TIP3   OH225414   0.619   3.028   6.096
 8490TIP3    H125415   0.529   3.024   6.129
 8490TIP3    H225416   0.663   2.954   6.139
 8491TIP3   OH225417   6.289   7.648   2.352
 8491TIP3    H125418   6.329   7.660   2.265
 8491TIP3    H225419   6.310   7.558   2.375
 8492TIP3   OH225420   2.360   4.968   0.964
 8492TIP3    H125421   2.328   5.000   1.049
 8492TIP3    H225422   2.308   4.889   0.947
 8493TIP3   OH225423   2.424   4.428   1.856
 8493TIP3    H125424   2.379   4.403   1.775
 8493TIP3    H225425   2.358   4.474   1.907
 8494TIP3   OH225426   2.354   5.850   4.927
 8494TIP3    H125427   2.384   5.763   4.952
 8494TIP3    H225428   2.294   5.875   4.997
 8495TIP3   OH225429   5.889   0.663   1.493
 8495TIP3    H125430   5.852   0.586   1.450
 8495TIP3    H225431   5.939   0.627   1.567
 8496TIP3   OH225432   3.361   7.359   1.661
 8496TIP3    H125433   3.298   7.428   1.678
 8496TIP3    H225434   3.326   7.282   1.706
 8497TIP3   OH225435   6.453   5.116   0.851
 8497TIP3    H125436   6.468   5.073   0.766
 8497TIP3    H225437   6.488   5.204   0.840
 8498TIP3   OH225438   1.450   3.242   1.566
 8498TIP3    H125439   1.536   3.280   1.546
 8498TIP3    H225440   1.470   3.161   1.613
 8499TIP3   OH225441   2.879   3.562   0.669
 8499TIP3    H125442   2.826   3.627   0.715
 8499TIP3    H225443   2.969   3.589   0.685
 8500TIP3   OH225444   4.345   3.251   1.493
 8500TIP3    H125445   4.366   3.177   1.549
 8500TIP3    H225446   4.422   3.308   1.498
 8501TIP3   OH225447   4.534   7.030   3.455
 8501TIP3    H125448   4.459   7.036   3.514
 8501TIP3    H225449   4.511   7.088   3.382
 8502TIP3   OH225450   4.991   5.884   2.061
 8502TIP3    H125451   4.949   5.957   2.016
 8502TIP3    H225452   4.969   5.897   2.154
 8503TIP3   OH225453   6.053   5.815   4.525
 8503TIP3    H125454   6.072   5.892   4.579
 8503TIP3    H225455   6.139   5.778   4.505
 8504TIP3   OH225456   0.741   3.251   3.226
 8504TIP3    H125457   0.680   3.262   3.299
 8504TIP3    H225458   0.805   3.321   3.237
 8505TIP3   OH225459   6.008   4.733   6.576
 8505TIP3    H125460   6.065   4.691   6.512
 8505TIP3    H225461   6.015   4.678   6.654
 8506TIP3   OH225462   3.248   2.058   1.878
 8506TIP3    H125463   3.305   2.072   1.954
 8506TIP3    H225464   3.184   2.129   1.883
 8507TIP3   OH225465   5.887   2.925   2.572
 8507TIP3    H125466   5.828   2.991   2.609
 8507TIP3    H225467   5.925   2.967   2.495
 8508TIP3   OH225468   1.328   1.449   3.859
 8508TIP3    H125469   1.366   1.490   3.937
 8508TIP3    H225470   1.309   1.523   3.801
 8509TIP3   OH225471   1.113   7.276   4.191
 8509TIP3    H125472   1.181   7.311   4.133
 8509TIP3    H225473   1.107   7.183   4.168
 8510TIP3   OH225474   1.413   0.486   1.801
 8510TIP3    H125475   1.475   0.421   1.834
 8510TIP3    H225476   1.343   0.488   1.867
 8511TIP3   OH225477   1.475   5.614   5.415
 8511TIP3    H125478   1.508   5.688   5.364
 8511TIP3    H225479   1.437   5.555   5.349
 8512TIP3   OH225480   3.907   3.599   4.724
 8512TIP3    H125481   3.913   3.587   4.630
 8512TIP3    H225482   3.862   3.683   4.735
 8513TIP3   OH225483   0.634   2.864   4.214
 8513TIP3    H125484   0.727   2.861   4.194
 8513TIP3    H225485   0.602   2.776   4.194
 8514TIP3   OH225486   4.232   3.266   4.808
 8514TIP3    H125487   4.164   3.247   4.744
 8514TIP3    H225488   4.210   3.353   4.842
 8515TIP3   OH225489   3.405   5.636   2.265
 8515TIP3    H125490   3.447   5.587   2.335
 8515TIP3    H225491   3.474   5.693   2.231
 8516TIP3   OH225492   1.776   7.611   5.220
 8516TIP3    H125493   1.709   7.671   5.189
 8516TIP3    H225494   1.840   7.607   5.149
 8517TIP3   OH225495   5.037   2.500   6.216
 8517TIP3    H125496   5.015   2.528   6.127
 8517TIP3    H225497   5.129   2.473   6.210
 8518TIP3   OH225498   4.229   0.111   5.985
 8518TIP3    H125499   4.285   0.067   6.049
 8518TIP3    H225500   4.279   0.188   5.957
 8519TIP3   OH225501   4.637   6.347   6.371
 8519TIP3    H125502   4.709   6.402   6.341
 8519TIP3    H225503   4.589   6.324   6.291
 8520TIP3   OH225504   2.781   1.142   0.818
 8520TIP3    H125505   2.752   1.209   0.879
 8520TIP3    H225506   2.785   1.187   0.733
 8521TIP3   OH225507   1.001   0.354   0.906
 8521TIP3    H125508   1.082   0.314   0.873
 8521TIP3    H225509   0.932   0.317   0.852
 8522TIP3   OH225510   0.286   5.111   1.008
 8522TIP3    H125511   0.270   5.152   1.093
 8522TIP3    H225512   0.264   5.179   0.944
 8523TIP3   OH225513   6.163   3.240   0.139
 8523TIP3    H125514   6.104   3.168   0.159
 8523TIP3    H225515   6.147   3.260   0.047
 8524TIP3   OH225516   7.006   4.164   4.500
 8524TIP3    H125517   6.950   4.234   4.465
 8524TIP3    H225518   7.095   4.195   4.486
 8525TIP3   OH225519   4.548   1.602   2.758
 8525TIP3    H125520   4.518   1.641   2.841
 8525TIP3    H225521   4.532   1.671   2.693
 8526TIP3   OH225522   0.956   2.229   2.602
 8526TIP3    H125523   0.925   2.256   2.516
 8526TIP3    H225524   1.046   2.199   2.586
 8527TIP3   OH225525   6.804   7.246   0.317
 8527TIP3    H125526   6.854   7.201   0.385
 8527TIP3    H225527   6.794   7.182   0.247
 8528TIP3   OH225528   0.574   2.093   3.361
 8528TIP3    H125529   0.487   2.112   3.326
 8528TIP3    H225530   0.624   2.062   3.286
 8529TIP3   OH225531   0.443   7.097   5.085
 8529TIP3    H125532   0.460   7.029   5.150
 8529TIP3    H225533   0.406   7.050   5.010
 8530TIP3   OH225534   7.404   0.941   0.315
 8530TIP3    H125535   7.397   0.943   0.219
 8530TIP3    H225536   7.314   0.937   0.345
 8531TIP3   OH225537   2.906   4.812   0.215
 8531TIP3    H125538   2.908   4.742   0.150
 8531TIP3    H225539   2.970   4.786   0.281
 8532TIP3   OH225540   7.517   3.472   5.487
 8532TIP3    H125541   7.579   3.539   5.457
 8532TIP3    H225542   7.431   3.512   5.476
 8533TIP3   OH225543   5.438   5.231   0.115
 8533TIP3    H125544   5.528   5.202   0.117
 8533TIP3    H225545   5.395   5.183   0.186
 8534TIP3   OH225546   2.927   3.554   3.125
 8534TIP3    H125547   2.923   3.467   3.165
 8534TIP3    H225548   3.020   3.576   3.126
 8535TIP3   OH225549   3.314   1.635   2.577
 8535TIP3    H125550   3.304   1.612   2.485
 8535TIP3    H225551   3.224   1.647   2.609
 8536TIP3   OH225552   0.565   3.132   1.792
 8536TIP3    H125553   0.504   3.135   1.866
 8536TIP3    H225554   0.521   3.180   1.722
 8537TIP3   OH225555   5.715   3.316   5.006
 8537TIP3    H125556   5.674   3.287   4.924
 8537TIP3    H225557   5.775   3.245   5.028
 8538TIP3   OH225558   3.537   1.546   6.184
 8538TIP3    H125559   3.626   1.578   6.171
 8538TIP3    H225560   3.485   1.592   6.119
 8539TIP3   OH225561   4.269   2.402   5.526
 8539TIP3    H125562   4.291   2.310   5.512
 8539TIP3    H225563   4.299   2.421   5.615
 8540TIP3   OH225564   5.613   5.693   3.951
 8540TIP3    H125565   5.586   5.731   3.867
 8540TIP3    H225566   5.681   5.753   3.983
 8541TIP3   OH225567   2.292   2.525   3.325
 8541TIP3    H125568   2.259   2.482   3.246
 8541TIP3    H225569   2.267   2.617   3.313
 8542TIP3   OH225570   4.755   1.664   1.948
 8542TIP3    H125571   4.695   1.700   1.883
 8542TIP3    H225572   4.752   1.725   2.021
 8543TIP3   OH225573   4.102   4.898   6.033
 8543TIP3    H125574   4.112   4.841   5.957
 8543TIP3    H225575   4.184   4.948   6.035
 8544TIP3   OH225576   5.458   0.836   0.483
 8544TIP3    H125577   5.505   0.759   0.452
 8544TIP3    H225578   5.380   0.800   0.527
 8545TIP3   OH225579   7.537   6.958   1.448
 8545TIP3    H125580   7.628   6.929   1.451
 8545TIP3    H225581   7.511   6.946   1.357
 8546TIP3   OH225582   0.316   6.111   2.071
 8546TIP3    H125583   0.288   6.104   2.162
 8546TIP3    H225584   0.386   6.047   2.063
 8547TIP3   OH225585   6.260   4.411   3.126
 8547TIP3    H125586   6.226   4.394   3.214
 8547TIP3    H225587   6.271   4.324   3.087
 8548TIP3   OH225588   5.696   1.076   5.372
 8548TIP3    H125589   5.704   1.123   5.455
 8548TIP3    H225590   5.776   1.024   5.366
 8549TIP3   OH225591   4.766   2.383   3.130
 8549TIP3    H125592   4.676   2.412   3.117
 8549TIP3    H225593   4.760   2.287   3.134
 8550TIP3   OH225594   2.057   4.418   0.878
 8550TIP3    H125595   1.978   4.364   0.881
 8550TIP3    H225596   2.111   4.386   0.951
 8551TIP3   OH225597   4.429   5.931   0.117
 8551TIP3    H125598   4.367   5.926   0.044
 8551TIP3    H225599   4.493   5.863   0.099
 8552TIP3   OH225600   6.099   2.053   3.810
 8552TIP3    H125601   6.011   2.090   3.803
 8552TIP3    H225602   6.110   2.034   3.903
 8553TIP3   OH225603   8.158   6.640   5.735
 8553TIP3    H125604   8.166   6.582   5.659
 8553TIP3    H225605   8.092   6.705   5.708
 8554TIP3   OH225606   4.118   2.291   3.016
 8554TIP3    H125607   4.077   2.204   3.017
 8554TIP3    H225608   4.113   2.318   2.924
 8555TIP3   OH225609   6.211   1.347   2.459
 8555TIP3    H125610   6.210   1.428   2.511
 8555TIP3    H225611   6.118   1.326   2.447
 8556TIP3   OH225612   4.187   2.380   4.968
 8556TIP3    H125613   4.142   2.455   4.930
 8556TIP3    H225614   4.118   2.315   4.982
 8557TIP3   OH225615   2.542   5.354   3.737
 8557TIP3    H125616   2.626   5.379   3.698
 8557TIP3    H225617   2.480   5.354   3.665
 8558TIP3   OH225618   2.031   2.925   6.132
 8558TIP3    H125619   1.963   2.973   6.179
 8558TIP3    H225620   2.111   2.976   6.147
 8559TIP3   OH225621   3.241   1.333   6.432
 8559TIP3    H125622   3.268   1.270   6.499
 8559TIP3    H225623   3.158   1.367   6.463
 8560TIP3   OH225624   1.276   5.790   3.573
 8560TIP3    H125625   1.367   5.783   3.602
 8560TIP3    H225626   1.273   5.873   3.527
 8561TIP3   OH225627   8.158   2.884   5.551
 8561TIP3    H125628   8.160   2.915   5.461
 8561TIP3    H225629   8.099   2.944   5.597
 8562TIP3   OH225630   5.909   2.310   2.787
 8562TIP3    H125631   5.878   2.289   2.699
 8562TIP3    H225632   6.004   2.303   2.782
 8563TIP3   OH225633   7.480   5.776   1.498
 8563TIP3    H125634   7.542   5.711   1.465
 8563TIP3    H225635   7.427   5.728   1.562
 8564TIP3   OH225636   7.240   3.304   2.772
 8564TIP3    H125637   7.163   3.259   2.808
 8564TIP3    H225638   7.235   3.392   2.807
 8565TIP3   OH225639   6.532   7.189   2.000
 8565TIP3    H125640   6.585   7.118   1.963
 8565TIP3    H225641   6.465   7.207   1.934
 8566TIP3   OH225642   2.735   5.052   3.707
 8566TIP3    H125643   2.650   5.080   3.672
 8566TIP3    H225644   2.786   5.028   3.630
 8567TIP3   OH225645   7.265   2.131   4.542
 8567TIP3    H125646   7.276   2.036   4.546
 8567TIP3    H225647   7.339   2.162   4.490
 8568TIP3   OH225648   2.474   4.443   4.324
 8568TIP3    H125649   2.501   4.503   4.254
 8568TIP3    H225650   2.549   4.384   4.334
 8569TIP3   OH225651   1.859   3.124   0.747
 8569TIP3    H125652   1.860   3.029   0.743
 8569TIP3    H225653   1.860   3.152   0.656
 8570TIP3   OH225654   6.447   7.552   1.497
 8570TIP3    H125655   6.361   7.586   1.519
 8570TIP3    H225656   6.497   7.629   1.470
 8571TIP3   OH225657   4.587   7.585   6.515
 8571TIP3    H125658   4.633   7.536   6.584
 8571TIP3    H225659   4.506   7.614   6.556
 8572TIP3   OH225660   2.690   7.075   3.622
 8572TIP3    H125661   2.594   7.071   3.620
 8572TIP3    H225662   2.711   7.169   3.621
 8573TIP3   OH225663   7.451   1.162   1.022
 8573TIP3    H125664   7.405   1.214   0.956
 8573TIP3    H225665   7.518   1.221   1.057
 8574TIP3   OH225666   6.327   2.744   6.254
 8574TIP3    H125667   6.340   2.769   6.163
 8574TIP3    H225668   6.358   2.654   6.258
 8575TIP3   OH225669   6.091   7.792   1.377
 8575TIP3    H125670   6.046   7.712   1.406
 8575TIP3    H225671   6.093   7.784   1.282
 8576TIP3   OH225672   6.959   0.988   2.104
 8576TIP3    H125673   7.037   1.009   2.051
 8576TIP3    H225674   6.885   1.016   2.049
 8577TIP3   OH225675   1.318   4.740   3.228
 8577TIP3    H125676   1.320   4.835   3.220
 8577TIP3    H225677   1.381   4.720   3.297
 8578TIP3   OH225678   7.347   5.197   6.473
 8578TIP3    H125679   7.365   5.103   6.484
 8578TIP3    H225680   7.336   5.229   6.563
 8579TIP3   OH225681   5.876   4.042   1.372
 8579TIP3    H125682   5.796   3.991   1.363
 8579TIP3    H225683   5.925   3.997   1.441
 8580TIP3   OH225684   3.955   0.226   6.169
 8580TIP3    H125685   4.007   0.275   6.232
 8580TIP3    H225686   3.876   0.202   6.216
 8581TIP3   OH225687   6.066   0.124   3.231
 8581TIP3    H125688   6.159   0.137   3.246
 8581TIP3    H225689   6.037   0.203   3.185
 8582TIP3   OH225690   1.579   5.297   0.504
 8582TIP3    H125691   1.588   5.222   0.445
 8582TIP3    H225692   1.588   5.373   0.446
 8583TIP3   OH225693   0.331   4.177   6.111
 8583TIP3    H125694   0.339   4.091   6.070
 8583TIP3    H225695   0.249   4.213   6.075
 8584TIP3   OH225696   8.013   2.111   0.696
 8584TIP3    H125697   8.047   2.072   0.616
 8584TIP3    H225698   7.919   2.120   0.681
 8585TIP3   OH225699   6.384   4.529   4.253
 8585TIP3    H125700   6.422   4.442   4.244
 8585TIP3    H225701   6.359   4.553   4.164
 8586TIP3   OH225702   1.775   3.712   2.361
 8586TIP3    H125703   1.688   3.744   2.386
 8586TIP3    H225704   1.826   3.791   2.345
 8587TIP3   OH225705   2.896   7.411   4.882
 8587TIP3    H125706   2.927   7.321   4.871
 8587TIP3    H225707   2.834   7.406   4.954
 8588TIP3   OH225708   0.267   4.358   4.522
 8588TIP3    H125709   0.300   4.407   4.597
 8588TIP3    H225710   0.312   4.273   4.528
 8589TIP3   OH225711   0.301   4.918   0.374
 8589TIP3    H125712   0.209   4.892   0.386
 8589TIP3    H225713   0.323   4.886   0.286
 8590TIP3   OH225714   2.348   5.567   0.274
 8590TIP3    H125715   2.345   5.538   0.182
 8590TIP3    H225716   2.315   5.492   0.324
 8591TIP3   OH225717   0.921   4.330   3.614
 8591TIP3    H125718   0.876   4.304   3.534
 8591TIP3    H225719   0.859   4.311   3.684
 8592TIP3   OH225720   0.839   2.603   1.922
 8592TIP3    H125721   0.849   2.594   2.017
 8592TIP3    H225722   0.746   2.592   1.906
 8593TIP3   OH225723   3.388   3.920   3.485
 8593TIP3    H125724   3.304   3.966   3.494
 8593TIP3    H225725   3.375   3.836   3.529
 8594TIP3   OH225726   7.316   7.038   2.141
 8594TIP3    H125727   7.270   7.008   2.220
 8594TIP3    H225728   7.267   6.998   2.069
 8595TIP3   OH225729   4.069   3.290   3.927
 8595TIP3    H125730   4.034   3.327   3.846
 8595TIP3    H225731   4.122   3.215   3.899
 8596TIP3   OH225732  -0.002   7.388   0.367
 8596TIP3    H125733   0.040   7.437   0.297
 8596TIP3    H225734   0.032   7.427   0.448
 8597TIP3   OH225735   2.751   0.709   0.593
 8597TIP3    H125736   2.804   0.642   0.549
 8597TIP3    H225737   2.661   0.680   0.581
 8598TIP3   OH225738   1.938   3.491   2.910
 8598TIP3    H125739   1.908   3.545   2.983
 8598TIP3    H225740   1.862   3.483   2.852
 8599TIP3   OH225741   7.349   0.362   2.498
 8599TIP3    H125742   7.276   0.336   2.441
 8599TIP3    H225743   7.315   0.437   2.546
 8600TIP3   OH225744   2.065   7.234   0.304
 8600TIP3    H125745   2.018   7.167   0.253
 8600TIP3    H225746   2.000   7.303   0.318
 8601TIP3   OH225747   1.692   4.022   0.579
 8601TIP3    H125748   1.698   3.959   0.506
 8601TIP3    H225749   1.632   3.981   0.641
 8602TIP3   OH225750   5.166   0.213   1.279
 8602TIP3    H125751   5.074   0.233   1.294
 8602TIP3    H225752   5.213   0.271   1.339
 8603TIP3   OH225753   6.644   1.594   5.904
 8603TIP3    H125754   6.638   1.527   5.971
 8603TIP3    H225755   6.553   1.622   5.890
 8604TIP3   OH225756   2.958   3.018   3.479
 8604TIP3    H125757   2.879   2.997   3.529
 8604TIP3    H225758   3.021   2.950   3.503
 8605TIP3   OH225759   3.211   1.077   5.555
 8605TIP3    H125760   3.247   1.090   5.468
 8605TIP3    H225761   3.280   1.105   5.615
 8606TIP3   OH225762   2.973   1.182   3.337
 8606TIP3    H125763   2.994   1.259   3.390
 8606TIP3    H225764   3.058   1.150   3.306
 8607TIP3   OH225765   1.740   0.313   4.982
 8607TIP3    H125766   1.685   0.238   5.005
 8607TIP3    H225767   1.685   0.389   4.997
 8608TIP3   OH225768   3.657   3.187   6.404
 8608TIP3    H125769   3.636   3.096   6.423
 8608TIP3    H225770   3.710   3.215   6.479
 8609TIP3   OH225771   3.937   0.654   0.251
 8609TIP3    H125772   3.859   0.613   0.288
 8609TIP3    H225773   4.010   0.620   0.303
 8610TIP3   OH225774   2.218   2.698   1.275
 8610TIP3    H125775   2.239   2.788   1.302
 8610TIP3    H225776   2.208   2.703   1.180
 8611TIP3   OH225777   5.631   0.257   1.822
 8611TIP3    H125778   5.612   0.345   1.788
 8611TIP3    H225779   5.550   0.208   1.809
 8612TIP3   OH225780   0.174   3.892   5.115
 8612TIP3    H125781   0.107   3.942   5.068
 8612TIP3    H225782   0.124   3.843   5.181
 8613TIP3   OH225783   3.792   7.139   1.194
 8613TIP3    H125784   3.820   7.222   1.234
 8613TIP3    H225785   3.723   7.107   1.252
 8614TIP3   OH225786   6.976   1.178   3.197
 8614TIP3    H125787   6.932   1.154   3.115
 8614TIP3    H225788   6.960   1.272   3.206
 8615TIP3   OH225789   1.326   1.577   4.959
 8615TIP3    H125790   1.332   1.611   5.049
 8615TIP3    H225791   1.258   1.629   4.918
 8616TIP3   OH225792   3.215   2.597   2.068
 8616TIP3    H125793   3.175   2.683   2.053
 8616TIP3    H225794   3.150   2.535   2.036
 8617TIP3   OH225795   2.743   1.615   5.679
 8617TIP3    H125796   2.662   1.663   5.695
 8617TIP3    H225797   2.719   1.549   5.614
 8618TIP3   OH225798   0.849   6.454   1.537
 8618TIP3    H125799   0.872   6.362   1.523
 8618TIP3    H225800   0.863   6.468   1.631
 8619TIP3   OH225801   0.073   0.839   2.697
 8619TIP3    H125802   0.053   0.887   2.777
 8619TIP3    H225803   0.037   0.893   2.627
 8620TIP3   OH225804   1.560   6.977   0.754
 8620TIP3    H125805   1.566   6.948   0.664
 8620TIP3    H225806   1.625   6.925   0.801
 8621TIP3   OH225807   1.936   2.805   5.117
 8621TIP3    H125808   2.013   2.816   5.061
 8621TIP3    H225809   1.964   2.836   5.203
 8622TIP3   OH225810   4.519   0.758   4.422
 8622TIP3    H125811   4.588   0.694   4.401
 8622TIP3    H225812   4.451   0.742   4.358
 8623TIP3   OH225813   2.301   6.444   6.303
 8623TIP3    H125814   2.314   6.446   6.208
 8623TIP3    H225815   2.387   6.424   6.340
 8624TIP3   OH225816   6.046   4.268   1.438
 8624TIP3    H125817   6.023   4.175   1.446
 8624TIP3    H225818   6.028   4.289   1.346
 8625TIP3   OH225819   2.019   1.913   4.559
 8625TIP3    H125820   2.047   1.902   4.650
 8625TIP3    H225821   2.086   1.869   4.508
 8626TIP3   OH225822   4.266   2.557   4.321
 8626TIP3    H125823   4.180   2.515   4.323
 8626TIP3    H225824   4.325   2.490   4.287
 8627TIP3   OH225825   4.860   2.729   4.141
 8627TIP3    H125826   4.829   2.807   4.097
 8627TIP3    H225827   4.943   2.708   4.098
 8628TIP3   OH225828   1.786   2.792   3.833
 8628TIP3    H125829   1.695   2.820   3.842
 8628TIP3    H225830   1.814   2.771   3.922
 8629TIP3   OH225831   2.679   2.210   4.674
 8629TIP3    H125832   2.631   2.159   4.739
 8629TIP3    H225833   2.768   2.218   4.710
 8630TIP3   OH225834   7.658   6.466   4.886
 8630TIP3    H125835   7.570   6.502   4.898
 8630TIP3    H225836   7.652   6.414   4.806
 8631TIP3   OH225837   7.549   2.635   6.338
 8631TIP3    H125838   7.620   2.611   6.279
 8631TIP3    H225839   7.519   2.720   6.308
 8632TIP3   OH225840   1.897   0.217   2.704
 8632TIP3    H125841   1.985   0.223   2.669
 8632TIP3    H225842   1.840   0.245   2.632
 8633TIP3   OH225843   2.800   6.059   3.037
 8633TIP3    H125844   2.872   6.000   3.056
 8633TIP3    H225845   2.839   6.147   3.039
 8634TIP3   OH225846   7.598   0.513   0.796
 8634TIP3    H125847   7.654   0.491   0.871
 8634TIP3    H225848   7.590   0.431   0.747
 8635TIP3   OH225849   6.377   6.275   3.647
 8635TIP3    H125850   6.395   6.278   3.740
 8635TIP3    H225851   6.333   6.359   3.629
 8636TIP3   OH225852   6.738   3.965   2.002
 8636TIP3    H125853   6.795   3.896   2.036
 8636TIP3    H225854   6.784   3.999   1.925
 8637TIP3   OH225855   7.095   5.033   0.033
 8637TIP3    H125856   7.029   5.102   0.029
 8637TIP3    H225857   7.060   4.971   0.097
 8638TIP3   OH225858   3.961   4.370   1.958
 8638TIP3    H125859   3.963   4.432   2.031
 8638TIP3    H225860   3.987   4.286   1.997
 8639TIP3   OH225861   3.302   2.615   2.706
 8639TIP3    H125862   3.346   2.639   2.624
 8639TIP3    H225863   3.336   2.527   2.726
 8640TIP3   OH225864   2.734   5.692   6.370
 8640TIP3    H125865   2.728   5.598   6.385
 8640TIP3    H225866   2.647   5.716   6.337
 8641TIP3   OH225867   1.886   5.142   1.545
 8641TIP3    H125868   1.959   5.082   1.538
 8641TIP3    H225869   1.809   5.086   1.552
 8642TIP3   OH225870   0.535   2.810   4.664
 8642TIP3    H125871   0.503   2.889   4.709
 8642TIP3    H225872   0.561   2.751   4.735
 8643TIP3   OH225873   5.909   6.279   2.457
 8643TIP3    H125874   5.942   6.284   2.367
 8643TIP3    H225875   5.981   6.309   2.511
 8644TIP3   OH225876   3.599   6.533   4.252
 8644TIP3    H125877   3.515   6.504   4.287
 8644TIP3    H225878   3.619   6.471   4.181
 8645TIP3   OH225879   3.359   3.381   1.982
 8645TIP3    H125880   3.439   3.423   2.014
 8645TIP3    H225881   3.312   3.450   1.936
 8646TIP3   OH225882   0.901   0.340   0.061
 8646TIP3    H125883   0.805   0.335   0.066
 8646TIP3    H225884   0.919   0.357  -0.032
 8647TIP3   OH225885   6.792   1.785   3.134
 8647TIP3    H125886   6.704   1.776   3.170
 8647TIP3    H225887   6.779   1.830   3.050
 8648TIP3   OH225888   5.033   6.741   6.328
 8648TIP3    H125889   5.101   6.696   6.278
 8648TIP3    H225890   5.066   6.741   6.418
 8649TIP3   OH225891   8.038   2.408   5.442
 8649TIP3    H125892   7.998   2.322   5.451
 8649TIP3    H225893   8.119   2.403   5.494
 8650TIP3   OH225894   1.267   1.616   3.474
 8650TIP3    H125895   1.293   1.595   3.563
 8650TIP3    H225896   1.187   1.565   3.460
 8651TIP3   OH225897   7.397   2.775   0.369
 8651TIP3    H125898   7.334   2.823   0.314
 8651TIP3    H225899   7.441   2.844   0.419
 8652TIP3   OH225900   2.117   6.516   4.366
 8652TIP3    H125901   2.088   6.575   4.296
 8652TIP3    H225902   2.105   6.566   4.446
 8653TIP3   OH225903   8.194   4.058   4.704
 8653TIP3    H125904   8.263   4.112   4.743
 8653TIP3    H225905   8.188   3.982   4.762
 8654TIP3   OH225906   5.283   4.695   5.843
 8654TIP3    H125907   5.297   4.789   5.833
 8654TIP3    H225908   5.323   4.673   5.928
 8655TIP3   OH225909   7.133   5.052   4.285
 8655TIP3    H125910   7.224   5.044   4.312
 8655TIP3    H225911   7.083   5.047   4.366
 8656TIP3   OH225912   6.719   3.108   4.301
 8656TIP3    H125913   6.642   3.148   4.261
 8656TIP3    H225914   6.719   3.141   4.391
 8657TIP3   OH225915   7.732   2.825   5.961
 8657TIP3    H125916   7.649   2.840   6.007
 8657TIP3    H225917   7.772   2.912   5.956
 8658TIP3   OH225918   0.022   4.749   1.370
 8658TIP3    H125919   0.104   4.718   1.408
 8658TIP3    H225920   0.009   4.694   1.293
 8659TIP3   OH225921   7.106   7.645   3.608
 8659TIP3    H125922   7.166   7.718   3.595
 8659TIP3    H225923   7.159   7.577   3.650
 8660TIP3   OH225924   5.083   3.598   2.283
 8660TIP3    H125925   4.990   3.594   2.308
 8660TIP3    H225926   5.101   3.692   2.277
 8661TIP3   OH225927   8.267   4.491   3.187
 8661TIP3    H125928   8.276   4.584   3.209
 8661TIP3    H225929   8.222   4.454   3.263
 8662TIP3   OH225930   2.187   3.996   2.033
 8662TIP3    H125931   2.240   3.966   2.107
 8662TIP3    H225932   2.133   3.921   2.010
 8663TIP3   OH225933   3.203   7.274   5.057
 8663TIP3    H125934   3.291   7.305   5.079
 8663TIP3    H225935   3.191   7.297   4.965
 8664TIP3   OH225936   4.919   5.378   5.629
 8664TIP3    H125937   4.951   5.409   5.545
 8664TIP3    H225938   4.872   5.297   5.609
 8665TIP3   OH225939   7.129   6.175   3.346
 8665TIP3    H125940   7.191   6.126   3.293
 8665TIP3    H225941   7.049   6.179   3.293
 8666TIP3   OH225942   4.267   7.240   0.717
 8666TIP3    H125943   4.332   7.181   0.679
 8666TIP3    H225944   4.256   7.309   0.652
 8667TIP3   OH225945   0.716   6.384   4.447
 8667TIP3    H125946   0.700   6.333   4.527
 8667TIP3    H225947   0.639   6.366   4.392
 8668TIP3   OH225948   5.612   5.110   5.067
 8668TIP3    H125949   5.589   5.032   5.017
 8668TIP3    H225950   5.677   5.155   5.013
 8669TIP3   OH225951   6.435   2.491   6.044
 8669TIP3    H125952   6.478   2.430   5.984
 8669TIP3    H225953   6.504   2.553   6.069
 8670TIP3   OH225954   2.991   2.244   2.821
 8670TIP3    H125955   3.050   2.191   2.874
 8670TIP3    H225956   3.020   2.334   2.836
 8671TIP3   OH225957   2.655   4.640   2.787
 8671TIP3    H125958   2.709   4.618   2.711
 8671TIP3    H225959   2.576   4.587   2.776
 8672TIP3   OH225960   1.002   1.128   4.368
 8672TIP3    H125961   1.069   1.060   4.377
 8672TIP3    H225962   1.041   1.206   4.407
 8673TIP3   OH225963   4.693   3.950   4.774
 8673TIP3    H125964   4.695   4.009   4.698
 8673TIP3    H225965   4.783   3.949   4.806
 8674TIP3   OH225966   2.351   6.258   4.827
 8674TIP3    H125967   2.296   6.294   4.757
 8674TIP3    H225968   2.430   6.228   4.782
 8675TIP3   OH225969   6.889   0.450   6.034
 8675TIP3    H125970   6.888   0.490   5.946
 8675TIP3    H225971   6.910   0.358   6.018
 8676TIP3   OH225972   7.711   0.537   5.853
 8676TIP3    H125973   7.801   0.527   5.883
 8676TIP3    H225974   7.701   0.630   5.836
 8677TIP3   OH225975   1.249   6.422   5.322
 8677TIP3    H125976   1.322   6.429   5.384
 8677TIP3    H225977   1.235   6.511   5.291
 8678TIP3   OH225978   8.141   6.028   0.525
 8678TIP3    H125979   8.079   6.093   0.558
 8678TIP3    H225980   8.089   5.975   0.464
 8679TIP3   OH225981   3.579   2.554   2.793
 8679TIP3    H125982   3.613   2.561   2.704
 8679TIP3    H225983   3.534   2.470   2.796
 8680TIP3   OH225984   7.553   2.661   3.551
 8680TIP3    H125985   7.537   2.756   3.553
 8680TIP3    H225986   7.509   2.632   3.471
 8681TIP3   OH225987   7.300   6.647   3.090
 8681TIP3    H125988   7.390   6.666   3.067
 8681TIP3    H225989   7.290   6.553   3.074
 8682TIP3   OH225990   0.440   3.336   5.242
 8682TIP3    H125991   0.392   3.278   5.301
 8682TIP3    H225992   0.525   3.295   5.231
 8683TIP3   OH225993   3.336   2.701   1.376
 8683TIP3    H125994   3.324   2.732   1.466
 8683TIP3    H225995   3.375   2.614   1.385
 8684TIP3   OH225996   4.769   3.221   6.227
 8684TIP3    H125997   4.689   3.213   6.175
 8684TIP3    H225998   4.760   3.155   6.295
 8685TIP3   OH225999   7.877   5.081   5.634
 8685TIP3    H126000   7.938   5.064   5.563
 8685TIP3    H226001   7.929   5.073   5.713
 8686TIP3   OH226002   2.881   7.338   0.299
 8686TIP3    H126003   2.790   7.345   0.272
 8686TIP3    H226004   2.878   7.313   0.391
 8687TIP3   OH226005   5.374   6.632   1.089
 8687TIP3    H126006   5.379   6.576   1.167
 8687TIP3    H226007   5.288   6.674   1.096
 8688TIP3   OH226008   3.323   3.482   1.012
 8688TIP3    H126009   3.361   3.466   0.925
 8688TIP3    H226010   3.276   3.401   1.032
 8689TIP3   OH226011   7.280   6.510   6.439
 8689TIP3    H126012   7.360   6.463   6.415
 8689TIP3    H226013   7.308   6.573   6.505
 8690TIP3   OH226014   6.411   7.747   2.037
 8690TIP3    H126015   6.485   7.741   2.097
 8690TIP3    H226016   6.451   7.752   1.950
 8691TIP3   OH226017   5.811   7.360   4.760
 8691TIP3    H126018   5.804   7.313   4.677
 8691TIP3    H226019   5.722   7.388   4.780
 8692TIP3   OH226020   5.813   4.368   1.604
 8692TIP3    H126021   5.869   4.321   1.543
 8692TIP3    H226022   5.726   4.366   1.563
 8693TIP3   OH226023   7.363   6.700   6.662
 8693TIP3    H126024   7.386   6.689   6.754
 8693TIP3    H226025   7.275   6.738   6.663
 8694TIP3   OH226026   5.395   7.642   4.116
 8694TIP3    H126027   5.427   7.702   4.184
 8694TIP3    H226028   5.455   7.654   4.043
 8695TIP3   OH226029   2.480   3.548   0.551
 8695TIP3    H126030   2.469   3.620   0.613
 8695TIP3    H226031   2.495   3.471   0.607
 8696TIP3   OH226032   5.287   5.271   6.022
 8696TIP3    H126033   5.373   5.302   5.993
 8696TIP3    H226034   5.227   5.299   5.952
 8697TIP3   OH226035   4.756   2.269   0.691
 8697TIP3    H126036   4.683   2.209   0.705
 8697TIP3    H226037   4.827   2.214   0.660
 8698TIP3   OH226038   6.815   6.979   5.402
 8698TIP3    H126039   6.814   6.998   5.308
 8698TIP3    H226040   6.787   6.888   5.408
 8699TIP3   OH226041   3.571   2.369   1.766
 8699TIP3    H126042   3.541   2.281   1.744
 8699TIP3    H226043   3.657   2.377   1.724
 8700TIP3   OH226044   7.521   4.706   5.929
 8700TIP3    H126045   7.542   4.628   5.980
 8700TIP3    H226046   7.580   4.703   5.854
 8701TIP3   OH226047   4.127   7.305   0.476
 8701TIP3    H126048   4.123   7.211   0.459
 8701TIP3    H226049   4.145   7.344   0.391
 8702TIP3   OH226050   1.626   6.076   1.675
 8702TIP3    H126051   1.656   6.167   1.676
 8702TIP3    H226052   1.697   6.027   1.634
 8703TIP3   OH226053   7.235   4.423   5.093
 8703TIP3    H126054   7.147   4.386   5.085
 8703TIP3    H226055   7.230   4.479   5.170
 8704TIP3   OH226056   2.161   5.688   6.075
 8704TIP3    H126057   2.085   5.633   6.054
 8704TIP3    H226058   2.189   5.660   6.162
 8705TIP3   OH226059   6.283   1.591   1.079
 8705TIP3    H126060   6.376   1.591   1.056
 8705TIP3    H226061   6.262   1.499   1.097
 8706TIP3   OH226062   5.506   7.456   0.387
 8706TIP3    H126063   5.439   7.462   0.320
 8706TIP3    H226064   5.468   7.499   0.464
 8707TIP3   OH226065   2.243   3.386   2.588
 8707TIP3    H126066   2.250   3.405   2.682
 8707TIP3    H226067   2.334   3.379   2.559
 8708TIP3   OH226068   5.187   5.804   1.162
 8708TIP3    H126069   5.219   5.724   1.121
 8708TIP3    H226070   5.219   5.874   1.106
 8709TIP3   OH226071   6.696   7.814   2.761
 8709TIP3    H126072   6.751   7.888   2.733
 8709TIP3    H226073   6.758   7.743   2.777
 8710TIP3   OH226074   4.889   2.539   0.264
 8710TIP3    H126075   4.910   2.633   0.267
 8710TIP3    H226076   4.967   2.496   0.299
 8711TIP3   OH226077   7.267   4.443   3.668
 8711TIP3    H126078   7.229   4.356   3.656
 8711TIP3    H226079   7.212   4.484   3.735
 8712TIP3   OH226080   6.044   2.508   3.764
 8712TIP3    H126081   6.006   2.506   3.676
 8712TIP3    H226082   6.017   2.426   3.804
 8713TIP3   OH226083   3.837   6.950   4.311
 8713TIP3    H126084   3.752   6.973   4.273
 8713TIP3    H226085   3.823   6.952   4.405
 8714TIP3   OH226086   7.689   1.533   3.136
 8714TIP3    H126087   7.629   1.550   3.209
 8714TIP3    H226088   7.770   1.504   3.177
 8715TIP3   OH226089   2.740   4.519   3.976
 8715TIP3    H126090   2.715   4.573   4.051
 8715TIP3    H226091   2.818   4.563   3.941
 8716TIP3   OH226092   3.576   3.938   4.406
 8716TIP3    H126093   3.561   4.032   4.420
 8716TIP3    H226094   3.670   3.927   4.418
 8717TIP3   OH226095   5.421   4.334   0.651
 8717TIP3    H126096   5.484   4.354   0.582
 8717TIP3    H226097   5.344   4.386   0.630
 8718TIP3   OH226098   2.158   0.784   1.218
 8718TIP3    H126099   2.127   0.698   1.189
 8718TIP3    H226100   2.173   0.832   1.136
 8719TIP3   OH226101   5.096   6.756   1.172
 8719TIP3    H126102   5.067   6.842   1.200
 8719TIP3    H226103   5.080   6.754   1.077
 8720TIP3   OH226104   2.969   1.834   5.582
 8720TIP3    H126105   3.041   1.840   5.519
 8720TIP3    H226106   3.009   1.800   5.662
 8721TIP3   OH226107   1.289   0.510   3.803
 8721TIP3    H126108   1.369   0.558   3.823
 8721TIP3    H226109   1.242   0.506   3.886
 8722TIP3   OH226110   3.372   5.171   1.141
 8722TIP3    H126111   3.358   5.168   1.046
 8722TIP3    H226112   3.290   5.140   1.178
 8723TIP3   OH226113   0.236   2.376   6.085
 8723TIP3    H126114   0.233   2.441   6.155
 8723TIP3    H226115   0.235   2.427   6.004
 8724TIP3   OH226116   3.448   7.234   4.707
 8724TIP3    H126117   3.387   7.270   4.643
 8724TIP3    H226118   3.506   7.307   4.729
 8725TIP3   OH226119   1.507   2.179   4.665
 8725TIP3    H126120   1.424   2.151   4.703
 8725TIP3    H226121   1.534   2.254   4.717
 8726TIP3   OH226122   3.369   6.824   6.321
 8726TIP3    H126123   3.461   6.844   6.305
 8726TIP3    H226124   3.364   6.729   6.317
 8727TIP3   OH226125   6.415   3.775   1.195
 8727TIP3    H126126   6.335   3.723   1.197
 8727TIP3    H226127   6.481   3.719   1.236
 8728TIP3   OH226128   7.126   4.750   5.453
 8728TIP3    H126129   7.038   4.717   5.437
 8728TIP3    H226130   7.114   4.845   5.463
 8729TIP3   OH226131   3.332   1.291   2.271
 8729TIP3    H126132   3.387   1.296   2.193
 8729TIP3    H226133   3.306   1.199   2.275
 8730TIP3   OH226134   2.963   7.163   6.394
 8730TIP3    H126135   2.998   7.188   6.480
 8730TIP3    H226136   2.869   7.174   6.403
 8731TIP3   OH226137   3.400   7.179   6.582
 8731TIP3    H126138   3.346   7.105   6.554
 8731TIP3    H226139   3.478   7.174   6.527
 8732TIP3   OH226140   7.087   5.450   3.885
 8732TIP3    H126141   7.048   5.398   3.954
 8732TIP3    H226142   7.012   5.482   3.834
 8733TIP3   OH226143   5.993   0.109   0.205
 8733TIP3    H126144   6.053   0.183   0.221
 8733TIP3    H226145   5.990   0.100   0.110
 8734TIP3   OH226146   5.456   7.541   6.014
 8734TIP3    H126147   5.410   7.526   6.097
 8734TIP3    H226148   5.517   7.612   6.032
 8735TIP3   OH226149   6.444   4.950   1.070
 8735TIP3    H126150   6.444   5.009   0.995
 8735TIP3    H226151   6.535   4.920   1.077
 8736TIP3   OH226152   0.913   4.171   2.635
 8736TIP3    H126153   0.847   4.193   2.569
 8736TIP3    H226154   0.943   4.256   2.669
 8737TIP3   OH226155   0.727   0.178   6.649
 8737TIP3    H126156   0.643   0.133   6.660
 8737TIP3    H226157   0.709   0.248   6.587
 8738TIP3   OH226158   5.476   4.573   0.132
 8738TIP3    H126159   5.513   4.637   0.193
 8738TIP3    H226160   5.418   4.519   0.185
 8739TIP3   OH226161   6.245   0.943   0.996
 8739TIP3    H126162   6.259   1.033   0.966
 8739TIP3    H226163   6.326   0.920   1.042
 8740TIP3   OH226164   0.085   0.293   1.256
 8740TIP3    H126165   0.101   0.309   1.349
 8740TIP3    H226166   0.102   0.378   1.214
 8741TIP3   OH226167   6.539   5.507   0.914
 8741TIP3    H126168   6.519   5.483   1.004
 8741TIP3    H226169   6.560   5.600   0.918
 8742TIP3   OH226170   4.638   2.625   4.295
 8742TIP3    H126171   4.715   2.665   4.256
 8742TIP3    H226172   4.648   2.641   4.389
 8743TIP3   OH226173   7.292   0.799   3.998
 8743TIP3    H126174   7.209   0.801   4.046
 8743TIP3    H226175   7.281   0.728   3.935
 8744TIP3   OH226176   4.915   7.641   4.326
 8744TIP3    H126177   4.901   7.637   4.421
 8744TIP3    H226178   5.010   7.634   4.316
 8745TIP3   OH226179   2.926   2.052   4.627
 8745TIP3    H126180   2.897   2.000   4.701
 8745TIP3    H226181   2.877   2.016   4.552
 8746TIP3   OH226182   1.652   6.988   4.940
 8746TIP3    H126183   1.580   7.022   4.886
 8746TIP3    H226184   1.618   6.906   4.975
 8747TIP3   OH226185   7.669   4.896   1.210
 8747TIP3    H126186   7.686   4.875   1.119
 8747TIP3    H226187   7.690   4.816   1.258
 8748TIP3   OH226188   4.228   5.538   6.177
 8748TIP3    H126189   4.158   5.596   6.208
 8748TIP3    H226190   4.289   5.597   6.132
 8749TIP3   OH226191   6.991   1.933   3.826
 8749TIP3    H126192   7.069   1.943   3.880
 8749TIP3    H226193   7.002   1.997   3.756
 8750TIP3   OH226194   3.581   3.693   4.731
 8750TIP3    H126195   3.517   3.719   4.798
 8750TIP3    H226196   3.652   3.756   4.739
 8751TIP3   OH226197   5.381   7.683   1.108
 8751TIP3    H126198   5.321   7.610   1.092
 8751TIP3    H226199   5.357   7.748   1.043
 8752TIP3   OH226200   0.294   2.220   1.608
 8752TIP3    H126201   0.341   2.304   1.608
 8752TIP3    H226202   0.202   2.244   1.619
 8753TIP3   OH226203   3.559   0.328   1.897
 8753TIP3    H126204   3.470   0.356   1.915
 8753TIP3    H226205   3.608   0.351   1.976
 8754TIP3   OH226206   5.257   5.861   5.900
 8754TIP3    H126207   5.342   5.874   5.857
 8754TIP3    H226208   5.210   5.799   5.845
 8755TIP3   OH226209   1.401   2.512   3.705
 8755TIP3    H126210   1.309   2.536   3.691
 8755TIP3    H226211   1.442   2.520   3.618
 8756TIP3   OH226212   3.491   7.602   0.252
 8756TIP3    H126213   3.540   7.564   0.324
 8756TIP3    H226214   3.533   7.687   0.237
 8757TIP3   OH226215   2.978   2.651   2.367
 8757TIP3    H126216   3.033   2.572   2.361
 8757TIP3    H226217   3.017   2.702   2.438
 8758TIP3   OH226218   6.031   1.663   3.763
 8758TIP3    H126219   6.088   1.670   3.839
 8758TIP3    H226220   5.943   1.673   3.798
 8759TIP3   OH226221   3.036   5.486   5.763
 8759TIP3    H126222   2.980   5.542   5.709
 8759TIP3    H226223   3.004   5.398   5.747
 8760TIP3   OH226224   7.664   2.313   4.572
 8760TIP3    H126225   7.684   2.402   4.541
 8760TIP3    H226226   7.675   2.317   4.667
 8761TIP3   OH226227   4.248   1.965   4.310
 8761TIP3    H126228   4.191   1.888   4.324
 8761TIP3    H226229   4.317   1.955   4.375
 8762TIP3   OH226230   4.173   2.633   5.745
 8762TIP3    H126231   4.235   2.691   5.700
 8762TIP3    H226232   4.103   2.617   5.683
 8763TIP3   OH226233   4.303   3.971   5.611
 8763TIP3    H126234   4.249   4.048   5.628
 8763TIP3    H226235   4.257   3.899   5.654
 8764TIP3   OH226236   3.707   7.665   0.492
 8764TIP3    H126237   3.740   7.669   0.582
 8764TIP3    H226238   3.783   7.639   0.440
 8765TIP3   OH226239   5.719   0.827   6.271
 8765TIP3    H126240   5.706   0.891   6.340
 8765TIP3    H226241   5.692   0.873   6.191
 8766TIP3   OH226242   7.418   7.145   3.339
 8766TIP3    H126243   7.470   7.218   3.305
 8766TIP3    H226244   7.340   7.143   3.283
 8767TIP3   OH226245   6.162   0.079   3.986
 8767TIP3    H126246   6.128   0.151   3.932
 8767TIP3    H226247   6.251   0.065   3.955
 8768TIP3   OH226248   2.022   6.846   3.915
 8768TIP3    H126249   2.093   6.783   3.909
 8768TIP3    H226250   2.048   6.917   3.856
 8769TIP3   OH226251   5.311   4.375   2.667
 8769TIP3    H126252   5.399   4.408   2.649
 8769TIP3    H226253   5.277   4.434   2.735
 8770TIP3   OH226254   4.585   3.260   3.517
 8770TIP3    H126255   4.620   3.181   3.559
 8770TIP3    H226256   4.659   3.320   3.512
 8771TIP3   OH226257   7.860   7.660   4.016
 8771TIP3    H126258   7.860   7.575   4.060
 8771TIP3    H226259   7.942   7.662   3.968
 8772TIP3   OH226260   5.889   6.886   1.219
 8772TIP3    H126261   5.856   6.799   1.244
 8772TIP3    H226262   5.981   6.885   1.245
 8773TIP3   OH226263   8.229   7.769   1.691
 8773TIP3    H126264   8.302   7.707   1.695
 8773TIP3    H226265   8.252   7.830   1.622
 8774TIP3   OH226266   2.910   7.167   5.598
 8774TIP3    H126267   2.954   7.238   5.551
 8774TIP3    H226268   2.948   7.171   5.686
 8775TIP3   OH226269   0.864   4.174   5.122
 8775TIP3    H126270   0.853   4.266   5.096
 8775TIP3    H226271   0.912   4.134   5.050
 8776TIP3   OH226272   5.403   2.772   4.785
 8776TIP3    H126273   5.457   2.784   4.864
 8776TIP3    H226274   5.343   2.701   4.808
 8777TIP3   OH226275   6.067   1.842   5.486
 8777TIP3    H126276   6.073   1.813   5.577
 8777TIP3    H226277   5.975   1.861   5.472
 8778TIP3   OH226278   8.278   3.310   2.653
 8778TIP3    H126279   8.267   3.247   2.725
 8778TIP3    H226280   8.328   3.381   2.691
 8779TIP3   OH226281   6.901   1.015   1.285
 8779TIP3    H126282   6.969   0.950   1.300
 8779TIP3    H226283   6.946   1.088   1.243
 8780TIP3   OH226284   5.747   1.795   4.007
 8780TIP3    H126285   5.811   1.744   4.056
 8780TIP3    H226286   5.727   1.741   3.930
 8781TIP3   OH226287   6.256   2.602   4.573
 8781TIP3    H126288   6.244   2.684   4.524
 8781TIP3    H226289   6.349   2.602   4.597
 8782TIP3   OH226290   0.070   0.255   0.096
 8782TIP3    H126291   0.144   0.315   0.105
 8782TIP3    H226292   0.110   0.171   0.075
 8783TIP3   OH226293   3.747   1.996   5.030
 8783TIP3    H126294   3.754   1.904   5.005
 8783TIP3    H226295   3.786   2.000   5.117
 8784TIP3   OH226296   4.804   7.043   5.963
 8784TIP3    H126297   4.889   7.009   5.990
 8784TIP3    H226298   4.818   7.076   5.874
 8785TIP3   OH226299   4.879   0.135   4.632
 8785TIP3    H126300   4.908   0.173   4.549
 8785TIP3    H226301   4.956   0.089   4.666
 8786TIP3   OH226302   7.146   0.143   4.055
 8786TIP3    H126303   7.208   0.070   4.055
 8786TIP3    H226304   7.064   0.105   4.088
 8787TIP3   OH226305   0.369   7.537   0.400
 8787TIP3    H126306   0.342   7.616   0.353
 8787TIP3    H226307   0.389   7.474   0.330
 8788TIP3   OH226308   0.780   2.163   6.331
 8788TIP3    H126309   0.830   2.122   6.401
 8788TIP3    H226310   0.745   2.090   6.280
 8789TIP3   OH226311   1.385   6.795   6.767
 8789TIP3    H126312   1.319   6.726   6.755
 8789TIP3    H226313   1.341   6.874   6.737
 8790TIP3   OH226314   8.135   2.278   3.450
 8790TIP3    H126315   8.214   2.332   3.444
 8790TIP3    H226316   8.067   2.331   3.408
 8791TIP3   OH226317   6.292   2.400   0.298
 8791TIP3    H126318   6.200   2.392   0.275
 8791TIP3    H226319   6.320   2.311   0.320
 8792TIP3   OH226320   3.089   2.543   1.428
 8792TIP3    H126321   3.151   2.613   1.406
 8792TIP3    H226322   3.096   2.535   1.524
 8793TIP3   OH226323   4.181   7.673   4.279
 8793TIP3    H126324   4.176   7.716   4.193
 8793TIP3    H226325   4.231   7.733   4.333
 8794TIP3   OH226326   2.038   2.738   0.954
 8794TIP3    H126327   2.083   2.752   0.871
 8794TIP3    H226328   2.015   2.826   0.984
 8795TIP3   OH226329   3.794   4.258   6.062
 8795TIP3    H126330   3.761   4.302   5.984
 8795TIP3    H226331   3.725   4.196   6.085
 8796TIP3   OH226332   7.258   1.442   3.165
 8796TIP3    H126333   7.278   1.525   3.209
 8796TIP3    H226334   7.288   1.375   3.227
 8797TIP3   OH226335   5.015   1.487   3.848
 8797TIP3    H126336   5.046   1.517   3.933
 8797TIP3    H226337   4.941   1.545   3.827
 8798TIP3   OH226338   6.825   3.000   3.943
 8798TIP3    H126339   6.888   3.055   3.895
 8798TIP3    H226340   6.756   2.981   3.879
 8799TIP3   OH226341   4.753   0.623   4.349
 8799TIP3    H126342   4.840   0.601   4.313
 8799TIP3    H226343   4.726   0.543   4.395
 8800TIP3   OH226344   6.326   2.465   3.869
 8800TIP3    H126345   6.349   2.539   3.925
 8800TIP3    H226346   6.230   2.466   3.865
 8801TIP3   OH226347   6.091   6.647   2.066
 8801TIP3    H126348   6.037   6.726   2.062
 8801TIP3    H226349   6.037   6.579   2.024
 8802TIP3   OH226350   0.915   6.423   3.069
 8802TIP3    H126351   0.899   6.453   2.979
 8802TIP3    H226352   0.846   6.358   3.085
 8803TIP3   OH226353   0.768   0.746   4.848
 8803TIP3    H126354   0.691   0.803   4.857
 8803TIP3    H226355   0.732   0.658   4.854
 8804TIP3   OH226356   6.184   0.442   3.362
 8804TIP3    H126357   6.146   0.416   3.278
 8804TIP3    H226358   6.279   0.441   3.346
 8805TIP3   OH226359   1.082   0.829   4.154
 8805TIP3    H126360   1.133   0.836   4.235
 8805TIP3    H226361   1.113   0.900   4.099
 8806TIP3   OH226362   5.147   3.694   5.885
 8806TIP3    H126363   5.188   3.780   5.874
 8806TIP3    H226364   5.219   3.632   5.872
 8807TIP3   OH226365   1.139   3.048   6.074
 8807TIP3    H126366   1.081   3.064   6.149
 8807TIP3    H226367   1.194   3.126   6.070
 8808TIP3   OH226368   6.240   7.313   3.822
 8808TIP3    H126369   6.286   7.337   3.741
 8808TIP3    H226370   6.147   7.322   3.800
 8809TIP3   OH226371   1.224   3.033   6.481
 8809TIP3    H126372   1.232   2.955   6.426
 8809TIP3    H226373   1.129   3.043   6.494
 8810TIP3   OH226374   0.559   5.974   4.183
 8810TIP3    H126375   0.524   5.901   4.133
 8810TIP3    H226376   0.482   6.025   4.209
 8811TIP3   OH226377   5.339   0.513   5.647
 8811TIP3    H126378   5.387   0.484   5.570
 8811TIP3    H226379   5.401   0.568   5.695
 8812TIP3   OH226380   6.170   7.200   0.525
 8812TIP3    H126381   6.093   7.144   0.528
 8812TIP3    H226382   6.244   7.139   0.524
 8813TIP3   OH226383   8.110   0.841   0.450
 8813TIP3    H126384   8.128   0.797   0.533
 8813TIP3    H226385   8.044   0.787   0.408
 8814TIP3   OH226386   5.855   3.088   1.625
 8814TIP3    H126387   5.776   3.115   1.579
 8814TIP3    H226388   5.825   3.023   1.689
 8815TIP3   OH226389   7.091   6.069   4.292
 8815TIP3    H126390   7.140   6.043   4.214
 8815TIP3    H226391   7.153   6.121   4.344
 8816TIP3   OH226392   3.585   7.125   4.295
 8816TIP3    H126393   3.591   7.138   4.200
 8816TIP3    H226394   3.533   7.046   4.305
 8817TIP3   OH226395   6.812   0.227   3.946
 8817TIP3    H126396   6.875   0.299   3.949
 8817TIP3    H226397   6.743   0.254   4.007
 8818TIP3   OH226398   0.788   7.544   4.717
 8818TIP3    H126399   0.709   7.597   4.711
 8818TIP3    H226400   0.843   7.590   4.781
 8819TIP3   OH226401   5.049   5.590   0.581
 8819TIP3    H126402   5.103   5.606   0.658
 8819TIP3    H226403   4.959   5.604   0.610
 8820TIP3   OH226404   6.482   1.321   2.464
 8820TIP3    H126405   6.389   1.340   2.454
 8820TIP3    H226406   6.523   1.408   2.469
 8821TIP3   OH226407   3.324   2.052   4.249
 8821TIP3    H126408   3.275   2.011   4.178
 8821TIP3    H226409   3.411   2.065   4.213
 8822TIP3   OH226410   5.409   7.768   6.578
 8822TIP3    H126411   5.452   7.684   6.567
 8822TIP3    H226412   5.332   7.749   6.631
 8823TIP3   OH226413   6.860   2.887   2.717
 8823TIP3    H126414   6.894   2.815   2.664
 8823TIP3    H226415   6.789   2.847   2.768
 8824TIP3   OH226416   3.494   4.092   5.866
 8824TIP3    H126417   3.535   4.064   5.948
 8824TIP3    H226418   3.480   4.186   5.878
 8825TIP3   OH226419   6.264   4.130   2.218
 8825TIP3    H126420   6.308   4.213   2.237
 8825TIP3    H226421   6.325   4.064   2.250
 8826TIP3   OH226422   2.509   7.622   3.708
 8826TIP3    H126423   2.589   7.675   3.711
 8826TIP3    H226424   2.438   7.686   3.707
 8827TIP3   OH226425   1.606   1.896   0.856
 8827TIP3    H126426   1.642   1.928   0.774
 8827TIP3    H226427   1.669   1.924   0.923
 8828TIP3   OH226428   7.996   6.744   1.541
 8828TIP3    H126429   7.985   6.720   1.633
 8828TIP3    H226430   8.085   6.779   1.536
 8829TIP3   OH226431   3.430   5.918   3.570
 8829TIP3    H126432   3.338   5.925   3.598
 8829TIP3    H226433   3.476   5.888   3.649
 8830TIP3   OH226434   6.036   6.866   0.722
 8830TIP3    H126435   6.005   6.906   0.641
 8830TIP3    H226436   5.970   6.798   0.740
 8831TIP3   OH226437   7.167   2.740   4.727
 8831TIP3    H126438   7.117   2.701   4.655
 8831TIP3    H226439   7.115   2.815   4.755
 8832TIP3   OH226440   7.856   3.229   6.702
 8832TIP3    H126441   7.878   3.191   6.787
 8832TIP3    H226442   7.767   3.197   6.685
 8833TIP3   OH226443   4.072   4.883   3.486
 8833TIP3    H126444   4.028   4.967   3.499
 8833TIP3    H226445   4.006   4.828   3.442
 8834TIP3   OH226446   3.645   5.271   5.340
 8834TIP3    H126447   3.665   5.218   5.262
 8834TIP3    H226448   3.657   5.211   5.413
 8835TIP3   OH226449   6.521   3.637   4.845
 8835TIP3    H126450   6.555   3.688   4.918
 8835TIP3    H226451   6.503   3.702   4.777
 8836TIP3   OH226452   3.521   6.840   0.613
 8836TIP3    H126453   3.468   6.763   0.635
 8836TIP3    H226454   3.533   6.885   0.696
 8837TIP3   OH226455   3.961   6.433   0.626
 8837TIP3    H126456   4.020   6.477   0.686
 8837TIP3    H226457   3.873   6.453   0.659
 8838TIP3   OH226458   4.060   5.465   3.147
 8838TIP3    H126459   4.017   5.398   3.094
 8838TIP3    H226460   4.033   5.548   3.108
 8839TIP3   OH226461   4.455   7.320   3.644
 8839TIP3    H126462   4.387   7.344   3.582
 8839TIP3    H226463   4.418   7.248   3.695
 8840TIP3   OH226464   7.319   5.162   1.073
 8840TIP3    H126465   7.356   5.162   0.985
 8840TIP3    H226466   7.244   5.221   1.068
 8841TIP3   OH226467   7.060   0.118   4.383
 8841TIP3    H126468   7.009   0.106   4.462
 8841TIP3    H226469   7.032   0.203   4.349
 8842TIP3   OH226470   1.364   6.939   5.294
 8842TIP3    H126471   1.379   6.954   5.387
 8842TIP3    H226472   1.342   7.025   5.258
 8843TIP3   OH226473   5.107   7.165   1.526
 8843TIP3    H126474   5.122   7.243   1.578
 8843TIP3    H226475   5.192   7.120   1.525
 8844TIP3   OH226476   7.162   7.148   2.776
 8844TIP3    H126477   7.103   7.191   2.838
 8844TIP3    H226478   7.110   7.138   2.696
 8845TIP3   OH226479   4.926   5.284   3.792
 8845TIP3    H126480   5.018   5.291   3.763
 8845TIP3    H226481   4.875   5.313   3.716
 8846TIP3   OH226482   2.568   1.417   5.877
 8846TIP3    H126483   2.550   1.434   5.784
 8846TIP3    H226484   2.558   1.323   5.887
 8847TIP3   OH226485   0.414   4.749   5.417
 8847TIP3    H126486   0.342   4.806   5.445
 8847TIP3    H226487   0.481   4.761   5.485
 8848TIP3   OH226488   3.162   3.565   4.703
 8848TIP3    H126489   3.210   3.562   4.620
 8848TIP3    H226490   3.226   3.535   4.768
 8849TIP3   OH226491   6.098   5.019   2.710
 8849TIP3    H126492   6.105   5.099   2.658
 8849TIP3    H226493   6.157   5.033   2.785
 8850TIP3   OH226494   1.838   1.090   2.203
 8850TIP3    H126495   1.791   1.158   2.252
 8850TIP3    H226496   1.901   1.139   2.150
 8851TIP3   OH226497   5.936   5.454   0.230
 8851TIP3    H126498   6.000   5.454   0.301
 8851TIP3    H226499   5.963   5.380   0.175
 8852TIP3   OH226500   3.718   0.387   4.046
 8852TIP3    H126501   3.768   0.323   3.995
 8852TIP3    H226502   3.639   0.401   3.995
 8853TIP3   OH226503   0.921   4.188   3.959
 8853TIP3    H126504   1.005   4.144   3.947
 8853TIP3    H226505   0.858   4.130   3.917
 8854TIP3   OH226506   1.928   7.050   6.376
 8854TIP3    H126507   1.941   6.984   6.444
 8854TIP3    H226508   1.864   7.011   6.317
 8855TIP3   OH226509   8.071   4.262   4.382
 8855TIP3    H126510   7.985   4.247   4.343
 8855TIP3    H226511   8.109   4.175   4.390
 8856TIP3   OH226512   4.773   7.811   4.128
 8856TIP3    H126513   4.847   7.868   4.106
 8856TIP3    H226514   4.799   7.767   4.208
 8857TIP3   OH226515   2.554   3.138   4.757
 8857TIP3    H126516   2.566   3.175   4.844
 8857TIP3    H226517   2.494   3.198   4.713
 8858TIP3   OH226518   0.910   1.325   3.225
 8858TIP3    H126519   0.819   1.340   3.248
 8858TIP3    H226520   0.926   1.234   3.248
 8859TIP3   OH226521   2.565   0.612   0.307
 8859TIP3    H126522   2.556   0.700   0.343
 8859TIP3    H226523   2.525   0.555   0.373
 8860TIP3   OH226524   1.064   2.750   4.597
 8860TIP3    H126525   0.981   2.792   4.575
 8860TIP3    H226526   1.080   2.776   4.688
 8861TIP3   OH226527   0.188   0.599   5.847
 8861TIP3    H126528   0.133   0.540   5.899
 8861TIP3    H226529   0.125   0.654   5.800
 8862TIP3   OH226530   6.205   2.225   2.321
 8862TIP3    H126531   6.180   2.292   2.384
 8862TIP3    H226532   6.229   2.274   2.242
 8863TIP3   OH226533   5.075   4.124   0.656
 8863TIP3    H126534   5.055   4.070   0.579
 8863TIP3    H226535   5.041   4.210   0.634
 8864TIP3   OH226536   6.307   1.139   1.846
 8864TIP3    H126537   6.400   1.133   1.825
 8864TIP3    H226538   6.294   1.074   1.915
 8865TIP3   OH226539   7.853   5.830   6.132
 8865TIP3    H126540   7.846   5.781   6.051
 8865TIP3    H226541   7.878   5.918   6.105
 8866TIP3   OH226542   1.192   1.996   6.173
 8866TIP3    H126543   1.223   2.027   6.258
 8866TIP3    H226544   1.192   2.074   6.118
 8867TIP3   OH226545   2.289   5.504   1.410
 8867TIP3    H126546   2.359   5.479   1.350
 8867TIP3    H226547   2.252   5.584   1.373
 8868TIP3   OH226548   2.165   5.816   5.672
 8868TIP3    H126549   2.260   5.828   5.676
 8868TIP3    H226550   2.131   5.903   5.652
 8869TIP3   OH226551   2.211   2.035   2.308
 8869TIP3    H126552   2.291   2.048   2.359
 8869TIP3    H226553   2.147   2.091   2.351
 8870TIP3   OH226554   1.577   7.675   0.251
 8870TIP3    H126555   1.600   7.737   0.321
 8870TIP3    H226556   1.641   7.692   0.182
 8871TIP3   OH226557   2.456   3.785   2.643
 8871TIP3    H126558   2.411   3.863   2.610
 8871TIP3    H226559   2.512   3.758   2.570
 8872TIP3   OH226560   7.261   1.402   2.381
 8872TIP3    H126561   7.317   1.479   2.385
 8872TIP3    H226562   7.270   1.361   2.467
 8873TIP3   OH226563   0.737   1.654   2.770
 8873TIP3    H126564   0.689   1.638   2.688
 8873TIP3    H226565   0.742   1.568   2.811
 8874TIP3   OH226566   7.979   4.433   2.239
 8874TIP3    H126567   8.002   4.438   2.331
 8874TIP3    H226568   8.024   4.509   2.199
 8875TIP3   OH226569   4.412   4.800   3.984
 8875TIP3    H126570   4.427   4.894   3.990
 8875TIP3    H226571   4.377   4.787   3.896
 8876TIP3   OH226572   2.051   3.471   6.309
 8876TIP3    H126573   1.956   3.465   6.303
 8876TIP3    H226574   2.073   3.545   6.252
 8877TIP3   OH226575   6.059   3.702   3.521
 8877TIP3    H126576   6.004   3.633   3.484
 8877TIP3    H226577   6.005   3.780   3.517
 8878TIP3   OH226578   4.263   1.140   3.851
 8878TIP3    H126579   4.279   1.064   3.908
 8878TIP3    H226580   4.228   1.207   3.910
 8879TIP3   OH226581   7.891   6.574   2.425
 8879TIP3    H126582   7.860   6.649   2.477
 8879TIP3    H226583   7.821   6.509   2.434
 8880TIP3   OH226584   7.541   4.090   5.829
 8880TIP3    H126585   7.552   4.177   5.867
 8880TIP3    H226586   7.449   4.088   5.801
 8881TIP3   OH226587   5.848   2.268   2.530
 8881TIP3    H126588   5.867   2.357   2.499
 8881TIP3    H226589   5.872   2.211   2.456
 8882TIP3   OH226590   1.113   3.444   6.064
 8882TIP3    H126591   1.169   3.419   6.137
 8882TIP3    H226592   1.024   3.442   6.099
 8883TIP3   OH226593   3.120   4.475   2.100
 8883TIP3    H126594   3.195   4.517   2.057
 8883TIP3    H226595   3.143   4.475   2.193
 8884TIP3   OH226596   2.520   1.901   6.488
 8884TIP3    H126597   2.538   1.888   6.395
 8884TIP3    H226598   2.591   1.958   6.519
 8885TIP3   OH226599   2.694   7.012   1.687
 8885TIP3    H126600   2.643   6.952   1.742
 8885TIP3    H226601   2.641   7.022   1.608
 8886TIP3   OH226602   6.429   2.721   5.610
 8886TIP3    H126603   6.497   2.672   5.656
 8886TIP3    H226604   6.472   2.752   5.530
 8887TIP3   OH226605   7.528   0.043   6.742
 8887TIP3    H126606   7.493   0.128   6.716
 8887TIP3    H226607   7.617   0.042   6.705
 8888TIP3   OH226608   7.697   2.680   1.476
 8888TIP3    H126609   7.783   2.642   1.463
 8888TIP3    H226610   7.640   2.633   1.415
 8889TIP3   OH226611   5.570   3.901   5.148
 8889TIP3    H126612   5.555   3.989   5.183
 8889TIP3    H226613   5.552   3.843   5.222
 8890TIP3   OH226614   3.903   0.496   2.891
 8890TIP3    H126615   3.816   0.502   2.932
 8890TIP3    H226616   3.933   0.587   2.885
 8891TIP3   OH226617   0.938   7.452   3.882
 8891TIP3    H126618   0.943   7.485   3.971
 8891TIP3    H226619   0.913   7.528   3.829
 8892TIP3   OH226620   2.077   7.838   1.069
 8892TIP3    H126621   2.066   7.896   0.994
 8892TIP3    H226622   2.037   7.756   1.043
 8893TIP3   OH226623   5.869   3.819   4.551
 8893TIP3    H126624   5.798   3.774   4.596
 8893TIP3    H226625   5.826   3.886   4.498
 8894TIP3   OH226626   1.497   2.776   1.766
 8894TIP3    H126627   1.577   2.738   1.730
 8894TIP3    H226628   1.433   2.705   1.765
 8895TIP3   OH226629   1.386   6.277   6.765
 8895TIP3    H126630   1.371   6.293   6.672
 8895TIP3    H226631   1.425   6.190   6.768
 8896TIP3   OH226632   1.043   6.418   1.109
 8896TIP3    H126633   0.962   6.416   1.159
 8896TIP3    H226634   1.076   6.507   1.119
 8897TIP3   OH226635   0.495   2.426   5.462
 8897TIP3    H126636   0.542   2.405   5.543
 8897TIP3    H226637   0.487   2.522   5.465
 8898TIP3   OH226638   7.615   7.003   2.809
 8898TIP3    H126639   7.669   7.042   2.878
 8898TIP3    H226640   7.589   7.076   2.754
 8899TIP3   OH226641   3.771   6.671   6.205
 8899TIP3    H126642   3.708   6.711   6.265
 8899TIP3    H226643   3.717   6.635   6.135
 8900TIP3   OH226644   5.059   1.362   4.165
 8900TIP3    H126645   5.113   1.373   4.244
 8900TIP3    H226646   5.087   1.434   4.108
 8901TIP3   OH226647   1.186   6.963   6.726
 8901TIP3    H126648   1.222   7.041   6.684
 8901TIP3    H226649   1.120   6.995   6.787
 8902TIP3   OH226650   2.551   5.999   4.274
 8902TIP3    H126651   2.628   5.960   4.232
 8902TIP3    H226652   2.588   6.060   4.338
 8903TIP3   OH226653   3.750   3.631   1.580
 8903TIP3    H126654   3.781   3.719   1.559
 8903TIP3    H226655   3.828   3.584   1.610
 8904TIP3   OH226656   0.895   4.495   2.020
 8904TIP3    H126657   0.874   4.548   2.097
 8904TIP3    H226658   0.966   4.542   1.977
 8905TIP3   OH226659   5.167   1.093   4.084
 8905TIP3    H126660   5.135   1.106   3.995
 8905TIP3    H226661   5.132   1.167   4.134
 8906TIP3   OH226662   3.978   6.883   4.693
 8906TIP3    H126663   3.894   6.906   4.653
 8906TIP3    H226664   3.994   6.952   4.757
 8907TIP3   OH226665   4.689   3.994   0.294
 8907TIP3    H126666   4.754   4.055   0.259
 8907TIP3    H226667   4.729   3.908   0.287
 8908TIP3   OH226668   4.116   7.010   0.432
 8908TIP3    H126669   4.163   6.929   0.417
 8908TIP3    H226670   4.040   6.984   0.485
 8909TIP3   OH226671   1.214   6.453   5.627
 8909TIP3    H126672   1.127   6.475   5.661
 8909TIP3    H226673   1.212   6.357   5.619
 8910TIP3   OH226674   7.486   1.931   4.228
 8910TIP3    H126675   7.405   1.908   4.272
 8910TIP3    H226676   7.492   1.871   4.154
 8911TIP3   OH226677   1.989   2.831   3.037
 8911TIP3    H126678   1.940   2.911   3.015
 8911TIP3    H226679   2.030   2.804   2.955
 8912TIP3   OH226680   0.508   4.825   6.542
 8912TIP3    H126681   0.501   4.770   6.464
 8912TIP3    H226682   0.588   4.876   6.529
 8913TIP3   OH226683   5.609   0.307   3.890
 8913TIP3    H126684   5.635   0.320   3.799
 8913TIP3    H226685   5.539   0.370   3.905
 8914TIP3   OH226686   7.250   2.041   6.588
 8914TIP3    H126687   7.278   2.064   6.677
 8914TIP3    H226688   7.321   2.073   6.532
 8915TIP3   OH226689   6.703   1.835   3.426
 8915TIP3    H126690   6.783   1.882   3.450
 8915TIP3    H226691   6.633   1.899   3.440
 8916TIP3   OH226692   0.969   2.586   2.193
 8916TIP3    H126693   0.977   2.605   2.286
 8916TIP3    H226694   1.054   2.551   2.167
 8917TIP3   OH226695   3.431   2.157   1.022
 8917TIP3    H126696   3.495   2.162   0.950
 8917TIP3    H226697   3.437   2.243   1.065
 8918TIP3   OH226698   5.876   0.840   1.823
 8918TIP3    H126699   5.787   0.830   1.790
 8918TIP3    H226700   5.867   0.896   1.900
 8919TIP3   OH226701   1.650   5.169   6.461
 8919TIP3    H126702   1.606   5.236   6.410
 8919TIP3    H226703   1.637   5.196   6.552
 8920TIP3   OH226704   7.429   1.776   0.003
 8920TIP3    H126705   7.413   1.854  -0.049
 8920TIP3    H226706   7.425   1.806   0.094
 8921TIP3   OH226707   8.296   7.436   5.708
 8921TIP3    H126708   8.265   7.347   5.692
 8921TIP3    H226709   8.220   7.491   5.692
 8922TIP3   OH226710   4.946   1.819   2.691
 8922TIP3    H126711   4.922   1.770   2.770
 8922TIP3    H226712   4.953   1.909   2.720
 8923TIP3   OH226713   5.695   6.435   0.672
 8923TIP3    H126714   5.627   6.498   0.651
 8923TIP3    H226715   5.715   6.392   0.589
 8924TIP3   OH226716   3.573   2.019   4.698
 8924TIP3    H126717   3.644   1.985   4.752
 8924TIP3    H226718   3.508   2.051   4.761
 8925TIP3   OH226719   7.440   4.144   2.288
 8925TIP3    H126720   7.517   4.106   2.247
 8925TIP3    H226721   7.396   4.070   2.331
 8926TIP3   OH226722   0.332   2.959   3.161
 8926TIP3    H126723   0.407   3.015   3.138
 8926TIP3    H226724   0.371   2.874   3.181
 8927TIP3   OH226725   6.120   2.160   5.491
 8927TIP3    H126726   6.075   2.131   5.411
 8927TIP3    H226727   6.127   2.255   5.482
 8928TIP3   OH226728   7.631   4.260   1.675
 8928TIP3    H126729   7.651   4.168   1.691
 8928TIP3    H226730   7.662   4.305   1.753
 8929TIP3   OH226731   3.585   7.399   1.519
 8929TIP3    H126732   3.499   7.398   1.561
 8929TIP3    H226733   3.618   7.487   1.534
 8930TIP3   OH226734   3.213   4.249   0.334
 8930TIP3    H126735   3.247   4.271   0.420
 8930TIP3    H226736   3.287   4.262   0.274
 8931TIP3   OH226737   8.044   2.840   5.890
 8931TIP3    H126738   8.018   2.827   5.981
 8931TIP3    H226739   8.126   2.890   5.895
 8932TIP3   OH226740   5.038   1.422   6.582
 8932TIP3    H126741   5.061   1.339   6.625
 8932TIP3    H226742   5.012   1.396   6.493
 8933TIP3   OH226743   4.428   4.425   4.393
 8933TIP3    H126744   4.395   4.493   4.334
 8933TIP3    H226745   4.355   4.364   4.403
 8934TIP3   OH226746   4.781   6.605   0.666
 8934TIP3    H126747   4.805   6.522   0.707
 8934TIP3    H226748   4.687   6.597   0.648
 8935TIP3   OH226749   7.918   4.027   4.316
 8935TIP3    H126750   7.927   4.010   4.410
 8935TIP3    H226751   7.829   4.060   4.306
 8936TIP3   OH226752   5.066   4.409   2.126
 8936TIP3    H126753   4.983   4.442   2.091
 8936TIP3    H226754   5.120   4.393   2.049
 8937TIP3   OH226755   7.619   0.942   3.369
 8937TIP3    H126756   7.529   0.930   3.400
 8937TIP3    H226757   7.610   0.991   3.287
 8938TIP3   OH226758   0.260   7.119   4.536
 8938TIP3    H126759   0.314   7.060   4.483
 8938TIP3    H226760   0.176   7.122   4.490
 8939TIP3   OH226761   5.962   4.978   4.144
 8939TIP3    H126762   5.947   5.044   4.075
 8939TIP3    H226763   5.926   5.018   4.223
 8940TIP3   OH226764   1.432   3.931   4.789
 8940TIP3    H126765   1.528   3.929   4.788
 8940TIP3    H226766   1.407   3.847   4.828
 8941TIP3   OH226767   1.582   7.305  -0.039
 8941TIP3    H126768   1.502   7.352  -0.061
 8941TIP3    H226769   1.625   7.360   0.026
 8942TIP3   OH226770   5.949   2.165   0.525
 8942TIP3    H126771   5.970   2.117   0.445
 8942TIP3    H226772   6.030   2.163   0.576
 8943TIP3   OH226773   2.416   5.818   0.430
 8943TIP3    H126774   2.372   5.736   0.407
 8943TIP3    H226775   2.410   5.822   0.526
 8944TIP3   OH226776   5.976   0.890   5.877
 8944TIP3    H126777   5.880   0.887   5.869
 8944TIP3    H226778   6.000   0.807   5.916
 8945TIP3   OH226779   3.752   1.279   4.563
 8945TIP3    H126780   3.787   1.252   4.478
 8945TIP3    H226781   3.669   1.230   4.571
 8946TIP3   OH226782   2.089   0.216   0.897
 8946TIP3    H126783   2.167   0.170   0.929
 8946TIP3    H226784   2.069   0.174   0.813
 8947TIP3   OH226785   3.976   3.522   3.684
 8947TIP3    H126786   4.063   3.494   3.654
 8947TIP3    H226787   3.919   3.503   3.610
 8948TIP3   OH226788   6.594   4.610   1.448
 8948TIP3    H126789   6.626   4.632   1.536
 8948TIP3    H226790   6.526   4.675   1.431
 8949TIP3   OH226791   1.203   4.996   3.420
 8949TIP3    H126792   1.134   5.063   3.424
 8949TIP3    H226793   1.166   4.921   3.466
 8950TIP3   OH226794   6.233   6.475   5.268
 8950TIP3    H126795   6.280   6.400   5.232
 8950TIP3    H226796   6.245   6.468   5.363
 8951TIP3   OH226797   7.570   6.131   3.039
 8951TIP3    H126798   7.592   6.220   3.015
 8951TIP3    H226799   7.558   6.085   2.956
 8952TIP3   OH226800   1.848   1.321   2.749
 8952TIP3    H126801   1.850   1.401   2.802
 8952TIP3    H226802   1.766   1.328   2.699
 8953TIP3   OH226803   2.952   2.248   2.380
 8953TIP3    H126804   2.996   2.332   2.392
 8953TIP3    H226805   2.863   2.271   2.352
 8954TIP3   OH226806   0.950   1.926   1.882
 8954TIP3    H126807   1.014   1.977   1.832
 8954TIP3    H226808   0.911   1.867   1.817
 8955TIP3   OH226809   1.849   2.238   4.778
 8955TIP3    H126810   1.795   2.295   4.834
 8955TIP3    H226811   1.835   2.150   4.813
 8956TIP3   OH226812   6.655   0.843   4.135
 8956TIP3    H126813   6.727   0.901   4.158
 8956TIP3    H226814   6.672   0.763   4.184
 8957TIP3   OH226815   1.096   7.819   1.445
 8957TIP3    H126816   1.092   7.765   1.524
 8957TIP3    H226817   1.025   7.786   1.390
 8958TIP3   OH226818   3.114   7.773   4.043
 8958TIP3    H126819   3.175   7.841   4.071
 8958TIP3    H226820   3.148   7.693   4.083
 8959TIP3   OH226821   3.431   5.566   4.490
 8959TIP3    H126822   3.388   5.621   4.426
 8959TIP3    H226823   3.434   5.620   4.570
 8960TIP3   OH226824   3.227   4.585   3.885
 8960TIP3    H126825   3.161   4.565   3.952
 8960TIP3    H226826   3.266   4.668   3.915
 8961TIP3   OH226827   1.170   1.249   3.849
 8961TIP3    H126828   1.166   1.216   3.939
 8961TIP3    H226829   1.220   1.330   3.856
 8962TIP3   OH226830   1.855   1.350   1.805
 8962TIP3    H126831   1.925   1.385   1.860
 8962TIP3    H226832   1.881   1.260   1.787
 8963TIP3   OH226833   7.471   0.310   6.730
 8963TIP3    H126834   7.457   0.337   6.639
 8963TIP3    H226835   7.551   0.356   6.757
 8964TIP3   OH226836   7.692   2.065   0.257
 8964TIP3    H126837   7.598   2.080   0.246
 8964TIP3    H226838   7.729   2.151   0.274
 8965TIP3   OH226839   3.609   4.480   3.361
 8965TIP3    H126840   3.583   4.402   3.410
 8965TIP3    H226841   3.631   4.545   3.428
 8966TIP3   OH226842   0.947   5.455   5.502
 8966TIP3    H126843   0.861   5.470   5.464
 8966TIP3    H226844   1.003   5.437   5.426
 8967TIP3   OH226845   5.682   6.709   6.292
 8967TIP3    H126846   5.711   6.727   6.203
 8967TIP3    H226847   5.614   6.642   6.282
 8968TIP3   OH226848   2.285   4.241   5.505
 8968TIP3    H126849   2.259   4.230   5.413
 8968TIP3    H226850   2.330   4.325   5.508
 8969TIP3   OH226851   3.252   4.703   3.409
 8969TIP3    H126852   3.202   4.779   3.441
 8969TIP3    H226853   3.239   4.636   3.476
 8970TIP3   OH226854   4.802   1.639   3.846
 8970TIP3    H126855   4.808   1.731   3.871
 8970TIP3    H226856   4.753   1.639   3.763
 8971TIP3   OH226857   6.627   4.618   2.904
 8971TIP3    H126858   6.597   4.586   2.989
 8971TIP3    H226859   6.716   4.585   2.895
 8972TIP3   OH226860   4.056   2.971   2.417
 8972TIP3    H126861   4.146   2.939   2.407
 8972TIP3    H226862   4.046   2.984   2.512
 8973TIP3   OH226863   0.195   3.450   3.721
 8973TIP3    H126864   0.234   3.461   3.808
 8973TIP3    H226865   0.225   3.364   3.692
 8974TIP3   OH226866   5.422   4.429   3.572
 8974TIP3    H126867   5.428   4.359   3.506
 8974TIP3    H226868   5.336   4.468   3.557
 8975TIP3   OH226869   7.824   6.566   2.129
 8975TIP3    H126870   7.872   6.552   2.210
 8975TIP3    H226871   7.760   6.635   2.151
 8976TIP3   OH226872   6.717   7.329   6.182
 8976TIP3    H126873   6.703   7.383   6.259
 8976TIP3    H226874   6.747   7.245   6.217
 8977TIP3   OH226875   1.356   7.338   3.011
 8977TIP3    H126876   1.266   7.304   3.008
 8977TIP3    H226877   1.411   7.259   3.010
 8978TIP3   OH226878   6.336   5.026   3.707
 8978TIP3    H126879   6.373   5.084   3.774
 8978TIP3    H226880   6.413   4.994   3.658
 8979TIP3   OH226881   0.660   2.782   5.329
 8979TIP3    H126882   0.701   2.722   5.391
 8979TIP3    H226883   0.701   2.867   5.345
 8980TIP3   OH226884   7.074   0.712   2.017
 8980TIP3    H126885   7.057   0.678   2.105
 8980TIP3    H226886   7.059   0.806   2.024
 8981TIP3   OH226887   1.537   4.101   5.376
 8981TIP3    H126888   1.502   4.143   5.454
 8981TIP3    H226889   1.578   4.021   5.408
 8982TIP3   OH226890   7.311   1.072   3.911
 8982TIP3    H126891   7.328   0.981   3.934
 8982TIP3    H226892   7.216   1.083   3.922
 8983TIP3   OH226893   1.990   5.676   3.813
 8983TIP3    H126894   1.910   5.643   3.854
 8983TIP3    H226895   2.056   5.611   3.835
 8984TIP3   OH226896   2.888   0.261   1.751
 8984TIP3    H126897   2.904   0.337   1.695
 8984TIP3    H226898   2.808   0.222   1.716
 8985TIP3   OH226899   5.566   7.586   2.126
 8985TIP3    H126900   5.638   7.580   2.188
 8985TIP3    H226901   5.553   7.497   2.095
 8986TIP3   OH226902   1.993   3.658   3.908
 8986TIP3    H126903   1.969   3.635   3.818
 8986TIP3    H226904   1.910   3.658   3.956
 8987TIP3   OH226905   0.312   2.764   2.873
 8987TIP3    H126906   0.385   2.720   2.830
 8987TIP3    H226907   0.335   2.857   2.871
 8988TIP3   OH226908   7.467   3.371   0.513
 8988TIP3    H126909   7.411   3.299   0.484
 8988TIP3    H226910   7.555   3.344   0.488
 8989TIP3   OH226911   2.312   0.227   0.347
 8989TIP3    H126912   2.282   0.147   0.391
 8989TIP3    H226913   2.301   0.208   0.254
 8990TIP3   OH226914   6.377   1.877   0.716
 8990TIP3    H126915   6.282   1.862   0.720
 8990TIP3    H226916   6.411   1.805   0.663
 8991TIP3   OH226917   7.719   5.893   3.790
 8991TIP3    H126918   7.758   5.806   3.800
 8991TIP3    H226919   7.729   5.914   3.697
 8992TIP3   OH226920   4.248   6.269   5.643
 8992TIP3    H126921   4.323   6.264   5.582
 8992TIP3    H226922   4.184   6.322   5.597
 8993TIP3   OH226923   5.905   3.388   3.001
 8993TIP3    H126924   5.920   3.322   3.070
 8993TIP3    H226925   5.975   3.452   3.014
 8994TIP3   OH226926   2.809   2.276   3.714
 8994TIP3    H126927   2.847   2.302   3.631
 8994TIP3    H226928   2.838   2.344   3.776
 8995TIP3   OH226929   2.148   6.589   0.144
 8995TIP3    H126930   2.126   6.601   0.051
 8995TIP3    H226931   2.240   6.616   0.150
 8996TIP3   OH226932   2.899   7.377   3.234
 8996TIP3    H126933   2.912   7.300   3.290
 8996TIP3    H226934   2.904   7.451   3.295
 8997TIP3   OH226935   6.303   3.504   2.413
 8997TIP3    H126936   6.376   3.562   2.391
 8997TIP3    H226937   6.281   3.461   2.331
 8998TIP3   OH226938   4.026   5.471   4.294
 8998TIP3    H126939   4.027   5.392   4.239
 8998TIP3    H226940   4.005   5.438   4.381
 8999TIP3   OH226941   2.607   4.460   2.265
 8999TIP3    H126942   2.529   4.419   2.227
 8999TIP3    H226943   2.670   4.464   2.193
 9000TIP3   OH226944   6.781   1.489   1.036
 9000TIP3    H126945   6.701   1.534   1.009
 9000TIP3    H226946   6.834   1.486   0.956
 9001TIP3   OH226947   0.963   5.482   3.367
 9001TIP3    H126948   1.011   5.525   3.296
 9001TIP3    H226949   1.020   5.489   3.443
 9002TIP3   OH226950   4.773   4.672   3.037
 9002TIP3    H126951   4.734   4.723   2.966
 9002TIP3    H226952   4.698   4.635   3.084
 9003TIP3   OH226953   2.719   7.135   4.779
 9003TIP3    H126954   2.636   7.179   4.796
 9003TIP3    H226955   2.767   7.195   4.721
 9004TIP3   OH226956   2.200   4.181   3.112
 9004TIP3    H126957   2.205   4.089   3.139
 9004TIP3    H226958   2.174   4.227   3.192
 9005TIP3   OH226959   6.245   4.677   0.410
 9005TIP3    H126960   6.158   4.667   0.449
 9005TIP3    H226961   6.251   4.770   0.387
 9006TIP3   OH226962   3.127   3.589   0.850
 9006TIP3    H126963   3.210   3.554   0.883
 9006TIP3    H226964   3.061   3.554   0.910
 9007TIP3   OH226965   6.669   5.588   1.210
 9007TIP3    H126966   6.590   5.640   1.223
 9007TIP3    H226967   6.644   5.499   1.234
 9008TIP3   OH226968   3.230   5.107   3.474
 9008TIP3    H126969   3.228   5.035   3.537
 9008TIP3    H226970   3.192   5.181   3.521
 9009TIP3   OH226971   6.243   4.596   1.989
 9009TIP3    H126972   6.163   4.648   1.988
 9009TIP3    H226973   6.314   4.660   1.991
 9010TIP3   OH226974   6.363   2.652   0.750
 9010TIP3    H126975   6.284   2.610   0.786
 9010TIP3    H226976   6.423   2.579   0.735
 9011TIP3   OH226977   3.426   2.744   5.059
 9011TIP3    H126978   3.427   2.710   4.970
 9011TIP3    H226979   3.403   2.836   5.049
 9012TIP3   OH226980   6.079   4.409   0.649
 9012TIP3    H126981   6.087   4.364   0.733
 9012TIP3    H226982   6.155   4.381   0.599
 9013TIP3   OH226983   1.869   7.093   5.869
 9013TIP3    H126984   1.858   7.023   5.804
 9013TIP3    H226985   1.939   7.063   5.926
 9014TIP3   OH226986   4.494   6.371   4.708
 9014TIP3    H126987   4.419   6.430   4.705
 9014TIP3    H226988   4.481   6.312   4.634
 9015TIP3   OH226989   1.611   3.763   3.162
 9015TIP3    H126990   1.646   3.680   3.131
 9015TIP3    H226991   1.640   3.770   3.253
 9016TIP3   OH226992   5.651   1.616   1.887
 9016TIP3    H126993   5.669   1.707   1.910
 9016TIP3    H226994   5.738   1.574   1.882
 9017TIP3   OH226995   6.432   2.501   4.809
 9017TIP3    H126996   6.475   2.553   4.741
 9017TIP3    H226997   6.444   2.411   4.781
 9018TIP3   OH226998   7.549   5.054   2.644
 9018TIP3    H126999   7.635   5.038   2.606
 9018TIP3    H227000   7.525   5.142   2.613
 9019TIP3   OH227001   5.112   2.106   4.975
 9019TIP3    H127002   5.174   2.126   4.905
 9019TIP3    H227003   5.121   2.179   5.037
 9020TIP3   OH227004   5.019   1.950   5.166
 9020TIP3    H127005   5.039   2.006   5.092
 9020TIP3    H227006   5.065   1.868   5.147
 9021TIP3   OH227007   3.397   4.571   0.530
 9021TIP3    H127008   3.365   4.482   0.517
 9021TIP3    H227009   3.368   4.595   0.618
 9022TIP3   OH227010   1.527   6.731   3.943
 9022TIP3    H127011   1.496   6.645   3.915
 9022TIP3    H227012   1.559   6.773   3.863
 9023TIP3   OH227013   0.043   7.145   5.075
 9023TIP3    H127014   0.105   7.113   5.010
 9023TIP3    H227015  -0.039   7.159   5.027
 9024TIP3   OH227016   3.225   1.418   2.777
 9024TIP3    H127017   3.143   1.373   2.761
 9024TIP3    H227018   3.268   1.422   2.692
 9025TIP3   OH227019   6.203   6.481   3.836
 9025TIP3    H127020   6.194   6.478   3.931
 9025TIP3    H227021   6.242   6.567   3.818
 9026TIP3   OH227022   3.665   3.874   2.427
 9026TIP3    H127023   3.719   3.831   2.361
 9026TIP3    H227024   3.614   3.802   2.465
 9027TIP3   OH227025   7.271   4.917   2.591
 9027TIP3    H127026   7.301   5.001   2.624
 9027TIP3    H227027   7.319   4.905   2.509
 9028TIP3   OH227028   0.358   3.510   4.939
 9028TIP3    H127029   0.380   3.429   4.892
 9028TIP3    H227030   0.443   3.544   4.970
 9029TIP3   OH227031   6.847   2.690   4.802
 9029TIP3    H127032   6.851   2.756   4.732
 9029TIP3    H227033   6.890   2.613   4.765
 9030TIP3   OH227034   1.542   2.782   0.864
 9030TIP3    H127035   1.549   2.690   0.890
 9030TIP3    H227036   1.531   2.830   0.946
 9031TIP3   OH227037   6.523   4.501   3.359
 9031TIP3    H127038   6.442   4.543   3.329
 9031TIP3    H227039   6.569   4.477   3.278
 9032TIP3   OH227040   7.855   2.442   1.580
 9032TIP3    H127041   7.833   2.520   1.630
 9032TIP3    H227042   7.782   2.432   1.519
 9033TIP3   OH227043   0.269   5.245   4.430
 9033TIP3    H127044   0.253   5.271   4.521
 9033TIP3    H227045   0.344   5.186   4.435
 9034TIP3   OH227046   6.162   3.006   1.765
 9034TIP3    H127047   6.176   2.913   1.747
 9034TIP3    H227048   6.250   3.044   1.766
 9035TIP3   OH227049   2.229   4.603   2.000
 9035TIP3    H127050   2.313   4.637   2.030
 9035TIP3    H227051   2.171   4.612   2.076
 9036TIP3   OH227052   0.915   6.105   4.387
 9036TIP3    H127053   1.002   6.092   4.349
 9036TIP3    H227054   0.856   6.103   4.312
 9037TIP3   OH227055   0.890   4.312   4.864
 9037TIP3    H127056   0.984   4.302   4.873
 9037TIP3    H227057   0.879   4.381   4.798
 9038TIP3   OH227058   1.158   0.577   2.817
 9038TIP3    H127059   1.113   0.656   2.847
 9038TIP3    H227060   1.245   0.607   2.792
 9039TIP3   OH227061   0.278   7.442   4.366
 9039TIP3    H127062   0.326   7.426   4.447
 9039TIP3    H227063   0.336   7.499   4.314
 9040TIP3   OH227064   7.830   0.998   2.115
 9040TIP3    H127065   7.812   0.934   2.045
 9040TIP3    H227066   7.925   0.995   2.126
 9041TIP3   OH227067   3.216   6.482   0.971
 9041TIP3    H127068   3.235   6.409   0.912
 9041TIP3    H227069   3.300   6.504   1.011
 9042TIP3   OH227070   1.994   3.563   1.348
 9042TIP3    H127071   1.998   3.492   1.412
 9042TIP3    H227072   2.081   3.603   1.350
 9043TIP3   OH227073   7.184   1.446   4.935
 9043TIP3    H127074   7.225   1.518   4.888
 9043TIP3    H227075   7.184   1.474   5.026
 9044TIP3   OH227076   7.402   3.600   2.826
 9044TIP3    H127077   7.489   3.564   2.843
 9044TIP3    H227078   7.341   3.539   2.868
 9045TIP3   OH227079   3.080   5.843   2.583
 9045TIP3    H127080   2.995   5.857   2.624
 9045TIP3    H227081   3.143   5.850   2.656
 9046TIP3   OH227082   0.397   5.920   0.192
 9046TIP3    H127083   0.438   6.000   0.159
 9046TIP3    H227084   0.471   5.867   0.223
 9047TIP3   OH227085   4.650   0.956   6.222
 9047TIP3    H127086   4.669   0.878   6.274
 9047TIP3    H227087   4.556   0.970   6.234
 9048TIP3   OH227088   1.913   6.000   0.559
 9048TIP3    H127089   1.901   5.909   0.534
 9048TIP3    H227090   1.873   6.008   0.646
 9049TIP3   OH227091   1.801   6.411   1.058
 9049TIP3    H127092   1.799   6.340   1.122
 9049TIP3    H227093   1.791   6.367   0.974
 9050TIP3   OH227094   0.733   3.853   5.533
 9050TIP3    H127095   0.826   3.832   5.523
 9050TIP3    H227096   0.687   3.775   5.502
 9051TIP3   OH227097   7.236   1.337   1.685
 9051TIP3    H127098   7.187   1.308   1.761
 9051TIP3    H227099   7.222   1.432   1.682
 9052TIP3   OH227100   4.215   5.052   6.379
 9052TIP3    H127101   4.190   5.104   6.455
 9052TIP3    H227102   4.139   5.055   6.321
 9053TIP3   OH227103   1.924   7.038   4.820
 9053TIP3    H127104   1.833   7.021   4.845
 9053TIP3    H227105   1.972   7.037   4.903
 9054TIP3   OH227106   4.624   2.441   0.515
 9054TIP3    H127107   4.663   2.372   0.568
 9054TIP3    H227108   4.644   2.417   0.424
 9055TIP3   OH227109   3.816   7.773   0.193
 9055TIP3    H127110   3.866   7.724   0.128
 9055TIP3    H227111   3.814   7.716   0.270
 9056TIP3   OH227112   2.658   1.438   3.785
 9056TIP3    H127113   2.700   1.408   3.866
 9056TIP3    H227114   2.647   1.360   3.732
 9057TIP3   OH227115   6.397   2.680   0.330
 9057TIP3    H127116   6.368   2.590   0.345
 9057TIP3    H227117   6.432   2.679   0.241
 9058TIP3   OH227118   3.205   3.016   0.604
 9058TIP3    H127119   3.207   2.928   0.642
 9058TIP3    H227120   3.172   3.003   0.516
 9059TIP3   OH227121   7.123   5.600   3.188
 9059TIP3    H127122   7.102   5.662   3.119
 9059TIP3    H227123   7.190   5.543   3.150
 9060TIP3   OH227124   1.547   4.426   5.185
 9060TIP3    H127125   1.613   4.360   5.164
 9060TIP3    H227126   1.583   4.473   5.260
 9061TIP3   OH227127   5.628   1.258   0.557
 9061TIP3    H127128   5.692   1.218   0.499
 9061TIP3    H227129   5.566   1.188   0.579
 9062TIP3   OH227130   0.316   0.981   6.640
 9062TIP3    H127131   0.387   0.932   6.680
 9062TIP3    H227132   0.244   0.918   6.635
 9063TIP3   OH227133   6.303   3.153   0.659
 9063TIP3    H127134   6.336   3.180   0.573
 9063TIP3    H227135   6.353   3.074   0.680
 9064TIP3   OH227136   5.679   4.797   2.511
 9064TIP3    H127137   5.716   4.840   2.588
 9064TIP3    H227138   5.651   4.712   2.542
 9065TIP3   OH227139   0.835   2.015   1.151
 9065TIP3    H127140   0.741   2.000   1.145
 9065TIP3    H227141   0.872   1.973   1.074
 9066TIP3   OH227142   1.757   4.714   6.015
 9066TIP3    H127143   1.694   4.782   6.036
 9066TIP3    H227144   1.738   4.692   5.924
 9067TIP3   OH227145   6.187   0.784   2.624
 9067TIP3    H127146   6.111   0.843   2.620
 9067TIP3    H227147   6.246   0.817   2.556
 9068TIP3   OH227148   5.504   5.140   6.634
 9068TIP3    H127149   5.519   5.196   6.559
 9068TIP3    H227150   5.457   5.195   6.697
 9069TIP3   OH227151   4.722   3.312   6.545
 9069TIP3    H127152   4.753   3.296   6.456
 9069TIP3    H227153   4.764   3.245   6.598
 9070TIP3   OH227154   5.457   3.688   1.936
 9070TIP3    H127155   5.433   3.597   1.949
 9070TIP3    H227156   5.378   3.737   1.957
 9071TIP3   OH227157   5.581   0.827   5.518
 9071TIP3    H127158   5.623   0.812   5.602
 9071TIP3    H227159   5.609   0.915   5.492
 9072TIP3   OH227160   1.030   5.477   0.320
 9072TIP3    H127161   0.995   5.475   0.409
 9072TIP3    H227162   1.092   5.404   0.316
 9073TIP3   OH227163   3.153   4.367   2.766
 9073TIP3    H127164   3.111   4.444   2.804
 9073TIP3    H227165   3.093   4.295   2.785
 9074TIP3   OH227166   7.732   1.580   0.637
 9074TIP3    H127167   7.811   1.526   0.634
 9074TIP3    H227168   7.710   1.584   0.730
 9075TIP3   OH227169   0.589   1.145   6.466
 9075TIP3    H127170   0.621   1.055   6.455
 9075TIP3    H227171   0.535   1.160   6.389
 9076TIP3   OH227172   0.091   6.954   5.702
 9076TIP3    H127173   0.004   6.971   5.739
 9076TIP3    H227174   0.112   7.033   5.653
 9077TIP3   OH227175   5.869   6.812   5.073
 9077TIP3    H127176   5.829   6.807   4.986
 9077TIP3    H227177   5.962   6.800   5.057
 9078TIP3   OH227178   3.548   5.388   4.902
 9078TIP3    H127179   3.631   5.420   4.865
 9078TIP3    H227180   3.529   5.310   4.851
 9079TIP3   OH227181   7.636   6.248   1.551
 9079TIP3    H127182   7.717   6.282   1.511
 9079TIP3    H227183   7.600   6.323   1.599
 9080TIP3   OH227184   6.139   6.649   0.511
 9080TIP3    H127185   6.099   6.565   0.489
 9080TIP3    H227186   6.079   6.688   0.575
 9081TIP3   OH227187   3.006   3.796   6.488
 9081TIP3    H127188   3.064   3.741   6.435
 9081TIP3    H227189   2.920   3.786   6.446
 9082TIP3   OH227190   6.669   4.152   4.477
 9082TIP3    H127191   6.714   4.109   4.404
 9082TIP3    H227192   6.719   4.232   4.492
 9083TIP3   OH227193   6.509   2.033   3.417
 9083TIP3    H127194   6.463   1.996   3.342
 9083TIP3    H227195   6.440   2.059   3.478
 9084TIP3   OH227196   3.868   0.879   1.161
 9084TIP3    H127197   3.948   0.930   1.147
 9084TIP3    H227198   3.804   0.943   1.194
 9085TIP3   OH227199   7.254   7.402   3.664
 9085TIP3    H127200   7.346   7.399   3.693
 9085TIP3    H227201   7.207   7.350   3.728
 9086TIP3   OH227202   4.558   7.499   4.528
 9086TIP3    H127203   4.498   7.507   4.453
 9086TIP3    H227204   4.643   7.526   4.495
 9087TIP3   OH227205   4.319   1.310   4.938
 9087TIP3    H127206   4.361   1.288   5.022
 9087TIP3    H227207   4.226   1.316   4.959
 9088TIP3   OH227208   5.081   7.057   1.821
 9088TIP3    H127209   5.072   6.981   1.878
 9088TIP3    H227210   5.060   7.024   1.733
 9089TIP3   OH227211   6.543   5.371   5.852
 9089TIP3    H127212   6.568   5.378   5.944
 9089TIP3    H227213   6.501   5.286   5.846
 9090TIP3   OH227214   3.060   2.518   2.794
 9090TIP3    H127215   3.135   2.577   2.785
 9090TIP3    H227216   2.991   2.558   2.743
 9091TIP3   OH227217   2.147   2.802   1.847
 9091TIP3    H127218   2.192   2.806   1.931
 9091TIP3    H227219   2.183   2.725   1.804
 9092TIP3   OH227220   3.595   1.175   5.853
 9092TIP3    H127221   3.615   1.268   5.848
 9092TIP3    H227222   3.674   1.135   5.890
 9093TIP3   OH227223   3.972   4.560   4.771
 9093TIP3    H127224   3.973   4.484   4.714
 9093TIP3    H227225   3.956   4.634   4.712
 9094TIP3   OH227226   0.211   0.912   0.608
 9094TIP3    H127227   0.207   0.911   0.512
 9094TIP3    H227228   0.287   0.966   0.628
 9095TIP3   OH227229   1.856   3.448   2.294
 9095TIP3    H127230   1.827   3.538   2.309
 9095TIP3    H227231   1.950   3.450   2.313
 9096TIP3   OH227232   1.140   6.883   4.723
 9096TIP3    H127233   1.065   6.919   4.677
 9096TIP3    H227234   1.105   6.850   4.805
 9097TIP3   OH227235   0.052   4.418   2.758
 9097TIP3    H127236   0.050   4.498   2.706
 9097TIP3    H227237  -0.037   4.382   2.749
 9098TIP3   OH227238   6.606   0.256   5.080
 9098TIP3    H127239   6.568   0.244   5.168
 9098TIP3    H227240   6.532   0.280   5.025
 9099TIP3   OH227241   6.097   1.895   2.167
 9099TIP3    H127242   6.049   1.931   2.241
 9099TIP3    H227243   6.189   1.899   2.193
 9100TIP3   OH227244   5.803   5.565   6.074
 9100TIP3    H127245   5.733   5.630   6.067
 9100TIP3    H227246   5.798   5.515   5.992
 9101TIP3   OH227247   2.110   5.021   6.115
 9101TIP3    H127248   2.138   5.033   6.206
 9101TIP3    H227249   2.104   5.111   6.080
 9102TIP3   OH227250   4.881   0.715   2.239
 9102TIP3    H127251   4.829   0.661   2.300
 9102TIP3    H227252   4.969   0.714   2.276
 9103TIP3   OH227253   5.914   4.379   3.918
 9103TIP3    H127254   5.957   4.455   3.881
 9103TIP3    H227255   5.984   4.331   3.962
 9104TIP3   OH227256   6.412   0.384   6.282
 9104TIP3    H127257   6.474   0.414   6.215
 9104TIP3    H227258   6.396   0.461   6.337
 9105TIP3   OH227259   3.891   2.285   2.381
 9105TIP3    H127260   3.805   2.253   2.409
 9105TIP3    H227261   3.879   2.378   2.366
 9106TIP3   OH227262   6.521   2.938   2.140
 9106TIP3    H127263   6.474   3.014   2.174
 9106TIP3    H227264   6.579   2.973   2.073
 9107TIP3   OH227265   3.431   3.582   6.295
 9107TIP3    H127266   3.349   3.561   6.339
 9107TIP3    H227267   3.479   3.499   6.292
 9108TIP3   OH227268   8.148   3.162   3.088
 9108TIP3    H127269   8.154   3.250   3.126
 9108TIP3    H227270   8.237   3.128   3.093
 9109TIP3   OH227271   6.463   3.878   3.159
 9109TIP3    H127272   6.494   3.919   3.240
 9109TIP3    H227273   6.501   3.790   3.161
 9110TIP3   OH227274   0.660   2.772   0.831
 9110TIP3    H127275   0.615   2.688   0.820
 9110TIP3    H227276   0.734   2.768   0.771
 9111TIP3   OH227277   3.813   6.268   0.924
 9111TIP3    H127278   3.823   6.339   0.861
 9111TIP3    H227279   3.900   6.227   0.929
 9112TIP3   OH227280   6.026   3.036   3.627
 9112TIP3    H127281   5.983   3.121   3.637
 9112TIP3    H227282   6.099   3.038   3.689
 9113TIP3   OH227283   0.002   2.094   3.547
 9113TIP3    H127284  -0.070   2.151   3.519
 9113TIP3    H227285   0.061   2.152   3.597
 9114TIP3   OH227286   4.582   7.737   5.781
 9114TIP3    H127287   4.668   7.758   5.745
 9114TIP3    H227288   4.594   7.652   5.824
 9115TIP3   OH227289   1.751   4.722   3.099
 9115TIP3    H127290   1.835   4.749   3.136
 9115TIP3    H227291   1.686   4.763   3.156
 9116TIP3   OH227292   4.132   5.462   6.711
 9116TIP3    H127293   4.039   5.442   6.720
 9116TIP3    H227294   4.139   5.511   6.629
 9117TIP3   OH227295   0.727   3.430   0.303
 9117TIP3    H127296   0.816   3.397   0.294
 9117TIP3    H227297   0.700   3.452   0.214
 9118TIP3   OH227298   0.547   2.577   4.811
 9118TIP3    H127299   0.459   2.570   4.775
 9118TIP3    H227300   0.535   2.591   4.905
 9119TIP3   OH227301   1.659   7.421   6.660
 9119TIP3    H127302   1.709   7.342   6.682
 9119TIP3    H227303   1.726   7.485   6.634
 9120TIP3   OH227304   4.299   3.154   3.455
 9120TIP3    H127305   4.285   3.082   3.517
 9120TIP3    H227306   4.391   3.147   3.430
 9121TIP3   OH227307   2.782   5.556   1.623
 9121TIP3    H127308   2.826   5.585   1.543
 9121TIP3    H227309   2.846   5.500   1.667
 9122TIP3   OH227310   4.568   1.414   5.113
 9122TIP3    H127311   4.614   1.461   5.043
 9122TIP3    H227312   4.561   1.324   5.081
 9123TIP3   OH227313   6.286   3.145   3.180
 9123TIP3    H127314   6.240   3.062   3.167
 9123TIP3    H227315   6.224   3.199   3.228
 9124TIP3   OH227316   0.349   4.069   1.178
 9124TIP3    H127317   0.277   4.124   1.210
 9124TIP3    H227318   0.313   3.980   1.180
 9125TIP3   OH227319   3.221   1.884   5.484
 9125TIP3    H127320   3.251   1.795   5.501
 9125TIP3    H227321   3.301   1.931   5.458
 9126TIP3   OH227322   3.220   5.823   4.069
 9126TIP3    H127323   3.199   5.770   3.993
 9126TIP3    H227324   3.138   5.866   4.092
 9127TIP3   OH227325   7.360   0.569   5.318
 9127TIP3    H127326   7.297   0.497   5.321
 9127TIP3    H227327   7.373   0.593   5.410
 9128TIP3   OH227328   1.573   0.485   2.765
 9128TIP3    H127329   1.668   0.480   2.765
 9128TIP3    H227330   1.553   0.559   2.822
 9129TIP3   OH227331   1.042   1.097   5.369
 9129TIP3    H127332   1.033   1.104   5.464
 9129TIP3    H227333   1.001   1.176   5.335
 9130TIP3   OH227334   4.710   5.072   1.637
 9130TIP3    H127335   4.784   5.014   1.659
 9130TIP3    H227336   4.645   5.013   1.599
 9131TIP3   OH227337   4.241   2.885   6.442
 9131TIP3    H127338   4.296   2.856   6.369
 9131TIP3    H227339   4.179   2.946   6.403
 9132TIP3   OH227340   5.441   1.704   1.370
 9132TIP3    H127341   5.425   1.795   1.399
 9132TIP3    H227342   5.511   1.673   1.427
 9133TIP3   OH227343   7.760   4.423   5.563
 9133TIP3    H127344   7.784   4.352   5.622
 9133TIP3    H227345   7.715   4.380   5.490
 9134TIP3   OH227346   6.556   3.819   3.755
 9134TIP3    H127347   6.620   3.780   3.814
 9134TIP3    H227348   6.483   3.843   3.812
 9135TIP3   OH227349   3.860   3.992   4.418
 9135TIP3    H127350   3.857   4.004   4.324
 9135TIP3    H227351   3.943   3.947   4.435
 9136TIP3   OH227352   0.303   7.540   4.080
 9136TIP3    H127353   0.346   7.576   4.002
 9136TIP3    H227354   0.320   7.446   4.076
 9137TIP3   OH227355   6.261   1.852   1.800
 9137TIP3    H127356   6.270   1.888   1.711
 9137TIP3    H227357   6.169   1.868   1.822
 9138TIP3   OH227358   1.856   2.281   3.804
 9138TIP3    H127359   1.873   2.251   3.893
 9138TIP3    H227360   1.926   2.343   3.785
 9139TIP3   OH227361   0.307   4.078   3.700
 9139TIP3    H127362   0.401   4.071   3.688
 9139TIP3    H227363   0.282   4.155   3.649
 9140TIP3   OH227364   2.631   0.995   3.488
 9140TIP3    H127365   2.705   0.976   3.429
 9140TIP3    H227366   2.582   1.063   3.443
 9141TIP3   OH227367   5.823   3.845   1.050
 9141TIP3    H127368   5.754   3.878   1.106
 9141TIP3    H227369   5.786   3.848   0.962
 9142TIP3   OH227370   5.095   2.756   4.746
 9142TIP3    H127371   5.081   2.692   4.817
 9142TIP3    H227372   5.047   2.833   4.774
 9143TIP3   OH227373   6.362   4.747   1.487
 9143TIP3    H127374   6.339   4.749   1.393
 9143TIP3    H227375   6.299   4.686   1.525
 9144TIP3   OH227376   3.523   2.720   3.893
 9144TIP3    H127377   3.487   2.772   3.821
 9144TIP3    H227378   3.455   2.655   3.911
 9145TIP3   OH227379   6.555   5.619   6.603
 9145TIP3    H127380   6.568   5.588   6.693
 9145TIP3    H227381   6.576   5.542   6.549
 9146TIP3   OH227382   6.023   7.070   2.643
 9146TIP3    H127383   5.933   7.095   2.667
 9146TIP3    H227384   6.015   7.031   2.556
 9147TIP3   OH227385   4.499   2.788   1.451
 9147TIP3    H127386   4.570   2.851   1.445
 9147TIP3    H227387   4.479   2.765   1.360
 9148TIP3   OH227388   2.322   1.083   6.525
 9148TIP3    H127389   2.333   1.125   6.440
 9148TIP3    H227390   2.408   1.091   6.567
 9149TIP3   OH227391   0.071   3.083   1.792
 9149TIP3    H127392   0.021   3.150   1.747
 9149TIP3    H227393   0.160   3.092   1.757
 9150TIP3   OH227394   3.869   7.172   3.453
 9150TIP3    H127395   3.809   7.226   3.402
 9150TIP3    H227396   3.851   7.195   3.544
 9151TIP3   OH227397   6.426   5.037   4.651
 9151TIP3    H127398   6.473   5.006   4.729
 9151TIP3    H227399   6.468   4.991   4.578
 9152TIP3   OH227400   7.356   4.304   1.269
 9152TIP3    H127401   7.397   4.374   1.218
 9152TIP3    H227402   7.426   4.272   1.326
 9153TIP3   OH227403   5.397   0.197   5.182
 9153TIP3    H127404   5.397   0.173   5.275
 9153TIP3    H227405   5.479   0.244   5.169
 9154TIP3   OH227406   2.620   6.782   4.718
 9154TIP3    H127407   2.713   6.805   4.721
 9154TIP3    H227408   2.604   6.739   4.802
 9155TIP3   OH227409   6.144   7.001   4.148
 9155TIP3    H127410   6.092   7.028   4.073
 9155TIP3    H227411   6.167   7.082   4.193
 9156TIP3   OH227412   7.663   7.048   3.818
 9156TIP3    H127413   7.585   6.995   3.832
 9156TIP3    H227414   7.643   7.132   3.857
 9157TIP3   OH227415   7.294   5.162   3.142
 9157TIP3    H127416   7.387   5.167   3.166
 9157TIP3    H227417   7.249   5.138   3.224
 9158TIP3   OH227418   2.675   0.925   3.082
 9158TIP3    H127419   2.721   0.953   3.161
 9158TIP3    H227420   2.600   0.876   3.114
 9159TIP3   OH227421   2.096   7.032   3.113
 9159TIP3    H127422   2.018   7.046   3.060
 9159TIP3    H227423   2.096   6.938   3.132
 9160TIP3   OH227424   3.412   0.155   5.558
 9160TIP3    H127425   3.384   0.102   5.483
 9160TIP3    H227426   3.411   0.245   5.525
 9161TIP3   OH227427   3.699   0.505   5.367
 9161TIP3    H127428   3.706   0.589   5.414
 9161TIP3    H227429   3.785   0.465   5.378
 9162TIP3   OH227430   4.686   5.506   5.047
 9162TIP3    H127431   4.718   5.536   4.962
 9162TIP3    H227432   4.765   5.480   5.095
 9163TIP3   OH227433   7.895   4.132   5.359
 9163TIP3    H127434   7.895   4.213   5.308
 9163TIP3    H227435   7.917   4.159   5.448
 9164TIP3   OH227436   6.975   6.504  -0.035
 9164TIP3    H127437   6.983   6.410  -0.050
 9164TIP3    H227438   7.012   6.517   0.052
 9165TIP3   OH227439   1.095   6.459   4.192
 9165TIP3    H127440   1.095   6.525   4.261
 9165TIP3    H227441   1.019   6.480   4.139
 9166TIP3   OH227442   5.966   5.544   0.885
 9166TIP3    H127443   5.896   5.609   0.896
 9166TIP3    H227444   6.046   5.592   0.903
 9167TIP3   OH227445   3.140   5.125   0.284
 9167TIP3    H127446   3.222   5.170   0.304
 9167TIP3    H227447   3.167   5.042   0.245
 9168TIP3   OH227448   8.149   4.948   1.308
 9168TIP3    H127449   8.176   5.024   1.360
 9168TIP3    H227450   8.224   4.889   1.311
 9169TIP3   OH227451   2.419   4.777   2.427
 9169TIP3    H127452   2.349   4.825   2.472
 9169TIP3    H227453   2.421   4.816   2.339
 9170TIP3   OH227454   2.133   5.575   3.106
 9170TIP3    H127455   2.182   5.635   3.163
 9170TIP3    H227456   2.074   5.632   3.057
 9171TIP3   OH227457   7.745   5.147   1.221
 9171TIP3    H127458   7.782   5.182   1.141
 9171TIP3    H227459   7.714   5.059   1.197
 9172TIP3   OH227460   1.019   3.701   6.721
 9172TIP3    H127461   1.095   3.669   6.771
 9172TIP3    H227462   1.044   3.689   6.630
 9173TIP3   OH227463   7.322   0.109   1.944
 9173TIP3    H127464   7.310   0.193   1.987
 9173TIP3    H227465   7.395   0.068   1.990
 9174TIP3   OH227466   0.156   3.755   4.483
 9174TIP3    H127467   0.164   3.799   4.398
 9174TIP3    H227468   0.195   3.669   4.470
 9175TIP3   OH227469   2.950   7.667   1.279
 9175TIP3    H127470   2.885   7.714   1.330
 9175TIP3    H227471   2.899   7.619   1.213
 9176TIP3   OH227472   0.156   1.129   2.552
 9176TIP3    H127473   0.251   1.136   2.562
 9176TIP3    H227474   0.121   1.177   2.627
 9177TIP3   OH227475   6.479   3.326   5.974
 9177TIP3    H127476   6.557   3.269   5.973
 9177TIP3    H227477   6.444   3.317   6.063
 9178TIP3   OH227478   1.159   2.049   2.458
 9178TIP3    H127479   1.234   2.012   2.413
 9178TIP3    H227480   1.088   2.047   2.394
 9179TIP3   OH227481   4.588   0.827   5.972
 9179TIP3    H127482   4.501   0.792   5.991
 9179TIP3    H227483   4.610   0.882   6.048
 9180TIP3   OH227484   1.634   1.490   0.339
 9180TIP3    H127485   1.615   1.582   0.356
 9180TIP3    H227486   1.572   1.465   0.271
 9181TIP3   OH227487   0.940   7.134   5.954
 9181TIP3    H127488   0.925   7.121   5.860
 9181TIP3    H227489   0.857   7.111   5.995
 9182TIP3   OH227490   0.317   6.771   0.129
 9182TIP3    H127491   0.266   6.848   0.155
 9182TIP3    H227492   0.396   6.774   0.183
 9183TIP3   OH227493   5.598   3.499   3.404
 9183TIP3    H127494   5.612   3.532   3.315
 9183TIP3    H227495   5.549   3.568   3.448
 9184TIP3   OH227496   5.346   0.336   2.996
 9184TIP3    H127497   5.257   0.329   3.029
 9184TIP3    H227498   5.383   0.413   3.041
 9185TIP3   OH227499   3.633   5.408   3.777
 9185TIP3    H127500   3.696   5.477   3.794
 9185TIP3    H227501   3.594   5.389   3.862
 9186TIP3   OH227502   4.859   3.351   4.997
 9186TIP3    H127503   4.800   3.386   4.930
 9186TIP3    H227504   4.947   3.374   4.965
 9187TIP3   OH227505   3.605   0.287   6.019
 9187TIP3    H127506   3.652   0.204   6.029
 9187TIP3    H227507   3.634   0.321   5.935
 9188TIP3   OH227508   7.409   1.502   3.727
 9188TIP3    H127509   7.364   1.585   3.744
 9188TIP3    H227510   7.339   1.441   3.703
 9189TIP3   OH227511   1.069   4.740   4.222
 9189TIP3    H127512   1.084   4.664   4.165
 9189TIP3    H227513   0.982   4.771   4.198
 9190TIP3   OH227514   1.960   3.182   4.067
 9190TIP3    H127515   1.867   3.182   4.044
 9190TIP3    H227516   1.977   3.094   4.100
 9191TIP3   OH227517   3.629   2.766   1.538
 9191TIP3    H127518   3.665   2.681   1.515
 9191TIP3    H227519   3.642   2.820   1.460
 9192TIP3   OH227520   6.922   1.616   6.047
 9192TIP3    H127521   6.962   1.540   6.090
 9192TIP3    H227522   6.829   1.593   6.039
 9193TIP3   OH227523   3.406   2.656   0.810
 9193TIP3    H127524   3.431   2.656   0.903
 9193TIP3    H227525   3.453   2.581   0.773
 9194TIP3   OH227526   2.187   4.548   1.546
 9194TIP3    H127527   2.136   4.581   1.472
 9194TIP3    H227528   2.184   4.618   1.611
 9195TIP3   OH227529   6.561   4.290   5.482
 9195TIP3    H127530   6.630   4.239   5.525
 9195TIP3    H227531   6.554   4.253   5.394
 9196TIP3   OH227532   4.696   1.156   5.758
 9196TIP3    H127533   4.723   1.079   5.709
 9196TIP3    H227534   4.727   1.230   5.705
 9197TIP3   OH227535   8.012   7.589   1.041
 9197TIP3    H127536   8.054   7.516   0.996
 9197TIP3    H227537   7.934   7.551   1.081
 9198TIP3   OH227538   7.501   1.646   4.319
 9198TIP3    H127539   7.438   1.636   4.247
 9198TIP3    H227540   7.466   1.591   4.389
 9199TIP3   OH227541   3.840   4.498   2.631
 9199TIP3    H127542   3.813   4.589   2.621
 9199TIP3    H227543   3.761   4.452   2.660
 9200TIP3   OH227544   4.980   5.459   5.135
 9200TIP3    H127545   4.999   5.368   5.113
 9200TIP3    H227546   5.031   5.510   5.073
 9201TIP3   OH227547   5.342   3.320   1.443
 9201TIP3    H127548   5.276   3.260   1.409
 9201TIP3    H227549   5.413   3.318   1.379
 9202TIP3   OH227550   4.659   1.691   3.008
 9202TIP3    H127551   4.727   1.744   3.050
 9202TIP3    H227552   4.690   1.601   3.017
 9203TIP3   OH227553   0.764   7.418   6.762
 9203TIP3    H127554   0.819   7.340   6.768
 9203TIP3    H227555   0.678   7.385   6.737
 9204TIP3   OH227556   1.863   5.771   0.228
 9204TIP3    H127557   1.881   5.679   0.210
 9204TIP3    H227558   1.774   5.772   0.263
 9205TIP3   OH227559   0.072   0.701   3.439
 9205TIP3    H127560   0.042   0.659   3.519
 9205TIP3    H227561   0.053   0.794   3.452
 9206TIP3   OH227562   1.831   4.814   1.156
 9206TIP3    H127563   1.879   4.809   1.072
 9206TIP3    H227564   1.770   4.887   1.144
 9207TIP3   OH227565   1.930   4.157   5.734
 9207TIP3    H127566   2.020   4.126   5.724
 9207TIP3    H227567   1.897   4.166   5.645
 9208TIP3   OH227568   6.116   2.506   1.483
 9208TIP3    H127569   6.059   2.583   1.491
 9208TIP3    H227570   6.084   2.446   1.550
 9209TIP3   OH227571   6.534   1.861   1.119
 9209TIP3    H127572   6.500   1.835   1.205
 9209TIP3    H227573   6.505   1.952   1.108
 9210TIP3   OH227574   8.000   2.494   5.163
 9210TIP3    H127575   8.027   2.468   5.250
 9210TIP3    H227576   7.983   2.588   5.170
 9211TIP3   OH227577   1.872   1.492   2.953
 9211TIP3    H127578   1.794   1.458   2.997
 9211TIP3    H227579   1.870   1.586   2.969
 9212TIP3   OH227580   1.809   2.529   0.239
 9212TIP3    H127581   1.888   2.543   0.290
 9212TIP3    H227582   1.838   2.485   0.159
 9213TIP3   OH227583   7.439   2.939   1.309
 9213TIP3    H127584   7.506   2.875   1.285
 9213TIP3    H227585   7.358   2.904   1.272
 9214TIP3   OH227586   0.257   0.097   2.627
 9214TIP3    H127587   0.237   0.172   2.571
 9214TIP3    H227588   0.345   0.071   2.601
 9215TIP3   OH227589   0.705   1.746   1.801
 9215TIP3    H127590   0.610   1.759   1.801
 9215TIP3    H227591   0.731   1.762   1.892
 9216TIP3   OH227592   4.696   2.114   2.010
 9216TIP3    H127593   4.777   2.162   1.997
 9216TIP3    H227594   4.646   2.128   1.930
 9217TIP3   OH227595   4.165   7.468   3.664
 9217TIP3    H127596   4.176   7.417   3.584
 9217TIP3    H227597   4.132   7.406   3.728
 9218TIP3   OH227598   1.696   2.748   1.343
 9218TIP3    H127599   1.783   2.741   1.303
 9218TIP3    H227600   1.706   2.816   1.411
 9219TIP3   OH227601   0.574   1.609   1.049
 9219TIP3    H127602   0.605   1.519   1.046
 9219TIP3    H227603   0.601   1.647   0.965
 9220TIP3   OH227604   2.457   7.389   5.455
 9220TIP3    H127605   2.498   7.416   5.537
 9220TIP3    H227606   2.491   7.301   5.439
 9221TIP3   OH227607   6.800   3.505   3.740
 9221TIP3    H127608   6.784   3.431   3.681
 9221TIP3    H227609   6.893   3.524   3.731
 9222TIP3   OH227610   3.176   3.432   1.338
 9222TIP3    H127611   3.162   3.517   1.379
 9222TIP3    H227612   3.247   3.392   1.388
 9223TIP3   OH227613   7.350   7.141   6.215
 9223TIP3    H127614   7.375   7.205   6.149
 9223TIP3    H227615   7.399   7.062   6.190
 9224TIP3   OH227616   3.142   5.354   0.099
 9224TIP3    H127617   3.133   5.286   0.166
 9224TIP3    H227618   3.179   5.308   0.023
 9225TIP3   OH227619   2.171   7.709   2.743
 9225TIP3    H127620   2.220   7.703   2.825
 9225TIP3    H227621   2.236   7.739   2.679
 9226TIP3   OH227622   0.326   2.761   6.627
 9226TIP3    H127623   0.367   2.728   6.548
 9226TIP3    H227624   0.395   2.809   6.672
 9227TIP3   OH227625   1.255   7.238   5.240
 9227TIP3    H127626   1.327   7.281   5.285
 9227TIP3    H227627   1.190   7.223   5.309
 9228TIP3   OH227628   3.070   4.599   0.108
 9228TIP3    H127629   3.006   4.562   0.048
 9228TIP3    H227630   3.072   4.539   0.182
 9229TIP3   OH227631   4.697   1.081   1.344
 9229TIP3    H127632   4.673   1.078   1.436
 9229TIP3    H227633   4.790   1.104   1.343
 9230TIP3   OH227634   7.115   2.281   1.208
 9230TIP3    H127635   7.045   2.219   1.188
 9230TIP3    H227636   7.085   2.364   1.171
 9231TIP3   OH227637   0.241   5.865   5.571
 9231TIP3    H127638   0.231   5.822   5.657
 9231TIP3    H227639   0.155   5.856   5.531
 9232TIP3   OH227640   1.493   2.881   4.212
 9232TIP3    H127641   1.511   2.928   4.131
 9232TIP3    H227642   1.556   2.916   4.275
 9233TIP3   OH227643   2.680   2.571   3.247
 9233TIP3    H127644   2.605   2.606   3.198
 9233TIP3    H227645   2.756   2.618   3.211
 9234TIP3   OH227646   5.368   5.992   4.106
 9234TIP3    H127647   5.448   5.949   4.136
 9234TIP3    H227648   5.385   6.086   4.120
 9235TIP3   OH227649   3.091   0.584   0.386
 9235TIP3    H127650   3.022   0.580   0.452
 9235TIP3    H227651   3.127   0.673   0.394
 9236TIP3   OH227652   5.150   1.239   0.494
 9236TIP3    H127653   5.173   1.229   0.402
 9236TIP3    H227654   5.123   1.151   0.521
 9237TIP3   OH227655   4.517   1.801   2.583
 9237TIP3    H127656   4.497   1.818   2.491
 9237TIP3    H227657   4.528   1.888   2.621
 9238TIP3   OH227658   5.315   2.124   0.885
 9238TIP3    H127659   5.269   2.075   0.953
 9238TIP3    H227660   5.402   2.086   0.883
 9239TIP3   OH227661   3.284   4.972   5.950
 9239TIP3    H127662   3.333   4.893   5.976
 9239TIP3    H227663   3.206   4.938   5.907
 9240TIP3   OH227664   4.308   6.185   3.883
 9240TIP3    H127665   4.281   6.209   3.794
 9240TIP3    H227666   4.379   6.247   3.904
 9241TIP3   OH227667   0.195   0.582   5.170
 9241TIP3    H127668   0.183   0.615   5.259
 9241TIP3    H227669   0.241   0.499   5.181
 9242TIP3   OH227670   5.269   2.100   1.698
 9242TIP3    H127671   5.194   2.150   1.732
 9242TIP3    H227672   5.320   2.165   1.649
 9243TIP3   OH227673   6.506   4.675   2.034
 9243TIP3    H127674   6.589   4.721   2.018
 9243TIP3    H227675   6.494   4.679   2.128
 9244TIP3   OH227676   5.169   0.028   5.605
 9244TIP3    H127677   5.125  -0.057   5.614
 9244TIP3    H227678   5.212   0.041   5.690
 9245TIP3   OH227679   6.628   3.289   2.653
 9245TIP3    H127680   6.607   3.196   2.662
 9245TIP3    H227681   6.548   3.329   2.620
 9246TIP3   OH227682   7.711   6.582   0.915
 9246TIP3    H127683   7.800   6.553   0.935
 9246TIP3    H227684   7.719   6.677   0.906
 9247TIP3   OH227685   1.651   0.394   1.248
 9247TIP3    H127686   1.656   0.354   1.162
 9247TIP3    H227687   1.680   0.326   1.309
 9248TIP3   OH227688   7.134   0.846   1.342
 9248TIP3    H127689   7.212   0.806   1.303
 9248TIP3    H227690   7.165   0.879   1.426
 9249TIP3   OH227691   7.714   4.368   0.686
 9249TIP3    H127692   7.750   4.305   0.623
 9249TIP3    H227693   7.710   4.451   0.638
 9250TIP3   OH227694   2.194   7.368   0.081
 9250TIP3    H127695   2.174   7.303   0.149
 9250TIP3    H227696   2.175   7.452   0.122
 9251TIP3   OH227697   6.737   7.267   3.333
 9251TIP3    H127698   6.671   7.336   3.322
 9251TIP3    H227699   6.819   7.314   3.345
 9252TIP3   OH227700   1.001   1.248   1.685
 9252TIP3    H127701   1.093   1.272   1.698
 9252TIP3    H227702   0.956   1.281   1.763
 9253TIP3   OH227703   0.724   4.854   1.851
 9253TIP3    H127704   0.758   4.879   1.765
 9253TIP3    H227705   0.698   4.763   1.841
 9254TIP3   OH227706   2.253   0.908   2.084
 9254TIP3    H127707   2.316   0.840   2.108
 9254TIP3    H227708   2.266   0.920   1.989
 9255TIP3   OH227709   6.012   0.048   5.302
 9255TIP3    H127710   6.101   0.015   5.291
 9255TIP3    H227711   5.967  -0.020   5.352
 9256TIP3   OH227712   1.207   7.158   0.496
 9256TIP3    H127713   1.262   7.227   0.458
 9256TIP3    H227714   1.147   7.134   0.426
 9257TIP3   OH227715   4.581   4.586   3.205
 9257TIP3    H127716   4.636   4.550   3.274
 9257TIP3    H227717   4.495   4.596   3.245
 9258TIP3   OH227718   3.687   0.077   4.101
 9258TIP3    H127719   3.723   0.157   4.138
 9258TIP3    H227720   3.762   0.018   4.093
 9259TIP3   OH227721   1.490   3.409   0.926
 9259TIP3    H127722   1.520   3.341   0.986
 9259TIP3    H227723   1.518   3.380   0.840
 9260TIP3   OH227724   7.908   6.386   3.084
 9260TIP3    H127725   7.910   6.350   3.172
 9260TIP3    H227726   7.968   6.331   3.034
 9261TIP3   OH227727   2.618   5.601   0.582
 9261TIP3    H127728   2.533   5.559   0.567
 9261TIP3    H227729   2.675   5.530   0.611
 9262TIP3   OH227730   4.329   3.214   2.848
 9262TIP3    H127731   4.326   3.142   2.912
 9262TIP3    H227732   4.273   3.282   2.885
 9263TIP3   OH227733   0.897   5.153   2.485
 9263TIP3    H127734   0.826   5.101   2.447
 9263TIP3    H227735   0.853   5.229   2.524
 9264TIP3   OH227736   2.325   2.951   5.345
 9264TIP3    H127737   2.372   3.013   5.401
 9264TIP3    H227738   2.369   2.867   5.358
 9265TIP3   OH227739   1.665   5.119   2.226
 9265TIP3    H127740   1.744   5.072   2.203
 9265TIP3    H227741   1.626   5.068   2.297
 9266TIP3   OH227742   7.682   6.356   4.529
 9266TIP3    H127743   7.615   6.304   4.573
 9266TIP3    H227744   7.709   6.303   4.454
 9267TIP3   OH227745   0.377   0.941   4.715
 9267TIP3    H127746   0.337   0.961   4.800
 9267TIP3    H227747   0.365   0.847   4.705
 9268TIP3   OH227748   0.306   3.509   4.408
 9268TIP3    H127749   0.270   3.460   4.481
 9268TIP3    H227750   0.400   3.514   4.424
 9269TIP3   OH227751   6.145   5.048   5.252
 9269TIP3    H127752   6.113   4.962   5.224
 9269TIP3    H227753   6.166   5.036   5.345
 9270TIP3   OH227754   5.329   3.814   0.440
 9270TIP3    H127755   5.258   3.786   0.499
 9270TIP3    H227756   5.373   3.733   0.416
 9271TIP3   OH227757   5.150   5.955   6.159
 9271TIP3    H127758   5.231   5.990   6.196
 9271TIP3    H227759   5.169   5.943   6.066
 9272TIP3   OH227760   1.639   0.639   6.123
 9272TIP3    H127761   1.689   0.684   6.192
 9272TIP3    H227762   1.556   0.617   6.164
 9273TIP3   OH227763   2.597   2.716   1.140
 9273TIP3    H127764   2.543   2.754   1.070
 9273TIP3    H227765   2.683   2.704   1.100
 9274TIP3   OH227766   5.985   3.842   1.863
 9274TIP3    H127767   5.991   3.909   1.931
 9274TIP3    H227768   5.987   3.759   1.910
 9275TIP3   OH227769   7.081   0.239   2.938
 9275TIP3    H127770   7.067   0.152   2.976
 9275TIP3    H227771   7.096   0.223   2.845
 9276TIP3   OH227772   7.709   2.358   0.243
 9276TIP3    H127773   7.776   2.373   0.310
 9276TIP3    H227774   7.743   2.401   0.165
 9277TIP3   OH227775   7.433   4.077   4.155
 9277TIP3    H127776   7.499   4.026   4.201
 9277TIP3    H227777   7.466   4.086   4.066
 9278TIP3   OH227778   5.460   3.431   4.715
 9278TIP3    H127779   5.512   3.357   4.744
 9278TIP3    H227780   5.386   3.435   4.776
 9279TIP3   OH227781   5.961   2.342   4.983
 9279TIP3    H127782   5.871   2.371   4.970
 9279TIP3    H227783   6.001   2.347   4.896
 9280TIP3   OH227784   1.392   1.452   4.381
 9280TIP3    H127785   1.394   1.428   4.474
 9280TIP3    H227786   1.315   1.406   4.347
 9281TIP3   OH227787   3.779   3.222   5.010
 9281TIP3    H127788   3.783   3.316   5.024
 9281TIP3    H227789   3.720   3.190   5.078
 9282TIP3   OH227790   0.704   5.804   5.379
 9282TIP3    H127791   0.700   5.859   5.301
 9282TIP3    H227792   0.625   5.750   5.375
 9283TIP3   OH227793   8.110   4.996   6.107
 9283TIP3    H127794   8.028   4.961   6.072
 9283TIP3    H227795   8.083   5.061   6.171
 9284TIP3   OH227796   4.791   3.504   6.159
 9284TIP3    H127797   4.803   3.416   6.195
 9284TIP3    H227798   4.880   3.536   6.146
 9285TIP3   OH227799   0.912   7.357   4.556
 9285TIP3    H127800   1.003   7.382   4.574
 9285TIP3    H227801   0.860   7.426   4.597
 9286TIP3   OH227802   3.438   6.434   1.982
 9286TIP3    H127803   3.432   6.525   2.011
 9286TIP3    H227804   3.455   6.439   1.888
 9287TIP3   OH227805   2.939   7.706   3.098
 9287TIP3    H127806   3.010   7.768   3.087
 9287TIP3    H227807   2.876   7.727   3.029
 9288TIP3   OH227808   4.756   2.152   5.080
 9288TIP3    H127809   4.712   2.233   5.055
 9288TIP3    H227810   4.784   2.113   4.997
 9289TIP3   OH227811   2.307   5.909   2.927
 9289TIP3    H127812   2.399   5.936   2.921
 9289TIP3    H227813   2.261   5.988   2.958
 9290TIP3   OH227814   5.823   4.979   3.026
 9290TIP3    H127815   5.888   4.915   3.054
 9290TIP3    H227816   5.846   5.001   2.936
 9291TIP3   OH227817   4.098   3.066   0.525
 9291TIP3    H127818   4.017   3.016   0.535
 9291TIP3    H227819   4.110   3.109   0.609
 9292TIP3   OH227820   4.630   3.695   4.681
 9292TIP3    H127821   4.673   3.777   4.703
 9292TIP3    H227822   4.587   3.712   4.597
 9293TIP3   OH227823   4.143   6.368   3.191
 9293TIP3    H127824   4.074   6.303   3.184
 9293TIP3    H227825   4.216   6.330   3.141
 9294TIP3   OH227826   4.914   0.275   4.397
 9294TIP3    H127827   4.962   0.357   4.387
 9294TIP3    H227828   4.974   0.209   4.362
 9295TIP3   OH227829   4.674   6.428   4.313
 9295TIP3    H127830   4.753   6.422   4.261
 9295TIP3    H227831   4.699   6.480   4.389
 9296TIP3   OH227832   1.798   4.094   3.222
 9296TIP3    H127833   1.818   4.067   3.133
 9296TIP3    H227834   1.726   4.037   3.250
 9297TIP3   OH227835   0.725   1.734   3.562
 9297TIP3    H127836   0.784   1.804   3.590
 9297TIP3    H227837   0.640   1.757   3.599
 9298TIP3   OH227838   4.280   6.803   2.079
 9298TIP3    H127839   4.341   6.750   2.130
 9298TIP3    H227840   4.269   6.883   2.130
 9299TIP3   OH227841   6.387   1.986   0.089
 9299TIP3    H127842   6.403   2.052   0.022
 9299TIP3    H227843   6.294   1.966   0.081
 9300TIP3   OH227844   0.269   3.871   3.519
 9300TIP3    H127845   0.267   3.936   3.590
 9300TIP3    H227846   0.311   3.917   3.446
 9301TIP3   OH227847   0.743   7.010   6.667
 9301TIP3    H127848   0.760   7.000   6.760
 9301TIP3    H227849   0.692   6.932   6.643
 9302TIP3   OH227850   6.463   0.054   0.897
 9302TIP3    H127851   6.385   0.006   0.870
 9302TIP3    H227852   6.471   0.125   0.833
 9303TIP3   OH227853   6.925   4.378   2.531
 9303TIP3    H127854   6.956   4.336   2.451
 9303TIP3    H227855   6.961   4.466   2.528
 9304TIP3   OH227856   2.841   4.259   1.522
 9304TIP3    H127857   2.925   4.272   1.478
 9304TIP3    H227858   2.848   4.309   1.603
 9305TIP3   OH227859   4.193   0.185   3.439
 9305TIP3    H127860   4.252   0.260   3.432
 9305TIP3    H227861   4.121   0.206   3.379
 9306TIP3   OH227862   3.258   1.159   4.980
 9306TIP3    H127863   3.181   1.205   5.014
 9306TIP3    H227864   3.227   1.119   4.899
 9307TIP3   OH227865   7.146   4.360   5.421
 9307TIP3    H127866   7.093   4.396   5.491
 9307TIP3    H227867   7.195   4.435   5.386
 9308TIP3   OH227868   3.125   4.169   6.632
 9308TIP3    H127869   3.065   4.098   6.612
 9308TIP3    H227870   3.191   4.129   6.690
 9309TIP3   OH227871   0.489   6.373   3.477
 9309TIP3    H127872   0.580   6.386   3.451
 9309TIP3    H227873   0.492   6.367   3.573
 9310TIP3   OH227874   0.090   3.443   0.234
 9310TIP3    H127875   0.185   3.431   0.237
 9310TIP3    H227876   0.056   3.382   0.300
 9311TIP3   OH227877   0.147   0.777   3.966
 9311TIP3    H127878   0.192   0.696   3.989
 9311TIP3    H227879   0.209   0.824   3.909
 9312TIP3   OH227880   3.153   7.286   5.461
 9312TIP3    H127881   3.203   7.335   5.526
 9312TIP3    H227882   3.214   7.275   5.388
 9313TIP3   OH227883   7.202   5.606   4.563
 9313TIP3    H127884   7.133   5.635   4.503
 9313TIP3    H227885   7.166   5.528   4.605
 9314TIP3   OH227886   2.401   6.830   2.747
 9314TIP3    H127887   2.394   6.764   2.678
 9314TIP3    H227888   2.406   6.913   2.700
 9315TIP3   OH227889   5.520   5.193   2.704
 9315TIP3    H127890   5.586   5.148   2.651
 9315TIP3    H227891   5.479   5.255   2.644
 9316TIP3   OH227892   7.283   3.792   2.649
 9316TIP3    H127893   7.241   3.714   2.613
 9316TIP3    H227894   7.297   3.772   2.742
 9317TIP3   OH227895   0.428   2.612   0.644
 9317TIP3    H127896   0.433   2.581   0.554
 9317TIP3    H227897   0.397   2.703   0.637
 9318TIP3   OH227898   3.647   3.787   1.077
 9318TIP3    H127899   3.697   3.734   1.014
 9318TIP3    H227900   3.583   3.726   1.114
 9319TIP3   OH227901   6.884   6.298   5.480
 9319TIP3    H127902   6.793   6.268   5.482
 9319TIP3    H227903   6.933   6.230   5.526
 9320TIP3   OH227904   6.367   6.623   1.585
 9320TIP3    H127905   6.297   6.663   1.636
 9320TIP3    H227906   6.390   6.544   1.633
 9321TIP3   OH227907   1.951   7.456   6.004
 9321TIP3    H127908   2.024   7.463   6.066
 9321TIP3    H227909   1.908   7.541   6.008
 9322TIP3   OH227910   0.242   5.178   3.379
 9322TIP3    H127911   0.226   5.271   3.364
 9322TIP3    H227912   0.258   5.142   3.292
 9323TIP3   OH227913   8.060   2.093   0.983
 9323TIP3    H127914   8.142   2.139   1.000
 9323TIP3    H227915   8.036   2.120   0.894
 9324TIP3   OH227916   0.935   3.974   3.388
 9324TIP3    H127917   0.881   3.904   3.351
 9324TIP3    H227918   0.954   3.944   3.477
 9325TIP3   OH227919   8.050   2.699   0.614
 9325TIP3    H127920   8.021   2.731   0.529
 9325TIP3    H227921   8.056   2.604   0.603
 9326TIP3   OH227922   4.532   0.076   2.433
 9326TIP3    H127923   4.473   0.117   2.496
 9326TIP3    H227924   4.614   0.065   2.481
 9327TIP3   OH227925   2.786   0.470   0.419
 9327TIP3    H127926   2.786   0.480   0.323
 9327TIP3    H227927   2.694   0.462   0.442
 9328TIP3   OH227928   1.022   6.771   3.313
 9328TIP3    H127929   1.093   6.800   3.255
 9328TIP3    H227930   1.040   6.815   3.396
 9329TIP3   OH227931   3.883   1.610   6.357
 9329TIP3    H127932   3.811   1.554   6.386
 9329TIP3    H227933   3.886   1.597   6.262
 9330TIP3   OH227934   1.561   2.114   2.677
 9330TIP3    H127935   1.536   2.184   2.617
 9330TIP3    H227936   1.611   2.053   2.624
 9331TIP3   OH227937   2.772   1.969   4.415
 9331TIP3    H127938   2.738   1.920   4.341
 9331TIP3    H227939   2.738   2.058   4.403
 9332TIP3   OH227940   1.165   7.662   5.495
 9332TIP3    H127941   1.200   7.577   5.521
 9332TIP3    H227942   1.083   7.670   5.544
 9333TIP3   OH227943   7.568   1.213   1.412
 9333TIP3    H127944   7.480   1.195   1.378
 9333TIP3    H227945   7.553   1.256   1.496
 9334TIP3   OH227946   2.109   7.147   2.369
 9334TIP3    H127947   2.189   7.099   2.346
 9334TIP3    H227948   2.091   7.119   2.459
 9335TIP3   OH227949   8.140   6.349   2.514
 9335TIP3    H127950   8.175   6.372   2.600
 9335TIP3    H227951   8.045   6.354   2.525
 9336TIP3   OH227952   0.303   0.205   6.478
 9336TIP3    H127953   0.352   0.132   6.442
 9336TIP3    H227954   0.321   0.278   6.419
 9337TIP3   OH227955   6.647   1.584   0.375
 9337TIP3    H127956   6.682   1.672   0.366
 9337TIP3    H227957   6.594   1.570   0.296
 9338TIP3   OH227958   6.494   0.295   2.589
 9338TIP3    H127959   6.466   0.354   2.659
 9338TIP3    H227960   6.570   0.250   2.625
 9339TIP3   OH227961   0.951   5.362   0.542
 9339TIP3    H127962   0.958   5.372   0.637
 9339TIP3    H227963   0.898   5.283   0.530
 9340TIP3   OH227964   7.938   0.582   3.685
 9340TIP3    H127965   7.900   0.590   3.772
 9340TIP3    H227966   8.029   0.610   3.696
 9341TIP3   OH227967   4.648   6.673   2.628
 9341TIP3    H127968   4.691   6.630   2.554
 9341TIP3    H227969   4.636   6.763   2.599
 9342TIP3   OH227970   0.934   2.634   4.373
 9342TIP3    H127971   0.907   2.697   4.440
 9342TIP3    H227972   0.946   2.687   4.294
 9343TIP3   OH227973   2.727   1.572   6.100
 9343TIP3    H127974   2.680   1.497   6.063
 9343TIP3    H227975   2.705   1.645   6.042
 9344TIP3   OH227976   1.050   0.136   5.062
 9344TIP3    H127977   0.973   0.080   5.047
 9344TIP3    H227978   1.124   0.085   5.029
 9345TIP3   OH227979   4.541   6.167   0.035
 9345TIP3    H127980   4.482   6.097   0.061
 9345TIP3    H227981   4.502   6.204  -0.044
 9346TIP3   OH227982   1.071   7.412   3.331
 9346TIP3    H127983   1.031   7.385   3.414
 9346TIP3    H227984   1.006   7.469   3.290
 9347TIP3   OH227985   7.820   5.335   5.994
 9347TIP3    H127986   7.775   5.285   6.062
 9347TIP3    H227987   7.913   5.317   6.008
 9348TIP3   OH227988   0.110   0.270   6.649
 9348TIP3    H127989   0.158   0.335   6.700
 9348TIP3    H227990   0.178   0.223   6.600
 9349TIP3   OH227991   3.275   5.979   2.434
 9349TIP3    H127992   3.279   5.969   2.339
 9349TIP3    H227993   3.191   5.941   2.459
 9350TIP3   OH227994   6.401   1.359   5.241
 9350TIP3    H127995   6.422   1.294   5.308
 9350TIP3    H227996   6.410   1.313   5.158
 9351TIP3   OH227997   4.907   6.654   4.839
 9351TIP3    H127998   4.900   6.716   4.912
 9351TIP3    H227999   4.847   6.583   4.862
 9352TIP3   OH228000   4.790   0.498   5.034
 9352TIP3    H128001   4.829   0.568   5.086
 9352TIP3    H228002   4.852   0.483   4.963
 9353TIP3   OH228003   1.395   6.913   0.229
 9353TIP3    H128004   1.469   6.927   0.287
 9353TIP3    H228005   1.337   6.853   0.277
 9354TIP3   OH228006   5.478   6.665   4.067
 9354TIP3    H128007   5.506   6.757   4.064
 9354TIP3    H228008   5.541   6.623   4.126
 9355TIP3   OH228009   0.117   2.216   3.750
 9355TIP3    H128010   0.186   2.277   3.724
 9355TIP3    H228011   0.049   2.272   3.788
 9356TIP3   OH228012   1.843   3.098   6.271
 9356TIP3    H128013   1.885   3.105   6.356
 9356TIP3    H228014   1.822   3.188   6.247
 9357TIP3   OH228015   4.006   0.379   5.264
 9357TIP3    H128016   4.010   0.368   5.359
 9357TIP3    H228017   4.096   0.403   5.240
 9358TIP3   OH228018   3.929   3.981   3.416
 9358TIP3    H128019   3.917   3.958   3.508
 9358TIP3    H228020   3.944   4.075   3.417
 9359TIP3   OH228021   0.509   3.156   3.066
 9359TIP3    H128022   0.500   3.243   3.027
 9359TIP3    H228023   0.575   3.167   3.134
 9360TIP3   OH228024   2.761   0.114   0.665
 9360TIP3    H128025   2.692   0.155   0.613
 9360TIP3    H228026   2.842   0.134   0.619
 9361TIP3   OH228027   3.147   5.780   1.970
 9361TIP3    H128028   3.176   5.689   1.970
 9361TIP3    H228029   3.062   5.779   2.012
 9362TIP3   OH228030   6.176   1.258   3.198
 9362TIP3    H128031   6.096   1.214   3.168
 9362TIP3    H228032   6.167   1.348   3.166
 9363TIP3   OH228033   5.311   7.297   5.204
 9363TIP3    H128034   5.340   7.303   5.295
 9363TIP3    H228035   5.238   7.359   5.198
 9364TIP3   OH228036   5.503   5.362   5.878
 9364TIP3    H128037   5.506   5.441   5.932
 9364TIP3    H228038   5.453   5.388   5.800
 9365TIP3   OH228039   7.324   7.788   6.439
 9365TIP3    H128040   7.283   7.847   6.375
 9365TIP3    H228041   7.407   7.762   6.399
 9366TIP3   OH228042   3.851   4.313   3.529
 9366TIP3    H128043   3.789   4.248   3.497
 9366TIP3    H228044   3.824   4.331   3.619
 9367TIP3   OH228045   6.232   5.535   1.651
 9367TIP3    H128046   6.284   5.610   1.680
 9367TIP3    H228047   6.267   5.460   1.698
 9368TIP3   OH228048   3.478   3.918   0.318
 9368TIP3    H128049   3.539   3.925   0.391
 9368TIP3    H228050   3.431   4.002   0.318
 9369TIP3   OH228051   6.612   4.492   5.051
 9369TIP3    H128052   6.696   4.510   5.010
 9369TIP3    H228053   6.587   4.405   5.018
 9370TIP3   OH228054   5.033   3.490   3.104
 9370TIP3    H128055   5.008   3.447   3.186
 9370TIP3    H228056   5.058   3.418   3.045
 9371TIP3   OH228057   3.041   4.571   6.437
 9371TIP3    H128058   3.077   4.660   6.430
 9371TIP3    H228059   2.946   4.583   6.433
 9372TIP3   OH228060   0.837   3.952   0.079
 9372TIP3    H128061   0.825   4.047   0.077
 9372TIP3    H228062   0.757   3.918   0.120
 9373TIP3   OH228063   3.299   2.275   6.326
 9373TIP3    H128064   3.389   2.300   6.307
 9373TIP3    H228065   3.272   2.224   6.250
 9374TIP3   OH228066   2.236   0.555   3.169
 9374TIP3    H128067   2.204   0.465   3.170
 9374TIP3    H228068   2.174   0.602   3.113
 9375TIP3   OH228069   6.572   5.408   6.130
 9375TIP3    H128070   6.615   5.329   6.162
 9375TIP3    H228071   6.478   5.386   6.132
 9376TIP3   OH228072   1.213   6.049   0.737
 9376TIP3    H128073   1.170   6.134   0.733
 9376TIP3    H228074   1.240   6.040   0.829
 9377TIP3   OH228075   8.260   0.094   2.470
 9377TIP3    H128076   8.266   0.006   2.507
 9377TIP3    H228077   8.166   0.108   2.456
 9378TIP3   OH228078   6.131   0.872   6.554
 9378TIP3    H128079   6.049   0.826   6.538
 9378TIP3    H228080   6.184   0.854   6.475
 9379TIP3   OH228081   3.798   6.375   4.109
 9379TIP3    H128082   3.742   6.339   4.040
 9379TIP3    H228083   3.827   6.459   4.076
 9380TIP3   OH228084   3.464   2.629   6.434
 9380TIP3    H128085   3.388   2.625   6.375
 9380TIP3    H228086   3.532   2.672   6.382
 9381TIP3   OH228087   0.041   0.227   2.812
 9381TIP3    H128088   0.057   0.264   2.899
 9381TIP3    H228089   0.044   0.132   2.825
 9382TIP3   OH228090   1.800   7.245   0.134
 9382TIP3    H128091   1.736   7.304   0.174
 9382TIP3    H228092   1.859   7.304   0.087
 9383TIP3   OH228093   3.122   6.937   2.874
 9383TIP3    H128094   3.098   7.014   2.926
 9383TIP3    H228095   3.218   6.941   2.867
 9384TIP3   OH228096   3.179   5.757   3.422
 9384TIP3    H128097   3.263   5.765   3.468
 9384TIP3    H228098   3.165   5.663   3.413
 9385TIP3   OH228099   1.979   5.395   4.963
 9385TIP3    H128100   1.903   5.392   5.021
 9385TIP3    H228101   1.997   5.489   4.952
 9386TIP3   OH228102   4.243   6.924   4.534
 9386TIP3    H128103   4.204   6.980   4.467
 9386TIP3    H228104   4.172   6.907   4.595
 9387TIP3   OH228105   6.600   2.425   2.512
 9387TIP3    H128106   6.606   2.427   2.608
 9387TIP3    H228107   6.558   2.507   2.488
 9388TIP3   OH228108   6.746   0.552   5.801
 9388TIP3    H128109   6.673   0.534   5.742
 9388TIP3    H228110   6.767   0.644   5.787
 9389TIP3   OH228111   4.353   0.396   5.864
 9389TIP3    H128112   4.418   0.418   5.931
 9389TIP3    H228113   4.280   0.456   5.881
 9390TIP3   OH228114   5.701   0.445   1.285
 9390TIP3    H128115   5.632   0.488   1.336
 9390TIP3    H228116   5.666   0.442   1.196
 9391TIP3   OH228117   2.544   3.431   3.027
 9391TIP3    H128118   2.555   3.444   2.933
 9391TIP3    H228119   2.502   3.511   3.058
 9392TIP3   OH228120   0.297   2.945   3.562
 9392TIP3    H128121   0.242   2.885   3.513
 9392TIP3    H228122   0.380   2.898   3.575
 9393TIP3   OH228123   7.277   5.909   2.091
 9393TIP3    H128124   7.243   5.959   2.165
 9393TIP3    H228125   7.248   5.819   2.107
 9394TIP3   OH228126   2.423   1.213   1.800
 9394TIP3    H128127   2.406   1.241   1.890
 9394TIP3    H228128   2.480   1.281   1.764
 9395TIP3   OH228129   1.307   4.837   0.613
 9395TIP3    H128130   1.371   4.775   0.648
 9395TIP3    H228131   1.287   4.805   0.526
 9396TIP3   OH228132   3.913   5.907   0.668
 9396TIP3    H128133   3.954   5.966   0.605
 9396TIP3    H228134   3.983   5.846   0.692
 9397TIP3   OH228135   0.892   4.412   4.126
 9397TIP3    H128136   0.882   4.336   4.068
 9397TIP3    H228137   0.946   4.473   4.075
 9398TIP3   OH228138   6.698   7.061   0.581
 9398TIP3    H128139   6.658   6.983   0.542
 9398TIP3    H228140   6.791   7.041   0.584
 9399TIP3   OH228141   4.971   7.272   6.438
 9399TIP3    H128142   4.884   7.279   6.476
 9399TIP3    H228143   4.983   7.179   6.420
 9400TIP3   OH228144   1.503   1.251   2.388
 9400TIP3    H128145   1.440   1.305   2.436
 9400TIP3    H228146   1.584   1.301   2.392
 9401TIP3   OH228147   3.360   5.393   6.193
 9401TIP3    H128148   3.417   5.391   6.270
 9401TIP3    H228149   3.350   5.486   6.173
 9402TIP3   OH228150   7.102   4.201   3.711
 9402TIP3    H128151   7.147   4.119   3.732
 9402TIP3    H228152   7.055   4.223   3.791
 9403TIP3   OH228153   5.202   3.958   6.491
 9403TIP3    H128154   5.209   3.890   6.558
 9403TIP3    H228155   5.108   3.965   6.474
 9404TIP3   OH228156   1.966   5.001   5.244
 9404TIP3    H128157   1.909   5.018   5.320
 9404TIP3    H228158   1.923   4.928   5.199
 9405TIP3   OH228159   0.877   5.245   3.699
 9405TIP3    H128160   0.787   5.225   3.672
 9405TIP3    H228161   0.880   5.340   3.703
 9406TIP3   OH228162   4.335   5.144   4.641
 9406TIP3    H128163   4.430   5.156   4.646
 9406TIP3    H228164   4.323   5.049   4.631
 9407TIP3   OH228165   3.503   5.420   0.652
 9407TIP3    H128166   3.438   5.381   0.710
 9407TIP3    H228167   3.525   5.350   0.590
 9408TIP3   OH228168   0.913   4.368   5.394
 9408TIP3    H128169   0.876   4.280   5.392
 9408TIP3    H228170   0.905   4.399   5.304
 9409TIP3   OH228171   7.509   2.685   4.567
 9409TIP3    H128172   7.419   2.717   4.558
 9409TIP3    H228173   7.526   2.639   4.485
 9410TIP3   OH228174   1.870   1.476   5.556
 9410TIP3    H128175   1.785   1.447   5.524
 9410TIP3    H228176   1.850   1.531   5.632
 9411TIP3   OH228177   7.810   4.028   5.042
 9411TIP3    H128178   7.762   4.036   4.959
 9411TIP3    H228179   7.886   4.084   5.031
 9412TIP3   OH228180   8.202   3.102   2.472
 9412TIP3    H128181   8.160   3.057   2.546
 9412TIP3    H228182   8.223   3.189   2.506
 9413TIP3   OH228183   5.856   1.274   6.026
 9413TIP3    H128184   5.837   1.339   5.959
 9413TIP3    H228185   5.799   1.200   6.006
 9414TIP3   OH228186   1.971   3.700   0.900
 9414TIP3    H128187   1.988   3.612   0.867
 9414TIP3    H228188   1.876   3.710   0.891
 9415TIP3   OH228189   4.989   3.566   1.021
 9415TIP3    H128190   5.020   3.516   1.097
 9415TIP3    H228191   4.971   3.499   0.955
 9416TIP3   OH228192   6.774   4.121   3.104
 9416TIP3    H128193   6.720   4.043   3.116
 9416TIP3    H228194   6.732   4.168   3.032
 9417TIP3   OH228195   3.229   2.827   0.141
 9417TIP3    H128196   3.216   2.791   0.228
 9417TIP3    H228197   3.292   2.769   0.100
 9418TIP3   OH228198   1.249   6.848   1.542
 9418TIP3    H128199   1.338   6.830   1.511
 9418TIP3    H228200   1.217   6.917   1.483
 9419TIP3   OH228201   6.594   5.461   0.560
 9419TIP3    H128202   6.524   5.399   0.535
 9419TIP3    H228203   6.560   5.547   0.534
 9420TIP3   OH228204   6.426   7.085   5.400
 9420TIP3    H128205   6.443   7.016   5.464
 9420TIP3    H228206   6.512   7.122   5.382
 9421TIP3   OH228207   2.565   6.985   3.044
 9421TIP3    H128208   2.504   7.044   3.001
 9421TIP3    H228209   2.517   6.903   3.053
 9422TIP3   OH228210   6.091   3.992   6.355
 9422TIP3    H128211   6.184   3.996   6.333
 9422TIP3    H228212   6.090   3.962   6.446
 9423TIP3   OH228213   7.429   6.115   0.811
 9423TIP3    H128214   7.502   6.129   0.871
 9423TIP3    H228215   7.408   6.022   0.820
 9424TIP3   OH228216   2.514   2.522   2.645
 9424TIP3    H128217   2.549   2.436   2.621
 9424TIP3    H228218   2.513   2.572   2.563
 9425TIP3   OH228219   2.650   0.458   5.282
 9425TIP3    H128220   2.573   0.402   5.274
 9425TIP3    H228221   2.617   0.546   5.263
 9426TIP3   OH228222   7.959   7.342   3.927
 9426TIP3    H128223   8.033   7.313   3.873
 9426TIP3    H228224   7.999   7.391   3.999
 9427TIP3   OH228225   6.161   5.446   5.952
 9427TIP3    H128226   6.225   5.458   6.022
 9427TIP3    H228227   6.078   5.433   5.997
 9428TIP3   OH228228   5.981   7.767   5.967
 9428TIP3    H128229   5.908   7.829   5.969
 9428TIP3    H228230   6.059   7.823   5.970
 9429TIP3   OH228231   6.337   7.465   4.057
 9429TIP3    H128232   6.431   7.484   4.061
 9429TIP3    H228233   6.329   7.402   3.985
 9430TIP3   OH228234   4.859   3.052   0.816
 9430TIP3    H128235   4.871   2.960   0.839
 9430TIP3    H228236   4.771   3.073   0.847
 9431TIP3   OH228237   0.779   2.822   4.553
 9431TIP3    H128238   0.699   2.782   4.585
 9431TIP3    H228239   0.773   2.914   4.579
 9432TIP3   OH228240   2.060   2.466   6.145
 9432TIP3    H128241   2.017   2.467   6.231
 9432TIP3    H228242   2.024   2.389   6.102
 9433TIP3   OH228243   5.725   3.347   6.278
 9433TIP3    H128244   5.655   3.356   6.342
 9433TIP3    H228245   5.786   3.417   6.299
 9434TIP3   OH228246   1.926   7.745   3.892
 9434TIP3    H128247   1.980   7.666   3.893
 9434TIP3    H228248   1.917   7.769   3.984
 9435TIP3   OH228249   1.654   6.896   3.419
 9435TIP3    H128250   1.642   6.923   3.510
 9435TIP3    H228251   1.735   6.940   3.392
 9436TIP3   OH228252   1.917   4.638   4.959
 9436TIP3    H128253   1.973   4.692   4.902
 9436TIP3    H228254   1.868   4.702   5.011
 9437TIP3   OH228255   5.087   1.025   4.553
 9437TIP3    H128256   5.059   1.070   4.633
 9437TIP3    H228257   5.028   1.056   4.485
 9438TIP3   OH228258   1.990   5.926   4.865
 9438TIP3    H128259   2.084   5.911   4.877
 9438TIP3    H228260   1.966   5.985   4.936
 9439TIP3   OH228261   0.222   3.079   4.702
 9439TIP3    H128262   0.257   3.010   4.757
 9439TIP3    H228263   0.142   3.107   4.747
 9440TIP3   OH228264   0.480   4.706   2.487
 9440TIP3    H128265   0.470   4.612   2.474
 9440TIP3    H228266   0.402   4.733   2.535
 9441TIP3   OH228267   7.590   0.798   1.429
 9441TIP3    H128268   7.654   0.728   1.418
 9441TIP3    H228269   7.562   0.789   1.520
 9442TIP3   OH228270   0.632   3.125   0.337
 9442TIP3    H128271   0.619   3.202   0.283
 9442TIP3    H228272   0.563   3.065   0.310
 9443TIP3   OH228273   4.524   5.894   1.387
 9443TIP3    H128274   4.493   5.803   1.393
 9443TIP3    H228275   4.487   5.927   1.306
 9444TIP3   OH228276   3.304   1.521   0.162
 9444TIP3    H128277   3.214   1.553   0.165
 9444TIP3    H228278   3.305   1.457   0.090
 9445TIP3   OH228279   7.836   0.701   3.110
 9445TIP3    H128280   7.911   0.729   3.163
 9445TIP3    H228281   7.846   0.750   3.028
 9446TIP3   OH228282   4.382   4.540   3.467
 9446TIP3    H128283   4.424   4.608   3.520
 9446TIP3    H228284   4.302   4.581   3.435
 9447TIP3   OH228285   1.061   2.352   4.654
 9447TIP3    H128286   1.045   2.446   4.648
 9447TIP3    H228287   0.986   2.318   4.703
 9448TIP3   OH228288   2.877   6.045   2.437
 9448TIP3    H128289   2.808   5.981   2.417
 9448TIP3    H228290   2.926   6.007   2.509
 9449TIP3   OH228291   4.602   0.197   1.070
 9449TIP3    H128292   4.597   0.177   0.977
 9449TIP3    H228293   4.564   0.120   1.113
 9450TIP3   OH228294   3.852   4.173   2.216
 9450TIP3    H128295   3.933   4.221   2.229
 9450TIP3    H228296   3.847   4.113   2.291
 9451TIP3   OH228297   0.668   7.451   0.680
 9451TIP3    H128298   0.713   7.535   0.676
 9451TIP3    H228299   0.575   7.473   0.679
 9452TIP3   OH228300   7.025   3.812   0.362
 9452TIP3    H128301   7.031   3.905   0.381
 9452TIP3    H228302   6.973   3.775   0.434
 9453TIP3   OH228303   7.610  -0.001   1.949
 9453TIP3    H128304   7.660   0.080   1.937
 9453TIP3    H228305   7.672  -0.071   1.928
 9454TIP3   OH228306   3.950   4.167   5.465
 9454TIP3    H128307   4.039   4.179   5.435
 9454TIP3    H228308   3.957   4.161   5.561
 9455TIP3   OH228309   6.426   1.286   3.381
 9455TIP3    H128310   6.499   1.229   3.356
 9455TIP3    H228311   6.350   1.227   3.383
 9456TIP3   OH228312   0.043   6.609   6.634
 9456TIP3    H128313   0.125   6.645   6.666
 9456TIP3    H228314   0.052   6.608   6.539
 9457TIP3   OH228315   6.916   7.207   3.930
 9457TIP3    H128316   6.903   7.118   3.962
 9457TIP3    H228317   6.979   7.246   3.992
 9458TIP3   OH228318   0.230   0.528   1.189
 9458TIP3    H128319   0.286   0.606   1.179
 9458TIP3    H228320   0.291   0.455   1.192
 9459TIP3   OH228321   0.576   0.944   4.919
 9459TIP3    H128322   0.538   0.983   4.840
 9459TIP3    H228323   0.506   0.948   4.984
 9460TIP3   OH228324   5.436   3.715   4.866
 9460TIP3    H128325   5.530   3.699   4.858
 9460TIP3    H228326   5.429   3.810   4.879
 9461TIP3   OH228327   5.788   1.445   3.102
 9461TIP3    H128328   5.848   1.446   3.027
 9461TIP3    H228329   5.785   1.535   3.132
 9462TIP3   OH228330   3.476   5.471   5.445
 9462TIP3    H128331   3.538   5.423   5.389
 9462TIP3    H228332   3.466   5.416   5.523
 9463TIP3   OH228333   5.145   2.796   5.947
 9463TIP3    H128334   5.237   2.812   5.928
 9463TIP3    H228335   5.103   2.791   5.861
 9464TIP3   OH228336   7.768   5.380   0.097
 9464TIP3    H128337   7.819   5.304   0.069
 9464TIP3    H228338   7.807   5.407   0.180
 9465TIP3   OH228339   2.792   4.258   3.944
 9465TIP3    H128340   2.813   4.230   3.855
 9465TIP3    H228341   2.726   4.326   3.932
 9466TIP3   OH228342   3.165   5.081   1.296
 9466TIP3    H128343   3.081   5.106   1.259
 9466TIP3    H228344   3.144   5.010   1.357
 9467TIP3   OH228345   2.055   5.475   2.269
 9467TIP3    H128346   2.005   5.407   2.314
 9467TIP3    H228347   1.988   5.539   2.243
 9468TIP3   OH228348   0.100   7.037   3.849
 9468TIP3    H128349   0.062   7.008   3.766
 9468TIP3    H228350   0.054   7.118   3.870
 9469TIP3   OH228351   0.653   5.009   2.439
 9469TIP3    H128352   0.649   4.994   2.533
 9469TIP3    H228353   0.599   4.940   2.401
 9470TIP3   OH228354   6.839   4.978   5.544
 9470TIP3    H128355   6.824   4.983   5.638
 9470TIP3    H228356   6.933   4.969   5.535
 9471TIP3   OH228357   3.327   2.635   5.949
 9471TIP3    H128358   3.241   2.607   5.981
 9471TIP3    H228359   3.307   2.696   5.878
 9472TIP3   OH228360   2.070   4.671   6.384
 9472TIP3    H128361   2.049   4.680   6.477
 9472TIP3    H228362   1.988   4.689   6.339
 9473TIP3   OH228363   0.697   1.410   1.726
 9473TIP3    H128364   0.684   1.470   1.652
 9473TIP3    H228365   0.635   1.440   1.793
 9474TIP3   OH228366   4.570   2.060   3.693
 9474TIP3    H128367   4.649   2.086   3.740
 9474TIP3    H228368   4.517   2.014   3.758
 9475TIP3   OH228369   5.908   3.494   0.156
 9475TIP3    H128370   5.932   3.447   0.235
 9475TIP3    H228371   5.968   3.461   0.089
 9476TIP3   OH228372   0.503   7.456   6.385
 9476TIP3    H128373   0.454   7.412   6.315
 9476TIP3    H228374   0.578   7.400   6.401
 9477TIP3   OH228375   7.451   0.069   5.042
 9477TIP3    H128376   7.363   0.083   5.006
 9477TIP3    H228377   7.481  -0.012   5.001
 9478TIP3   OH228378   1.850   1.019   5.657
 9478TIP3    H128379   1.864   0.928   5.683
 9478TIP3    H228380   1.825   1.014   5.565
 9479TIP3   OH228381   6.446   1.901   3.945
 9479TIP3    H128382   6.461   1.987   3.986
 9479TIP3    H228383   6.352   1.887   3.953
 9480TIP3   OH228384   3.932   4.240   3.211
 9480TIP3    H128385   3.944   4.334   3.198
 9480TIP3    H228386   3.988   4.219   3.286
 9481TIP3   OH228387   2.283   4.262   4.343
 9481TIP3    H128388   2.324   4.342   4.377
 9481TIP3    H228389   2.341   4.192   4.370
 9482TIP3   OH228390   0.383   6.885   4.903
 9482TIP3    H128391   0.476   6.877   4.881
 9482TIP3    H228392   0.337   6.853   4.826
 9483TIP3   OH228393   1.444   0.151   2.190
 9483TIP3    H128394   1.404   0.086   2.248
 9483TIP3    H228395   1.382   0.224   2.189
 9484TIP3   OH228396   5.816   1.972   4.514
 9484TIP3    H128397   5.831   1.982   4.608
 9484TIP3    H228398   5.884   2.025   4.472
 9485TIP3   OH228399   5.865   0.810   0.784
 9485TIP3    H128400   5.863   0.883   0.722
 9485TIP3    H228401   5.840   0.849   0.868
 9486TIP3   OH228402   1.352   1.095   5.540
 9486TIP3    H128403   1.422   1.139   5.589
 9486TIP3    H228404   1.272   1.136   5.574
 9487TIP3   OH228405   0.880   2.317   2.357
 9487TIP3    H128406   0.883   2.271   2.274
 9487TIP3    H228407   0.792   2.355   2.360
 9488TIP3   OH228408   6.195   0.795   1.427
 9488TIP3    H128409   6.164   0.719   1.476
 9488TIP3    H228410   6.146   0.869   1.464
 9489TIP3   OH228411   8.058   2.840   6.160
 9489TIP3    H128412   8.036   2.924   6.200
 9489TIP3    H228413   8.150   2.827   6.180
 9490TIP3   OH228414   7.850   3.872   4.794
 9490TIP3    H128415   7.861   3.870   4.699
 9490TIP3    H228416   7.930   3.834   4.829
 9491TIP3   OH228417   6.137   7.519   0.052
 9491TIP3    H128418   6.222   7.525   0.008
 9491TIP3    H228419   6.129   7.427   0.077
 9492TIP3   OH228420   1.569   2.272   2.051
 9492TIP3    H128421   1.496   2.249   2.109
 9492TIP3    H228422   1.553   2.363   2.027
 9493TIP3   OH228423   0.186   2.503   2.154
 9493TIP3    H128424   0.129   2.547   2.092
 9493TIP3    H228425   0.140   2.423   2.178
 9494TIP3   OH228426   1.561   0.566   6.682
 9494TIP3    H128427   1.633   0.560   6.619
 9494TIP3    H228428   1.592   0.517   6.759
 9495TIP3   OH228429   5.178   5.282   3.681
 9495TIP3    H128430   5.146   5.211   3.625
 9495TIP3    H228431   5.190   5.355   3.621
 9496TIP3   OH228432   0.472   2.223   5.936
 9496TIP3    H128433   0.498   2.136   5.967
 9496TIP3    H228434   0.411   2.255   6.001
 9497TIP3   OH228435   3.871   4.859   5.241
 9497TIP3    H128436   3.852   4.898   5.326
 9497TIP3    H228437   3.794   4.805   5.222
 9498TIP3   OH228438   1.358   3.998   5.167
 9498TIP3    H128439   1.407   4.010   5.248
 9498TIP3    H228440   1.303   4.076   5.159
 9499TIP3   OH228441   5.590   7.195   5.252
 9499TIP3    H128442   5.568   7.245   5.331
 9499TIP3    H228443   5.558   7.250   5.180
 9500TIP3   OH228444   3.130   4.550   1.059
 9500TIP3    H128445   3.102   4.637   1.031
 9500TIP3    H228446   3.086   4.490   0.999
 9501TIP3   OH228447   0.473   6.322   4.348
 9501TIP3    H128448   0.434   6.345   4.431
 9501TIP3    H228449   0.418   6.251   4.315
 9502TIP3   OH228450   1.147   6.980   0.078
 9502TIP3    H128451   1.178   7.002  -0.010
 9502TIP3    H228452   1.226   6.958   0.126
 9503TIP3   OH228453   5.239   3.609   5.189
 9503TIP3    H128454   5.216   3.577   5.102
 9503TIP3    H228455   5.171   3.673   5.210
 9504TIP3   OH228456   3.857   6.675   0.327
 9504TIP3    H128457   3.829   6.685   0.417
 9504TIP3    H228458   3.825   6.589   0.301
 9505TIP3   OH228459   0.953   3.065   3.550
 9505TIP3    H128460   0.927   2.994   3.491
 9505TIP3    H228461   1.032   3.102   3.510
 9506TIP3   OH228462   5.468   1.268   4.137
 9506TIP3    H128463   5.450   1.356   4.170
 9506TIP3    H228464   5.465   1.212   4.215
 9507TIP3   OH228465   4.277   0.995   0.791
 9507TIP3    H128466   4.304   1.051   0.718
 9507TIP3    H228467   4.359   0.967   0.832
 9508TIP3   OH228468   3.457   7.271   2.303
 9508TIP3    H128469   3.414   7.230   2.377
 9508TIP3    H228470   3.470   7.200   2.240
 9509TIP3   OH228471   3.399   2.646   5.569
 9509TIP3    H128472   3.318   2.627   5.523
 9509TIP3    H228473   3.375   2.714   5.633
 9510TIP3   OH228474   3.862   3.479   2.377
 9510TIP3    H128475   3.881   3.386   2.385
 9510TIP3    H228476   3.917   3.521   2.444
 9511TIP3   OH228477   5.478   6.658   1.916
 9511TIP3    H128478   5.500   6.752   1.918
 9511TIP3    H228479   5.479   6.636   1.823
 9512TIP3   OH228480   4.046   2.212   1.232
 9512TIP3    H128481   4.088   2.235   1.315
 9512TIP3    H228482   3.996   2.132   1.252
 9513TIP3   OH228483   7.191   4.958   6.115
 9513TIP3    H128484   7.212   5.046   6.145
 9513TIP3    H228485   7.192   4.964   6.019
 9514TIP3   OH228486   0.412   3.720   5.646
 9514TIP3    H128487   0.341   3.777   5.675
 9514TIP3    H228488   0.373   3.666   5.577
 9515TIP3   OH228489   1.664   1.770   2.703
 9515TIP3    H128490   1.630   1.681   2.697
 9515TIP3    H228491   1.731   1.766   2.771
 9516TIP3   OH228492   6.499   4.003   1.390
 9516TIP3    H128493   6.448   3.955   1.325
 9516TIP3    H228494   6.547   4.068   1.338
 9517TIP3   OH228495   3.752   3.124   0.862
 9517TIP3    H128496   3.764   3.072   0.783
 9517TIP3    H228497   3.809   3.083   0.927
 9518TIP3   OH228498   6.154   6.735   6.307
 9518TIP3    H128499   6.085   6.777   6.256
 9518TIP3    H228500   6.109   6.700   6.384
 9519TIP3   OH228501   0.173   6.600   5.514
 9519TIP3    H128502   0.113   6.595   5.588
 9519TIP3    H228503   0.254   6.560   5.546
 9520TIP3   OH228504   5.843   7.189   4.504
 9520TIP3    H128505   5.816   7.183   4.413
 9520TIP3    H228506   5.937   7.209   4.500
 9521TIP3   OH228507   7.626   4.529   2.838
 9521TIP3    H128508   7.553   4.526   2.900
 9521TIP3    H228509   7.608   4.458   2.776
 9522TIP3   OH228510   3.538   5.898   2.459
 9522TIP3    H128511   3.591   5.960   2.409
 9522TIP3    H228512   3.449   5.912   2.427
 9523TIP3   OH228513   1.612   4.595   5.793
 9523TIP3    H128514   1.520   4.593   5.766
 9523TIP3    H228515   1.643   4.505   5.779
 9524TIP3   OH228516   2.945   6.463   2.486
 9524TIP3    H128517   2.874   6.439   2.425
 9524TIP3    H228518   2.900   6.478   2.569
 9525TIP3   OH228519   2.009   0.438   4.101
 9525TIP3    H128520   1.989   0.528   4.077
 9525TIP3    H228521   2.101   0.427   4.077
 9526TIP3   OH228522   5.759   4.628   3.211
 9526TIP3    H128523   5.822   4.646   3.141
 9526TIP3    H228524   5.810   4.640   3.292
 9527TIP3   OH228525   1.947   3.936   2.319
 9527TIP3    H128526   1.945   3.936   2.223
 9527TIP3    H228527   2.003   4.010   2.342
 9528TIP3   OH228528   4.998   3.840   6.726
 9528TIP3    H128529   4.945   3.814   6.651
 9528TIP3    H228530   5.014   3.759   6.774
 9529TIP3   OH228531   1.960   0.511   1.697
 9529TIP3    H128532   2.042   0.531   1.743
 9529TIP3    H228533   1.976   0.426   1.656
 9530TIP3   OH228534   2.275   5.334   0.105
 9530TIP3    H128535   2.237   5.294   0.183
 9530TIP3    H228536   2.368   5.314   0.111
 9531TIP3   OH228537   4.475   0.703   0.382
 9531TIP3    H128538   4.553   0.758   0.377
 9531TIP3    H228539   4.473   0.656   0.299
 9532TIP3   OH228540   7.217   0.413   6.441
 9532TIP3    H128541   7.160   0.393   6.516
 9532TIP3    H228542   7.156   0.439   6.371
 9533TIP3   OH228543   7.724   0.266   2.004
 9533TIP3    H128544   7.813   0.300   1.998
 9533TIP3    H228545   7.670   0.343   2.022
 9534TIP3   OH228546   6.224   1.115   2.799
 9534TIP3    H128547   6.138   1.093   2.761
 9534TIP3    H228548   6.284   1.113   2.724
 9535TIP3   OH228549   5.937   1.966   1.545
 9535TIP3    H128550   5.846   1.941   1.562
 9535TIP3    H228551   5.931   2.037   1.481
 9536TIP3   OH228552   4.126   5.517   4.800
 9536TIP3    H128553   4.222   5.519   4.794
 9536TIP3    H228554   4.108   5.511   4.894
 9537TIP3   OH228555   7.934   1.468   5.632
 9537TIP3    H128556   7.970   1.397   5.579
 9537TIP3    H228557   7.847   1.483   5.597
 9538TIP3   OH228558   4.452   3.121   6.390
 9538TIP3    H128559   4.484   3.073   6.314
 9538TIP3    H228560   4.419   3.203   6.355
 9539TIP3   OH228561   5.015   5.392   1.184
 9539TIP3    H128562   5.109   5.388   1.195
 9539TIP3    H228563   5.002   5.444   1.105
 9540TIP3   OH228564   6.077   2.377   4.702
 9540TIP3    H128565   6.110   2.457   4.662
 9540TIP3    H228566   6.145   2.311   4.685
 9541TIP3   OH228567   4.400   0.031   5.149
 9541TIP3    H128568   4.329   0.008   5.209
 9541TIP3    H228569   4.356   0.068   5.073
 9542TIP3   OH228570   3.617   4.253   5.422
 9542TIP3    H128571   3.700   4.249   5.470
 9542TIP3    H228572   3.635   4.208   5.339
 9543TIP3   OH228573   2.629   6.201   0.720
 9543TIP3    H128574   2.554   6.259   0.738
 9543TIP3    H228575   2.705   6.259   0.723
 9544TIP3   OH228576   0.700   1.982   0.855
 9544TIP3    H128577   0.751   2.030   0.789
 9544TIP3    H228578   0.714   1.890   0.834
 9545TIP3   OH228579   3.609   5.226   0.499
 9545TIP3    H128580   3.605   5.164   0.426
 9545TIP3    H228581   3.661   5.181   0.565
 9546TIP3   OH228582   7.554   0.506   1.098
 9546TIP3    H128583   7.524   0.457   1.022
 9546TIP3    H228584   7.573   0.439   1.163
 9547TIP3   OH228585   0.712   6.907   4.181
 9547TIP3    H128586   0.799   6.930   4.148
 9547TIP3    H228587   0.663   6.880   4.104
 9548TIP3   OH228588   4.966   7.511   3.060
 9548TIP3    H128589   4.914   7.590   3.069
 9548TIP3    H228590   5.056   7.542   3.051
 9549TIP3   OH228591   0.662   6.565   6.095
 9549TIP3    H128592   0.755   6.587   6.092
 9549TIP3    H228593   0.619   6.648   6.119
 9550TIP3   OH228594   6.613   1.285   0.154
 9550TIP3    H128595   6.657   1.245   0.078
 9550TIP3    H228596   6.588   1.372   0.124
 9551TIP3   OH228597   6.774   7.769   3.958
 9551TIP3    H128598   6.820   7.828   3.898
 9551TIP3    H228599   6.712   7.825   4.004
 9552TIP3   OH228600   8.157   3.308   1.057
 9552TIP3    H128601   8.070   3.347   1.061
 9552TIP3    H228602   8.172   3.293   0.963
 9553TIP3   OH228603   4.205   3.087   6.087
 9553TIP3    H128604   4.235   3.105   6.176
 9553TIP3    H228605   4.267   3.134   6.031
 9554TIP3   OH228606   4.987   6.626   6.034
 9554TIP3    H128607   5.021   6.712   6.009
 9554TIP3    H228608   5.036   6.564   5.981
 9555TIP3   OH228609   0.310   7.662   2.526
 9555TIP3    H128610   0.331   7.570   2.510
 9555TIP3    H228611   0.345   7.708   2.449
 9556TIP3   OH228612   1.465   6.023   6.679
 9556TIP3    H128613   1.532   6.055   6.619
 9556TIP3    H228614   1.389   6.006   6.623
 9557TIP3   OH228615   3.644   0.726   1.618
 9557TIP3    H128616   3.557   0.765   1.627
 9557TIP3    H228617   3.639   0.676   1.536
 9558TIP3   OH228618   5.332   6.065   1.410
 9558TIP3    H128619   5.374   6.049   1.325
 9558TIP3    H228620   5.398   6.110   1.462
 9559TIP3   OH228621   1.805   3.686   1.198
 9559TIP3    H128622   1.804   3.778   1.224
 9559TIP3    H228623   1.881   3.649   1.243
 9560TIP3   OH228624   6.517   1.326   1.459
 9560TIP3    H128625   6.610   1.305   1.461
 9560TIP3    H228626   6.489   1.305   1.371
 9561TIP3   OH228627   5.772   5.513   3.729
 9561TIP3    H128628   5.844   5.458   3.760
 9561TIP3    H228629   5.795   5.601   3.760
 9562TIP3   OH228630   3.311   1.714   3.067
 9562TIP3    H128631   3.222   1.717   3.032
 9562TIP3    H228632   3.357   1.786   3.023
 9563TIP3   OH228633   6.668   5.606   3.541
 9563TIP3    H128634   6.580   5.573   3.560
 9563TIP3    H228635   6.671   5.613   3.446
 9564TIP3   OH228636   0.589   6.626   2.145
 9564TIP3    H128637   0.680   6.646   2.124
 9564TIP3    H228638   0.560   6.568   2.075
 9565TIP3   OH228639   6.565   0.904   2.604
 9565TIP3    H128640   6.591   0.870   2.690
 9565TIP3    H228641   6.496   0.844   2.575
 9566TIP3   OH228642   2.409   1.961   5.244
 9566TIP3    H128643   2.459   2.037   5.216
 9566TIP3    H228644   2.462   1.886   5.218
 9567TIP3   OH228645   3.435   4.702   6.330
 9567TIP3    H128646   3.359   4.746   6.368
 9567TIP3    H228647   3.492   4.683   6.405
 9568TIP3   OH228648   7.396   2.422   6.460
 9568TIP3    H128649   7.445   2.483   6.404
 9568TIP3    H228650   7.304   2.435   6.434
 9569TIP3   OH228651   3.210   6.965   6.525
 9569TIP3    H128652   3.131   6.953   6.472
 9569TIP3    H228653   3.274   6.905   6.487
 9570TIP3   OH228654   7.761   3.422   3.319
 9570TIP3    H128655   7.822   3.459   3.382
 9570TIP3    H228656   7.675   3.455   3.345
 9571TIP3   OH228657   1.105   5.763   0.480
 9571TIP3    H128658   1.167   5.693   0.465
 9571TIP3    H228659   1.036   5.723   0.534
 9572TIP3   OH228660   5.466   0.779   2.166
 9572TIP3    H128661   5.424   0.747   2.086
 9572TIP3    H228662   5.480   0.872   2.150
 9573TIP3   OH228663   2.030   4.967   6.577
 9573TIP3    H128664   2.088   4.958   6.501
 9573TIP3    H228665   1.947   4.996   6.541
 9574TIP3   OH228666   2.336   4.289   6.541
 9574TIP3    H128667   2.270   4.305   6.608
 9574TIP3    H228668   2.347   4.373   6.497
 9575TIP3   OH228669   5.533   7.313   3.337
 9575TIP3    H128670   5.626   7.304   3.360
 9575TIP3    H228671   5.488   7.257   3.400
 9576TIP3   OH228672   5.176   6.748   2.247
 9576TIP3    H128673   5.210   6.789   2.326
 9576TIP3    H228674   5.240   6.680   2.226
 9577TIP3   OH228675   4.416   6.003   5.659
 9577TIP3    H128676   4.372   5.921   5.681
 9577TIP3    H228677   4.369   6.070   5.708
 9578TIP3   OH228678   5.431   3.771   4.120
 9578TIP3    H128679   5.345   3.739   4.149
 9578TIP3    H228680   5.425   3.866   4.130
 9579TIP3   OH228681   2.161   1.715   2.279
 9579TIP3    H128682   2.215   1.747   2.351
 9579TIP3    H228683   2.074   1.704   2.316
 9580TIP3   OH228684   0.689   1.457   6.569
 9580TIP3    H128685   0.630   1.530   6.551
 9580TIP3    H228686   0.639   1.400   6.627
 9581TIP3   OH228687   5.409   2.459   5.699
 9581TIP3    H128688   5.367   2.513   5.632
 9581TIP3    H228689   5.487   2.509   5.724
 9582TIP3   OH228690   5.518   1.900   2.871
 9582TIP3    H128691   5.436   1.866   2.907
 9582TIP3    H228692   5.573   1.823   2.859
 9583TIP3   OH228693   0.400   5.844   0.969
 9583TIP3    H128694   0.332   5.804   0.914
 9583TIP3    H228695   0.464   5.774   0.982
 9584TIP3   OH228696   7.803   1.052   6.336
 9584TIP3    H128697   7.855   0.983   6.293
 9584TIP3    H228698   7.743   1.005   6.393
 9585TIP3   OH228699   1.289   3.471   4.382
 9585TIP3    H128700   1.354   3.421   4.333
 9585TIP3    H228701   1.219   3.487   4.320
 9586TIP3   OH228702   5.284   7.764   0.731
 9586TIP3    H128703   5.245   7.679   0.749
 9586TIP3    H228704   5.243   7.823   0.794
 9587TIP3   OH228705   3.853   7.340   1.371
 9587TIP3    H128706   3.857   7.281   1.447
 9587TIP3    H228707   3.926   7.400   1.384
 9588TIP3   OH228708   0.204   1.079   3.139
 9588TIP3    H128709   0.109   1.083   3.138
 9588TIP3    H228710   0.229   1.071   3.047
 9589TIP3   OH228711   8.135   4.423   3.942
 9589TIP3    H128712   8.136   4.378   3.857
 9589TIP3    H228713   8.195   4.372   3.997
 9590TIP3   OH228714   5.530   4.025   5.673
 9590TIP3    H128715   5.493   4.090   5.733
 9590TIP3    H228716   5.601   3.985   5.723
 9591TIP3   OH228717   4.630   4.819   0.059
 9591TIP3    H128718   4.670   4.904   0.072
 9591TIP3    H228719   4.540   4.829   0.090
 9592TIP3   OH228720   0.708   3.580   3.162
 9592TIP3    H128721   0.641   3.515   3.183
 9592TIP3    H228722   0.790   3.538   3.185
 9593TIP3   OH228723   2.833   2.959   6.065
 9593TIP3    H128724   2.919   2.996   6.045
 9593TIP3    H228725   2.771   3.023   6.029
 9594TIP3   OH228726   0.275   5.997   4.025
 9594TIP3    H128727   0.315   5.913   4.003
 9594TIP3    H228728   0.272   6.045   3.942
 9595TIP3   OH228729   6.027   0.248   1.937
 9595TIP3    H128730   6.067   0.317   1.884
 9595TIP3    H228731   6.082   0.245   2.016
 9596TIP3   OH228732   0.740   2.289   6.711
 9596TIP3    H128733   0.803   2.282   6.640
 9596TIP3    H228734   0.705   2.378   6.703
 9597TIP3   OH228735   3.412   2.070   5.957
 9597TIP3    H128736   3.399   1.994   6.013
 9597TIP3    H228737   3.427   2.034   5.870
 9598TIP3   OH228738   3.098   3.219   0.756
 9598TIP3    H128739   3.175   3.276   0.755
 9598TIP3    H228740   3.131   3.134   0.727
 9599TIP3   OH228741   0.059   6.832   1.339
 9599TIP3    H128742   0.137   6.823   1.395
 9599TIP3    H228743   0.056   6.751   1.288
 9600TIP3   OH228744   0.062   2.832   5.746
 9600TIP3    H128745   0.048   2.741   5.771
 9600TIP3    H228746   0.006   2.845   5.670
 9601TIP3   OH228747   5.276   0.711   6.609
 9601TIP3    H128748   5.230   0.696   6.527
 9601TIP3    H228749   5.216   0.763   6.662
 9602TIP3   OH228750   0.703   4.418   6.698
 9602TIP3    H128751   0.700   4.325   6.675
 9602TIP3    H228752   0.774   4.453   6.643
 9603TIP3   OH228753   5.866   3.738   5.771
 9603TIP3    H128754   5.852   3.660   5.716
 9603TIP3    H228755   5.957   3.730   5.801
 9604TIP3   OH228756   2.256   4.166   0.830
 9604TIP3    H128757   2.247   4.242   0.888
 9604TIP3    H228758   2.188   4.105   0.859
 9605TIP3   OH228759   1.769   5.612   1.291
 9605TIP3    H128760   1.722   5.611   1.208
 9605TIP3    H228761   1.783   5.519   1.312
 9606TIP3   OH228762   2.817   2.490   0.179
 9606TIP3    H128763   2.879   2.468   0.110
 9606TIP3    H228764   2.732   2.496   0.134
 9607TIP3   OH228765   1.917   6.391   5.467
 9607TIP3    H128766   2.001   6.360   5.498
 9607TIP3    H228767   1.858   6.316   5.475
 9608TIP3   OH228768   5.708   0.693   6.570
 9608TIP3    H128769   5.742   0.615   6.615
 9608TIP3    H228770   5.615   0.675   6.557
 9609TIP3   OH228771   2.420   2.085   2.519
 9609TIP3    H128772   2.424   2.172   2.481
 9609TIP3    H228773   2.473   2.091   2.599
 9610TIP3   OH228774   4.956   1.069   2.327
 9610TIP3    H128775   4.983   1.157   2.303
 9610TIP3    H228776   5.023   1.012   2.290
 9611TIP3   OH228777   1.277   7.719   6.247
 9611TIP3    H128778   1.306   7.809   6.265
 9611TIP3    H228779   1.359   7.672   6.228
 9612TIP3   OH228780   5.069   1.129   3.081
 9612TIP3    H128781   4.998   1.068   3.061
 9612TIP3    H228782   5.100   1.159   2.995
 9613TIP3   OH228783   4.846   5.327   1.591
 9613TIP3    H128784   4.796   5.246   1.593
 9613TIP3    H228785   4.848   5.353   1.499
 9614TIP3   OH228786   5.211   1.463   2.644
 9614TIP3    H128787   5.214   1.553   2.613
 9614TIP3    H228788   5.128   1.455   2.690
 9615TIP3   OH228789   3.188   3.404   5.513
 9615TIP3    H128790   3.279   3.376   5.501
 9615TIP3    H228791   3.184   3.489   5.469
 9616TIP3   OH228792   1.032   7.353   6.106
 9616TIP3    H128793   1.045   7.283   6.042
 9616TIP3    H228794   1.119   7.389   6.121
 9617TIP3   OH228795   0.282   3.173   3.757
 9617TIP3    H128796   0.199   3.154   3.801
 9617TIP3    H228797   0.289   3.107   3.689
 9618TIP3   OH228798   2.031   0.628   6.461
 9618TIP3    H128799   2.093   0.564   6.496
 9618TIP3    H228800   2.031   0.699   6.526
 9619TIP3   OH228801   7.826   4.358   1.148
 9619TIP3    H128802   7.786   4.326   1.229
 9619TIP3    H228803   7.917   4.376   1.170
 9620TIP3   OH228804   2.791   6.162   2.686
 9620TIP3    H128805   2.708   6.202   2.661
 9620TIP3    H228806   2.769   6.071   2.706
 9621TIP3   OH228807   1.868   0.344   0.982
 9621TIP3    H128808   1.835   0.408   0.919
 9621TIP3    H228809   1.958   0.328   0.956
 9622TIP3   OH228810   1.812   1.230   1.422
 9622TIP3    H128811   1.902   1.261   1.430
 9622TIP3    H228812   1.767   1.299   1.373
 9623TIP3   OH228813   0.209   2.563   6.802
 9623TIP3    H128814   0.255   2.626   6.747
 9623TIP3    H228815   0.141   2.527   6.745
 9624TIP3   OH228816   7.920   6.161   4.898
 9624TIP3    H128817   7.948   6.069   4.907
 9624TIP3    H228818   7.839   6.167   4.949
 9625TIP3   OH228819   2.442   0.198   1.158
 9625TIP3    H128820   2.516   0.243   1.116
 9625TIP3    H228821   2.372   0.264   1.160
 9626TIP3   OH228822   8.100   2.394   0.623
 9626TIP3    H128823   8.057   2.375   0.706
 9626TIP3    H228824   8.185   2.351   0.629
 9627TIP3   OH228825   7.287   5.474   6.097
 9627TIP3    H128826   7.221   5.454   6.163
 9627TIP3    H228827   7.284   5.401   6.035
 9628TIP3   OH228828   6.027   2.790   5.537
 9628TIP3    H128829   6.033   2.845   5.458
 9628TIP3    H228830   5.944   2.744   5.528
 9629TIP3   OH228831   2.829   2.610   4.565
 9629TIP3    H128832   2.886   2.537   4.589
 9629TIP3    H228833   2.830   2.667   4.642
 9630TIP3   OH228834   6.515   3.602   3.038
 9630TIP3    H128835   6.457   3.545   2.988
 9630TIP3    H228836   6.508   3.570   3.128
 9631TIP3   OH228837   0.888   5.809   5.076
 9631TIP3    H128838   0.915   5.812   5.168
 9631TIP3    H228839   0.965   5.838   5.027
 9632TIP3   OH228840   4.530   2.722   0.994
 9632TIP3    H128841   4.611   2.756   1.033
 9632TIP3    H228842   4.551   2.631   0.973
 9633TIP3   OH228843   5.332   2.480   3.600
 9633TIP3    H128844   5.395   2.420   3.561
 9633TIP3    H228845   5.349   2.564   3.556
 9634TIP3   OH228846   0.407   2.252   4.897
 9634TIP3    H128847   0.457   2.227   4.819
 9634TIP3    H228848   0.315   2.241   4.871
 9635TIP3   OH228849   6.552   3.653   2.338
 9635TIP3    H128850   6.559   3.653   2.243
 9635TIP3    H228851   6.620   3.593   2.368
 9636TIP3   OH228852   7.240   0.230   0.329
 9636TIP3    H128853   7.263   0.170   0.401
 9636TIP3    H228854   7.164   0.278   0.361
 9637TIP3   OH228855   5.286   4.277   4.312
 9637TIP3    H128856   5.255   4.353   4.362
 9637TIP3    H228857   5.371   4.256   4.352
 9638TIP3   OH228858   5.776   7.003   0.281
 9638TIP3    H128859   5.791   7.097   0.273
 9638TIP3    H228860   5.702   6.986   0.222
 9639TIP3   OH228861   3.580   1.880   2.115
 9639TIP3    H128862   3.594   1.809   2.053
 9639TIP3    H228863   3.604   1.843   2.200
 9640TIP3   OH228864   5.527   7.313   2.012
 9640TIP3    H128865   5.581   7.234   2.016
 9640TIP3    H228866   5.479   7.305   1.930
 9641TIP3   OH228867   2.571   3.353   0.739
 9641TIP3    H128868   2.592   3.353   0.832
 9641TIP3    H228869   2.655   3.337   0.696
 9642TIP3   OH228870   8.240   0.947   0.170
 9642TIP3    H128871   8.214   0.858   0.194
 9642TIP3    H228872   8.159   0.998   0.176
 9643TIP3   OH228873   5.828   6.086   1.013
 9643TIP3    H128874   5.762   6.073   0.945
 9643TIP3    H228875   5.856   5.997   1.036
 9644TIP3   OH228876   7.877   2.164   1.537
 9644TIP3    H128877   7.874   2.257   1.559
 9644TIP3    H228878   7.799   2.127   1.577
 9645TIP3   OH228879   0.567   6.881   1.165
 9645TIP3    H128880   0.534   6.810   1.111
 9645TIP3    H228881   0.504   6.952   1.153
 9646TIP3   OH228882   4.510   3.624   5.004
 9646TIP3    H128883   4.418   3.602   5.020
 9646TIP3    H228884   4.508   3.686   4.931
 9647TIP3   OH228885   5.165   6.796   2.651
 9647TIP3    H128886   5.175   6.801   2.746
 9647TIP3    H228887   5.126   6.881   2.627
 9648TIP3   OH228888   0.992   0.587   5.089
 9648TIP3    H128889   0.907   0.554   5.119
 9648TIP3    H228890   1.024   0.519   5.030
 9649TIP3   OH228891   5.458   4.537   6.381
 9649TIP3    H128892   5.494   4.625   6.371
 9649TIP3    H228893   5.417   4.537   6.468
 9650TIP3   OH228894   1.824   0.412   2.507
 9650TIP3    H128895   1.738   0.390   2.471
 9650TIP3    H228896   1.878   0.433   2.431
 9651TIP3   OH228897   2.156   6.968   4.155
 9651TIP3    H128898   2.206   6.953   4.236
 9651TIP3    H228899   2.211   7.026   4.103
 9652TIP3   OH228900   2.889   1.032   6.363
 9652TIP3    H128901   2.869   1.019   6.456
 9652TIP3    H228902   2.980   1.061   6.362
 9653TIP3   OH228903   3.664   4.719   3.580
 9653TIP3    H128904   3.622   4.804   3.568
 9653TIP3    H228905   3.637   4.690   3.667
 9654TIP3   OH228906   8.029   3.725   2.409
 9654TIP3    H128907   8.025   3.814   2.374
 9654TIP3    H228908   7.946   3.714   2.455
 9655TIP3   OH228909   1.499   3.901   0.175
 9655TIP3    H128910   1.448   3.943   0.245
 9655TIP3    H228911   1.434   3.851   0.126
 9656TIP3   OH228912   5.134   6.658   0.105
 9656TIP3    H128913   5.071   6.700   0.046
 9656TIP3    H228914   5.080   6.616   0.172
 9657TIP3   OH228915   5.140   5.100   1.434
 9657TIP3    H128916   5.076   5.034   1.460
 9657TIP3    H228917   5.106   5.135   1.352
 9658TIP3   OH228918   3.056   3.106   6.005
 9658TIP3    H128919   3.091   3.131   5.920
 9658TIP3    H228920   3.130   3.119   6.066
 9659TIP3   OH228921   0.783   3.312   3.536
 9659TIP3    H128922   0.699   3.267   3.541
 9659TIP3    H228923   0.848   3.245   3.555
 9660TIP3   OH228924   6.466   1.502   4.539
 9660TIP3    H128925   6.444   1.438   4.471
 9660TIP3    H228926   6.505   1.450   4.609
 9661TIP3   OH228927   1.100   1.295   4.828
 9661TIP3    H128928   1.182   1.269   4.870
 9661TIP3    H228929   1.118   1.382   4.792
 9662TIP3   OH228930   7.597   3.957   1.050
 9662TIP3    H128931   7.630   4.036   1.008
 9662TIP3    H228932   7.522   3.930   0.997
 9663TIP3   OH228933   1.171   6.822   3.818
 9663TIP3    H128934   1.184   6.729   3.799
 9663TIP3    H228935   1.079   6.829   3.843
 9664TIP3   OH228936   6.482   6.802   4.616
 9664TIP3    H128937   6.550   6.813   4.682
 9664TIP3    H228938   6.524   6.750   4.547
 9665TIP3   OH228939   7.099   4.579   3.874
 9665TIP3    H128940   7.047   4.634   3.933
 9665TIP3    H228941   7.112   4.498   3.922
 9666TIP3   OH228942   6.953   7.791   4.596
 9666TIP3    H128943   6.984   7.874   4.633
 9666TIP3    H228944   7.030   7.734   4.598
 9667TIP3   OH228945   0.834   3.504   5.577
 9667TIP3    H128946   0.919   3.525   5.539
 9667TIP3    H228947   0.849   3.503   5.672
 9668TIP3   OH228948   8.012   3.068   1.602
 9668TIP3    H128949   8.034   3.034   1.515
 9668TIP3    H228950   7.917   3.081   1.600
 9669TIP3   OH228951   6.166   5.725   0.924
 9669TIP3    H128952   6.150   5.819   0.935
 9669TIP3    H228953   6.213   5.699   1.003
 9670TIP3   OH228954   5.280   1.853   4.321
 9670TIP3    H128955   5.286   1.810   4.406
 9670TIP3    H228956   5.367   1.890   4.306
 9671TIP3   OH228957   7.469   4.274   5.120
 9671TIP3    H128958   7.496   4.292   5.210
 9671TIP3    H228959   7.387   4.322   5.109
 9672TIP3   OH228960   1.001   0.504   2.270
 9672TIP3    H128961   0.965   0.531   2.354
 9672TIP3    H228962   0.982   0.577   2.211
 9673TIP3   OH228963   6.485   5.390   1.219
 9673TIP3    H128964   6.414   5.448   1.245
 9673TIP3    H228965   6.442   5.314   1.179
 9674TIP3   OH228966   5.279   6.534   1.642
 9674TIP3    H128967   5.208   6.526   1.577
 9674TIP3    H228968   5.332   6.455   1.629
 9675TIP3   OH228969   1.915   6.126   1.633
 9675TIP3    H128970   1.997   6.170   1.611
 9675TIP3    H228971   1.863   6.195   1.675
 9676TIP3   OH228972   2.934   4.136   2.918
 9676TIP3    H128973   2.894   4.081   2.985
 9676TIP3    H228974   2.908   4.225   2.941
 9677TIP3   OH228975   3.305   6.737   1.810
 9677TIP3    H128976   3.218   6.698   1.800
 9677TIP3    H228977   3.310   6.761   1.903
 9678TIP3   OH228978   7.668   0.338   1.555
 9678TIP3    H128979   7.717   0.418   1.572
 9678TIP3    H228980   7.709   0.271   1.609
 9679TIP3   OH228981   2.676   3.189   2.951
 9679TIP3    H128982   2.771   3.195   2.946
 9679TIP3    H228983   2.649   3.271   2.992
 9680TIP3   OH228984   3.643   6.727   6.675
 9680TIP3    H128985   3.720   6.689   6.718
 9680TIP3    H228986   3.576   6.659   6.681
 9681TIP3   OH228987   7.978   7.335   5.057
 9681TIP3    H128988   8.026   7.293   4.986
 9681TIP3    H228989   7.896   7.365   5.016
 9682TIP3   OH228990   8.251   2.481   6.642
 9682TIP3    H128991   8.218   2.471   6.552
 9682TIP3    H228992   8.302   2.402   6.658
 9683TIP3   OH228993   3.254   5.777   4.367
 9683TIP3    H128994   3.196   5.833   4.419
 9683TIP3    H228995   3.233   5.798   4.276
 9684TIP3   OH228996   5.136   3.320   0.927
 9684TIP3    H128997   5.059   3.322   0.869
 9684TIP3    H228998   5.198   3.263   0.883
 9685TIP3   OH228999   5.793   3.937   3.850
 9685TIP3    H129000   5.867   3.997   3.856
 9685TIP3    H229001   5.726   3.976   3.906
 9686TIP3   OH229002   1.764   3.493   0.331
 9686TIP3    H129003   1.850   3.493   0.289
 9686TIP3    H229004   1.766   3.567   0.392
 9687TIP3   OH229005   7.385   6.577   0.949
 9687TIP3    H129006   7.425   6.646   0.897
 9687TIP3    H229007   7.302   6.613   0.978
 9688TIP3   OH229008   1.207   7.552   3.699
 9688TIP3    H129009   1.117   7.538   3.669
 9688TIP3    H229010   1.252   7.587   3.622
 9689TIP3   OH229011   1.507   3.600   1.778
 9689TIP3    H129012   1.574   3.538   1.750
 9689TIP3    H229013   1.553   3.662   1.834
 9690TIP3   OH229014   6.022   2.049   5.876
 9690TIP3    H129015   5.972   2.091   5.805
 9690TIP3    H229016   6.081   2.118   5.907
 9691TIP3   OH229017   0.090   7.334   3.114
 9691TIP3    H129018   0.178   7.347   3.149
 9691TIP3    H229019   0.076   7.408   3.056
 9692TIP3   OH229020   3.865   2.351   2.055
 9692TIP3    H129021   3.884   2.382   2.143
 9692TIP3    H229022   3.831   2.428   2.009
 9693TIP3   OH229023   6.080   3.479   1.989
 9693TIP3    H129024   6.142   3.512   1.925
 9693TIP3    H229025   6.079   3.384   1.975
 9694TIP3   OH229026   3.467   2.883   3.572
 9694TIP3    H129027   3.490   2.974   3.554
 9694TIP3    H229028   3.375   2.885   3.597
 9695TIP3   OH229029   6.084   3.081   0.506
 9695TIP3    H129030   6.151   3.116   0.564
 9695TIP3    H229031   6.123   3.004   0.466
 9696TIP3   OH229032   2.640   3.270   5.538
 9696TIP3    H129033   2.667   3.362   5.542
 9696TIP3    H229034   2.720   3.221   5.556
 9697TIP3   OH229035   4.809   3.854   3.137
 9697TIP3    H129036   4.869   3.813   3.200
 9697TIP3    H229037   4.756   3.781   3.105
 9698TIP3   OH229038   2.415   0.028   4.809
 9698TIP3    H129039   2.413   0.080   4.890
 9698TIP3    H229040   2.402   0.092   4.739
 9699TIP3   OH229041   1.355   1.192   4.588
 9699TIP3    H129042   1.418   1.218   4.655
 9699TIP3    H229043   1.275   1.170   4.637
 9700TIP3   OH229044   2.584   6.001   4.927
 9700TIP3    H129045   2.575   6.069   4.859
 9700TIP3    H229046   2.495   5.973   4.945
 9701TIP3   OH229047   0.511   6.916   1.557
 9701TIP3    H129048   0.453   6.960   1.619
 9701TIP3    H229049   0.576   6.873   1.613
 9702TIP3   OH229050   4.412   6.519   4.239
 9702TIP3    H129051   4.400   6.582   4.310
 9702TIP3    H229052   4.507   6.501   4.238
 9703TIP3   OH229053   4.799   6.478   5.657
 9703TIP3    H129054   4.742   6.516   5.724
 9703TIP3    H229055   4.792   6.384   5.671
 9704TIP3   OH229056   0.825   4.232   3.142
 9704TIP3    H129057   0.836   4.152   3.091
 9704TIP3    H229058   0.804   4.299   3.077
 9705TIP3   OH229059   0.379   3.622   6.238
 9705TIP3    H129060   0.307   3.660   6.289
 9705TIP3    H229061   0.453   3.623   6.298
 9706TIP3   OH229062   7.177   5.827   3.012
 9706TIP3    H129063   7.082   5.838   3.005
 9706TIP3    H229064   7.214   5.908   2.978
 9707TIP3   OH229065   0.072   1.597   5.653
 9707TIP3    H129066   0.158   1.595   5.695
 9707TIP3    H229067   0.046   1.689   5.654
 9708TIP3   OH229068   6.126   4.342   3.364
 9708TIP3    H129069   6.128   4.292   3.445
 9708TIP3    H229070   6.088   4.282   3.300
 9709TIP3   OH229071   6.899   4.234   1.993
 9709TIP3    H129072   6.903   4.288   2.072
 9709TIP3    H229073   6.833   4.276   1.938
 9710TIP3   OH229074   5.522   0.526   2.624
 9710TIP3    H129075   5.495   0.512   2.533
 9710TIP3    H229076   5.441   0.512   2.675
 9711TIP3   OH229077   5.268   2.098   3.534
 9711TIP3    H129078   5.345   2.069   3.485
 9711TIP3    H229079   5.290   2.079   3.625
 9712TIP3   OH229080   7.730   1.806   0.314
 9712TIP3    H129081   7.739   1.901   0.317
 9712TIP3    H229082   7.678   1.784   0.392
 9713TIP3   OH229083   0.773   5.893   0.346
 9713TIP3    H129084   0.857   5.873   0.304
 9713TIP3    H229085   0.776   5.988   0.361
 9714TIP3   OH229086   2.044   2.262   6.368
 9714TIP3    H129087   2.097   2.256   6.448
 9714TIP3    H229088   1.979   2.329   6.387
 9715TIP3   OH229089   2.586   4.101   2.578
 9715TIP3    H129090   2.555   4.161   2.646
 9715TIP3    H229091   2.638   4.036   2.626
 9716TIP3   OH229092   0.507   7.138   2.461
 9716TIP3    H129093   0.539   7.114   2.548
 9716TIP3    H229094   0.545   7.072   2.402
 9717TIP3   OH229095   2.831   3.151   0.394
 9717TIP3    H129096   2.790   3.166   0.308
 9717TIP3    H229097   2.804   3.227   0.446
 9718TIP3   OH229098   0.420   3.920   0.670
 9718TIP3    H129099   0.407   3.837   0.625
 9718TIP3    H229100   0.335   3.941   0.708
 9719TIP3   OH229101   7.184   3.208   2.124
 9719TIP3    H129102   7.277   3.196   2.143
 9719TIP3    H229103   7.143   3.125   2.151
 9720TIP3   OH229104   3.745   6.217   1.563
 9720TIP3    H129105   3.756   6.129   1.600
 9720TIP3    H229106   3.835   6.251   1.555
 9721TIP3   OH229107   6.390   5.986   3.857
 9721TIP3    H129108   6.336   6.061   3.884
 9721TIP3    H229109   6.442   5.966   3.934
 9722TIP3   OH229110   3.514   6.487   3.929
 9722TIP3    H129111   3.530   6.393   3.939
 9722TIP3    H229112   3.455   6.509   4.000
 9723TIP3   OH229113   0.423   3.668   0.487
 9723TIP3    H129114   0.445   3.718   0.408
 9723TIP3    H229115   0.465   3.583   0.474
 9724TIP3   OH229116   1.238   7.728   0.513
 9724TIP3    H129117   1.277   7.754   0.596
 9724TIP3    H229118   1.155   7.687   0.537
 9725TIP3   OH229119   5.982   1.721   5.740
 9725TIP3    H129120   6.022   1.645   5.698
 9725TIP3    H229121   6.015   1.720   5.829
 9726TIP3   OH229122   1.175   1.183   6.412
 9726TIP3    H129123   1.265   1.159   6.432
 9726TIP3    H229124   1.129   1.100   6.399
 9727TIP3   OH229125   4.078   6.405   5.477
 9727TIP3    H129126   4.020   6.330   5.465
 9727TIP3    H229127   4.120   6.416   5.392
 9728TIP3   OH229128   3.491   5.068   4.861
 9728TIP3    H129129   3.500   5.005   4.790
 9728TIP3    H229130   3.417   5.123   4.835
 9729TIP3   OH229131   1.445   6.753   3.624
 9729TIP3    H129132   1.494   6.682   3.583
 9729TIP3    H229133   1.359   6.715   3.644
 9730TIP3   OH229134   6.036   3.126   4.378
 9730TIP3    H129135   6.054   3.129   4.284
 9730TIP3    H229136   6.060   3.213   4.410
 9731TIP3   OH229137   7.436   0.280   2.825
 9731TIP3    H129138   7.355   0.274   2.875
 9731TIP3    H229139   7.438   0.202   2.770
 9732TIP3   OH229140   4.391   1.838   2.944
 9732TIP3    H129141   4.485   1.841   2.962
 9732TIP3    H229142   4.352   1.900   3.005
 9733TIP3   OH229143   8.157   0.792   4.425
 9733TIP3    H129144   8.196   0.773   4.339
 9733TIP3    H229145   8.100   0.867   4.409
 9734TIP3   OH229146   1.291   4.832   6.600
 9734TIP3    H129147   1.318   4.766   6.537
 9734TIP3    H229148   1.216   4.792   6.646
 9735TIP3   OH229149   0.090   2.874   6.641
 9735TIP3    H129150   0.052   2.846   6.724
 9735TIP3    H229151   0.174   2.829   6.636
 9736TIP3   OH229152   0.014   3.691   2.563
 9736TIP3    H129153  -0.078   3.683   2.586
 9736TIP3    H229154   0.056   3.615   2.603
 9737TIP3   OH229155   1.203   6.661   4.347
 9737TIP3    H129156   1.126   6.705   4.384
 9737TIP3    H229157   1.274   6.725   4.359
 9738TIP3   OH229158   7.346   5.442   3.044
 9738TIP3    H129159   7.325   5.391   2.965
 9738TIP3    H229160   7.340   5.378   3.115
 9739TIP3   OH229161   6.573   5.127   4.289
 9739TIP3    H129162   6.654   5.149   4.336
 9739TIP3    H229163   6.547   5.043   4.326
 9740TIP3   OH229164   7.938   6.987   3.903
 9740TIP3    H129165   7.975   6.999   3.815
 9740TIP3    H229166   7.843   6.987   3.889
 9741TIP3   OH229167   2.864   3.777   2.010
 9741TIP3    H129168   2.870   3.686   1.982
 9741TIP3    H229169   2.824   3.822   1.936
 9742TIP3   OH229170   5.741   3.538   0.594
 9742TIP3    H129171   5.785   3.485   0.661
 9742TIP3    H229172   5.677   3.479   0.555
 9743TIP3   OH229173   7.974   1.701   3.234
 9743TIP3    H129174   7.976   1.783   3.284
 9743TIP3    H229175   7.905   1.715   3.169
 9744TIP3   OH229176   1.533   5.246   2.018
 9744TIP3    H129177   1.507   5.324   2.068
 9744TIP3    H229178   1.562   5.184   2.084
 9745TIP3   OH229179   6.215   4.517   5.734
 9745TIP3    H129180   6.271   4.501   5.658
 9745TIP3    H229181   6.126   4.502   5.702
 9746TIP3   OH229182   2.491   3.418   2.085
 9746TIP3    H129183   2.507   3.396   2.177
 9746TIP3    H229184   2.552   3.362   2.037
 9747TIP3   OH229185   0.602   3.586   5.955
 9747TIP3    H129186   0.518   3.613   5.992
 9747TIP3    H229187   0.622   3.653   5.890
 9748TIP3   OH229188   4.004   1.473   4.213
 9748TIP3    H129189   4.020   1.428   4.295
 9748TIP3    H229190   3.908   1.483   4.210
 9749TIP3   OH229191   3.469   5.261   1.995
 9749TIP3    H129192   3.483   5.354   1.976
 9749TIP3    H229193   3.445   5.222   1.911
 9750TIP3   OH229194   4.682   7.089   4.262
 9750TIP3    H129195   4.741   7.055   4.329
 9750TIP3    H229196   4.597   7.050   4.285
 9751TIP3   OH229197   0.089   4.879   4.997
 9751TIP3    H129198   0.091   4.806   5.058
 9751TIP3    H229199   0.180   4.905   4.986
 9752TIP3   OH229200   5.652   1.097   5.959
 9752TIP3    H129201   5.692   1.011   5.973
 9752TIP3    H229202   5.588   1.082   5.889
 9753TIP3   OH229203   7.247   3.185   5.663
 9753TIP3    H129204   7.249   3.129   5.586
 9753TIP3    H229205   7.336   3.221   5.669
 9754TIP3   OH229206   1.921   6.785   3.323
 9754TIP3    H129207   1.854   6.791   3.255
 9754TIP3    H229208   2.004   6.795   3.276
 9755TIP3   OH229209   3.540   0.544   6.173
 9755TIP3    H129210   3.556   0.477   6.107
 9755TIP3    H229211   3.510   0.495   6.250
 9756TIP3   OH229212   3.941   3.074   1.052
 9756TIP3    H129213   3.937   3.105   1.142
 9756TIP3    H229214   3.989   2.991   1.057
 9757TIP3   OH229215   5.365   7.209   4.915
 9757TIP3    H129216   5.323   7.290   4.885
 9757TIP3    H229217   5.354   7.211   5.011
 9758TIP3   OH229218   6.403   4.468   1.146
 9758TIP3    H129219   6.380   4.460   1.054
 9758TIP3    H229220   6.360   4.549   1.175
 9759TIP3   OH229221   6.395   0.276   4.523
 9759TIP3    H129222   6.484   0.253   4.497
 9759TIP3    H229223   6.393   0.262   4.618
 9760TIP3   OH229224   1.916   5.827   3.279
 9760TIP3    H129225   2.002   5.845   3.241
 9760TIP3    H229226   1.913   5.881   3.358
 9761TIP3   OH229227   0.961   0.505   3.275
 9761TIP3    H129228   0.902   0.526   3.204
 9761TIP3    H229229   0.962   0.583   3.330
 9762TIP3   OH229230   1.762   6.796   2.031
 9762TIP3    H129231   1.719   6.881   2.044
 9762TIP3    H229232   1.801   6.776   2.116
 9763TIP3   OH229233   5.076   1.089   2.569
 9763TIP3    H129234   5.016   1.097   2.495
 9763TIP3    H229235   5.027   1.038   2.634
 9764TIP3   OH229236   5.135   2.312   3.388
 9764TIP3    H129237   5.183   2.239   3.428
 9764TIP3    H229238   5.146   2.384   3.450
 9765TIP3   OH229239   6.879   2.808   3.716
 9765TIP3    H129240   6.927   2.885   3.687
 9765TIP3    H229241   6.808   2.800   3.652
 9766TIP3   OH229242   6.639   5.409   2.484
 9766TIP3    H129243   6.585   5.344   2.438
 9766TIP3    H229244   6.688   5.357   2.548
 9767TIP3   OH229245   4.038   7.246   5.910
 9767TIP3    H129246   4.090   7.249   5.830
 9767TIP3    H229247   4.063   7.163   5.952
 9768TIP3   OH229248   1.726   4.367   3.373
 9768TIP3    H129249   1.771   4.291   3.335
 9768TIP3    H229250   1.637   4.362   3.339
 9769TIP3   OH229251   5.558   3.899   2.348
 9769TIP3    H129252   5.594   3.846   2.277
 9769TIP3    H229253   5.626   3.963   2.367
 9770TIP3   OH229254   5.186   4.197   2.501
 9770TIP3    H129255   5.244   4.262   2.539
 9770TIP3    H229256   5.132   4.166   2.574
 9771TIP3   OH229257   6.057   0.939   3.696
 9771TIP3    H129258   6.074   0.854   3.737
 9771TIP3    H229259   5.977   0.971   3.737
 9772TIP3   OH229260   5.286   7.000   5.254
 9772TIP3    H129261   5.306   7.090   5.229
 9772TIP3    H229262   5.190   6.995   5.252
 9773TIP3   OH229263   0.855   6.782   0.614
 9773TIP3    H129264   0.881   6.706   0.666
 9773TIP3    H229265   0.769   6.759   0.579
 9774TIP3   OH229266   3.188   0.281   1.632
 9774TIP3    H129267   3.124   0.263   1.701
 9774TIP3    H229268   3.231   0.362   1.659
 9775TIP3   OH229269   2.871   0.399   4.809
 9775TIP3    H129270   2.864   0.473   4.869
 9775TIP3    H229271   2.964   0.376   4.809
 9776TIP3   OH229272   3.202   5.870   4.984
 9776TIP3    H129273   3.285   5.827   4.966
 9776TIP3    H229274   3.155   5.810   5.041
 9777TIP3   OH229275   0.078   2.245   4.433
 9777TIP3    H129276   0.023   2.304   4.381
 9777TIP3    H229277   0.167   2.262   4.403
 9778TIP3   OH229278   3.014   2.092   2.593
 9778TIP3    H129279   3.036   2.148   2.667
 9778TIP3    H229280   2.978   2.153   2.528
 9779TIP3   OH229281   0.101   7.401   1.813
 9779TIP3    H129282   0.129   7.463   1.880
 9779TIP3    H229283   0.127   7.441   1.730
 9780TIP3   OH229284   5.634   0.623   0.428
 9780TIP3    H129285   5.602   0.559   0.491
 9780TIP3    H229286   5.722   0.644   0.458
 9781TIP3   OH229287   4.130   4.161   4.206
 9781TIP3    H129288   4.040   4.130   4.198
 9781TIP3    H229289   4.156   4.137   4.295
 9782TIP3   OH229290   6.640   0.568   5.206
 9782TIP3    H129291   6.546   0.580   5.221
 9782TIP3    H229292   6.647   0.551   5.112
 9783TIP3   OH229293   3.302   6.122   3.404
 9783TIP3    H129294   3.371   6.117   3.339
 9783TIP3    H229295   3.329   6.061   3.473
 9784TIP3   OH229296   5.230   2.338   1.057
 9784TIP3    H129297   5.242   2.272   0.988
 9784TIP3    H229298   5.236   2.422   1.011
 9785TIP3   OH229299   1.005   5.238   6.497
 9785TIP3    H129300   1.015   5.145   6.520
 9785TIP3    H229301   1.078   5.256   6.437
 9786TIP3   OH229302   3.469   1.101   6.323
 9786TIP3    H129303   3.437   1.170   6.265
 9786TIP3    H229304   3.512   1.148   6.395
 9787TIP3   OH229305   6.075   1.810   6.004
 9787TIP3    H129306   6.065   1.891   5.954
 9787TIP3    H229307   6.087   1.840   6.095
 9788TIP3   OH229308   6.681   5.741   4.221
 9788TIP3    H129309   6.754   5.801   4.204
 9788TIP3    H229310   6.636   5.778   4.297
 9789TIP3   OH229311   6.046   4.638   3.370
 9789TIP3    H129312   6.062   4.674   3.283
 9789TIP3    H229313   6.070   4.545   3.363
 9790TIP3   OH229314   1.191   1.877   2.965
 9790TIP3    H129315   1.110   1.857   2.918
 9790TIP3    H229316   1.260   1.843   2.908
 9791TIP3   OH229317   0.608   4.050   0.519
 9791TIP3    H129318   0.537   4.010   0.568
 9791TIP3    H229319   0.619   3.995   0.442
 9792TIP3   OH229320   1.542   2.657   5.828
 9792TIP3    H129321   1.628   2.677   5.792
 9792TIP3    H229322   1.494   2.740   5.823
 9793TIP3   OH229323   2.163   4.686   0.833
 9793TIP3    H129324   2.215   4.698   0.913
 9793TIP3    H229325   2.125   4.599   0.842
 9794TIP3   OH229326   4.634   3.967   1.098
 9794TIP3    H129327   4.693   3.900   1.063
 9794TIP3    H229328   4.607   4.017   1.021
 9795TIP3   OH229329   6.850   0.762   4.937
 9795TIP3    H129330   6.835   0.782   4.845
 9795TIP3    H229331   6.884   0.673   4.937
 9796TIP3   OH229332   5.615   5.768   0.060
 9796TIP3    H129333   5.559   5.691   0.048
 9796TIP3    H229334   5.675   5.743   0.130
 9797TIP3   OH229335   6.238   6.216   4.409
 9797TIP3    H129336   6.302   6.233   4.479
 9797TIP3    H229337   6.265   6.132   4.373
 9798TIP3   OH229338   0.554   2.051   1.152
 9798TIP3    H129339   0.498   2.088   1.220
 9798TIP3    H229340   0.535   2.103   1.074
 9799TIP3   OH229341   0.921   7.223   3.692
 9799TIP3    H129342   0.951   7.227   3.601
 9799TIP3    H229343   0.934   7.313   3.724
 9800TIP3   OH229344   3.231   6.121   1.402
 9800TIP3    H129345   3.239   6.114   1.307
 9800TIP3    H229346   3.319   6.103   1.435
 9801TIP3   OH229347   5.466   4.443   1.808
 9801TIP3    H129348   5.412   4.499   1.752
 9801TIP3    H229349   5.411   4.366   1.825
 9802TIP3   OH229350   6.023   3.328   0.345
 9802TIP3    H129351   6.015   3.258   0.410
 9802TIP3    H229352   6.093   3.298   0.287
 9803TIP3   OH229353   0.815   1.713   0.345
 9803TIP3    H129354   0.722   1.711   0.366
 9803TIP3    H229355   0.838   1.622   0.328
 9804TIP3   OH229356   5.087   2.901   1.278
 9804TIP3    H129357   5.111   2.971   1.339
 9804TIP3    H229358   5.045   2.945   1.205
 9805TIP3   OH229359   3.772   3.684   4.143
 9805TIP3    H129360   3.853   3.706   4.188
 9805TIP3    H229361   3.799   3.632   4.068
 9806TIP3   OH229362   5.663   1.622   5.396
 9806TIP3    H129363   5.614   1.566   5.335
 9806TIP3    H229364   5.750   1.582   5.400
 9807TIP3   OH229365   4.498   5.036   4.358
 9807TIP3    H129366   4.465   5.126   4.350
 9807TIP3    H229367   4.574   5.034   4.300
 9808TIP3   OH229368   4.241   1.771   2.418
 9808TIP3    H129369   4.147   1.757   2.409
 9808TIP3    H229370   4.257   1.764   2.513
 9809TIP3   OH229371   0.537   6.105   2.660
 9809TIP3    H129372   0.590   6.061   2.593
 9809TIP3    H229373   0.571   6.195   2.663
 9810TIP3   OH229374   1.724   2.299   5.214
 9810TIP3    H129375   1.808   2.333   5.183
 9810TIP3    H229376   1.746   2.230   5.276
 9811TIP3   OH229377   0.321   1.617   6.230
 9811TIP3    H129378   0.406   1.647   6.200
 9811TIP3    H229379   0.268   1.611   6.150
 9812TIP3   OH229380   6.887   2.616   1.111
 9812TIP3    H129381   6.819   2.550   1.120
 9812TIP3    H229382   6.962   2.569   1.075
 9813TIP3   OH229383   5.824   5.363   0.693
 9813TIP3    H129384   5.736   5.390   0.668
 9813TIP3    H229385   5.864   5.441   0.732
 9814TIP3   OH229386   3.246   3.800   4.871
 9814TIP3    H129387   3.204   3.761   4.794
 9814TIP3    H229388   3.290   3.878   4.837
 9815TIP3   OH229389   8.015   6.205   6.298
 9815TIP3    H129390   8.110   6.199   6.293
 9815TIP3    H229391   7.994   6.288   6.255
 9816TIP3   OH229392   4.042   1.292   6.081
 9816TIP3    H129393   4.100   1.221   6.109
 9816TIP3    H229394   4.097   1.347   6.024
 9817TIP3   OH229395   5.867   6.154   4.842
 9817TIP3    H129396   5.818   6.083   4.883
 9817TIP3    H229397   5.847   6.231   4.896
 9818TIP3   OH229398   5.241   4.835   3.409
 9818TIP3    H129399   5.314   4.792   3.453
 9818TIP3    H229400   5.266   4.836   3.316
 9819TIP3   OH229401   7.879   5.479   1.756
 9819TIP3    H129402   7.935   5.403   1.741
 9819TIP3    H229403   7.913   5.546   1.697
 9820TIP3   OH229404   3.557   2.540   3.655
 9820TIP3    H129405   3.478   2.591   3.636
 9820TIP3    H229406   3.525   2.453   3.677
 9821TIP3   OH229407   1.624   3.328   3.705
 9821TIP3    H129408   1.530   3.333   3.723
 9821TIP3    H229409   1.634   3.245   3.659
 9822TIP3   OH229410   1.081   2.453   5.281
 9822TIP3    H129411   1.102   2.364   5.310
 9822TIP3    H229412   1.140   2.510   5.331
 9823TIP3   OH229413   7.426   6.023   6.459
 9823TIP3    H129414   7.487   6.066   6.520
 9823TIP3    H229415   7.341   6.063   6.479
 9824TIP3   OH229416   7.562   2.547   5.323
 9824TIP3    H129417   7.571   2.463   5.278
 9824TIP3    H229418   7.601   2.611   5.264
 9825TIP3   OH229419   5.208   6.030   0.996
 9825TIP3    H129420   5.302   6.043   1.001
 9825TIP3    H229421   5.188   6.023   0.903
 9826TIP3   OH229422   5.926   5.796   5.849
 9826TIP3    H129423   5.873   5.723   5.817
 9826TIP3    H229424   5.863   5.861   5.879
 9827TIP3   OH229425   2.689   5.395   5.798
 9827TIP3    H129426   2.664   5.475   5.752
 9827TIP3    H229427   2.614   5.336   5.784
 9828TIP3   OH229428   1.522   6.765   1.494
 9828TIP3    H129429   1.495   6.685   1.540
 9828TIP3    H229430   1.513   6.743   1.401
 9829TIP3   OH229431   7.727   7.749   0.619
 9829TIP3    H129432   7.643   7.725   0.657
 9829TIP3    H229433   7.731   7.844   0.628
 9830TIP3   OH229434   0.383   3.095   2.231
 9830TIP3    H129435   0.323   3.028   2.262
 9830TIP3    H229436   0.395   3.076   2.138
 9831TIP3   OH229437   3.764   3.244   6.646
 9831TIP3    H129438   3.829   3.244   6.716
 9831TIP3    H229439   3.685   3.278   6.687
 9832TIP3   OH229440   4.739   6.974   0.607
 9832TIP3    H129441   4.823   7.018   0.623
 9832TIP3    H229442   4.762   6.895   0.559
 9833TIP3   OH229443   3.861   1.362   0.229
 9833TIP3    H129444   3.918   1.439   0.229
 9833TIP3    H229445   3.772   1.399   0.229
 9834TIP3   OH229446   7.665   2.158   1.722
 9834TIP3    H129447   7.611   2.237   1.716
 9834TIP3    H229448   7.602   2.088   1.741
 9835TIP3   OH229449   4.913   0.898   2.755
 9835TIP3    H129450   4.826   0.857   2.754
 9835TIP3    H229451   4.973   0.826   2.735
 9836TIP3   OH229452   0.272   6.990   1.710
 9836TIP3    H129453   0.229   7.053   1.652
 9836TIP3    H229454   0.303   7.043   1.783
 9837TIP3   OH229455   0.403   5.185   0.629
 9837TIP3    H129456   0.496   5.206   0.640
 9837TIP3    H229457   0.390   5.185   0.534
 9838TIP3   OH229458   4.007   1.814   5.537
 9838TIP3    H129459   4.042   1.803   5.449
 9838TIP3    H229460   4.081   1.845   5.589
 9839TIP3   OH229461   5.893   5.270   0.959
 9839TIP3    H129462   5.879   5.198   0.898
 9839TIP3    H229463   5.878   5.349   0.907
 9840TIP3   OH229464   0.095   5.724   0.133
 9840TIP3    H129465   0.157   5.709   0.204
 9840TIP3    H229466   0.101   5.817   0.115
 9841TIP3   OH229467   3.645   2.880   1.262
 9841TIP3    H129468   3.669   2.959   1.310
 9841TIP3    H229469   3.673   2.898   1.172
 9842TIP3   OH229470   3.997   2.345   5.708
 9842TIP3    H129471   3.944   2.400   5.765
 9842TIP3    H229472   3.941   2.272   5.685
 9843TIP3   OH229473   0.794   5.782   0.619
 9843TIP3    H129474   0.813   5.804   0.528
 9843TIP3    H229475   0.739   5.854   0.650
 9844TIP3   OH229476   3.783   5.914   6.262
 9844TIP3    H129477   3.718   5.970   6.219
 9844TIP3    H229478   3.867   5.955   6.244
 9845TIP3   OH229479   4.384   7.021   5.195
 9845TIP3    H129480   4.411   7.007   5.286
 9845TIP3    H229481   4.466   7.040   5.148
 9846TIP3   OH229482   2.518   1.482   4.141
 9846TIP3    H129483   2.562   1.507   4.059
 9846TIP3    H229484   2.553   1.543   4.206
 9847TIP3   OH229485   3.810   5.449   6.349
 9847TIP3    H129486   3.792   5.395   6.272
 9847TIP3    H229487   3.863   5.521   6.316
 9848TIP3   OH229488   6.735   2.588   4.434
 9848TIP3    H129489   6.690   2.504   4.445
 9848TIP3    H229490   6.777   2.581   4.348
 9849TIP3   OH229491   7.569   0.428   6.257
 9849TIP3    H129492   7.519   0.353   6.225
 9849TIP3    H229493   7.547   0.499   6.197
 9850TIP3   OH229494   2.874   0.881   0.382
 9850TIP3    H129495   2.821   0.868   0.461
 9850TIP3    H229496   2.813   0.920   0.319
 9851TIP3   OH229497   6.773   5.070   5.197
 9851TIP3    H129498   6.742   5.144   5.145
 9851TIP3    H229499   6.757   5.096   5.288
 9852TIP3   OH229500   4.888   5.294   0.084
 9852TIP3    H129501   4.882   5.359   0.014
 9852TIP3    H229502   4.980   5.271   0.088
 9853TIP3   OH229503   2.351   3.123   1.904
 9853TIP3    H129504   2.318   3.039   1.871
 9853TIP3    H229505   2.417   3.150   1.839
 9854TIP3   OH229506   1.712   4.293   4.704
 9854TIP3    H129507   1.712   4.387   4.724
 9854TIP3    H229508   1.669   4.253   4.779
 9855TIP3   OH229509   5.182   2.501   2.631
 9855TIP3    H129510   5.118   2.432   2.619
 9855TIP3    H229511   5.252   2.461   2.683
 9856TIP3   OH229512   2.239   4.870   6.372
 9856TIP3    H129513   2.188   4.795   6.340
 9856TIP3    H229514   2.323   4.832   6.398
 9857TIP3   OH229515   2.069   6.360   6.727
 9857TIP3    H129516   2.126   6.371   6.651
 9857TIP3    H229517   2.070   6.445   6.771
 9858TIP3   OH229518   2.973   3.402   0.286
 9858TIP3    H129519   2.945   3.436   0.371
 9858TIP3    H229520   3.041   3.338   0.306
 9859TIP3   OH229521   7.021   0.671   6.592
 9859TIP3    H129522   6.950   0.715   6.545
 9859TIP3    H229523   7.097   0.678   6.534
 9860TIP3   OH229524   3.689   3.917   3.277
 9860TIP3    H129525   3.695   3.822   3.288
 9860TIP3    H229526   3.743   3.953   3.347
 9861TIP3   OH229527   2.400   4.392   0.604
 9861TIP3    H129528   2.305   4.406   0.598
 9861TIP3    H229529   2.430   4.461   0.664
 9862TIP3   OH229530   4.935   1.118   4.336
 9862TIP3    H129531   4.840   1.125   4.332
 9862TIP3    H229532   4.959   1.062   4.262
 9863TIP3   OH229533   4.746   2.728   1.150
 9863TIP3    H129534   4.721   2.780   1.227
 9863TIP3    H229535   4.771   2.643   1.187
 9864TIP3   OH229536   6.178   2.722   2.017
 9864TIP3    H129537   6.178   2.815   2.039
 9864TIP3    H229538   6.268   2.694   2.032
 9865TIP3   OH229539   1.974   5.580   6.532
 9865TIP3    H129540   1.888   5.538   6.522
 9865TIP3    H229541   1.983   5.595   6.626
 9866TIP3   OH229542   5.598   4.658   1.243
 9866TIP3    H129543   5.514   4.649   1.288
 9866TIP3    H229544   5.651   4.586   1.278
 9867TIP3   OH229545   2.913   3.494   2.000
 9867TIP3    H129546   2.979   3.425   1.991
 9867TIP3    H229547   2.902   3.504   2.095
 9868TIP3   OH229548   0.829   7.506   2.707
 9868TIP3    H129549   0.813   7.582   2.651
 9868TIP3    H229550   0.873   7.443   2.650
 9869TIP3   OH229551   1.185   2.774   3.372
 9869TIP3    H129552   1.197   2.855   3.323
 9869TIP3    H229553   1.113   2.729   3.328
 9870TIP3   OH229554   1.887   6.032   3.460
 9870TIP3    H129555   1.802   6.074   3.475
 9870TIP3    H229556   1.936   6.095   3.408
 9871TIP3   OH229557   3.554   2.725   4.478
 9871TIP3    H129558   3.632   2.756   4.523
 9871TIP3    H229559   3.587   2.678   4.402
 9872TIP3   OH229560   7.362   0.687   0.768
 9872TIP3    H129561   7.443   0.638   0.782
 9872TIP3    H229562   7.311   0.632   0.708
 9873TIP3   OH229563   2.136   0.357   1.880
 9873TIP3    H129564   2.134   0.316   1.794
 9873TIP3    H229565   2.048   0.344   1.915
 9874TIP3   OH229566   4.030   3.235   3.664
 9874TIP3    H129567   4.008   3.142   3.666
 9874TIP3    H229568   3.979   3.270   3.591
 9875TIP3   OH229569   5.394   2.975   2.651
 9875TIP3    H129570   5.389   2.956   2.558
 9875TIP3    H229571   5.463   3.041   2.660
 9876TIP3   OH229572   1.455   3.939   0.729
 9876TIP3    H129573   1.453   3.860   0.784
 9876TIP3    H229574   1.425   4.008   0.788
 9877TIP3   OH229575   7.552   3.672   2.429
 9877TIP3    H129576   7.464   3.634   2.423
 9877TIP3    H229577   7.607   3.600   2.458
 9878TIP3   OH229578   0.460   6.039   1.674
 9878TIP3    H129579   0.493   6.072   1.591
 9878TIP3    H229580   0.518   6.077   1.740
 9879TIP3   OH229581   7.218   1.267   5.281
 9879TIP3    H129582   7.187   1.217   5.206
 9879TIP3    H229583   7.218   1.358   5.251
 9880TIP3   OH229584   2.310   4.254   4.949
 9880TIP3    H129585   2.361   4.199   5.009
 9880TIP3    H229586   2.377   4.302   4.899
 9881TIP3   OH229587   7.288   5.234   5.892
 9881TIP3    H129588   7.322   5.144   5.892
 9881TIP3    H229589   7.200   5.226   5.857
 9882TIP3   OH229590   7.783   3.891   2.722
 9882TIP3    H129591   7.748   3.821   2.667
 9882TIP3    H229592   7.796   3.964   2.662
 9883TIP3   OH229593   0.286   4.488   3.426
 9883TIP3    H129594   0.364   4.435   3.435
 9883TIP3    H229595   0.238   4.449   3.352
 9884TIP3   OH229596   0.098   1.672   1.961
 9884TIP3    H129597   0.017   1.635   1.996
 9884TIP3    H229598   0.072   1.715   1.880
 9885TIP3   OH229599   3.137   0.216   0.805
 9885TIP3    H129600   3.142   0.121   0.818
 9885TIP3    H229601   3.143   0.227   0.710
 9886TIP3   OH229602   4.097   3.364   1.356
 9886TIP3    H129603   4.041   3.312   1.414
 9886TIP3    H229604   4.044   3.441   1.334
 9887TIP3   OH229605   7.715   2.072   4.194
 9887TIP3    H129606   7.743   1.982   4.212
 9887TIP3    H229607   7.620   2.065   4.182
 9888TIP3   OH229608   8.117   0.765   5.064
 9888TIP3    H129609   8.135   0.675   5.037
 9888TIP3    H229610   8.202   0.808   5.065
 9889TIP3   OH229611   0.313   6.372   5.182
 9889TIP3    H129612   0.346   6.313   5.114
 9889TIP3    H229613   0.345   6.334   5.264
 9890TIP3   OH229614   5.306   0.272   1.531
 9890TIP3    H129615   5.260   0.322   1.598
 9890TIP3    H229616   5.295   0.180   1.556
 9891TIP3   OH229617   3.846   7.805   6.114
 9891TIP3    H129618   3.839   7.809   6.210
 9891TIP3    H229619   3.791   7.731   6.089
 9892TIP3   OH229620   5.872   4.604   2.735
 9892TIP3    H129621   5.783   4.572   2.721
 9892TIP3    H229622   5.868   4.696   2.709
 9893TIP3   OH229623   4.166   5.291   1.027
 9893TIP3    H129624   4.127   5.321   0.945
 9893TIP3    H229625   4.097   5.304   1.092
 9894TIP3   OH229626   2.646   0.805   5.575
 9894TIP3    H129627   2.600   0.724   5.596
 9894TIP3    H229628   2.718   0.777   5.518
 9895TIP3   OH229629   3.408   0.974   0.856
 9895TIP3    H129630   3.364   0.936   0.780
 9895TIP3    H229631   3.346   0.965   0.928
 9896TIP3   OH229632   3.509   7.372   3.618
 9896TIP3    H129633   3.507   7.308   3.547
 9896TIP3    H229634   3.490   7.455   3.576
 9897TIP3   OH229635   6.409   6.968   4.881
 9897TIP3    H129636   6.493   6.935   4.850
 9897TIP3    H229637   6.409   6.949   4.975
 9898TIP3   OH229638   0.097   3.708   4.816
 9898TIP3    H129639   0.185   3.740   4.802
 9898TIP3    H229640   0.108   3.631   4.872
 9899TIP3   OH229641   7.924   6.725   6.460
 9899TIP3    H129642   8.001   6.771   6.428
 9899TIP3    H229643   7.957   6.664   6.525
 9900TIP3   OH229644   1.545   2.152   5.027
 9900TIP3    H129645   1.472   2.174   5.084
 9900TIP3    H229646   1.600   2.231   5.028
 9901TIP3   OH229647   0.337   7.387   2.468
 9901TIP3    H129648   0.403   7.322   2.491
 9901TIP3    H229649   0.310   7.363   2.379
 9902TIP3   OH229650   6.839   6.691   3.829
 9902TIP3    H129651   6.748   6.701   3.801
 9902TIP3    H229652   6.869   6.612   3.785
 9903TIP3   OH229653   7.683   0.282   6.509
 9903TIP3    H129654   7.660   0.319   6.424
 9903TIP3    H229655   7.689   0.188   6.494
 9904TIP3   OH229656   5.771   2.509   4.331
 9904TIP3    H129657   5.770   2.464   4.415
 9904TIP3    H229658   5.774   2.439   4.266
 9905TIP3   OH229659   7.211   5.952   4.044
 9905TIP3    H129660   7.185   5.861   4.053
 9905TIP3    H229661   7.185   5.975   3.954
 9906TIP3   OH229662   7.887   6.923   2.785
 9906TIP3    H129663   7.813   6.931   2.725
 9906TIP3    H229664   7.858   6.968   2.865
 9907TIP3   OH229665   2.103   5.173   3.850
 9907TIP3    H129666   2.047   5.100   3.824
 9907TIP3    H229667   2.056   5.216   3.921
 9908TIP3   OH229668   4.134   6.823   5.403
 9908TIP3    H129669   4.122   6.813   5.308
 9908TIP3    H229670   4.053   6.863   5.433
 9909TIP3   OH229671   4.022   5.666   6.534
 9909TIP3    H129672   4.117   5.675   6.525
 9909TIP3    H229673   3.999   5.726   6.605
 9910TIP3   OH229674   3.015   4.759   4.887
 9910TIP3    H129675   2.948   4.709   4.840
 9910TIP3    H229676   3.064   4.804   4.819
 9911TIP3   OH229677   0.292   3.365   6.211
 9911TIP3    H129678   0.351   3.440   6.221
 9911TIP3    H229679   0.277   3.335   6.301
 9912TIP3   OH229680   2.140   1.866   0.015
 9912TIP3    H129681   2.072   1.802  -0.008
 9912TIP3    H229682   2.100   1.920   0.084
 9913TIP3   OH229683   6.579   7.700   2.491
 9913TIP3    H129684   6.521   7.751   2.548
 9913TIP3    H229685   6.625   7.641   2.551
 9914TIP3   OH229686   5.929   3.277   3.600
 9914TIP3    H129687   5.843   3.282   3.557
 9914TIP3    H229688   5.937   3.361   3.646
 9915TIP3   OH229689   7.856   6.683   5.699
 9915TIP3    H129690   7.785   6.620   5.711
 9915TIP3    H229691   7.870   6.720   5.786
 9916TIP3   OH229692   5.289   1.456   4.707
 9916TIP3    H129693   5.273   1.550   4.708
 9916TIP3    H229694   5.347   1.440   4.781
 9917TIP3   OH229695   5.827   2.667   4.060
 9917TIP3    H129696   5.809   2.593   4.001
 9917TIP3    H229697   5.742   2.688   4.098
 9918TIP3   OH229698   0.370   4.705   2.000
 9918TIP3    H129699   0.341   4.624   1.957
 9918TIP3    H229700   0.299   4.767   1.985
 9919TIP3   OH229701   3.706   5.922   0.009
 9919TIP3    H129702   3.760   5.961   0.078
 9919TIP3    H229703   3.687   5.834   0.040
 9920TIP3   OH229704   5.545   7.678   4.632
 9920TIP3    H129705   5.481   7.731   4.678
 9920TIP3    H229706   5.630   7.718   4.653
 9921TIP3   OH229707   2.143   1.551   5.568
 9921TIP3    H129708   2.086   1.620   5.532
 9921TIP3    H229709   2.084   1.478   5.584
 9922TIP3   OH229710   6.089   5.514   0.483
 9922TIP3    H129711   6.174   5.555   0.469
 9922TIP3    H229712   6.109   5.434   0.532
 9923TIP3   OH229713   0.259   4.222   2.697
 9923TIP3    H129714   0.203   4.297   2.716
 9923TIP3    H229715   0.209   4.146   2.728
 9924TIP3   OH229716   7.757   6.821   2.494
 9924TIP3    H129717   7.788   6.903   2.455
 9924TIP3    H229718   7.712   6.776   2.422
 9925TIP3   OH229719   1.452   2.901   4.930
 9925TIP3    H129720   1.513   2.972   4.907
 9925TIP3    H229721   1.443   2.851   4.849
 9926TIP3   OH229722   2.436   1.862   4.872
 9926TIP3    H129723   2.475   1.935   4.920
 9926TIP3    H229724   2.485   1.859   4.790
 9927TIP3   OH229725   5.425   5.910   3.434
 9927TIP3    H129726   5.471   5.933   3.353
 9927TIP3    H229727   5.355   5.975   3.441
 9928TIP3   OH229728   2.807   7.025   3.876
 9928TIP3    H129729   2.874   7.091   3.893
 9928TIP3    H229730   2.804   7.020   3.780
 9929TIP3   OH229731   6.897   1.914   4.644
 9929TIP3    H129732   6.894   1.843   4.580
 9929TIP3    H229733   6.954   1.880   4.714
 9930TIP3   OH229734   7.811   5.883   2.133
 9930TIP3    H129735   7.869   5.815   2.098
 9930TIP3    H229736   7.805   5.947   2.063
 9931TIP3   OH229737   7.961   6.438   5.932
 9931TIP3    H129738   7.891   6.428   5.868
 9931TIP3    H229739   8.023   6.498   5.890
 9932TIP3   OH229740   0.567   2.055   6.700
 9932TIP3    H129741   0.628   2.128   6.702
 9932TIP3    H229742   0.481   2.096   6.691
 9933TIP3   OH229743   7.814   3.699   1.685
 9933TIP3    H129744   7.789   3.611   1.712
 9933TIP3    H229745   7.907   3.706   1.708
 9934TIP3   OH229746   4.074   5.415   0.798
 9934TIP3    H129747   4.022   5.423   0.717
 9934TIP3    H229748   4.013   5.436   0.868
 9935TIP3   OH229749   0.671   1.282   6.013
 9935TIP3    H129750   0.725   1.251   5.940
 9935TIP3    H229751   0.597   1.221   6.016
 9936TIP3   OH229752   0.058   6.068   5.113
 9936TIP3    H129753   0.091   6.083   5.202
 9936TIP3    H229754   0.058   6.154   5.072
 9937TIP3   OH229755   0.956   6.556   3.739
 9937TIP3    H129756   0.920   6.536   3.653
 9937TIP3    H229757   0.982   6.471   3.774
 9938TIP3   OH229758   3.508   2.272   3.727
 9938TIP3    H129759   3.463   2.194   3.697
 9938TIP3    H229760   3.555   2.244   3.806
 9939TIP3   OH229761   7.864   3.951   3.846
 9939TIP3    H129762   7.918   3.984   3.774
 9939TIP3    H229763   7.922   3.894   3.896
 9940TIP3   OH229764   6.190   1.628   5.087
 9940TIP3    H129765   6.231   1.676   5.015
 9940TIP3    H229766   6.175   1.694   5.154
 9941TIP3   OH229767   2.195   1.454   5.884
 9941TIP3    H129768   2.246   1.373   5.887
 9941TIP3    H229769   2.160   1.457   5.795
 9942TIP3   OH229770   5.018   6.001   0.506
 9942TIP3    H129771   4.974   5.958   0.433
 9942TIP3    H229772   5.098   6.039   0.467
 9943TIP3   OH229773   1.643   1.129   3.637
 9943TIP3    H129774   1.722   1.181   3.622
 9943TIP3    H229775   1.571   1.192   3.628
 9944TIP3   OH229776   3.497   1.416   4.987
 9944TIP3    H129777   3.439   1.457   4.923
 9944TIP3    H229778   3.571   1.383   4.935
 9945TIP3   OH229779   0.291   0.318   4.249
 9945TIP3    H129780   0.241   0.253   4.199
 9945TIP3    H229781   0.362   0.268   4.289
 9946TIP3   OH229782   6.283   1.365   2.927
 9946TIP3    H129783   6.351   1.336   2.988
 9946TIP3    H229784   6.278   1.295   2.862
 9947TIP3   OH229785   5.797   0.660   2.559
 9947TIP3    H129786   5.865   0.605   2.597
 9947TIP3    H229787   5.717   0.608   2.565
 9948TIP3   OH229788   7.915   1.821   0.623
 9948TIP3    H129789   7.921   1.856   0.712
 9948TIP3    H229790   7.876   1.734   0.635
 9949TIP3   OH229791   3.839   3.387   3.479
 9949TIP3    H129792   3.777   3.327   3.437
 9949TIP3    H229793   3.919   3.380   3.426
 9950TIP3   OH229794   6.000   2.683   3.257
 9950TIP3    H129795   6.004   2.773   3.291
 9950TIP3    H229796   6.045   2.631   3.323
 9951TIP3   OH229797   8.246   4.032   4.417
 9951TIP3    H129798   8.226   4.013   4.509
 9951TIP3    H229799   8.331   3.990   4.403
 9952TIP3   OH229800   3.765   3.387   4.310
 9952TIP3    H129801   3.735   3.299   4.330
 9952TIP3    H229802   3.837   3.374   4.247
 9953TIP3   OH229803   2.501   5.053   0.215
 9953TIP3    H129804   2.543   4.972   0.241
 9953TIP3    H229805   2.467   5.036   0.127
 9954TIP3   OH229806   1.300   0.976   1.146
 9954TIP3    H129807   1.384   1.019   1.131
 9954TIP3    H229808   1.249   1.041   1.195
 9955TIP3   OH229809   5.638   5.236   0.408
 9955TIP3    H129810   5.732   5.254   0.403
 9955TIP3    H229811   5.620   5.232   0.501
 9956TIP3   OH229812   0.080   2.033   3.285
 9956TIP3    H129813   0.070   1.939   3.297
 9956TIP3    H229814   0.060   2.071   3.371
 9957TIP3   OH229815   3.326   3.782   0.083
 9957TIP3    H129816   3.263   3.716   0.055
 9957TIP3    H229817   3.300   3.862   0.038
 9958TIP3   OH229818   6.351   2.401   5.747
 9958TIP3    H129819   6.439   2.421   5.778
 9958TIP3    H229820   6.302   2.482   5.759
 9959TIP3   OH229821   7.951   1.046   3.660
 9959TIP3    H129822   7.862   1.035   3.695
 9959TIP3    H229823   8.005   1.066   3.736
 9960TIP3   OH229824   5.455   6.009   4.728
 9960TIP3    H129825   5.439   6.056   4.646
 9960TIP3    H229826   5.526   5.948   4.708
 9961TIP3   OH229827   7.338   1.755   6.439
 9961TIP3    H129828   7.428   1.756   6.470
 9961TIP3    H229829   7.288   1.714   6.510
 9962TIP3   OH229830   7.480   0.807   1.696
 9962TIP3    H129831   7.514   0.893   1.720
 9962TIP3    H229832   7.403   0.795   1.752
 9963TIP3   OH229833   2.907   5.252   5.678
 9963TIP3    H129834   2.837   5.294   5.728
 9963TIP3    H229835   2.922   5.169   5.724
 9964TIP3   OH229836   4.355  -0.027   0.484
 9964TIP3    H129837   4.378   0.064   0.503
 9964TIP3    H229838   4.299  -0.053   0.557
 9965TIP3   OH229839   4.422   0.585   5.613
 9965TIP3    H129840   4.419   0.652   5.682
 9965TIP3    H229841   4.331   0.554   5.606
 9966TIP3   OH229842   4.114   5.857   2.156
 9966TIP3    H129843   4.138   5.938   2.202
 9966TIP3    H229844   4.117   5.881   2.063
 9967TIP3   OH229845   8.223   3.402   4.516
 9967TIP3    H129846   8.172   3.358   4.585
 9967TIP3    H229847   8.229   3.493   4.545
 9968TIP3   OH229848   5.899   7.675   1.058
 9968TIP3    H129849   5.807   7.687   1.080
 9968TIP3    H229850   5.931   7.612   1.122
 9969TIP3   OH229851   8.021   0.079   2.974
 9969TIP3    H129852   8.019   0.003   3.031
 9969TIP3    H229853   7.958   0.140   3.014
 9970TIP3   OH229854   2.235   0.388   5.359
 9970TIP3    H129855   2.294   0.419   5.291
 9970TIP3    H229856   2.192   0.312   5.321
 9971TIP3   OH229857   1.725   1.884   1.659
 9971TIP3    H129858   1.798   1.867   1.720
 9971TIP3    H229859   1.687   1.966   1.690
 9972TIP3   OH229860   1.461   1.903   1.938
 9972TIP3    H129861   1.539   1.918   1.991
 9972TIP3    H229862   1.449   1.808   1.940
 9973TIP3   OH229863   5.383   7.427   2.667
 9973TIP3    H129864   5.362   7.364   2.598
 9973TIP3    H229865   5.318   7.409   2.735
 9974TIP3   OH229866   7.719   2.299   4.842
 9974TIP3    H129867   7.742   2.228   4.903
 9974TIP3    H229868   7.670   2.361   4.895
 9975TIP3   OH229869   1.186   1.318   6.021
 9975TIP3    H129870   1.213   1.236   5.980
 9975TIP3    H229871   1.117   1.352   5.965
 9976TIP3   OH229872   6.780   3.572   4.507
 9976TIP3    H129873   6.846   3.503   4.507
 9976TIP3    H229874   6.830   3.653   4.496
 9977TIP3   OH229875   3.152   4.075   3.413
 9977TIP3    H129876   3.111   4.108   3.334
 9977TIP3    H229877   3.097   4.002   3.441
 9978TIP3   OH229878   6.418   0.447   5.950
 9978TIP3    H129879   6.500   0.479   5.989
 9978TIP3    H229880   6.349   0.498   5.992
 9979TIP3   OH229881   8.255   6.275   2.025
 9979TIP3    H129882   8.345   6.290   1.997
 9979TIP3    H229883   8.251   6.312   2.113
 9980TIP3   OH229884   2.115   7.284   3.202
 9980TIP3    H129885   2.051   7.301   3.271
 9980TIP3    H229886   2.096   7.194   3.174
 9981TIP3   OH229887   1.520   1.378   4.832
 9981TIP3    H129888   1.604   1.412   4.863
 9981TIP3    H229889   1.464   1.456   4.825
 9982TIP3   OH229890   4.560   1.124   2.278
 9982TIP3    H129891   4.626   1.060   2.251
 9982TIP3    H229892   4.599   1.208   2.257
 9983TIP3   OH229893   0.840   2.928   2.463
 9983TIP3    H129894   0.768   2.866   2.446
 9983TIP3    H229895   0.881   2.897   2.543
 9984TIP3   OH229896   1.936   7.420   3.376
 9984TIP3    H129897   1.938   7.489   3.310
 9984TIP3    H229898   1.862   7.442   3.432
 9985TIP3   OH229899   5.423   2.799   6.793
 9985TIP3    H129900   5.458   2.850   6.720
 9985TIP3    H229901   5.445   2.709   6.772
 9986TIP3   OH229902   4.799   3.865   5.435
 9986TIP3    H129903   4.720   3.821   5.467
 9986TIP3    H229904   4.832   3.914   5.510
 9987TIP3   OH229905   4.318   5.512   1.042
 9987TIP3    H129906   4.267   5.547   1.115
 9987TIP3    H229907   4.293   5.419   1.039
 9988TIP3   OH229908   0.996   0.598   5.427
 9988TIP3    H129909   1.080   0.584   5.470
 9988TIP3    H229910   0.975   0.514   5.388
 9989TIP3   OH229911   6.432   2.150   1.103
 9989TIP3    H129912   6.510   2.174   1.154
 9989TIP3    H229913   6.449   2.186   1.016
 9990TIP3   OH229914   7.422   3.068   0.102
 9990TIP3    H129915   7.432   3.095   0.193
 9990TIP3    H229916   7.351   3.003   0.104
 9991TIP3   OH229917   3.455   0.583   0.186
 9991TIP3    H129918   3.499   0.643   0.246
 9991TIP3    H229919   3.473   0.496   0.222
 9992TIP3   OH229920   5.605   6.447   4.647
 9992TIP3    H129921   5.635   6.531   4.613
 9992TIP3    H229922   5.545   6.469   4.718
 9993TIP3   OH229923   7.438   3.758   3.765
 9993TIP3    H129924   7.483   3.792   3.687
 9993TIP3    H229925   7.447   3.663   3.756
 9994TIP3   OH229926   3.291   2.890   2.071
 9994TIP3    H129927   3.295   2.977   2.112
 9994TIP3    H229928   3.279   2.908   1.978
 9995TIP3   OH229929   0.089   2.017   0.758
 9995TIP3    H129930   0.164   2.009   0.700
 9995TIP3    H229931   0.024   1.956   0.724
 9996TIP3   OH229932   3.281   3.067   5.455
 9996TIP3    H129933   3.329   3.147   5.474
 9996TIP3    H229934   3.345   3.010   5.412
 9997TIP3   OH229935   5.198   3.357   2.709
 9997TIP3    H129936   5.264   3.290   2.691
 9997TIP3    H229937   5.235   3.437   2.670
 9998TIP3   OH229938   5.862   0.574   2.159
 9998TIP3    H129939   5.910   0.496   2.186
 9998TIP3    H229940   5.860   0.631   2.236
 9999TIP3   OH229941   2.650   1.619   0.229
 9999TIP3    H129942   2.710   1.683   0.194
 9999TIP3    H229943   2.588   1.670   0.282
10000TIP3   OH229944   4.081   2.321   0.646
10000TIP3    H129945   4.142   2.251   0.670
10000TIP3    H229946   4.136   2.400   0.641
10001TIP3   OH229947   1.381   0.708   2.778
10001TIP3    H129948   1.405   0.717   2.870
10001TIP3    H229949   1.458   0.739   2.730
10002TIP3   OH229950   1.834   1.546   6.026
10002TIP3    H129951   1.849   1.469   5.972
10002TIP3    H229952   1.831   1.512   6.116
10003TIP3   OH229953   4.750   2.187   3.894
10003TIP3    H129954   4.752   2.251   3.823
10003TIP3    H229955   4.797   2.229   3.966
10004TIP3   OH229956   5.988   5.652   2.882
10004TIP3    H129957   6.018   5.562   2.896
10004TIP3    H229958   6.066   5.705   2.893
10005TIP3   OH229959   7.126   1.987   1.781
10005TIP3    H129960   7.082   1.912   1.822
10005TIP3    H229961   7.139   2.049   1.852
10006TIP3   OH229962   1.863   4.350   5.408
10006TIP3    H129963   1.809   4.428   5.423
10006TIP3    H229964   1.918   4.373   5.333
10007TIP3   OH229965   3.476   0.324   0.260
10007TIP3    H129966   3.527   0.295   0.337
10007TIP3    H229967   3.393   0.277   0.268
10008TIP3   OH229968   4.965   6.427   1.522
10008TIP3    H129969   5.009   6.499   1.477
10008TIP3    H229970   5.008   6.348   1.488
10009TIP3   OH229971   6.712   2.047   4.811
10009TIP3    H129972   6.676   1.961   4.834
10009TIP3    H229973   6.781   2.027   4.747
10010TIP3   OH229974   6.340   4.479   0.883
10010TIP3    H129975   6.328   4.567   0.847
10010TIP3    H229976   6.397   4.435   0.819
10011TIP3   OH229977   3.493   6.903   0.242
10011TIP3    H129978   3.587   6.885   0.243
10011TIP3    H229979   3.453   6.818   0.260
10012TIP3   OH229980   3.198   3.587   3.194
10012TIP3    H129981   3.286   3.566   3.162
10012TIP3    H229982   3.204   3.575   3.289
10013TIP3   OH229983   6.898   7.635   2.813
10013TIP3    H129984   6.985   7.672   2.829
10013TIP3    H229985   6.878   7.585   2.892
10014TIP3   OH229986   3.778   7.377   5.099
10014TIP3    H129987   3.782   7.467   5.068
10014TIP3    H229988   3.750   7.326   5.023
10015TIP3   OH229989   0.583   3.860   4.637
10015TIP3    H129990   0.650   3.826   4.696
10015TIP3    H229991   0.502   3.818   4.666
10016TIP3   OH229992   7.136   3.310   0.829
10016TIP3    H129993   7.043   3.287   0.826
10016TIP3    H229994   7.177   3.239   0.880
10017TIP3   OH229995   6.384   5.524   2.847
10017TIP3    H129996   6.331   5.472   2.786
10017TIP3    H229997   6.469   5.533   2.804
10018TIP3   OH229998   7.113   3.810   5.522
10018TIP3    H129999   7.046   3.872   5.551
10018TIP3    H230000   7.182   3.865   5.484
10019TIP3   OH230001   2.172   7.517   3.060
10019TIP3    H130002   2.241   7.490   3.000
10019TIP3    H230003   2.161   7.443   3.120
10020TIP3   OH230004   6.688   4.359   1.868
10020TIP3    H130005   6.627   4.290   1.844
10020TIP3    H230006   6.672   4.429   1.805
10021TIP3   OH230007   5.384   6.271   1.646
10021TIP3    H130008   5.404   6.178   1.653
10021TIP3    H230009   5.465   6.315   1.674
10022TIP3   OH230010   3.817   3.747   2.247
10022TIP3    H130011   3.860   3.774   2.166
10022TIP3    H230012   3.859   3.664   2.270
10023TIP3   OH230013   7.972   5.943   4.099
10023TIP3    H130014   8.058   5.951   4.141
10023TIP3    H230015   7.925   5.881   4.155
10024TIP3   OH230016   2.042   3.419   4.743
10024TIP3    H130017   1.969   3.435   4.683
10024TIP3    H230018   2.009   3.352   4.803
10025TIP3   OH230019   5.578   1.311   3.237
10025TIP3    H130020   5.620   1.367   3.171
10025TIP3    H230021   5.578   1.365   3.316
10026TIP3   OH230022   2.914   4.398   3.006
10026TIP3    H130023   2.975   4.471   2.997
10026TIP3    H230024   2.906   4.384   3.100
10027TIP3   OH230025   7.266   3.364   5.248
10027TIP3    H130026   7.317   3.411   5.183
10027TIP3    H230027   7.200   3.427   5.277
10028TIP3   OH230028   5.302   0.857   0.237
10028TIP3    H130029   5.350   0.855   0.320
10028TIP3    H230030   5.368   0.876   0.171
10029TIP3   OH230031   3.878   0.718   6.020
10029TIP3    H130032   3.892   0.630   5.983
10029TIP3    H230033   3.906   0.710   6.111
10030TIP3   OH230034   1.182   6.419   2.923
10030TIP3    H130035   1.123   6.479   2.876
10030TIP3    H230036   1.257   6.474   2.948
10031TIP3   OH230037   3.726   6.337   5.579
10031TIP3    H130038   3.645   6.317   5.624
10031TIP3    H230039   3.795   6.302   5.636
10032TIP3   OH230040   5.109   7.115   5.674
10032TIP3    H130041   5.100   7.021   5.689
10032TIP3    H230042   5.018   7.146   5.665
10033TIP3   OH230043   2.925   6.345   6.725
10033TIP3    H130044   2.857   6.310   6.783
10033TIP3    H230045   2.876   6.386   6.654
10034TIP3   OH230046   2.296   6.473   1.068
10034TIP3    H130047   2.370   6.534   1.068
10034TIP3    H230048   2.230   6.515   1.013
10035TIP3   OH230049   0.881   6.903   6.335
10035TIP3    H130050   0.874   6.807   6.337
10035TIP3    H230051   0.972   6.919   6.310
10036TIP3   OH230052   1.602   0.834   5.877
10036TIP3    H130053   1.600   0.816   5.971
10036TIP3    H230054   1.616   0.749   5.836
10037TIP3   OH230055   0.890   0.115   1.580
10037TIP3    H130056   0.845   0.072   1.507
10037TIP3    H230057   0.938   0.187   1.540
10038TIP3   OH230058   2.938   0.023   3.542
10038TIP3    H130059   2.978  -0.039   3.603
10038TIP3    H230060   2.856   0.049   3.586
10039TIP3   OH230061   8.134   7.025   4.076
10039TIP3    H130062   8.148   6.947   4.129
10039TIP3    H230063   8.066   7.001   4.013
10040TIP3   OH230064   6.786   6.515   0.407
10040TIP3    H130065   6.730   6.439   0.392
10040TIP3    H230066   6.729   6.591   0.395
10041TIP3   OH230067   2.460   5.127   2.321
10041TIP3    H130068   2.528   5.060   2.311
10041TIP3    H230069   2.419   5.107   2.405
10042TIP3   OH230070   6.951   1.188   4.494
10042TIP3    H130071   6.899   1.116   4.459
10042TIP3    H230072   7.037   1.149   4.511
10043TIP3   OH230073   6.993   5.175   4.806
10043TIP3    H130074   7.059   5.210   4.867
10043TIP3    H230075   6.985   5.083   4.831
10044TIP3   OH230076   4.657   7.311   1.806
10044TIP3    H130077   4.586   7.325   1.869
10044TIP3    H230078   4.732   7.357   1.845
10045TIP3   OH230079   0.613   5.762   4.342
10045TIP3    H130080   0.604   5.841   4.288
10045TIP3    H230081   0.704   5.735   4.328
10046TIP3   OH230082   7.412   7.570   0.069
10046TIP3    H130083   7.419   7.588  -0.025
10046TIP3    H230084   7.471   7.496   0.084
10047TIP3   OH230085   5.707   1.143   4.407
10047TIP3    H130086   5.720   1.055   4.442
10047TIP3    H230087   5.762   1.199   4.462
10048TIP3   OH230088   2.189   7.415   5.474
10048TIP3    H130089   2.167   7.506   5.456
10048TIP3    H230090   2.283   7.416   5.491
10049TIP3   OH230091   3.943   5.322   1.163
10049TIP3    H130092   3.863   5.357   1.122
10049TIP3    H230093   3.912   5.277   1.241
10050TIP3   OH230094   1.018   3.277   4.540
10050TIP3    H130095   1.076   3.339   4.497
10050TIP3    H230096   1.076   3.210   4.576
10051TIP3   OH230097   2.401   7.718   5.968
10051TIP3    H130098   2.450   7.674   6.038
10051TIP3    H230099   2.342   7.651   5.934
10052TIP3   OH230100   4.542   0.751   1.193
10052TIP3    H130101   4.550   0.672   1.138
10052TIP3    H230102   4.486   0.724   1.265
10053TIP3   OH230103   4.656   6.256   5.402
10053TIP3    H130104   4.566   6.237   5.375
10053TIP3    H230105   4.683   6.329   5.347
10054TIP3   OH230106   1.090   1.690   5.493
10054TIP3    H130107   1.118   1.730   5.411
10054TIP3    H230108   1.002   1.723   5.507
10055TIP3   OH230109   1.923   1.125   4.066
10055TIP3    H130110   1.928   1.186   4.140
10055TIP3    H230111   1.870   1.052   4.098
10056TIP3   OH230112   7.759   7.162   4.937
10056TIP3    H130113   7.756   7.078   4.984
10056TIP3    H230114   7.711   7.222   4.994
10057TIP3   OH230115   4.474   6.850   3.810
10057TIP3    H130116   4.522   6.788   3.755
10057TIP3    H230117   4.406   6.798   3.853
10058TIP3   OH230118   5.181   4.664   1.135
10058TIP3    H130119   5.241   4.641   1.206
10058TIP3    H230120   5.145   4.748   1.161
10059TIP3   OH230121   0.670   1.512   2.533
10059TIP3    H130122   0.713   1.436   2.571
10059TIP3    H230123   0.736   1.552   2.476
10060TIP3   OH230124   7.220   5.113   1.724
10060TIP3    H130125   7.235   5.031   1.770
10060TIP3    H230126   7.301   5.131   1.677
10061TIP3   OH230127   3.472   5.129   0.093
10061TIP3    H130128   3.465   5.091   0.180
10061TIP3    H230129   3.538   5.076   0.049
10062TIP3   OH230130   1.303   1.726   1.536
10062TIP3    H130131   1.370   1.748   1.472
10062TIP3    H230132   1.348   1.676   1.603
10063TIP3   OH230133   7.262   5.007   3.873
10063TIP3    H130134   7.236   5.099   3.887
10063TIP3    H230135   7.253   4.995   3.778
10064TIP3   OH230136   4.731   7.264   0.667
10064TIP3    H130137   4.778   7.220   0.596
10064TIP3    H230138   4.650   7.214   0.677
10065TIP3   OH230139   1.867   7.412   0.373
10065TIP3    H130140   1.773   7.414   0.353
10065TIP3    H230141   1.880   7.484   0.434
10066TIP3   OH230142   2.636   3.776   2.169
10066TIP3    H130143   2.721   3.801   2.133
10066TIP3    H230144   2.653   3.758   2.261
10067TIP3   OH230145   1.814   3.894   5.831
10067TIP3    H130146   1.858   3.979   5.843
10067TIP3    H230147   1.815   3.879   5.737
10068TIP3   OH230148   1.566   4.577   3.729
10068TIP3    H130149   1.595   4.499   3.682
10068TIP3    H230150   1.490   4.548   3.779
10069TIP3   OH230151   5.307   7.244   2.197
10069TIP3    H130152   5.398   7.258   2.170
10069TIP3    H230153   5.261   7.223   2.116
10070TIP3   OH230154   2.093   1.369   1.292
10070TIP3    H130155   2.123   1.310   1.223
10070TIP3    H230156   2.106   1.457   1.256
10071TIP3   OH230157   3.145   2.774   4.037
10071TIP3    H130158   3.207   2.707   4.007
10071TIP3    H230159   3.192   2.819   4.108
10072TIP3   OH230160   6.319   3.159   5.484
10072TIP3    H130161   6.274   3.240   5.507
10072TIP3    H230162   6.410   3.175   5.509
10073TIP3   OH230163   3.490   1.449   0.836
10073TIP3    H130164   3.459   1.359   0.841
10073TIP3    H230165   3.530   1.466   0.921
10074TIP3   OH230166   8.275   4.476   5.077
10074TIP3    H130167   8.199   4.483   5.020
10074TIP3    H230168   8.349   4.500   5.021
10075TIP3   OH230169   7.884   6.208   3.328
10075TIP3    H130170   7.897   6.172   3.416
10075TIP3    H230171   7.790   6.200   3.313
10076TIP3   OH230172   2.577   0.948   2.794
10076TIP3    H130173   2.486   0.927   2.819
10076TIP3    H230174   2.621   0.965   2.877
10077TIP3   OH230175   0.192   5.464   2.273
10077TIP3    H130176   0.138   5.516   2.333
10077TIP3    H230177   0.268   5.519   2.255
10078TIP3   OH230178   5.820   5.095   6.297
10078TIP3    H130179   5.819   5.183   6.259
10078TIP3    H230180   5.907   5.061   6.276
10079TIP3   OH230181   4.549   0.532   5.198
10079TIP3    H130182   4.577   0.578   5.277
10079TIP3    H230183   4.630   0.515   5.150
10080TIP3   OH230184   1.829   6.836   5.737
10080TIP3    H130185   1.838   6.747   5.705
10080TIP3    H230186   1.737   6.857   5.724
10081TIP3   OH230187   4.172   1.146   2.822
10081TIP3    H130188   4.086   1.165   2.859
10081TIP3    H230189   4.213   1.232   2.812
10082TIP3   OH230190   5.127   0.661   3.810
10082TIP3    H130191   5.183   0.706   3.747
10082TIP3    H230192   5.074   0.601   3.757
10083TIP3   OH230193   6.684   6.947   4.836
10083TIP3    H130194   6.736   7.015   4.879
10083TIP3    H230195   6.719   6.865   4.869
10084TIP3   OH230196   3.561   5.963   1.333
10084TIP3    H130197   3.609   5.884   1.360
10084TIP3    H230198   3.498   5.931   1.268
10085TIP3   OH230199   0.325   2.705   0.158
10085TIP3    H130200   0.351   2.647   0.087
10085TIP3    H230201   0.230   2.708   0.153
10086TIP3   OH230202   4.092   5.261   0.088
10086TIP3    H130203   3.997   5.267   0.092
10086TIP3    H230204   4.113   5.274  -0.005
10087TIP3   OH230205   5.724   1.894   5.148
10087TIP3    H130206   5.755   1.970   5.098
10087TIP3    H230207   5.641   1.871   5.107
10088TIP3   OH230208   7.845   2.110   4.519
10088TIP3    H130209   7.805   2.197   4.520
10088TIP3    H230210   7.773   2.050   4.536
10089TIP3   OH230211   5.542   6.291   3.984
10089TIP3    H130212   5.551   6.227   3.913
10089TIP3    H230213   5.534   6.375   3.940
10090TIP3   OH230214   1.372   0.328   4.997
10090TIP3    H130215   1.281   0.350   4.978
10090TIP3    H230216   1.419   0.411   4.995
10091TIP3   OH230217   1.983   1.266   3.843
10091TIP3    H130218   1.967   1.232   3.931
10091TIP3    H230219   1.898   1.298   3.814
10092TIP3   OH230220   3.641   4.473   0.926
10092TIP3    H130221   3.686   4.422   0.994
10092TIP3    H230222   3.557   4.497   0.966
10093TIP3   OH230223   4.275   1.463   6.330
10093TIP3    H130224   4.191   1.417   6.330
10093TIP3    H230225   4.336   1.402   6.290
10094TIP3   OH230226   7.469   4.533   3.053
10094TIP3    H130227   7.408   4.530   3.127
10094TIP3    H230228   7.553   4.509   3.092
10095TIP3   OH230229   2.524   4.255   1.391
10095TIP3    H130230   2.523   4.350   1.379
10095TIP3    H230231   2.616   4.234   1.406
10096TIP3   OH230232   8.186   5.381   4.639
10096TIP3    H130233   8.228   5.373   4.553
10096TIP3    H230234   8.150   5.295   4.656
10097TIP3   OH230235   1.004   0.079   3.367
10097TIP3    H130236   1.053   0.161   3.376
10097TIP3    H230237   0.999   0.065   3.272
10098TIP3   OH230238   0.597   1.239   4.100
10098TIP3    H130239   0.563   1.320   4.137
10098TIP3    H230240   0.642   1.197   4.173
10099TIP3   OH230241   6.470   0.890   1.170
10099TIP3    H130242   6.447   0.884   1.263
10099TIP3    H230243   6.538   0.957   1.166
10100TIP3   OH230244   2.950   5.944   5.827
10100TIP3    H130245   2.963   5.940   5.732
10100TIP3    H230246   3.034   5.919   5.864
10101TIP3   OH230247   4.417   4.672   1.536
10101TIP3    H130248   4.500   4.712   1.560
10101TIP3    H230249   4.426   4.650   1.443
10102TIP3   OH230250   3.144   5.400   4.807
10102TIP3    H130251   3.059   5.429   4.775
10102TIP3    H230252   3.192   5.481   4.825
10103TIP3   OH230253   7.089   4.772   3.630
10103TIP3    H130254   7.139   4.854   3.630
10103TIP3    H230255   7.116   4.728   3.711
10104TIP3   OH230256   5.176   5.951   3.927
10104TIP3    H130257   5.218   5.997   3.854
10104TIP3    H230258   5.241   5.956   3.998
10105TIP3   OH230259   1.810   3.592   6.549
10105TIP3    H130260   1.776   3.503   6.540
10105TIP3    H230261   1.762   3.643   6.483
10106TIP3   OH230262   0.553   7.119   2.758
10106TIP3    H130263   0.516   7.206   2.744
10106TIP3    H230264   0.477   7.063   2.773
10107TIP3   OH230265   7.403   1.460   6.331
10107TIP3    H130266   7.388   1.502   6.416
10107TIP3    H230267   7.363   1.373   6.340
10108TIP3   OH230268   3.986   6.599   4.691
10108TIP3    H130269   3.966   6.693   4.685
10108TIP3    H230270   3.938   6.559   4.618
10109TIP3   OH230271   3.807   5.770   4.580
10109TIP3    H130272   3.772   5.844   4.630
10109TIP3    H230273   3.880   5.738   4.633
10110TIP3   OH230274   7.654   5.528   6.370
10110TIP3    H130275   7.659   5.624   6.375
10110TIP3    H230276   7.600   5.512   6.292
10111TIP3   OH230277   6.184   7.820   1.113
10111TIP3    H130278   6.190   7.898   1.058
10111TIP3    H230279   6.201   7.747   1.054
10112TIP3   OH230280   5.888   4.495   4.957
10112TIP3    H130281   5.811   4.443   4.979
10112TIP3    H230282   5.884   4.569   5.018
10113TIP3   OH230283   7.767   1.873   5.517
10113TIP3    H130284   7.844   1.820   5.533
10113TIP3    H230285   7.695   1.823   5.555
10114TIP3   OH230286   6.838   2.046   1.390
10114TIP3    H130287   6.867   2.050   1.299
10114TIP3    H230288   6.918   2.041   1.441
10115TIP3   OH230289   5.318   5.350   4.568
10115TIP3    H130290   5.238   5.375   4.615
10115TIP3    H230291   5.367   5.432   4.560
10116TIP3   OH230292   2.291   6.111   3.973
10116TIP3    H130293   2.204   6.098   3.934
10116TIP3    H230294   2.283   6.075   4.061
10117TIP3   OH230295   1.698   1.551   1.306
10117TIP3    H130296   1.727   1.632   1.348
10117TIP3    H230297   1.653   1.580   1.227
10118TIP3   OH230298   5.617   0.064   3.641
10118TIP3    H130299   5.638   0.157   3.649
10118TIP3    H230300   5.534   0.062   3.594
10119TIP3   OH230301   6.724   7.147   6.566
10119TIP3    H130302   6.790   7.123   6.501
10119TIP3    H230303   6.648   7.092   6.544
10120TIP3   OH230304   2.209   1.585   6.137
10120TIP3    H130305   2.218   1.502   6.089
10120TIP3    H230306   2.155   1.562   6.213
10121TIP3   OH230307   3.263   3.779   6.180
10121TIP3    H130308   3.216   3.739   6.253
10121TIP3    H230309   3.355   3.758   6.196
10122TIP3   OH230310   2.477   0.624   6.732
10122TIP3    H130311   2.544   0.610   6.798
10122TIP3    H230312   2.395   0.604   6.777
10123TIP3   OH230313   1.610   1.489   5.420
10123TIP3    H130314   1.591   1.407   5.466
10123TIP3    H230315   1.565   1.556   5.471
10124TIP3   OH230316   8.080   5.174   4.217
10124TIP3    H130317   7.986   5.179   4.234
10124TIP3    H230318   8.090   5.099   4.159
10125TIP3   OH230319   0.612   2.383   2.348
10125TIP3    H130320   0.552   2.454   2.324
10125TIP3    H230321   0.653   2.357   2.266
10126TIP3   OH230322   1.146   7.031   2.593
10126TIP3    H130323   1.083   6.971   2.551
10126TIP3    H230324   1.191   7.073   2.520
10127TIP3   OH230325   2.144   4.318   0.206
10127TIP3    H130326   2.160   4.250   0.272
10127TIP3    H230327   2.232   4.342   0.175
10128TIP3   OH230328   5.322   7.191   4.630
10128TIP3    H130329   5.413   7.169   4.610
10128TIP3    H230330   5.323   7.217   4.722
10129TIP3   OH230331   6.156   6.076   1.739
10129TIP3    H130332   6.247   6.095   1.763
10129TIP3    H230333   6.109   6.074   1.822
10130TIP3   OH230334   3.379   4.075   6.762
10130TIP3    H130335   3.354   4.013   6.831
10130TIP3    H230336   3.442   4.026   6.708
10131TIP3   OH230337   2.276   0.449   2.745
10131TIP3    H130338   2.278   0.544   2.735
10131TIP3    H230339   2.231   0.418   2.667
10132TIP3   OH230340   4.299   4.403   1.280
10132TIP3    H130341   4.312   4.494   1.307
10132TIP3    H230342   4.372   4.386   1.220
10133TIP3   OH230343   1.910   4.978   3.835
10133TIP3    H130344   1.848   5.050   3.850
10133TIP3    H230345   1.859   4.913   3.788
10134TIP3   OH230346   1.634   0.808   2.672
10134TIP3    H130347   1.643   0.900   2.647
10134TIP3    H230348   1.724   0.776   2.682
10135TIP3   OH230349   3.584   1.854   1.338
10135TIP3    H130350   3.508   1.898   1.379
10135TIP3    H230351   3.551   1.823   1.254
10136TIP3   OH230352   7.740   1.609   6.206
10136TIP3    H130353   7.835   1.605   6.193
10136TIP3    H230354   7.714   1.518   6.221
10137TIP3   OH230355   5.582   7.773   0.787
10137TIP3    H130356   5.604   7.857   0.746
10137TIP3    H230357   5.502   7.791   0.837
10138TIP3   OH230358   2.977   2.429   2.016
10138TIP3    H130359   2.882   2.442   2.012
10138TIP3    H230360   2.991   2.383   2.099
10139TIP3   OH230361   1.357   7.189   4.031
10139TIP3    H130362   1.444   7.215   4.000
10139TIP3    H230363   1.296   7.244   3.982
10140TIP3   OH230364   4.041   3.075   0.235
10140TIP3    H130365   4.030   3.157   0.187
10140TIP3    H230366   4.043   3.102   0.327
10141TIP3   OH230367   5.552   0.495   1.696
10141TIP3    H130368   5.536   0.573   1.750
10141TIP3    H230369   5.481   0.496   1.632
10142TIP3   OH230370   5.434   1.599   2.043
10142TIP3    H130371   5.482   1.653   2.105
10142TIP3    H230372   5.492   1.592   1.967
10143TIP3   OH230373   1.154   5.512   6.431
10143TIP3    H130374   1.219   5.474   6.490
10143TIP3    H230375   1.075   5.518   6.484
10144TIP3   OH230376   3.405   4.248   0.843
10144TIP3    H130377   3.382   4.158   0.868
10144TIP3    H230378   3.494   4.261   0.878
10145TIP3   OH230379   6.428   0.691   5.471
10145TIP3    H130380   6.395   0.644   5.395
10145TIP3    H230381   6.428   0.626   5.542
10146TIP3   OH230382   4.246   5.337   4.466
10146TIP3    H130383   4.315   5.308   4.527
10146TIP3    H230384   4.170   5.351   4.522
10147TIP3   OH230385   0.952   5.238   4.958
10147TIP3    H130386   0.974   5.295   5.032
10147TIP3    H230387   0.990   5.153   4.981
10148TIP3   OH230388   2.544   6.089   0.402
10148TIP3    H130389   2.581   6.102   0.490
10148TIP3    H230390   2.620   6.091   0.344
10149TIP3   OH230391   5.412   0.843   1.238
10149TIP3    H130392   5.475   0.827   1.168
10149TIP3    H230393   5.422   0.935   1.259
10150TIP3   OH230394   1.246   4.123   2.330
10150TIP3    H130395   1.204   4.209   2.337
10150TIP3    H230396   1.233   4.097   2.239
10151TIP3   OH230397   1.122   3.895   5.534
10151TIP3    H130398   1.203   3.852   5.507
10151TIP3    H230399   1.136   3.917   5.626
10152TIP3   OH230400   5.126   5.472   2.631
10152TIP3    H130401   5.059   5.478   2.563
10152TIP3    H230402   5.100   5.395   2.683
10153TIP3   OH230403   8.060   4.434   6.669
10153TIP3    H130404   8.071   4.345   6.701
10153TIP3    H230405   8.142   4.454   6.625
10154TIP3   OH230406   3.454   1.604   5.737
10154TIP3    H130407   3.379   1.627   5.793
10154TIP3    H230408   3.416   1.591   5.650
10155TIP3   OH230409   4.860   3.208   5.240
10155TIP3    H130410   4.786   3.225   5.299
10155TIP3    H230411   4.841   3.261   5.162
10156TIP3   OH230412   2.968   4.955   2.215
10156TIP3    H130413   2.907   4.891   2.180
10156TIP3    H230414   3.050   4.907   2.224
10157TIP3   OH230415   2.768   7.511   1.104
10157TIP3    H130416   2.725   7.427   1.121
10157TIP3    H230417   2.705   7.558   1.049
10158TIP3   OH230418   6.699   0.181   0.264
10158TIP3    H130419   6.661   0.105   0.220
10158TIP3    H230420   6.793   0.167   0.258
10159TIP3   OH230421   6.946   1.312   0.799
10159TIP3    H130422   6.976   1.244   0.740
10159TIP3    H230423   7.017   1.377   0.799
10160TIP3   OH230424   7.009   5.898   1.560
10160TIP3    H130425   7.068   5.949   1.504
10160TIP3    H230426   6.926   5.896   1.512
10161TIP3   OH230427   1.927   3.290   5.959
10161TIP3    H130428   1.943   3.351   5.888
10161TIP3    H230429   1.834   3.298   5.978
10162TIP3   OH230430   4.568   0.977   0.764
10162TIP3    H130431   4.555   1.021   0.680
10162TIP3    H230432   4.533   0.889   0.751
10163TIP3   OH230433   5.660   0.098   4.040
10163TIP3    H130434   5.750   0.073   4.060
10163TIP3    H230435   5.668   0.174   3.983
10164TIP3   OH230436   0.621   3.659   1.722
10164TIP3    H130437   0.641   3.572   1.688
10164TIP3    H230438   0.581   3.706   1.649
10165TIP3   OH230439   2.962   2.964   4.272
10165TIP3    H130440   2.879   2.970   4.224
10165TIP3    H230441   2.987   2.871   4.264
10166TIP3   OH230442   7.687   7.647   5.605
10166TIP3    H130443   7.607   7.632   5.554
10166TIP3    H230444   7.660   7.631   5.696
10167TIP3   OH230445   4.601   4.262   1.360
10167TIP3    H130446   4.682   4.285   1.314
10167TIP3    H230447   4.604   4.312   1.442
10168TIP3   OH230448   4.825   0.757   3.917
10168TIP3    H130449   4.777   0.824   3.868
10168TIP3    H230450   4.916   0.786   3.917
10169TIP3   OH230451   1.971   0.153   6.597
10169TIP3    H130452   1.879   0.132   6.609
10169TIP3    H230453   1.979   0.171   6.503
10170TIP3   OH230454   6.641   7.761   6.718
10170TIP3    H130455   6.601   7.847   6.704
10170TIP3    H230456   6.568   7.699   6.713
10171TIP3   OH230457   1.323   4.389   1.081
10171TIP3    H130458   1.269   4.436   1.018
10171TIP3    H230459   1.262   4.328   1.124
10172TIP3   OH230460   3.958   5.028   2.733
10172TIP3    H130461   3.888   5.029   2.667
10172TIP3    H230462   3.975   5.121   2.751
10173TIP3   OH230463   0.033   2.301   1.671
10173TIP3    H130464  -0.008   2.218   1.649
10173TIP3    H230465  -0.033   2.367   1.650
10174TIP3   OH230466   5.747   0.308   5.463
10174TIP3    H130467   5.826   0.323   5.410
10174TIP3    H230468   5.763   0.223   5.505
10175TIP3   OH230469   5.823   5.250   3.572
10175TIP3    H130470   5.831   5.234   3.478
10175TIP3    H230471   5.798   5.343   3.578
10176TIP3   OH230472   1.690   3.386   1.714
10176TIP3    H130473   1.679   3.293   1.731
10176TIP3    H230474   1.746   3.390   1.637
10177TIP3   OH230475   7.566   1.416   2.932
10177TIP3    H130476   7.510   1.486   2.899
10177TIP3    H230477   7.618   1.458   3.001
10178TIP3   OH230478   1.836   7.232   0.813
10178TIP3    H130479   1.800   7.206   0.897
10178TIP3    H230480   1.784   7.185   0.748
10179TIP3   OH230481   5.466   4.169   3.433
10179TIP3    H130482   5.516   4.145   3.510
10179TIP3    H230483   5.408   4.095   3.417
10180TIP3   OH230484   3.705   2.858   4.184
10180TIP3    H130485   3.672   2.868   4.095
10180TIP3    H230486   3.677   2.770   4.210
10181TIP3   OH230487   5.892   1.954   0.810
10181TIP3    H130488   5.820   1.940   0.748
10181TIP3    H230489   5.898   1.871   0.858
10182TIP3   OH230490   4.507   6.867   2.949
10182TIP3    H130491   4.562   6.934   2.908
10182TIP3    H230492   4.546   6.784   2.922
10183TIP3   OH230493   1.120   3.186   2.306
10183TIP3    H130494   1.202   3.148   2.338
10183TIP3    H230495   1.066   3.111   2.282
10184TIP3   OH230496   4.005   6.403   2.739
10184TIP3    H130497   3.935   6.345   2.769
10184TIP3    H230498   3.988   6.486   2.784
10185TIP3   OH230499   7.860   1.353   1.923
10185TIP3    H130500   7.864   1.436   1.876
10185TIP3    H230501   7.945   1.313   1.908
10186TIP3   OH230502   4.553   2.458   0.883
10186TIP3    H130503   4.466   2.419   0.883
10186TIP3    H230504   4.613   2.384   0.876
10187TIP3   OH230505   0.721   0.196   4.893
10187TIP3    H130506   0.633   0.159   4.889
10187TIP3    H230507   0.772   0.142   4.832
10188TIP3   OH230508   7.594   5.517   1.614
10188TIP3    H130509   7.646   5.440   1.637
10188TIP3    H230510   7.532   5.485   1.548
10189TIP3   OH230511   7.615   4.612   1.381
10189TIP3    H130512   7.593   4.672   1.452
10189TIP3    H230513   7.618   4.526   1.422
10190TIP3   OH230514   0.473   3.970   6.034
10190TIP3    H130515   0.469   3.876   6.016
10190TIP3    H230516   0.489   3.976   6.128
10191TIP3   OH230517   2.089   2.774   2.784
10191TIP3    H130518   2.127   2.686   2.783
10191TIP3    H230519   2.036   2.778   2.705
10192TIP3   OH230520   4.025   1.231   4.664
10192TIP3    H130521   4.035   1.261   4.755
10192TIP3    H230522   3.945   1.178   4.665
10193TIP3   OH230523   0.714   7.176   0.720
10193TIP3    H130524   0.701   7.269   0.704
10193TIP3    H230525   0.630   7.145   0.754
10194TIP3   OH230526   3.538   6.250   1.757
10194TIP3    H130527   3.617   6.278   1.711
10194TIP3    H230528   3.468   6.302   1.718
10195TIP3   OH230529   5.498   1.545   4.518
10195TIP3    H130530   5.408   1.522   4.541
10195TIP3    H230531   5.548   1.530   4.598
10196TIP3   OH230532   1.553   5.354   1.661
10196TIP3    H130533   1.532   5.345   1.754
10196TIP3    H230534   1.622   5.420   1.658
10197TIP3   OH230535   5.996   5.606   5.464
10197TIP3    H130536   5.988   5.511   5.457
10197TIP3    H230537   6.011   5.623   5.557
10198TIP3   OH230538   2.956   2.257   5.800
10198TIP3    H130539   3.044   2.293   5.794
10198TIP3    H230540   2.968   2.166   5.827
10199TIP3   OH230541   0.973   3.875   2.487
10199TIP3    H130542   1.060   3.883   2.527
10199TIP3    H230543   0.931   3.959   2.504
10200TIP3   OH230544   6.022   0.406   0.807
10200TIP3    H130545   5.937   0.442   0.834
10200TIP3    H230546   6.018   0.313   0.832
10201TIP3   OH230547   0.575   2.656   2.751
10201TIP3    H130548   0.645   2.721   2.740
10201TIP3    H230549   0.619   2.581   2.792
10202TIP3   OH230550   3.700   6.335   2.949
10202TIP3    H130551   3.678   6.363   3.038
10202TIP3    H230552   3.644   6.259   2.934
10203TIP3   OH230553   8.017   3.298   5.934
10203TIP3    H130554   8.108   3.317   5.909
10203TIP3    H230555   7.965   3.347   5.870
10204TIP3   OH230556   2.218   0.345   5.999
10204TIP3    H130557   2.172   0.427   5.981
10204TIP3    H230558   2.217   0.337   6.094
10205TIP3   OH230559   4.098   1.051   2.126
10205TIP3    H130560   4.036   1.031   2.196
10205TIP3    H230561   4.108   0.969   2.078
10206TIP3   OH230562   5.383   6.252   4.202
10206TIP3    H130563   5.433   6.276   4.280
10206TIP3    H230564   5.437   6.282   4.129
10207TIP3   OH230565   3.083   2.640   5.382
10207TIP3    H130566   3.169   2.599   5.376
10207TIP3    H230567   3.089   2.716   5.324
10208TIP3   OH230568   1.741   6.432   3.386
10208TIP3    H130569   1.749   6.527   3.377
10208TIP3    H230570   1.657   6.419   3.430
10209TIP3   OH230571   0.782   5.557   5.057
10209TIP3    H130572   0.775   5.542   4.962
10209TIP3    H230573   0.784   5.652   5.066
10210TIP3   OH230574   5.888   2.749   0.569
10210TIP3    H130575   5.852   2.705   0.646
10210TIP3    H230576   5.982   2.733   0.574
10211TIP3   OH230577   2.595   7.179   3.910
10211TIP3    H130578   2.662   7.113   3.924
10211TIP3    H230579   2.563   7.162   3.821
10212TIP3   OH230580   1.288   5.885   4.426
10212TIP3    H130581   1.363   5.864   4.371
10212TIP3    H230582   1.241   5.802   4.436
10213TIP3   OH230583   2.574   4.061   3.864
10213TIP3    H130584   2.545   4.104   3.945
10213TIP3    H230585   2.667   4.082   3.858
10214TIP3   OH230586   5.303   2.191   4.791
10214TIP3    H130587   5.380   2.216   4.843
10214TIP3    H230588   5.339   2.142   4.717
10215TIP3   OH230589   6.404   2.993   0.984
10215TIP3    H130590   6.422   2.989   0.890
10215TIP3    H230591   6.381   3.084   1.001
10216TIP3   OH230592   6.971   1.666   5.221
10216TIP3    H130593   6.902   1.629   5.275
10216TIP3    H230594   6.929   1.679   5.135
10217TIP3   OH230595   7.235   1.309   5.653
10217TIP3    H130596   7.214   1.286   5.744
10217TIP3    H230597   7.202   1.235   5.602
10218TIP3   OH230598   2.277   1.740   0.923
10218TIP3    H130599   2.359   1.749   0.972
10218TIP3    H230600   2.211   1.779   0.980
10219TIP3   OH230601   0.334   4.466   4.757
10219TIP3    H130602   0.380   4.411   4.820
10219TIP3    H230603   0.289   4.532   4.811
10220TIP3   OH230604   4.682   6.772   0.855
10220TIP3    H130605   4.627   6.837   0.812
10220TIP3    H230606   4.729   6.730   0.783
10221TIP3   OH230607   8.263   4.526   4.783
10221TIP3    H130608   8.262   4.491   4.693
10221TIP3    H230609   8.173   4.514   4.814
10222TIP3   OH230610   5.375   7.081   1.616
10222TIP3    H130611   5.405   7.125   1.537
10222TIP3    H230612   5.330   7.003   1.585
10223TIP3   OH230613   4.432   2.033   3.974
10223TIP3    H130614   4.345   2.071   3.988
10223TIP3    H230615   4.487   2.075   4.040
10224TIP3   OH230616   7.690   4.643   6.756
10224TIP3    H130617   7.663   4.568   6.810
10224TIP3    H230618   7.643   4.717   6.793
10225TIP3   OH230619   2.418   0.221   4.597
10225TIP3    H130620   2.389   0.259   4.680
10225TIP3    H230621   2.503   0.182   4.617
10226TIP3   OH230622   7.978   7.582   0.177
10226TIP3    H130623   7.901   7.544   0.135
10226TIP3    H230624   7.993   7.528   0.254
10227TIP3   OH230625   0.636   7.555   1.538
10227TIP3    H130626   0.722   7.572   1.501
10227TIP3    H230627   0.600   7.486   1.483
10228TIP3   OH230628   8.177   2.682   3.514
10228TIP3    H130629   8.178   2.669   3.609
10228TIP3    H230630   8.226   2.607   3.479
10229TIP3   OH230631   2.016   7.280   4.748
10229TIP3    H130632   1.975   7.198   4.778
10229TIP3    H230633   1.974   7.299   4.664
10230TIP3   OH230634   2.822   0.955   3.302
10230TIP3    H130635   2.876   0.877   3.315
10230TIP3    H230636   2.881   1.028   3.321
10231TIP3   OH230637   4.280   3.074   3.884
10231TIP3    H130638   4.268   2.982   3.862
10231TIP3    H230639   4.251   3.081   3.975
10232TIP3   OH230640   4.200   2.051   0.040
10232TIP3    H130641   4.246   2.076  -0.040
10232TIP3    H230642   4.113   2.090   0.031
10233TIP3   OH230643   2.471   7.015   1.471
10233TIP3    H130644   2.418   7.092   1.450
10233TIP3    H230645   2.415   6.941   1.448
10234TIP3   OH230646   4.022   1.060   0.933
10234TIP3    H130647   4.045   1.113   0.857
10234TIP3    H230648   4.054   0.973   0.911
10235TIP3   OH230649   3.573   6.255   6.596
10235TIP3    H130650   3.551   6.290   6.510
10235TIP3    H230651   3.496   6.274   6.650
10236TIP3   OH230652   0.674   0.112   2.180
10236TIP3    H130653   0.754   0.066   2.154
10236TIP3    H230654   0.694   0.205   2.163
10237TIP3   OH230655   6.897   1.636   1.592
10237TIP3    H130656   6.925   1.683   1.514
10237TIP3    H230657   6.958   1.563   1.599
10238TIP3   OH230658   4.900   7.181   3.356
10238TIP3    H130659   4.879   7.272   3.337
10238TIP3    H230660   4.928   7.181   3.447
10239TIP3   OH230661   6.415   2.635   2.514
10239TIP3    H130662   6.375   2.686   2.585
10239TIP3    H230663   6.475   2.695   2.472
10240TIP3   OH230664   5.996   5.978   5.180
10240TIP3    H130665   6.089   5.986   5.157
10240TIP3    H230666   5.950   5.990   5.097
10241TIP3   OH230667   1.147   4.349   4.968
10241TIP3    H130668   1.162   4.336   5.062
10241TIP3    H230669   1.182   4.270   4.927
10242TIP3   OH230670   5.105   1.732   0.174
10242TIP3    H130671   5.010   1.720   0.170
10242TIP3    H230672   5.132   1.686   0.254
10243TIP3   OH230673   0.513   2.408   3.175
10243TIP3    H130674   0.459   2.332   3.150
10243TIP3    H230675   0.603   2.379   3.159
10244TIP3   OH230676   6.376   6.806   1.356
10244TIP3    H130677   6.344   6.765   1.437
10244TIP3    H230678   6.425   6.883   1.386
10245TIP3   OH230679   4.559   7.607   5.151
10245TIP3    H130680   4.473   7.628   5.117
10245TIP3    H230681   4.603   7.559   5.081
10246TIP3   OH230682   6.751   1.770   2.381
10246TIP3    H130683   6.760   1.691   2.436
10246TIP3    H230684   6.671   1.755   2.331
10247TIP3   OH230685   3.404   1.313   2.942
10247TIP3    H130686   3.329   1.366   2.918
10247TIP3    H230687   3.370   1.249   3.005
10248TIP3   OH230688   0.878   4.798   3.229
10248TIP3    H130689   0.829   4.755   3.299
10248TIP3    H230690   0.824   4.873   3.204
10249TIP3   OH230691   3.830   1.081   6.458
10249TIP3    H130692   3.746   1.108   6.496
10249TIP3    H230693   3.813   1.073   6.364
10250TIP3   OH230694   1.426   2.697   4.746
10250TIP3    H130695   1.408   2.678   4.654
10250TIP3    H230696   1.446   2.612   4.784
10251TIP3   OH230697   2.608   3.158   4.395
10251TIP3    H130698   2.595   3.071   4.433
10251TIP3    H230699   2.664   3.203   4.458
10252TIP3   OH230700   4.075   7.084   4.808
10252TIP3    H130701   4.170   7.075   4.820
10252TIP3    H230702   4.063   7.174   4.776
10253TIP3   OH230703   3.996   3.402   2.824
10253TIP3    H130704   3.936   3.333   2.799
10253TIP3    H230705   3.952   3.447   2.896
10254TIP3   OH230706   4.069   1.017   1.777
10254TIP3    H130707   4.088   1.010   1.871
10254TIP3    H230708   4.020   0.937   1.757
10255TIP3   OH230709   3.663   2.579   4.282
10255TIP3    H130710   3.720   2.502   4.280
10255TIP3    H230711   3.592   2.558   4.221
10256TIP3   OH230712   0.192   3.836   6.691
10256TIP3    H130713   0.199   3.794   6.776
10256TIP3    H230714   0.181   3.929   6.711
10257TIP3   OH230715   4.486   4.624   5.775
10257TIP3    H130716   4.418   4.577   5.728
10257TIP3    H230717   4.560   4.564   5.777
10258TIP3   OH230718   7.939   5.837   5.425
10258TIP3    H130719   7.943   5.770   5.492
10258TIP3    H230720   7.846   5.845   5.404
10259TIP3   OH230721   0.544   3.483   2.757
10259TIP3    H130722   0.587   3.462   2.674
10259TIP3    H230723   0.556   3.578   2.767
10260TIP3   OH230724   5.391   5.582   2.199
10260TIP3    H130725   5.445   5.508   2.228
10260TIP3    H230726   5.430   5.610   2.117
10261TIP3   OH230727   3.868   5.551   6.807
10261TIP3    H130728   3.799   5.576   6.746
10261TIP3    H230729   3.926   5.628   6.810
10262TIP3   OH230730   6.397   5.084   5.130
10262TIP3    H130731   6.313   5.081   5.178
10262TIP3    H230732   6.444   5.006   5.160
10263TIP3   OH230733   0.166   3.992   3.915
10263TIP3    H130734   0.238   3.959   3.969
10263TIP3    H230735   0.207   4.012   3.831
10264TIP3   OH230736   3.802   6.917   1.445
10264TIP3    H130737   3.711   6.890   1.456
10264TIP3    H230738   3.802   7.010   1.467
10265TIP3   OH230739   6.414   4.139   3.049
10265TIP3    H130740   6.486   4.150   2.988
10265TIP3    H230741   6.417   4.047   3.073
10266TIP3   OH230742   5.600   5.432   1.057
10266TIP3    H130743   5.556   5.465   0.978
10266TIP3    H230744   5.592   5.337   1.051
10267TIP3   OH230745   4.534   4.739   3.582
10267TIP3    H130746   4.596   4.762   3.513
10267TIP3    H230747   4.586   4.744   3.663
10268TIP3   OH230748   6.394   3.045   5.231
10268TIP3    H130749   6.388   3.070   5.323
10268TIP3    H230750   6.463   3.101   5.196
10269TIP3   OH230751   5.138   6.620   1.855
10269TIP3    H130752   5.078   6.546   1.845
10269TIP3    H230753   5.205   6.605   1.787
10270TIP3   OH230754   6.181   2.498   6.129
10270TIP3    H130755   6.275   2.482   6.122
10270TIP3    H230756   6.141   2.430   6.075
10271TIP3   OH230757   7.104   5.219   0.757
10271TIP3    H130758   7.113   5.264   0.673
10271TIP3    H230759   7.193   5.192   0.780
10272TIP3   OH230760   0.101   3.458   4.943
10272TIP3    H130761   0.196   3.465   4.934
10272TIP3    H230762   0.085   3.364   4.955
10273TIP3   OH230763   5.978   2.984   2.321
10273TIP3    H130764   6.069   2.963   2.299
10273TIP3    H230765   5.926   2.943   2.252
10274TIP3   OH230766   6.584   2.458   0.667
10274TIP3    H130767   6.677   2.441   0.681
10274TIP3    H230768   6.563   2.416   0.584
10275TIP3   OH230769   6.211   0.071   2.772
10275TIP3    H130770   6.154   0.040   2.843
10275TIP3    H230771   6.237   0.159   2.800
10276TIP3   OH230772   3.884   6.098   4.395
10276TIP3    H130773   3.807   6.148   4.420
10276TIP3    H230774   3.958   6.156   4.414
10277TIP3   OH230775   6.385   6.380   1.715
10277TIP3    H130776   6.313   6.386   1.653
10277TIP3    H230777   6.398   6.287   1.728
10278TIP3   OH230778   6.039   1.093   3.999
10278TIP3    H130779   6.086   1.017   4.032
10278TIP3    H230780   5.947   1.072   4.014
10279TIP3   OH230781   7.657   6.894   4.683
10279TIP3    H130782   7.671   6.893   4.777
10279TIP3    H230783   7.594   6.823   4.668
10280TIP3   OH230784   4.896   1.376   1.524
10280TIP3    H130785   4.938   1.430   1.457
10280TIP3    H230786   4.819   1.426   1.550
10281TIP3   OH230787   6.119   7.236   0.973
10281TIP3    H130788   6.169   7.171   0.924
10281TIP3    H230789   6.086   7.188   1.050
10282TIP3   OH230790   6.785   7.006   0.179
10282TIP3    H130791   6.855   6.979   0.120
10282TIP3    H230792   6.798   6.952   0.258
10283TIP3   OH230793   0.210   6.422   3.658
10283TIP3    H130794   0.224   6.393   3.568
10283TIP3    H230795   0.289   6.394   3.705
10284TIP3   OH230796   5.122   4.131   1.496
10284TIP3    H130797   5.041   4.180   1.484
10284TIP3    H230798   5.106   4.076   1.572
10285TIP3   OH230799   6.425   7.464   1.774
10285TIP3    H130800   6.396   7.526   1.708
10285TIP3    H230801   6.517   7.487   1.790
10286TIP3   OH230802   0.980   2.414   1.800
10286TIP3    H130803   0.937   2.469   1.866
10286TIP3    H230804   1.051   2.371   1.848
10287TIP3   OH230805   7.068   5.897   0.576
10287TIP3    H130806   7.105   5.813   0.599
10287TIP3    H230807   6.985   5.901   0.625
10288TIP3   OH230808   0.546   7.429   2.826
10288TIP3    H130809   0.629   7.437   2.778
10288TIP3    H230810   0.505   7.515   2.816
10289TIP3   OH230811   5.027   2.892   6.712
10289TIP3    H130812   5.023   2.805   6.673
10289TIP3    H230813   5.050   2.876   6.803
10290TIP3   OH230814   4.109   4.502   1.015
10290TIP3    H130815   4.040   4.563   1.039
10290TIP3    H230816   4.064   4.434   0.964
10291TIP3   OH230817   3.932   6.574   3.701
10291TIP3    H130818   3.955   6.587   3.793
10291TIP3    H230819   4.008   6.609   3.653
10292TIP3   OH230820   4.216   4.260   5.116
10292TIP3    H130821   4.180   4.340   5.077
10292TIP3    H230822   4.173   4.189   5.068
10293TIP3   OH230823   2.581   4.095   4.324
10293TIP3    H130824   2.655   4.035   4.336
10293TIP3    H230825   2.619   4.174   4.286
10294TIP3   OH230826   0.923   4.009   6.752
10294TIP3    H130827   1.000   4.037   6.704
10294TIP3    H230828   0.934   3.915   6.763
10295TIP3   OH230829   2.932   2.602   4.997
10295TIP3    H130830   2.898   2.644   5.076
10295TIP3    H230831   3.011   2.556   5.027
10296TIP3   OH230832   1.653   7.690   2.224
10296TIP3    H130833   1.577   7.639   2.253
10296TIP3    H230834   1.691   7.725   2.304
10297TIP3   OH230835   0.960   7.746   1.925
10297TIP3    H130836   0.896   7.811   1.894
10297TIP3    H230837   1.001   7.787   2.001
10298TIP3   OH230838   6.615   4.071   2.232
10298TIP3    H130839   6.650   4.024   2.156
10298TIP3    H230840   6.591   4.157   2.198
10299TIP3   OH230841   8.004   5.008   6.562
10299TIP3    H130842   8.015   5.088   6.612
10299TIP3    H230843   7.944   4.954   6.615
10300TIP3   OH230844   2.888   6.596   1.143
10300TIP3    H130845   2.917   6.540   1.072
10300TIP3    H230846   2.801   6.626   1.117
10301TIP3   OH230847   2.696   6.253   5.802
10301TIP3    H130848   2.659   6.319   5.860
10301TIP3    H230849   2.743   6.303   5.735
10302TIP3   OH230850   2.558   3.754   6.007
10302TIP3    H130851   2.490   3.794   6.061
10302TIP3    H230852   2.630   3.816   6.008
10303TIP3   OH230853   6.886   1.366   2.517
10303TIP3    H130854   6.837   1.299   2.565
10303TIP3    H230855   6.930   1.318   2.446
10304TIP3   OH230856   2.125   4.238   1.693
10304TIP3    H130857   2.134   4.144   1.677
10304TIP3    H230858   2.209   4.274   1.665
10305TIP3   OH230859   4.862   6.756   3.271
10305TIP3    H130860   4.819   6.807   3.340
10305TIP3    H230861   4.794   6.695   3.240
10306TIP3   OH230862   1.037   1.639   0.535
10306TIP3    H130863   0.991   1.578   0.477
10306TIP3    H230864   1.102   1.681   0.479
10307TIP3   OH230865   6.777   1.186   4.970
10307TIP3    H130866   6.803   1.163   4.880
10307TIP3    H230867   6.682   1.196   4.966
10308TIP3   OH230868   0.343   4.940   4.922
10308TIP3    H130869   0.344   4.964   4.829
10308TIP3    H230870   0.424   4.890   4.933
10309TIP3   OH230871   4.841   2.338   1.889
10309TIP3    H130872   4.806   2.397   1.957
10309TIP3    H230873   4.834   2.388   1.808
10310TIP3   OH230874   5.639   3.611   0.242
10310TIP3    H130875   5.649   3.659   0.324
10310TIP3    H230876   5.728   3.597   0.211
10311TIP3   OH230877   3.582  -0.002   5.177
10311TIP3    H130878   3.506   0.048   5.205
10311TIP3    H230879   3.644   0.005   5.249
10312TIP3   OH230880   1.479   7.521   5.492
10312TIP3    H130881   1.507   7.596   5.544
10312TIP3    H230882   1.556   7.464   5.488
10313TIP3   OH230883   0.640   1.374   3.236
10313TIP3    H130884   0.565   1.432   3.229
10313TIP3    H230885   0.603   1.286   3.247
10314TIP3   OH230886   0.065   4.435   2.079
10314TIP3    H130887   0.120   4.403   2.151
10314TIP3    H230888   0.124   4.439   2.004
10315TIP3   OH230889   3.096   0.326   5.864
10315TIP3    H130890   3.031   0.256   5.853
10315TIP3    H230891   3.173   0.282   5.900
10316TIP3   OH230892   1.907   0.808   2.714
10316TIP3    H130893   1.954   0.818   2.632
10316TIP3    H230894   1.891   0.897   2.744
10317TIP3   OH230895   7.132   1.406   6.156
10317TIP3    H130896   7.202   1.418   6.092
10317TIP3    H230897   7.161   1.335   6.211
10318TIP3   OH230898   0.746   2.198   0.700
10318TIP3    H130899   0.804   2.250   0.756
10318TIP3    H230900   0.705   2.262   0.642
10319TIP3   OH230901   5.710   4.060   0.366
10319TIP3    H130902   5.725   4.133   0.307
10319TIP3    H230903   5.746   3.984   0.320
10320TIP3   OH230904   3.264   1.575   5.506
10320TIP3    H130905   3.240   1.620   5.425
10320TIP3    H230906   3.228   1.487   5.496
10321TIP3   OH230907   0.685   0.065   0.778
10321TIP3    H130908   0.678   0.160   0.790
10321TIP3    H230909   0.605   0.041   0.731
10322TIP3   OH230910   6.286   4.176   1.808
10322TIP3    H130911   6.248   4.142   1.890
10322TIP3    H230912   6.380   4.159   1.816
10323TIP3   OH230913   3.842   2.566   2.871
10323TIP3    H130914   3.749   2.563   2.847
10323TIP3    H230915   3.847   2.517   2.953
10324TIP3   OH230916   6.629   7.229   3.588
10324TIP3    H130917   6.607   7.155   3.531
10324TIP3    H230918   6.692   7.280   3.538
10325TIP3   OH230919   4.484   4.547   4.828
10325TIP3    H130920   4.563   4.572   4.877
10325TIP3    H230921   4.485   4.605   4.751
10326TIP3   OH230922   1.845   2.832   2.281
10326TIP3    H130923   1.892   2.914   2.295
10326TIP3    H230924   1.883   2.795   2.201
10327TIP3   OH230925   0.987   0.287   0.540
10327TIP3    H130926   0.914   0.348   0.550
10327TIP3    H230927   1.049   0.332   0.483
10328TIP3   OH230928   7.219   1.432   2.890
10328TIP3    H130929   7.281   1.505   2.880
10328TIP3    H230930   7.216   1.417   2.984
10329TIP3   OH230931   0.366   1.035   2.926
10329TIP3    H130932   0.366   1.068   2.836
10329TIP3    H230933   0.458   1.016   2.944
10330TIP3   OH230934   3.201   7.242   0.748
10330TIP3    H130935   3.278   7.246   0.804
10330TIP3    H230936   3.151   7.321   0.770
10331TIP3   OH230937   6.996   0.449   4.584
10331TIP3    H130938   6.992   0.361   4.546
10331TIP3    H230939   7.084   0.481   4.561
10332TIP3   OH230940   5.877   2.923   4.764
10332TIP3    H130941   5.941   2.864   4.805
10332TIP3    H230942   5.833   2.868   4.699
10333TIP3   OH230943   4.931   3.976   4.134
10333TIP3    H130944   4.960   3.909   4.071
10333TIP3    H230945   4.882   4.039   4.081
10334TIP3   OH230946   1.731   4.170   3.984
10334TIP3    H130947   1.671   4.217   4.041
10334TIP3    H230948   1.696   4.183   3.896
10335TIP3   OH230949   1.894   4.320   2.000
10335TIP3    H130950   1.989   4.322   1.995
10335TIP3    H230951   1.871   4.227   1.999
10336TIP3   OH230952   8.026   7.472   4.179
10336TIP3    H130953   8.017   7.394   4.234
10336TIP3    H230954   8.102   7.517   4.213
10337TIP3   OH230955   5.610   5.003   5.827
10337TIP3    H130956   5.642   5.091   5.804
10337TIP3    H230957   5.690   4.951   5.835
10338TIP3   OH230958   0.631   4.455   0.791
10338TIP3    H130959   0.558   4.395   0.804
10338TIP3    H230960   0.707   4.409   0.826
10339TIP3   OH230961   7.483   2.177   3.467
10339TIP3    H130962   7.411   2.228   3.503
10339TIP3    H230963   7.561   2.232   3.479
10340TIP3   OH230964   1.338   2.653   4.211
10340TIP3    H130965   1.368   2.609   4.131
10340TIP3    H230966   1.399   2.726   4.222
10341TIP3   OH230967   1.701   6.164   4.575
10341TIP3    H130968   1.656   6.216   4.509
10341TIP3    H230969   1.775   6.126   4.528
10342TIP3   OH230970   3.830   4.893   5.516
10342TIP3    H130971   3.803   4.949   5.589
10342TIP3    H230972   3.754   4.836   5.499
10343TIP3   OH230973   6.285   3.960   1.587
10343TIP3    H130974   6.295   4.026   1.654
10343TIP3    H230975   6.341   3.990   1.515
10344TIP3   OH230976   0.644   7.132   3.340
10344TIP3    H130977   0.737   7.151   3.331
10344TIP3    H230978   0.601   7.195   3.283
10345TIP3   OH230979   1.641   7.702   2.662
10345TIP3    H130980   1.571   7.724   2.723
10345TIP3    H230981   1.708   7.660   2.716
10346TIP3   OH230982   0.590   5.235   3.668
10346TIP3    H130983   0.537   5.305   3.628
10346TIP3    H230984   0.559   5.155   3.626
10347TIP3   OH230985   7.137   2.929   0.707
10347TIP3    H130986   7.125   2.940   0.613
10347TIP3    H230987   7.218   2.879   0.715
10348TIP3   OH230988   6.347   6.157   2.597
10348TIP3    H130989   6.443   6.162   2.598
10348TIP3    H230990   6.328   6.066   2.620
10349TIP3   OH230991   4.034   6.457   1.142
10349TIP3    H130992   4.023   6.422   1.231
10349TIP3    H230993   3.975   6.532   1.138
10350TIP3   OH230994   3.489   5.895   6.722
10350TIP3    H130995   3.532   5.943   6.651
10350TIP3    H230996   3.457   5.963   6.781
10351TIP3   OH230997   1.111   4.884   0.986
10351TIP3    H130998   1.049   4.861   1.055
10351TIP3    H230999   1.098   4.818   0.918
10352TIP3   OH231000   1.707   0.076   2.074
10352TIP3    H131001   1.739   0.016   2.141
10352TIP3    H231002   1.627   0.114   2.112
10353TIP3   OH231003   1.900   1.920   3.785
10353TIP3    H131004   1.924   2.007   3.751
10353TIP3    H231005   1.939   1.858   3.723
10354TIP3   OH231006   4.232   2.521   0.253
10354TIP3    H131007   4.323   2.551   0.242
10354TIP3    H231008   4.180   2.601   0.255
10355TIP3   OH231009   7.678   7.502   0.459
10355TIP3    H131010   7.708   7.558   0.387
10355TIP3    H231011   7.632   7.562   0.518
10356TIP3   OH231012   1.731   0.473   4.384
10356TIP3    H131013   1.824   0.451   4.384
10356TIP3    H231014   1.725   0.551   4.439
10357TIP3   OH231015   4.919   3.686   5.703
10357TIP3    H131016   4.841   3.703   5.755
10357TIP3    H231017   4.992   3.710   5.760
10358TIP3   OH231018   2.702   6.792   1.044
10358TIP3    H131019   2.679   6.874   1.002
10358TIP3    H231020   2.698   6.811   1.138
10359TIP3   OH231021   0.614   3.396   2.036
10359TIP3    H131022   0.687   3.445   1.998
10359TIP3    H231023   0.590   3.447   2.113
10360TIP3   OH231024   5.082   2.608   6.656
10360TIP3    H131025   5.163   2.605   6.605
10360TIP3    H231026   5.112   2.620   6.746
10361TIP3   OH231027   3.693   0.657   2.961
10361TIP3    H131028   3.659   0.668   3.050
10361TIP3    H231029   3.614   0.644   2.907
10362TIP3   OH231030   1.353   6.986   6.039
10362TIP3    H131031   1.386   6.975   6.128
10362TIP3    H231032   1.410   7.053   6.000
10363TIP3   OH231033   7.528   0.739   4.487
10363TIP3    H131034   7.448   0.709   4.444
10363TIP3    H231035   7.561   0.661   4.532
10364TIP3   OH231036   2.575   3.803   4.733
10364TIP3    H131037   2.498   3.859   4.724
10364TIP3    H231038   2.577   3.779   4.826
10365TIP3   OH231039   2.920   5.663   6.099
10365TIP3    H131040   2.837   5.631   6.063
10365TIP3    H231041   2.944   5.598   6.165
10366TIP3   OH231042   7.883   6.315   2.588
10366TIP3    H131043   7.801   6.325   2.539
10366TIP3    H231044   7.859   6.262   2.664
10367TIP3   OH231045   7.196   4.119   4.830
10367TIP3    H131046   7.112   4.165   4.831
10367TIP3    H231047   7.261   4.188   4.838
10368TIP3   OH231048   3.585   0.149   3.669
10368TIP3    H131049   3.516   0.206   3.702
10368TIP3    H231050   3.579   0.157   3.574
10369TIP3   OH231051   6.212   1.718   0.210
10369TIP3    H131052   6.125   1.718   0.169
10369TIP3    H231053   6.196   1.696   0.301
10370TIP3   OH231054   6.683   6.294   3.364
10370TIP3    H131055   6.726   6.236   3.427
10370TIP3    H231056   6.669   6.375   3.413
10371TIP3   OH231057   1.674   2.244   6.065
10371TIP3    H131058   1.708   2.239   6.154
10371TIP3    H231059   1.658   2.337   6.050
10372TIP3   OH231060   7.911   2.646   5.519
10372TIP3    H131061   7.827   2.614   5.551
10372TIP3    H231062   7.958   2.566   5.493
10373TIP3   OH231063   0.917   5.986   2.677
10373TIP3    H131064   0.921   5.907   2.623
10373TIP3    H231065   0.856   5.964   2.747
10374TIP3   OH231066   3.881   2.305   6.004
10374TIP3    H131067   3.790   2.297   5.975
10374TIP3    H231068   3.875   2.334   6.095
10375TIP3   OH231069   2.025   7.058   5.408
10375TIP3    H131070   2.009   6.974   5.451
10375TIP3    H231071   1.939   7.088   5.380
10376TIP3   OH231072   0.205   5.026   1.523
10376TIP3    H131073   0.255   4.975   1.460
10376TIP3    H231074   0.138   5.070   1.470
10377TIP3   OH231075   0.823   2.343   3.433
10377TIP3    H131076   0.868   2.279   3.379
10377TIP3    H231077   0.805   2.298   3.515
10378TIP3   OH231078   3.241   7.623   6.316
10378TIP3    H131079   3.317   7.568   6.336
10378TIP3    H231080   3.276   7.712   6.314
10379TIP3   OH231081   2.406   2.016   0.171
10379TIP3    H131082   2.472   2.002   0.238
10379TIP3    H231083   2.414   1.940   0.113
10380TIP3   OH231084   0.977   2.805   4.158
10380TIP3    H131085   1.023   2.755   4.090
10380TIP3    H231086   0.918   2.863   4.110
10381TIP3   OH231087   5.536   6.133   5.913
10381TIP3    H131088   5.548   6.196   5.841
10381TIP3    H231089   5.480   6.179   5.975
10382TIP3   OH231090   7.557   4.839   2.851
10382TIP3    H131091   7.630   4.786   2.885
10382TIP3    H231092   7.586   4.864   2.763
10383TIP3   OH231093   4.987   3.080   4.051
10383TIP3    H131094   5.041   3.149   4.089
10383TIP3    H231095   5.011   3.001   4.101
10384TIP3   OH231096   0.673   4.127   1.474
10384TIP3    H131097   0.639   4.128   1.563
10384TIP3    H231098   0.670   4.035   1.448
10385TIP3   OH231099   7.211   0.772   6.358
10385TIP3    H131100   7.220   0.695   6.302
10385TIP3    H231101   7.202   0.845   6.297
10386TIP3   OH231102   4.947   4.940   0.222
10386TIP3    H131103   4.969   4.885   0.147
10386TIP3    H231104   4.882   5.003   0.187
10387TIP3   OH231105   1.337   1.194   4.923
10387TIP3    H131106   1.370   1.105   4.913
10387TIP3    H231107   1.414   1.250   4.909
10388TIP3   OH231108   7.733   1.721   2.906
10388TIP3    H131109   7.681   1.699   2.983
10388TIP3    H231110   7.760   1.812   2.921
10389TIP3   OH231111   2.557   7.516   3.993
10389TIP3    H131112   2.614   7.478   3.927
10389TIP3    H231113   2.568   7.610   3.983
10390TIP3   OH231114   7.605   6.030   0.074
10390TIP3    H131115   7.639   5.953   0.028
10390TIP3    H231116   7.680   6.064   0.122
10391TIP3   OH231117   6.600   3.201   5.132
10391TIP3    H131118   6.534   3.260   5.096
10391TIP3    H231119   6.680   3.254   5.134
10392TIP3   OH231120   5.736   0.843   5.993
10392TIP3    H131121   5.673   0.798   5.936
10392TIP3    H231122   5.792   0.774   6.027
10393TIP3   OH231123   4.790   6.713   4.274
10393TIP3    H131124   4.876   6.755   4.279
10393TIP3    H231125   4.787   6.674   4.187
10394TIP3   OH231126   7.286   7.701   0.256
10394TIP3    H131127   7.337   7.780   0.272
10394TIP3    H231128   7.328   7.661   0.180
10395TIP3   OH231129   4.599   0.123   2.745
10395TIP3    H131130   4.601   0.201   2.801
10395TIP3    H231131   4.510   0.122   2.709
10396TIP3   OH231132   7.975   3.812   6.451
10396TIP3    H131133   8.040   3.872   6.416
10396TIP3    H231134   8.014   3.779   6.532
10397TIP3   OH231135   6.924   3.310   4.961
10397TIP3    H131136   6.908   3.225   5.000
10397TIP3    H231137   6.952   3.291   4.872
10398TIP3   OH231138   6.939   2.914   0.888
10398TIP3    H131139   6.894   2.832   0.869
10398TIP3    H231140   7.006   2.920   0.820
10399TIP3   OH231141   2.257   4.232   3.822
10399TIP3    H131142   2.177   4.248   3.873
10399TIP3    H231143   2.323   4.211   3.888
10400TIP3   OH231144   6.590   7.570   0.432
10400TIP3    H131145   6.587   7.661   0.463
10400TIP3    H231146   6.526   7.524   0.486
10401TIP3   OH231147   7.619   0.810   5.382
10401TIP3    H131148   7.671   0.761   5.318
10401TIP3    H231149   7.537   0.830   5.336
10402TIP3   OH231150   6.828   4.161   1.352
10402TIP3    H131151   6.772   4.238   1.363
10402TIP3    H231152   6.872   4.175   1.268
10403TIP3   OH231153   6.118   3.537   4.151
10403TIP3    H131154   6.037   3.529   4.201
10403TIP3    H231155   6.142   3.446   4.131
10404TIP3   OH231156   5.571   2.111   3.866
10404TIP3    H131157   5.499   2.070   3.819
10404TIP3    H231158   5.543   2.111   3.958
10405TIP3   OH231159   3.740   4.611   2.277
10405TIP3    H131160   3.777   4.627   2.190
10405TIP3    H231161   3.719   4.518   2.277
10406TIP3   OH231162   3.520   0.126   4.480
10406TIP3    H131163   3.444   0.122   4.538
10406TIP3    H231164   3.511   0.049   4.423
10407TIP3   OH231165   3.586   5.955   3.087
10407TIP3    H131166   3.615   5.935   3.177
10407TIP3    H231167   3.491   5.954   3.093
10408TIP3   OH231168   3.872   5.636   4.882
10408TIP3    H131169   3.831   5.562   4.837
10408TIP3    H231170   3.966   5.620   4.873
10409TIP3   OH231171   5.477   5.615   2.787
10409TIP3    H131172   5.427   5.683   2.831
10409TIP3    H231173   5.503   5.555   2.857
10410TIP3   OH231174   6.740   5.316   5.628
10410TIP3    H131175   6.742   5.222   5.642
10410TIP3    H231176   6.668   5.347   5.683
10411TIP3   OH231177   7.043   5.892   4.564
10411TIP3    H131178   7.123   5.842   4.550
10411TIP3    H231179   7.062   5.979   4.528
10412TIP3   OH231180   1.069   6.388   2.326
10412TIP3    H131181   1.155   6.348   2.337
10412TIP3    H231182   1.007   6.324   2.361
10413TIP3   OH231183   3.080   4.861   1.468
10413TIP3    H131184   3.111   4.770   1.470
10413TIP3    H231185   3.144   4.909   1.519
10414TIP3   OH231186   1.261   3.910   0.964
10414TIP3    H131187   1.316   3.840   0.931
10414TIP3    H231188   1.277   3.912   1.058
10415TIP3   OH231189   7.839   4.172   6.529
10415TIP3    H131190   7.916   4.124   6.560
10415TIP3    H231191   7.861   4.264   6.542
10416TIP3   OH231192   2.167   2.525   1.984
10416TIP3    H131193   2.262   2.528   1.991
10416TIP3    H231194   2.150   2.491   1.896
10417TIP3   OH231195   0.685   5.215   0.672
10417TIP3    H131196   0.761   5.157   0.667
10417TIP3    H231197   0.666   5.223   0.766
10418TIP3   OH231198   3.927   0.447   5.999
10418TIP3    H131199   3.845   0.440   5.950
10418TIP3    H231200   3.938   0.361   6.040
10419TIP3   OH231201   4.336   4.124   2.686
10419TIP3    H131202   4.273   4.124   2.614
10419TIP3    H231203   4.314   4.046   2.737
10420TIP3   OH231204   2.393   3.878   2.224
10420TIP3    H131205   2.340   3.815   2.273
10420TIP3    H231206   2.464   3.825   2.186
10421TIP3   OH231207   7.795   0.172   1.731
10421TIP3    H131208   7.764   0.212   1.812
10421TIP3    H231209   7.885   0.144   1.751
10422TIP3   OH231210   1.891   5.859   1.693
10422TIP3    H131211   1.918   5.951   1.693
10422TIP3    H231212   1.852   5.846   1.606
10423TIP3   OH231213   4.220   5.722   2.691
10423TIP3    H131214   4.129   5.695   2.679
10423TIP3    H231215   4.221   5.765   2.776
10424TIP3   OH231216   2.040   1.987   6.491
10424TIP3    H131217   2.050   2.036   6.409
10424TIP3    H231218   2.087   2.038   6.556
10425TIP3   OH231219   2.914   5.621   4.896
10425TIP3    H131220   2.903   5.576   4.813
10425TIP3    H231221   2.900   5.713   4.876
10426TIP3   OH231222   1.589   0.335   0.174
10426TIP3    H131223   1.546   0.250   0.179
10426TIP3    H231224   1.648   0.336   0.249
10427TIP3   OH231225   7.656   2.907   4.939
10427TIP3    H131226   7.586   2.897   4.875
10427TIP3    H231227   7.616   2.955   5.011
10428TIP3   OH231228   1.747   7.636   6.403
10428TIP3    H131229   1.781   7.688   6.330
10428TIP3    H231230   1.770   7.686   6.481
10429TIP3   OH231231   1.252   5.861   1.736
10429TIP3    H131232   1.283   5.947   1.709
10429TIP3    H231233   1.297   5.800   1.678
10430TIP3   OH231234   8.246   0.204   3.887
10430TIP3    H131235   8.314   0.146   3.919
10430TIP3    H231236   8.177   0.145   3.856
10431TIP3   OH231237   4.710   2.196   5.994
10431TIP3    H131238   4.654   2.125   5.962
10431TIP3    H231239   4.730   2.247   5.916
10432TIP3   OH231240   8.238   0.569   4.581
10432TIP3    H131241   8.333   0.573   4.593
10432TIP3    H231242   8.218   0.644   4.525
10433TIP3   OH231243   5.657   0.837   4.333
10433TIP3    H131244   5.629   0.797   4.415
10433TIP3    H231245   5.575   0.851   4.284
10434TIP3   OH231246   4.678   3.218   2.018
10434TIP3    H131247   4.643   3.172   1.941
10434TIP3    H231248   4.602   3.259   2.058
10435TIP3   OH231249   5.044   7.192   4.036
10435TIP3    H131250   5.015   7.102   4.051
10435TIP3    H231251   5.126   7.200   4.085
10436TIP3   OH231252   5.292   5.190   6.291
10436TIP3    H131253   5.311   5.198   6.197
10436TIP3    H231254   5.375   5.162   6.329
10437TIP3   OH231255   5.955   0.634   3.517
10437TIP3    H131256   6.031   0.590   3.479
10437TIP3    H231257   5.980   0.651   3.608
10438TIP3   OH231258   3.334   5.232   1.464
10438TIP3    H131259   3.282   5.312   1.466
10438TIP3    H231260   3.293   5.179   1.396
10439TIP3   OH231261   6.192   7.193   2.836
10439TIP3    H131262   6.140   7.159   2.764
10439TIP3    H231263   6.279   7.208   2.798
10440TIP3   OH231264   7.450   4.879   3.450
10440TIP3    H131265   7.511   4.909   3.381
10440TIP3    H231266   7.461   4.784   3.452
10441TIP3   OH231267   8.169   5.747   0.290
10441TIP3    H131268   8.183   5.827   0.239
10441TIP3    H231269   8.190   5.676   0.229
10442TIP3   OH231270   8.301   3.808   5.310
10442TIP3    H131271   8.337   3.725   5.279
10442TIP3    H231272   8.236   3.784   5.376
10443TIP3   OH231273   0.954   6.250   3.326
10443TIP3    H131274   0.984   6.160   3.338
10443TIP3    H231275   1.024   6.304   3.364
10444TIP3   OH231276   1.406   5.356   1.080
10444TIP3    H131277   1.314   5.381   1.094
10444TIP3    H231278   1.425   5.295   1.151
10445TIP3   OH231279   8.180   0.982   5.903
10445TIP3    H131280   8.263   1.030   5.899
10445TIP3    H231281   8.114   1.044   5.873
10446TIP3   OH231282   7.033   3.362   3.188
10446TIP3    H131283   6.969   3.408   3.134
10446TIP3    H231284   7.007   3.270   3.183
10447TIP3   OH231285   7.297   5.306   3.801
10447TIP3    H131286   7.245   5.386   3.796
10447TIP3    H231287   7.317   5.286   3.709
10448TIP3   OH231288   1.724   1.280   0.491
10448TIP3    H131289   1.657   1.220   0.525
10448TIP3    H231290   1.674   1.356   0.461
10449TIP3   OH231291   6.727   5.273   4.793
10449TIP3    H131292   6.812   5.235   4.817
10449TIP3    H231293   6.670   5.252   4.867
10450TIP3   OH231294   7.667   2.926   4.459
10450TIP3    H131295   7.722   2.857   4.423
10450TIP3    H231296   7.578   2.898   4.440
10451TIP3   OH231297   6.220   6.486   5.541
10451TIP3    H131298   6.247   6.515   5.628
10451TIP3    H231299   6.129   6.459   5.551
10452TIP3   OH231300   6.894   0.504   4.840
10452TIP3    H131301   6.818   0.446   4.849
10452TIP3    H231302   6.940   0.471   4.762
10453TIP3   OH231303   3.896   0.821   6.545
10453TIP3    H131304   3.856   0.904   6.518
10453TIP3    H231305   3.879   0.762   6.472
10454TIP3   OH231306   1.448   0.713   5.232
10454TIP3    H131307   1.436   0.735   5.324
10454TIP3    H231308   1.482   0.793   5.192
10455TIP3   OH231309   1.158   4.307   4.085
10455TIP3    H131310   1.128   4.390   4.047
10455TIP3    H231311   1.200   4.332   4.167
10456TIP3   OH231312   3.244   7.670   3.629
10456TIP3    H131313   3.165   7.687   3.577
10456TIP3    H231314   3.221   7.700   3.717
10457TIP3   OH231315   5.314   6.424   0.167
10457TIP3    H131316   5.366   6.428   0.087
10457TIP3    H231317   5.245   6.489   0.154
10458TIP3   OH231318   2.569   5.946   2.948
10458TIP3    H131319   2.582   5.851   2.949
10458TIP3    H231320   2.647   5.981   2.991
10459TIP3   OH231321   4.573   2.597   2.831
10459TIP3    H131322   4.567   2.663   2.900
10459TIP3    H231323   4.667   2.582   2.819
10460TIP3   OH231324   5.015   6.325   2.709
10460TIP3    H131325   4.994   6.416   2.731
10460TIP3    H231326   5.099   6.308   2.752
10461TIP3   OH231327   6.316   6.755   1.930
10461TIP3    H131328   6.310   6.849   1.949
10461TIP3    H231329   6.251   6.715   1.987
10462TIP3   OH231330   6.864   2.839   0.258
10462TIP3    H131331   6.881   2.846   0.164
10462TIP3    H231332   6.781   2.791   0.264
10463TIP3   OH231333   4.219   5.132   3.587
10463TIP3    H131334   4.231   5.041   3.558
10463TIP3    H231335   4.138   5.160   3.544
10464TIP3   OH231336   4.806   0.025   2.243
10464TIP3    H131337   4.793  -0.049   2.302
10464TIP3    H231338   4.730   0.024   2.186
10465TIP3   OH231339   1.207   4.103   5.822
10465TIP3    H131340   1.117   4.135   5.827
10465TIP3    H231341   1.227   4.072   5.910
10466TIP3   OH231342   7.667   2.376   3.506
10466TIP3    H131343   7.704   2.410   3.424
10466TIP3    H231344   7.613   2.447   3.539
10467TIP3   OH231345   4.668   0.484   2.676
10467TIP3    H131346   4.601   0.544   2.708
10467TIP3    H231347   4.738   0.489   2.741
10468TIP3   OH231348   1.457   0.985   4.440
10468TIP3    H131349   1.547   1.004   4.466
10468TIP3    H231350   1.403   1.040   4.497
10469TIP3   OH231351   6.837   5.797   3.781
10469TIP3    H131352   6.781   5.847   3.840
10469TIP3    H231353   6.789   5.796   3.698
10470TIP3   OH231354   2.266   0.457   1.121
10470TIP3    H131355   2.243   0.428   1.033
10470TIP3    H231356   2.352   0.498   1.110
10471TIP3   OH231357   5.593   0.828   4.011
10471TIP3    H131358   5.521   0.880   4.047
10471TIP3    H231359   5.586   0.744   4.056
10472TIP3   OH231360   2.859   1.642   0.876
10472TIP3    H131361   2.935   1.661   0.931
10472TIP3    H231362   2.896   1.611   0.794
10473TIP3   OH231363   5.627   2.547   0.562
10473TIP3    H131364   5.583   2.465   0.587
10473TIP3    H231365   5.719   2.523   0.553
10474TIP3   OH231366   5.157   5.600   4.361
10474TIP3    H131367   5.183   5.531   4.300
10474TIP3    H231368   5.170   5.681   4.312
10475TIP3   OH231369   6.005   2.231   0.888
10475TIP3    H131370   5.987   2.163   0.823
10475TIP3    H231371   6.066   2.190   0.950
10476TIP3   OH231372   2.941   2.914   1.403
10476TIP3    H131373   2.907   2.906   1.314
10476TIP3    H231374   2.911   2.835   1.448
10477TIP3   OH231375   7.009   1.436   5.478
10477TIP3    H131376   7.086   1.440   5.421
10477TIP3    H231377   7.044   1.445   5.567
10478TIP3   OH231378   1.758   4.217   2.388
10478TIP3    H131379   1.722   4.228   2.476
10478TIP3    H231380   1.689   4.172   2.339
10479TIP3   OH231381   8.136   2.806   0.102
10479TIP3    H131382   8.140   2.747   0.026
10479TIP3    H231383   8.052   2.851   0.091
10480TIP3   OH231384   0.326   4.654   3.809
10480TIP3    H131385   0.336   4.559   3.810
10480TIP3    H231386   0.380   4.685   3.882
10481TIP3   OH231387   0.091   7.351   3.431
10481TIP3    H131388   0.049   7.433   3.404
10481TIP3    H231389   0.138   7.322   3.353
10482TIP3   OH231390   7.323   7.702   1.221
10482TIP3    H131391   7.237   7.702   1.262
10482TIP3    H231392   7.323   7.780   1.165
10483TIP3   OH231393   4.354   6.841   0.277
10483TIP3    H131394   4.412   6.805   0.344
10483TIP3    H231395   4.398   6.824   0.194
10484TIP3   OH231396   0.089   6.867   4.256
10484TIP3    H131397   0.077   6.957   4.286
10484TIP3    H231398   0.151   6.875   4.183
10485TIP3   OH231399   1.235   6.988   1.282
10485TIP3    H131400   1.262   7.048   1.352
10485TIP3    H231401   1.154   6.949   1.314
10486TIP3   OH231402   7.008   1.296   1.824
10486TIP3    H131403   7.005   1.362   1.893
10486TIP3    H231404   6.916   1.277   1.804
10487TIP3   OH231405   8.029   0.515   3.441
10487TIP3    H131406   8.045   0.604   3.411
10487TIP3    H231407   7.975   0.525   3.519
10488TIP3   OH231408   2.425   3.544   5.514
10488TIP3    H131409   2.434   3.628   5.560
10488TIP3    H231410   2.420   3.479   5.584
10489TIP3   OH231411   0.487   6.542   2.953
10489TIP3    H131412   0.454   6.598   3.024
10489TIP3    H231413   0.491   6.598   2.877
10490TIP3   OH231414   7.641   4.910   3.209
10490TIP3    H131415   7.559   4.886   3.167
10490TIP3    H231416   7.706   4.851   3.171
10491TIP3   OH231417   7.608   2.726   6.673
10491TIP3    H131418   7.630   2.756   6.585
10491TIP3    H231419   7.517   2.696   6.665
10492TIP3   OH231420   3.346   1.619   6.446
10492TIP3    H131421   3.339   1.529   6.477
10492TIP3    H231422   3.436   1.625   6.412
10493TIP3   OH231423   3.086   2.280   1.813
10493TIP3    H131424   3.075   2.345   1.744
10493TIP3    H231425   3.070   2.329   1.894
10494TIP3   OH231426   4.560   7.596   0.957
10494TIP3    H131427   4.546   7.541   1.034
10494TIP3    H231428   4.542   7.685   0.987
10495TIP3   OH231429   7.120   7.776   2.564
10495TIP3    H131430   7.109   7.725   2.484
10495TIP3    H231431   7.152   7.861   2.534
10496TIP3   OH231432   5.970   0.414   2.553
10496TIP3    H131433   5.911   0.388   2.482
10496TIP3    H231434   6.050   0.364   2.538
10497TIP3   OH231435   3.691   1.937   0.610
10497TIP3    H131436   3.687   1.926   0.515
10497TIP3    H231437   3.671   1.850   0.646
10498TIP3   OH231438   5.086   0.693   6.415
10498TIP3    H131439   5.008   0.673   6.466
10498TIP3    H231440   5.082   0.788   6.400
10499TIP3   OH231441   2.360   5.748   0.004
10499TIP3    H131442   2.316   5.817  -0.046
10499TIP3    H231443   2.297   5.725   0.073
10500TIP3   OH231444   4.708   3.752   5.880
10500TIP3    H131445   4.665   3.806   5.814
10500TIP3    H231446   4.636   3.716   5.932
10501TIP3   OH231447   0.667   3.167   2.745
10501TIP3    H131448   0.685   3.219   2.667
10501TIP3    H231449   0.731   3.198   2.810
10502TIP3   OH231450   1.318   6.318   0.336
10502TIP3    H131451   1.323   6.229   0.372
10502TIP3    H231452   1.272   6.368   0.403
10503TIP3   OH231453   5.113   6.823   1.645
10503TIP3    H131454   5.022   6.822   1.617
10503TIP3    H231455   5.131   6.734   1.673
10504TIP3   OH231456   0.185   6.788   6.102
10504TIP3    H131457   0.194   6.743   6.018
10504TIP3    H231458   0.092   6.814   6.105
10505TIP3   OH231459   2.702   1.883   5.507
10505TIP3    H131460   2.646   1.805   5.512
10505TIP3    H231461   2.782   1.858   5.553
10506TIP3   OH231462   6.688   2.351   1.741
10506TIP3    H131463   6.623   2.377   1.806
10506TIP3    H231464   6.703   2.257   1.757
10507TIP3   OH231465   5.010   2.388   5.599
10507TIP3    H131466   4.920   2.358   5.613
10507TIP3    H231467   5.064   2.314   5.626
10508TIP3   OH231468   6.083   4.129   0.571
10508TIP3    H131469   6.119   4.204   0.619
10508TIP3    H231470   6.123   4.053   0.613
10509TIP3   OH231471   2.332   6.118   2.193
10509TIP3    H131472   2.336   6.044   2.133
10509TIP3    H231473   2.395   6.097   2.262
10510TIP3   OH231474   5.629   2.991   1.931
10510TIP3    H131475   5.629   3.067   1.872
10510TIP3    H231476   5.539   2.958   1.927
10511TIP3   OH231477   8.115   1.070   2.144
10511TIP3    H131478   8.178   1.009   2.105
10511TIP3    H231479   8.166   1.115   2.212
10512TIP3   OH231480   0.735   7.729   0.744
10512TIP3    H131481   0.687   7.801   0.704
10512TIP3    H231482   0.744   7.755   0.836
10513TIP3   OH231483   1.328   3.316   2.770
10513TIP3    H131484   1.274   3.298   2.693
10513TIP3    H231485   1.347   3.409   2.764
10514TIP3   OH231486   4.127   1.675   3.027
10514TIP3    H131487   4.052   1.732   3.014
10514TIP3    H231488   4.202   1.724   2.993
10515TIP3   OH231489   1.517   1.249   2.097
10515TIP3    H131490   1.518   1.227   2.191
10515TIP3    H231491   1.553   1.338   2.094
10516TIP3   OH231492   5.405   7.209   1.380
10516TIP3    H131493   5.403   7.143   1.309
10516TIP3    H231494   5.431   7.290   1.336
10517TIP3   OH231495   0.546   1.673   0.385
10517TIP3    H131496   0.496   1.695   0.463
10517TIP3    H231497   0.560   1.579   0.391
10518TIP3   OH231498   7.918   2.938   0.286
10518TIP3    H131499   7.849   2.911   0.225
10518TIP3    H231500   7.888   2.905   0.371
10519TIP3   OH231501   1.671   4.572   5.415
10519TIP3    H131502   1.695   4.646   5.359
10519TIP3    H231503   1.700   4.598   5.503
10520TIP3   OH231504   1.266   5.579   0.794
10520TIP3    H131505   1.267   5.512   0.725
10520TIP3    H231506   1.357   5.607   0.801
10521TIP3   OH231507   1.742   6.525   5.284
10521TIP3    H131508   1.801   6.493   5.352
10521TIP3    H231509   1.748   6.461   5.214
10522TIP3   OH231510   5.797   6.323   3.085
10522TIP3    H131511   5.862   6.310   3.154
10522TIP3    H231512   5.846   6.313   3.003
10523TIP3   OH231513   3.359   6.424   5.482
10523TIP3    H131514   3.406   6.506   5.500
10523TIP3    H231515   3.323   6.436   5.394
10524TIP3   OH231516   3.978   7.704   4.510
10524TIP3    H131517   4.059   7.710   4.560
10524TIP3    H231518   4.005   7.673   4.424
10525TIP3   OH231519   6.843   7.528   2.565
10525TIP3    H131520   6.850   7.548   2.658
10525TIP3    H231521   6.823   7.434   2.562
10526TIP3   OH231522   5.542   5.980   2.976
10526TIP3    H131523   5.624   5.940   2.948
10526TIP3    H231524   5.538   6.063   2.929
10527TIP3   OH231525   7.188   1.018   2.565
10527TIP3    H131526   7.152   1.001   2.478
10527TIP3    H231527   7.174   0.937   2.614
10528TIP3   OH231528   3.464   1.490   3.761
10528TIP3    H131529   3.437   1.421   3.701
10528TIP3    H231530   3.392   1.553   3.758
10529TIP3   OH231531   3.297   2.829   5.777
10529TIP3    H131532   3.341   2.913   5.761
10529TIP3    H231533   3.208   2.852   5.801
10530TIP3   OH231534   0.840   1.672   6.671
10530TIP3    H131535   0.799   1.607   6.614
10530TIP3    H231536   0.779   1.746   6.672
10531TIP3   OH231537   4.438   1.979   6.227
10531TIP3    H131538   4.520   1.958   6.274
10531TIP3    H231539   4.378   1.909   6.253
10532TIP3   OH231540   6.786   6.727   4.951
10532TIP3    H131541   6.716   6.665   4.971
10532TIP3    H231542   6.863   6.691   4.995
10533TIP3   OH231543   5.481   0.837   5.111
10533TIP3    H131544   5.485   0.762   5.170
10533TIP3    H231545   5.568   0.840   5.071
10534TIP3   OH231546   4.888   7.686   3.530
10534TIP3    H131547   4.821   7.738   3.486
10534TIP3    H231548   4.970   7.731   3.509
10535TIP3   OH231549   2.332   6.610   4.906
10535TIP3    H131550   2.370   6.532   4.866
10535TIP3    H231551   2.404   6.649   4.955
10536TIP3   OH231552   7.454   4.621   3.948
10536TIP3    H131553   7.448   4.536   3.992
10536TIP3    H231554   7.365   4.638   3.918
10537TIP3   OH231555   3.165   4.038   6.216
10537TIP3    H131556   3.096   4.056   6.153
10537TIP3    H231557   3.198   3.952   6.192
10538TIP3   OH231558   4.430   4.136   1.178
10538TIP3    H131559   4.485   4.199   1.225
10538TIP3    H231560   4.480   4.054   1.181
10539TIP3   OH231561   7.935   5.342   5.040
10539TIP3    H131562   7.954   5.378   5.127
10539TIP3    H231563   7.915   5.250   5.056
10540TIP3   OH231564   4.565   3.741   0.515
10540TIP3    H131565   4.631   3.717   0.450
10540TIP3    H231566   4.545   3.833   0.496
10541TIP3   OH231567   1.719   1.687   2.016
10541TIP3    H131568   1.814   1.671   2.016
10541TIP3    H231569   1.712   1.782   2.008
10542TIP3   OH231570   7.315   5.464   0.764
10542TIP3    H131571   7.405   5.485   0.791
10542TIP3    H231572   7.325   5.405   0.690
10543TIP3   OH231573   2.502   0.888   6.348
10543TIP3    H131574   2.475   0.896   6.440
10543TIP3    H231575   2.534   0.975   6.326
10544TIP3   OH231576   3.061   3.284   1.909
10544TIP3    H131577   3.138   3.297   1.963
10544TIP3    H231578   3.085   3.213   1.849
10545TIP3   OH231579   5.585   2.629   3.781
10545TIP3    H131580   5.667   2.643   3.734
10545TIP3    H231581   5.517   2.640   3.715
10546TIP3   OH231582   0.654   6.009   6.495
10546TIP3    H131583   0.566   6.045   6.508
10546TIP3    H231584   0.639   5.925   6.450
10547TIP3   OH231585   6.463   0.045   1.487
10547TIP3    H131586   6.555   0.073   1.479
10547TIP3    H231587   6.424   0.067   1.403
10548TIP3   OH231588   7.351   4.182   5.400
10548TIP3    H131589   7.282   4.247   5.408
10548TIP3    H231590   7.354   4.138   5.485
10549TIP3   OH231591   7.403   4.832   3.075
10549TIP3    H131592   7.375   4.741   3.086
10549TIP3    H231593   7.431   4.837   2.983
10550TIP3   OH231594   6.552   0.232   3.434
10550TIP3    H131595   6.534   0.174   3.508
10550TIP3    H231596   6.647   0.238   3.431
10551TIP3   OH231597   5.997   1.943   0.360
10551TIP3    H131598   5.951   1.959   0.278
10551TIP3    H231599   5.960   1.861   0.393
10552TIP3   OH231600   5.564   1.741   5.800
10552TIP3    H131601   5.638   1.788   5.762
10552TIP3    H231602   5.511   1.808   5.841
10553TIP3   OH231603   4.837   0.378   6.332
10553TIP3    H131604   4.890   0.451   6.298
10553TIP3    H231605   4.865   0.303   6.279
10554TIP3   OH231606   4.583   5.567   4.102
10554TIP3    H131607   4.563   5.512   4.026
10554TIP3    H231608   4.657   5.621   4.074
10555TIP3   OH231609   2.444   0.073   3.552
10555TIP3    H131610   2.364   0.020   3.552
10555TIP3    H231611   2.500   0.032   3.486
10556TIP3   OH231612   1.251   0.044   0.395
10556TIP3    H131613   1.243   0.114   0.459
10556TIP3    H231614   1.166   0.043   0.350
10557TIP3   OH231615   2.903   3.265   6.665
10557TIP3    H131616   2.835   3.243   6.601
10557TIP3    H231617   2.967   3.317   6.614
10558TIP3   OH231618   5.339   2.557   2.343
10558TIP3    H131619   5.300   2.574   2.429
10558TIP3    H231620   5.333   2.641   2.297
10559TIP3   OH231621   4.492   3.264   4.323
10559TIP3    H131622   4.455   3.289   4.407
10559TIP3    H231623   4.454   3.178   4.304
10560TIP3   OH231624   1.998   4.602   0.446
10560TIP3    H131625   2.075   4.650   0.474
10560TIP3    H231626   2.002   4.603   0.350
10561TIP3   OH231627   8.082   7.100   3.652
10561TIP3    H131628   8.107   7.183   3.692
10561TIP3    H231629   8.164   7.060   3.625
10562TIP3   OH231630   3.732   4.361   3.765
10562TIP3    H131631   3.764   4.337   3.852
10562TIP3    H231632   3.728   4.457   3.767
10563TIP3   OH231633   5.264   0.752   2.622
10563TIP3    H131634   5.287   0.659   2.626
10563TIP3    H231635   5.231   0.772   2.709
10564TIP3   OH231636   6.663   1.094   1.159
10564TIP3    H131637   6.683   1.101   1.066
10564TIP3    H231638   6.749   1.083   1.201
10565TIP3   OH231639   0.816   7.697   3.873
10565TIP3    H131640   0.853   7.783   3.856
10565TIP3    H231641   0.822   7.687   3.968
10566TIP3   OH231642   5.815   3.523   4.155
10566TIP3    H131643   5.738   3.500   4.206
10566TIP3    H231644   5.838   3.442   4.109
10567TIP3   OH231645   4.908   6.336   4.795
10567TIP3    H131646   4.860   6.285   4.730
10567TIP3    H231647   4.842   6.365   4.857
10568TIP3   OH231648   0.851   5.374   5.740
10568TIP3    H131649   0.927   5.376   5.681
10568TIP3    H231650   0.807   5.458   5.725
10569TIP3   OH231651   2.794   5.317   1.249
10569TIP3    H131652   2.882   5.354   1.236
10569TIP3    H231653   2.742   5.356   1.178
10570TIP3   OH231654   5.073   5.178   0.626
10570TIP3    H131655   4.992   5.207   0.582
10570TIP3    H231656   5.106   5.107   0.571
10571TIP3   OH231657   0.944   4.227   1.445
10571TIP3    H131658   0.979   4.140   1.464
10571TIP3    H231659   0.860   4.229   1.490
10572TIP3   OH231660   0.007   6.038   3.785
10572TIP3    H131661   0.088   6.085   3.766
10572TIP3    H231662   0.001   5.971   3.717
10573TIP3   OH231663   1.734   7.776   1.146
10573TIP3    H131664   1.740   7.692   1.192
10573TIP3    H231665   1.648   7.811   1.171
10574TIP3   OH231666   2.724   6.284   2.097
10574TIP3    H131667   2.730   6.283   2.192
10574TIP3    H231668   2.799   6.233   2.067
10575TIP3   OH231669   7.866   2.993   4.274
10575TIP3    H131670   7.861   2.981   4.179
10575TIP3    H231671   7.828   2.913   4.311
10576TIP3   OH231672   5.104   1.244   5.134
10576TIP3    H131673   5.025   1.226   5.185
10576TIP3    H231674   5.137   1.326   5.171
10577TIP3   OH231675   6.173   2.769   4.793
10577TIP3    H131676   6.228   2.776   4.871
10577TIP3    H231677   6.207   2.693   4.746
10578TIP3   OH231678   4.648   1.579   1.380
10578TIP3    H131679   4.559   1.582   1.413
10578TIP3    H231680   4.695   1.643   1.434
10579TIP3   OH231681   3.732   0.449   5.786
10579TIP3    H131682   3.640   0.473   5.773
10579TIP3    H231683   3.734   0.355   5.769
10580TIP3   OH231684   0.246   0.816   1.290
10580TIP3    H131685   0.216   0.906   1.291
10580TIP3    H231686   0.308   0.812   1.216
10581TIP3   OH231687   2.288   7.781   1.243
10581TIP3    H131688   2.333   7.864   1.255
10581TIP3    H231689   2.215   7.801   1.186
10582TIP3   OH231690   6.141   3.616   4.703
10582TIP3    H131691   6.087   3.668   4.763
10582TIP3    H231692   6.134   3.527   4.736
10583TIP3   OH231693   4.607   5.345   0.734
10583TIP3    H131694   4.588   5.342   0.640
10583TIP3    H231695   4.603   5.437   0.758
10584TIP3   OH231696   2.582   3.965   1.345
10584TIP3    H131697   2.542   3.888   1.304
10584TIP3    H231698   2.514   4.000   1.403
10585TIP3   OH231699   2.291   5.325   1.614
10585TIP3    H131700   2.263   5.398   1.558
10585TIP3    H231701   2.251   5.343   1.699
10586TIP3   OH231702   0.305   5.610   0.309
10586TIP3    H131703   0.393   5.629   0.277
10586TIP3    H231704   0.316   5.593   0.402
10587TIP3   OH231705   2.033   6.372   6.079
10587TIP3    H131706   1.957   6.379   6.021
10587TIP3    H231707   2.003   6.410   6.161
10588TIP3   OH231708   3.191   0.380   0.543
10588TIP3    H131709   3.260   0.423   0.594
10588TIP3    H231710   3.179   0.438   0.468
10589TIP3   OH231711   0.937   5.944   4.678
10589TIP3    H131712   0.907   5.860   4.644
10589TIP3    H231713   0.944   6.000   4.601
10590TIP3   OH231714   6.686   4.817   1.074
10590TIP3    H131715   6.754   4.885   1.077
10590TIP3    H231716   6.735   4.736   1.055
10591TIP3   OH231717   2.741   5.953   0.635
10591TIP3    H131718   2.711   6.032   0.679
10591TIP3    H231719   2.751   5.888   0.705
10592TIP3   OH231720   1.252   3.003   1.008
10592TIP3    H131721   1.197   2.924   1.014
10592TIP3    H231722   1.271   3.024   1.099
10593TIP3   OH231723   7.740   4.232   3.116
10593TIP3    H131724   7.659   4.182   3.126
10593TIP3    H231725   7.796   4.201   3.187
10594TIP3   OH231726   4.881   5.827   1.219
10594TIP3    H131727   4.975   5.808   1.215
10594TIP3    H231728   4.844   5.772   1.149
10595TIP3   OH231729   6.043   4.464   2.219
10595TIP3    H131730   6.066   4.442   2.129
10595TIP3    H231731   5.948   4.472   2.218
10596TIP3   OH231732   3.673   5.668   5.547
10596TIP3    H131733   3.604   5.601   5.548
10596TIP3    H231734   3.624   5.751   5.546
10597TIP3   OH231735   7.794   7.326   1.964
10597TIP3    H131736   7.773   7.409   2.008
10597TIP3    H231737   7.711   7.298   1.926
10598TIP3   OH231738   2.901   7.604   1.967
10598TIP3    H131739   2.944   7.687   1.948
10598TIP3    H231740   2.822   7.604   1.913
10599TIP3   OH231741   2.822   6.376   6.430
10599TIP3    H131742   2.897   6.435   6.423
10599TIP3    H231743   2.842   6.304   6.370
10600TIP3   OH231744   4.082   1.031   4.241
10600TIP3    H131745   4.110   1.013   4.331
10600TIP3    H231746   4.155   1.001   4.186
10601TIP3   OH231747   1.959   4.128   1.058
10601TIP3    H131748   1.894   4.186   1.020
10601TIP3    H231749   1.975   4.163   1.145
10602TIP3   OH231750   0.562   5.648   2.900
10602TIP3    H131751   0.572   5.558   2.868
10602TIP3    H231752   0.628   5.655   2.969
10603TIP3   OH231753   6.043   6.004   6.137
10603TIP3    H131754   6.015   6.037   6.222
10603TIP3    H231755   6.118   6.058   6.114
10604TIP3   OH231756   0.569   0.038   4.544
10604TIP3    H131757   0.610  -0.013   4.614
10604TIP3    H231758   0.640   0.089   4.506
10605TIP3   OH231759   6.246   1.417   1.938
10605TIP3    H131760   6.237   1.498   1.888
10605TIP3    H231761   6.286   1.355   1.877
10606TIP3   OH231762   0.798   5.157   2.922
10606TIP3    H131763   0.729   5.188   2.862
10606TIP3    H231764   0.877   5.202   2.892
10607TIP3   OH231765   4.156   3.807   3.069
10607TIP3    H131766   4.158   3.877   3.133
10607TIP3    H231767   4.074   3.760   3.087
10608TIP3   OH231768   8.046   6.638   4.439
10608TIP3    H131769   8.012   6.556   4.475
10608TIP3    H231770   8.052   6.697   4.514
10609TIP3   OH231771   6.070   1.545   4.258
10609TIP3    H131772   5.996   1.556   4.198
10609TIP3    H231773   6.145   1.578   4.210
10610TIP3   OH231774   4.867   0.865   0.232
10610TIP3    H131775   4.880   0.954   0.198
10610TIP3    H231776   4.954   0.826   0.228
10611TIP3   OH231777   3.699   4.305   0.350
10611TIP3    H131778   3.631   4.296   0.417
10611TIP3    H231779   3.772   4.346   0.396
10612TIP3   OH231780   4.939   0.681   5.952
10612TIP3    H131781   4.894   0.602   5.983
10612TIP3    H231782   4.918   0.748   6.018
10613TIP3   OH231783   6.790   7.706   0.049
10613TIP3    H131784   6.762   7.645   0.117
10613TIP3    H231785   6.884   7.717   0.063
10614TIP3   OH231786   5.697   6.070   0.779
10614TIP3    H131787   5.694   6.141   0.716
10614TIP3    H231788   5.622   6.014   0.757
10615TIP3   OH231789   3.383   2.241   6.784
10615TIP3    H131790   3.396   2.305   6.714
10615TIP3    H231791   3.308   2.189   6.755
10616TIP3   OH231792   6.796   0.456   0.519
10616TIP3    H131793   6.728   0.392   0.499
10616TIP3    H231794   6.769   0.494   0.603
10617TIP3   OH231795   7.852   4.838   4.519
10617TIP3    H131796   7.816   4.756   4.486
10617TIP3    H231797   7.800   4.906   4.477
10618TIP3   OH231798   0.219   3.782   2.073
10618TIP3    H131799   0.304   3.765   2.033
10618TIP3    H231800   0.186   3.695   2.096
10619TIP3   OH231801   4.608   5.747   0.072
10619TIP3    H131802   4.695   5.715   0.049
10619TIP3    H231803   4.552   5.669   0.071
10620TIP3   OH231804   5.876   5.842   0.691
10620TIP3    H131805   5.953   5.848   0.635
10620TIP3    H231806   5.845   5.932   0.701
10621TIP3   OH231807   4.314   4.702   0.366
10621TIP3    H131808   4.325   4.755   0.287
10621TIP3    H231809   4.229   4.660   0.355
10622TIP3   OH231810   3.376   7.589   4.075
10622TIP3    H131811   3.394   7.578   3.981
10622TIP3    H231812   3.420   7.671   4.099
10623TIP3   OH231813   2.489   3.402   3.362
10623TIP3    H131814   2.530   3.332   3.412
10623TIP3    H231815   2.449   3.358   3.288
10624TIP3   OH231816   5.259   1.579   6.571
10624TIP3    H131817   5.193   1.520   6.609
10624TIP3    H231818   5.235   1.585   6.478
10625TIP3   OH231819   0.172   1.793   3.414
10625TIP3    H131820   0.206   1.861   3.473
10625TIP3    H231821   0.155   1.718   3.471
10626TIP3   OH231822   4.826   3.213   2.817
10626TIP3    H131823   4.768   3.261   2.876
10626TIP3    H231824   4.768   3.152   2.771
10627TIP3   OH231825   4.259   4.240   1.492
10627TIP3    H131826   4.192   4.277   1.550
10627TIP3    H231827   4.241   4.280   1.407
10628TIP3   OH231828   7.299   6.051   5.186
10628TIP3    H131829   7.391   6.050   5.159
10628TIP3    H231830   7.285   6.140   5.219
10629TIP3   OH231831   5.466   5.632   4.633
10629TIP3    H131832   5.519   5.581   4.571
10629TIP3    H231833   5.515   5.713   4.645
10630TIP3   OH231834   0.477   0.241   4.729
10630TIP3    H131835   0.502   0.202   4.645
10630TIP3    H231836   0.400   0.295   4.708
10631TIP3   OH231837   2.018   6.398   1.446
10631TIP3    H131838   1.986   6.483   1.476
10631TIP3    H231839   2.077   6.369   1.516
10632TIP3   OH231840   1.086   3.466   4.196
10632TIP3    H131841   1.065   3.375   4.173
10632TIP3    H231842   1.031   3.518   4.138
10633TIP3   OH231843   2.574   6.178   4.708
10633TIP3    H131844   2.568   6.090   4.670
10633TIP3    H231845   2.668   6.193   4.720
10634TIP3   OH231846   1.107   7.163   5.497
10634TIP3    H131847   1.027   7.145   5.545
10634TIP3    H231848   1.146   7.238   5.541
10635TIP3   OH231849   7.090   3.135   5.248
10635TIP3    H131850   7.144   3.213   5.263
10635TIP3    H231851   7.122   3.100   5.165
10636TIP3   OH231852   4.127   2.276   0.289
10636TIP3    H131853   4.203   2.219   0.293
10636TIP3    H231854   4.163   2.365   0.289
10637TIP3   OH231855   1.588   7.213   3.431
10637TIP3    H131856   1.548   7.178   3.511
10637TIP3    H231857   1.527   7.281   3.402
10638TIP3   OH231858   6.323   6.373   4.196
10638TIP3    H131859   6.294   6.330   4.277
10638TIP3    H231860   6.253   6.435   4.176
10639TIP3   OH231861   0.031   4.892   1.691
10639TIP3    H131862   0.071   4.954   1.630
10639TIP3    H231863  -0.042   4.940   1.729
10640TIP3   OH231864   4.899   0.281   2.457
10640TIP3    H131865   4.847   0.205   2.483
10640TIP3    H231866   4.873   0.297   2.366
10641TIP3   OH231867   7.585   3.320   0.785
10641TIP3    H131868   7.509   3.276   0.822
10641TIP3    H231869   7.561   3.342   0.695
10642TIP3   OH231870   6.830   2.215   0.905
10642TIP3    H131871   6.844   2.291   0.849
10642TIP3    H231872   6.766   2.162   0.857
10643TIP3   OH231873   5.721   1.063   0.373
10643TIP3    H131874   5.758   1.067   0.285
10643TIP3    H231875   5.654   0.995   0.368
10644TIP3   OH231876   5.095   0.123   0.545
10644TIP3    H131877   5.185   0.153   0.554
10644TIP3    H231878   5.048   0.200   0.512
10645TIP3   OH231879   7.326   2.581   5.991
10645TIP3    H131880   7.343   2.501   5.941
10645TIP3    H231881   7.329   2.651   5.927
10646TIP3   OH231882   3.937   6.182   3.752
10646TIP3    H131883   3.932   6.108   3.691
10646TIP3    H231884   3.930   6.142   3.838
10647TIP3   OH231885   3.297   4.314   5.128
10647TIP3    H131886   3.295   4.218   5.127
10647TIP3    H231887   3.385   4.336   5.097
10648TIP3   OH231888   6.837   1.601   3.498
10648TIP3    H131889   6.779   1.526   3.508
10648TIP3    H231890   6.778   1.674   3.476
10649TIP3   OH231891   5.254   2.866   6.222
10649TIP3    H131892   5.233   2.842   6.132
10649TIP3    H231893   5.333   2.816   6.243
10650TIP3   OH231894   0.147   2.202   4.752
10650TIP3    H131895   0.099   2.282   4.772
10650TIP3    H231896   0.125   2.181   4.662
10651TIP3   OH231897   0.089   4.033   2.785
10651TIP3    H131898   0.032   4.018   2.710
10651TIP3    H231899   0.047   3.986   2.857
10652TIP3   OH231900   2.950   6.324   5.011
10652TIP3    H131901   3.011   6.261   5.050
10652TIP3    H231902   3.006   6.382   4.960
10653TIP3   OH231903   6.095   1.873   0.647
10653TIP3    H131904   6.086   1.942   0.582
10653TIP3    H231905   6.043   1.904   0.722
10654TIP3   OH231906   7.775   0.728   0.626
10654TIP3    H131907   7.781   0.667   0.700
10654TIP3    H231908   7.687   0.715   0.591
10655TIP3   OH231909   0.831   0.495   0.650
10655TIP3    H131910   0.876   0.566   0.696
10655TIP3    H231911   0.822   0.526   0.560
10656TIP3   OH231912   5.515   6.788   1.358
10656TIP3    H131913   5.443   6.850   1.362
10656TIP3    H231914   5.479   6.706   1.393
10657TIP3   OH231915   3.837   7.395   0.249
10657TIP3    H131916   3.747   7.391   0.280
10657TIP3    H231917   3.834   7.361   0.159
10658TIP3   OH231918   2.008   3.791   6.646
10658TIP3    H131919   1.919   3.761   6.630
10658TIP3    H231920   2.063   3.718   6.617
10659TIP3   OH231921   3.427   6.541   6.679
10659TIP3    H131922   3.396   6.522   6.767
10659TIP3    H231923   3.350   6.576   6.633
10660TIP3   OH231924   5.942   7.152   0.762
10660TIP3    H131925   5.988   7.231   0.791
10660TIP3    H231926   5.946   7.093   0.838
10661TIP3   OH231927   4.137   1.952   5.109
10661TIP3    H131928   4.120   1.947   5.015
10661TIP3    H231929   4.230   1.975   5.115
10662TIP3   OH231930   5.370   2.969   0.453
10662TIP3    H131931   5.331   3.011   0.376
10662TIP3    H231932   5.377   3.039   0.517
10663TIP3   OH231933   1.677   0.458   1.964
10663TIP3    H131934   1.709   0.535   1.918
10663TIP3    H231935   1.654   0.396   1.894
10664TIP3   OH231936   2.269   4.565   5.036
10664TIP3    H131937   2.218   4.645   5.037
10664TIP3    H231938   2.206   4.496   5.059
10665TIP3   OH231939   2.813   3.039   2.675
10665TIP3    H131940   2.840   3.008   2.762
10665TIP3    H231941   2.745   2.977   2.648
10666TIP3   OH231942   4.496   7.780   1.154
10666TIP3    H131943   4.562   7.849   1.164
10666TIP3    H231944   4.417   7.816   1.196
10667TIP3   OH231945   4.527   3.660   3.975
10667TIP3    H131946   4.564   3.575   4.001
10667TIP3    H231947   4.521   3.654   3.879
10668TIP3   OH231948   4.168   4.411   4.111
10668TIP3    H131949   4.154   4.325   4.151
10668TIP3    H231950   4.151   4.396   4.018
10669TIP3   OH231951   6.585   6.803   6.117
10669TIP3    H131952   6.610   6.834   6.030
10669TIP3    H231953   6.603   6.709   6.114
10670TIP3   OH231954   3.129   6.526   6.104
10670TIP3    H131955   3.197   6.461   6.086
10670TIP3    H231956   3.122   6.576   6.022
10671TIP3   OH231957   7.316   7.073   1.565
10671TIP3    H131958   7.264   7.058   1.487
10671TIP3    H231959   7.407   7.070   1.535
10672TIP3   OH231960   3.172   7.000   0.956
10672TIP3    H131961   3.246   7.059   0.938
10672TIP3    H231962   3.192   6.920   0.908
10673TIP3   OH231963   0.431   5.684   2.488
10673TIP3    H131964   0.496   5.706   2.555
10673TIP3    H231965   0.454   5.596   2.460
10674TIP3   OH231966   5.172   0.065   4.624
10674TIP3    H131967   5.240   0.085   4.560
10674TIP3    H231968   5.137  -0.020   4.596
10675TIP3   OH231969   0.650   6.524   4.744
10675TIP3    H131970   0.687   6.605   4.709
10675TIP3    H231971   0.722   6.461   4.738
10676TIP3   OH231972   4.069   7.758   1.926
10676TIP3    H131973   4.108   7.711   1.851
10676TIP3    H231974   4.010   7.822   1.886
10677TIP3   OH231975   0.494   0.227   1.388
10677TIP3    H131976   0.409   0.233   1.433
10677TIP3    H231977   0.519   0.135   1.397
10678TIP3   OH231978   5.534   6.921   4.047
10678TIP3    H131979   5.513   6.992   4.106
10678TIP3    H231980   5.630   6.916   4.049
10679TIP3   OH231981   6.108   4.674   4.243
10679TIP3    H131982   6.055   4.695   4.167
10679TIP3    H231983   6.064   4.599   4.283
10680TIP3   OH231984   6.402   4.511   2.783
10680TIP3    H131985   6.486   4.531   2.825
10680TIP3    H231986   6.425   4.487   2.693
10681TIP3   OH231987   3.055   5.791   1.143
10681TIP3    H131988   3.013   5.797   1.057
10681TIP3    H231989   3.018   5.711   1.182
10682TIP3   OH231990   7.138   3.531   0.308
10682TIP3    H131991   7.124   3.625   0.320
10682TIP3    H231992   7.102   3.491   0.387
10683TIP3   OH231993   3.934   6.765   1.256
10683TIP3    H131994   4.029   6.779   1.258
10683TIP3    H231995   3.901   6.812   1.333
10684TIP3   OH231996   4.285   0.839   5.016
10684TIP3    H131997   4.269   0.747   5.035
10684TIP3    H231998   4.208   0.867   4.968
10685TIP3   OH231999   2.552   2.712   4.528
10685TIP3    H132000   2.632   2.659   4.528
10685TIP3    H232001   2.553   2.757   4.444
10686TIP3   OH232002   8.051   2.427   2.220
10686TIP3    H132003   8.127   2.405   2.273
10686TIP3    H232004   8.024   2.513   2.253
10687TIP3   OH232005   4.904   1.688   6.721
10687TIP3    H132006   4.810   1.700   6.736
10687TIP3    H232007   4.920   1.596   6.743
10688TIP3   OH232008   6.059   1.571   6.746
10688TIP3    H132009   6.000   1.646   6.741
10688TIP3    H232010   6.139   1.607   6.784
10689TIP3   OH232011   5.500   7.496   1.315
10689TIP3    H132012   5.439   7.532   1.380
10689TIP3    H232013   5.496   7.558   1.242
10690TIP3   OH232014   3.978   0.215   5.809
10690TIP3    H132015   4.047   0.252   5.754
10690TIP3    H232016   4.015   0.133   5.842
10691TIP3   OH232017   6.060   6.475   6.525
10691TIP3    H132018   6.009   6.397   6.545
10691TIP3    H232019   6.006   6.523   6.462
10692TIP3   OH232020   7.202   0.256   3.715
10692TIP3    H132021   7.136   0.194   3.745
10692TIP3    H232022   7.165   0.295   3.636
10693TIP3   OH232023   0.675   7.802   0.125
10693TIP3    H132024   0.606   7.739   0.104
10693TIP3    H232025   0.704   7.777   0.212
10694TIP3   OH232026   7.114   0.310   5.727
10694TIP3    H132027   7.109   0.405   5.738
10694TIP3    H232028   7.083   0.276   5.811
10695TIP3   OH232029   0.392   7.742   5.159
10695TIP3    H132030   0.390   7.661   5.108
10695TIP3    H232031   0.312   7.738   5.212
10696TIP3   OH232032   7.142   6.707   6.096
10696TIP3    H132033   7.225   6.713   6.144
10696TIP3    H232034   7.166   6.717   6.004
10697TIP3   OH232035   2.833   0.860   2.686
10697TIP3    H132036   2.884   0.844   2.765
10697TIP3    H232037   2.757   0.910   2.717
10698TIP3   OH232038   0.281   7.055   3.391
10698TIP3    H132039   0.272   6.962   3.412
10698TIP3    H232040   0.300   7.056   3.297
10699TIP3   OH232041   6.158   6.552   4.097
10699TIP3    H132042   6.226   6.617   4.078
10699TIP3    H232043   6.087   6.603   4.136
10700TIP3   OH232044   2.515   5.245   0.954
10700TIP3    H132045   2.424   5.274   0.953
10700TIP3    H232046   2.513   5.160   0.910
10701TIP3   OH232047   2.729   0.570   5.035
10701TIP3    H132048   2.768   0.538   5.116
10701TIP3    H232049   2.802   0.607   4.985
10702TIP3   OH232050   7.926   2.958   4.847
10702TIP3    H132051   7.978   2.890   4.804
10702TIP3    H232052   7.858   2.910   4.894
10703TIP3   OH232053   4.633   4.935   5.888
10703TIP3    H132054   4.540   4.921   5.909
10703TIP3    H232055   4.642   5.030   5.882
10704TIP3   OH232056   6.659   3.468   1.632
10704TIP3    H132057   6.635   3.380   1.661
10704TIP3    H232058   6.753   3.464   1.615
10705TIP3   OH232059   1.904   3.054   3.268
10705TIP3    H132060   1.977   3.081   3.212
10705TIP3    H232061   1.826   3.078   3.220
10706TIP3   OH232062   6.689   2.642   2.690
10706TIP3    H132063   6.714   2.555   2.721
10706TIP3    H232064   6.765   2.672   2.639
10707TIP3   OH232065   3.979   4.263   2.676
10707TIP3    H132066   4.002   4.250   2.768
10707TIP3    H232067   3.952   4.354   2.671
10708TIP3   OH232068   1.349   0.728   3.096
10708TIP3    H132069   1.367   0.684   3.180
10708TIP3    H232070   1.258   0.706   3.076
10709TIP3   OH232071   7.801   7.552   4.361
10709TIP3    H132072   7.814   7.536   4.454
10709TIP3    H232073   7.861   7.490   4.318
10710TIP3   OH232074   7.088   6.179   2.243
10710TIP3    H132075   7.182   6.181   2.259
10710TIP3    H232076   7.053   6.123   2.313
10711TIP3   OH232077   3.733   2.319   0.275
10711TIP3    H132078   3.804   2.359   0.225
10711TIP3    H232079   3.657   2.374   0.258
10712TIP3   OH232080   8.103   1.264   2.702
10712TIP3    H132081   8.166   1.193   2.711
10712TIP3    H232082   8.116   1.317   2.781
10713TIP3   OH232083   3.665   4.018   1.269
10713TIP3    H132084   3.671   3.928   1.238
10713TIP3    H232085   3.699   4.014   1.359
10714TIP3   OH232086   5.530   1.780   6.651
10714TIP3    H132087   5.473   1.713   6.614
10714TIP3    H232088   5.538   1.757   6.744
10715TIP3   OH232089   0.197   4.849   2.339
10715TIP3    H132090   0.282   4.841   2.295
10715TIP3    H232091   0.214   4.824   2.430
10716TIP3   OH232092   5.134   6.839   4.753
10716TIP3    H132093   5.121   6.760   4.805
10716TIP3    H232094   5.086   6.907   4.801
10717TIP3   OH232095   5.692   4.848   5.545
10717TIP3    H132096   5.758   4.916   5.558
10717TIP3    H232097   5.697   4.826   5.452
10718TIP3   OH232098   4.020   2.770   1.942
10718TIP3    H132099   3.949   2.788   1.881
10718TIP3    H232100   3.992   2.811   2.024
10719TIP3   OH232101   5.961   3.715   4.001
10719TIP3    H132102   5.902   3.718   3.925
10719TIP3    H232103   5.911   3.668   4.068
10720TIP3   OH232104   2.993   5.750   2.915
10720TIP3    H132105   3.035   5.738   3.000
10720TIP3    H232106   3.042   5.821   2.874
10721TIP3   OH232107   2.688   7.126   6.382
10721TIP3    H132108   2.713   7.057   6.321
10721TIP3    H232109   2.593   7.120   6.388
10722TIP3   OH232110   5.121   6.213   1.672
10722TIP3    H132111   5.189   6.270   1.638
10722TIP3    H232112   5.169   6.136   1.704
10723TIP3   OH232113   0.234   1.102   1.591
10723TIP3    H132114   0.277   1.099   1.676
10723TIP3    H232115   0.247   1.192   1.560
10724TIP3   OH232116   6.833   3.095   1.325
10724TIP3    H132117   6.867   3.024   1.271
10724TIP3    H232118   6.856   3.175   1.277
10725TIP3   OH232119   7.914   5.557   2.881
10725TIP3    H132120   7.821   5.579   2.885
10725TIP3    H232121   7.941   5.551   2.973
10726TIP3   OH232122   3.598   6.409   0.433
10726TIP3    H132123   3.590   6.362   0.351
10726TIP3    H232124   3.670   6.366   0.480
10727TIP3   OH232125   6.385   7.741   4.273
10727TIP3    H132126   6.311   7.693   4.310
10727TIP3    H232127   6.362   7.754   4.181
10728TIP3   OH232128   4.023   1.858   3.997
10728TIP3    H132129   4.012   1.790   3.932
10728TIP3    H232130   3.996   1.818   4.080
10729TIP3   OH232131   2.870   1.937   1.816
10729TIP3    H132132   2.805   2.004   1.839
10729TIP3    H232133   2.857   1.867   1.880
10730TIP3   OH232134   4.739   2.422   5.798
10730TIP3    H132135   4.716   2.514   5.806
10730TIP3    H232136   4.689   2.391   5.722
10731TIP3   OH232137   3.969   4.843   4.680
10731TIP3    H132138   4.029   4.866   4.751
10731TIP3    H232139   4.025   4.831   4.604
10732TIP3   OH232140   1.745   0.561   3.859
10732TIP3    H132141   1.808   0.507   3.811
10732TIP3    H232142   1.798   0.629   3.901
10733TIP3   OH232143   3.089   0.546   5.183
10733TIP3    H132144   3.179   0.515   5.191
10733TIP3    H232145   3.036   0.474   5.218
10734TIP3   OH232146   3.887   7.148   2.874
10734TIP3    H132147   3.922   7.072   2.920
10734TIP3    H232148   3.923   7.142   2.786
10735TIP3   OH232149   5.479   5.687   1.343
10735TIP3    H132150   5.470   5.716   1.252
10735TIP3    H232151   5.471   5.592   1.339
10736TIP3   OH232152   2.978   5.460   2.273
10736TIP3    H132153   3.018   5.493   2.354
10736TIP3    H232154   2.894   5.423   2.300
10737TIP3   OH232155   7.325   3.657   6.301
10737TIP3    H132156   7.251   3.627   6.354
10737TIP3    H232157   7.333   3.750   6.320
10738TIP3   OH232158   4.514   6.010   2.941
10738TIP3    H132159   4.494   5.935   2.996
10738TIP3    H232160   4.606   5.996   2.915
10739TIP3   OH232161   7.264   5.596   2.377
10739TIP3    H132162   7.268   5.632   2.288
10739TIP3    H232163   7.227   5.509   2.367
10740TIP3   OH232164   5.014   6.979   1.324
10740TIP3    H132165   4.991   7.046   1.260
10740TIP3    H232166   5.029   7.027   1.406
10741TIP3   OH232167   3.697   2.453   2.288
10741TIP3    H132168   3.623   2.457   2.228
10741TIP3    H232169   3.753   2.526   2.262
10742TIP3   OH232170   1.793   5.182   5.109
10742TIP3    H132171   1.719   5.136   5.070
10742TIP3    H232172   1.848   5.111   5.145
10743TIP3   OH232173   6.101   3.031   6.597
10743TIP3    H132174   6.181   2.999   6.555
10743TIP3    H232175   6.046   2.953   6.606
10744TIP3   OH232176   2.811   5.865   4.828
10744TIP3    H132177   2.742   5.918   4.868
10744TIP3    H232178   2.867   5.929   4.784
10745TIP3   OH232179   2.216   4.189   5.760
10745TIP3    H132180   2.292   4.197   5.818
10745TIP3    H232181   2.241   4.238   5.682
10746TIP3   OH232182   5.133   7.791   2.179
10746TIP3    H132183   5.098   7.879   2.193
10746TIP3    H232184   5.082   7.757   2.105
10747TIP3   OH232185   7.168   7.464   4.904
10747TIP3    H132186   7.250   7.436   4.946
10747TIP3    H232187   7.152   7.551   4.940
10748TIP3   OH232188   5.319   4.376   4.054
10748TIP3    H132189   5.309   4.343   4.143
10748TIP3    H232190   5.252   4.329   4.004
10749TIP3   OH232191   5.706   2.457   4.910
10749TIP3    H132192   5.653   2.445   4.832
10749TIP3    H232193   5.645   2.443   4.983
10750TIP3   OH232194   1.068   4.857   1.453
10750TIP3    H132195   1.058   4.913   1.376
10750TIP3    H232196   1.121   4.784   1.423
10751TIP3   OH232197   0.336   3.344   0.232
10751TIP3    H132198   0.393   3.389   0.295
10751TIP3    H232199   0.395   3.286   0.184
10752TIP3   OH232200   5.668   4.282   0.172
10752TIP3    H132201   5.625   4.275   0.087
10752TIP3    H232202   5.755   4.316   0.152
10753TIP3   OH232203   7.111   3.739   4.331
10753TIP3    H132204   7.030   3.784   4.357
10753TIP3    H232205   7.170   3.751   4.405
10754TIP3   OH232206   4.756   4.564   5.676
10754TIP3    H132207   4.716   4.505   5.612
10754TIP3    H232208   4.835   4.596   5.633
10755TIP3   OH232209   2.209   7.237   6.202
10755TIP3    H132210   2.188   7.276   6.117
10755TIP3    H232211   2.177   7.300   6.266
10756TIP3   OH232212   6.551   4.955   1.603
10756TIP3    H132213   6.504   5.023   1.554
10756TIP3    H232214   6.511   4.873   1.574
10757TIP3   OH232215   0.328   5.491   2.039
10757TIP3    H132216   0.419   5.517   2.023
10757TIP3    H232217   0.281   5.573   2.049
10758TIP3   OH232218   2.776   6.482   0.746
10758TIP3    H132219   2.844   6.464   0.681
10758TIP3    H232220   2.820   6.476   0.830
10759TIP3   OH232221   0.878   1.754   4.721
10759TIP3    H132222   0.793   1.711   4.722
10759TIP3    H232223   0.858   1.848   4.723
10760TIP3   OH232224   3.187   7.718   2.467
10760TIP3    H132225   3.148   7.631   2.458
10760TIP3    H232226   3.279   7.706   2.441
10761TIP3   OH232227   0.968   0.465   1.156
10761TIP3    H132228   1.051   0.503   1.182
10761TIP3    H232229   0.986   0.424   1.071
10762TIP3   OH232230   0.804   1.602   1.389
10762TIP3    H132231   0.821   1.601   1.295
10762TIP3    H232232   0.718   1.562   1.399
10763TIP3   OH232233   0.136   2.586   0.450
10763TIP3    H132234   0.210   2.596   0.391
10763TIP3    H232235   0.075   2.656   0.425
10764TIP3   OH232236   2.487   6.968   5.046
10764TIP3    H132237   2.573   6.928   5.037
10764TIP3    H232238   2.428   6.910   4.999
10765TIP3   OH232239   6.362   7.356   5.560
10765TIP3    H132240   6.351   7.289   5.627
10765TIP3    H232241   6.456   7.361   5.546
10766TIP3   OH232242   5.691   3.800   0.806
10766TIP3    H132243   5.643   3.869   0.761
10766TIP3    H232244   5.634   3.723   0.801
10767TIP3   OH232245   4.456   5.472   3.317
10767TIP3    H132246   4.393   5.402   3.301
10767TIP3    H232247   4.541   5.429   3.315
10768TIP3   OH232248   4.786   6.642   3.990
10768TIP3    H132249   4.797   6.698   3.912
10768TIP3    H232250   4.819   6.556   3.962
10769TIP3   OH232251   0.699   2.790   3.046
10769TIP3    H132252   0.741   2.860   3.096
10769TIP3    H232253   0.700   2.822   2.955
10770TIP3   OH232254   3.661   7.713   2.833
10770TIP3    H132255   3.583   7.768   2.821
10770TIP3    H232256   3.646   7.637   2.777
10771TIP3   OH232257   4.656   1.606   0.002
10771TIP3    H132258   4.741   1.565   0.022
10771TIP3    H232259   4.633   1.654   0.082
10772TIP3   OH232260   4.332   5.708   3.661
10772TIP3    H132261   4.301   5.627   3.621
10772TIP3    H232262   4.253   5.752   3.692
10773TIP3   OH232263   4.072   2.074   2.398
10773TIP3    H132264   4.087   2.060   2.304
10773TIP3    H232265   4.004   2.141   2.401
10774TIP3   OH232266   5.931   3.790   0.654
10774TIP3    H132267   5.965   3.843   0.726
10774TIP3    H232268   5.853   3.749   0.689
10775TIP3   OH232269   4.452   7.169   0.494
10775TIP3    H132270   4.508   7.122   0.433
10775TIP3    H232271   4.454   7.260   0.464
10776TIP3   OH232272   1.769   0.481   0.431
10776TIP3    H132273   1.800   0.555   0.378
10776TIP3    H232274   1.676   0.499   0.445
10777TIP3   OH232275   1.846   3.820   5.585
10777TIP3    H132276   1.864   3.900   5.534
10777TIP3    H232277   1.888   3.750   5.536
10778TIP3   OH232278   4.185   2.526   0.802
10778TIP3    H132279   4.214   2.450   0.852
10778TIP3    H232280   4.253   2.539   0.736
10779TIP3   OH232281   6.436   7.559   3.056
10779TIP3    H132282   6.466   7.476   3.020
10779TIP3    H232283   6.379   7.535   3.128
10780TIP3   OH232284   3.827   7.397   5.396
10780TIP3    H132285   3.818   7.379   5.303
10780TIP3    H232286   3.917   7.371   5.417
10781TIP3   OH232287   6.189   6.104   5.377
10781TIP3    H132288   6.157   6.023   5.418
10781TIP3    H232289   6.110   6.146   5.343
10782TIP3   OH232290   2.897   3.082   2.036
10782TIP3    H132291   2.951   3.160   2.020
10782TIP3    H232292   2.946   3.033   2.103
10783TIP3   OH232293   1.126   1.304   0.087
10783TIP3    H132294   1.095   1.337   0.003
10783TIP3    H232295   1.137   1.382   0.141
10784TIP3   OH232296   0.756   2.460   4.701
10784TIP3    H132297   0.683   2.503   4.745
10784TIP3    H232298   0.789   2.397   4.766
10785TIP3   OH232299   3.052   7.050   5.915
10785TIP3    H132300   3.106   6.998   5.975
10785TIP3    H232301   3.016   6.985   5.854
10786TIP3   OH232302   4.576   3.132   2.709
10786TIP3    H132303   4.552   3.140   2.616
10786TIP3    H232304   4.498   3.159   2.756
10787TIP3   OH232305   6.330   7.764   3.480
10787TIP3    H132306   6.269   7.719   3.422
10787TIP3    H232307   6.402   7.792   3.423
10788TIP3   OH232308   6.139   0.803   0.792
10788TIP3    H132309   6.044   0.794   0.784
10788TIP3    H232310   6.152   0.844   0.878
10789TIP3   OH232311   5.630   1.939   1.418
10789TIP3    H132312   5.571   2.007   1.386
10789TIP3    H232313   5.663   1.896   1.339
10790TIP3   OH232314   2.730   3.716   3.183
10790TIP3    H132315   2.685   3.714   3.098
10790TIP3    H232316   2.803   3.655   3.173
10791TIP3   OH232317   3.342   5.856   1.203
10791TIP3    H132318   3.254   5.877   1.234
10791TIP3    H232319   3.330   5.781   1.145
10792TIP3   OH232320   3.057   0.831   0.952
10792TIP3    H132321   2.999   0.843   0.877
10792TIP3    H232322   3.004   0.784   1.016
10793TIP3   OH232323   1.266   4.590   3.552
10793TIP3    H132324   1.220   4.661   3.597
10793TIP3    H232325   1.260   4.515   3.612
10794TIP3   OH232326   7.239   2.148   2.724
10794TIP3    H132327   7.261   2.148   2.817
10794TIP3    H232328   7.157   2.198   2.719
10795TIP3   OH232329   5.052   4.732   6.649
10795TIP3    H132330   5.029   4.815   6.690
10795TIP3    H232331   5.089   4.756   6.564
10796TIP3   OH232332   4.804   2.662   0.604
10796TIP3    H132333   4.740   2.600   0.570
10796TIP3    H232334   4.757   2.746   0.605
10797TIP3   OH232335   2.166   3.916   3.143
10797TIP3    H132336   2.183   3.832   3.102
10797TIP3    H232337   2.119   3.895   3.224
10798TIP3   OH232338   3.130   3.616   5.348
10798TIP3    H132339   3.036   3.605   5.330
10798TIP3    H232340   3.172   3.608   5.262
10799TIP3   OH232341   6.301   1.484   5.462
10799TIP3    H132342   6.382   1.476   5.513
10799TIP3    H232343   6.314   1.424   5.388
10800TIP3   OH232344   0.601   6.827   6.519
10800TIP3    H132345   0.642   6.838   6.433
10800TIP3    H232346   0.575   6.736   6.522
10801TIP3   OH232347   3.163   5.568   3.927
10801TIP3    H132348   3.210   5.584   3.845
10801TIP3    H232349   3.076   5.540   3.900
10802TIP3   OH232350   4.147   7.479   1.117
10802TIP3    H132351   4.177   7.392   1.092
10802TIP3    H232352   4.199   7.540   1.065
10803TIP3   OH232353   6.493   1.612   4.255
10803TIP3    H132354   6.501   1.595   4.349
10803TIP3    H232355   6.582   1.633   4.227
10804TIP3   OH232356   2.357   6.825   1.263
10804TIP3    H132357   2.381   6.879   1.188
10804TIP3    H232358   2.261   6.828   1.265
10805TIP3   OH232359   1.424   4.382   5.906
10805TIP3    H132360   1.347   4.333   5.933
10805TIP3    H232361   1.391   4.470   5.886
10806TIP3   OH232362   8.164   4.639   0.703
10806TIP3    H132363   8.186   4.607   0.791
10806TIP3    H232364   8.210   4.723   0.697
10807TIP3   OH232365   5.207   0.990   5.089
10807TIP3    H132366   5.148   0.926   5.047
10807TIP3    H232367   5.160   1.073   5.083
10808TIP3   OH232368   3.692   7.728   2.355
10808TIP3    H132369   3.696   7.690   2.267
10808TIP3    H232370   3.665   7.819   2.341
10809TIP3   OH232371   0.734   5.018   3.152
10809TIP3    H132372   0.783   5.074   3.091
10809TIP3    H232373   0.732   5.066   3.234
10810TIP3   OH232374   4.170   6.707   1.778
10810TIP3    H132375   4.166   6.670   1.690
10810TIP3    H232376   4.212   6.792   1.767
10811TIP3   OH232377   4.579   6.052   1.656
10811TIP3    H132378   4.660   6.032   1.609
10811TIP3    H232379   4.592   6.141   1.688
10812TIP3   OH232380   7.778   2.919   2.079
10812TIP3    H132381   7.842   2.851   2.059
10812TIP3    H232382   7.827   3.001   2.076
10813TIP3   OH232383   1.242   6.055   5.136
10813TIP3    H132384   1.251   5.975   5.085
10813TIP3    H232385   1.201   6.117   5.076
10814TIP3   OH232386   3.901   2.082   3.702
10814TIP3    H132387   3.937   2.144   3.766
10814TIP3    H232388   3.854   2.138   3.639
10815TIP3   OH232389   7.545   5.989   5.139
10815TIP3    H132390   7.596   5.913   5.167
10815TIP3    H232391   7.521   5.970   5.048
10816TIP3   OH232392   5.395   3.169   2.229
10816TIP3    H132393   5.316   3.166   2.175
10816TIP3    H232394   5.421   3.261   2.228
10817TIP3   OH232395   3.797   2.703   4.672
10817TIP3    H132396   3.769   2.794   4.659
10817TIP3    H232397   3.728   2.663   4.724
10818TIP3   OH232398   5.898   4.985   5.665
10818TIP3    H132399   5.852   5.069   5.660
10818TIP3    H232400   5.903   4.966   5.758
10819TIP3   OH232401   7.581   1.174   2.151
10819TIP3    H132402   7.619   1.247   2.200
10819TIP3    H232403   7.647   1.105   2.156
10820TIP3   OH232404   5.401   5.910   0.277
10820TIP3    H132405   5.381   5.954   0.194
10820TIP3    H232406   5.445   5.977   0.329
10821TIP3   OH232407   3.988   6.728   0.064
10821TIP3    H132408   4.069   6.677   0.065
10821TIP3    H232409   3.935   6.690   0.135
10822TIP3   OH232410   4.232   6.756   6.393
10822TIP3    H132411   4.203   6.817   6.325
10822TIP3    H232412   4.151   6.725   6.434
10823TIP3   OH232413   6.209   2.738   1.735
10823TIP3    H132414   6.165   2.698   1.810
10823TIP3    H232415   6.213   2.667   1.670
10824TIP3   OH232416   5.686   2.787   4.553
10824TIP3    H132417   5.647   2.704   4.524
10824TIP3    H232418   5.728   2.822   4.475
10825TIP3   OH232419   6.609   5.769   0.894
10825TIP3    H132420   6.563   5.833   0.839
10825TIP3    H232421   6.600   5.802   0.983
10826TIP3   OH232422   0.025   1.848   5.709
10826TIP3    H132423  -0.065   1.841   5.742
10826TIP3    H232424   0.047   1.941   5.717
10827TIP3   OH232425   0.111   7.459   3.865
10827TIP3    H132426   0.170   7.451   3.790
10827TIP3    H232427   0.169   7.463   3.941
10828TIP3   OH232428   5.158   7.264   5.899
10828TIP3    H132429   5.159   7.206   5.822
10828TIP3    H232430   5.216   7.221   5.961
10829TIP3   OH232431   6.042   5.910   1.334
10829TIP3    H132432   6.121   5.918   1.388
10829TIP3    H232433   6.033   5.995   1.291
10830TIP3   OH232434   2.231   6.759   0.595
10830TIP3    H132435   2.167   6.767   0.525
10830TIP3    H232436   2.288   6.687   0.568
10831TIP3   OH232437   5.993   5.716   1.577
10831TIP3    H132438   5.969   5.740   1.488
10831TIP3    H232439   6.084   5.687   1.570
10832TIP3   OH232440   8.247   2.051   5.352
10832TIP3    H132441   8.196   2.072   5.430
10832TIP3    H232442   8.244   2.131   5.299
10833TIP3   OH232443   3.915   7.607   4.229
10833TIP3    H132444   3.870   7.557   4.161
10833TIP3    H232445   4.007   7.580   4.222
10834TIP3   OH232446   6.569   0.619   4.955
10834TIP3    H132447   6.657   0.598   4.924
10834TIP3    H232448   6.577   0.706   4.993
10835TIP3   OH232449   3.390   6.729   4.992
10835TIP3    H132450   3.307   6.763   4.958
10835TIP3    H232451   3.384   6.740   5.087
10836TIP3   OH232452   2.171   5.730   2.314
10836TIP3    H132453   2.193   5.766   2.228
10836TIP3    H232454   2.161   5.637   2.299
10837TIP3   OH232455   5.007   7.232   0.180
10837TIP3    H132456   5.093   7.249   0.142
10837TIP3    H232457   4.978   7.317   0.214
10838TIP3   OH232458   4.156   7.107   1.932
10838TIP3    H132459   4.117   7.021   1.917
10838TIP3    H232460   4.087   7.158   1.974
10839TIP3   OH232461   7.506   6.520   6.107
10839TIP3    H132462   7.464   6.605   6.120
10839TIP3    H232463   7.510   6.482   6.195
10840TIP3   OH232464   1.363   7.734   1.797
10840TIP3    H132465   1.414   7.776   1.729
10840TIP3    H232466   1.424   7.725   1.871
10841TIP3   OH232467   2.593   3.785   5.547
10841TIP3    H132468   2.542   3.788   5.628
10841TIP3    H232469   2.644   3.866   5.548
10842TIP3   OH232470   5.185   6.497   3.003
10842TIP3    H132471   5.094   6.512   2.977
10842TIP3    H232472   5.180   6.477   3.097
10843TIP3   OH232473   4.284   6.105   2.185
10843TIP3    H132474   4.288   6.200   2.194
10843TIP3    H232475   4.337   6.086   2.108
10844TIP3   OH232476   6.641   1.225   5.875
10844TIP3    H132477   6.617   1.262   5.790
10844TIP3    H232478   6.694   1.294   5.916
10845TIP3   OH232479   4.965   7.109   6.738
10845TIP3    H132480   4.917   7.041   6.691
10845TIP3    H232481   5.026   7.144   6.673
10846TIP3   OH232482   5.434   0.990   1.540
10846TIP3    H132483   5.397   1.076   1.559
10846TIP3    H232484   5.374   0.951   1.477
10847TIP3   OH232485   3.138   2.416   5.144
10847TIP3    H132486   3.175   2.349   5.087
10847TIP3    H232487   3.208   2.436   5.206
10848TIP3   OH232488   1.247   0.356   2.179
10848TIP3    H132489   1.258   0.448   2.157
10848TIP3    H232490   1.152   0.344   2.189
10849TIP3   OH232491   7.245   4.277   2.927
10849TIP3    H132492   7.251   4.363   2.969
10849TIP3    H232493   7.158   4.245   2.951
10850TIP3   OH232494   3.414   4.331   6.825
10850TIP3    H132495   3.388   4.390   6.754
10850TIP3    H232496   3.384   4.245   6.797
10851TIP3   OH232497   8.048   0.887   4.783
10851TIP3    H132498   8.091   0.839   4.854
10851TIP3    H232499   7.977   0.829   4.755
10852TIP3   OH232500   3.770   4.380   1.140
10852TIP3    H132501   3.726   4.341   1.215
10852TIP3    H232502   3.860   4.392   1.169
10853TIP3   OH232503   7.284   1.264   0.793
10853TIP3    H132504   7.252   1.183   0.755
10853TIP3    H232505   7.357   1.290   0.738
10854TIP3   OH232506   2.344   5.296   4.645
10854TIP3    H132507   2.291   5.295   4.724
10854TIP3    H232508   2.376   5.206   4.636
10855TIP3   OH232509   2.784   7.053   0.318
10855TIP3    H132510   2.847   7.003   0.370
10855TIP3    H232511   2.837   7.122   0.277
10856TIP3   OH232512   5.799   2.697   3.617
10856TIP3    H132513   5.832   2.618   3.574
10856TIP3    H232514   5.876   2.734   3.661
10857TIP3   OH232515   0.393   4.336   3.807
10857TIP3    H132516   0.320   4.341   3.745
10857TIP3    H232517   0.360   4.279   3.877
10858TIP3   OH232518   2.615   6.134   5.276
10858TIP3    H132519   2.663   6.065   5.231
10858TIP3    H232520   2.682   6.190   5.315
10859TIP3   OH232521   2.307   1.717   1.472
10859TIP3    H132522   2.221   1.684   1.499
10859TIP3    H232523   2.320   1.681   1.384
10860TIP3   OH232524   2.840   3.954   4.299
10860TIP3    H132525   2.892   3.918   4.371
10860TIP3    H232526   2.881   4.039   4.281
10861TIP3   OH232527   4.780   7.195   0.398
10861TIP3    H132528   4.861   7.144   0.399
10861TIP3    H232529   4.755   7.198   0.305
10862TIP3   OH232530   6.684   1.747   1.779
10862TIP3    H132531   6.668   1.819   1.719
10862TIP3    H232532   6.751   1.694   1.735
10863TIP3   OH232533   4.636   2.103   1.293
10863TIP3    H132534   4.691   2.178   1.316
10863TIP3    H232535   4.665   2.077   1.206
10864TIP3   OH232536   4.623   7.677   6.203
10864TIP3    H132537   4.662   7.632   6.278
10864TIP3    H232538   4.689   7.742   6.177
10865TIP3   OH232539   5.486   7.289   6.348
10865TIP3    H132540   5.450   7.328   6.268
10865TIP3    H232541   5.459   7.198   6.344
10866TIP3   OH232542   4.941   4.098   5.537
10866TIP3    H132543   4.955   4.148   5.457
10866TIP3    H232544   4.905   4.162   5.599
10867TIP3   OH232545   4.375   3.400   3.951
10867TIP3    H132546   4.327   3.445   3.882
10867TIP3    H232547   4.317   3.328   3.978
10868TIP3   OH232548   0.309   6.467   0.555
10868TIP3    H132549   0.218   6.462   0.582
10868TIP3    H232550   0.313   6.546   0.501
10869TIP3   OH232551   1.561   0.187   4.657
10869TIP3    H132552   1.631   0.193   4.592
10869TIP3    H232553   1.541   0.278   4.679
10870TIP3   OH232554   8.045   0.573   5.448
10870TIP3    H132555   7.989   0.592   5.373
10870TIP3    H232556   7.990   0.519   5.506
10871TIP3   OH232557   1.815   2.594   0.601
10871TIP3    H132558   1.756   2.641   0.543
10871TIP3    H232559   1.796   2.502   0.588
10872TIP3   OH232560   5.874   7.302   2.161
10872TIP3    H132561   5.846   7.302   2.253
10872TIP3    H232562   5.826   7.230   2.121
10873TIP3   OH232563   4.869   5.305   4.417
10873TIP3    H132564   4.897   5.267   4.334
10873TIP3    H232565   4.778   5.332   4.401
10874TIP3   OH232566   6.357   1.507   6.656
10874TIP3    H132567   6.420   1.453   6.608
10874TIP3    H232568   6.292   1.444   6.689
10875TIP3   OH232569   3.382   4.069   1.286
10875TIP3    H132570   3.329   4.038   1.360
10875TIP3    H232571   3.472   4.063   1.316
10876TIP3   OH232572   3.550   3.852   5.788
10876TIP3    H132573   3.556   3.812   5.874
10876TIP3    H232574   3.520   3.941   5.804
10877TIP3   OH232575   3.398   3.589   0.363
10877TIP3    H132576   3.450   3.515   0.394
10877TIP3    H232577   3.315   3.581   0.411
10878TIP3   OH232578   5.129   4.981   3.727
10878TIP3    H132579   5.149   4.997   3.635
10878TIP3    H232580   5.210   5.003   3.774
10879TIP3   OH232581   2.480   5.212   5.763
10879TIP3    H132582   2.386   5.212   5.746
10879TIP3    H232583   2.493   5.141   5.826
10880TIP3   OH232584   7.956   6.433   5.126
10880TIP3    H132585   7.902   6.500   5.166
10880TIP3    H232586   7.957   6.454   5.033
10881TIP3   OH232587   2.426   5.100   4.160
10881TIP3    H132588   2.465   5.137   4.081
10881TIP3    H232589   2.337   5.077   4.135
10882TIP3   OH232590   3.502   5.424   1.138
10882TIP3    H132591   3.472   5.333   1.142
10882TIP3    H232592   3.423   5.475   1.125
10883TIP3   OH232593   7.370   0.518   0.458
10883TIP3    H132594   7.348   0.538   0.367
10883TIP3    H232595   7.289   0.536   0.507
10884TIP3   OH232596   5.102   2.693   5.456
10884TIP3    H132597   5.009   2.709   5.473
10884TIP3    H232598   5.106   2.599   5.435
10885TIP3   OH232599   4.529   6.336   3.864
10885TIP3    H132600   4.580   6.296   3.793
10885TIP3    H232601   4.583   6.325   3.942
10886TIP3   OH232602   3.369   4.239   6.287
10886TIP3    H132603   3.289   4.187   6.274
10886TIP3    H232604   3.434   4.174   6.316
10887TIP3   OH232605   4.811   1.686   5.232
10887TIP3    H132606   4.761   1.654   5.157
10887TIP3    H232607   4.872   1.615   5.252
10888TIP3   OH232608   3.781   2.156   1.720
10888TIP3    H132609   3.741   2.096   1.657
10888TIP3    H232610   3.721   2.154   1.795
10889TIP3   OH232611   6.398   2.189   1.891
10889TIP3    H132612   6.484   2.173   1.931
10889TIP3    H232613   6.371   2.103   1.858
10890TIP3   OH232614   7.675   2.499   3.220
10890TIP3    H132615   7.643   2.574   3.170
10890TIP3    H232616   7.596   2.457   3.254
10891TIP3   OH232617   1.917   7.530   1.229
10891TIP3    H132618   2.001   7.547   1.272
10891TIP3    H232619   1.883   7.452   1.273
10892TIP3   OH232620   0.778   2.379   4.417
10892TIP3    H132621   0.837   2.452   4.396
10892TIP3    H232622   0.765   2.384   4.511
10893TIP3   OH232623   0.484   5.123   6.049
10893TIP3    H132624   0.558   5.168   6.090
10893TIP3    H232625   0.408   5.151   6.099
10894TIP3   OH232626   0.235   6.065   1.407
10894TIP3    H132627   0.230   6.037   1.316
10894TIP3    H232628   0.242   5.984   1.457
10895TIP3   OH232629   1.619   1.352   3.985
10895TIP3    H132630   1.524   1.359   3.994
10895TIP3    H232631   1.652   1.354   4.074
10896TIP3   OH232632   4.887   2.129   5.605
10896TIP3    H132633   4.864   2.072   5.532
10896TIP3    H232634   4.807   2.135   5.657
10897TIP3   OH232635   3.113   7.686   1.062
10897TIP3    H132636   3.087   7.682   1.155
10897TIP3    H232637   3.154   7.601   1.046
10898TIP3   OH232638   0.878   3.586   2.565
10898TIP3    H132639   0.961   3.600   2.610
10898TIP3    H232640   0.867   3.662   2.509
10899TIP3   OH232641   8.255   3.701   0.538
10899TIP3    H132642   8.282   3.635   0.601
10899TIP3    H232643   8.179   3.743   0.579
10900TIP3   OH232644   8.110   6.573   0.744
10900TIP3    H132645   8.059   6.533   0.674
10900TIP3    H232646   8.112   6.666   0.722
10901TIP3   OH232647   8.174   7.161   2.962
10901TIP3    H132648   8.080   7.163   2.944
10901TIP3    H232649   8.216   7.158   2.876
10902TIP3   OH232650   1.516   3.568   6.383
10902TIP3    H132651   1.430   3.577   6.343
10902TIP3    H232652   1.498   3.530   6.469
10903TIP3   OH232653   3.163   2.060   4.837
10903TIP3    H132654   3.080   2.068   4.788
10903TIP3    H232655   3.214   2.136   4.809
10904TIP3   OH232656   4.784   2.699   2.580
10904TIP3    H132657   4.822   2.686   2.493
10904TIP3    H232658   4.859   2.706   2.639
10905TIP3   OH232659   7.799   2.459   2.910
10905TIP3    H132660   7.800   2.430   2.819
10905TIP3    H232661   7.890   2.483   2.928
10906TIP3   OH232662   1.040   1.505   4.290
10906TIP3    H132663   0.987   1.584   4.289
10906TIP3    H232664   1.021   1.465   4.375
10907TIP3   OH232665   3.049   5.195   2.826
10907TIP3    H132666   3.019   5.152   2.746
10907TIP3    H232667   3.107   5.264   2.795
10908TIP3   OH232668   8.012   1.109   0.478
10908TIP3    H132669   8.088   1.151   0.439
10908TIP3    H232670   8.029   1.015   0.468
10909TIP3   OH232671   5.161   7.462   2.290
10909TIP3    H132672   5.237   7.519   2.279
10909TIP3    H232673   5.194   7.374   2.270
10910TIP3   OH232674   6.802   4.207   5.614
10910TIP3    H132675   6.840   4.294   5.606
10910TIP3    H232676   6.858   4.152   5.559
10911TIP3   OH232677   3.101   6.951   0.131
10911TIP3    H132678   3.104   7.020   0.196
10911TIP3    H232679   3.065   6.875   0.178
10912TIP3   OH232680   4.418   1.910   0.890
10912TIP3    H132681   4.421   1.847   0.818
10912TIP3    H232682   4.503   1.903   0.933
10913TIP3   OH232683   7.354   2.992   6.255
10913TIP3    H132684   7.307   2.971   6.335
10913TIP3    H232685   7.285   3.010   6.191
10914TIP3   OH232686   2.813   2.006   2.816
10914TIP3    H132687   2.840   2.094   2.790
10914TIP3    H232688   2.887   1.972   2.866
10915TIP3   OH232689   8.169   5.778   4.293
10915TIP3    H132690   8.238   5.808   4.352
10915TIP3    H232691   8.212   5.719   4.232
10916TIP3   OH232692   1.960   5.336   3.996
10916TIP3    H132693   1.926   5.329   4.085
10916TIP3    H232694   1.912   5.410   3.957
10917TIP3   OH232695   1.922   6.527   4.981
10917TIP3    H132696   2.015   6.512   4.991
10917TIP3    H232697   1.880   6.457   5.032
10918TIP3   OH232698   6.656   1.936   1.567
10918TIP3    H132699   6.711   1.975   1.499
10918TIP3    H232700   6.577   1.908   1.522
10919TIP3   OH232701   7.370   3.645   1.067
10919TIP3    H132702   7.462   3.624   1.047
10919TIP3    H232703   7.322   3.619   0.988
10920TIP3   OH232704   4.673   3.560   0.837
10920TIP3    H132705   4.712   3.500   0.900
10920TIP3    H232706   4.583   3.529   0.825
10921TIP3   OH232707   7.944   1.255   2.464
10921TIP3    H132708   7.992   1.246   2.382
10921TIP3    H232709   8.011   1.261   2.531
10922TIP3   OH232710   4.458   1.209   1.003
10922TIP3    H132711   4.435   1.268   0.930
10922TIP3    H232712   4.520   1.260   1.056
10923TIP3   OH232713   7.669   7.357   5.582
10923TIP3    H132714   7.656   7.436   5.635
10923TIP3    H232715   7.727   7.385   5.511
10924TIP3   OH232716   1.735   1.828   6.107
10924TIP3    H132717   1.769   1.748   6.067
10924TIP3    H232718   1.771   1.827   6.196
10925TIP3   OH232719   0.417   5.109   3.906
10925TIP3    H132720   0.383   5.030   3.864
10925TIP3    H232721   0.371   5.181   3.863
10926TIP3   OH232722   5.340   7.029   1.187
10926TIP3    H132723   5.334   6.935   1.203
10926TIP3    H232724   5.338   7.037   1.091
10927TIP3   OH232725   4.004   3.585   0.019
10927TIP3    H132726   4.054   3.587  -0.063
10927TIP3    H232727   3.947   3.662   0.014
10928TIP3   OH232728   7.057   3.128   0.207
10928TIP3    H132729   7.018   3.207   0.168
10928TIP3    H232730   7.042   3.059   0.142
10929TIP3   OH232731   6.833   6.573   6.625
10929TIP3    H132732   6.890   6.605   6.555
10929TIP3    H232733   6.815   6.482   6.602
10930TIP3   OH232734   4.266   1.397   5.955
10930TIP3    H132735   4.199   1.419   5.890
10930TIP3    H232736   4.332   1.349   5.906
10931TIP3   OH232737   4.012   4.358   4.532
10931TIP3    H132738   4.060   4.291   4.580
10931TIP3    H232739   3.920   4.336   4.545
10932TIP3   OH232740   6.998   7.487   4.060
10932TIP3    H132741   7.010   7.411   4.118
10932TIP3    H232742   6.984   7.561   4.119
10933TIP3   OH232743   8.019   3.317   2.845
10933TIP3    H132744   8.001   3.333   2.938
10933TIP3    H232745   8.048   3.226   2.841
10934TIP3   OH232746   1.883   2.230   0.194
10934TIP3    H132747   1.887   2.275   0.109
10934TIP3    H232748   1.972   2.199   0.208
10935TIP3   OH232749   4.616   0.247   1.914
10935TIP3    H132750   4.565   0.228   1.993
10935TIP3    H232751   4.699   0.280   1.946
10936TIP3   OH232752   4.004   4.555   6.731
10936TIP3    H132753   4.053   4.631   6.702
10936TIP3    H232754   3.998   4.499   6.654
10937TIP3   OH232755   2.122   1.303   2.245
10937TIP3    H132756   2.111   1.236   2.314
10937TIP3    H232757   2.179   1.261   2.181
10938TIP3   OH232758   6.399   3.841   4.712
10938TIP3    H132759   6.385   3.921   4.763
10938TIP3    H232760   6.314   3.798   4.712
10939TIP3   OH232761   6.565   4.794   0.650
10939TIP3    H132762   6.538   4.707   0.680
10939TIP3    H232763   6.621   4.777   0.575
10940TIP3   OH232764   6.858   5.015   1.124
10940TIP3    H132765   6.815   5.080   1.180
10940TIP3    H232766   6.929   4.979   1.177
10941TIP3   OH232767   3.163   6.182   1.674
10941TIP3    H132768   3.073   6.153   1.660
10941TIP3    H232769   3.202   6.179   1.587
10942TIP3   OH232770   2.643   4.635   2.477
10942TIP3    H132771   2.649   4.573   2.404
10942TIP3    H232772   2.557   4.676   2.467
10943TIP3   OH232773   5.250   1.300   6.163
10943TIP3    H132774   5.182   1.330   6.104
10943TIP3    H232775   5.318   1.368   6.158
10944TIP3   OH232776   1.964   2.318   5.929
10944TIP3    H132777   1.872   2.343   5.932
10944TIP3    H232778   1.988   2.326   5.837
10945TIP3   OH232779   1.895   0.614   0.062
10945TIP3    H132780   1.920   0.522   0.060
10945TIP3    H232781   1.967   0.659   0.017
10946TIP3   OH232782   7.740   1.970   3.645
10946TIP3    H132783   7.654   1.956   3.686
10946TIP3    H232784   7.784   1.885   3.651
10947TIP3   OH232785   5.523   1.452   5.922
10947TIP3    H132786   5.556   1.433   5.834
10947TIP3    H232787   5.539   1.545   5.934
10948TIP3   OH232788   1.773   3.955   1.251
10948TIP3    H132789   1.750   4.005   1.329
10948TIP3    H232790   1.783   4.020   1.182
10949TIP3   OH232791   4.600   5.054   0.986
10949TIP3    H132792   4.589   5.096   0.901
10949TIP3    H232793   4.523   5.081   1.037
10950TIP3   OH232794   2.444   0.596   5.637
10950TIP3    H132795   2.474   0.520   5.589
10950TIP3    H232796   2.374   0.563   5.693
10951TIP3   OH232797   3.352   1.133   5.979
10951TIP3    H132798   3.356   1.193   6.054
10951TIP3    H232799   3.442   1.129   5.947
10952TIP3   OH232800   3.471   3.162   3.590
10952TIP3    H132801   3.406   3.168   3.659
10952TIP3    H232802   3.479   3.252   3.557
10953TIP3   OH232803   3.349   1.319   0.524
10953TIP3    H132804   3.406   1.246   0.504
10953TIP3    H232805   3.281   1.316   0.458
10954TIP3   OH232806   6.129   3.815   4.518
10954TIP3    H132807   6.035   3.832   4.508
10954TIP3    H232808   6.135   3.758   4.595
10955TIP3   OH232809   5.113   1.962   4.567
10955TIP3    H132810   5.163   1.980   4.488
10955TIP3    H232811   5.024   1.991   4.547
10956TIP3   OH232812   1.743   3.834   2.102
10956TIP3    H132813   1.690   3.821   2.024
10956TIP3    H232814   1.761   3.746   2.134
10957TIP3   OH232815   7.486   0.849   5.629
10957TIP3    H132816   7.497   0.755   5.623
10957TIP3    H232817   7.461   0.876   5.540
10958TIP3   OH232818   1.109   2.966   1.985
10958TIP3    H132819   1.094   2.947   1.892
10958TIP3    H232820   1.022   2.977   2.022
10959TIP3   OH232821   0.157   3.083   0.230
10959TIP3    H132822   0.138   3.116   0.142
10959TIP3    H232823   0.249   3.104   0.244
10960TIP3   OH232824   8.300   7.508   1.353
10960TIP3    H132825   8.358   7.489   1.279
10960TIP3    H232826   8.237   7.435   1.352
10961TIP3   OH232827   3.167   7.183   2.390
10961TIP3    H132828   3.148   7.115   2.453
10961TIP3    H232829   3.165   7.139   2.305
10962TIP3   OH232830   5.442   3.396   0.201
10962TIP3    H132831   5.474   3.486   0.191
10962TIP3    H232832   5.347   3.404   0.198
10963TIP3   OH232833   6.792   4.411   0.280
10963TIP3    H132834   6.787   4.434   0.373
10963TIP3    H232835   6.703   4.420   0.248
10964TIP3   OH232836   3.665   4.742   0.344
10964TIP3    H132837   3.751   4.782   0.329
10964TIP3    H232838   3.645   4.761   0.435
10965TIP3   OH232839   5.027   7.787   1.075
10965TIP3    H132840   4.982   7.775   1.159
10965TIP3    H232841   4.974   7.738   1.012
10966TIP3   OH232842   3.618   1.295   1.550
10966TIP3    H132843   3.703   1.327   1.520
10966TIP3    H232844   3.623   1.200   1.538
10967TIP3   OH232845   2.837   5.872   2.706
10967TIP3    H132846   2.826   5.780   2.682
10967TIP3    H232847   2.828   5.874   2.801
10968TIP3   OH232848   4.201   4.553   2.674
10968TIP3    H132849   4.160   4.507   2.748
10968TIP3    H232850   4.271   4.605   2.714
10969TIP3   OH232851   4.472   3.885   1.974
10969TIP3    H132852   4.524   3.937   1.912
10969TIP3    H232853   4.383   3.920   1.965
10970TIP3   OH232854   6.816   6.955   3.875
10970TIP3    H132855   6.729   6.985   3.848
10970TIP3    H232856   6.798   6.882   3.934
10971TIP3   OH232857   7.775   7.254   3.274
10971TIP3    H132858   7.842   7.186   3.265
10971TIP3    H232859   7.799   7.321   3.211
10972TIP3   OH232860   5.464   4.243   4.907
10972TIP3    H132861   5.419   4.286   4.834
10972TIP3    H232862   5.554   4.277   4.903
10973TIP3   OH232863   4.267   5.431   3.567
10973TIP3    H132864   4.329   5.388   3.625
10973TIP3    H232865   4.273   5.383   3.485
10974TIP3   OH232866   3.812   6.497   1.432
10974TIP3    H132867   3.884   6.513   1.493
10974TIP3    H232868   3.744   6.454   1.485
10975TIP3   OH232869   0.552   3.198   3.439
10975TIP3    H132870   0.577   3.115   3.480
10975TIP3    H232871   0.458   3.190   3.425
10976TIP3   OH232872   1.734   3.403   4.026
10976TIP3    H132873   1.700   3.352   3.952
10976TIP3    H232874   1.718   3.494   4.001
10977TIP3   OH232875   7.888   3.632   4.141
10977TIP3    H132876   7.935   3.715   4.148
10977TIP3    H232877   7.931   3.574   4.205
10978TIP3   OH232878   4.986   2.590   2.398
10978TIP3    H132879   4.991   2.553   2.310
10978TIP3    H232880   5.026   2.677   2.390
10979TIP3   OH232881   3.382   2.544   3.056
10979TIP3    H132882   3.477   2.533   3.062
10979TIP3    H232883   3.370   2.635   3.030
10980TIP3   OH232884   1.024   3.039   4.317
10980TIP3    H132885   0.999   2.959   4.272
10980TIP3    H232886   1.120   3.037   4.318
10981TIP3   OH232887   4.526   4.500   2.358
10981TIP3    H132888   4.462   4.447   2.406
10981TIP3    H232889   4.611   4.464   2.385
10982TIP3   OH232890   6.206   0.831   0.471
10982TIP3    H132891   6.211   0.926   0.457
10982TIP3    H232892   6.155   0.799   0.397
10983TIP3   OH232893   1.567   4.876   6.453
10983TIP3    H132894   1.477   4.870   6.420
10983TIP3    H232895   1.590   4.968   6.442
10984TIP3   OH232896   3.787   2.519   5.797
10984TIP3    H132897   3.735   2.438   5.793
10984TIP3    H232898   3.780   2.555   5.708
10985TIP3   OH232899   3.348   7.601   0.009
10985TIP3    H132900   3.262   7.577   0.046
10985TIP3    H232901   3.406   7.603   0.085
10986TIP3   OH232902   6.870   2.426   0.703
10986TIP3    H132903   6.923   2.375   0.641
10986TIP3    H232904   6.895   2.517   0.686
10987TIP3   OH232905   1.939   2.574   5.303
10987TIP3    H132906   1.926   2.574   5.209
10987TIP3    H232907   1.900   2.656   5.333
10988TIP3   OH232908   3.272   0.658   0.010
10988TIP3    H132909   3.227   0.576   0.029
10988TIP3    H232910   3.348   0.658   0.068
10989TIP3   OH232911   7.932   5.983   0.322
10989TIP3    H132912   7.877   6.014   0.250
10989TIP3    H232913   7.967   5.900   0.291
10990TIP3   OH232914   6.212   4.269   4.347
10990TIP3    H132915   6.255   4.291   4.264
10990TIP3    H232916   6.283   4.234   4.401
10991TIP3   OH232917   4.256   3.672   2.034
10991TIP3    H132918   4.334   3.675   2.089
10991TIP3    H232919   4.213   3.590   2.059
10992TIP3   OH232920   1.113   0.846   0.325
10992TIP3    H132921   1.114   0.941   0.331
10992TIP3    H232922   1.030   0.819   0.364
10993TIP3   OH232923   4.992   5.700   6.157
10993TIP3    H132924   5.061   5.635   6.161
10993TIP3    H232925   5.036   5.781   6.131
10994TIP3   OH232926   2.892   0.781   2.951
10994TIP3    H132927   2.818   0.803   3.007
10994TIP3    H232928   2.968   0.821   2.994
10995TIP3   OH232929   6.105   2.263   3.438
10995TIP3    H132930   6.172   2.308   3.490
10995TIP3    H232931   6.154   2.218   3.369
10996TIP3   OH232932   5.075   5.045   5.821
10996TIP3    H132933   5.074   5.032   5.915
10996TIP3    H232934   5.072   4.956   5.785
10997TIP3   OH232935   1.877   0.639   1.171
10997TIP3    H132936   1.886   0.613   1.263
10997TIP3    H232937   1.848   0.559   1.127
10998TIP3   OH232938   5.483   6.363   4.415
10998TIP3    H132939   5.468   6.446   4.460
10998TIP3    H232940   5.566   6.332   4.449
10999TIP3   OH232941   5.012   1.104   5.733
10999TIP3    H132942   4.960   1.053   5.670
10999TIP3    H232943   4.957   1.107   5.812
11000TIP3   OH232944   4.902   1.881   0.726
11000TIP3    H132945   4.977   1.832   0.761
11000TIP3    H232946   4.850   1.902   0.803
11001TIP3   OH232947   0.367   7.059   4.251
11001TIP3    H132948   0.398   7.150   4.245
11001TIP3    H232949   0.334   7.040   4.163
11002TIP3   OH232950   1.789   4.279   0.919
11002TIP3    H132951   1.767   4.304   0.829
11002TIP3    H232952   1.736   4.337   0.974
11003TIP3   OH232953   3.890   0.977   4.065
11003TIP3    H132954   3.959   0.992   4.129
11003TIP3    H232955   3.865   0.885   4.077
11004TIP3   OH232956   7.462   5.308   2.550
11004TIP3    H132957   7.444   5.389   2.598
11004TIP3    H232958   7.515   5.336   2.475
11005TIP3   OH232959   7.425   5.533   1.290
11005TIP3    H132960   7.507   5.581   1.278
11005TIP3    H232961   7.448   5.442   1.273
11006TIP3   OH232962   5.619   5.909   5.247
11006TIP3    H132963   5.531   5.902   5.210
11006TIP3    H232964   5.645   5.818   5.265
11007TIP3   OH232965   5.161   3.772   0.850
11007TIP3    H132966   5.161   3.867   0.864
11007TIP3    H232967   5.119   3.736   0.928
11008TIP3   OH232968   5.342   4.336   5.268
11008TIP3    H132969   5.273   4.297   5.214
11008TIP3    H232970   5.298   4.364   5.348
11009TIP3   OH232971   3.840   2.292   5.140
11009TIP3    H132972   3.865   2.384   5.142
11009TIP3    H232973   3.890   2.252   5.210
11010TIP3   OH232974   1.268   6.084   4.693
11010TIP3    H132975   1.265   6.047   4.605
11010TIP3    H232976   1.359   6.074   4.720
11011TIP3   OH232977   1.041   6.218   2.605
11011TIP3    H132978   0.968   6.272   2.572
11011TIP3    H232979   0.999   6.137   2.633
11012TIP3   OH232980   4.734   3.645   1.530
11012TIP3    H132981   4.756   3.725   1.481
11012TIP3    H232982   4.780   3.655   1.614
11013TIP3   OH232983   0.393   1.844   5.301
11013TIP3    H132984   0.328   1.882   5.360
11013TIP3    H232985   0.467   1.903   5.306
11014TIP3   OH232986   5.619   3.798   6.703
11014TIP3    H132987   5.700   3.849   6.699
11014TIP3    H232988   5.549   3.862   6.688
11015TIP3   OH232989   1.740   7.006   5.419
11015TIP3    H132990   1.678   7.039   5.354
11015TIP3    H232991   1.760   6.917   5.390
11016TIP3   OH232992   6.077   0.407   0.256
11016TIP3    H132993   6.101   0.362   0.337
11016TIP3    H232994   5.982   0.396   0.251
11017TIP3   OH232995   7.308   1.511   6.625
11017TIP3    H132996   7.340   1.426   6.656
11017TIP3    H232997   7.227   1.526   6.674
11018TIP3   OH232998   4.493  -0.016   3.588
11018TIP3    H132999   4.523   0.022   3.671
11018TIP3    H233000   4.518   0.049   3.522
11019TIP3   OH233001   7.017   1.624   0.262
11019TIP3    H133002   6.959   1.685   0.217
11019TIP3    H233003   7.087   1.606   0.199
11020TIP3   OH233004   8.298   6.783   4.715
11020TIP3    H133005   8.207   6.809   4.728
11020TIP3    H233006   8.300   6.747   4.627
11021TIP3   OH233007   3.069   1.840   2.340
11021TIP3    H133008   2.997   1.834   2.403
11021TIP3    H233009   3.084   1.749   2.313
11022TIP3   OH233010   6.241   0.256   6.629
11022TIP3    H133011   6.225   0.331   6.572
11022TIP3    H233012   6.294   0.291   6.701
11023TIP3   OH233013   4.722   7.151   2.102
11023TIP3    H133014   4.779   7.221   2.071
11023TIP3    H233015   4.709   7.170   2.194
11024TIP3   OH233016   0.721   6.821   5.895
11024TIP3    H133017   0.701   6.903   5.941
11024TIP3    H233018   0.642   6.802   5.844
11025TIP3   OH233019   0.223   2.615   3.308
11025TIP3    H133020   0.303   2.654   3.274
11025TIP3    H233021   0.160   2.688   3.311
11026TIP3   OH233022   6.562   2.970   4.663
11026TIP3    H133023   6.536   3.020   4.741
11026TIP3    H233024   6.491   2.986   4.601
11027TIP3   OH233025   6.607   3.222   2.398
11027TIP3    H133026   6.627   3.245   2.489
11027TIP3    H233027   6.689   3.238   2.351
11028TIP3   OH233028   3.801   0.039   5.359
11028TIP3    H133029   3.864   0.098   5.399
11028TIP3    H233030   3.826  -0.048   5.391
11029TIP3   OH233031   2.378   7.013   2.050
11029TIP3    H133032   2.467   7.024   2.084
11029TIP3    H233033   2.335   7.096   2.070
11030TIP3   OH233034   2.931   1.602   2.244
11030TIP3    H133035   2.836   1.613   2.253
11030TIP3    H233036   2.946   1.602   2.149
11031TIP3   OH233037   2.112   4.149   2.400
11031TIP3    H133038   2.098   4.235   2.360
11031TIP3    H233039   2.207   4.136   2.394
11032TIP3   OH233040   2.715   0.037   5.133
11032TIP3    H133041   2.621   0.025   5.118
11032TIP3    H233042   2.745   0.084   5.055
11033TIP3   OH233043   3.017   4.711   1.924
11033TIP3    H133044   3.035   4.804   1.909
11033TIP3    H233045   3.091   4.666   1.883
11034TIP3   OH233046   6.037   4.204   6.737
11034TIP3    H133047   6.036   4.224   6.830
11034TIP3    H233048   5.947   4.222   6.708
11035TIP3   OH233049   7.364   0.676   3.524
11035TIP3    H133050   7.352   0.651   3.432
11035TIP3    H233051   7.374   0.772   3.522
11036TIP3   OH233052   6.555   1.312   4.723
11036TIP3    H133053   6.481   1.251   4.723
11036TIP3    H233054   6.632   1.257   4.738
11037TIP3   OH233055   1.759   5.099   2.908
11037TIP3    H133056   1.690   5.037   2.884
11037TIP3    H233057   1.730   5.136   2.992
11038TIP3   OH233058   1.032   6.963   5.300
11038TIP3    H133059   1.067   7.037   5.349
11038TIP3    H233060   0.966   6.925   5.358
11039TIP3   OH233061   4.071   0.985   4.883
11039TIP3    H133062   4.055   1.076   4.907
11039TIP3    H233063   4.017   0.970   4.806
11040TIP3   OH233064   6.563   6.118   6.095
11040TIP3    H133065   6.650   6.155   6.080
11040TIP3    H233066   6.541   6.144   6.184
11041TIP3   OH233067   4.375   0.198   5.677
11041TIP3    H133068   4.381   0.267   5.742
11041TIP3    H233069   4.449   0.212   5.619
11042TIP3   OH233070   3.003   5.349   1.524
11042TIP3    H133071   3.010   5.382   1.614
11042TIP3    H233072   2.932   5.285   1.527
11043TIP3   OH233073   2.276   0.449   3.979
11043TIP3    H133074   2.316   0.512   3.919
11043TIP3    H233075   2.232   0.387   3.922
11044TIP3   OH233076   7.607   6.136   1.251
11044TIP3    H133077   7.583   6.157   1.341
11044TIP3    H233078   7.590   6.216   1.202
11045TIP3   OH233079   4.963   5.062   2.081
11045TIP3    H133080   4.917   5.145   2.071
11045TIP3    H233081   5.040   5.071   2.024
11046TIP3   OH233082   4.547   2.089   0.674
11046TIP3    H133083   4.484   2.049   0.733
11046TIP3    H233084   4.505   2.088   0.589
11047TIP3   OH233085   0.634   6.983   5.617
11047TIP3    H133086   0.618   7.054   5.678
11047TIP3    H233087   0.547   6.949   5.596
11048TIP3   OH233088   2.422   1.960   3.298
11048TIP3    H133089   2.404   2.054   3.310
11048TIP3    H233090   2.465   1.933   3.379
11049TIP3   OH233091   1.008   6.609   4.739
11049TIP3    H133092   0.955   6.676   4.696
11049TIP3    H233093   1.031   6.548   4.670
11050TIP3   OH233094   2.508   1.869   2.378
11050TIP3    H133095   2.510   1.955   2.420
11050TIP3    H233096   2.436   1.823   2.420
11051TIP3   OH233097   3.617   1.211   1.188
11051TIP3    H133098   3.641   1.131   1.236
11051TIP3    H233099   3.642   1.194   1.098
11052TIP3   OH233100   2.171   1.421   2.709
11052TIP3    H133101   2.193   1.492   2.768
11052TIP3    H233102   2.094   1.452   2.662
11053TIP3   OH233103   7.163   2.763   5.041
11053TIP3    H133104   7.147   2.719   5.124
11053TIP3    H233105   7.257   2.785   5.044
11054TIP3   OH233106   0.821   7.524   0.405
11054TIP3    H133107   0.907   7.491   0.429
11054TIP3    H233108   0.773   7.447   0.375
11055TIP3   OH233109   0.402   7.421   1.692
11055TIP3    H133110   0.354   7.461   1.620
11055TIP3    H233111   0.473   7.483   1.710
11056TIP3   OH233112   0.528   0.841   2.764
11056TIP3    H133113   0.510   0.922   2.716
11056TIP3    H233114   0.454   0.784   2.744
11057TIP3   OH233115   0.024   0.443   1.811
11057TIP3    H133116   0.001   0.350   1.806
11057TIP3    H233117   0.055   0.465   1.723
11058TIP3   OH233118   2.064   4.260   6.623
11058TIP3    H133119   1.991   4.254   6.561
11058TIP3    H233120   2.057   4.180   6.676
11059TIP3   OH233121   2.563   4.469   5.320
11059TIP3    H133122   2.617   4.545   5.298
11059TIP3    H233123   2.493   4.503   5.375
11060TIP3   OH233124   0.360   7.775   5.584
11060TIP3    H133125   0.285   7.716   5.582
11060TIP3    H233126   0.424   7.734   5.526
11061TIP3   OH233127   7.995   5.608   0.509
11061TIP3    H133128   8.070   5.649   0.465
11061TIP3    H233129   7.935   5.681   0.527
11062TIP3   OH233130   4.902   2.285   3.578
11062TIP3    H133131   4.949   2.214   3.533
11062TIP3    H233132   4.968   2.326   3.634
11063TIP3   OH233133   3.726   0.348   1.078
11063TIP3    H133134   3.718   0.367   0.984
11063TIP3    H233135   3.646   0.386   1.116
11064TIP3   OH233136   3.643   5.765   1.666
11064TIP3    H133137   3.632   5.828   1.737
11064TIP3    H233138   3.567   5.708   1.672
11065TIP3   OH233139   4.988   6.588   2.814
11065TIP3    H133140   4.947   6.610   2.730
11065TIP3    H233141   4.962   6.659   2.873
11066TIP3   OH233142   6.373   2.825   6.731
11066TIP3    H133143   6.391   2.825   6.637
11066TIP3    H233144   6.448   2.780   6.770
11067TIP3   OH233145   6.928   3.346   0.105
11067TIP3    H133146   6.857   3.408   0.091
11067TIP3    H233147   6.946   3.310   0.018
11068TIP3   OH233148   2.435   7.490   0.337
11068TIP3    H133149   2.350   7.446   0.332
11068TIP3    H233150   2.418   7.568   0.389
11069TIP3   OH233151   2.424   7.389   6.455
11069TIP3    H133152   2.519   7.395   6.459
11069TIP3    H233153   2.407   7.299   6.428
11070TIP3   OH233154   3.754   1.200   0.046
11070TIP3    H133155   3.822   1.246   0.096
11070TIP3    H233156   3.710   1.269  -0.003
11071TIP3   OH233157   1.168   2.372   2.385
11071TIP3    H133158   1.157   2.413   2.299
11071TIP3    H233159   1.079   2.345   2.411
11072TIP3   OH233160   4.909   0.511   2.856
11072TIP3    H133161   4.957   0.437   2.819
11072TIP3    H233162   4.977   0.575   2.877
11073TIP3   OH233163   2.181   4.441   2.864
11073TIP3    H133164   2.138   4.378   2.806
11073TIP3    H233165   2.118   4.458   2.933
11074TIP3   OH233166   3.061   1.184   6.108
11074TIP3    H133167   3.095   1.112   6.055
11074TIP3    H233168   3.086   1.161   6.198
11075TIP3   OH233169   8.231   6.668   3.912
11075TIP3    H133170   8.191   6.712   3.987
11075TIP3    H233171   8.162   6.611   3.879
11076TIP3   OH233172   8.143   3.256   0.743
11076TIP3    H133173   8.123   3.165   0.762
11076TIP3    H233174   8.074   3.284   0.683
11077TIP3   OH233175   1.911   1.701   0.810
11077TIP3    H133176   1.948   1.788   0.792
11077TIP3    H233177   1.963   1.668   0.884
11078TIP3   OH233178   6.613   4.742   4.101
11078TIP3    H133179   6.556   4.767   4.174
11078TIP3    H233180   6.624   4.822   4.050
11079TIP3   OH233181   8.202   4.398   3.464
11079TIP3    H133182   8.201   4.477   3.518
11079TIP3    H233183   8.110   4.381   3.444
11080TIP3   OH233184   1.556   4.931   2.812
11080TIP3    H133185   1.555   4.866   2.883
11080TIP3    H233186   1.464   4.953   2.799
11081TIP3   OH233187   6.976   2.468   3.426
11081TIP3    H133188   6.886   2.460   3.395
11081TIP3    H233189   6.974   2.432   3.515
11082TIP3   OH233190   1.728   4.780   3.707
11082TIP3    H133191   1.666   4.842   3.667
11082TIP3    H233192   1.674   4.705   3.732
11083TIP3   OH233193   4.629   4.343   0.697
11083TIP3    H133194   4.610   4.258   0.736
11083TIP3    H233195   4.594   4.338   0.609
11084TIP3   OH233196   3.199   6.511   5.262
11084TIP3    H133197   3.129   6.449   5.283
11084TIP3    H233198   3.153   6.590   5.233
11085TIP3   OH233199   7.732   6.413   5.756
11085TIP3    H133200   7.751   6.326   5.721
11085TIP3    H233201   7.641   6.429   5.733
11086TIP3   OH233202   2.083   7.597   6.449
11086TIP3    H133203   2.047   7.541   6.517
11086TIP3    H233204   2.074   7.545   6.369
11087TIP3   OH233205   3.105   5.961   4.520
11087TIP3    H133206   3.141   6.038   4.564
11087TIP3    H233207   3.014   5.985   4.500
11088TIP3   OH233208   8.271   7.624   3.435
11088TIP3    H133209   8.345   7.673   3.472
11088TIP3    H233210   8.216   7.691   3.394
11089TIP3   OH233211   5.300   5.565   1.039
11089TIP3    H133212   5.369   5.519   0.991
11089TIP3    H233213   5.222   5.552   0.986
11090TIP3   OH233214   7.668   4.289   1.388
11090TIP3    H133215   7.680   4.195   1.375
11090TIP3    H233216   7.649   4.299   1.481
11091TIP3   OH233217   7.060   7.099   2.524
11091TIP3    H133218   6.995   7.093   2.453
11091TIP3    H233219   7.112   7.019   2.515
11092TIP3   OH233220   1.632   2.537   6.061
11092TIP3    H133221   1.718   2.576   6.076
11092TIP3    H233222   1.591   2.593   5.996
11093TIP3   OH233223   3.184   7.125   3.394
11093TIP3    H133224   3.179   7.172   3.311
11093TIP3    H233225   3.265   7.074   3.388
11094TIP3   OH233226   7.763   4.867   4.796
11094TIP3    H133227   7.762   4.837   4.706
11094TIP3    H233228   7.676   4.906   4.809
11095TIP3   OH233229   3.931   7.368   3.844
11095TIP3    H133230   3.844   7.376   3.805
11095TIP3    H233231   3.925   7.291   3.900
11096TIP3   OH233232   3.685   2.957   4.609
11096TIP3    H133233   3.742   3.029   4.637
11096TIP3    H233234   3.597   2.987   4.628
11097TIP3   OH233235   5.313   3.222   5.215
11097TIP3    H133236   5.408   3.230   5.223
11097TIP3    H233237   5.289   3.154   5.279
11098TIP3   OH233238   6.571   3.271   5.561
11098TIP3    H133239   6.632   3.290   5.631
11098TIP3    H233240   6.590   3.337   5.494
11099TIP3   OH233241   1.761   0.895   5.378
11099TIP3    H133242   1.737   0.811   5.416
11099TIP3    H233243   1.857   0.890   5.369
11100TIP3   OH233244   4.595   6.463   2.356
11100TIP3    H133245   4.595   6.381   2.406
11100TIP3    H233246   4.684   6.497   2.366
11101TIP3   OH233247   0.660   2.302   5.260
11101TIP3    H133248   0.580   2.318   5.310
11101TIP3    H233249   0.712   2.381   5.271
11102TIP3   OH233250   3.330   6.937   4.277
11102TIP3    H133251   3.393   6.873   4.244
11102TIP3    H233252   3.331   7.007   4.211
11103TIP3   OH233253   7.220   0.288   1.669
11103TIP3    H133254   7.192   0.359   1.726
11103TIP3    H233255   7.271   0.331   1.600
11104TIP3   OH233256   1.744   5.889   2.451
11104TIP3    H133257   1.716   5.883   2.543
11104TIP3    H233258   1.677   5.841   2.403
11105TIP3   OH233259   5.909   0.188   0.464
11105TIP3    H133260   5.841   0.143   0.514
11105TIP3    H233261   5.907   0.146   0.378
11106TIP3   OH233262   3.632   3.143   2.168
11106TIP3    H133263   3.611   3.177   2.255
11106TIP3    H233264   3.692   3.208   2.131
11107TIP3   OH233265   4.372   4.786   1.923
11107TIP3    H133266   4.354   4.873   1.889
11107TIP3    H233267   4.341   4.726   1.854
11108TIP3   OH233268   0.895   5.692   6.217
11108TIP3    H133269   0.851   5.610   6.194
11108TIP3    H233270   0.985   5.680   6.185
11109TIP3   OH233271   1.318   2.893   0.252
11109TIP3    H133272   1.360   2.976   0.228
11109TIP3    H233273   1.314   2.844   0.170
11110TIP3   OH233274   0.933   4.123   6.407
11110TIP3    H133275   0.911   4.122   6.314
11110TIP3    H233276   1.013   4.175   6.412
11111TIP3   OH233277   2.187   3.584   5.790
11111TIP3    H133278   2.214   3.504   5.746
11111TIP3    H233279   2.267   3.637   5.794
11112TIP3   OH233280   4.676   2.935   3.194
11112TIP3    H133281   4.629   2.896   3.268
11112TIP3    H233282   4.760   2.962   3.231
11113TIP3   OH233283   2.930   1.146   0.236
11113TIP3    H133284   2.919   1.076   0.171
11113TIP3    H233285   2.845   1.190   0.240
11114TIP3   OH233286   5.680   7.740   6.527
11114TIP3    H133287   5.589   7.769   6.539
11114TIP3    H233288   5.675   7.677   6.455
11115TIP3   OH233289   4.780   6.893   1.918
11115TIP3    H133290   4.770   6.966   1.978
11115TIP3    H233291   4.874   6.873   1.920
11116TIP3   OH233292   7.921   4.759   0.456
11116TIP3    H133293   7.956   4.734   0.371
11116TIP3    H233294   7.998   4.789   0.506
11117TIP3   OH233295   1.010   0.674   4.443
11117TIP3    H133296   0.997   0.749   4.502
11117TIP3    H233297   1.073   0.705   4.378
11118TIP3   OH233298   4.451   0.356   1.236
11118TIP3    H133299   4.516   0.313   1.181
11118TIP3    H233300   4.480   0.339   1.326
11119TIP3   OH233301   0.476   0.517   0.451
11119TIP3    H133302   0.501   0.439   0.403
11119TIP3    H233303   0.381   0.524   0.438
11120TIP3   OH233304   7.917   5.443   4.037
11120TIP3    H133305   7.873   5.444   3.952
11120TIP3    H233306   7.881   5.367   4.082
11121TIP3   OH233307   2.195   0.873   1.784
11121TIP3    H133308   2.108   0.861   1.747
11121TIP3    H233309   2.221   0.786   1.813
11122TIP3   OH233310   2.264   5.986   0.771
11122TIP3    H133311   2.178   5.944   0.782
11122TIP3    H233312   2.324   5.913   0.755
11123TIP3   OH233313   5.149   1.446   1.916
11123TIP3    H133314   5.227   1.466   1.864
11123TIP3    H233315   5.147   1.513   1.984
11124TIP3   OH233316   5.703   5.649   5.332
11124TIP3    H133317   5.783   5.670   5.380
11124TIP3    H233318   5.670   5.569   5.375
11125TIP3   OH233319   5.260   4.166   6.770
11125TIP3    H133320   5.355   4.175   6.780
11125TIP3    H233321   5.237   4.226   6.699
11126TIP3   OH233322   2.710   7.635   2.431
11126TIP3    H133323   2.711   7.597   2.343
11126TIP3    H233324   2.735   7.563   2.489
11127TIP3   OH233325   5.075   6.983   3.269
11127TIP3    H133326   5.135   6.916   3.235
11127TIP3    H233327   5.106   6.999   3.358
11128TIP3   OH233328   3.020   2.997   4.981
11128TIP3    H133329   2.972   2.992   5.064
11128TIP3    H233330   2.952   3.013   4.915
11129TIP3   OH233331   3.062   6.757   5.490
11129TIP3    H133332   3.128   6.818   5.457
11129TIP3    H233333   2.982   6.781   5.444
11130TIP3   OH233334   3.845   7.736   6.395
11130TIP3    H133335   3.858   7.651   6.437
11130TIP3    H233336   3.807   7.791   6.463
11131TIP3   OH233337   5.399   3.829   5.866
11131TIP3    H133338   5.416   3.835   5.772
11131TIP3    H233339   5.485   3.832   5.907
11132TIP3   OH233340   1.621   4.464   1.044
11132TIP3    H133341   1.653   4.533   1.103
11132TIP3    H233342   1.541   4.500   1.006
11133TIP3   OH233343   5.091   5.258   2.809
11133TIP3    H133344   5.113   5.212   2.727
11133TIP3    H233345   5.056   5.189   2.866
11134TIP3   OH233346   2.837   1.138   1.665
11134TIP3    H133347   2.870   1.116   1.752
11134TIP3    H233348   2.913   1.173   1.618
11135TIP3   OH233349   7.147   2.505   2.605
11135TIP3    H133350   7.130   2.454   2.526
11135TIP3    H233351   7.076   2.482   2.665
11136TIP3   OH233352   2.264   5.713   0.887
11136TIP3    H133353   2.181   5.761   0.896
11136TIP3    H233354   2.263   5.649   0.958
11137TIP3   OH233355   2.008   5.925   2.596
11137TIP3    H133356   2.092   5.951   2.558
11137TIP3    H233357   1.992   5.989   2.665
11138TIP3   OH233358   0.891   1.096   3.366
11138TIP3    H133359   0.829   1.045   3.315
11138TIP3    H233360   0.850   1.104   3.453
11139TIP3   OH233361   0.866   4.096   1.070
11139TIP3    H133362   0.916   4.078   0.990
11139TIP3    H233363   0.782   4.052   1.057
11140TIP3   OH233364   4.489   4.013   5.354
11140TIP3    H133365   4.565   4.051   5.311
11140TIP3    H233366   4.525   3.951   5.417
11141TIP3   OH233367   2.362   3.437   1.667
11141TIP3    H133368   2.451   3.473   1.671
11141TIP3    H233369   2.368   3.353   1.714
11142TIP3   OH233370   1.670   2.000   5.912
11142TIP3    H133371   1.704   1.943   5.981
11142TIP3    H233372   1.649   2.082   5.956
11143TIP3   OH233373   0.811   1.066   2.685
11143TIP3    H133374   0.840   1.057   2.776
11143TIP3    H233375   0.796   0.976   2.655
11144TIP3   OH233376   6.441   1.652   0.588
11144TIP3    H133377   6.401   1.566   0.605
11144TIP3    H233378   6.525   1.631   0.547
11145TIP3   OH233379   4.519   2.599   5.181
11145TIP3    H133380   4.472   2.519   5.160
11145TIP3    H233381   4.528   2.645   5.098
11146TIP3   OH233382   0.924   6.039   6.649
11146TIP3    H133383   0.835   6.063   6.626
11146TIP3    H233384   0.979   6.101   6.600
11147TIP3   OH233385   2.773   7.188   5.228
11147TIP3    H133386   2.843   7.150   5.174
11147TIP3    H233387   2.704   7.211   5.166
11148TIP3   OH233388   3.402   7.168   0.938
11148TIP3    H133389   3.442   7.198   1.020
11148TIP3    H233390   3.454   7.093   0.912
11149TIP3   OH233391   4.758   6.262   3.353
11149TIP3    H133392   4.784   6.204   3.282
11149TIP3    H233393   4.698   6.325   3.313
11150TIP3   OH233394   3.702   0.194   5.721
11150TIP3    H133395   3.730   0.133   5.790
11150TIP3    H233396   3.616   0.162   5.695
11151TIP3   OH233397   4.355   4.921   2.607
11151TIP3    H133398   4.274   4.870   2.611
11151TIP3    H233399   4.424   4.855   2.611
11152TIP3   OH233400   8.105   4.129   0.315
11152TIP3    H133401   8.121   4.211   0.269
11152TIP3    H233402   8.170   4.068   0.280
11153TIP3   OH233403   4.907   7.575   6.640
11153TIP3    H133404   4.837   7.509   6.634
11153TIP3    H233405   4.930   7.577   6.733
11154TIP3   OH233406   6.579   2.830   2.940
11154TIP3    H133407   6.504   2.797   2.890
11154TIP3    H233408   6.590   2.920   2.910
11155TIP3   OH233409   2.413   0.028   5.105
11155TIP3    H133410   2.319   0.047   5.103
11155TIP3    H233411   2.432   0.014   5.198
11156TIP3   OH233412   3.919   5.662   1.967
11156TIP3    H133413   3.851   5.726   1.986
11156TIP3    H233414   3.987   5.712   1.922
11157TIP3   OH233415   1.043   7.133   2.989
11157TIP3    H133416   0.979   7.157   2.922
11157TIP3    H233417   1.073   7.046   2.964
11158TIP3   OH233418   7.304   5.792   5.335
11158TIP3    H133419   7.279   5.741   5.258
11158TIP3    H233420   7.295   5.883   5.307
11159TIP3   OH233421   1.611   1.017   1.032
11159TIP3    H133422   1.699   1.047   1.009
11159TIP3    H233423   1.592   1.062   1.115
11160TIP3   OH233424   2.332   4.598   6.019
11160TIP3    H133425   2.287   4.681   6.034
11160TIP3    H233426   2.265   4.542   5.981
11161TIP3   OH233427   2.193   2.609   4.249
11161TIP3    H133428   2.193   2.587   4.155
11161TIP3    H233429   2.246   2.540   4.289
11162TIP3   OH233430   3.973   7.330   4.731
11162TIP3    H133431   4.023   7.411   4.738
11162TIP3    H233432   3.884   7.354   4.756
11163TIP3   OH233433   0.842   2.878   1.104
11163TIP3    H133434   0.831   2.861   1.010
11163TIP3    H233435   0.883   2.965   1.108
11164TIP3   OH233436   2.758   6.776   0.142
11164TIP3    H133437   2.689   6.712   0.155
11164TIP3    H233438   2.716   6.861   0.153
11165TIP3   OH233439   6.254   5.029   1.599
11165TIP3    H133440   6.297   4.943   1.597
11165TIP3    H233441   6.160   5.009   1.606
11166TIP3   OH233442   0.054   5.685   2.933
11166TIP3    H133443   0.137   5.710   2.894
11166TIP3    H233444   0.006   5.642   2.862
11167TIP3   OH233445   7.194   7.258   6.611
11167TIP3    H133446   7.158   7.330   6.560
11167TIP3    H233447   7.223   7.299   6.693
11168TIP3   OH233448   7.823   3.417   5.030
11168TIP3    H133449   7.769   3.389   4.956
11168TIP3    H233450   7.774   3.392   5.108
11169TIP3   OH233451   1.346   5.351   3.406
11169TIP3    H133452   1.347   5.446   3.396
11169TIP3    H233453   1.275   5.334   3.467
11170TIP3   OH233454   7.532   0.050   4.719
11170TIP3    H133455   7.524  -0.012   4.791
11170TIP3    H233456   7.482   0.012   4.647
11171TIP3   OH233457   1.186   7.062   3.703
11171TIP3    H133458   1.186   6.974   3.740
11171TIP3    H233459   1.113   7.107   3.746
11172TIP3   OH233460   7.165   5.194   5.022
11172TIP3    H133461   7.185   5.239   5.104
11172TIP3    H233462   7.244   5.145   5.002
11173TIP3   OH233463   8.098   1.053   4.112
11173TIP3    H133464   8.040   0.991   4.069
11173TIP3    H233465   8.082   1.041   4.205
11174TIP3   OH233466   2.578   6.760   6.052
11174TIP3    H133467   2.610   6.845   6.082
11174TIP3    H233468   2.503   6.781   5.996
11175TIP3   OH233469   0.440   6.653   1.845
11175TIP3    H133470   0.529   6.665   1.810
11175TIP3    H233471   0.412   6.741   1.870
11176TIP3   OH233472   5.028   2.900   3.477
11176TIP3    H133473   5.040   2.808   3.456
11176TIP3    H233474   4.953   2.902   3.537
11177TIP3   OH233475   6.142   1.243   6.037
11177TIP3    H133476   6.051   1.267   6.020
11177TIP3    H233477   6.184   1.244   5.951
11178TIP3   OH233478   3.641   6.200   4.514
11178TIP3    H133479   3.576   6.225   4.580
11178TIP3    H233480   3.590   6.158   4.445
11179TIP3   OH233481   6.707   6.864   4.309
11179TIP3    H133482   6.660   6.924   4.251
11179TIP3    H233483   6.684   6.777   4.278
11180TIP3   OH233484   4.465   7.095   0.022
11180TIP3    H133485   4.370   7.088   0.025
11180TIP3    H233486   4.494   7.016  -0.022
11181TIP3   OH233487   5.057   1.799   5.404
11181TIP3    H133488   5.065   1.875   5.348
11181TIP3    H233489   4.964   1.774   5.398
11182TIP3   OH233490   1.261   6.927   4.084
11182TIP3    H133491   1.295   6.887   4.003
11182TIP3    H233492   1.299   7.015   4.085
11183TIP3   OH233493   5.161   1.601   4.058
11183TIP3    H133494   5.171   1.667   4.126
11183TIP3    H233495   5.243   1.604   4.009
11184TIP3   OH233496   7.931   5.413   3.409
11184TIP3    H133497   7.959   5.433   3.498
11184TIP3    H233498   7.997   5.352   3.375
11185TIP3   OH233499   4.651   5.421   1.029
11185TIP3    H133500   4.624   5.513   1.024
11185TIP3    H233501   4.580   5.373   0.987
11186TIP3   OH233502   5.070   4.523   0.915
11186TIP3    H133503   5.113   4.521   1.001
11186TIP3    H233504   5.056   4.616   0.898
11187TIP3   OH233505   7.749   4.484   4.951
11187TIP3    H133506   7.784   4.573   4.958
11187TIP3    H233507   7.733   4.471   4.858
11188TIP3   OH233508   0.458   0.585   4.905
11188TIP3    H133509   0.384   0.588   4.844
11188TIP3    H233510   0.517   0.520   4.867
11189TIP3   OH233511   8.252   7.424   2.483
11189TIP3    H133512   8.262   7.519   2.479
11189TIP3    H233513   8.168   7.408   2.440
11190TIP3   OH233514   7.833   5.145   1.857
11190TIP3    H133515   7.871   5.209   1.917
11190TIP3    H233516   7.907   5.110   1.808
11191TIP3   OH233517   5.955   3.697   4.911
11191TIP3    H133518   5.871   3.739   4.928
11191TIP3    H233519   5.972   3.644   4.989
11192TIP3   OH233520   5.128   2.637   4.041
11192TIP3    H133521   5.183   2.597   3.974
11192TIP3    H233522   5.183   2.640   4.119
11193TIP3   OH233523   7.253   4.641   2.546
11193TIP3    H133524   7.344   4.612   2.545
11193TIP3    H233525   7.258   4.736   2.555
11194TIP3   OH233526   0.725   4.614   3.404
11194TIP3    H133527   0.636   4.615   3.370
11194TIP3    H233528   0.761   4.530   3.375
11195TIP3   OH233529   5.151   1.166   1.973
11195TIP3    H133530   5.214   1.129   1.912
11195TIP3    H233531   5.141   1.257   1.944
11196TIP3   OH233532   5.385   4.973   1.245
11196TIP3    H133533   5.362   4.913   1.174
11196TIP3    H233534   5.346   5.057   1.219
11197TIP3   OH233535   2.860   2.755   1.662
11197TIP3    H133536   2.811   2.831   1.692
11197TIP3    H233537   2.927   2.742   1.729
11198TIP3   OH233538   7.788   0.494   6.661
11198TIP3    H133539   7.758   0.419   6.609
11198TIP3    H233540   7.718   0.558   6.654
11199TIP3   OH233541   8.016   2.251   5.981
11199TIP3    H133542   8.004   2.343   5.959
11199TIP3    H233543   7.935   2.225   6.025
11200TIP3   OH233544   5.056   5.697   1.881
11200TIP3    H133545   5.024   5.750   1.953
11200TIP3    H233546   5.028   5.608   1.901
11201TIP3   OH233547   3.723   6.400   6.347
11201TIP3    H133548   3.635   6.369   6.325
11201TIP3    H233549   3.739   6.472   6.287
11202TIP3   OH233550   5.301   0.711   6.218
11202TIP3    H133551   5.224   0.760   6.247
11202TIP3    H233552   5.373   0.744   6.272
11203TIP3   OH233553   1.297   4.673   2.351
11203TIP3    H133554   1.386   4.647   2.372
11203TIP3    H233555   1.305   4.762   2.316
11204TIP3   OH233556   6.328   2.075   6.202
11204TIP3    H133557   6.284   2.126   6.270
11204TIP3    H233558   6.418   2.064   6.234
11205TIP3   OH233559   3.127   4.471   3.267
11205TIP3    H133560   3.067   4.489   3.338
11205TIP3    H233561   3.210   4.449   3.310
11206TIP3   OH233562   4.260   6.389   2.850
11206TIP3    H133563   4.277   6.317   2.911
11206TIP3    H233564   4.166   6.386   2.835
11207TIP3   OH233565   6.966   0.241   1.561
11207TIP3    H133566   6.999   0.283   1.481
11207TIP3    H233567   7.044   0.218   1.611
11208TIP3   OH233568   4.646   0.679   1.834
11208TIP3    H133569   4.684   0.685   1.746
11208TIP3    H233570   4.613   0.768   1.852
11209TIP3   OH233571   8.090   0.686   0.667
11209TIP3    H133572   8.173   0.640   0.678
11209TIP3    H233573   8.024   0.617   0.663
11210TIP3   OH233574   7.999   4.756   3.304
11210TIP3    H133575   8.089   4.727   3.320
11210TIP3    H233576   8.008   4.833   3.248
11211TIP3   OH233577   4.631   5.382   6.576
11211TIP3    H133578   4.591   5.405   6.492
11211TIP3    H233579   4.561   5.396   6.640
11212TIP3   OH233580   6.838   1.959   4.053
11212TIP3    H133581   6.783   2.024   4.010
11212TIP3    H233582   6.907   1.940   3.989
11213TIP3   OH233583   3.629   7.539   2.642
11213TIP3    H133584   3.675   7.465   2.604
11213TIP3    H233585   3.620   7.602   2.571
11214TIP3   OH233586   8.236   2.291   1.927
11214TIP3    H133587   8.291   2.278   1.850
11214TIP3    H233588   8.164   2.347   1.896
11215TIP3   OH233589   1.462   0.844   6.666
11215TIP3    H133590   1.486   0.752   6.654
11215TIP3    H233591   1.370   0.841   6.692
11216TIP3   OH233592   8.194   1.544   2.141
11216TIP3    H133593   8.232   1.456   2.133
11216TIP3    H233594   8.101   1.531   2.124
11217TIP3   OH233595   6.388   7.246   1.280
11217TIP3    H133596   6.295   7.240   1.302
11217TIP3    H233597   6.394   7.320   1.220
11218TIP3   OH233598   3.634   6.994   3.687
11218TIP3    H133599   3.705   6.959   3.740
11218TIP3    H233600   3.598   6.919   3.641
11219TIP3   OH233601   7.668   7.371   3.536
11219TIP3    H133602   7.748   7.417   3.564
11219TIP3    H233603   7.696   7.318   3.462
11220TIP3   OH233604   4.092   1.270   3.297
11220TIP3    H133605   4.044   1.263   3.214
11220TIP3    H233606   4.117   1.362   3.302
11221TIP3   OH233607   5.556   4.806   6.404
11221TIP3    H133608   5.486   4.871   6.409
11221TIP3    H233609   5.610   4.835   6.331
11222TIP3   OH233610   5.670   3.596   4.598
11222TIP3    H133611   5.645   3.632   4.513
11222TIP3    H233612   5.593   3.546   4.627
11223TIP3   OH233613   4.516   1.994   0.398
11223TIP3    H133614   4.604   1.994   0.437
11223TIP3    H233615   4.504   1.905   0.366
11224TIP3   OH233616   6.607   4.982   3.957
11224TIP3    H133617   6.679   4.968   3.895
11224TIP3    H233618   6.632   5.061   4.004
11225TIP3   OH233619   0.688   2.053   2.441
11225TIP3    H133620   0.627   1.980   2.446
11225TIP3    H233621   0.679   2.099   2.525
11226TIP3   OH233622   5.763   1.777   1.187
11226TIP3    H133623   5.731   1.758   1.099
11226TIP3    H233624   5.798   1.694   1.218
11227TIP3   OH233625   1.726   5.200   3.909
11227TIP3    H133626   1.650   5.145   3.928
11227TIP3    H233627   1.753   5.234   3.995
11228TIP3   OH233628   6.070   0.763   2.305
11228TIP3    H133629   6.041   0.713   2.380
11228TIP3    H233630   6.165   0.767   2.313
11229TIP3   OH233631   5.324   2.760   4.206
11229TIP3    H133632   5.402   2.751   4.151
11229TIP3    H233633   5.359   2.766   4.295
11230TIP3   OH233634   1.208   5.034   6.743
11230TIP3    H133635   1.263   4.982   6.684
11230TIP3    H233636   1.134   4.976   6.764
11231TIP3   OH233637   2.241   7.767   3.890
11231TIP3    H133638   2.232   7.764   3.795
11231TIP3    H233639   2.214   7.681   3.920
11232TIP3   OH233640   5.477   4.016   0.561
11232TIP3    H133641   5.429   3.939   0.529
11232TIP3    H233642   5.521   4.050   0.483
11233TIP3   OH233643   7.141   5.363   1.828
11233TIP3    H133644   7.149   5.268   1.818
11233TIP3    H233645   7.206   5.386   1.895
11234TIP3   OH233646   1.896   3.069   2.586
11234TIP3    H133647   1.912   3.163   2.590
11234TIP3    H233648   1.811   3.060   2.542
11235TIP3   OH233649   5.127   0.683   2.879
11235TIP3    H133650   5.176   0.753   2.921
11235TIP3    H233651   5.194   0.621   2.850
11236TIP3   OH233652   2.188   5.180   5.800
11236TIP3    H133653   2.134   5.258   5.784
11236TIP3    H233654   2.140   5.110   5.756
11237TIP3   OH233655   3.760   1.298   6.089
11237TIP3    H133656   3.853   1.316   6.082
11237TIP3    H233657   3.721   1.382   6.115
11238TIP3   OH233658   1.594   6.048   1.958
11238TIP3    H133659   1.597   6.041   1.862
11238TIP3    H233660   1.503   6.028   1.980
11239TIP3   OH233661   4.271   7.260   6.433
11239TIP3    H133662   4.200   7.204   6.464
11239TIP3    H233663   4.343   7.200   6.415
11240TIP3   OH233664   4.508   6.252   4.440
11240TIP3    H133665   4.563   6.306   4.384
11240TIP3    H233666   4.530   6.162   4.416
11241TIP3   OH233667   7.825   2.025   6.249
11241TIP3    H133668   7.784   2.111   6.252
11241TIP3    H233669   7.751   1.964   6.249
11242TIP3   OH233670   2.170   7.526   6.168
11242TIP3    H133671   2.248   7.561   6.211
11242TIP3    H233672   2.194   7.518   6.076
11243TIP3   OH233673   2.698   4.940   4.741
11243TIP3    H133674   2.706   4.846   4.726
11243TIP3    H233675   2.786   4.975   4.725
11244TIP3   OH233676   4.751   3.373   4.578
11244TIP3    H133677   4.715   3.397   4.664
11244TIP3    H233678   4.844   3.359   4.594
11245TIP3   OH233679   3.485   2.676   1.134
11245TIP3    H133680   3.555   2.725   1.178
11245TIP3    H233681   3.407   2.694   1.185
11246TIP3   OH233682   0.854   6.832   5.501
11246TIP3    H133683   0.882   6.757   5.554
11246TIP3    H233684   0.778   6.867   5.547
11247TIP3   OH233685   0.053   6.479   0.635
11247TIP3    H133686   0.004   6.530   0.699
11247TIP3    H233687  -0.011   6.456   0.568
11248TIP3   OH233688   4.334   6.903   2.637
11248TIP3    H133689   4.339   6.817   2.678
11248TIP3    H233690   4.402   6.901   2.569
11249TIP3   OH233691   7.768   2.876   1.255
11249TIP3    H133692   7.741   2.867   1.163
11249TIP3    H233693   7.745   2.792   1.294
11250TIP3   OH233694   4.633   7.658   1.515
11250TIP3    H133695   4.550   7.612   1.525
11250TIP3    H233696   4.627   7.733   1.574
11251TIP3   OH233697   5.053   5.679   5.804
11251TIP3    H133698   5.010   5.685   5.719
11251TIP3    H233699   5.002   5.737   5.860
11252TIP3   OH233700   5.055   2.257   3.148
11252TIP3    H133701   5.015   2.342   3.128
11252TIP3    H233702   5.082   2.264   3.239
11253TIP3   OH233703   5.797   0.343   0.172
11253TIP3    H133704   5.804   0.249   0.189
11253TIP3    H233705   5.827   0.353   0.082
11254TIP3   OH233706   1.336   0.340   2.850
11254TIP3    H133707   1.348   0.260   2.799
11254TIP3    H233708   1.418   0.388   2.840
11255TIP3   OH233709   2.786   4.487   2.046
11255TIP3    H133710   2.880   4.496   2.031
11255TIP3    H233711   2.748   4.479   1.959
11256TIP3   OH233712   2.290   3.577   4.854
11256TIP3    H133713   2.304   3.649   4.793
11256TIP3    H233714   2.195   3.578   4.870
11257TIP3   OH233715   7.928   0.881   0.854
11257TIP3    H133716   7.958   0.834   0.777
11257TIP3    H233717   7.844   0.840   0.876
11258TIP3   OH233718   3.811   3.803   2.650
11258TIP3    H133719   3.812   3.805   2.745
11258TIP3    H233720   3.860   3.724   2.627
11259TIP3   OH233721   3.053   3.925   4.508
11259TIP3    H133722   3.120   3.972   4.459
11259TIP3    H233723   3.019   3.990   4.570
11260TIP3   OH233724   2.992   0.431   4.421
11260TIP3    H133725   3.052   0.506   4.429
11260TIP3    H233726   2.905   0.469   4.429
11261TIP3   OH233727   2.140   4.411   0.601
11261TIP3    H133728   2.106   4.397   0.689
11261TIP3    H233729   2.079   4.472   0.560
11262TIP3   OH233730   3.474   6.947   3.288
11262TIP3    H133731   3.560   6.904   3.290
11262TIP3    H233732   3.440   6.927   3.200
11263TIP3   OH233733   1.575   6.426   3.161
11263TIP3    H133734   1.622   6.399   3.240
11263TIP3    H233735   1.639   6.419   3.091
11264TIP3   OH233736   6.647   0.371   4.110
11264TIP3    H133737   6.592   0.301   4.147
11264TIP3    H233738   6.586   0.443   4.094
11265TIP3   OH233739   1.400   0.468   6.133
11265TIP3    H133740   1.385   0.500   6.222
11265TIP3    H233741   1.313   0.455   6.097
11266TIP3   OH233742   4.907   4.926   3.924
11266TIP3    H133743   4.938   4.860   3.862
11266TIP3    H233744   4.955   5.005   3.901
11267TIP3   OH233745   8.238   3.437   6.609
11267TIP3    H133746   8.332   3.433   6.595
11267TIP3    H233747   8.229   3.452   6.704
11268TIP3   OH233748   0.377   0.801   3.375
11268TIP3    H133749   0.302   0.770   3.426
11268TIP3    H233750   0.341   0.818   3.288
11269TIP3   OH233751   6.678   3.150   6.598
11269TIP3    H133752   6.773   3.142   6.593
11269TIP3    H233753   6.663   3.244   6.609
11270TIP3   OH233754   4.368   3.910   3.439
11270TIP3    H133755   4.286   3.908   3.391
11270TIP3    H233756   4.356   3.848   3.511
11271TIP3   OH233757   3.344   4.703   0.784
11271TIP3    H133758   3.385   4.777   0.829
11271TIP3    H233759   3.348   4.631   0.846
11272TIP3   OH233760   1.368   6.344   0.825
11272TIP3    H133761   1.462   6.327   0.818
11272TIP3    H233762   1.344   6.308   0.911
11273TIP3   OH233763   3.701   1.250   3.040
11273TIP3    H133764   3.725   1.185   3.106
11273TIP3    H233765   3.607   1.263   3.053
11274TIP3   OH233766   1.202   6.884   2.820
11274TIP3    H133767   1.174   6.930   2.741
11274TIP3    H233768   1.275   6.829   2.792
11275TIP3   OH233769   1.950   0.440   3.723
11275TIP3    H133770   2.025   0.381   3.729
11275TIP3    H233771   1.893   0.400   3.658
11276TIP3   OH233772   8.191   5.695   2.264
11276TIP3    H133773   8.199   5.786   2.236
11276TIP3    H233774   8.132   5.655   2.200
11277TIP3   OH233775   7.625   6.614   4.156
11277TIP3    H133776   7.690   6.639   4.223
11277TIP3    H233777   7.677   6.594   4.079
11278TIP3   OH233778   3.413   0.705   5.166
11278TIP3    H133779   3.478   0.758   5.212
11278TIP3    H233780   3.390   0.757   5.089
11279TIP3   OH233781   2.482   3.619   3.900
11279TIP3    H133782   2.471   3.685   3.969
11279TIP3    H233783   2.432   3.654   3.826
11280TIP3   OH233784   1.641   2.119   3.715
11280TIP3    H133785   1.736   2.127   3.729
11280TIP3    H233786   1.603   2.166   3.789
11281TIP3   OH233787   3.021   0.243   1.996
11281TIP3    H133788   2.971   0.167   2.026
11281TIP3    H233789   2.991   0.258   1.907
11282TIP3   OH233790   4.382   6.282   3.086
11282TIP3    H133791   4.462   6.302   3.037
11282TIP3    H233792   4.409   6.284   3.178
11283TIP3   OH233793   1.493   4.585   0.099
11283TIP3    H133794   1.399   4.575   0.113
11283TIP3    H233795   1.501   4.625   0.013
11284TIP3   OH233796   0.231   6.851   5.374
11284TIP3    H133797   0.193   6.779   5.424
11284TIP3    H233798   0.214   6.828   5.283
11285TIP3   OH233799   3.539   1.357   5.515
11285TIP3    H133800   3.574   1.446   5.523
11285TIP3    H233801   3.483   1.361   5.438
11286TIP3   OH233802   2.179   6.470   5.129
11286TIP3    H133803   2.183   6.495   5.221
11286TIP3    H233804   2.223   6.542   5.083
11287TIP3   OH233805   6.576   5.883   1.164
11287TIP3    H133806   6.609   5.854   1.249
11287TIP3    H233807   6.576   5.979   1.170
11288TIP3   OH233808   4.733   3.462   1.277
11288TIP3    H133809   4.763   3.515   1.351
11288TIP3    H233810   4.679   3.394   1.316
11289TIP3   OH233811   7.659   0.347   2.505
11289TIP3    H133812   7.708   0.399   2.569
11289TIP3    H233813   7.568   0.358   2.531
11290TIP3   OH233814   8.014   5.702   6.715
11290TIP3    H133815   7.952   5.704   6.788
11290TIP3    H233816   8.005   5.788   6.674
11291TIP3   OH233817   4.918   0.910   6.340
11291TIP3    H133818   4.953   0.944   6.257
11291TIP3    H233819   4.834   0.871   6.316
11292TIP3   OH233820   3.257   3.243   3.226
11292TIP3    H133821   3.169   3.207   3.240
11292TIP3    H233822   3.243   3.338   3.221
11293TIP3   OH233823   7.863   2.190   1.274
11293TIP3    H133824   7.855   2.162   1.365
11293TIP3    H233825   7.956   2.210   1.263
11294TIP3   OH233826   1.587   7.326   3.958
11294TIP3    H133827   1.671   7.371   3.965
11294TIP3    H233828   1.605   7.250   3.903
11295TIP3   OH233829   3.776   6.643   3.092
11295TIP3    H133830   3.730   6.657   3.175
11295TIP3    H233831   3.764   6.725   3.044
11296TIP3   OH233832   6.269   4.245   2.832
11296TIP3    H133833   6.335   4.220   2.898
11296TIP3    H233834   6.286   4.338   2.815
11297TIP3   OH233835   5.908   0.966   0.574
11297TIP3    H133836   5.988   1.019   0.575
11297TIP3    H233837   5.859   0.998   0.498
11298TIP3   OH233838   7.987   7.587   0.683
11298TIP3    H133839   7.907   7.617   0.640
11298TIP3    H233840   7.958   7.518   0.743
11299TIP3   OH233841   8.045   2.934   3.197
11299TIP3    H133842   8.080   3.017   3.165
11299TIP3    H233843   8.011   2.890   3.120
11300TIP3   OH233844   7.257   6.574   3.911
11300TIP3    H133845   7.303   6.618   3.982
11300TIP3    H233846   7.227   6.645   3.854
11301TIP3   OH233847   0.892   7.167   5.662
11301TIP3    H133848   0.836   7.117   5.602
11301TIP3    H233849   0.853   7.254   5.665
11302TIP3   OH233850   0.402   2.425   2.717
11302TIP3    H133851   0.462   2.351   2.720
11302TIP3    H233852   0.458   2.501   2.700
11303TIP3   OH233853   3.870   5.468   5.283
11303TIP3    H133854   3.871   5.546   5.228
11303TIP3    H233855   3.780   5.460   5.313
11304TIP3   OH233856   4.767   6.868   1.306
11304TIP3    H133857   4.771   6.927   1.231
11304TIP3    H233858   4.856   6.868   1.341
11305TIP3   OH233859   5.969   1.176   2.406
11305TIP3    H133860   5.996   1.096   2.362
11305TIP3    H233861   5.875   1.180   2.394
11306TIP3   OH233862   7.976   3.516   6.774
11306TIP3    H133863   7.992   3.441   6.717
11306TIP3    H233864   7.888   3.501   6.808
11307TIP3   OH233865   7.127   4.558   3.460
11307TIP3    H133866   7.091   4.636   3.501
11307TIP3    H233867   7.194   4.527   3.521
11308TIP3   OH233868   0.246   3.825   1.160
11308TIP3    H133869   0.151   3.828   1.153
11308TIP3    H233870   0.276   3.793   1.075
11309TIP3   OH233871   5.476   3.626   1.532
11309TIP3    H133872   5.383   3.632   1.510
11309TIP3    H233873   5.521   3.631   1.447
11310TIP3   OH233874   1.739   4.750   5.613
11310TIP3    H133875   1.696   4.700   5.682
11310TIP3    H233876   1.670   4.809   5.581
11311TIP3   OH233877   2.429   1.269   0.334
11311TIP3    H133878   2.375   1.346   0.351
11311TIP3    H233879   2.368   1.195   0.335
11312TIP3   OH233880   1.508   4.559   1.553
11312TIP3    H133881   1.603   4.557   1.559
11312TIP3    H233882   1.487   4.506   1.476
11313TIP3   OH233883   3.476   3.641   3.308
11313TIP3    H133884   3.571   3.642   3.318
11313TIP3    H233885   3.454   3.729   3.276
11314TIP3   OH233886   8.214   3.330   0.467
11314TIP3    H133887   8.225   3.290   0.553
11314TIP3    H233888   8.134   3.383   0.476
11315TIP3   OH233889   0.665   7.790   6.282
11315TIP3    H133890   0.626   7.798   6.195
11315TIP3    H233891   0.735   7.726   6.271
11316TIP3   OH233892   2.864   7.247   6.092
11316TIP3    H133893   2.928   7.252   6.021
11316TIP3    H233894   2.915   7.219   6.168
11317TIP3   OH233895   5.200   7.418   6.230
11317TIP3    H133896   5.190   7.327   6.258
11317TIP3    H233897   5.118   7.460   6.257
11318TIP3   OH233898   3.503   7.448   5.804
11318TIP3    H133899   3.469   7.441   5.893
11318TIP3    H233900   3.582   7.393   5.804
11319TIP3   OH233901   2.263   3.546   5.191
11319TIP3    H133902   2.211   3.540   5.272
11319TIP3    H233903   2.347   3.581   5.219
11320TIP3   OH233904   0.320   7.382   5.130
11320TIP3    H133905   0.342   7.289   5.129
11320TIP3    H233906   0.404   7.427   5.131
11321TIP3   OH233907   5.253   3.525   4.912
11321TIP3    H133908   5.327   3.586   4.908
11321TIP3    H233909   5.185   3.566   4.860
11322TIP3   OH233910   3.889   2.715   0.187
11322TIP3    H133911   3.923   2.763   0.112
11322TIP3    H233912   3.945   2.742   0.260
11323TIP3   OH233913   2.806   5.765   2.402
11323TIP3    H133914   2.795   5.696   2.468
11323TIP3    H233915   2.719   5.775   2.363
11324TIP3   OH233916   1.755   0.689   2.403
11324TIP3    H133917   1.697   0.672   2.329
11324TIP3    H233918   1.729   0.624   2.469
11325TIP3   OH233919   5.110   2.433   4.282
11325TIP3    H133920   5.138   2.481   4.360
11325TIP3    H233921   5.015   2.442   4.282
11326TIP3   OH233922   6.945   2.677   2.549
11326TIP3    H133923   6.929   2.718   2.464
11326TIP3    H233924   7.027   2.629   2.538
11327TIP3   OH233925   5.347   3.038   5.440
11327TIP3    H133926   5.279   3.101   5.465
11327TIP3    H233927   5.425   3.069   5.487
11328TIP3   OH233928   2.762   4.862   2.530
11328TIP3    H133929   2.705   4.896   2.598
11328TIP3    H233930   2.726   4.776   2.508
11329TIP3   OH233931   3.300   1.257   0.779
11329TIP3    H133932   3.317   1.282   0.688
11329TIP3    H233933   3.300   1.161   0.778
11330TIP3   OH233934   6.641   1.249   2.229
11330TIP3    H133935   6.674   1.159   2.224
11330TIP3    H233936   6.589   1.251   2.310
11331TIP3   OH233937   4.087   0.086   4.288
11331TIP3    H133938   4.119   0.009   4.335
11331TIP3    H233939   4.152   0.100   4.219
11332TIP3   OH233940   7.396   1.016   6.154
11332TIP3    H133941   7.422   0.934   6.196
11332TIP3    H233942   7.479   1.057   6.128
11333TIP3   OH233943   6.350   3.726   6.130
11333TIP3    H133944   6.272   3.769   6.166
11333TIP3    H233945   6.326   3.633   6.125
11334TIP3   OH233946   7.471   5.675   0.954
11334TIP3    H133947   7.436   5.748   1.004
11334TIP3    H233948   7.397   5.615   0.944
11335TIP3   OH233949   0.662   6.095   1.868
11335TIP3    H133950   0.740   6.043   1.883
11335TIP3    H233951   0.645   6.138   1.952
11336TIP3   OH233952   7.286   0.163   5.920
11336TIP3    H133953   7.287   0.236   5.858
11336TIP3    H233954   7.332   0.092   5.875
11337TIP3   OH233955   0.200   0.427   2.680
11337TIP3    H133956   0.147   0.355   2.714
11337TIP3    H233957   0.206   0.410   2.586
11338TIP3   OH233958   7.281   2.256   2.307
11338TIP3    H133959   7.229   2.177   2.290
11338TIP3    H233960   7.216   2.326   2.317
11339TIP3   OH233961   0.724   4.162   6.605
11339TIP3    H133962   0.766   4.136   6.523
11339TIP3    H233963   0.780   4.124   6.673
11340TIP3   OH233964   5.006   2.546   3.150
11340TIP3    H133965   4.924   2.536   3.103
11340TIP3    H233966   5.053   2.614   3.101
11341TIP3   OH233967   0.599   3.760   2.471
11341TIP3    H133968   0.605   3.850   2.504
11341TIP3    H233969   0.543   3.715   2.534
11342TIP3   OH233970   5.424   0.569   0.241
11342TIP3    H133971   5.485   0.586   0.312
11342TIP3    H233972   5.444   0.636   0.175
11343TIP3   OH233973   6.642   6.516   3.508
11343TIP3    H133974   6.546   6.515   3.506
11343TIP3    H233975   6.664   6.603   3.542
11344TIP3   OH233976   0.580   1.837   6.442
11344TIP3    H133977   0.625   1.861   6.523
11344TIP3    H233978   0.541   1.751   6.461
11345TIP3   OH233979   6.266   1.388   3.668
11345TIP3    H133980   6.219   1.460   3.709
11345TIP3    H233981   6.260   1.405   3.574
11346TIP3   OH233982   5.576   6.559   6.568
11346TIP3    H133983   5.502   6.533   6.513
11346TIP3    H233984   5.547   6.639   6.611
11347TIP3   OH233985   2.679   3.805   2.926
11347TIP3    H133986   2.734   3.842   2.857
11347TIP3    H233987   2.591   3.837   2.908
11348TIP3   OH233988   4.396   6.720   5.980
11348TIP3    H133989   4.392   6.797   5.923
11348TIP3    H233990   4.309   6.681   5.973
11349TIP3   OH233991   6.342   0.868   1.999
11349TIP3    H133992   6.290   0.796   2.035
11349TIP3    H233993   6.330   0.860   1.904
11350TIP3   OH233994   0.700   7.289   6.453
11350TIP3    H133995   0.676   7.197   6.445
11350TIP3    H233996   0.773   7.290   6.515
11351TIP3   OH233997   0.825   0.672   1.324
11351TIP3    H133998   0.768   0.749   1.315
11351TIP3    H233999   0.899   0.704   1.376
11352TIP3   OH234000   1.563   5.086   4.666
11352TIP3    H134001   1.581   5.093   4.572
11352TIP3    H234002   1.469   5.103   4.674
11353TIP3   OH234003   7.589   0.509   3.043
11353TIP3    H134004   7.625   0.461   3.118
11353TIP3    H234005   7.655   0.576   3.025
11354TIP3   OH234006   0.811   4.384   1.764
11354TIP3    H134007   0.887   4.409   1.712
11354TIP3    H234008   0.833   4.412   1.853
11355TIP3   OH234009   2.473   0.757   3.489
11355TIP3    H134010   2.504   0.848   3.485
11355TIP3    H234011   2.378   0.765   3.502
11356TIP3   OH234012   1.387   2.778   6.600
11356TIP3    H134013   1.383   2.702   6.657
11356TIP3    H234014   1.315   2.834   6.630
11357TIP3   OH234015   4.744   7.096   1.601
11357TIP3    H134016   4.758   7.155   1.674
11357TIP3    H234017   4.679   7.140   1.546
11358TIP3   OH234018   2.402   5.441   0.569
11358TIP3    H134019   2.434   5.361   0.529
11358TIP3    H234020   2.368   5.414   0.654
11359TIP3   OH234021   6.353   4.623   4.531
11359TIP3    H134022   6.401   4.558   4.581
11359TIP3    H234023   6.350   4.588   4.442
11360TIP3   OH234024   7.113   7.437   0.820
11360TIP3    H134025   7.120   7.531   0.835
11360TIP3    H234026   7.152   7.397   0.898
11361TIP3   OH234027   0.107   6.650   2.082
11361TIP3    H134028   0.163   6.707   2.029
11361TIP3    H234029   0.020   6.688   2.073
11362TIP3   OH234030   6.016   5.954   6.504
11362TIP3    H134031   6.095   5.916   6.466
11362TIP3    H234032   5.945   5.894   6.480
11363TIP3   OH234033   6.381   6.712   3.827
11363TIP3    H134034   6.375   6.744   3.917
11363TIP3    H234035   6.459   6.657   3.825
11364TIP3   OH234036   1.940   1.034   0.115
11364TIP3    H134037   1.875   1.099   0.088
11364TIP3    H234038   1.940   0.970   0.044
11365TIP3   OH234039   6.465   6.623   6.679
11365TIP3    H134040   6.519   6.695   6.711
11365TIP3    H234041   6.453   6.642   6.585
11366TIP3   OH234042   6.681   3.659   1.819
11366TIP3    H134043   6.753   3.707   1.779
11366TIP3    H234044   6.661   3.589   1.757
11367TIP3   OH234045   3.102   0.617   6.597
11367TIP3    H134046   3.013   0.608   6.631
11367TIP3    H234047   3.106   0.553   6.525
11368TIP3   OH234048   6.965   6.917   2.935
11368TIP3    H134049   6.989   6.891   3.023
11368TIP3    H234050   7.034   6.881   2.879
11369TIP3   OH234051   2.335   2.888   2.819
11369TIP3    H134052   2.310   2.842   2.899
11369TIP3    H234053   2.264   2.868   2.757
11370TIP3   OH234054   1.533   4.221   4.904
11370TIP3    H134055   1.491   4.187   4.825
11370TIP3    H234056   1.503   4.311   4.910
11371TIP3   OH234057   1.527   2.566   6.318
11371TIP3    H134058   1.593   2.634   6.332
11371TIP3    H234059   1.559   2.516   6.243
11372TIP3   OH234060   1.661   3.876   1.596
11372TIP3    H134061   1.597   3.828   1.544
11372TIP3    H234062   1.657   3.965   1.561
11373TIP3   OH234063   6.131   7.296   1.367
11373TIP3    H134064   6.050   7.336   1.335
11373TIP3    H234065   6.121   7.297   1.463
11374TIP3   OH234066   5.158   5.327   2.302
11374TIP3    H134067   5.252   5.308   2.295
11374TIP3    H234068   5.129   5.334   2.211
11375TIP3   OH234069   1.767   5.524   3.916
11375TIP3    H134070   1.707   5.596   3.938
11375TIP3    H234071   1.712   5.446   3.916
11376TIP3   OH234072   0.509   3.104   0.580
11376TIP3    H134073   0.554   3.163   0.640
11376TIP3    H234074   0.556   3.113   0.497
11377TIP3   OH234075   3.393   1.742   1.555
11377TIP3    H134076   3.419   1.659   1.596
11377TIP3    H234077   3.354   1.716   1.472
11378TIP3   OH234078   2.072   7.351   2.106
11378TIP3    H134079   2.083   7.297   2.185
11378TIP3    H234080   1.987   7.393   2.117
11379TIP3   OH234081   4.919   7.541   1.225
11379TIP3    H134082   4.913   7.483   1.301
11379TIP3    H234083   4.848   7.604   1.237
11380TIP3   OH234084   6.995   4.208   3.450
11380TIP3    H134085   6.929   4.277   3.449
11380TIP3    H234086   7.022   4.202   3.542
11381TIP3   OH234087   5.982   0.284   6.707
11381TIP3    H134088   5.942   0.202   6.680
11381TIP3    H234089   6.068   0.284   6.666
11382TIP3   OH234090   4.376   1.267   3.592
11382TIP3    H134091   4.416   1.350   3.617
11382TIP3    H234092   4.342   1.231   3.674
11383TIP3   OH234093   1.774   0.187   1.360
11383TIP3    H134094   1.857   0.195   1.313
11383TIP3    H234095   1.797   0.150   1.445
11384TIP3   OH234096   7.570   2.691   0.113
11384TIP3    H134097   7.549   2.709   0.205
11384TIP3    H234098   7.487   2.668   0.073
11385TIP3   OH234099   7.930   1.483   2.164
11385TIP3    H134100   7.898   1.466   2.076
11385TIP3    H234101   7.869   1.435   2.221
11386TIP3   OH234102   7.909   2.134   5.355
11386TIP3    H134103   7.949   2.072   5.294
11386TIP3    H234104   7.929   2.098   5.442
11387TIP3   OH234105   4.589   1.721   6.720
11387TIP3    H134106   4.530   1.679   6.783
11387TIP3    H234107   4.580   1.815   6.737
11388TIP3   OH234108   5.471   1.336   2.111
11388TIP3    H134109   5.436   1.416   2.071
11388TIP3    H234110   5.468   1.352   2.205
11389TIP3   OH234111  -0.016   4.748   3.282
11389TIP3    H134112   0.050   4.786   3.224
11389TIP3    H234113   0.008   4.781   3.369
11390TIP3   OH234114   8.083   1.474   3.348
11390TIP3    H134115   8.081   1.564   3.317
11390TIP3    H234116   8.014   1.430   3.298
11391TIP3   OH234117   6.552   0.247   5.658
11391TIP3    H134118   6.515   0.192   5.727
11391TIP3    H234119   6.637   0.209   5.639
11392TIP3   OH234120   1.685   2.524   2.300
11392TIP3    H134121   1.731   2.527   2.384
11392TIP3    H234122   1.636   2.606   2.297
11393TIP3   OH234123   7.214   1.660   3.852
11393TIP3    H134124   7.221   1.747   3.889
11393TIP3    H234125   7.124   1.634   3.868
11394TIP3   OH234126   1.086   3.408   3.775
11394TIP3    H134127   1.011   3.465   3.792
11394TIP3    H234128   1.055   3.320   3.797
11395TIP3   OH234129   3.217   0.332   4.556
11395TIP3    H134130   3.127   0.344   4.524
11395TIP3    H234131   3.270   0.389   4.499
11396TIP3   OH234132   0.063   6.619   1.180
11396TIP3    H134133   0.077   6.552   1.114
11396TIP3    H234134  -0.030   6.640   1.175
11397TIP3   OH234135   6.102   3.533   1.183
11397TIP3    H134136   6.096   3.611   1.238
11397TIP3    H234137   6.046   3.469   1.226
11398TIP3   OH234138   4.682   0.800   6.736
11398TIP3    H134139   4.720   0.834   6.817
11398TIP3    H234140   4.635   0.875   6.699
11399TIP3   OH234141   2.191   2.029   1.635
11399TIP3    H134142   2.218   1.956   1.691
11399TIP3    H234143   2.270   2.082   1.625
11400TIP3   OH234144   4.602   0.130   5.875
11400TIP3    H134145   4.584   0.171   5.791
11400TIP3    H234146   4.558   0.186   5.939
11401TIP3   OH234147   1.361   4.073   1.547
11401TIP3    H134148   1.412   4.069   1.628
11401TIP3    H234149   1.270   4.075   1.577
11402TIP3   OH234150   1.810   2.735   5.820
11402TIP3    H134151   1.840   2.768   5.905
11402TIP3    H234152   1.794   2.814   5.769
11403TIP3   OH234153   6.236   0.184   4.327
11403TIP3    H134154   6.277   0.228   4.253
11403TIP3    H234155   6.284   0.214   4.404
11404TIP3   OH234156   4.271   7.533   6.323
11404TIP3    H134157   4.236   7.510   6.409
11404TIP3    H234158   4.197   7.522   6.263
11405TIP3   OH234159   5.233   6.035   2.107
11405TIP3    H134160   5.148   6.001   2.079
11405TIP3    H234161   5.296   5.974   2.067
11406TIP3   OH234162   1.492   4.102   6.437
11406TIP3    H134163   1.521   4.122   6.348
11406TIP3    H234164   1.424   4.167   6.456
11407TIP3   OH234165   5.431   5.733   0.464
11407TIP3    H134166   5.413   5.646   0.427
11407TIP3    H234167   5.388   5.793   0.403
11408TIP3   OH234168   4.592   5.706   0.968
11408TIP3    H134169   4.677   5.750   0.965
11408TIP3    H234170   4.538   5.761   1.025
11409TIP3   OH234171   5.725   6.116   0.273
11409TIP3    H134172   5.744   6.027   0.304
11409TIP3    H234173   5.697   6.104   0.183
11410TIP3   OH234174   0.095   3.180   5.632
11410TIP3    H134175   0.042   3.228   5.696
11410TIP3    H234176   0.034   3.158   5.562
11411TIP3   OH234177   3.553   6.796   4.730
11411TIP3    H134178   3.595   6.711   4.739
11411TIP3    H234179   3.491   6.801   4.803
11412TIP3   OH234180   0.081   4.341   2.366
11412TIP3    H134181   0.136   4.417   2.349
11412TIP3    H234182   0.142   4.269   2.382
11413TIP3   OH234183   6.277   4.913   6.417
11413TIP3    H134184   6.360   4.926   6.371
11413TIP3    H234185   6.281   4.822   6.448
11414TIP3   OH234186   7.593   0.449   5.292
11414TIP3    H134187   7.505   0.487   5.292
11414TIP3    H234188   7.595   0.393   5.370
11415TIP3   OH234189   3.278   0.608   1.215
11415TIP3    H134190   3.273   0.554   1.294
11415TIP3    H234191   3.254   0.695   1.244
11416TIP3   OH234192   6.599   3.622   0.608
11416TIP3    H134193   6.518   3.670   0.625
11416TIP3    H234194   6.618   3.640   0.516
11417TIP3   OH234195   5.902   4.463   6.012
11417TIP3    H134196   5.865   4.468   6.100
11417TIP3    H234197   5.826   4.462   5.954
11418TIP3   OH234198   4.457   6.782   4.846
11418TIP3    H134199   4.391   6.748   4.785
11418TIP3    H234200   4.534   6.796   4.792
11419TIP3   OH234201   1.195   6.658   6.189
11419TIP3    H134202   1.222   6.626   6.103
11419TIP3    H234203   1.171   6.750   6.173
11420TIP3   OH234204   1.250   6.663   0.113
11420TIP3    H134205   1.279   6.681   0.023
11420TIP3    H234206   1.169   6.614   0.103
11421TIP3   OH234207   8.087   7.339   0.043
11421TIP3    H134208   8.080   7.362  -0.049
11421TIP3    H234209   8.049   7.414   0.089
11422TIP3   OH234210   1.246   5.718   4.746
11422TIP3    H134211   1.324   5.662   4.743
11422TIP3    H234212   1.242   5.759   4.660
11423TIP3   OH234213   4.322   6.404   6.172
11423TIP3    H134214   4.391   6.453   6.127
11423TIP3    H234215   4.357   6.316   6.182
11424TIP3   OH234216   5.955   4.952   1.810
11424TIP3    H134217   5.999   4.869   1.830
11424TIP3    H234218   5.962   4.960   1.715
11425TIP3   OH234219   3.602   0.916   1.249
11425TIP3    H134220   3.638   0.854   1.186
11425TIP3    H234221   3.513   0.932   1.218
11426TIP3   OH234222   0.327   5.857   5.244
11426TIP3    H134223   0.246   5.821   5.207
11426TIP3    H234224   0.317   5.848   5.338
11427TIP3   OH234225   6.647   2.443   2.110
11427TIP3    H134226   6.567   2.392   2.114
11427TIP3    H234227   6.631   2.509   2.043
11428TIP3   OH234228   5.871   7.637   3.216
11428TIP3    H134229   5.826   7.663   3.136
11428TIP3    H234230   5.810   7.659   3.286
11429TIP3   OH234231   0.385   2.640   6.342
11429TIP3    H134232   0.443   2.568   6.366
11429TIP3    H234233   0.302   2.598   6.319
11430TIP3   OH234234   4.886   0.242   1.228
11430TIP3    H134235   4.839   0.161   1.208
11430TIP3    H234236   4.818   0.310   1.222
11431TIP3   OH234237   8.219   0.706   4.117
11431TIP3    H134238   8.300   0.748   4.086
11431TIP3    H234239   8.248   0.624   4.156
11432TIP3   OH234240   6.630   5.416   4.238
11432TIP3    H134241   6.628   5.411   4.334
11432TIP3    H234242   6.540   5.433   4.213
11433TIP3   OH234243   1.329   5.133   1.851
11433TIP3    H134244   1.340   5.040   1.832
11433TIP3    H234245   1.410   5.159   1.895
11434TIP3   OH234246   5.864   2.409   5.462
11434TIP3    H134247   5.928   2.407   5.391
11434TIP3    H234248   5.915   2.428   5.540
11435TIP3   OH234249   0.976   4.578   0.569
11435TIP3    H134250   1.018   4.518   0.507
11435TIP3    H234251   0.884   4.576   0.545
11436TIP3   OH234252   6.081   7.255   0.085
11436TIP3    H134253   6.001   7.228   0.130
11436TIP3    H234254   6.131   7.174   0.075
11437TIP3   OH234255   0.748   4.381   0.271
11437TIP3    H134256   0.685   4.335   0.327
11437TIP3    H234257   0.704   4.464   0.250
11438TIP3   OH234258   4.421   3.206   6.671
11438TIP3    H134259   4.328   3.224   6.686
11438TIP3    H234260   4.423   3.154   6.591
11439TIP3   OH234261   0.904   2.031   6.047
11439TIP3    H134262   0.989   2.027   6.092
11439TIP3    H234263   0.847   1.975   6.098
11440TIP3   OH234264   5.237   4.741   0.784
11440TIP3    H134265   5.149   4.774   0.766
11440TIP3    H234266   5.247   4.666   0.726
11441TIP3   OH234267   2.143   3.733   5.046
11441TIP3    H134268   2.189   3.660   5.086
11441TIP3    H234269   2.144   3.802   5.113
11442TIP3   OH234270   7.369   4.631   6.661
11442TIP3    H134271   7.361   4.547   6.708
11442TIP3    H234272   7.369   4.606   6.568
11443TIP3   OH234273   7.784   3.872   3.005
11443TIP3    H134274   7.782   3.880   2.910
11443TIP3    H234275   7.808   3.781   3.021
11444TIP3   OH234276   5.855   1.622   6.013
11444TIP3    H134277   5.911   1.700   6.007
11444TIP3    H234278   5.846   1.607   6.107
11445TIP3   OH234279   7.707   0.887   1.872
11445TIP3    H134280   7.717   0.862   1.780
11445TIP3    H234281   7.708   0.982   1.871
11446TIP3   OH234282   7.506   0.441   2.242
11446TIP3    H134283   7.483   0.401   2.326
11446TIP3    H234284   7.601   0.444   2.241
11447TIP3   OH234285   0.941   0.239   2.454
11447TIP3    H134286   0.969   0.314   2.506
11447TIP3    H234287   0.980   0.254   2.368
11448TIP3   OH234288   7.136   5.272   5.313
11448TIP3    H134289   7.200   5.343   5.311
11448TIP3    H234290   7.058   5.312   5.351
11449TIP3   OH234291   3.745   0.890   2.845
11449TIP3    H134292   3.655   0.922   2.841
11449TIP3    H234293   3.738   0.804   2.886
11450TIP3   OH234294   5.912   7.541   6.111
11450TIP3    H134295   5.912   7.626   6.067
11450TIP3    H234296   5.894   7.478   6.041
11451TIP3   OH234297   6.123   4.068   1.998
11451TIP3    H134298   6.180   4.083   2.073
11451TIP3    H234299   6.072   4.149   1.990
11452TIP3   OH234300   6.040   7.558   1.950
11452TIP3    H134301   6.014   7.603   1.870
11452TIP3    H234302   6.057   7.629   2.013
11453TIP3   OH234303   0.121   1.145   4.531
11453TIP3    H134304   0.110   1.220   4.590
11453TIP3    H234305   0.042   1.093   4.545
11454TIP3   OH234306   3.742   6.967   4.562
11454TIP3    H134307   3.669   6.937   4.616
11454TIP3    H234308   3.727   7.061   4.553
11455TIP3   OH234309   5.496   1.512   2.422
11455TIP3    H134310   5.412   1.547   2.392
11455TIP3    H234311   5.511   1.554   2.507
11456TIP3   OH234312   5.548   6.664   0.514
11456TIP3    H134313   5.631   6.697   0.480
11456TIP3    H234314   5.493   6.742   0.523
11457TIP3   OH234315   7.361   1.394   6.013
11457TIP3    H134316   7.345   1.304   5.987
11457TIP3    H234317   7.451   1.394   6.046
11458TIP3   OH234318   6.584   6.541   3.827
11458TIP3    H134319   6.676   6.517   3.812
11458TIP3    H234320   6.546   6.465   3.871
11459TIP3   OH234321   2.120   4.700   2.251
11459TIP3    H134322   2.208   4.738   2.256
11459TIP3    H234323   2.089   4.700   2.342
11460TIP3   OH234324   0.602   5.209   0.953
11460TIP3    H134325   0.561   5.292   0.931
11460TIP3    H234326   0.555   5.178   1.030
11461TIP3   OH234327   6.746   0.112   6.749
11461TIP3    H134328   6.699   0.164   6.683
11461TIP3    H234329   6.773   0.033   6.702
11462TIP3   OH234330   8.343   1.372   4.679
11462TIP3    H134331   8.287   1.413   4.613
11462TIP3    H234332   8.359   1.441   4.743
11463TIP3   OH234333   6.545   2.744   1.406
11463TIP3    H134334   6.526   2.749   1.312
11463TIP3    H234335   6.495   2.668   1.436
11464TIP3   OH234336   8.167   4.549   6.281
11464TIP3    H134337   8.178   4.643   6.287
11464TIP3    H234338   8.076   4.534   6.309
11465TIP3   OH234339   0.978   3.912   1.249
11465TIP3    H134340   0.927   3.968   1.191
11465TIP3    H234341   0.926   3.832   1.257
11466TIP3   OH234342   1.731   4.429   0.092
11466TIP3    H134343   1.733   4.409  -0.001
11466TIP3    H234344   1.656   4.489   0.102
11467TIP3   OH234345   3.069   2.611   6.032
11467TIP3    H134346   3.012   2.656   6.095
11467TIP3    H234347   3.068   2.520   6.060
11468TIP3   OH234348   2.117   7.068   3.792
11468TIP3    H134349   2.205   7.085   3.825
11468TIP3    H234350   2.104   7.133   3.723
11469TIP3   OH234351   3.223   2.445   3.459
11469TIP3    H134352   3.219   2.505   3.384
11469TIP3    H234353   3.256   2.499   3.531
11470TIP3   OH234354   3.672   2.216   1.219
11470TIP3    H134355   3.731   2.231   1.145
11470TIP3    H234356   3.590   2.259   1.193
11471TIP3   OH234357   4.949   1.698   3.409
11471TIP3    H134358   4.857   1.672   3.415
11471TIP3    H234359   4.965   1.747   3.490
11472TIP3   OH234360   2.355   3.257   3.172
11472TIP3    H134361   2.376   3.197   3.101
11472TIP3    H234362   2.325   3.337   3.129
11473TIP3   OH234363   1.965   5.625   1.860
11473TIP3    H134364   1.919   5.688   1.804
11473TIP3    H234365   1.897   5.566   1.891
11474TIP3   OH234366   7.021   1.017   4.946
11474TIP3    H134367   6.926   1.008   4.939
11474TIP3    H234368   7.038   1.012   5.040
11475TIP3   OH234369   7.228   5.735   1.338
11475TIP3    H134370   7.299   5.672   1.352
11475TIP3    H234371   7.249   5.807   1.398
11476TIP3   OH234372   6.952   2.769   6.339
11476TIP3    H134373   6.878   2.733   6.292
11476TIP3    H234374   6.933   2.863   6.346
11477TIP3   OH234375   2.666   7.330   1.678
11477TIP3    H134376   2.726   7.256   1.669
11477TIP3    H234377   2.580   7.293   1.657
11478TIP3   OH234378   2.662   3.373   1.262
11478TIP3    H134379   2.740   3.407   1.305
11478TIP3    H234380   2.617   3.451   1.230
11479TIP3   OH234381   5.186   6.485   4.320
11479TIP3    H134382   5.217   6.538   4.394
11479TIP3    H234383   5.257   6.423   4.304
11480TIP3   OH234384   2.357   1.896   1.821
11480TIP3    H134385   2.342   1.839   1.897
11480TIP3    H234386   2.425   1.851   1.771
11481TIP3   OH234387   0.095   4.968   3.485
11481TIP3    H134388   0.141   5.025   3.423
11481TIP3    H234389   0.007   5.006   3.491
11482TIP3   OH234390   5.338   0.789   5.868
11482TIP3    H134391   5.281   0.852   5.912
11482TIP3    H234392   5.280   0.741   5.810
11483TIP3   OH234393   0.884   5.021   0.626
11483TIP3    H134394   0.921   4.942   0.587
11483TIP3    H234395   0.847   4.992   0.709
11484TIP3   OH234396   1.865   2.335   3.542
11484TIP3    H134397   1.824   2.309   3.624
11484TIP3    H234398   1.857   2.430   3.540
11485TIP3   OH234399   6.690   6.202   1.610
11485TIP3    H134400   6.776   6.209   1.650
11485TIP3    H234401   6.698   6.248   1.526
11486TIP3   OH234402   2.758   0.571   3.941
11486TIP3    H134403   2.680   0.615   3.976
11486TIP3    H234404   2.830   0.629   3.964
11487TIP3   OH234405   2.542   3.891   0.059
11487TIP3    H134406   2.624   3.931   0.087
11487TIP3    H234407   2.518   3.833   0.132
11488TIP3   OH234408   3.945   4.504   0.430
11488TIP3    H134409   3.995   4.424   0.445
11488TIP3    H234410   3.922   4.534   0.518
11489TIP3   OH234411   1.107   4.034   3.164
11489TIP3    H134412   1.045   4.053   3.094
11489TIP3    H234413   1.056   4.044   3.245
11490TIP3   OH234414   1.575   5.000   3.596
11490TIP3    H134415   1.537   5.044   3.520
11490TIP3    H234416   1.642   5.060   3.628
11491TIP3   OH234417   4.771   1.334   4.119
11491TIP3    H134418   4.743   1.425   4.107
11491TIP3    H234419   4.864   1.339   4.139
11492TIP3   OH234420   4.718   2.539   2.043
11492TIP3    H134421   4.675   2.469   2.093
11492TIP3    H234422   4.647   2.582   1.995
11493TIP3   OH234423   7.374   2.700   2.763
11493TIP3    H134424   7.332   2.786   2.772
11493TIP3    H234425   7.435   2.712   2.690
11494TIP3   OH234426   4.189   7.621   1.712
11494TIP3    H134427   4.235   7.647   1.632
11494TIP3    H234428   4.106   7.584   1.681
11495TIP3   OH234429   8.193   2.933   5.277
11495TIP3    H134430   8.289   2.931   5.282
11495TIP3    H234431   8.174   2.995   5.207
11496TIP3   OH234432   1.082   4.262   1.154
11496TIP3    H134433   1.003   4.220   1.120
11496TIP3    H234434   1.084   4.237   1.247
11497TIP3   OH234435   4.277   3.613   5.437
11497TIP3    H134436   4.210   3.659   5.488
11497TIP3    H234437   4.258   3.520   5.450
11498TIP3   OH234438   2.869   3.596   6.079
11498TIP3    H134439   2.955   3.629   6.054
11498TIP3    H234440   2.862   3.511   6.035
11499TIP3   OH234441   4.307   1.383   0.137
11499TIP3    H134442   4.227   1.426   0.167
11499TIP3    H234443   4.305   1.297   0.178
11500TIP3   OH234444   6.950   3.168   6.670
11500TIP3    H134445   7.010   3.242   6.655
11500TIP3    H234446   6.998   3.111   6.730
11501TIP3   OH234447   4.711   5.047   2.882
11501TIP3    H134448   4.727   4.968   2.831
11501TIP3    H234449   4.765   5.114   2.839
11502TIP3   OH234450   4.536   1.430   4.529
11502TIP3    H134451   4.582   1.395   4.605
11502TIP3    H234452   4.474   1.361   4.505
11503TIP3   OH234453   1.394   4.702   4.556
11503TIP3    H134454   1.398   4.679   4.463
11503TIP3    H234455   1.360   4.791   4.557
11504TIP3   OH234456   4.667   5.762   6.031
11504TIP3    H134457   4.663   5.797   5.942
11504TIP3    H234458   4.756   5.730   6.041
11505TIP3   OH234459   2.120   5.290   0.330
11505TIP3    H134460   2.060   5.296   0.404
11505TIP3    H234461   2.137   5.196   0.320
11506TIP3   OH234462   6.162   1.734   3.537
11506TIP3    H134463   6.154   1.658   3.479
11506TIP3    H234464   6.112   1.710   3.615
11507TIP3   OH234465   1.904   3.458   3.702
11507TIP3    H134466   1.968   3.419   3.761
11507TIP3    H234467   1.823   3.409   3.717
11508TIP3   OH234468   8.262   4.410   4.543
11508TIP3    H134469   8.219   4.353   4.479
11508TIP3    H234470   8.355   4.388   4.535
11509TIP3   OH234471   1.198   6.560   0.747
11509TIP3    H134472   1.275   6.610   0.773
11509TIP3    H234473   1.226   6.468   0.749
11510TIP3   OH234474   1.436   1.957   5.816
11510TIP3    H134475   1.520   1.990   5.848
11510TIP3    H234476   1.439   1.863   5.832
11511TIP3   OH234477   1.544   6.131   2.247
11511TIP3    H134478   1.599   6.091   2.180
11511TIP3    H234479   1.599   6.199   2.285
11512TIP3   OH234480   6.511   6.550   5.459
11512TIP3    H134481   6.563   6.503   5.524
11512TIP3    H234482   6.427   6.565   5.502
11513TIP3   OH234483   3.854   6.387   4.394
11513TIP3    H134484   3.770   6.421   4.425
11513TIP3    H234485   3.837   6.360   4.304
11514TIP3   OH234486   5.643   0.464   5.726
11514TIP3    H134487   5.648   0.414   5.808
11514TIP3    H234488   5.637   0.397   5.658
11515TIP3   OH234489   2.942   6.421   0.946
11515TIP3    H134490   2.961   6.335   0.909
11515TIP3    H234491   3.028   6.460   0.963
11516TIP3   OH234492   6.996   1.416   4.715
11516TIP3    H134493   6.958   1.337   4.677
11516TIP3    H234494   7.060   1.384   4.778
11517TIP3   OH234495   8.134   1.502   4.960
11517TIP3    H134496   8.150   1.495   5.055
11517TIP3    H234497   8.213   1.544   4.926
11518TIP3   OH234498   4.821   2.705   5.501
11518TIP3    H134499   4.782   2.792   5.496
11518TIP3    H234500   4.753   2.646   5.469
11519TIP3   OH234501   5.171   3.943   2.646
11519TIP3    H134502   5.233   3.871   2.639
11519TIP3    H234503   5.169   3.963   2.740
11520TIP3   OH234504   7.001   6.278   5.172
11520TIP3    H134505   6.992   6.282   5.077
11520TIP3    H234506   7.095   6.266   5.186
11521TIP3   OH234507   0.269   7.677   3.708
11521TIP3    H134508   0.325   7.697   3.783
11521TIP3    H234509   0.292   7.587   3.685
11522TIP3   OH234510   3.841   3.534   0.229
11522TIP3    H134511   3.851   3.582   0.311
11522TIP3    H234512   3.930   3.526   0.194
11523TIP3   OH234513   2.987   7.063   0.691
11523TIP3    H134514   2.958   7.027   0.775
11523TIP3    H234515   3.077   7.090   0.706
11524TIP3   OH234516   5.401   1.142   4.720
11524TIP3    H134517   5.347   1.221   4.725
11524TIP3    H234518   5.412   1.127   4.626
11525TIP3   OH234519   6.483   1.657   5.184
11525TIP3    H134520   6.459   1.583   5.239
11525TIP3    H234521   6.567   1.687   5.218
11526TIP3   OH234522   2.163   5.227   2.563
11526TIP3    H134523   2.109   5.206   2.639
11526TIP3    H234524   2.192   5.317   2.578
11527TIP3   OH234525   5.864   5.697   6.359
11527TIP3    H134526   5.913   5.721   6.281
11527TIP3    H234527   5.794   5.640   6.327
11528TIP3   OH234528   7.362   6.170   2.313
11528TIP3    H134529   7.366   6.216   2.229
11528TIP3    H234530   7.452   6.142   2.330
11529TIP3   OH234531   4.974   2.327   2.564
11529TIP3    H134532   4.940   2.410   2.530
11529TIP3    H234533   4.968   2.267   2.490
11530TIP3   OH234534   4.759   4.858   5.668
11530TIP3    H134535   4.745   4.763   5.668
11530TIP3    H234536   4.733   4.885   5.756
11531TIP3   OH234537   2.354   2.932   1.234
11531TIP3    H134538   2.363   3.022   1.264
11531TIP3    H234539   2.420   2.923   1.165
11532TIP3   OH234540   7.449   5.161   1.554
11532TIP3    H134541   7.447   5.183   1.461
11532TIP3    H234542   7.538   5.180   1.581
11533TIP3   OH234543   4.802   0.371   2.209
11533TIP3    H134544   4.787   0.462   2.183
11533TIP3    H234545   4.868   0.339   2.148
11534TIP3   OH234546   6.269   4.750   2.916
11534TIP3    H134547   6.278   4.674   2.858
11534TIP3    H234548   6.341   4.807   2.891
11535TIP3   OH234549   0.155  -0.032   3.341
11535TIP3    H134550   0.194   0.050   3.311
11535TIP3    H234551   0.125  -0.014   3.430
11536TIP3   OH234552   5.022   7.044   2.560
11536TIP3    H134553   4.987   7.005   2.480
11536TIP3    H234554   4.949   7.095   2.595
11537TIP3   OH234555   7.197   4.485   1.827
11537TIP3    H134556   7.276   4.473   1.879
11537TIP3    H234557   7.165   4.396   1.812
11538TIP3   OH234558   6.383   5.762   2.189
11538TIP3    H134559   6.429   5.689   2.231
11538TIP3    H234560   6.331   5.801   2.259
11539TIP3   OH234561   6.641   1.350   0.718
11539TIP3    H134562   6.708   1.401   0.763
11539TIP3    H234563   6.676   1.337   0.630
11540TIP3   OH234564   4.235   2.563   5.264
11540TIP3    H134565   4.206   2.586   5.176
11540TIP3    H234566   4.325   2.594   5.269
11541TIP3   OH234567   1.778   5.866   4.399
11541TIP3    H134568   1.854   5.814   4.372
11541TIP3    H234569   1.776   5.859   4.494
11542TIP3   OH234570   0.126   7.555   1.582
11542TIP3    H134571   0.186   7.620   1.546
11542TIP3    H234572   0.077   7.523   1.507
11543TIP3   OH234573   1.056   7.418   1.587
11543TIP3    H134574   1.063   7.512   1.599
11543TIP3    H234575   1.018   7.407   1.500
11544TIP3   OH234576   2.417   4.374   3.379
11544TIP3    H134577   2.323   4.363   3.363
11544TIP3    H234578   2.424   4.396   3.472
11545TIP3   OH234579   7.555   5.814   0.326
11545TIP3    H134580   7.627   5.784   0.272
11545TIP3    H234581   7.494   5.740   0.329
11546TIP3   OH234582   3.739   5.307   2.371
11546TIP3    H134583   3.757   5.368   2.300
11546TIP3    H234584   3.826   5.281   2.403
11547TIP3   OH234585   6.318   2.348   3.001
11547TIP3    H134586   6.396   2.318   3.048
11547TIP3    H234587   6.348   2.424   2.951
11548TIP3   OH234588   4.605   2.632   6.665
11548TIP3    H134589   4.527   2.685   6.684
11548TIP3    H234590   4.652   2.681   6.598
11549TIP3   OH234591   4.437   3.102   2.439
11549TIP3    H134592   4.531   3.104   2.422
11549TIP3    H234593   4.410   3.013   2.418
11550TIP3   OH234594   5.376   4.742   3.756
11550TIP3    H134595   5.423   4.746   3.673
11550TIP3    H234596   5.385   4.830   3.792
11551TIP3   OH234597   1.487   1.827   1.339
11551TIP3    H134598   1.484   1.796   1.248
11551TIP3    H234599   1.574   1.866   1.347
11552TIP3   OH234600   3.098   2.917   0.905
11552TIP3    H134601   3.104   2.996   0.958
11552TIP3    H234602   3.012   2.922   0.863
11553TIP3   OH234603   6.584   3.124   6.214
11553TIP3    H134604   6.520   3.191   6.236
11553TIP3    H234605   6.532   3.047   6.192
11554TIP3   OH234606   7.252   0.088   0.066
11554TIP3    H134607   7.265   0.139  -0.014
11554TIP3    H234608   7.263   0.152   0.137
11555TIP3   OH234609   6.263   4.513   3.648
11555TIP3    H134610   6.235   4.595   3.607
11555TIP3    H234611   6.358   4.521   3.657
11556TIP3   OH234612   1.572   1.082   5.748
11556TIP3    H134613   1.665   1.074   5.729
11556TIP3    H234614   1.539   0.992   5.749
11557TIP3   OH234615   5.632   2.872   1.100
11557TIP3    H134616   5.566   2.813   1.063
11557TIP3    H234617   5.686   2.815   1.154
11558TIP3   OH234618   7.851   7.404   3.064
11558TIP3    H134619   7.923   7.387   3.003
11558TIP3    H234620   7.782   7.442   3.009
11559TIP3   OH234621   6.613   7.801   6.220
11559TIP3    H134622   6.524   7.765   6.213
11559TIP3    H234623   6.663   7.753   6.153
11560TIP3   OH234624   2.222   1.005   3.105
11560TIP3    H134625   2.248   1.055   3.027
11560TIP3    H234626   2.172   1.068   3.158
11561TIP3   OH234627   1.755   7.647   0.897
11561TIP3    H134628   1.827   7.583   0.899
11561TIP3    H234629   1.737   7.666   0.989
11562TIP3   OH234630   2.533   7.030   4.545
11562TIP3    H134631   2.557   7.119   4.520
11562TIP3    H234632   2.602   7.002   4.605
11563TIP3   OH234633   4.188   2.801   5.976
11563TIP3    H134634   4.279   2.824   5.954
11563TIP3    H234635   4.163   2.738   5.908
11564TIP3   OH234636   2.472   1.257   5.449
11564TIP3    H134637   2.433   1.254   5.362
11564TIP3    H234638   2.446   1.175   5.491
11565TIP3   OH234639   0.171   4.664   0.567
11565TIP3    H134640   0.154   4.638   0.657
11565TIP3    H234641   0.266   4.675   0.562
11566TIP3   OH234642   8.302   3.181   4.831
11566TIP3    H134643   8.236   3.236   4.790
11566TIP3    H234644   8.252   3.124   4.890
11567TIP3   OH234645   5.067   7.705   3.971
11567TIP3    H134646   5.149   7.732   3.930
11567TIP3    H234647   5.051   7.771   4.038
11568TIP3   OH234648   7.085   4.651   6.136
11568TIP3    H134649   7.003   4.602   6.128
11568TIP3    H234650   7.058   4.738   6.166
11569TIP3   OH234651   0.010   4.957   2.174
11569TIP3    H134652   0.035   5.048   2.157
11569TIP3    H234653   0.087   4.919   2.217
11570TIP3   OH234654   6.091   4.427   2.720
11570TIP3    H134655   6.015   4.473   2.756
11570TIP3    H234656   6.095   4.455   2.629
11571TIP3   OH234657   1.364   7.330   6.328
11571TIP3    H134658   1.343   7.356   6.238
11571TIP3    H234659   1.414   7.404   6.363
11572TIP3   OH234660   6.365   2.826   2.760
11572TIP3    H134661   6.272   2.849   2.759
11572TIP3    H234662   6.409   2.900   2.718
11573TIP3   OH234663   6.481   0.022   1.901
11573TIP3    H134664   6.556   0.064   1.860
11573TIP3    H234665   6.419   0.009   1.829
11574TIP3   OH234666   5.528   1.709   1.658
11574TIP3    H134667   5.558   1.796   1.682
11574TIP3    H234668   5.571   1.651   1.722
11575TIP3   OH234669   2.786   6.797   3.102
11575TIP3    H134670   2.741   6.872   3.062
11575TIP3    H234671   2.788   6.818   3.196
11576TIP3   OH234672   1.086   5.918   4.911
11576TIP3    H134673   1.112   5.846   4.852
11576TIP3    H234674   1.077   5.994   4.853
11577TIP3   OH234675   0.266   3.052   4.434
11577TIP3    H134676   0.255   3.058   4.529
11577TIP3    H234677   0.361   3.046   4.422
11578TIP3   OH234678   4.647   7.641   6.787
11578TIP3    H134679   4.556   7.664   6.767
11578TIP3    H234680   4.694   7.724   6.784
11579TIP3   OH234681   7.080   7.295   4.722
11579TIP3    H134682   7.123   7.353   4.784
11579TIP3    H234683   7.048   7.354   4.653
11580TIP3   OH234684   5.456   1.698   0.112
11580TIP3    H134685   5.453   1.618   0.163
11580TIP3    H234686   5.366   1.709   0.079
11581TIP3   OH234687   6.697   4.168   6.474
11581TIP3    H134688   6.713   4.158   6.568
11581TIP3    H234689   6.602   4.159   6.465
11582TIP3   OH234690   3.578   6.261   0.213
11582TIP3    H134691   3.617   6.181   0.250
11582TIP3    H234692   3.565   6.241   0.121
11583TIP3   OH234693   6.790   3.517   3.124
11583TIP3    H134694   6.729   3.527   3.051
11583TIP3    H234695   6.783   3.598   3.173
11584TIP3   OH234696   7.610   6.473   3.745
11584TIP3    H134697   7.699   6.448   3.718
11584TIP3    H234698   7.622   6.550   3.800
11585TIP3   OH234699   0.378   6.456   5.646
11585TIP3    H134700   0.433   6.469   5.724
11585TIP3    H234701   0.440   6.460   5.573
11586TIP3   OH234702   6.840   7.588   1.374
11586TIP3    H134703   6.838   7.511   1.319
11586TIP3    H234704   6.756   7.631   1.358
11587TIP3   OH234705   4.076   4.811   4.404
11587TIP3    H134706   4.049   4.719   4.401
11587TIP3    H234707   4.166   4.811   4.371
11588TIP3   OH234708   2.146   4.019   2.873
11588TIP3    H134709   2.186   4.078   2.937
11588TIP3    H234710   2.081   3.970   2.924
11589TIP3   OH234711   8.300   6.330   3.953
11589TIP3    H134712   8.214   6.365   3.932
11589TIP3    H234713   8.315   6.261   3.888
11590TIP3   OH234714   4.489   6.097   1.999
11590TIP3    H134715   4.557   6.039   1.963
11590TIP3    H234716   4.538   6.170   2.038
11591TIP3   OH234717   7.027   2.945   4.875
11591TIP3    H134718   7.058   2.863   4.914
11591TIP3    H234719   6.946   2.964   4.923
11592TIP3   OH234720   2.831   4.752   2.093
11592TIP3    H134721   2.805   4.660   2.091
11592TIP3    H234722   2.897   4.759   2.024
11593TIP3   OH234723   6.258   1.111   1.350
11593TIP3    H134724   6.311   1.031   1.343
11593TIP3    H234725   6.195   1.092   1.420
11594TIP3   OH234726   1.940   0.713   4.001
11594TIP3    H134727   1.863   0.763   3.974
11594TIP3    H234728   1.968   0.756   4.082
11595TIP3   OH234729   0.342   7.402   3.157
11595TIP3    H134730   0.421   7.361   3.122
11595TIP3    H234731   0.371   7.451   3.234
11596TIP3   OH234732   4.283   2.777   1.982
11596TIP3    H134733   4.187   2.774   1.981
11596TIP3    H234734   4.305   2.854   1.929
11597TIP3   OH234735   4.817   5.165   5.869
11597TIP3    H134736   4.896   5.133   5.827
11597TIP3    H234737   4.847   5.209   5.948
11598TIP3   OH234738   3.433   1.931   0.213
11598TIP3    H134739   3.489   1.864   0.172
11598TIP3    H234740   3.364   1.946   0.148
11599TIP3   OH234741   0.379   2.524   1.047
11599TIP3    H134742   0.336   2.601   1.009
11599TIP3    H234743   0.472   2.541   1.033
11600TIP3   OH234744   7.961   5.319   2.029
11600TIP3    H134745   7.993   5.295   2.116
11600TIP3    H234746   7.912   5.400   2.043
11601TIP3   OH234747   8.138   4.637   2.156
11601TIP3    H134748   8.212   4.577   2.163
11601TIP3    H234749   8.144   4.673   2.068
11602TIP3   OH234750   6.064   4.026   2.935
11602TIP3    H134751   6.022   3.982   2.862
11602TIP3    H234752   6.120   3.960   2.975
11603TIP3   OH234753   6.477   6.165   4.874
11603TIP3    H134754   6.531   6.220   4.816
11603TIP3    H234755   6.446   6.095   4.817
11604TIP3   OH234756   7.885   0.155   3.712
11604TIP3    H134757   7.958   0.114   3.758
11604TIP3    H234758   7.863   0.093   3.642
11605TIP3   OH234759   7.111   2.549   6.404
11605TIP3    H134760   7.075   2.637   6.398
11605TIP3    H234761   7.035   2.491   6.401
11606TIP3   OH234762   4.416   4.708   6.021
11606TIP3    H134763   4.367   4.790   6.011
11606TIP3    H234764   4.454   4.692   5.934
11607TIP3   OH234765   7.158   6.074   1.087
11607TIP3    H134766   7.065   6.055   1.103
11607TIP3    H234767   7.157   6.155   1.037
11608TIP3   OH234768   7.841   7.659   6.365
11608TIP3    H134769   7.896   7.604   6.421
11608TIP3    H234770   7.758   7.667   6.413
11609TIP3   OH234771   0.640   6.921   2.317
11609TIP3    H134772   0.570   6.860   2.336
11609TIP3    H234773   0.697   6.875   2.256
11610TIP3   OH234774   2.572   2.346   4.456
11610TIP3    H134775   2.587   2.314   4.545
11610TIP3    H234776   2.645   2.309   4.405
11611TIP3   OH234777   0.238   5.798   1.506
11611TIP3    H134778   0.163   5.742   1.526
11611TIP3    H234779   0.314   5.744   1.525
11612TIP3   OH234780   3.449   1.527   3.228
11612TIP3    H134781   3.542   1.539   3.246
11612TIP3    H234782   3.434   1.573   3.145
11613TIP3   OH234783   6.031   0.584   5.327
11613TIP3    H134784   6.001   0.494   5.334
11613TIP3    H234785   5.991   0.629   5.402
11614TIP3   OH234786   2.536   6.230   4.157
11614TIP3    H134787   2.484   6.150   4.163
11614TIP3    H234788   2.473   6.301   4.165
11615TIP3   OH234789   5.737   5.710   0.895
11615TIP3    H134790   5.775   5.765   0.826
11615TIP3    H234791   5.764   5.752   0.977
11616TIP3   OH234792   7.029   6.501   6.326
11616TIP3    H134793   6.995   6.586   6.298
11616TIP3    H234794   7.107   6.523   6.377
11617TIP3   OH234795   2.978   7.105   5.077
11617TIP3    H134796   3.006   7.022   5.036
11617TIP3    H234797   3.060   7.152   5.093
11618TIP3   OH234798   5.956   7.303   3.268
11618TIP3    H134799   5.874   7.297   3.219
11618TIP3    H234800   6.023   7.320   3.201
11619TIP3   OH234801   1.325   7.442   2.221
11619TIP3    H134802   1.332   7.529   2.183
11619TIP3    H234803   1.276   7.454   2.302
11620TIP3   OH234804   4.225   1.533   1.060
11620TIP3    H134805   4.291   1.594   1.093
11620TIP3    H234806   4.236   1.536   0.965
11621TIP3   OH234807   6.015   5.571   1.291
11621TIP3    H134808   6.047   5.609   1.208
11621TIP3    H234809   5.950   5.506   1.264
11622TIP3   OH234810   1.931   1.945   4.852
11622TIP3    H134811   2.019   1.905   4.846
11622TIP3    H234812   1.940   2.013   4.918
11623TIP3   OH234813   5.306   4.923   4.959
11623TIP3    H134814   5.230   4.960   4.913
11623TIP3    H234815   5.297   4.956   5.049
11624TIP3   OH234816   7.676   5.050   4.449
11624TIP3    H134817   7.728   5.060   4.369
11624TIP3    H234818   7.586   5.045   4.418
11625TIP3   OH234819   0.540   7.451   3.341
11625TIP3    H134820   0.591   7.524   3.305
11625TIP3    H234821   0.583   7.432   3.425
11626TIP3   OH234822   7.380   0.131   3.172
11626TIP3    H134823   7.366   0.224   3.151
11626TIP3    H234824   7.295   0.090   3.157
11627TIP3   OH234825   3.199   3.493   3.438
11627TIP3    H134826   3.199   3.555   3.512
11627TIP3    H234827   3.177   3.409   3.477
11628TIP3   OH234828   6.035   7.466   1.161
11628TIP3    H134829   5.966   7.413   1.122
11628TIP3    H234830   6.108   7.460   1.100
11629TIP3   OH234831   7.392   0.690   4.831
11629TIP3    H134832   7.371   0.604   4.795
11629TIP3    H234833   7.311   0.718   4.873
11630TIP3   OH234834   0.218   3.673   0.098
11630TIP3    H134835   0.168   3.710   0.025
11630TIP3    H234836   0.164   3.600   0.129
11631TIP3   OH234837   7.030   4.592   2.723
11631TIP3    H134838   7.105   4.578   2.666
11631TIP3    H234839   7.022   4.688   2.729
11632TIP3   OH234840   5.985   3.964   1.607
11632TIP3    H134841   5.990   3.923   1.693
11632TIP3    H234842   6.076   3.987   1.587
11633TIP3   OH234843   5.851   6.700   3.907
11633TIP3    H134844   5.835   6.724   3.816
11633TIP3    H234845   5.930   6.647   3.904
11634TIP3   OH234846   2.040   0.269   1.611
11634TIP3    H134847   1.988   0.199   1.651
11634TIP3    H234848   2.060   0.237   1.523
11635TIP3   OH234849   7.610   3.785   5.840
11635TIP3    H134850   7.658   3.756   5.918
11635TIP3    H234851   7.607   3.881   5.849
11636TIP3   OH234852   7.761   4.239   2.439
11636TIP3    H134853   7.744   4.224   2.346
11636TIP3    H234854   7.746   4.154   2.481
11637TIP3   OH234855   1.155   3.754   2.797
11637TIP3    H134856   1.190   3.816   2.861
11637TIP3    H234857   1.121   3.808   2.726
11638TIP3   OH234858   2.885   2.289   4.880
11638TIP3    H134859   2.890   2.351   4.952
11638TIP3    H234860   2.857   2.207   4.920
11639TIP3   OH234861   2.593   6.950   2.322
11639TIP3    H134862   2.551   6.871   2.288
11639TIP3    H234863   2.649   6.980   2.251
11640TIP3   OH234864   3.297   0.894   1.360
11640TIP3    H134865   3.343   0.881   1.442
11640TIP3    H234866   3.214   0.935   1.385
11641TIP3   OH234867   5.501   2.726   6.326
11641TIP3    H134868   5.504   2.651   6.265
11641TIP3    H234869   5.592   2.753   6.335
11642TIP3   OH234870   1.160   5.843   2.483
11642TIP3    H134871   1.148   5.848   2.578
11642TIP3    H234872   1.234   5.901   2.465
11643TIP3   OH234873   7.486   3.426   5.964
11643TIP3    H134874   7.399   3.464   5.955
11643TIP3    H234875   7.496   3.370   5.887
11644TIP3   OH234876   2.343   4.871   2.188
11644TIP3    H134877   2.409   4.890   2.121
11644TIP3    H234878   2.305   4.957   2.209
11645TIP3   OH234879   4.179   2.384   2.362
11645TIP3    H134880   4.161   2.414   2.274
11645TIP3    H234881   4.101   2.334   2.387
11646TIP3   OH234882   3.347   7.484   3.815
11646TIP3    H134883   3.397   7.547   3.762
11646TIP3    H234884   3.388   7.400   3.797
11647TIP3   OH234885   6.514   4.634   5.997
11647TIP3    H134886   6.531   4.547   6.031
11647TIP3    H234887   6.542   4.629   5.905
11648TIP3   OH234888   0.447   7.614   0.090
11648TIP3    H134889   0.376   7.566   0.046
11648TIP3    H234890   0.403   7.688   0.131
11649TIP3   OH234891   8.031   4.468   4.920
11649TIP3    H134892   7.953   4.414   4.936
11649TIP3    H234893   7.997   4.558   4.916
11650TIP3   OH234894   2.472   2.587   3.065
11650TIP3    H134895   2.420   2.507   3.067
11650TIP3    H234896   2.408   2.657   3.055
11651TIP3   OH234897   8.218   5.345   1.199
11651TIP3    H134898   8.193   5.276   1.138
11651TIP3    H234899   8.198   5.427   1.154
11652TIP3   OH234900   3.516   7.471   0.905
11652TIP3    H134901   3.572   7.423   0.965
11652TIP3    H234902   3.499   7.409   0.833
11653TIP3   OH234903   7.875   4.509   2.965
11653TIP3    H134904   7.797   4.531   2.914
11653TIP3    H234905   7.872   4.413   2.972
11654TIP3   OH234906   2.440   3.684   0.257
11654TIP3    H134907   2.486   3.632   0.322
11654TIP3    H234908   2.408   3.761   0.305
11655TIP3   OH234909   5.232   2.472   0.501
11655TIP3    H134910   5.212   2.466   0.407
11655TIP3    H234911   5.148   2.484   0.543
11656TIP3   OH234912   2.653   0.710   1.523
11656TIP3    H134913   2.706   0.787   1.501
11656TIP3    H234914   2.567   0.730   1.486
11657TIP3   OH234915   2.804   0.778   2.325
11657TIP3    H134916   2.748   0.829   2.384
11657TIP3    H234917   2.743   0.731   2.269
11658TIP3   OH234918   3.203   1.337   5.873
11658TIP3    H134919   3.261   1.262   5.886
11658TIP3    H234920   3.182   1.367   5.961
11659TIP3   OH234921   0.725   7.178   4.090
11659TIP3    H134922   0.663   7.109   4.115
11659TIP3    H234923   0.775   7.195   4.170
11660TIP3   OH234924   0.081   2.547   4.512
11660TIP3    H134925   0.008   2.530   4.571
11660TIP3    H234926   0.107   2.637   4.530
11661TIP3   OH234927   3.156   0.452   2.256
11661TIP3    H134928   3.175   0.491   2.342
11661TIP3    H234929   3.139   0.526   2.198
11662TIP3   OH234930   4.108   5.716   5.262
11662TIP3    H134931   4.115   5.648   5.329
11662TIP3    H234932   4.176   5.780   5.285
11663TIP3   OH234933   0.843   3.661   1.169
11663TIP3    H134934   0.772   3.718   1.141
11663TIP3    H234935   0.800   3.590   1.217
11664TIP3   OH234936   1.862   0.555   0.777
11664TIP3    H134937   1.862   0.531   0.685
11664TIP3    H234938   1.954   0.557   0.802
11665TIP3   OH234939   6.322   5.911   3.155
11665TIP3    H134940   6.375   5.990   3.172
11665TIP3    H234941   6.268   5.902   3.233
11666TIP3   OH234942   4.799   7.458   3.450
11666TIP3    H134943   4.818   7.518   3.522
11666TIP3    H234944   4.707   7.473   3.430
11667TIP3   OH234945   6.357   6.510   1.337
11667TIP3    H134946   6.346   6.556   1.420
11667TIP3    H234947   6.273   6.520   1.292
11668TIP3   OH234948   7.831   0.805   5.796
11668TIP3    H134949   7.797   0.879   5.745
11668TIP3    H234950   7.919   0.792   5.762
11669TIP3   OH234951   2.569   6.129   3.715
11669TIP3    H134952   2.635   6.185   3.674
11669TIP3    H234953   2.610   6.043   3.719
11670TIP3   OH234954   3.136   5.404   0.533
11670TIP3    H134955   3.045   5.391   0.506
11670TIP3    H234956   3.184   5.332   0.493
11671TIP3   OH234957   2.823   6.291   5.387
11671TIP3    H134958   2.912   6.267   5.364
11671TIP3    H234959   2.833   6.346   5.465
11672TIP3   OH234960   7.463   3.175   2.172
11672TIP3    H134961   7.505   3.240   2.229
11672TIP3    H234962   7.436   3.105   2.231
11673TIP3   OH234963   8.201   5.231   6.622
11673TIP3    H134964   8.282   5.280   6.608
11673TIP3    H234965   8.132   5.297   6.620
11674TIP3   OH234966   7.737   2.975   5.428
11674TIP3    H134967   7.777   2.966   5.515
11674TIP3    H234968   7.714   3.067   5.422
11675TIP3   OH234969   5.464   1.938   1.955
11675TIP3    H134970   5.448   1.973   1.867
11675TIP3    H234971   5.557   1.917   1.956
11676TIP3   OH234972   3.919   4.027   2.514
11676TIP3    H134973   3.868   3.949   2.534
11676TIP3    H234974   3.892   4.092   2.579
11677TIP3   OH234975   5.350   7.055   0.904
11677TIP3    H134976   5.418   7.115   0.934
11677TIP3    H234977   5.318   7.095   0.823
11678TIP3   OH234978   0.423   7.094   3.870
11678TIP3    H134979   0.368   7.024   3.834
11678TIP3    H234980   0.470   7.129   3.795
11679TIP3   OH234981   0.604   2.193   0.312
11679TIP3    H134982   0.518   2.153   0.322
11679TIP3    H234983   0.665   2.119   0.318
11680TIP3   OH234984   2.905   0.783   6.216
11680TIP3    H134985   2.820   0.743   6.235
11680TIP3    H234986   2.910   0.860   6.272
11681TIP3   OH234987   6.155   7.227   2.118
11681TIP3    H134988   6.203   7.304   2.087
11681TIP3    H234989   6.065   7.259   2.131
11682TIP3   OH234990   5.366   7.640   2.297
11682TIP3    H134991   5.323   7.711   2.250
11682TIP3    H234992   5.448   7.626   2.249
11683TIP3   OH234993   2.938   1.991   1.006
11683TIP3    H134994   2.853   1.951   0.990
11683TIP3    H234995   3.000   1.917   1.002
11684TIP3   OH234996   6.966   3.505   6.172
11684TIP3    H134997   6.936   3.574   6.232
11684TIP3    H234998   7.001   3.437   6.230
11685TIP3   OH234999   7.802   3.698   5.666
11685TIP3    H135000   7.738   3.735   5.728
11685TIP3    H235001   7.749   3.669   5.592
11686TIP3   OH235002   3.264   2.551   6.757
11686TIP3    H135003   3.176   2.544   6.720
11686TIP3    H235004   3.320   2.504   6.695
11687TIP3   OH235005   7.106   4.500   4.225
11687TIP3    H135006   7.031   4.559   4.214
11687TIP3    H235007   7.068   4.412   4.219
11688TIP3   OH235008   8.062   7.745   5.365
11688TIP3    H135009   8.138   7.800   5.384
11688TIP3    H235010   8.097   7.668   5.322
11689TIP3   OH235011   1.461   7.536   4.083
11689TIP3    H135012   1.485   7.446   4.061
11689TIP3    H235013   1.506   7.589   4.018
11690TIP3   OH235014   8.199   2.024   1.658
11690TIP3    H135015   8.257   1.987   1.724
11690TIP3    H235016   8.113   2.024   1.700
11691TIP3   OH235017   1.465   0.069   4.244
11691TIP3    H135018   1.520   0.129   4.294
11691TIP3    H235019   1.526   0.020   4.189
11692TIP3   OH235020   7.065   1.560   2.278
11692TIP3    H135021   7.012   1.584   2.354
11692TIP3    H235022   7.129   1.498   2.311
11693TIP3   OH235023   1.185   6.034   2.057
11693TIP3    H135024   1.240   5.969   2.014
11693TIP3    H235025   1.104   5.988   2.079
11694TIP3   OH235026   0.947   5.720   2.887
11694TIP3    H135027   1.028   5.765   2.864
11694TIP3    H235028   0.913   5.768   2.963
11695TIP3   OH235029   0.584   2.088   5.567
11695TIP3    H135030   0.546   2.169   5.601
11695TIP3    H235031   0.668   2.081   5.612
11696TIP3   OH235032   4.237   4.064   1.797
11696TIP3    H135033   4.308   4.042   1.736
11696TIP3    H235034   4.269   4.141   1.844
11697TIP3   OH235035   2.847   0.558   6.698
11697TIP3    H135036   2.772   0.559   6.638
11697TIP3    H235037   2.811   0.587   6.782
11698TIP3   OH235038   7.102   3.042   1.480
11698TIP3    H135039   7.058   2.971   1.434
11698TIP3    H235040   7.032   3.089   1.525
11699TIP3   OH235041   5.637   7.068   3.705
11699TIP3    H135042   5.613   6.992   3.757
11699TIP3    H235043   5.568   7.132   3.724
11700TIP3   OH235044   4.531   4.670   5.188
11700TIP3    H135045   4.495   4.582   5.197
11700TIP3    H235046   4.521   4.709   5.275
11701TIP3   OH235047   4.376   2.185   0.215
11701TIP3    H135048   4.335   2.108   0.177
11701TIP3    H235049   4.440   2.150   0.276
11702TIP3   OH235050   2.364   5.402   4.083
11702TIP3    H135051   2.398   5.327   4.033
11702TIP3    H235052   2.422   5.408   4.159
11703TIP3   OH235053   6.123   0.750   3.144
11703TIP3    H135054   6.037   0.787   3.128
11703TIP3    H235055   6.142   0.771   3.235
11704TIP3   OH235056   7.294   6.817   1.645
11704TIP3    H135057   7.338   6.902   1.656
11704TIP3    H235058   7.268   6.815   1.553
11705TIP3   OH235059   5.329   6.710   5.283
11705TIP3    H135060   5.319   6.658   5.362
11705TIP3    H235061   5.294   6.796   5.305
11706TIP3   OH235062   2.513   6.883   3.397
11706TIP3    H135063   2.497   6.959   3.342
11706TIP3    H235064   2.459   6.897   3.475
11707TIP3   OH235065   0.643   6.348   2.704
11707TIP3    H135066   0.559   6.392   2.716
11707TIP3    H235067   0.707   6.409   2.739
11708TIP3   OH235068   0.048   5.785   5.076
11708TIP3    H135069  -0.003   5.778   4.995
11708TIP3    H235070   0.043   5.877   5.100
11709TIP3   OH235071   6.469   1.891   4.355
11709TIP3    H135072   6.525   1.958   4.316
11709TIP3    H235073   6.424   1.851   4.281
11710TIP3   OH235074   8.121   1.732   4.092
11710TIP3    H135075   8.037   1.719   4.048
11710TIP3    H235076   8.163   1.646   4.090
11711TIP3   OH235077   6.441   3.961   0.339
11711TIP3    H135078   6.444   4.045   0.294
11711TIP3    H235079   6.397   3.902   0.277
11712TIP3   OH235080   0.373   6.441   2.654
11712TIP3    H135081   0.336   6.401   2.733
11712TIP3    H235082   0.346   6.383   2.582
11713TIP3   OH235083   1.958   6.060   1.972
11713TIP3    H135084   1.866   6.063   1.944
11713TIP3    H235085   1.954   6.051   2.067
11714TIP3   OH235086   3.729   4.127   5.714
11714TIP3    H135087   3.640   4.134   5.748
11714TIP3    H235088   3.773   4.206   5.745
11715TIP3   OH235089   7.081   4.604   2.344
11715TIP3    H135090   7.121   4.666   2.284
11715TIP3    H235091   7.143   4.596   2.416
11716TIP3   OH235092   6.715   0.900   5.745
11716TIP3    H135093   6.681   0.897   5.655
11716TIP3    H235094   6.641   0.933   5.797
11717TIP3   OH235095   7.476   7.420   4.411
11717TIP3    H135096   7.518   7.468   4.483
11717TIP3    H235097   7.494   7.473   4.334
11718TIP3   OH235098   6.914   6.308   3.223
11718TIP3    H135099   6.842   6.288   3.282
11718TIP3    H235100   6.915   6.403   3.218
11719TIP3   OH235101   0.868   1.924   3.148
11719TIP3    H135102   0.853   1.842   3.100
11719TIP3    H235103   0.903   1.983   3.082
11720TIP3   OH235104   5.664   5.535   5.051
11720TIP3    H135105   5.703   5.595   5.115
11720TIP3    H235106   5.636   5.459   5.103
11721TIP3   OH235107   4.822   5.898   4.927
11721TIP3    H135108   4.819   5.983   4.970
11721TIP3    H235109   4.910   5.893   4.888
11722TIP3   OH235110   2.184   2.683   5.394
11722TIP3    H135111   2.101   2.637   5.405
11722TIP3    H235112   2.214   2.660   5.306
11723TIP3   OH235113   5.135   4.085   1.224
11723TIP3    H135114   5.125   3.991   1.216
11723TIP3    H235115   5.143   4.100   1.318
11724TIP3   OH235116   2.968   0.168   5.546
11724TIP3    H135117   3.043   0.109   5.549
11724TIP3    H235118   2.892   0.111   5.537
11725TIP3   OH235119   0.088   4.169   1.240
11725TIP3    H135120   0.044   4.185   1.323
11725TIP3    H235121   0.055   4.238   1.182
11726TIP3   OH235122   3.232   6.094   5.527
11726TIP3    H135123   3.317   6.111   5.487
11726TIP3    H235124   3.248   6.022   5.589
11727TIP3   OH235125   7.916   1.596   1.836
11727TIP3    H135126   8.008   1.596   1.862
11727TIP3    H235127   7.918   1.603   1.740
11728TIP3   OH235128   2.743   1.267   0.562
11728TIP3    H135129   2.744   1.293   0.470
11728TIP3    H235130   2.728   1.173   0.561
11729TIP3   OH235131   2.050   1.016   3.694
11729TIP3    H135132   2.036   1.099   3.740
11729TIP3    H235133   1.986   0.956   3.734
11730TIP3   OH235134   3.984   0.717   4.344
11730TIP3    H135135   3.920   0.647   4.349
11730TIP3    H235136   3.933   0.797   4.338
11731TIP3   OH235137   1.383   6.744   0.818
11731TIP3    H135138   1.445   6.741   0.745
11731TIP3    H235139   1.352   6.835   0.819
11732TIP3   OH235140   2.103   5.423   0.732
11732TIP3    H135141   2.011   5.397   0.735
11732TIP3    H235142   2.102   5.508   0.690
11733TIP3   OH235143   2.756   1.083   6.004
11733TIP3    H135144   2.834   1.132   6.031
11733TIP3    H235145   2.789   0.994   5.990
11734TIP3   OH235146   4.427   0.865   5.730
11734TIP3    H135147   4.510   0.872   5.777
11734TIP3    H235148   4.361   0.894   5.792
11735TIP3   OH235149   0.889   5.578   1.735
11735TIP3    H135150   0.896   5.588   1.640
11735TIP3    H235151   0.855   5.490   1.748
11736TIP3   OH235152   2.951   4.658   2.586
11736TIP3    H135153   2.891   4.712   2.534
11736TIP3    H235154   2.951   4.573   2.541
11737TIP3   OH235155   6.472   3.049   2.606
11737TIP3    H135156   6.394   3.092   2.569
11737TIP3    H235157   6.506   2.996   2.534
11738TIP3   OH235158   4.288   4.744   3.697
11738TIP3    H135159   4.355   4.763   3.632
11738TIP3    H235160   4.207   4.778   3.659
11739TIP3   OH235161   2.843   3.298   0.779
11739TIP3    H135162   2.847   3.392   0.765
11739TIP3    H235163   2.935   3.269   0.774
11740TIP3   OH235164   1.117   0.189   5.353
11740TIP3    H135165   1.121   0.176   5.258
11740TIP3    H235166   1.031   0.228   5.368
11741TIP3   OH235167   4.584   4.765   0.543
11741TIP3    H135168   4.619   4.722   0.621
11741TIP3    H235169   4.650   4.751   0.476
11742TIP3   OH235170   2.220   0.177   0.099
11742TIP3    H135171   2.198   0.093   0.059
11742TIP3    H235172   2.274   0.221   0.033
11743TIP3   OH235173   5.066   7.562   0.104
11743TIP3    H135174   5.049   7.622   0.032
11743TIP3    H235175   4.989   7.570   0.160
11744TIP3   OH235176   3.113   6.233   0.377
11744TIP3    H135177   3.062   6.195   0.305
11744TIP3    H235178   3.095   6.177   0.452
11745TIP3   OH235179   7.657   1.005   4.172
11745TIP3    H135180   7.679   1.065   4.244
11745TIP3    H235181   7.670   1.057   4.093
11746TIP3   OH235182   3.043   2.825   5.843
11746TIP3    H135183   3.025   2.740   5.883
11746TIP3    H235184   2.999   2.822   5.758
11747TIP3   OH235185   1.689   2.143   4.049
11747TIP3    H135186   1.612   2.109   4.095
11747TIP3    H235187   1.749   2.068   4.044
11748TIP3   OH235188   1.911   0.584   3.116
11748TIP3    H135189   1.882   0.668   3.081
11748TIP3    H235190   1.970   0.549   3.049
11749TIP3   OH235191   3.303   4.509   6.594
11749TIP3    H135192   3.208   4.518   6.590
11749TIP3    H235193   3.336   4.563   6.523
11750TIP3   OH235194   5.505   6.990   3.270
11750TIP3    H135195   5.485   7.074   3.229
11750TIP3    H235196   5.600   6.981   3.264
11751TIP3   OH235197   6.283   4.625   6.211
11751TIP3    H135198   6.210   4.616   6.150
11751TIP3    H235199   6.351   4.669   6.160
11752TIP3   OH235200   1.418   7.079   6.293
11752TIP3    H135201   1.494   7.091   6.350
11752TIP3    H235202   1.362   7.155   6.311
11753TIP3   OH235203   3.071   3.790   6.749
11753TIP3    H135204   3.004   3.832   6.804
11753TIP3    H235205   3.028   3.776   6.665
11754TIP3   OH235206   7.558   5.443   0.428
11754TIP3    H135207   7.648   5.437   0.396
11754TIP3    H235208   7.507   5.468   0.352
11755TIP3   OH235209   0.612   2.376   0.530
11755TIP3    H135210   0.630   2.469   0.513
11755TIP3    H235211   0.600   2.338   0.443
11756TIP3   OH235212   6.614   7.380   2.905
11756TIP3    H135213   6.686   7.317   2.917
11756TIP3    H235214   6.627   7.413   2.816
11757TIP3   OH235215   4.034   3.359   4.214
11757TIP3    H135216   4.046   3.337   4.122
11757TIP3    H235217   4.074   3.445   4.225
11758TIP3   OH235218   1.239   6.553   6.747
11758TIP3    H135219   1.217   6.562   6.654
11758TIP3    H235220   1.283   6.468   6.753
11759TIP3   OH235221   3.903   7.251   0.015
11759TIP3    H135222   3.859   7.233  -0.068
11759TIP3    H235223   3.915   7.165   0.055
11760TIP3   OH235224   2.860   6.917   4.306
11760TIP3    H135225   2.860   6.863   4.227
11760TIP3    H235226   2.785   6.976   4.296
11761TIP3   OH235227   6.716   1.000   2.332
11761TIP3    H135228   6.686   0.957   2.252
11761TIP3    H235229   6.661   0.963   2.401
11762TIP3   OH235230   0.681   6.909   0.322
11762TIP3    H135231   0.665   6.999   0.294
11762TIP3    H235232   0.735   6.917   0.400
11763TIP3   OH235233   2.450   6.512   4.629
11763TIP3    H135234   2.501   6.433   4.647
11763TIP3    H235235   2.489   6.548   4.549
11764TIP3   OH235236   3.819   4.906   4.350
11764TIP3    H135237   3.905   4.884   4.384
11764TIP3    H235238   3.790   4.981   4.402
11765TIP3   OH235239   3.679   4.956   1.902
11765TIP3    H135240   3.675   4.977   1.809
11765TIP3    H235241   3.720   5.034   1.942
11766TIP3   OH235242   6.691   7.054   6.232
11766TIP3    H135243   6.618   6.992   6.237
11766TIP3    H235244   6.738   7.029   6.152
11767TIP3   OH235245   7.534   0.081   2.192
11767TIP3    H135246   7.551   0.027   2.115
11767TIP3    H235247   7.621   0.106   2.224
11768TIP3   OH235248   3.130   3.032   2.699
11768TIP3    H135249   3.134   3.109   2.643
11768TIP3    H235250   3.206   3.041   2.757
11769TIP3   OH235251   0.374   5.792   4.519
11769TIP3    H135252   0.439   5.774   4.451
11769TIP3    H235253   0.371   5.711   4.571
11770TIP3   OH235254   6.327   4.841   1.792
11770TIP3    H135255   6.387   4.768   1.808
11770TIP3    H235256   6.249   4.800   1.754
11771TIP3   OH235257   7.998   2.252   6.733
11771TIP3    H135258   7.951   2.330   6.703
11771TIP3    H235259   8.025   2.208   6.652
11772TIP3   OH235260   4.962   1.145   1.382
11772TIP3    H135261   5.009   1.183   1.307
11772TIP3    H235262   4.952   1.217   1.443
11773TIP3   OH235263   6.272   7.035   3.850
11773TIP3    H135264   6.274   7.118   3.897
11773TIP3    H235265   6.205   7.046   3.783
11774TIP3   OH235266   6.085   7.043   3.623
11774TIP3    H135267   6.103   7.131   3.591
11774TIP3    H235268   5.998   7.022   3.588
11775TIP3   OH235269   6.718   0.820   5.242
11775TIP3    H135270   6.659   0.856   5.177
11775TIP3    H235271   6.714   0.725   5.229
11776TIP3   OH235272   6.719   3.680   0.972
11776TIP3    H135273   6.625   3.659   0.978
11776TIP3    H235274   6.756   3.607   0.922
11777TIP3   OH235275   2.006   7.698   0.435
11777TIP3    H135276   1.930   7.664   0.482
11777TIP3    H235277   1.982   7.786   0.409
11778TIP3   OH235278   6.504   0.396   1.398
11778TIP3    H135279   6.526   0.363   1.486
11778TIP3    H235280   6.409   0.391   1.395
11779TIP3   OH235281   6.197   1.258   5.767
11779TIP3    H135282   6.201   1.166   5.739
11779TIP3    H235283   6.133   1.298   5.708
11780TIP3   OH235284   1.613   7.502   2.465
11780TIP3    H135285   1.641   7.533   2.551
11780TIP3    H235286   1.691   7.462   2.427
11781TIP3   OH235287   7.036   6.982   5.831
11781TIP3    H135288   7.038   7.040   5.754
11781TIP3    H235289   7.072   6.899   5.799
11782TIP3   OH235290   2.277   5.933   2.503
11782TIP3    H135291   2.249   5.857   2.452
11782TIP3    H235292   2.341   5.898   2.564
11783TIP3   OH235293   6.159   6.818   0.997
11783TIP3    H135294   6.087   6.871   1.030
11783TIP3    H235295   6.159   6.835   0.902
11784TIP3   OH235296   7.786   6.186   4.332
11784TIP3    H135297   7.814   6.163   4.421
11784TIP3    H235298   7.864   6.223   4.291
11785TIP3   OH235299   3.683   1.442   5.843
11785TIP3    H135300   3.614   1.479   5.787
11785TIP3    H235301   3.749   1.411   5.781
11786TIP3   OH235302   4.051   2.605   4.857
11786TIP3    H135303   4.033   2.559   4.775
11786TIP3    H235304   4.062   2.696   4.831
11787TIP3   OH235305   2.417   3.062   6.429
11787TIP3    H135306   2.340   3.017   6.395
11787TIP3    H235307   2.464   3.092   6.351
11788TIP3   OH235308   7.961   6.203   0.657
11788TIP3    H135309   7.992   6.184   0.745
11788TIP3    H235310   7.964   6.298   0.650
11789TIP3   OH235311   4.940   6.132   2.916
11789TIP3    H135312   4.930   6.223   2.891
11789TIP3    H235313   4.932   6.132   3.012
11790TIP3   OH235314   6.535   3.725   4.313
11790TIP3    H135315   6.453   3.697   4.354
11790TIP3    H235316   6.572   3.788   4.375
11791TIP3   OH235317   0.217   7.259   0.507
11791TIP3    H135318   0.273   7.256   0.429
11791TIP3    H235319   0.145   7.316   0.483
11792TIP3   OH235320   3.808   5.219   1.399
11792TIP3    H135321   3.739   5.279   1.430
11792TIP3    H235322   3.762   5.136   1.384
11793TIP3   OH235323   6.324   4.728   1.215
11793TIP3    H135324   6.392   4.792   1.196
11793TIP3    H235325   6.262   4.737   1.143
11794TIP3   OH235326   2.918   5.653   1.393
11794TIP3    H135327   2.953   5.742   1.401
11794TIP3    H235328   2.830   5.664   1.356
11795TIP3   OH235329   2.644   7.085   2.088
11795TIP3    H135330   2.613   7.151   2.026
11795TIP3    H235331   2.728   7.120   2.119
11796TIP3   OH235332   8.081   2.497   4.540
11796TIP3    H135333   8.077   2.402   4.536
11796TIP3    H235334   7.992   2.524   4.563
11797TIP3   OH235335   6.566   6.971   4.083
11797TIP3    H135336   6.573   7.067   4.079
11797TIP3    H235337   6.507   6.949   4.011
11798TIP3   OH235338   5.248   4.502   4.906
11798TIP3    H135339   5.327   4.511   4.853
11798TIP3    H235340   5.193   4.575   4.880
11799TIP3   OH235341   5.525   0.651   5.313
11799TIP3    H135342   5.512   0.565   5.354
11799TIP3    H235343   5.529   0.712   5.387
11800TIP3   OH235344   3.764   4.978   2.294
11800TIP3    H135345   3.805   5.018   2.217
11800TIP3    H235346   3.682   5.026   2.306
11801TIP3   OH235347   5.559   5.580   3.553
11801TIP3    H135348   5.629   5.538   3.603
11801TIP3    H235349   5.603   5.621   3.479
11802TIP3   OH235350   5.161   4.985   1.824
11802TIP3    H135351   5.246   4.967   1.785
11802TIP3    H235352   5.140   5.074   1.793
11803TIP3   OH235353   2.870   2.177   0.533
11803TIP3    H135354   2.877   2.178   0.629
11803TIP3    H235355   2.830   2.261   0.512
11804TIP3   OH235356   7.500   3.529   3.346
11804TIP3    H135357   7.464   3.506   3.432
11804TIP3    H235358   7.444   3.601   3.315
11805TIP3   OH235359   1.129   1.759   6.045
11805TIP3    H135360   1.140   1.840   6.094
11805TIP3    H235361   1.075   1.704   6.101
11806TIP3   OH235362   0.810   2.161   1.927
11806TIP3    H135363   0.799   2.069   1.904
11806TIP3    H235364   0.874   2.161   1.998
11807TIP3   OH235365   4.552   3.556   6.548
11807TIP3    H135366   4.584   3.468   6.568
11807TIP3    H235367   4.625   3.599   6.504
11808TIP3   OH235368   3.413   4.385   3.040
11808TIP3    H135369   3.507   4.399   3.040
11808TIP3    H235370   3.381   4.436   3.115
11809TIP3   OH235371   2.810   3.962   1.504
11809TIP3    H135372   2.846   4.049   1.521
11809TIP3    H235373   2.731   3.979   1.452
11810TIP3   OH235374   7.257   3.140   6.690
11810TIP3    H135375   7.224   3.063   6.736
11810TIP3    H235376   7.237   3.214   6.748
11811TIP3   OH235377   0.255   2.061   1.185
11811TIP3    H135378   0.318   2.133   1.191
11811TIP3    H235379   0.235   2.039   1.276
11812TIP3   OH235380   5.988   0.303   5.356
11812TIP3    H135381   6.022   0.298   5.446
11812TIP3    H235382   5.974   0.212   5.331
11813TIP3   OH235383   0.325   4.149   4.312
11813TIP3    H135384   0.254   4.209   4.290
11813TIP3    H235385   0.396   4.174   4.253
11814TIP3   OH235386   4.141   0.609   5.882
11814TIP3    H135387   4.079   0.562   5.938
11814TIP3    H235388   4.122   0.577   5.793
11815TIP3   OH235389   1.273   6.238   2.234
11815TIP3    H135390   1.217   6.165   2.207
11815TIP3    H235391   1.362   6.202   2.230
11816TIP3   OH235392   2.741   6.579   6.150
11816TIP3    H135393   2.826   6.618   6.171
11816TIP3    H235394   2.688   6.652   6.119
11817TIP3   OH235395   1.993   4.252   4.288
11817TIP3    H135396   2.080   4.221   4.263
11817TIP3    H235397   2.000   4.348   4.287
11818TIP3   OH235398   0.339   0.188   2.928
11818TIP3    H135399   0.259   0.155   2.969
11818TIP3    H235400   0.364   0.119   2.867
11819TIP3   OH235401   6.313   6.451   6.405
11819TIP3    H135402   6.227   6.447   6.447
11819TIP3    H235403   6.371   6.406   6.466
11820TIP3   OH235404   3.263   4.030   4.723
11820TIP3    H135405   3.256   4.033   4.628
11820TIP3    H235406   3.294   4.117   4.748
11821TIP3   OH235407   6.216   7.145   2.383
11821TIP3    H135408   6.180   7.167   2.297
11821TIP3    H235409   6.191   7.054   2.397
11822TIP3   OH235410   4.905   1.888   6.078
11822TIP3    H135411   4.827   1.862   6.126
11822TIP3    H235412   4.926   1.975   6.111
11823TIP3   OH235413   3.470   4.522   4.306
11823TIP3    H135414   3.432   4.608   4.321
11823TIP3    H235415   3.565   4.536   4.312
11824TIP3   OH235416   3.515   0.443   1.219
11824TIP3    H135417   3.569   0.493   1.281
11824TIP3    H235418   3.447   0.505   1.191
11825TIP3   OH235419   5.881   6.528   5.350
11825TIP3    H135420   5.795   6.486   5.351
11825TIP3    H235421   5.937   6.467   5.399
11826TIP3   OH235422   3.535   7.822   1.702
11826TIP3    H135423   3.610   7.823   1.642
11826TIP3    H235424   3.460   7.805   1.646
11827TIP3   OH235425   1.539   1.873   3.826
11827TIP3    H135426   1.594   1.938   3.782
11827TIP3    H235427   1.506   1.920   3.903
11828TIP3   OH235428   7.106   3.605   6.479
11828TIP3    H135429   7.063   3.662   6.416
11828TIP3    H235430   7.076   3.637   6.565
11829TIP3   OH235431   4.970   7.657   4.595
11829TIP3    H135432   4.916   7.588   4.635
11829TIP3    H235433   5.059   7.622   4.598
11830TIP3   OH235434   2.162   7.067   3.440
11830TIP3    H135435   2.191   6.976   3.448
11830TIP3    H235436   2.229   7.109   3.387
11831TIP3   OH235437   5.463   4.275   6.568
11831TIP3    H135438   5.377   4.318   6.566
11831TIP3    H235439   5.523   4.345   6.593
11832TIP3   OH235440   5.839   5.462   4.103
11832TIP3    H135441   5.754   5.503   4.118
11832TIP3    H235442   5.894   5.532   4.067
11833TIP3   OH235443   8.000   6.431   4.856
11833TIP3    H135444   7.978   6.338   4.851
11833TIP3    H235445   8.015   6.458   4.766
11834TIP3   OH235446   7.660   6.972   3.153
11834TIP3    H135447   7.617   7.004   3.232
11834TIP3    H235448   7.699   6.888   3.179
11835TIP3   OH235449   7.506   5.592   5.943
11835TIP3    H135450   7.492   5.551   5.858
11835TIP3    H235451   7.443   5.549   6.001
11836TIP3   OH235452   6.966   5.676   6.448
11836TIP3    H135453   6.897   5.739   6.430
11836TIP3    H235454   7.047   5.724   6.431
11837TIP3   OH235455   8.005   2.576   5.823
11837TIP3    H135456   8.093   2.555   5.791
11837TIP3    H235457   8.011   2.668   5.850
11838TIP3   OH235458   6.426   1.157   5.040
11838TIP3    H135459   6.331   1.153   5.051
11838TIP3    H235460   6.441   1.130   4.950
11839TIP3   OH235461   1.248   6.564   6.453
11839TIP3    H135462   1.232   6.655   6.427
11839TIP3    H235463   1.271   6.519   6.372
11840TIP3   OH235464   2.400   0.781   1.403
11840TIP3    H135465   2.447   0.864   1.390
11840TIP3    H235466   2.321   0.790   1.349
11841TIP3   OH235467   4.560   2.326   2.126
11841TIP3    H135468   4.601   2.243   2.101
11841TIP3    H235469   4.538   2.315   2.218
11842TIP3   OH235470   4.124   5.090   0.653
11842TIP3    H135471   4.147   5.173   0.695
11842TIP3    H235472   4.052   5.056   0.706
11843TIP3   OH235473   0.825   0.161   4.367
11843TIP3    H135474   0.845   0.074   4.332
11843TIP3    H235475   0.905   0.188   4.410
11844TIP3   OH235476   4.291   5.137   2.096
11844TIP3    H135477   4.346   5.215   2.095
11844TIP3    H235478   4.320   5.088   2.172
11845TIP3   OH235479   1.585   7.020   5.675
11845TIP3    H135480   1.500   7.024   5.632
11845TIP3    H235481   1.647   7.049   5.607
11846TIP3   OH235482   0.051   5.027   4.745
11846TIP3    H135483   0.137   5.004   4.710
11846TIP3    H235484   0.017   4.945   4.783
11847TIP3   OH235485   1.531   0.780   0.626
11847TIP3    H135486   1.518   0.865   0.668
11847TIP3    H235487   1.452   0.768   0.573
11848TIP3   OH235488   3.946   2.282   3.346
11848TIP3    H135489   3.873   2.280   3.408
11848TIP3    H235490   3.992   2.363   3.365
11849TIP3   OH235491   6.880   7.133   4.576
11849TIP3    H135492   6.794   7.130   4.535
11849TIP3    H235493   6.919   7.215   4.546
11850TIP3   OH235494   5.593   5.106   3.048
11850TIP3    H135495   5.606   5.197   3.020
11850TIP3    H235496   5.676   5.062   3.029
11851TIP3   OH235497   1.163   1.776   3.950
11851TIP3    H135498   1.145   1.862   3.986
11851TIP3    H235499   1.081   1.727   3.962
11852TIP3   OH235500   3.487   6.569   3.671
11852TIP3    H135501   3.497   6.520   3.752
11852TIP3    H235502   3.405   6.616   3.681
11853TIP3   OH235503   5.604   0.250   5.898
11853TIP3    H135504   5.577   0.158   5.894
11853TIP3    H235505   5.522   0.298   5.908
11854TIP3   OH235506   3.634   3.418   4.710
11854TIP3    H135507   3.580   3.438   4.787
11854TIP3    H235508   3.658   3.503   4.675
11855TIP3   OH235509   4.581   1.463   5.390
11855TIP3    H135510   4.561   1.555   5.404
11855TIP3    H235511   4.580   1.452   5.295
11856TIP3   OH235512   1.756   1.671   2.373
11856TIP3    H135513   1.802   1.628   2.301
11856TIP3    H235514   1.695   1.605   2.406
11857TIP3   OH235515   8.220   0.672   3.723
11857TIP3    H135516   8.229   0.584   3.761
11857TIP3    H235517   8.297   0.719   3.756
11858TIP3   OH235518   4.105   6.081   0.979
11858TIP3    H135519   4.200   6.089   0.994
11858TIP3    H235520   4.092   5.988   0.958
11859TIP3   OH235521   5.125   7.295   4.457
11859TIP3    H135522   5.138   7.389   4.441
11859TIP3    H235523   5.191   7.272   4.522
11860TIP3   OH235524   2.104   6.094   2.981
11860TIP3    H135525   2.076   6.090   2.890
11860TIP3    H235526   2.024   6.115   3.029
11861TIP3   OH235527   2.704   1.391   5.530
11861TIP3    H135528   2.622   1.362   5.492
11861TIP3    H235529   2.749   1.310   5.556
11862TIP3   OH235530   3.551   6.249   0.705
11862TIP3    H135531   3.553   6.164   0.661
11862TIP3    H235532   3.549   6.313   0.634
11863TIP3   OH235533   3.254   3.420   4.126
11863TIP3    H135534   3.223   3.337   4.162
11863TIP3    H235535   3.347   3.423   4.151
11864TIP3   OH235536   0.028   7.396   4.315
11864TIP3    H135537   0.001   7.484   4.289
11864TIP3    H235538   0.123   7.398   4.314
11865TIP3   OH235539   5.489   6.824   6.669
11865TIP3    H135540   5.458   6.878   6.742
11865TIP3    H235541   5.567   6.868   6.637
11866TIP3   OH235542   4.354   4.861   0.115
11866TIP3    H135543   4.307   4.839   0.034
11866TIP3    H235544   4.374   4.954   0.106
11867TIP3   OH235545   1.881   6.796   6.000
11867TIP3    H135546   1.856   6.839   5.918
11867TIP3    H235547   1.803   6.745   6.025
11868TIP3   OH235548   7.550   1.778   0.527
11868TIP3    H135549   7.576   1.867   0.550
11868TIP3    H235550   7.603   1.722   0.584
11869TIP3   OH235551   6.102   7.076   4.840
11869TIP3    H135552   6.088   7.171   4.843
11869TIP3    H235553   6.183   7.062   4.888
11870TIP3   OH235554   4.254   2.753   4.505
11870TIP3    H135555   4.299   2.686   4.454
11870TIP3    H235556   4.161   2.741   4.484
11871TIP3   OH235557   6.531   4.945   3.516
11871TIP3    H135558   6.496   4.933   3.427
11871TIP3    H235559   6.617   4.984   3.502
11872TIP3   OH235560   4.969   3.691   4.514
11872TIP3    H135561   5.021   3.631   4.460
11872TIP3    H235562   4.878   3.674   4.489
11873TIP3   OH235563   0.615   1.481   5.115
11873TIP3    H135564   0.689   1.525   5.158
11873TIP3    H235565   0.542   1.493   5.175
11874TIP3   OH235566   4.416   2.263   5.821
11874TIP3    H135567   4.381   2.339   5.866
11874TIP3    H235568   4.351   2.242   5.754
11875TIP3   OH235569   6.766   4.661   2.489
11875TIP3    H135570   6.717   4.592   2.534
11875TIP3    H235571   6.828   4.614   2.433
11876TIP3   OH235572   1.041   7.104   0.294
11876TIP3    H135573   1.052   7.066   0.207
11876TIP3    H235574   0.985   7.043   0.341
11877TIP3   OH235575   7.865   3.129   0.976
11877TIP3    H135576   7.949   3.083   0.978
11877TIP3    H235577   7.869   3.182   0.896
11878TIP3   OH235578   4.804   0.407   5.904
11878TIP3    H135579   4.894   0.385   5.882
11878TIP3    H235580   4.754   0.387   5.825
11879TIP3   OH235581   6.071   6.419   0.393
11879TIP3    H135582   6.109   6.359   0.457
11879TIP3    H235583   6.107   6.390   0.309
11880TIP3   OH235584   0.345   4.338   6.707
11880TIP3    H135585   0.363   4.424   6.744
11880TIP3    H235586   0.352   4.349   6.613
11881TIP3   OH235587   5.942   7.368   6.505
11881TIP3    H135588   5.955   7.461   6.523
11881TIP3    H235589   5.984   7.323   6.578
11882TIP3   OH235590   2.066   2.061   5.883
11882TIP3    H135591   2.011   2.137   5.902
11882TIP3    H235592   2.118   2.050   5.963
11883TIP3   OH235593   4.090   2.786   0.826
11883TIP3    H135594   4.069   2.788   0.920
11883TIP3    H235595   4.141   2.706   0.815
11884TIP3   OH235596   1.725   3.905   0.318
11884TIP3    H135597   1.646   3.877   0.271
11884TIP3    H235598   1.761   3.975   0.265
11885TIP3   OH235599   3.779   2.479   6.215
11885TIP3    H135600   3.829   2.552   6.252
11885TIP3    H235601   3.715   2.521   6.158
11886TIP3   OH235602   4.274   6.325   5.911
11886TIP3    H135603   4.262   6.315   5.816
11886TIP3    H235604   4.217   6.259   5.949
11887TIP3   OH235605   8.266   0.447   5.545
11887TIP3    H135606   8.335   0.446   5.478
11887TIP3    H235607   8.193   0.493   5.504
11888TIP3   OH235608   1.735   6.922   6.236
11888TIP3    H135609   1.675   6.980   6.189
11888TIP3    H235610   1.756   6.854   6.172
11889TIP3   OH235611   7.331   7.039   4.282
11889TIP3    H135612   7.398   7.017   4.347
11889TIP3    H235613   7.272   6.963   4.282
11890TIP3   OH235614   2.834   1.022   6.660
11890TIP3    H135615   2.842   1.011   6.755
11890TIP3    H235616   2.775   1.096   6.649
11891TIP3   OH235617   4.368   3.505   2.363
11891TIP3    H135618   4.287   3.555   2.369
11891TIP3    H235619   4.419   3.532   2.439
11892TIP3   OH235620   1.824   5.898   5.300
11892TIP3    H135621   1.782   5.981   5.276
11892TIP3    H235622   1.761   5.831   5.273
11893TIP3   OH235623   4.412   7.278   2.953
11893TIP3    H135624   4.456   7.342   2.899
11893TIP3    H235625   4.354   7.231   2.893
11894TIP3   OH235626   1.641   3.878   4.440
11894TIP3    H135627   1.569   3.911   4.387
11894TIP3    H235628   1.690   3.956   4.466
11895TIP3   OH235629   6.251   5.622   5.255
11895TIP3    H135630   6.289   5.710   5.254
11895TIP3    H235631   6.200   5.619   5.336
11896TIP3   OH235632   2.987   4.403   0.871
11896TIP3    H135633   2.917   4.348   0.906
11896TIP3    H235634   3.042   4.343   0.820
11897TIP3   OH235635   5.165   2.892   4.511
11897TIP3    H135636   5.182   2.961   4.576
11897TIP3    H235637   5.156   2.812   4.563
11898TIP3   OH235638   3.287   6.617   3.031
11898TIP3    H135639   3.329   6.618   2.946
11898TIP3    H235640   3.197   6.647   3.014
11899TIP3   OH235641   0.530   3.145   1.516
11899TIP3    H135642   0.593   3.194   1.463
11899TIP3    H235643   0.544   3.054   1.492
11900TIP3   OH235644   2.390   3.112   5.544
11900TIP3    H135645   2.467   3.170   5.543
11900TIP3    H235646   2.390   3.074   5.631
11901TIP3   OH235647   2.797   4.243   3.283
11901TIP3    H135648   2.742   4.175   3.323
11901TIP3    H235649   2.862   4.195   3.231
11902TIP3   OH235650   7.218   6.241   6.433
11902TIP3    H135651   7.255   6.215   6.349
11902TIP3    H235652   7.223   6.337   6.434
11903TIP3   OH235653   5.097   1.712   0.853
11903TIP3    H135654   5.190   1.717   0.878
11903TIP3    H235655   5.054   1.677   0.931
11904TIP3   OH235656   0.871   6.117   5.254
11904TIP3    H135657   0.911   6.031   5.245
11904TIP3    H235658   0.884   6.141   5.346
11905TIP3   OH235659   3.438   7.509   5.001
11905TIP3    H135660   3.521   7.473   4.970
11905TIP3    H235661   3.444   7.502   5.096
11906TIP3   OH235662   4.440   5.539   0.079
11906TIP3    H135663   4.368   5.595   0.107
11906TIP3    H235664   4.397   5.467   0.031
11907TIP3   OH235665   7.085   5.619   0.661
11907TIP3    H135666   7.133   5.565   0.725
11907TIP3    H235667   6.995   5.588   0.666
11908TIP3   OH235668   6.641   5.915   0.282
11908TIP3    H135669   6.718   5.950   0.327
11908TIP3    H235670   6.612   5.987   0.226
11909TIP3   OH235671   7.319   5.230   2.850
11909TIP3    H135672   7.382   5.173   2.806
11909TIP3    H235673   7.306   5.191   2.936
11910TIP3   OH235674   6.016   4.653   0.558
11910TIP3    H135675   6.051   4.708   0.628
11910TIP3    H235676   6.010   4.566   0.597
11911TIP3   OH235677   4.112   1.742   2.058
11911TIP3    H135678   4.041   1.782   2.006
11911TIP3    H235679   4.069   1.711   2.138
11912TIP3   OH235680   3.566   3.178   2.465
11912TIP3    H135681   3.488   3.160   2.517
11912TIP3    H235682   3.560   3.271   2.443
11913TIP3   OH235683   2.784   0.117   6.419
11913TIP3    H135684   2.872   0.142   6.389
11913TIP3    H235685   2.744   0.200   6.445
11914TIP3   OH235686   0.787   5.183   4.401
11914TIP3    H135687   0.826   5.165   4.316
11914TIP3    H235688   0.719   5.116   4.411
11915TIP3   OH235689   6.073   0.384   3.102
11915TIP3    H135690   6.003   0.448   3.117
11915TIP3    H235691   6.088   0.388   3.007
11916TIP3   OH235692   3.118   6.432   4.811
11916TIP3    H135693   3.122   6.515   4.764
11916TIP3    H235694   3.194   6.434   4.869
11917TIP3   OH235695   8.162   2.149   2.430
11917TIP3    H135696   8.158   2.064   2.475
11917TIP3    H235697   8.074   2.161   2.393
11918TIP3   OH235698   8.079   6.419   3.407
11918TIP3    H135699   8.015   6.349   3.423
11918TIP3    H235700   8.145   6.407   3.475
11919TIP3   OH235701   0.680   4.216   2.156
11919TIP3    H135702   0.638   4.131   2.143
11919TIP3    H235703   0.609   4.276   2.176
11920TIP3   OH235704   6.492   3.264   0.968
11920TIP3    H135705   6.524   3.308   0.889
11920TIP3    H235706   6.513   3.324   1.039
11921TIP3   OH235707   1.994   2.859   5.617
11921TIP3    H135708   2.014   2.775   5.658
11921TIP3    H235709   2.022   2.924   5.681
11922TIP3   OH235710   3.536   5.010   0.341
11922TIP3    H135711   3.599   4.938   0.339
11922TIP3    H235712   3.473   4.985   0.408
11923TIP3   OH235713   2.297   4.008   2.653
11923TIP3    H135714   2.268   4.069   2.585
11923TIP3    H235715   2.247   4.032   2.731
11924TIP3   OH235716   5.367   1.749   0.765
11924TIP3    H135717   5.421   1.796   0.829
11924TIP3    H235718   5.392   1.786   0.681
11925TIP3   OH235719   2.360   5.212   1.360
11925TIP3    H135720   2.454   5.196   1.369
11925TIP3    H235721   2.336   5.260   1.440
11926TIP3   OH235722   7.870   7.407   5.375
11926TIP3    H135723   7.905   7.476   5.320
11926TIP3    H235724   7.793   7.375   5.328
11927TIP3   OH235725   7.637   3.983   1.798
11927TIP3    H135726   7.652   3.954   1.888
11927TIP3    H235727   7.723   3.975   1.755
11928TIP3   OH235728   7.236   4.048   1.199
11928TIP3    H135729   7.273   4.135   1.207
11928TIP3    H235730   7.141   4.062   1.202
11929TIP3   OH235731   4.051   1.928   4.829
11929TIP3    H135732   4.078   1.841   4.801
11929TIP3    H235733   3.957   1.932   4.811
11930TIP3   OH235734   3.349   0.245   1.070
11930TIP3    H135735   3.406   0.259   1.146
11930TIP3    H235736   3.380   0.308   1.005
11931TIP3   OH235737   0.854   3.682   0.025
11931TIP3    H135738   0.775   3.637   0.053
11931TIP3    H235739   0.836   3.775   0.041
11932TIP3   OH235740   0.082   1.604   4.861
11932TIP3    H135741   0.059   1.690   4.826
11932TIP3    H235742   0.165   1.617   4.906
11933TIP3   OH235743   5.246   1.778   1.915
11933TIP3    H135744   5.281   1.701   1.959
11933TIP3    H235745   5.315   1.844   1.922
11934TIP3   OH235746   5.481   6.918   6.065
11934TIP3    H135747   5.489   6.965   5.982
11934TIP3    H235748   5.560   6.864   6.069
11935TIP3   OH235749   3.025   0.801   1.369
11935TIP3    H135750   2.984   0.742   1.307
11935TIP3    H235751   3.088   0.747   1.416
11936TIP3   OH235752   5.950   6.052   5.659
11936TIP3    H135753   5.957   5.993   5.584
11936TIP3    H235754   5.864   6.033   5.696
11937TIP3   OH235755   6.351   0.051   3.767
11937TIP3    H135756   6.435   0.070   3.727
11937TIP3    H235757   6.291   0.040   3.693
11938TIP3   OH235758   2.855   2.230   6.518
11938TIP3    H135759   2.810   2.184   6.589
11938TIP3    H235760   2.880   2.314   6.556
11939TIP3   OH235761   7.825   7.068   0.409
11939TIP3    H135762   7.777   6.985   0.410
11939TIP3    H235763   7.763   7.132   0.375
11940TIP3   OH235764   2.592   6.594   6.640
11940TIP3    H135765   2.565   6.560   6.555
11940TIP3    H235766   2.684   6.617   6.629
11941TIP3   OH235767   8.296   0.400   3.712
11941TIP3    H135768   8.289   0.341   3.787
11941TIP3    H235769   8.261   0.349   3.639
11942TIP3   OH235770   3.679   4.432   3.117
11942TIP3    H135771   3.655   4.438   3.209
11942TIP3    H235772   3.774   4.420   3.117
11943TIP3   OH235773   2.278   7.458   5.926
11943TIP3    H135774   2.368   7.458   5.895
11943TIP3    H235775   2.245   7.370   5.906
11944TIP3   OH235776   0.583   3.970   1.732
11944TIP3    H135777   0.586   3.896   1.793
11944TIP3    H235778   0.491   3.997   1.731
11945TIP3   OH235779   4.745   2.925   2.825
11945TIP3    H135780   4.693   3.004   2.808
11945TIP3    H235781   4.726   2.867   2.751
11946TIP3   OH235782   0.981   0.957   6.440
11946TIP3    H135783   0.891   0.944   6.410
11946TIP3    H235784   1.009   0.871   6.469
11947TIP3   OH235785   7.320   1.447   1.250
11947TIP3    H135786   7.342   1.357   1.272
11947TIP3    H235787   7.260   1.440   1.176
11948TIP3   OH235788   1.211   2.274   1.931
11948TIP3    H135789   1.290   2.280   1.877
11948TIP3    H235790   1.214   2.186   1.968
11949TIP3   OH235791   6.810   0.954   0.391
11949TIP3    H135792   6.810   0.861   0.372
11949TIP3    H235793   6.897   0.984   0.367
11950TIP3   OH235794   0.126   0.311   4.460
11950TIP3    H135795   0.182   0.376   4.502
11950TIP3    H235796   0.180   0.232   4.455
11951TIP3   OH235797   2.166   3.636   2.046
11951TIP3    H135798   2.156   3.580   2.123
11951TIP3    H235799   2.259   3.658   2.045
11952TIP3   OH235800   1.947   3.240   0.056
11952TIP3    H135801   2.041   3.239   0.036
11952TIP3    H235802   1.936   3.314   0.115
11953TIP3   OH235803   0.346   1.717   1.452
11953TIP3    H135804   0.405   1.741   1.381
11953TIP3    H235805   0.260   1.748   1.423
11954TIP3   OH235806   2.702   1.315   0.281
11954TIP3    H135807   2.728   1.406   0.271
11954TIP3    H235808   2.607   1.318   0.287
11955TIP3   OH235809   2.955   4.934   3.251
11955TIP3    H135810   2.931   4.972   3.167
11955TIP3    H235811   3.011   4.859   3.229
11956TIP3   OH235812   1.664   6.503   2.665
11956TIP3    H135813   1.652   6.458   2.581
11956TIP3    H235814   1.751   6.541   2.659
11957TIP3   OH235815   4.149   1.517   5.434
11957TIP3    H135816   4.118   1.527   5.344
11957TIP3    H235817   4.196   1.434   5.434
11958TIP3   OH235818   1.419   6.178   4.244
11958TIP3    H135819   1.469   6.227   4.310
11958TIP3    H235820   1.444   6.087   4.258
11959TIP3   OH235821   6.742   3.526   2.497
11959TIP3    H135822   6.832   3.496   2.489
11959TIP3    H235823   6.735   3.558   2.587
11960TIP3   OH235824   0.388   4.632   0.045
11960TIP3    H135825   0.329   4.558   0.032
11960TIP3    H235826   0.332   4.710   0.041
11961TIP3   OH235827   6.372   0.703   1.717
11961TIP3    H135828   6.351   0.618   1.676
11961TIP3    H235829   6.289   0.750   1.719
11962TIP3   OH235830   2.773   7.556   0.081
11962TIP3    H135831   2.693   7.510   0.107
11962TIP3    H235832   2.806   7.596   0.161
11963TIP3   OH235833   2.219   5.505   2.069
11963TIP3    H135834   2.156   5.475   2.135
11963TIP3    H235835   2.304   5.478   2.103
11964TIP3   OH235836   1.853   1.990   3.221
11964TIP3    H135837   1.804   1.925   3.171
11964TIP3    H235838   1.945   1.968   3.206
11965TIP3   OH235839   7.525   2.331   4.127
11965TIP3    H135840   7.451   2.361   4.074
11965TIP3    H235841   7.595   2.393   4.107
11966TIP3   OH235842   0.526   1.950   3.604
11966TIP3    H135843   0.431   1.956   3.594
11966TIP3    H235844   0.561   1.988   3.523
11967TIP3   OH235845   8.041   1.010   3.112
11967TIP3    H135846   8.028   0.940   3.176
11967TIP3    H235847   7.976   1.076   3.136
11968TIP3   OH235848   3.360   6.456   1.686
11968TIP3    H135849   3.359   6.549   1.705
11968TIP3    H235850   3.295   6.444   1.617
11969TIP3   OH235851   4.042   0.276   2.728
11969TIP3    H135852   4.016   0.190   2.760
11969TIP3    H235853   4.010   0.337   2.794
11970TIP3   OH235854   7.248   4.256   4.431
11970TIP3    H135855   7.311   4.318   4.394
11970TIP3    H235856   7.297   4.173   4.435
11971TIP3   OH235857   1.337   7.398   0.377
11971TIP3    H135858   1.386   7.480   0.370
11971TIP3    H235859   1.259   7.413   0.324
11972TIP3   OH235860   4.850   6.493   3.648
11972TIP3    H135861   4.886   6.500   3.559
11972TIP3    H235862   4.887   6.412   3.682
11973TIP3   OH235863   7.901   1.205   5.488
11973TIP3    H135864   7.903   1.128   5.432
11973TIP3    H235865   7.809   1.228   5.495
11974TIP3   OH235866   5.568   7.140   2.332
11974TIP3    H135867   5.479   7.135   2.366
11974TIP3    H235868   5.595   7.230   2.348
11975TIP3   OH235869   3.729   5.344   0.970
11975TIP3    H135870   3.661   5.388   1.019
11975TIP3    H235871   3.758   5.408   0.905
11976TIP3   OH235872   5.308   3.461   1.986
11976TIP3    H135873   5.298   3.455   1.891
11976TIP3    H235874   5.222   3.488   2.018
11977TIP3   OH235875   2.128   6.050   0.122
11977TIP3    H135876   2.138   5.990   0.048
11977TIP3    H235877   2.157   6.134   0.089
11978TIP3   OH235878   6.366   7.374   2.449
11978TIP3    H135879   6.310   7.297   2.459
11978TIP3    H235880   6.418   7.355   2.371
11979TIP3   OH235881   3.580   7.171   1.385
11979TIP3    H135882   3.523   7.131   1.450
11979TIP3    H235883   3.610   7.252   1.426
11980TIP3   OH235884   0.985   6.405   4.544
11980TIP3    H135885   0.930   6.381   4.619
11980TIP3    H235886   0.931   6.384   4.467
11981TIP3   OH235887   6.245   2.976   2.048
11981TIP3    H135888   6.260   3.029   2.127
11981TIP3    H235889   6.213   3.040   1.984
11982TIP3   OH235890   7.952   7.168   6.278
11982TIP3    H135891   7.996   7.252   6.267
11982TIP3    H235892   7.859   7.188   6.274
11983TIP3   OH235893   6.744   1.343   0.421
11983TIP3    H135894   6.730   1.434   0.398
11983TIP3    H235895   6.686   1.294   0.363
11984TIP3   OH235896   1.117   2.649   3.970
11984TIP3    H135897   1.071   2.566   3.979
11984TIP3    H235898   1.208   2.629   3.990
11985TIP3   OH235899   3.288   2.839   6.346
11985TIP3    H135900   3.353   2.905   6.372
11985TIP3    H235901   3.282   2.847   6.251
11986TIP3   OH235902   5.385   0.714   4.853
11986TIP3    H135903   5.420   0.757   4.930
11986TIP3    H235904   5.290   0.731   4.857
11987TIP3   OH235905   6.835   4.551   4.897
11987TIP3    H135906   6.923   4.589   4.886
11987TIP3    H235907   6.812   4.519   4.809
11988TIP3   OH235908   6.338   5.819   4.901
11988TIP3    H135909   6.292   5.738   4.925
11988TIP3    H235910   6.389   5.842   4.979
11989TIP3   OH235911   4.832   6.756   0.440
11989TIP3    H135912   4.823   6.703   0.361
11989TIP3    H235913   4.819   6.695   0.512
11990TIP3   OH235914   1.285   6.303   3.256
11990TIP3    H135915   1.331   6.224   3.283
11990TIP3    H235916   1.211   6.272   3.204
11991TIP3   OH235917   7.516   7.738   6.246
11991TIP3    H135918   7.564   7.657   6.228
11991TIP3    H235919   7.466   7.753   6.166
11992TIP3   OH235920   1.637   7.800   6.140
11992TIP3    H135921   1.621   7.717   6.184
11992TIP3    H235922   1.704   7.844   6.192
11993TIP3   OH235923   3.273   1.549   1.032
11993TIP3    H135924   3.292   1.636   0.995
11993TIP3    H235925   3.328   1.489   0.981
11994TIP3   OH235926   4.341   1.662   0.047
11994TIP3    H135927   4.296   1.630   0.125
11994TIP3    H235928   4.304   1.610  -0.025
11995TIP3   OH235929   3.667   4.196   4.052
11995TIP3    H135930   3.595   4.196   4.116
11995TIP3    H235931   3.714   4.278   4.068
11996TIP3   OH235932   4.327   3.342   6.293
11996TIP3    H135933   4.391   3.385   6.237
11996TIP3    H235934   4.243   3.377   6.264
11997TIP3   OH235935   5.411   3.032   1.167
11997TIP3    H135936   5.491   2.980   1.167
11997TIP3    H235937   5.343   2.971   1.140
11998TIP3   OH235938   3.440   4.435   4.007
11998TIP3    H135939   3.381   4.487   3.953
11998TIP3    H235940   3.430   4.471   4.095
11999TIP3   OH235941   7.978   6.313   4.143
11999TIP3    H135942   7.996   6.368   4.067
11999TIP3    H235943   8.062   6.275   4.167
12000TIP3   OH235944   3.278   1.209   3.193
12000TIP3    H135945   3.314   1.133   3.239
12000TIP3    H235946   3.283   1.280   3.258
12001TIP3   OH235947   2.854   6.165   4.749
12001TIP3    H135948   2.930   6.204   4.792
12001TIP3    H235949   2.864   6.188   4.656
12002TIP3   OH235950   8.021   5.497   6.316
12002TIP3    H135951   8.019   5.592   6.323
12002TIP3    H235952   7.960   5.466   6.382
12003TIP3   OH235953   4.491   7.372   1.999
12003TIP3    H135954   4.488   7.389   2.093
12003TIP3    H235955   4.406   7.403   1.967
12004TIP3   OH235956   2.039   6.161   3.665
12004TIP3    H135957   1.983   6.112   3.605
12004TIP3    H235958   2.128   6.142   3.636
12005TIP3   OH235959   4.960   3.454   5.482
12005TIP3    H135960   4.951   3.488   5.571
12005TIP3    H235961   4.906   3.375   5.480
12006TIP3   OH235962   1.196   0.121   1.852
12006TIP3    H135963   1.266   0.089   1.909
12006TIP3    H235964   1.147   0.042   1.827
12007TIP3   OH235965   4.339   3.022   1.875
12007TIP3    H135966   4.324   3.050   1.965
12007TIP3    H235967   4.431   3.045   1.858
12008TIP3   OH235968   0.635   0.046   5.121
12008TIP3    H135969   0.653  -0.003   5.201
12008TIP3    H235970   0.716   0.041   5.071
12009TIP3   OH235971   5.320   6.960   3.457
12009TIP3    H135972   5.368   6.950   3.375
12009TIP3    H235973   5.367   7.028   3.504
12010TIP3   OH235974   5.609   7.697   3.883
12010TIP3    H135975   5.649   7.646   3.813
12010TIP3    H235976   5.525   7.725   3.848
12011TIP3   OH235977   0.841   1.241   6.318
12011TIP3    H135978   0.823   1.193   6.238
12011TIP3    H235979   0.791   1.195   6.385
12012TIP3   OH235980   1.246   0.575   2.023
12012TIP3    H135981   1.285   0.634   2.087
12012TIP3    H235982   1.163   0.616   1.999
12013TIP3   OH235983   0.305   2.869   0.585
12013TIP3    H135984   0.363   2.925   0.533
12013TIP3    H235985   0.217   2.892   0.554
12014TIP3   OH235986   7.502   7.406   1.594
12014TIP3    H135987   7.509   7.460   1.515
12014TIP3    H235988   7.545   7.324   1.570
12015TIP3   OH235989   3.662   0.615   3.744
12015TIP3    H135990   3.660   0.677   3.818
12015TIP3    H235991   3.602   0.545   3.770
12016TIP3   OH235992   7.533   5.928   4.876
12016TIP3    H135993   7.618   5.924   4.831
12016TIP3    H235994   7.488   5.847   4.850
12017TIP3   OH235995   1.116   3.961   1.593
12017TIP3    H135996   1.034   3.997   1.626
12017TIP3    H235997   1.094   3.874   1.561
12018TIP3   OH235998   0.537   3.109   1.167
12018TIP3    H135999   0.533   3.025   1.121
12018TIP3    H236000   0.542   3.175   1.097
12019TIP3   OH236001   4.993   3.073   1.066
12019TIP3    H136002   4.955   3.082   0.979
12019TIP3    H236003   4.934   3.122   1.124
12020TIP3   OH236004   5.184   1.732   2.590
12020TIP3    H136005   5.234   1.808   2.620
12020TIP3    H236006   5.093   1.756   2.605
12021TIP3   OH236007   2.703   5.248   5.208
12021TIP3    H136008   2.631   5.293   5.251
12021TIP3    H236009   2.782   5.279   5.252
12022TIP3   OH236010   1.591   2.347   3.165
12022TIP3    H136011   1.642   2.293   3.226
12022TIP3    H236012   1.648   2.421   3.146
12023TIP3   OH236013   6.810   7.581   6.552
12023TIP3    H136014   6.767   7.666   6.548
12023TIP3    H236015   6.744   7.519   6.519
12024TIP3   OH236016   4.067   5.147   4.772
12024TIP3    H136017   4.141   5.161   4.712
12024TIP3    H236018   4.089   5.067   4.818
12025TIP3   OH236019   3.999   5.942   3.085
12025TIP3    H136020   3.950   5.873   3.131
12025TIP3    H236021   3.988   6.019   3.140
12026TIP3   OH236022   2.536   1.345   0.723
12026TIP3    H136023   2.610   1.334   0.663
12026TIP3    H236024   2.460   1.315   0.674
12027TIP3   OH236025   1.793   0.841   2.055
12027TIP3    H136026   1.727   0.891   2.007
12027TIP3    H236027   1.833   0.905   2.114
12028TIP3   OH236028   0.269   1.393   1.560
12028TIP3    H136029   0.253   1.413   1.467
12028TIP3    H236030   0.305   1.474   1.596
12029TIP3   OH236031   7.069   4.460   0.524
12029TIP3    H136032   7.115   4.505   0.454
12029TIP3    H236033   7.130   4.392   0.552
12030TIP3   OH236034   6.894   2.710   0.576
12030TIP3    H136035   6.842   2.673   0.505
12030TIP3    H236036   6.979   2.729   0.536
12031TIP3   OH236037   4.885   5.602   4.393
12031TIP3    H136038   4.964   5.547   4.392
12031TIP3    H236039   4.813   5.540   4.404
12032TIP3   OH236040   3.456   0.650   6.525
12032TIP3    H136041   3.510   0.579   6.493
12032TIP3    H236042   3.372   0.608   6.548
12033TIP3   OH236043   4.132   1.045   5.648
12033TIP3    H136044   4.170   0.997   5.721
12033TIP3    H236045   4.042   1.065   5.677
12034TIP3   OH236046   1.516   1.436   3.256
12034TIP3    H136047   1.519   1.426   3.160
12034TIP3    H236048   1.497   1.347   3.288
12035TIP3   OH236049   7.411   2.403   3.123
12035TIP3    H136050   7.477   2.342   3.089
12035TIP3    H236051   7.350   2.416   3.051
12036TIP3   OH236052   4.491   1.338   6.222
12036TIP3    H136053   4.489   1.355   6.127
12036TIP3    H236054   4.581   1.310   6.239
12037TIP3   OH236055   3.393   5.359   5.117
12037TIP3    H136056   3.455   5.352   5.045
12037TIP3    H236057   3.393   5.452   5.140
12038TIP3   OH236058   4.437   6.738   5.104
12038TIP3    H136059   4.436   6.756   5.010
12038TIP3    H236060   4.369   6.796   5.140
12039TIP3   OH236061   6.475   3.387   4.990
12039TIP3    H136062   6.527   3.343   4.923
12039TIP3    H236063   6.505   3.478   4.987
12040TIP3   OH236064   6.624   6.384   1.405
12040TIP3    H136065   6.663   6.444   1.468
12040TIP3    H236066   6.550   6.433   1.369
12041TIP3   OH236067   8.276   2.881   4.873
12041TIP3    H136068   8.334   2.827   4.925
12041TIP3    H236069   8.191   2.874   4.916
12042TIP3   OH236070   5.330   4.031   5.385
12042TIP3    H136071   5.326   4.009   5.478
12042TIP3    H236072   5.417   4.069   5.373
12043TIP3   OH236073   5.795   7.320   3.482
12043TIP3    H136074   5.797   7.228   3.508
12043TIP3    H236075   5.867   7.328   3.419
12044TIP3   OH236076   0.215   0.055   2.278
12044TIP3    H136077   0.310   0.060   2.294
12044TIP3    H236078   0.177   0.109   2.346
12045TIP3   OH236079   2.866   6.463   4.032
12045TIP3    H136080   2.773   6.470   4.008
12045TIP3    H236081   2.869   6.391   4.095
12046TIP3   OH236082   6.799   1.904   2.893
12046TIP3    H136083   6.744   1.976   2.924
12046TIP3    H236084   6.748   1.863   2.823
12047TIP3   OH236085   4.921   3.332   0.182
12047TIP3    H136086   5.011   3.355   0.157
12047TIP3    H236087   4.874   3.324   0.099
12048TIP3   OH236088   6.133   6.009   0.944
12048TIP3    H136089   6.200   6.064   0.985
12048TIP3    H236090   6.071   6.071   0.906
12049TIP3   OH236091   5.994   7.803   5.521
12049TIP3    H136092   5.964   7.889   5.553
12049TIP3    H236093   6.035   7.762   5.597
12050TIP3   OH236094   3.902   6.371   3.400
12050TIP3    H136095   3.923   6.448   3.347
12050TIP3    H236096   3.948   6.384   3.482
12051TIP3   OH236097   3.516   6.242   1.408
12051TIP3    H136098   3.532   6.162   1.358
12051TIP3    H236099   3.582   6.240   1.478
12052TIP3   OH236100   4.415   1.721   1.619
12052TIP3    H136101   4.453   1.798   1.577
12052TIP3    H236102   4.409   1.656   1.549
12053TIP3   OH236103   3.594   5.989   4.123
12053TIP3    H136104   3.575   5.906   4.079
12053TIP3    H236105   3.684   5.981   4.153
12054TIP3   OH236106   1.338   3.675   4.840
12054TIP3    H136107   1.280   3.686   4.764
12054TIP3    H236108   1.328   3.583   4.865
12055TIP3   OH236109   6.585   6.132   4.437
12055TIP3    H136110   6.670   6.123   4.481
12055TIP3    H236111   6.532   6.185   4.497
12056TIP3   OH236112   3.836   5.974   5.630
12056TIP3    H136113   3.879   5.904   5.580
12056TIP3    H236114   3.743   5.964   5.608
12057TIP3   OH236115   6.886   2.504   5.994
12057TIP3    H136116   6.837   2.423   5.981
12057TIP3    H236117   6.958   2.480   6.052
12058TIP3   OH236118   2.207   7.028   6.600
12058TIP3    H136119   2.126   6.978   6.603
12058TIP3    H236120   2.188   7.108   6.649
12059TIP3   OH236121   7.508   3.302   5.708
12059TIP3    H136122   7.506   3.364   5.636
12059TIP3    H236123   7.582   3.245   5.689
12060TIP3   OH236124   3.688   5.660   0.146
12060TIP3    H136125   3.639   5.690   0.223
12060TIP3    H236126   3.629   5.598   0.102
12061TIP3   OH236127   7.657   7.288   6.278
12061TIP3    H136128   7.585   7.234   6.247
12061TIP3    H236129   7.625   7.327   6.360
12062TIP3   OH236130   7.172   6.683   0.558
12062TIP3    H136131   7.117   6.604   0.558
12062TIP3    H236132   7.249   6.659   0.506
12063TIP3   OH236133   5.868   0.370   4.798
12063TIP3    H136134   5.928   0.408   4.863
12063TIP3    H236135   5.925   0.345   4.725
12064TIP3   OH236136   0.766   4.245   4.295
12064TIP3    H136137   0.705   4.199   4.237
12064TIP3    H236138   0.799   4.317   4.243
12065TIP3   OH236139   4.579   7.433   4.930
12065TIP3    H136140   4.660   7.387   4.951
12065TIP3    H236141   4.537   7.380   4.862
12066TIP3   OH236142   6.942   1.501   6.551
12066TIP3    H136143   6.988   1.555   6.488
12066TIP3    H236144   6.971   1.533   6.636
12067TIP3   OH236145   1.955   3.314   5.049
12067TIP3    H136146   1.902   3.235   5.057
12067TIP3    H236147   1.895   3.386   5.069
12068TIP3   OH236148   3.251   4.048   3.847
12068TIP3    H136149   3.254   4.022   3.940
12068TIP3    H236150   3.340   4.077   3.828
12069TIP3   OH236151   0.777   2.603   0.513
12069TIP3    H136152   0.832   2.562   0.581
12069TIP3    H236153   0.790   2.697   0.525
12070TIP3   OH236154   3.022   3.298   6.367
12070TIP3    H136155   3.088   3.300   6.298
12070TIP3    H236156   3.040   3.217   6.415
12071TIP3   OH236157   3.825   0.784   5.150
12071TIP3    H136158   3.745   0.823   5.186
12071TIP3    H236159   3.800   0.753   5.063
12072TIP3   OH236160   5.471   2.598   4.457
12072TIP3    H136161   5.380   2.593   4.487
12072TIP3    H236162   5.474   2.537   4.383
12073TIP3   OH236163   2.718   2.250   2.920
12073TIP3    H136164   2.648   2.208   2.970
12073TIP3    H236165   2.775   2.289   2.986
12074TIP3   OH236166   1.618   2.881   6.480
12074TIP3    H136167   1.549   2.825   6.516
12074TIP3    H236168   1.644   2.839   6.398
12075TIP3   OH236169   3.089   4.547   5.633
12075TIP3    H136170   3.102   4.459   5.598
12075TIP3    H236171   3.159   4.558   5.697
12076TIP3   OH236172   1.607   5.066   4.950
12076TIP3    H136173   1.617   4.974   4.973
12076TIP3    H236174   1.588   5.066   4.856
12077TIP3   OH236175   6.148   3.645   0.767
12077TIP3    H136176   6.171   3.553   0.753
12077TIP3    H236177   6.105   3.671   0.685
12078TIP3   OH236178   5.317   6.687   6.262
12078TIP3    H136179   5.309   6.759   6.198
12078TIP3    H236180   5.390   6.635   6.230
12079TIP3   OH236181   3.728   7.343   6.014
12079TIP3    H136182   3.773   7.259   6.009
12079TIP3    H236183   3.740   7.371   6.105
12080TIP3   OH236184   8.170   0.274   4.540
12080TIP3    H136185   8.107   0.346   4.534
12080TIP3    H236186   8.248   0.307   4.493
12081TIP3   OH236187   3.771   0.118   0.626
12081TIP3    H136188   3.857   0.131   0.665
12081TIP3    H236189   3.750   0.026   0.642
12082TIP3   OH236190   1.995   2.922   4.188
12082TIP3    H136191   1.942   2.845   4.168
12082TIP3    H236192   2.013   2.915   4.281
12083TIP3   OH236193   5.143   1.642   0.548
12083TIP3    H136194   5.191   1.665   0.627
12083TIP3    H236195   5.206   1.590   0.497
12084TIP3   OH236196   2.659   3.697   4.479
12084TIP3    H136197   2.754   3.689   4.478
12084TIP3    H236198   2.638   3.720   4.570
12085TIP3   OH236199   5.760   1.901   5.694
12085TIP3    H136200   5.828   1.840   5.725
12085TIP3    H236201   5.776   1.909   5.600
12086TIP3   OH236202   0.397   5.997   6.399
12086TIP3    H136203   0.325   6.057   6.380
12086TIP3    H236204   0.401   5.939   6.323
12087TIP3   OH236205   4.939   3.647   5.295
12087TIP3    H136206   4.887   3.719   5.329
12087TIP3    H236207   4.949   3.587   5.369
12088TIP3   OH236208   3.917   3.087   1.318
12088TIP3    H136209   3.878   3.169   1.349
12088TIP3    H236210   3.922   3.032   1.396
12089TIP3   OH236211   8.122   5.612   3.890
12089TIP3    H136212   8.043   5.660   3.912
12089TIP3    H236213   8.140   5.557   3.966
12090TIP3   OH236214   5.685   3.216   0.789
12090TIP3    H136215   5.694   3.171   0.873
12090TIP3    H236216   5.771   3.257   0.775
12091TIP3   OH236217   1.642   2.388   4.901
12091TIP3    H136218   1.680   2.456   4.956
12091TIP3    H236219   1.586   2.434   4.840
12092TIP3   OH236220   4.210   2.795   1.442
12092TIP3    H136221   4.281   2.781   1.379
12092TIP3    H236222   4.242   2.866   1.498
12093TIP3   OH236223   7.584   2.733   2.573
12093TIP3    H136224   7.547   2.664   2.518
12093TIP3    H236225   7.646   2.778   2.516
12094TIP3   OH236226   5.305   6.751   3.661
12094TIP3    H136227   5.217   6.753   3.698
12094TIP3    H236228   5.305   6.818   3.594
12095TIP3   OH236229   7.860   7.575   3.336
12095TIP3    H136230   7.879   7.615   3.251
12095TIP3    H236231   7.768   7.548   3.329
12096TIP3   OH236232   0.624   2.698   5.761
12096TIP3    H136233   0.687   2.649   5.815
12096TIP3    H236234   0.672   2.718   5.681
12097TIP3   OH236235   6.192  -0.031   2.087
12097TIP3    H136236   6.151  -0.018   2.002
12097TIP3    H236237   6.120  -0.020   2.150
12098TIP3   OH236238   8.283   4.040   5.505
12098TIP3    H136239   8.223   3.966   5.503
12098TIP3    H236240   8.306   4.054   5.413
12099TIP3   OH236241   7.481   6.958   0.910
12099TIP3    H136242   7.561   7.011   0.900
12099TIP3    H236243   7.410   7.022   0.908
12100TIP3   OH236244   7.802   6.133   6.126
12100TIP3    H136245   7.862   6.116   6.199
12100TIP3    H236246   7.716   6.141   6.167
12101TIP3   OH236247   5.251   6.249   4.750
12101TIP3    H136248   5.317   6.202   4.801
12101TIP3    H236249   5.292   6.333   4.730
12102TIP3   OH236250   6.701   6.873   3.093
12102TIP3    H136251   6.779   6.891   3.040
12102TIP3    H236252   6.653   6.956   3.093
12103TIP3   OH236253   0.422   4.860   2.829
12103TIP3    H136254   0.358   4.929   2.849
12103TIP3    H236255   0.415   4.799   2.902
12104TIP3   OH236256   0.800   0.870   1.651
12104TIP3    H136257   0.781   0.862   1.558
12104TIP3    H236258   0.742   0.807   1.693
12105TIP3   OH236259   5.971   2.964   1.375
12105TIP3    H136260   5.943   3.026   1.442
12105TIP3    H236261   5.959   3.010   1.292
12106TIP3   OH236262   7.071   6.432   4.171
12106TIP3    H136263   7.042   6.443   4.081
12106TIP3    H236264   7.161   6.464   4.172
12107TIP3   OH236265   2.550   1.247   2.191
12107TIP3    H136266   2.516   1.333   2.164
12107TIP3    H236267   2.480   1.210   2.245
12108TIP3   OH236268   3.220   5.003   4.053
12108TIP3    H136269   3.220   4.917   4.013
12108TIP3    H236270   3.221   4.986   4.147
12109TIP3   OH236271   5.336   0.147   2.743
12109TIP3    H136272   5.400   0.196   2.690
12109TIP3    H236273   5.275   0.110   2.679
12110TIP3   OH236274   2.296   4.767   2.846
12110TIP3    H136275   2.319   4.738   2.934
12110TIP3    H236276   2.333   4.700   2.788
12111TIP3   OH236277   2.292   1.966   0.671
12111TIP3    H136278   2.353   2.017   0.724
12111TIP3    H236279   2.319   1.875   0.683
12112TIP3   OH236280   4.431   5.584   2.550
12112TIP3    H136281   4.401   5.651   2.611
12112TIP3    H236282   4.525   5.601   2.540
12113TIP3   OH236283   5.706   6.382   1.391
12113TIP3    H136284   5.734   6.300   1.350
12113TIP3    H236285   5.704   6.362   1.485
12114TIP3   OH236286   1.961   6.909   2.495
12114TIP3    H136287   1.968   6.822   2.456
12114TIP3    H236288   1.948   6.892   2.589
12115TIP3   OH236289   7.107   3.912   1.737
12115TIP3    H136290   7.146   3.925   1.650
12115TIP3    H236291   7.020   3.952   1.730
12116TIP3   OH236292   1.838   5.132   1.959
12116TIP3    H136293   1.902   5.061   1.953
12116TIP3    H236294   1.757   5.095   1.925
12117TIP3   OH236295   5.346   0.901   3.756
12117TIP3    H136296   5.387   0.987   3.751
12117TIP3    H236297   5.272   0.907   3.695
12118TIP3   OH236298   1.894   7.549   3.120
12118TIP3    H136299   1.856   7.618   3.066
12118TIP3    H236300   1.980   7.532   3.081
12119TIP3   OH236301   7.980   7.463   1.420
12119TIP3    H136302   8.027   7.542   1.391
12119TIP3    H236303   7.914   7.449   1.353
12120TIP3   OH236304   5.325   1.246   1.585
12120TIP3    H136305   5.308   1.307   1.513
12120TIP3    H236306   5.243   1.245   1.635
12121TIP3   OH236307   5.318   2.603   5.090
12121TIP3    H136308   5.238   2.580   5.044
12121TIP3    H236309   5.317   2.699   5.095
12122TIP3   OH236310   2.814   6.846   3.373
12122TIP3    H136311   2.730   6.888   3.389
12122TIP3    H236312   2.825   6.785   3.446
12123TIP3   OH236313   0.480   2.718   3.558
12123TIP3    H136314   0.530   2.687   3.633
12123TIP3    H236315   0.457   2.638   3.510
12124TIP3   OH236316   8.007   2.443   0.924
12124TIP3    H136317   7.959   2.425   1.006
12124TIP3    H236318   8.096   2.464   0.952
12125TIP3   OH236319   2.206   6.794   5.223
12125TIP3    H136320   2.225   6.717   5.277
12125TIP3    H236321   2.252   6.866   5.266
12126TIP3   OH236322   4.679   1.744   6.184
12126TIP3    H136323   4.733   1.671   6.153
12126TIP3    H236324   4.639   1.713   6.265
12127TIP3   OH236325   8.149   1.527   0.365
12127TIP3    H136326   8.163   1.621   0.351
12127TIP3    H236327   8.098   1.499   0.289
12128TIP3   OH236328   1.938   0.840   4.525
12128TIP3    H136329   2.007   0.898   4.492
12128TIP3    H236330   1.978   0.753   4.526
12129TIP3   OH236331   0.730   0.517   6.680
12129TIP3    H136332   0.774   0.578   6.739
12129TIP3    H236333   0.799   0.488   6.620
12130TIP3   OH236334   4.212   5.635   4.411
12130TIP3    H136335   4.231   5.667   4.322
12130TIP3    H236336   4.150   5.563   4.398
12131TIP3   OH236337   5.262   3.029   1.688
12131TIP3    H136338   5.272   3.093   1.618
12131TIP3    H236339   5.177   3.049   1.727
12132TIP3   OH236340   3.295   1.906   1.089
12132TIP3    H136341   3.288   1.914   1.184
12132TIP3    H236342   3.364   1.967   1.065
12133TIP3   OH236343   2.960   3.515   2.334
12133TIP3    H136344   2.949   3.604   2.368
12133TIP3    H236345   2.932   3.458   2.406
12134TIP3   OH236346   2.623   3.762   5.026
12134TIP3    H136347   2.595   3.670   5.030
12134TIP3    H236348   2.546   3.811   5.055
12135TIP3   OH236349   2.563   5.841   5.966
12135TIP3    H136350   2.589   5.905   6.033
12135TIP3    H236351   2.596   5.757   5.999
12136TIP3   OH236352   7.998   4.622   5.217
12136TIP3    H136353   7.974   4.680   5.145
12136TIP3    H236354   8.091   4.641   5.233
12137TIP3   OH236355   1.121   1.815   6.489
12137TIP3    H136356   1.087   1.756   6.421
12137TIP3    H236357   1.144   1.756   6.561
12138TIP3   OH236358   6.845   6.939   2.370
12138TIP3    H136359   6.751   6.955   2.373
12138TIP3    H236360   6.856   6.852   2.409
12139TIP3   OH236361   1.194   4.531   6.157
12139TIP3    H136362   1.148   4.578   6.087
12139TIP3    H236363   1.167   4.439   6.146
12140TIP3   OH236364   0.841   6.751   2.137
12140TIP3    H136365   0.869   6.789   2.054
12140TIP3    H236366   0.921   6.712   2.173
12141TIP3   OH236367   1.138   4.026   4.169
12141TIP3    H136368   1.171   4.015   4.258
12141TIP3    H236369   1.156   4.118   4.148
12142TIP3   OH236370   3.165   6.857   2.419
12142TIP3    H136371   3.191   6.844   2.328
12142TIP3    H236372   3.084   6.807   2.428
12143TIP3   OH236373   2.919   1.291   6.774
12143TIP3    H136374   2.946   1.380   6.754
12143TIP3    H236375   2.905   1.250   6.688
12144TIP3   OH236376   1.934   3.017   0.293
12144TIP3    H136377   1.861   2.959   0.275
12144TIP3    H236378   1.895   3.104   0.300
12145TIP3   OH236379   5.007   2.383   3.902
12145TIP3    H136380   4.992   2.441   3.828
12145TIP3    H236381   5.100   2.395   3.923
12146TIP3   OH236382   3.414   0.465   1.645
12146TIP3    H136383   3.467   0.389   1.621
12146TIP3    H236384   3.456   0.499   1.724
12147TIP3   OH236385   2.674   2.023   3.728
12147TIP3    H136386   2.583   2.042   3.748
12147TIP3    H236387   2.709   2.105   3.692
12148TIP3   OH236388   7.879   3.397   1.365
12148TIP3    H136389   7.842   3.320   1.409
12148TIP3    H236390   7.848   3.391   1.275
12149TIP3   OH236391   5.834   4.946   0.500
12149TIP3    H136392   5.896   4.894   0.449
12149TIP3    H236393   5.867   5.035   0.495
12150TIP3   OH236394   0.757   5.594   0.097
12150TIP3    H136395   0.793   5.550   0.019
12150TIP3    H236396   0.834   5.627   0.143
12151TIP3   OH236397   4.452   1.001   5.484
12151TIP3    H136398   4.381   0.967   5.430
12151TIP3    H236399   4.422   0.987   5.574
12152TIP3   OH236400   1.641   5.339   5.976
12152TIP3    H136401   1.659   5.417   5.924
12152TIP3    H236402   1.691   5.270   5.932
12153TIP3   OH236403   7.377   6.890   0.421
12153TIP3    H136404   7.339   6.951   0.358
12153TIP3    H236405   7.397   6.945   0.498
12154TIP3   OH236406   3.423   0.798   5.797
12154TIP3    H136407   3.420   0.816   5.891
12154TIP3    H236408   3.417   0.703   5.790
12155TIP3   OH236409   7.846   6.993   4.520
12155TIP3    H136410   7.829   7.001   4.426
12155TIP3    H236411   7.762   6.964   4.557
12156TIP3   OH236412   1.178   2.775   6.317
12156TIP3    H136413   1.210   2.705   6.375
12156TIP3    H236414   1.249   2.789   6.255
12157TIP3   OH236415   2.723   0.513   6.135
12157TIP3    H136416   2.709   0.533   6.043
12157TIP3    H236417   2.653   0.451   6.157
12158TIP3   OH236418   5.141   5.518   6.524
12158TIP3    H136419   5.083   5.535   6.598
12158TIP3    H236420   5.189   5.600   6.512
12159TIP3   OH236421   2.032   4.724   5.320
12159TIP3    H136422   1.938   4.723   5.299
12159TIP3    H236423   2.057   4.816   5.312
12160TIP3   OH236424   2.165   4.824   3.724
12160TIP3    H136425   2.145   4.906   3.680
12160TIP3    H236426   2.261   4.822   3.729
12161TIP3   OH236427   5.014   5.540   0.947
12161TIP3    H136428   4.973   5.502   0.869
12161TIP3    H236429   4.970   5.625   0.958
12162TIP3   OH236430   1.479   2.173   0.959
12162TIP3    H136431   1.508   2.226   0.884
12162TIP3    H236432   1.506   2.084   0.937
12163TIP3   OH236433   6.233   7.535   0.926
12163TIP3    H136434   6.176   7.586   0.868
12163TIP3    H236435   6.264   7.462   0.872
12164TIP3   OH236436   0.029   7.566   0.178
12164TIP3    H136437  -0.063   7.589   0.192
12164TIP3    H236438   0.056   7.618   0.103
12165TIP3   OH236439   7.441   6.738   3.684
12165TIP3    H136440   7.345   6.742   3.688
12165TIP3    H236441   7.470   6.799   3.752
12166TIP3   OH236442   3.694   2.116   0.075
12166TIP3    H136443   3.633   2.164   0.020
12166TIP3    H236444   3.715   2.176   0.146
12167TIP3   OH236445   3.102   1.962   1.643
12167TIP3    H136446   3.152   2.010   1.710
12167TIP3    H236447   3.020   1.940   1.687
12168TIP3   OH236448   2.520   4.900   4.359
12168TIP3    H136449   2.456   4.831   4.376
12168TIP3    H236450   2.491   4.940   4.277
12169TIP3   OH236451   1.782   6.042   0.834
12169TIP3    H136452   1.727   6.119   0.849
12169TIP3    H236453   1.743   5.973   0.888
12170TIP3   OH236454   7.918   3.412   6.221
12170TIP3    H136455   7.925   3.354   6.296
12170TIP3    H236456   7.823   3.426   6.210
12171TIP3   OH236457   5.139   7.385   2.834
12171TIP3    H136458   5.063   7.435   2.864
12171TIP3    H236459   5.119   7.294   2.857
12172TIP3   OH236460   2.830   1.989   2.247
12172TIP3    H136461   2.909   1.954   2.288
12172TIP3    H236462   2.825   1.942   2.163
12173TIP3   OH236463   2.275   5.650   6.496
12173TIP3    H136464   2.292   5.645   6.402
12173TIP3    H236465   2.195   5.599   6.508
12174TIP3   OH236466   5.802   5.041   0.824
12174TIP3    H136467   5.850   5.037   0.741
12174TIP3    H236468   5.721   4.994   0.808
12175TIP3   OH236469   6.629   5.093   5.435
12175TIP3    H136470   6.702   5.044   5.472
12175TIP3    H236471   6.574   5.026   5.393
12176TIP3   OH236472   4.939   4.299   5.338
12176TIP3    H136473   4.965   4.231   5.277
12176TIP3    H236474   5.018   4.320   5.388
12177TIP3   OH236475   5.668   0.332   3.626
12177TIP3    H136476   5.605   0.391   3.585
12177TIP3    H236477   5.745   0.336   3.568
12178TIP3   OH236478   5.626   5.312   5.260
12178TIP3    H136479   5.613   5.245   5.194
12178TIP3    H236480   5.553   5.302   5.320
12179TIP3   OH236481   7.458   2.203   5.818
12179TIP3    H136482   7.397   2.160   5.758
12179TIP3    H236483   7.421   2.187   5.905
12180TIP3   OH236484   3.079   6.949   3.958
12180TIP3    H136485   3.155   6.906   3.997
12180TIP3    H236486   3.094   6.943   3.863
12181TIP3   OH236487   2.192   6.549   5.400
12181TIP3    H136488   2.151   6.488   5.461
12181TIP3    H236489   2.267   6.584   5.447
12182TIP3   OH236490   5.157   5.177  -0.010
12182TIP3    H136491   5.204   5.097   0.016
12182TIP3    H236492   5.201   5.247   0.037
12183TIP3   OH236493   7.379   3.954   6.341
12183TIP3    H136494   7.358   3.951   6.248
12183TIP3    H236495   7.436   4.030   6.351
12184TIP3   OH236496   7.366   7.278   5.968
12184TIP3    H136497   7.344   7.361   5.926
12184TIP3    H236498   7.403   7.224   5.898
12185TIP3   OH236499   1.416   5.710   4.070
12185TIP3    H136500   1.484   5.698   4.004
12185TIP3    H236501   1.449   5.780   4.126
12186TIP3   OH236502   7.002   3.408   4.532
12186TIP3    H136503   7.076   3.467   4.550
12186TIP3    H236504   7.009   3.340   4.600
12187TIP3   OH236505   2.412   4.135   2.925
12187TIP3    H136506   2.462   4.071   2.977
12187TIP3    H236507   2.343   4.165   2.985
12188TIP3   OH236508   5.315   5.403   1.257
12188TIP3    H136509   5.394   5.391   1.310
12188TIP3    H236510   5.332   5.482   1.206
12189TIP3   OH236511   5.136   5.681   3.857
12189TIP3    H136512   5.141   5.777   3.858
12189TIP3    H236513   5.137   5.658   3.764
12190TIP3   OH236514   4.292   3.424   0.437
12190TIP3    H136515   4.301   3.464   0.351
12190TIP3    H236516   4.306   3.330   0.422
12191TIP3   OH236517   5.812   0.954   4.152
12191TIP3    H136518   5.755   0.929   4.224
12191TIP3    H236519   5.763   0.929   4.073
12192TIP3   OH236520   4.326   1.470   4.734
12192TIP3    H136521   4.315   1.392   4.788
12192TIP3    H236522   4.403   1.451   4.680
12193TIP3   OH236523   5.772   2.414   3.256
12193TIP3    H136524   5.840   2.444   3.197
12193TIP3    H236525   5.699   2.475   3.241
12194TIP3   OH236526   1.916   2.700   6.078
12194TIP3    H136527   1.971   2.777   6.090
12194TIP3    H236528   1.976   2.626   6.090
12195TIP3   OH236529   3.191   2.437   2.326
12195TIP3    H136530   3.268   2.382   2.340
12195TIP3    H236531   3.163   2.417   2.236
12196TIP3   OH236532   5.406   7.166   0.187
12196TIP3    H136533   5.379   7.255   0.166
12196TIP3    H236534   5.338   7.110   0.150
12197TIP3   OH236535   5.458   4.541   4.748
12197TIP3    H136536   5.436   4.466   4.694
12197TIP3    H236537   5.499   4.603   4.688
12198TIP3   OH236538   6.599   3.784   6.242
12198TIP3    H136539   6.507   3.778   6.214
12198TIP3    H236540   6.628   3.693   6.249
12199TIP3   OH236541   1.127   1.651   6.713
12199TIP3    H136542   1.152   1.654   6.805
12199TIP3    H236543   1.031   1.656   6.714
12200TIP3   OH236544   1.563   6.019   6.164
12200TIP3    H136545   1.581   6.062   6.247
12200TIP3    H236546   1.473   6.045   6.143
12201TIP3   OH236547   6.052   3.731   1.370
12201TIP3    H136548   6.082   3.821   1.356
12201TIP3    H236549   5.962   3.740   1.402
12202TIP3   OH236550   5.074   1.214   3.828
12202TIP3    H136551   5.056   1.308   3.826
12202TIP3    H236552   5.170   1.208   3.826
12203TIP3   OH236553   6.866   4.206   1.072
12203TIP3    H136554   6.946   4.257   1.089
12203TIP3    H236555   6.805   4.271   1.036
12204TIP3   OH236556   7.696   5.985   0.902
12204TIP3    H136557   7.789   5.963   0.906
12204TIP3    H236558   7.651   5.900   0.908
12205TIP3   OH236559   7.603   4.104   4.890
12205TIP3    H136560   7.549   4.163   4.838
12205TIP3    H236561   7.579   4.121   4.980
12206TIP3   OH236562   5.257   1.398   0.139
12206TIP3    H136563   5.230   1.431   0.053
12206TIP3    H236564   5.188   1.427   0.198
12207TIP3   OH236565   6.965   7.613   4.335
12207TIP3    H136566   6.977   7.694   4.384
12207TIP3    H236567   7.053   7.575   4.330
12208TIP3   OH236568   2.742   0.966   1.141
12208TIP3    H136569   2.799   1.043   1.133
12208TIP3    H236570   2.776   0.904   1.077
12209TIP3   OH236571   6.151   4.950   0.475
12209TIP3    H136572   6.134   4.931   0.567
12209TIP3    H236573   6.223   5.013   0.475
12210TIP3   OH236574   7.814   3.624   2.611
12210TIP3    H136575   7.897   3.604   2.653
12210TIP3    H236576   7.756   3.552   2.635
12211TIP3   OH236577   4.342   2.911   5.264
12211TIP3    H136578   4.310   2.865   5.342
12211TIP3    H236579   4.286   2.879   5.193
12212TIP3   OH236580   2.353   1.164   6.237
12212TIP3    H136581   2.347   1.106   6.162
12212TIP3    H236582   2.444   1.158   6.265
12213TIP3   OH236583   4.066   7.358   6.174
12213TIP3    H136584   4.153   7.320   6.189
12213TIP3    H236585   4.053   7.350   6.079
12214TIP3   OH236586   7.658   5.561   3.179
12214TIP3    H136587   7.601   5.516   3.242
12214TIP3    H236588   7.636   5.653   3.188
12215TIP3   OH236589   4.387   4.698   2.802
12215TIP3    H136590   4.359   4.753   2.874
12215TIP3    H236591   4.480   4.715   2.792
12216TIP3   OH236592   1.160   3.469   2.460
12216TIP3    H136593   1.124   3.495   2.545
12216TIP3    H236594   1.254   3.484   2.467
12217TIP3   OH236595   8.198   6.987   1.906
12217TIP3    H136596   8.129   6.952   1.962
12217TIP3    H236597   8.198   7.081   1.923
12218TIP3   OH236598   4.234   3.638   5.150
12218TIP3    H136599   4.281   3.721   5.141
12218TIP3    H236600   4.258   3.606   5.237
12219TIP3   OH236601   0.154   2.505   2.648
12219TIP3    H136602   0.162   2.572   2.579
12219TIP3    H236603   0.245   2.478   2.664
12220TIP3   OH236604   0.184   3.449   4.663
12220TIP3    H136605   0.116   3.475   4.725
12220TIP3    H236606   0.249   3.404   4.716
12221TIP3   OH236607   4.924   7.819   2.723
12221TIP3    H136608   4.950   7.900   2.767
12221TIP3    H236609   5.006   7.783   2.690
12222TIP3   OH236610   3.956   3.394   3.161
12222TIP3    H136611   4.023   3.377   3.227
12222TIP3    H236612   3.920   3.308   3.141
12223TIP3   OH236613   2.861   1.893   4.853
12223TIP3    H136614   2.951   1.860   4.851
12223TIP3    H236615   2.837   1.890   4.945
12224TIP3   OH236616   1.534   4.013   3.780
12224TIP3    H136617   1.491   4.028   3.696
12224TIP3    H236618   1.489   4.070   3.841
12225TIP3   OH236619   7.432   3.052   3.031
12225TIP3    H136620   7.384   3.087   3.106
12225TIP3    H236621   7.381   2.975   3.005
12226TIP3   OH236622   5.281   1.103   1.229
12226TIP3    H136623   5.214   1.147   1.178
12226TIP3    H236624   5.358   1.159   1.221
12227TIP3   OH236625   4.612   4.393   2.697
12227TIP3    H136626   4.599   4.334   2.771
12227TIP3    H236627   4.535   4.380   2.642
12228TIP3   OH236628   6.612   7.188   4.482
12228TIP3    H136629   6.583   7.275   4.508
12228TIP3    H236630   6.535   7.147   4.443
12229TIP3   OH236631   4.538   6.450   6.610
12229TIP3    H136632   4.449   6.450   6.576
12229TIP3    H236633   4.593   6.429   6.534
12230TIP3   OH236634   3.706   1.628   3.405
12230TIP3    H136635   3.792   1.661   3.380
12230TIP3    H236636   3.714   1.533   3.399
12231TIP3   OH236637   0.642   6.257   5.306
12231TIP3    H136638   0.579   6.212   5.363
12231TIP3    H236639   0.716   6.197   5.301
12232TIP3   OH236640   7.291   2.619   0.065
12232TIP3    H136641   7.260   2.607  -0.024
12232TIP3    H236642   7.254   2.545   0.113
12233TIP3   OH236643   2.216   6.374   3.284
12233TIP3    H136644   2.212   6.468   3.302
12233TIP3    H236645   2.278   6.341   3.349
12234TIP3   OH236646   4.468   5.227   6.023
12234TIP3    H136647   4.526   5.295   6.058
12234TIP3    H236648   4.387   5.273   6.002
12235TIP3   OH236649   5.908   6.265   5.981
12235TIP3    H136650   5.860   6.332   5.933
12235TIP3    H236651   5.996   6.266   5.943
12236TIP3   OH236652   4.933   4.147   2.795
12236TIP3    H136653   4.887   4.116   2.873
12236TIP3    H236654   5.018   4.175   2.828
12237TIP3   OH236655   7.886   1.325   3.242
12237TIP3    H136656   7.841   1.288   3.166
12237TIP3    H236657   7.890   1.252   3.304
12238TIP3   OH236658   5.255   3.370   4.530
12238TIP3    H136659   5.311   3.441   4.560
12238TIP3    H236660   5.316   3.299   4.510
12239TIP3   OH236661   8.142   5.668   5.244
12239TIP3    H136662   8.104   5.745   5.287
12239TIP3    H236663   8.225   5.700   5.208
12240TIP3   OH236664   4.789   4.247   6.351
12240TIP3    H136665   4.780   4.336   6.386
12240TIP3    H236666   4.702   4.227   6.316
12241TIP3   OH236667   5.678   6.101   5.426
12241TIP3    H136668   5.645   6.046   5.355
12241TIP3    H236669   5.618   6.084   5.499
12242TIP3   OH236670   2.816   3.004   1.792
12242TIP3    H136671   2.858   3.016   1.878
12242TIP3    H236672   2.859   3.068   1.735
12243TIP3   OH236673   8.004   4.548   5.611
12243TIP3    H136674   7.996   4.610   5.539
12243TIP3    H236675   7.940   4.479   5.591
12244TIP3   OH236676   6.893   5.268   3.463
12244TIP3    H136677   6.931   5.180   3.463
12244TIP3    H236678   6.806   5.257   3.425
12245TIP3   OH236679   6.274   5.780   1.926
12245TIP3    H136680   6.296   5.750   2.014
12245TIP3    H236681   6.315   5.866   1.920
12246TIP3   OH236682   7.619   3.294   3.649
12246TIP3    H136683   7.704   3.309   3.689
12246TIP3    H236684   7.583   3.220   3.697
12247TIP3   OH236685   2.041   7.285   1.524
12247TIP3    H136686   2.076   7.207   1.567
12247TIP3    H236687   2.117   7.329   1.487
12248TIP3   OH236688   0.557   1.784   6.738
12248TIP3    H136689   0.550   1.879   6.728
12248TIP3    H236690   0.471   1.757   6.773
12249TIP3   OH236691   7.947   0.992   0.150
12249TIP3    H136692   7.908   1.034   0.227
12249TIP3    H236693   7.891   1.019   0.078
12250TIP3   OH236694   4.448   0.945   0.047
12250TIP3    H136695   4.501   1.020   0.075
12250TIP3    H236696   4.510   0.883   0.010
12251TIP3   OH236697   3.745   0.465   0.323
12251TIP3    H136698   3.711   0.505   0.403
12251TIP3    H236699   3.733   0.371   0.336
12252TIP3   OH236700   4.942   2.681   1.398
12252TIP3    H136701   4.961   2.607   1.340
12252TIP3    H236702   4.988   2.754   1.358
12253TIP3   OH236703   1.295   5.345   2.661
12253TIP3    H136704   1.324   5.380   2.745
12253TIP3    H236705   1.365   5.368   2.600
12254TIP3   OH236706   6.362   1.032   3.214
12254TIP3    H136707   6.327   0.971   3.148
12254TIP3    H236708   6.307   1.110   3.205
12255TIP3   OH236709   4.651   5.465   4.362
12255TIP3    H136710   4.627   5.510   4.281
12255TIP3    H236711   4.574   5.472   4.418
12256TIP3   OH236712   1.189   2.274   4.934
12256TIP3    H136713   1.101   2.279   4.899
12256TIP3    H236714   1.233   2.208   4.881
12257TIP3   OH236715   6.632   7.339   5.421
12257TIP3    H136716   6.713   7.316   5.375
12257TIP3    H236717   6.612   7.428   5.391
12258TIP3   OH236718   4.701   5.353   3.027
12258TIP3    H136719   4.779   5.405   3.011
12258TIP3    H236720   4.642   5.377   2.956
12259TIP3   OH236721   7.045   0.597   2.951
12259TIP3    H136722   7.006   0.518   2.914
12259TIP3    H236723   7.124   0.566   2.996
12260TIP3   OH236724   6.287   0.051   0.441
12260TIP3    H136725   6.311   0.085   0.355
12260TIP3    H236726   6.340  -0.028   0.451
12261TIP3   OH236727   0.919   0.916   6.066
12261TIP3    H136728   0.892   0.955   5.983
12261TIP3    H236729   0.837   0.891   6.108
12262TIP3   OH236730   4.124   0.587   2.399
12262TIP3    H136731   4.150   0.679   2.400
12262TIP3    H236732   4.207   0.539   2.397
12263TIP3   OH236733   5.000   0.569   1.856
12263TIP3    H136734   4.930   0.505   1.859
12263TIP3    H236735   4.959   0.652   1.880
12264TIP3   OH236736   2.776   4.887   6.318
12264TIP3    H136737   2.862   4.924   6.338
12264TIP3    H236738   2.786   4.793   6.330
12265TIP3   OH236739   5.902   4.735   2.296
12265TIP3    H136740   5.825   4.747   2.350
12265TIP3    H236741   5.971   4.783   2.341
12266TIP3   OH236742   3.173   4.329   4.221
12266TIP3    H136743   3.139   4.419   4.226
12266TIP3    H236744   3.259   4.334   4.262
12267TIP3   OH236745   5.949   7.639   6.584
12267TIP3    H136746   5.858   7.667   6.574
12267TIP3    H236747   5.997   7.692   6.520
12268TIP3   OH236748   0.871   5.982   3.006
12268TIP3    H136749   0.784   6.022   3.011
12268TIP3    H236750   0.931   6.056   2.997
12269TIP3   OH236751   6.789   3.220   4.547
12269TIP3    H136752   6.815   3.302   4.506
12269TIP3    H236753   6.857   3.202   4.612
12270TIP3   OH236754   0.258   7.758   1.448
12270TIP3    H136755   0.338   7.789   1.407
12270TIP3    H236756   0.189   7.776   1.383
12271TIP3   OH236757   7.248   2.279   3.528
12271TIP3    H136758   7.187   2.298   3.457
12271TIP3    H236759   7.270   2.365   3.565
12272TIP3   OH236760   0.082   1.256   3.873
12272TIP3    H136761   0.159   1.214   3.836
12272TIP3    H236762   0.087   1.346   3.841
12273TIP3   OH236763   0.032   0.370   0.387
12273TIP3    H136764  -0.028   0.347   0.316
12273TIP3    H236765  -0.015   0.345   0.467
12274TIP3   OH236766   7.335   4.912   1.188
12274TIP3    H136767   7.330   5.000   1.151
12274TIP3    H236768   7.414   4.913   1.242
12275TIP3   OH236769   5.063   0.111   6.072
12275TIP3    H136770   5.112   0.113   6.154
12275TIP3    H236771   5.097   0.035   6.025
12276TIP3   OH236772   2.767   5.927   3.744
12276TIP3    H136773   2.825   6.001   3.761
12276TIP3    H236774   2.823   5.861   3.702
12277TIP3   OH236775   1.794   4.085   6.592
12277TIP3    H136776   1.774   4.161   6.538
12277TIP3    H236777   1.820   4.017   6.530
12278TIP3   OH236778   5.660   4.884   1.862
12278TIP3    H136779   5.673   4.861   1.954
12278TIP3    H236780   5.724   4.954   1.846
12279TIP3   OH236781   6.293   0.164   0.178
12279TIP3    H136782   6.360   0.142   0.113
12279TIP3    H236783   6.228   0.215   0.131
12280TIP3   OH236784   6.856   4.981   6.695
12280TIP3    H136785   6.832   4.967   6.786
12280TIP3    H236786   6.905   4.902   6.671
12281TIP3   OH236787   6.055   7.224   1.631
12281TIP3    H136788   6.048   7.263   1.718
12281TIP3    H236789   5.984   7.161   1.627
12282TIP3   OH236790   5.109   4.918   1.160
12282TIP3    H136791   5.165   4.994   1.142
12282TIP3    H236792   5.020   4.950   1.145
12283TIP3   OH236793   5.471   2.939   0.859
12283TIP3    H136794   5.401   2.874   0.858
12283TIP3    H236795   5.456   2.990   0.938
12284TIP3   OH236796   6.100   1.826   4.593
12284TIP3    H136797   6.080   1.733   4.581
12284TIP3    H236798   6.065   1.868   4.514
12285TIP3   OH236799   5.840   5.260   4.973
12285TIP3    H136800   5.918   5.262   5.028
12285TIP3    H236801   5.831   5.349   4.941
12286TIP3   OH236802   7.237   6.379   3.182
12286TIP3    H136803   7.155   6.373   3.230
12286TIP3    H236804   7.304   6.354   3.245
12287TIP3   OH236805   1.222   3.938   2.562
12287TIP3    H136806   1.299   3.935   2.619
12287TIP3    H236807   1.231   4.020   2.514
12288TIP3   OH236808   3.727   1.704   1.526
12288TIP3    H136809   3.652   1.656   1.560
12288TIP3    H236810   3.691   1.764   1.461
12289TIP3   OH236811   3.329   3.354   1.549
12289TIP3    H136812   3.399   3.407   1.586
12289TIP3    H236813   3.354   3.264   1.569
12290TIP3   OH236814   1.551   4.428   2.107
12290TIP3    H136815   1.566   4.438   2.201
12290TIP3    H236816   1.471   4.476   2.090
12291TIP3   OH236817   5.657   5.081   1.450
12291TIP3    H136818   5.680   4.992   1.476
12291TIP3    H236819   5.739   5.129   1.453
12292TIP3   OH236820   1.719   3.642   0.726
12292TIP3    H136821   1.754   3.555   0.745
12292TIP3    H236822   1.687   3.673   0.811
12293TIP3   OH236823   5.740   5.623   2.473
12293TIP3    H136824   5.767   5.557   2.537
12293TIP3    H236825   5.718   5.700   2.526
12294TIP3   OH236826   3.681   0.586   2.653
12294TIP3    H136827   3.676   0.653   2.584
12294TIP3    H236828   3.763   0.540   2.635
12295TIP3   OH236829   6.958   6.771   6.459
12295TIP3    H136830   6.908   6.750   6.380
12295TIP3    H236831   6.958   6.867   6.462
12296TIP3   OH236832   1.952   7.639   4.146
12296TIP3    H136833   1.900   7.576   4.096
12296TIP3    H236834   1.925   7.627   4.237
12297TIP3   OH236835   4.034   3.087   5.042
12297TIP3    H136836   3.957   3.144   5.034
12297TIP3    H236837   4.065   3.075   4.952
12298TIP3   OH236838   3.461   3.165   5.989
12298TIP3    H136839   3.496   3.081   6.018
12298TIP3    H236840   3.491   3.227   6.056
12299TIP3   OH236841   2.133   7.615   0.197
12299TIP3    H136842   2.101   7.693   0.151
12299TIP3    H236843   2.076   7.607   0.274
12300TIP3   OH236844   4.832   7.800   6.037
12300TIP3    H136845   4.848   7.759   5.952
12300TIP3    H236846   4.918   7.804   6.079
12301TIP3   OH236847   2.997   0.522   6.039
12301TIP3    H136848   3.009   0.448   5.981
12301TIP3    H236849   2.909   0.512   6.074
12302TIP3   OH236850   8.105   0.895   6.139
12302TIP3    H136851   8.113   0.930   6.050
12302TIP3    H236852   8.046   0.820   6.130
12303TIP3   OH236853   3.151   6.651   3.807
12303TIP3    H136854   3.068   6.673   3.764
12303TIP3    H236855   3.166   6.560   3.785
12304TIP3   OH236856   1.287   6.097   0.483
12304TIP3    H136857   1.257   6.061   0.567
12304TIP3    H236858   1.380   6.074   0.479
12305TIP3   OH236859   2.206   1.172   2.620
12305TIP3    H136860   2.183   1.254   2.665
12305TIP3    H236861   2.136   1.160   2.555
12306TIP3   OH236862   3.296   4.228   2.017
12306TIP3    H136863   3.217   4.275   1.988
12306TIP3    H236864   3.263   4.155   2.069
12307TIP3   OH236865   2.389   4.344   2.137
12307TIP3    H136866   2.350   4.289   2.206
12307TIP3    H236867   2.320   4.354   2.072
12308TIP3   OH236868   1.882   5.527   4.217
12308TIP3    H136869   1.977   5.525   4.222
12308TIP3    H236870   1.855   5.581   4.291
12309TIP3   OH236871   5.182   0.431   0.346
12309TIP3    H136872   5.228   0.371   0.404
12309TIP3    H236873   5.241   0.441   0.271
12310TIP3   OH236874   5.671   6.215   2.169
12310TIP3    H136875   5.585   6.188   2.201
12310TIP3    H236876   5.731   6.149   2.203
12311TIP3   OH236877   6.826   1.504   0.088
12311TIP3    H136878   6.750   1.544   0.131
12311TIP3    H236879   6.834   1.552   0.005
12312TIP3   OH236880   3.211   4.046   1.521
12312TIP3    H136881   3.174   3.979   1.579
12312TIP3    H236882   3.237   4.117   1.580
12313TIP3   OH236883   4.258   0.515   2.793
12313TIP3    H136884   4.178   0.559   2.822
12313TIP3    H236885   4.228   0.438   2.745
12314TIP3   OH236886   1.532   6.354   4.440
12314TIP3    H136887   1.597   6.420   4.411
12314TIP3    H236888   1.450   6.403   4.447
12315TIP3   OH236889   2.188   7.476   2.460
12315TIP3    H136890   2.255   7.482   2.392
12315TIP3    H236891   2.108   7.507   2.418
12316TIP3   OH236892   6.303   6.215   1.041
12316TIP3    H136893   6.344   6.244   0.960
12316TIP3    H236894   6.376   6.190   1.097
12317TIP3   OH236895   3.600   0.770   0.992
12317TIP3    H136896   3.523   0.750   0.939
12317TIP3    H236897   3.674   0.738   0.940
12318TIP3   OH236898   2.128   6.302   1.210
12318TIP3    H136899   2.152   6.381   1.161
12318TIP3    H236900   2.084   6.336   1.289
12319TIP3   OH236901   4.026   1.554   0.547
12319TIP3    H136902   4.053   1.562   0.638
12319TIP3    H236903   3.933   1.576   0.547
12320TIP3   OH236904   4.170   6.299   3.667
12320TIP3    H136905   4.097   6.246   3.699
12320TIP3    H236906   4.162   6.382   3.714
12321TIP3   OH236907   3.161   0.067   4.165
12321TIP3    H136908   3.239   0.026   4.127
12321TIP3    H236909   3.173   0.059   4.259
12322TIP3   OH236910   5.159   7.534   0.818
12322TIP3    H136911   5.159   7.518   0.912
12322TIP3    H236912   5.068   7.524   0.791
12323TIP3   OH236913   6.832   4.506   5.975
12323TIP3    H136914   6.759   4.472   5.922
12323TIP3    H236915   6.908   4.458   5.942
12324TIP3   OH236916   3.412   0.531   4.417
12324TIP3    H136917   3.412   0.573   4.503
12324TIP3    H236918   3.361   0.590   4.361
12325TIP3   OH236919   3.558   0.109   2.878
12325TIP3    H136920   3.535   0.192   2.838
12325TIP3    H236921   3.599   0.059   2.807
12326TIP3   OH236922   4.200   1.875   2.729
12326TIP3    H136923   4.239   1.952   2.687
12326TIP3    H236924   4.266   1.845   2.791
12327TIP3   OH236925   0.375   3.385   3.946
12327TIP3    H136926   0.351   3.295   3.923
12327TIP3    H236927   0.324   3.404   4.025
12328TIP3   OH236928   1.829   4.136   6.062
12328TIP3    H136929   1.880   4.217   6.056
12328TIP3    H236930   1.753   4.151   6.005
12329TIP3   OH236931   4.187   2.284   5.268
12329TIP3    H136932   4.269   2.236   5.258
12329TIP3    H236933   4.213   2.375   5.279
12330TIP3   OH236934   4.558   0.444   2.403
12330TIP3    H136935   4.570   0.453   2.497
12330TIP3    H236936   4.631   0.493   2.365
12331TIP3   OH236937   6.576   0.871   2.154
12331TIP3    H136938   6.625   0.797   2.118
12331TIP3    H236939   6.504   0.883   2.093
12332TIP3   OH236940   4.831   2.937   2.186
12332TIP3    H136941   4.781   3.016   2.167
12332TIP3    H236942   4.860   2.906   2.100
12333TIP3   OH236943   6.207   7.252   5.102
12333TIP3    H136944   6.192   7.258   5.196
12333TIP3    H236945   6.127   7.288   5.063
12334TIP3   OH236946   4.616   7.148   6.471
12334TIP3    H136947   4.628   7.128   6.378
12334TIP3    H236948   4.597   7.063   6.511
12335TIP3   OH236949   4.554   2.202   1.784
12335TIP3    H136950   4.467   2.231   1.811
12335TIP3    H236951   4.607   2.282   1.780
12336TIP3   OH236952   5.231   1.008   6.218
12336TIP3    H136953   5.232   1.089   6.269
12336TIP3    H236954   5.266   1.033   6.133
12337TIP3   OH236955   7.002   3.663   6.731
12337TIP3    H136956   7.066   3.712   6.782
12337TIP3    H236957   6.919   3.708   6.746
12338TIP3   OH236958   7.559   7.564   1.823
12338TIP3    H136959   7.633   7.621   1.801
12338TIP3    H236960   7.518   7.543   1.739
12339TIP3   OH236961   4.067   7.070   4.365
12339TIP3    H136962   4.045   7.163   4.357
12339TIP3    H236963   3.982   7.025   4.359
12340TIP3   OH236964   2.711   5.789   2.002
12340TIP3    H136965   2.675   5.719   2.057
12340TIP3    H236966   2.781   5.827   2.053
12341TIP3   OH236967   1.834   6.207   6.701
12341TIP3    H136968   1.925   6.235   6.712
12341TIP3    H236969   1.806   6.182   6.789
12342TIP3   OH236970   6.470   2.480   6.340
12342TIP3    H136971   6.516   2.404   6.303
12342TIP3    H236972   6.514   2.496   6.424
12343TIP3   OH236973   6.530   3.583   1.423
12343TIP3    H136974   6.561   3.544   1.505
12343TIP3    H236975   6.454   3.636   1.449
12344TIP3   OH236976   0.933   2.824   0.511
12344TIP3    H136977   1.027   2.804   0.514
12344TIP3    H236978   0.922   2.874   0.430
12345TIP3   OH236979   3.340   6.601   0.680
12345TIP3    H136980   3.352   6.550   0.600
12345TIP3    H236981   3.402   6.561   0.742
12346TIP3   OH236982   0.938   5.786   1.203
12346TIP3    H136983   0.902   5.874   1.190
12346TIP3    H236984   0.873   5.727   1.167
12347TIP3   OH236985   4.629   1.970   3.179
12347TIP3    H136986   4.718   1.984   3.213
12347TIP3    H236987   4.626   2.023   3.099
12348TIP3   OH236988   3.965   6.889   0.634
12348TIP3    H136989   3.888   6.842   0.603
12348TIP3    H236990   4.021   6.821   0.672
12349TIP3   OH236991   0.171   3.909   4.265
12349TIP3    H136992   0.224   3.989   4.274
12349TIP3    H236993   0.144   3.908   4.174
12350TIP3   OH236994   3.096   1.790   6.202
12350TIP3    H136995   3.033   1.814   6.135
12350TIP3    H236996   3.043   1.755   6.274
12351TIP3   OH236997   4.570   2.497   2.549
12351TIP3    H136998   4.657   2.535   2.558
12351TIP3    H236999   4.516   2.545   2.611
12352TIP3   OH237000   3.900   5.932   2.467
12352TIP3    H137001   3.983   5.889   2.449
12352TIP3    H237002   3.838   5.860   2.482
12353TIP3   OH237003   1.093   3.229   1.763
12353TIP3    H137004   1.100   3.213   1.669
12353TIP3    H237005   1.001   3.211   1.784
12354TIP3   OH237006   8.161   4.237   3.745
12354TIP3    H137007   8.095   4.252   3.676
12354TIP3    H237008   8.236   4.200   3.699
12355TIP3   OH237009   8.201   1.598   0.822
12355TIP3    H137010   8.228   1.508   0.802
12355TIP3    H237011   8.227   1.611   0.914
12356TIP3   OH237012   0.900   1.014   2.968
12356TIP3    H137013   0.899   0.924   3.002
12356TIP3    H237014   0.991   1.042   2.976
12357TIP3   OH237015   8.159   7.156   4.866
12357TIP3    H137016   8.090   7.102   4.828
12357TIP3    H237017   8.240   7.122   4.827
12358TIP3   OH237018   0.242   3.607   5.428
12358TIP3    H137019   0.305   3.653   5.373
12358TIP3    H237020   0.185   3.560   5.367
12359TIP3   OH237021   0.467   7.293   5.400
12359TIP3    H137022   0.538   7.243   5.360
12359TIP3    H237023   0.388   7.241   5.383
12360TIP3   OH237024   7.650   3.754   0.107
12360TIP3    H137025   7.686   3.832   0.064
12360TIP3    H237026   7.727   3.703   0.133
12361TIP3   OH237027   0.852   2.580   3.303
12361TIP3    H137028   0.819   2.514   3.363
12361TIP3    H237029   0.898   2.531   3.235
12362TIP3   OH237030   7.299   5.289   6.729
12362TIP3    H137031   7.336   5.374   6.753
12362TIP3    H237032   7.213   5.288   6.771
12363TIP3   OH237033   4.476   3.390   3.241
12363TIP3    H137034   4.412   3.453   3.273
12363TIP3    H237035   4.474   3.319   3.305
12364TIP3   OH237036   0.573   3.140   6.465
12364TIP3    H137037   0.532   3.053   6.470
12364TIP3    H237038   0.599   3.160   6.555
12365TIP3   OH237039   0.688   3.362   2.565
12365TIP3    H137040   0.709   3.314   2.486
12365TIP3    H237041   0.754   3.431   2.570
12366TIP3   OH237042   6.756   4.016   3.694
12366TIP3    H137043   6.689   3.961   3.735
12366TIP3    H237044   6.723   4.106   3.706
12367TIP3   OH237045   4.297   7.029   3.063
12367TIP3    H137046   4.317   7.121   3.049
12367TIP3    H237047   4.376   6.982   3.036
12368TIP3   OH237048   5.768   0.311   2.042
12368TIP3    H137049   5.724   0.282   1.962
12368TIP3    H237050   5.861   0.301   2.022
12369TIP3   OH237051   3.698   6.361   3.223
12369TIP3    H137052   3.625   6.418   3.248
12369TIP3    H237053   3.766   6.379   3.288
12370TIP3   OH237054   2.455   6.192   6.295
12370TIP3    H137055   2.363   6.167   6.283
12370TIP3    H237056   2.501   6.146   6.225
12371TIP3   OH237057   4.153   4.158   6.256
12371TIP3    H137058   4.194   4.171   6.341
12371TIP3    H237059   4.182   4.071   6.229
12372TIP3   OH237060   5.006   5.510   5.400
12372TIP3    H137061   5.012   5.604   5.384
12372TIP3    H237062   4.979   5.473   5.316
12373TIP3   OH237063   3.769   4.721   1.712
12373TIP3    H137064   3.831   4.792   1.724
12373TIP3    H237065   3.791   4.658   1.780
12374TIP3   OH237066   8.178   1.002   6.713
12374TIP3    H137067   8.139   0.936   6.770
12374TIP3    H237068   8.207   0.953   6.636
12375TIP3   OH237069   5.904   1.530   5.370
12375TIP3    H137070   5.973   1.511   5.434
12375TIP3    H237071   5.938   1.494   5.288
12376TIP3   OH237072   3.348   7.499   0.618
12376TIP3    H137073   3.297   7.502   0.700
12376TIP3    H237074   3.384   7.587   0.609
12377TIP3   OH237075   5.732   0.840   4.967
12377TIP3    H137076   5.811   0.893   4.974
12377TIP3    H237077   5.722   0.825   4.873
12378TIP3   OH237078   2.949   5.117   1.131
12378TIP3    H137079   2.994   5.186   1.084
12378TIP3    H237080   2.858   5.148   1.138
12379TIP3   OH237081   1.508   6.676   3.334
12379TIP3    H137082   1.581   6.730   3.363
12379TIP3    H237083   1.432   6.712   3.379
12380TIP3   OH237084   4.270   7.674   4.588
12380TIP3    H137085   4.311   7.591   4.562
12380TIP3    H237086   4.212   7.651   4.660
12381TIP3   OH237087   1.022   2.727   3.043
12381TIP3    H137088   1.115   2.711   3.061
12381TIP3    H237089   1.010   2.820   3.064
12382TIP3   OH237090   2.789   3.574   4.091
12382TIP3    H137091   2.816   3.550   4.180
12382TIP3    H237092   2.750   3.661   4.100
12383TIP3   OH237093   2.857   0.194   4.317
12383TIP3    H137094   2.922   0.125   4.304
12383TIP3    H237095   2.906   0.276   4.305
12384TIP3   OH237096   7.458   4.159   6.768
12384TIP3    H137097   7.416   4.154   6.682
12384TIP3    H237098   7.514   4.237   6.763
12385TIP3   OH237099   7.426   2.356   6.776
12385TIP3    H137100   7.428   2.349   6.681
12385TIP3    H237101   7.518   2.362   6.802
12386TIP3   OH237102   6.400   4.468   1.790
12386TIP3    H137103   6.359   4.484   1.875
12386TIP3    H237104   6.337   4.413   1.743
12387TIP3   OH237105   0.521   0.899   2.201
12387TIP3    H137106   0.563   0.825   2.245
12387TIP3    H237107   0.543   0.975   2.255
12388TIP3   OH237108   6.529   5.600   3.877
12388TIP3    H137109   6.619   5.610   3.846
12388TIP3    H237110   6.525   5.510   3.909
12389TIP3   OH237111   5.384   5.062   4.076
12389TIP3    H137112   5.334   5.002   4.131
12389TIP3    H237113   5.319   5.123   4.042
12390TIP3   OH237114   4.591   7.518   5.474
12390TIP3    H137115   4.586   7.611   5.452
12390TIP3    H237116   4.500   7.492   5.485
12391TIP3   OH237117   7.177   2.526   4.147
12391TIP3    H137118   7.186   2.621   4.151
12391TIP3    H237119   7.223   2.495   4.225
12392TIP3   OH237120   0.234   0.945   6.325
12392TIP3    H137121   0.289   0.928   6.402
12392TIP3    H237122   0.157   0.990   6.360
12393TIP3   OH237123   5.843   4.764   4.725
12393TIP3    H137124   5.938   4.769   4.721
12393TIP3    H237125   5.815   4.853   4.747
12394TIP3   OH237126   2.471   7.111   0.442
12394TIP3    H137127   2.523   7.086   0.519
12394TIP3    H237128   2.504   7.198   0.419
12395TIP3   OH237129   6.597   6.123   5.116
12395TIP3    H137130   6.596   6.139   5.021
12395TIP3    H237131   6.646   6.042   5.126
12396TIP3   OH237132   6.344   2.853   5.039
12396TIP3    H137133   6.430   2.844   5.000
12396TIP3    H237134   6.350   2.931   5.094
12397TIP3   OH237135   1.635   2.088   0.119
12397TIP3    H137136   1.613   2.131   0.202
12397TIP3    H237137   1.721   2.123   0.095
12398TIP3   OH237138   3.468   2.387   1.158
12398TIP3    H137139   3.512   2.436   1.088
12398TIP3    H237140   3.448   2.453   1.224
12399TIP3   OH237141   4.098   1.499   2.468
12399TIP3    H137142   4.188   1.527   2.487
12399TIP3    H237143   4.085   1.423   2.524
12400TIP3   OH237144   3.993   1.526   2.837
12400TIP3    H137145   4.047   1.589   2.886
12400TIP3    H237146   3.924   1.580   2.797
12401TIP3   OH237147   5.733   7.590   2.356
12401TIP3    H137148   5.734   7.681   2.386
12401TIP3    H237149   5.825   7.563   2.358
12402TIP3   OH237150   2.301   1.383   0.578
12402TIP3    H137151   2.215   1.408   0.544
12402TIP3    H237152   2.338   1.465   0.612
12403TIP3   OH237153   1.000   5.060   1.291
12403TIP3    H137154   1.047   5.133   1.333
12403TIP3    H237155   0.961   5.098   1.213
12404TIP3   OH237156   6.869   5.530   1.410
12404TIP3    H137157   6.775   5.515   1.397
12404TIP3    H237158   6.888   5.610   1.361
12405TIP3   OH237159   3.885   3.271   5.989
12405TIP3    H137160   3.936   3.203   5.944
12405TIP3    H237161   3.897   3.252   6.082
12406TIP3   OH237162   5.128   0.434   6.310
12406TIP3    H137163   5.131   0.507   6.372
12406TIP3    H237164   5.145   0.473   6.225
12407TIP3   OH237165   3.347   7.150   3.859
12407TIP3    H137166   3.416   7.128   3.796
12407TIP3    H237167   3.266   7.149   3.808
12408TIP3   OH237168   2.583   2.442   1.172
12408TIP3    H137169   2.568   2.536   1.160
12408TIP3    H237170   2.678   2.433   1.172
12409TIP3   OH237171   1.418   2.266   6.384
12409TIP3    H137172   1.371   2.186   6.407
12409TIP3    H237173   1.510   2.238   6.378
12410TIP3   OH237174   1.559   5.918   2.939
12410TIP3    H137175   1.497   5.989   2.923
12410TIP3    H237176   1.560   5.907   3.034
12411TIP3   OH237177   4.011   6.089   1.451
12411TIP3    H137178   3.965   6.061   1.372
12411TIP3    H237179   4.051   6.173   1.428
12412TIP3   OH237180   5.072   5.898   0.013
12412TIP3    H137181   5.135   5.942   0.070
12412TIP3    H237182   5.038   5.967  -0.044
12413TIP3   OH237183   0.239   6.210   5.649
12413TIP3    H137184   0.149   6.224   5.680
12413TIP3    H237185   0.277   6.298   5.647
12414TIP3   OH237186   4.777   3.712   4.247
12414TIP3    H137187   4.815   3.695   4.161
12414TIP3    H237188   4.717   3.639   4.261
12415TIP3   OH237189   2.570   6.663   4.971
12415TIP3    H137190   2.579   6.573   5.004
12415TIP3    H237191   2.647   6.708   5.006
12416TIP3   OH237192   0.653   3.487   1.242
12416TIP3    H137193   0.645   3.392   1.236
12416TIP3    H237194   0.562   3.518   1.244
12417TIP3   OH237195   7.469   6.294   5.912
12417TIP3    H137196   7.493   6.357   5.979
12417TIP3    H237197   7.552   6.255   5.885
12418TIP3   OH237198   6.941   1.439   2.056
12418TIP3    H137199   6.851   1.462   2.080
12418TIP3    H237200   6.991   1.453   2.136
12419TIP3   OH237201   2.240   1.790   4.465
12419TIP3    H137202   2.231   1.781   4.370
12419TIP3    H237203   2.227   1.701   4.499
12420TIP3   OH237204   3.166   2.050   6.750
12420TIP3    H137205   3.187   1.973   6.803
12420TIP3    H237206   3.181   2.022   6.660
12421TIP3   OH237207   1.297   4.213   3.154
12421TIP3    H137208   1.229   4.145   3.156
12421TIP3    H237209   1.257   4.284   3.104
12422TIP3   OH237210   2.259   4.129   0.524
12422TIP3    H137211   2.268   4.124   0.619
12422TIP3    H237212   2.225   4.217   0.507
12423TIP3   OH237213   0.687   3.390   1.609
12423TIP3    H137214   0.652   3.303   1.629
12423TIP3    H237215   0.778   3.373   1.583
12424TIP3   OH237216   4.292   0.945   5.270
12424TIP3    H137217   4.298   0.902   5.186
12424TIP3    H237218   4.226   1.013   5.258
12425TIP3   OH237219   5.387   1.309   2.878
12425TIP3    H137220   5.390   1.248   2.952
12425TIP3    H237221   5.297   1.300   2.845
12426TIP3   OH237222   1.108   6.149   6.485
12426TIP3    H137223   1.199   6.164   6.462
12426TIP3    H237224   1.080   6.078   6.426
12427TIP3   OH237225   4.361   5.574   5.778
12427TIP3    H137226   4.328   5.494   5.819
12427TIP3    H237227   4.406   5.545   5.699
12428TIP3   OH237228   7.188   6.157   0.584
12428TIP3    H137229   7.123   6.087   0.594
12428TIP3    H237230   7.174   6.190   0.495
12429TIP3   OH237231   1.343   5.473   0.185
12429TIP3    H137232   1.336   5.536   0.258
12429TIP3    H237233   1.281   5.404   0.209
12430TIP3   OH237234   1.812   0.965   2.442
12430TIP3    H137235   1.838   1.007   2.360
12430TIP3    H237236   1.793   0.874   2.417
12431TIP3   OH237237   6.532   2.850   4.172
12431TIP3    H137238   6.588   2.922   4.142
12431TIP3    H237239   6.593   2.787   4.210
12432TIP3   OH237240   3.243   4.871   1.962
12432TIP3    H137241   3.289   4.831   1.888
12432TIP3    H237242   3.311   4.891   2.025
12433TIP3   OH237243   2.551   6.862   1.848
12433TIP3    H137244   2.503   6.784   1.820
12433TIP3    H237245   2.499   6.899   1.919
12434TIP3   OH237246   1.376   6.253   6.477
12434TIP3    H137247   1.379   6.323   6.413
12434TIP3    H237248   1.466   6.220   6.480
12435TIP3   OH237249   7.660   4.868   0.406
12435TIP3    H137250   7.607   4.820   0.469
12435TIP3    H237251   7.750   4.841   0.425
12436TIP3   OH237252   5.858   6.341   1.105
12436TIP3    H137253   5.796   6.396   1.056
12436TIP3    H237254   5.847   6.253   1.067
12437TIP3   OH237255   2.419   1.722   0.679
12437TIP3    H137256   2.488   1.688   0.736
12437TIP3    H237257   2.338   1.705   0.727
12438TIP3   OH237258   6.816   3.351   2.854
12438TIP3    H137259   6.855   3.437   2.836
12438TIP3    H237260   6.752   3.339   2.784
12439TIP3   OH237261   7.080   1.633   2.681
12439TIP3    H137262   7.108   1.711   2.731
12439TIP3    H237263   7.135   1.562   2.715
12440TIP3   OH237264   7.750   0.832   3.988
12440TIP3    H137265   7.844   0.827   3.968
12440TIP3    H237266   7.707   0.822   3.903
12441TIP3   OH237267   0.582   3.528   4.466
12441TIP3    H137268   0.633   3.557   4.541
12441TIP3    H237269   0.636   3.461   4.424
12442TIP3   OH237270   8.020   5.045   0.236
12442TIP3    H137271   8.056   4.957   0.228
12442TIP3    H237272   8.087   5.095   0.282
12443TIP3   OH237273   7.773   1.657   4.386
12443TIP3    H137274   7.802   1.748   4.375
12443TIP3    H237275   7.704   1.646   4.320
12444TIP3   OH237276   0.326   5.204   0.376
12444TIP3    H137277   0.247   5.257   0.384
12444TIP3    H237278   0.295   5.119   0.343
12445TIP3   OH237279   6.677   3.258   3.893
12445TIP3    H137280   6.715   3.232   3.809
12445TIP3    H237281   6.742   3.316   3.932
12446TIP3   OH237282   6.282   2.347   2.075
12446TIP3    H137283   6.206   2.370   2.021
12446TIP3    H237284   6.334   2.288   2.019
12447TIP3   OH237285   1.398   6.992   3.221
12447TIP3    H137286   1.479   6.943   3.236
12447TIP3    H237287   1.421   7.056   3.154
12448TIP3   OH237288   0.181   7.213   0.830
12448TIP3    H137289   0.192   7.232   0.736
12448TIP3    H237290   0.252   7.260   0.873
12449TIP3   OH237291   6.678   4.453   3.109
12449TIP3    H137292   6.773   4.435   3.105
12449TIP3    H237293   6.638   4.379   3.063
12450TIP3   OH237294   7.198   2.419   0.239
12450TIP3    H137295   7.206   2.474   0.317
12450TIP3    H237296   7.283   2.375   0.232
12451TIP3   OH237297   6.034   5.281   6.137
12451TIP3    H137298   6.109   5.236   6.177
12451TIP3    H237299   6.016   5.354   6.195
12452TIP3   OH237300   7.775   2.016   0.962
12452TIP3    H137301   7.866   2.046   0.964
12452TIP3    H237302   7.764   1.965   1.042
12453TIP3   OH237303   5.443   1.185   4.423
12453TIP3    H137304   5.533   1.203   4.448
12453TIP3    H237305   5.438   1.090   4.417
12454TIP3   OH237306   6.596   4.769   6.396
12454TIP3    H137307   6.635   4.686   6.369
12454TIP3    H237308   6.566   4.754   6.486
12455TIP3   OH237309   1.352   4.761   2.655
12455TIP3    H137310   1.305   4.718   2.583
12455TIP3    H237311   1.357   4.853   2.628
12456TIP3   OH237312   7.276   6.103   5.782
12456TIP3    H137313   7.314   6.016   5.778
12456TIP3    H237314   7.341   6.156   5.828
12457TIP3   OH237315   2.339   4.439   4.706
12457TIP3    H137316   2.281   4.448   4.631
12457TIP3    H237317   2.294   4.484   4.777
12458TIP3   OH237318   7.989   0.489   4.278
12458TIP3    H137319   8.081   0.478   4.254
12458TIP3    H237320   7.991   0.499   4.373
12459TIP3   OH237321   6.707   5.979   6.755
12459TIP3    H137322   6.694   6.051   6.693
12459TIP3    H237323   6.619   5.948   6.776
12460TIP3   OH237324   8.323   3.802   5.936
12460TIP3    H137325   8.239   3.767   5.905
12460TIP3    H237326   8.352   3.738   6.001
12461TIP3   OH237327   7.433   6.312   0.562
12461TIP3    H137328   7.487   6.256   0.507
12461TIP3    H237329   7.490   6.386   0.584
12462TIP3   OH237330   5.338   2.450   0.238
12462TIP3    H137331   5.374   2.535   0.265
12462TIP3    H237332   5.287   2.470   0.159
12463TIP3   OH237333   2.398   5.082   2.569
12463TIP3    H137334   2.406   5.073   2.664
12463TIP3    H237335   2.307   5.107   2.554
12464TIP3   OH237336   8.148   6.744   2.137
12464TIP3    H137337   8.072   6.715   2.087
12464TIP3    H237338   8.116   6.816   2.190
12465TIP3   OH237339   7.575   5.621   3.974
12465TIP3    H137340   7.614   5.544   3.932
12465TIP3    H237341   7.515   5.656   3.908
12466TIP3   OH237342   0.918   6.189   5.518
12466TIP3    H137343   0.852   6.172   5.585
12466TIP3    H237344   1.001   6.164   5.559
12467TIP3   OH237345   0.915   3.046   0.709
12467TIP3    H137346   0.896   3.057   0.802
12467TIP3    H237347   0.948   2.957   0.702
12468TIP3   OH237348   7.929   4.225   2.027
12468TIP3    H137349   7.940   4.243   1.933
12468TIP3    H237350   7.903   4.310   2.064
12469TIP3   OH237351   6.996   5.424   4.664
12469TIP3    H137352   6.935   5.429   4.590
12469TIP3    H237353   7.002   5.330   4.683
12470TIP3   OH237354   0.270   3.253   6.482
12470TIP3    H137355   0.196   3.225   6.535
12470TIP3    H237356   0.345   3.248   6.541
12471TIP3   OH237357   5.861   3.840   6.257
12471TIP3    H137358   5.773   3.824   6.291
12471TIP3    H237359   5.889   3.920   6.300
12472TIP3   OH237360   2.366   1.216   2.385
12472TIP3    H137361   2.360   1.202   2.479
12472TIP3    H237362   2.301   1.284   2.366
12473TIP3   OH237363   3.460   3.569   5.078
12473TIP3    H137364   3.504   3.535   5.155
12473TIP3    H237365   3.402   3.638   5.111
12474TIP3   OH237366   1.125   0.302   3.460
12474TIP3    H137367   1.218   0.310   3.478
12474TIP3    H237368   1.094   0.392   3.449
12475TIP3   OH237369   7.078   0.505   2.215
12475TIP3    H137370   7.131   0.428   2.193
12475TIP3    H237371   6.992   0.470   2.237
12476TIP3   OH237372   7.808   3.781   1.407
12476TIP3    H137373   7.823   3.764   1.500
12476TIP3    H237374   7.755   3.708   1.377
12477TIP3   OH237375   4.368   3.995   4.611
12477TIP3    H137376   4.434   3.936   4.577
12477TIP3    H237377   4.405   4.030   4.692
12478TIP3   OH237378   4.275   0.526   1.934
12478TIP3    H137379   4.338   0.543   2.004
12478TIP3    H237380   4.288   0.599   1.872
12479TIP3   OH237381   1.774   4.900   0.438
12479TIP3    H137382   1.858   4.875   0.400
12479TIP3    H237383   1.709   4.879   0.370
12480TIP3   OH237384   4.866   5.027   0.764
12480TIP3    H137385   4.791   5.031   0.705
12480TIP3    H237386   4.938   5.066   0.714
12481TIP3   OH237387   3.255   5.997   2.143
12481TIP3    H137388   3.205   6.065   2.098
12481TIP3    H237389   3.253   5.922   2.082
12482TIP3   OH237390   4.524   6.222   5.843
12482TIP3    H137391   4.511   6.300   5.896
12482TIP3    H237392   4.494   6.150   5.898
12483TIP3   OH237393   2.080   1.855   3.015
12483TIP3    H137394   2.159   1.833   2.965
12483TIP3    H237395   2.112   1.896   3.095
12484TIP3   OH237396   5.792   6.892   4.089
12484TIP3    H137397   5.828   6.849   4.166
12484TIP3    H237398   5.816   6.835   4.016
12485TIP3   OH237399   3.489   1.770   4.992
12485TIP3    H137400   3.578   1.742   5.015
12485TIP3    H237401   3.449   1.692   4.952
12486TIP3   OH237402   1.123   1.557   1.809
12486TIP3    H137403   1.056   1.613   1.769
12486TIP3    H237404   1.075   1.478   1.836
12487TIP3   OH237405   1.240   4.282   2.055
12487TIP3    H137406   1.150   4.280   2.088
12487TIP3    H237407   1.268   4.372   2.068
12488TIP3   OH237408   4.259   7.425   1.890
12488TIP3    H137409   4.194   7.357   1.873
12488TIP3    H237410   4.222   7.503   1.847
12489TIP3   OH237411   4.217   4.144   5.368
12489TIP3    H137412   4.265   4.164   5.288
12489TIP3    H237413   4.277   4.089   5.418
12490TIP3   OH237414   6.351   1.262   0.932
12490TIP3    H137415   6.421   1.272   0.997
12490TIP3    H237416   6.274   1.302   0.972
12491TIP3   OH237417   7.100   0.459   2.662
12491TIP3    H137418   7.092   0.534   2.602
12491TIP3    H237419   7.182   0.476   2.710
12492TIP3   OH237420   7.962   5.476   1.344
12492TIP3    H137421   8.036   5.530   1.373
12492TIP3    H237422   7.953   5.409   1.411
12493TIP3   OH237423   2.640   7.743   0.946
12493TIP3    H137424   2.567   7.681   0.952
12493TIP3    H237425   2.620   7.811   1.010
12494TIP3   OH237426   3.995   3.444   1.018
12494TIP3    H137427   4.042   3.367   1.051
12494TIP3    H237428   3.996   3.506   1.092
12495TIP3   OH237429   3.667   1.656   3.973
12495TIP3    H137430   3.666   1.609   3.890
12495TIP3    H237431   3.754   1.695   3.977
12496TIP3   OH237432   3.001   2.567   3.107
12496TIP3    H137433   3.019   2.573   3.013
12496TIP3    H237434   2.945   2.489   3.116
12497TIP3   OH237435   7.183   7.621   4.676
12497TIP3    H137436   7.247   7.688   4.700
12497TIP3    H237437   7.183   7.560   4.749
12498TIP3   OH237438   6.581   7.346   5.939
12498TIP3    H137439   6.586   7.435   5.902
12498TIP3    H237440   6.638   7.349   6.016
12499TIP3   OH237441   3.458   4.877   4.649
12499TIP3    H137442   3.455   4.871   4.553
12499TIP3    H237443   3.394   4.813   4.679
12500TIP3   OH237444   4.751   6.197   5.679
12500TIP3    H137445   4.687   6.213   5.748
12500TIP3    H237446   4.701   6.198   5.598
12501TIP3   OH237447   7.583   5.911   2.758
12501TIP3    H137448   7.507   5.852   2.761
12501TIP3    H237449   7.658   5.853   2.744
12502TIP3   OH237450   5.218   5.716   4.112
12502TIP3    H137451   5.168   5.714   4.030
12502TIP3    H237452   5.281   5.786   4.100
12503TIP3   OH237453   4.021   4.290   0.911
12503TIP3    H137454   3.932   4.264   0.934
12503TIP3    H237455   4.076   4.222   0.949
12504TIP3   OH237456   4.882   4.535   4.643
12504TIP3    H137457   4.948   4.497   4.585
12504TIP3    H237458   4.807   4.551   4.586
12505TIP3   OH237459   4.296   0.018   1.365
12505TIP3    H137460   4.223  -0.029   1.325
12505TIP3    H237461   4.290   0.107   1.330
12506TIP3   OH237462   2.209   4.700   0.555
12506TIP3    H137463   2.246   4.785   0.531
12506TIP3    H237464   2.235   4.688   0.647
12507TIP3   OH237465   0.920   1.377   1.901
12507TIP3    H137466   0.834   1.405   1.869
12507TIP3    H237467   0.916   1.390   1.995
12508TIP3   OH237468   5.037   7.035   6.158
12508TIP3    H137469   4.990   6.972   6.213
12508TIP3    H237470   5.109   7.066   6.213
12509TIP3   OH237471   8.198   0.127   5.895
12509TIP3    H137472   8.194   0.130   5.991
12509TIP3    H237473   8.198   0.219   5.869
12510TIP3   OH237474   5.843   2.916   4.368
12510TIP3    H137475   5.915   2.853   4.361
12510TIP3    H237476   5.884   3.002   4.356
12511TIP3   OH237477   0.387   6.291   2.968
12511TIP3    H137478   0.380   6.270   3.061
12511TIP3    H237479   0.417   6.381   2.966
12512TIP3   OH237480   1.056   7.368   0.296
12512TIP3    H137481   1.039   7.277   0.271
12512TIP3    H237482   1.034   7.419   0.218
12513TIP3   OH237483   4.027   3.296   0.050
12513TIP3    H137484   3.987   3.244  -0.020
12513TIP3    H237485   3.994   3.385   0.034
12514TIP3   OH237486   3.449   4.443   5.562
12514TIP3    H137487   3.485   4.378   5.502
12514TIP3    H237488   3.425   4.392   5.640
12515TIP3   OH237489   2.204   0.858   0.521
12515TIP3    H137490   2.205   0.762   0.529
12515TIP3    H237491   2.122   0.885   0.562
12516TIP3   OH237492   5.799   0.296   2.388
12516TIP3    H137493   5.837   0.228   2.333
12516TIP3    H237494   5.749   0.350   2.327
12517TIP3   OH237495   0.964   4.412   2.390
12517TIP3    H137496   0.963   4.361   2.309
12517TIP3    H237497   0.899   4.480   2.376
12518TIP3   OH237498   4.043   5.065   5.158
12518TIP3    H137499   4.042   5.138   5.221
12518TIP3    H237500   3.964   5.015   5.180
12519TIP3   OH237501   5.486   0.399   5.419
12519TIP3    H137502   5.438   0.317   5.410
12519TIP3    H237503   5.579   0.374   5.413
12520TIP3   OH237504   7.088   3.716   3.202
12520TIP3    H137505   7.103   3.666   3.283
12520TIP3    H237506   6.997   3.744   3.209
12521TIP3   OH237507   3.684   6.357   2.631
12521TIP3    H137508   3.701   6.435   2.684
12521TIP3    H237509   3.763   6.303   2.642
12522TIP3   OH237510   3.368   2.841   3.083
12522TIP3    H137511   3.450   2.839   3.033
12522TIP3    H237512   3.372   2.923   3.133
12523TIP3   OH237513   0.289   7.207   1.919
12523TIP3    H137514   0.371   7.247   1.891
12523TIP3    H237515   0.221   7.258   1.876
12524TIP3   OH237516   3.096   6.250   5.329
12524TIP3    H137517   3.082   6.188   5.258
12524TIP3    H237518   3.153   6.204   5.391
12525TIP3   OH237519   4.594   5.761   4.924
12525TIP3    H137520   4.623   5.690   4.868
12525TIP3    H237521   4.672   5.817   4.932
12526TIP3   OH237522   7.990   3.036   6.330
12526TIP3    H137523   7.948   3.113   6.370
12526TIP3    H237524   8.082   3.042   6.358
12527TIP3   OH237525   5.582   5.241   4.112
12527TIP3    H137526   5.549   5.297   4.042
12527TIP3    H237527   5.537   5.158   4.100
12528TIP3   OH237528   6.632   0.774   1.726
12528TIP3    H137529   6.541   0.744   1.724
12528TIP3    H237530   6.654   0.792   1.635
12529TIP3   OH237531   1.297   4.364   1.455
12529TIP3    H137532   1.306   4.363   1.551
12529TIP3    H237533   1.379   4.326   1.424
12530TIP3   OH237534   0.143   4.505   0.839
12530TIP3    H137535   0.205   4.511   0.912
12530TIP3    H237536   0.115   4.413   0.840
12531TIP3   OH237537   3.987   6.474   1.646
12531TIP3    H137538   3.974   6.556   1.694
12531TIP3    H237539   4.039   6.419   1.705
12532TIP3   OH237540   6.509   4.772   5.019
12532TIP3    H137541   6.521   4.680   4.995
12532TIP3    H237542   6.414   4.786   5.015
12533TIP3   OH237543   4.112   3.253   1.860
12533TIP3    H137544   4.161   3.333   1.843
12533TIP3    H237545   4.111   3.207   1.776
12534TIP3   OH237546   8.283   4.266   0.907
12534TIP3    H137547   8.256   4.245   0.817
12534TIP3    H237548   8.216   4.327   0.938
12535TIP3   OH237549   8.221   5.773   2.570
12535TIP3    H137550   8.146   5.789   2.514
12535TIP3    H237551   8.280   5.718   2.518
12536TIP3   OH237552   2.844   7.591   2.701
12536TIP3    H137553   2.934   7.581   2.732
12536TIP3    H237554   2.798   7.515   2.736
12537TIP3   OH237555   2.863   4.358   0.520
12537TIP3    H137556   2.815   4.306   0.585
12537TIP3    H237557   2.806   4.359   0.443
12538TIP3   OH237558   1.940   3.975   2.611
12538TIP3    H137559   1.926   3.954   2.519
12538TIP3    H237560   1.981   4.062   2.610
12539TIP3   OH237561   1.338   2.253   4.191
12539TIP3    H137562   1.371   2.204   4.266
12539TIP3    H237563   1.270   2.310   4.228
12540TIP3   OH237564   3.177   4.563   5.192
12540TIP3    H137565   3.219   4.479   5.173
12540TIP3    H237566   3.087   4.540   5.215
12541TIP3   OH237567   7.309   2.562   1.789
12541TIP3    H137568   7.267   2.648   1.799
12541TIP3    H237569   7.280   2.532   1.703
12542TIP3   OH237570   6.704   6.807   6.722
12542TIP3    H137571   6.751   6.743   6.669
12542TIP3    H237572   6.742   6.891   6.698
12543TIP3   OH237573   0.998   3.793   5.323
12543TIP3    H137574   1.070   3.805   5.260
12543TIP3    H237575   1.037   3.813   5.408
12544TIP3   OH237576   0.759   6.005   1.332
12544TIP3    H137577   0.841   6.056   1.337
12544TIP3    H237578   0.698   6.064   1.287
12545TIP3   OH237579   2.428   2.967   6.010
12545TIP3    H137580   2.460   2.878   6.020
12545TIP3    H237581   2.379   2.966   5.929
12546TIP3   OH237582   5.500   1.070   5.686
12546TIP3    H137583   5.446   1.132   5.735
12546TIP3    H237584   5.566   1.124   5.644
12547TIP3   OH237585   7.462   1.032   0.071
12547TIP3    H137586   7.412   0.963   0.028
12547TIP3    H237587   7.518   1.067   0.002
12548TIP3   OH237588   4.022   0.932   3.685
12548TIP3    H137589   4.073   1.008   3.714
12548TIP3    H237590   4.051   0.861   3.741
12549TIP3   OH237591   2.199   2.148   6.188
12549TIP3    H137592   2.288   2.181   6.202
12549TIP3    H237593   2.142   2.211   6.233
12550TIP3   OH237594   3.866   6.443   0.179
12550TIP3    H137595   3.890   6.438   0.087
12550TIP3    H237596   3.939   6.403   0.225
12551TIP3   OH237597   7.645   6.703   5.944
12551TIP3    H137598   7.726   6.753   5.946
12551TIP3    H237599   7.659   6.632   6.006
12552TIP3   OH237600   5.055   5.290   4.856
12552TIP3    H137601   5.117   5.353   4.895
12552TIP3    H237602   5.031   5.232   4.929
12553TIP3   OH237603   2.486   2.262   6.516
12553TIP3    H137604   2.526   2.344   6.487
12553TIP3    H237605   2.517   2.196   6.453
12554TIP3   OH237606   2.001   5.310   3.586
12554TIP3    H137607   2.035   5.345   3.668
12554TIP3    H237608   2.050   5.356   3.518
12555TIP3   OH237609   4.588   0.480   6.370
12555TIP3    H137610   4.669   0.430   6.378
12555TIP3    H237611   4.566   0.504   6.460
12556TIP3   OH237612   5.079   2.039   0.316
12556TIP3    H137613   5.077   1.949   0.282
12556TIP3    H237614   5.048   2.093   0.244
12557TIP3   OH237615   6.726   5.920   1.445
12557TIP3    H137616   6.681   5.975   1.508
12557TIP3    H237617   6.664   5.850   1.425
12558TIP3   OH237618   1.655   2.138   4.435
12558TIP3    H137619   1.657   2.043   4.452
12558TIP3    H237620   1.625   2.177   4.517
12559TIP3   OH237621   6.404   3.870   5.229
12559TIP3    H137622   6.322   3.823   5.243
12559TIP3    H237623   6.444   3.875   5.316
12560TIP3   OH237624   3.493   4.997   1.349
12560TIP3    H137625   3.449   5.064   1.402
12560TIP3    H237626   3.552   4.953   1.410
12561TIP3   OH237627   0.693   5.291   2.188
12561TIP3    H137628   0.694   5.220   2.123
12561TIP3    H237629   0.784   5.319   2.194
12562TIP3   OH237630   2.018   1.240   5.703
12562TIP3    H137631   2.005   1.227   5.610
12562TIP3    H237632   1.982   1.161   5.744
12563TIP3   OH237633   3.178   1.571   3.704
12563TIP3    H137634   3.171   1.521   3.786
12563TIP3    H237635   3.109   1.637   3.711
12564TIP3   OH237636   1.544   3.630   0.507
12564TIP3    H137637   1.603   3.617   0.581
12564TIP3    H237638   1.488   3.703   0.534
12565TIP3   OH237639   1.094   1.699   1.357
12565TIP3    H137640   1.163   1.696   1.423
12565TIP3    H237641   1.013   1.682   1.407
12566TIP3   OH237642   0.188   3.374   2.974
12566TIP3    H137643   0.181   3.283   3.003
12566TIP3    H237644   0.117   3.419   3.019
12567TIP3   OH237645   0.198   4.564   4.245
12567TIP3    H137646   0.107   4.535   4.244
12567TIP3    H237647   0.195   4.657   4.222
12568TIP3   OH237648   4.620   3.816   0.765
12568TIP3    H137649   4.589   3.775   0.684
12568TIP3    H237650   4.651   3.743   0.819
12569TIP3   OH237651   2.472   3.211   5.031
12569TIP3    H137652   2.380   3.215   5.054
12569TIP3    H237653   2.502   3.127   5.066
12570TIP3   OH237654   4.181   7.700   2.190
12570TIP3    H137655   4.258   7.689   2.134
12570TIP3    H237656   4.116   7.742   2.134
12571TIP3   OH237657   5.109   6.530   4.694
12571TIP3    H137658   5.028   6.576   4.715
12571TIP3    H237659   5.092   6.439   4.716
12572TIP3   OH237660   1.183   1.530   4.698
12572TIP3    H137661   1.259   1.582   4.672
12572TIP3    H237662   1.154   1.570   4.780
12573TIP3   OH237663   2.656   1.203   2.948
12573TIP3    H137664   2.564   1.227   2.942
12573TIP3    H237665   2.657   1.122   2.998
12574TIP3   OH237666   6.429   2.527   5.226
12574TIP3    H137667   6.369   2.602   5.231
12574TIP3    H237668   6.422   2.486   5.312
12575TIP3   OH237669   2.110   7.262   0.842
12575TIP3    H137670   2.151   7.199   0.782
12575TIP3    H237671   2.016   7.251   0.828
12576TIP3   OH237672   5.226   4.312   1.120
12576TIP3    H137673   5.193   4.222   1.130
12576TIP3    H237674   5.277   4.309   1.039
12577TIP3   OH237675   2.628   6.692   2.236
12577TIP3    H137676   2.670   6.643   2.166
12577TIP3    H237677   2.699   6.707   2.300
12578TIP3   OH237678   4.646   4.408   3.680
12578TIP3    H137679   4.591   4.361   3.616
12578TIP3    H237680   4.584   4.446   3.741
12579TIP3   OH237681   6.961   5.172   3.173
12579TIP3    H137682   7.024   5.243   3.184
12579TIP3    H237683   6.955   5.132   3.260
12580TIP3   OH237684   7.199   6.259   1.859
12580TIP3    H137685   7.124   6.234   1.913
12580TIP3    H237686   7.197   6.355   1.858
12581TIP3   OH237687   3.930   2.065   0.305
12581TIP3    H137688   3.852   2.108   0.338
12581TIP3    H237689   3.999   2.131   0.311
12582TIP3   OH237690   1.740   7.360   6.338
12582TIP3    H137691   1.700   7.437   6.379
12582TIP3    H237692   1.834   7.371   6.352
12583TIP3   OH237693   2.271   2.991   2.291
12583TIP3    H137694   2.308   3.004   2.379
12583TIP3    H237695   2.346   2.967   2.237
12584TIP3   OH237696   3.304   0.379   1.956
12584TIP3    H137697   3.287   0.473   1.970
12584TIP3    H237698   3.221   0.337   1.977
12585TIP3   OH237699   7.519   5.710   0.649
12585TIP3    H137700   7.497   5.769   0.721
12585TIP3    H237701   7.445   5.716   0.589
12586TIP3   OH237702   6.580   1.473   3.547
12586TIP3    H137703   6.560   1.500   3.458
12586TIP3    H237704   6.517   1.403   3.566
12587TIP3   OH237705   1.322   4.615   4.301
12587TIP3    H137706   1.293   4.525   4.289
12587TIP3    H237707   1.242   4.667   4.297
12588TIP3   OH237708   7.619   0.699   3.750
12588TIP3    H137709   7.595   0.635   3.816
12588TIP3    H237710   7.544   0.702   3.690
12589TIP3   OH237711   8.266   4.333   4.165
12589TIP3    H137712   8.202   4.279   4.212
12589TIP3    H237713   8.250   4.422   4.195
12590TIP3   OH237714   0.321   2.312   5.206
12590TIP3    H137715   0.312   2.263   5.288
12590TIP3    H237716   0.325   2.244   5.138
12591TIP3   OH237717   0.361   2.825   1.370
12591TIP3    H137718   0.389   2.843   1.280
12591TIP3    H237719   0.364   2.730   1.377
12592TIP3   OH237720   6.408   2.672   4.039
12592TIP3    H137721   6.343   2.651   4.106
12592TIP3    H237722   6.463   2.739   4.080
12593TIP3   OH237723   6.841   6.498   5.212
12593TIP3    H137724   6.898   6.421   5.215
12593TIP3    H237725   6.757   6.465   5.180
12594TIP3   OH237726   0.999   5.432   5.158
12594TIP3    H137727   0.926   5.485   5.127
12594TIP3    H237728   1.076   5.471   5.117
12595TIP3   OH237729   2.637   3.003   0.533
12595TIP3    H137730   2.689   2.924   0.526
12595TIP3    H237731   2.667   3.058   0.461
12596TIP3   OH237732   0.920   2.346   3.103
12596TIP3    H137733   0.988   2.285   3.076
12596TIP3    H237734   0.837   2.301   3.085
12597TIP3   OH237735   6.814   6.306   6.555
12597TIP3    H137736   6.846   6.289   6.644
12597TIP3    H237737   6.871   6.253   6.499
12598TIP3   OH237738   4.529   7.412   6.313
12598TIP3    H137739   4.561   7.475   6.378
12598TIP3    H237740   4.434   7.418   6.320
12599TIP3   OH237741   7.051   6.423   4.643
12599TIP3    H137742   6.987   6.488   4.615
12599TIP3    H237743   7.133   6.472   4.652
12600TIP3   OH237744   5.626   3.384   1.562
12600TIP3    H137745   5.635   3.333   1.481
12600TIP3    H237746   5.568   3.456   1.538
12601TIP3   OH237747   3.036   2.361   4.396
12601TIP3    H137748   3.088   2.437   4.370
12601TIP3    H237749   3.029   2.367   4.491
12602TIP3   OH237750   1.742   3.352   1.463
12602TIP3    H137751   1.692   3.429   1.436
12602TIP3    H237752   1.796   3.332   1.386
12603TIP3   OH237753   3.181   1.737   3.343
12603TIP3    H137754   3.250   1.765   3.404
12603TIP3    H237755   3.228   1.712   3.263
12604TIP3   OH237756   8.054   3.575   1.491
12604TIP3    H137757   8.137   3.531   1.471
12604TIP3    H237758   7.987   3.523   1.447
12605TIP3   OH237759   3.779   5.179   4.487
12605TIP3    H137760   3.793   5.126   4.565
12605TIP3    H237761   3.698   5.227   4.504
12606TIP3   OH237762   5.103   2.925   4.250
12606TIP3    H137763   5.135   2.912   4.339
12606TIP3    H237764   5.169   2.884   4.194
12607TIP3   OH237765   0.816   4.741   6.635
12607TIP3    H137766   0.833   4.673   6.570
12607TIP3    H237767   0.805   4.821   6.584
12608TIP3   OH237768   1.528   7.305   2.097
12608TIP3    H137769   1.448   7.328   2.144
12608TIP3    H237770   1.508   7.326   2.005
12609TIP3   OH237771   4.238   1.063   3.451
12609TIP3    H137772   4.165   1.119   3.425
12609TIP3    H237773   4.304   1.124   3.484
12610TIP3   OH237774   6.199   6.525   5.855
12610TIP3    H137775   6.285   6.558   5.828
12610TIP3    H237776   6.209   6.506   5.948
12611TIP3   OH237777   7.313   0.880   5.395
12611TIP3    H137778   7.278   0.953   5.446
12611TIP3    H237779   7.260   0.880   5.315
12612TIP3   OH237780   6.651   0.721   0.978
12612TIP3    H137781   6.635   0.798   1.033
12612TIP3    H237782   6.703   0.663   1.033
12613TIP3   OH237783   4.927   7.125   3.038
12613TIP3    H137784   4.849   7.168   3.001
12613TIP3    H237785   4.990   7.126   2.966
12614TIP3   OH237786   0.045   6.826   0.483
12614TIP3    H137787   0.019   6.846   0.393
12614TIP3    H237788  -0.037   6.816   0.531
12615TIP3   OH237789   0.047   2.300   0.554
12615TIP3    H137790   0.119   2.276   0.613
12615TIP3    H237791   0.085   2.367   0.497
12616TIP3   OH237792   6.855   5.959   0.718
12616TIP3    H137793   6.871   5.880   0.770
12616TIP3    H237794   6.777   5.998   0.758
12617TIP3   OH237795   1.217   3.463   2.129
12617TIP3    H137796   1.216   3.544   2.077
12617TIP3    H237797   1.309   3.439   2.133
12618TIP3   OH237798   3.727   3.498   5.524
12618TIP3    H137799   3.743   3.544   5.606
12618TIP3    H237800   3.770   3.553   5.458
12619TIP3   OH237801   5.999   7.578   4.822
12619TIP3    H137802   5.926   7.524   4.792
12619TIP3    H237803   5.960   7.639   4.885
12620TIP3   OH237804   3.881   5.128   0.328
12620TIP3    H137805   3.924   5.212   0.338
12620TIP3    H237806   3.825   5.139   0.251
12621TIP3   OH237807   3.589   0.784   0.326
12621TIP3    H137808   3.631   0.842   0.262
12621TIP3    H237809   3.658   0.767   0.391
12622TIP3   OH237810   3.375   4.614   2.101
12622TIP3    H137811   3.442   4.681   2.113
12622TIP3    H237812   3.424   4.537   2.071
12623TIP3   OH237813   4.148   7.158   5.633
12623TIP3    H137814   4.117   7.069   5.653
12623TIP3    H237815   4.126   7.171   5.541
12624TIP3   OH237816   7.576   4.137   5.541
12624TIP3    H137817   7.500   4.178   5.500
12624TIP3    H237818   7.554   4.134   5.634
12625TIP3   OH237819   3.053   4.282   5.835
12625TIP3    H137820   2.958   4.279   5.842
12625TIP3    H237821   3.072   4.266   5.743
12626TIP3   OH237822   5.307   6.300   5.454
12626TIP3    H137823   5.376   6.321   5.517
12626TIP3    H237824   5.353   6.286   5.371
12627TIP3   OH237825   6.573   4.792   2.313
12627TIP3    H137826   6.493   4.810   2.361
12627TIP3    H237827   6.620   4.729   2.367
12628TIP3   OH237828   0.717   6.592   4.269
12628TIP3    H137829   0.790   6.620   4.214
12628TIP3    H237830   0.758   6.538   4.337
12629TIP3   OH237831   5.584   6.245   5.003
12629TIP3    H137832   5.607   6.195   4.924
12629TIP3    H237833   5.668   6.276   5.037
12630TIP3   OH237834   7.935   2.723   6.626
12630TIP3    H137835   7.871   2.778   6.580
12630TIP3    H237836   8.005   2.783   6.651
12631TIP3   OH237837   0.785   3.728   2.953
12631TIP3    H137838   0.748   3.670   3.019
12631TIP3    H237839   0.735   3.708   2.873
12632TIP3   OH237840   2.334   5.866   4.385
12632TIP3    H137841   2.286   5.949   4.378
12632TIP3    H237842   2.420   5.885   4.347
12633TIP3   OH237843   0.177   3.685   6.432
12633TIP3    H137844   0.180   3.614   6.496
12633TIP3    H237845   0.181   3.765   6.485
12634TIP3   OH237846   4.744   3.222   0.524
12634TIP3    H137847   4.823   3.184   0.486
12634TIP3    H237848   4.701   3.149   0.568
12635TIP3   OH237849   1.423   7.430   1.524
12635TIP3    H137850   1.498   7.422   1.466
12635TIP3    H237851   1.351   7.457   1.467
12636TIP3   OH237852   5.185   3.196   4.271
12636TIP3    H137853   5.132   3.127   4.311
12636TIP3    H237854   5.265   3.199   4.324
12637TIP3   OH237855   2.789   3.260   6.235
12637TIP3    H137856   2.873   3.274   6.278
12637TIP3    H237857   2.790   3.320   6.160
12638TIP3   OH237858   4.954   7.580   2.136
12638TIP3    H137859   4.905   7.525   2.074
12638TIP3    H237860   5.006   7.518   2.187
12639TIP3   OH237861   0.602   7.371   2.172
12639TIP3    H137862   0.638   7.401   2.255
12639TIP3    H237863   0.568   7.283   2.191
12640TIP3   OH237864   5.870   3.133   3.254
12640TIP3    H137865   5.823   3.104   3.176
12640TIP3    H237866   5.805   3.179   3.307
12641TIP3   OH237867   0.330   3.482   5.822
12641TIP3    H137868   0.354   3.471   5.730
12641TIP3    H237869   0.338   3.576   5.838
12642TIP3   OH237870   1.066   7.453   0.559
12642TIP3    H137871   1.058   7.376   0.615
12642TIP3    H237872   1.094   7.419   0.474
12643TIP3   OH237873   0.934   7.212   6.686
12643TIP3    H137874   0.891   7.138   6.643
12643TIP3    H237875   0.948   7.183   6.776
12644TIP3   OH237876  -0.012   1.340   0.844
12644TIP3    H137877   0.066   1.393   0.856
12644TIP3    H237878   0.014   1.272   0.782
12645TIP3   OH237879   7.865   1.028   2.638
12645TIP3    H137880   7.882   1.115   2.674
12645TIP3    H237881   7.825   1.045   2.553
12646TIP3   OH237882   7.454   2.358   0.516
12646TIP3    H137883   7.541   2.321   0.532
12646TIP3    H237884   7.464   2.410   0.437
12647TIP3   OH237885   7.959   1.202   0.736
12647TIP3    H137886   8.047   1.177   0.766
12647TIP3    H237887   7.958   1.182   0.643
12648TIP3   OH237888   3.175   5.143   1.986
12648TIP3    H137889   3.198   5.050   1.983
12648TIP3    H237890   3.216   5.175   2.066
12649TIP3   OH237891   7.303   2.199   1.412
12649TIP3    H137892   7.374   2.263   1.401
12649TIP3    H237893   7.232   2.232   1.356
12650TIP3   OH237894   6.579   0.683   3.729
12650TIP3    H137895   6.575   0.749   3.799
12650TIP3    H237896   6.672   0.660   3.724
12651TIP3   OH237897   1.741   2.888   3.439
12651TIP3    H137898   1.684   2.857   3.367
12651TIP3    H237899   1.817   2.925   3.395
12652TIP3   OH237900   1.063   2.030   0.531
12652TIP3    H137901   1.109   2.034   0.447
12652TIP3    H237902   1.080   2.116   0.571
12653TIP3   OH237903   0.484   6.748   5.789
12653TIP3    H137904   0.442   6.814   5.734
12653TIP3    H237905   0.411   6.700   5.827
12654TIP3   OH237906   3.916   6.984   0.070
12654TIP3    H137907   3.953   6.896   0.070
12654TIP3    H237908   3.848   6.981   0.137
12655TIP3   OH237909   1.855   1.409   0.176
12655TIP3    H137910   1.820   1.347   0.112
12655TIP3    H237911   1.791   1.407   0.248
12656TIP3   OH237912   1.855   6.688   4.735
12656TIP3    H137913   1.792   6.616   4.746
12656TIP3    H237914   1.892   6.700   4.822
12657TIP3   OH237915   5.401   7.378   0.822
12657TIP3    H137916   5.414   7.344   0.910
12657TIP3    H237917   5.308   7.401   0.819
12658TIP3   OH237918   3.100   5.081   0.716
12658TIP3    H137919   3.048   5.007   0.748
12658TIP3    H237920   3.116   5.061   0.624
12659TIP3   OH237921   2.812   0.325   1.310
12659TIP3    H137922   2.883   0.360   1.257
12659TIP3    H237923   2.733   0.366   1.273
12660TIP3   OH237924   5.722   1.354   0.181
12660TIP3    H137925   5.727   1.343   0.275
12660TIP3    H237926   5.809   1.386   0.156
12661TIP3   OH237927   7.707   5.499   1.961
12661TIP3    H137928   7.635   5.536   1.909
12661TIP3    H237929   7.775   5.479   1.897
12662TIP3   OH237930   4.939   1.679   6.474
12662TIP3    H137931   5.024   1.646   6.445
12662TIP3    H237932   4.936   1.658   6.568
12663TIP3   OH237933   0.120   1.617   2.925
12663TIP3    H137934   0.107   1.589   3.016
12663TIP3    H237935   0.215   1.629   2.917
12664TIP3   OH237936   0.455   2.926   3.803
12664TIP3    H137937   0.418   2.847   3.842
12664TIP3    H237938   0.447   2.992   3.872
12665TIP3   OH237939   3.665   0.711   4.537
12665TIP3    H137940   3.717   0.652   4.592
12665TIP3    H237941   3.574   0.697   4.566
12666TIP3   OH237942   7.236   2.564   1.313
12666TIP3    H137943   7.237   2.469   1.304
12666TIP3    H237944   7.193   2.579   1.398
12667TIP3   OH237945   1.536   5.777   3.646
12667TIP3    H137946   1.611   5.716   3.647
12667TIP3    H237947   1.573   5.860   3.675
12668TIP3   OH237948   3.805   7.411   6.276
12668TIP3    H137949   3.767   7.475   6.337
12668TIP3    H237950   3.896   7.439   6.265
12669TIP3   OH237951   6.109   0.238   4.947
12669TIP3    H137952   6.033   0.179   4.946
12669TIP3    H237953   6.166   0.205   4.878
12670TIP3   OH237954   5.574   6.688   4.532
12670TIP3    H137955   5.634   6.751   4.491
12670TIP3    H237956   5.533   6.738   4.603
12671TIP3   OH237957   0.110   2.948   2.338
12671TIP3    H137958   0.067   3.026   2.372
12671TIP3    H237959   0.066   2.931   2.254
12672TIP3   OH237960   4.406   7.722   6.720
12672TIP3    H137961   4.372   7.797   6.670
12672TIP3    H237962   4.368   7.733   6.807
12673TIP3   OH237963   6.962   6.265   2.008
12673TIP3    H137964   7.002   6.258   2.095
12673TIP3    H237965   6.879   6.218   2.016
12674TIP3   OH237966   5.851   6.478   1.693
12674TIP3    H137967   5.911   6.406   1.675
12674TIP3    H237968   5.893   6.555   1.656
12675TIP3   OH237969   4.989   2.462   1.220
12675TIP3    H137970   5.066   2.500   1.178
12675TIP3    H237971   5.012   2.369   1.233
12676TIP3   OH237972   2.621   1.817   6.008
12676TIP3    H137973   2.585   1.906   6.006
12676TIP3    H237974   2.556   1.764   5.963
12677TIP3   OH237975   1.663   5.768   4.010
12677TIP3    H137976   1.649   5.820   3.930
12677TIP3    H237977   1.735   5.813   4.054
12678TIP3   OH237978   2.171   7.273   4.333
12678TIP3    H137979   2.162   7.294   4.240
12678TIP3    H237980   2.228   7.195   4.335
12679TIP3   OH237981   0.114   3.106   0.972
12679TIP3    H137982   0.064   3.043   0.920
12679TIP3    H237983   0.203   3.101   0.937
12680TIP3   OH237984   0.909   6.245   0.911
12680TIP3    H137985   0.965   6.288   0.975
12680TIP3    H237986   0.915   6.152   0.933
12681TIP3   OH237987   1.107   3.622   3.524
12681TIP3    H137988   1.094   3.536   3.484
12681TIP3    H237989   1.022   3.666   3.514
12682TIP3   OH237990   7.529   5.862   6.750
12682TIP3    H137991   7.501   5.952   6.766
12682TIP3    H237992   7.456   5.822   6.703
12683TIP3   OH237993   2.860   5.482   2.020
12683TIP3    H137994   2.766   5.494   2.038
12683TIP3    H237995   2.902   5.488   2.106
12684TIP3   OH237996   2.380   4.118   2.362
12684TIP3    H137997   2.439   4.109   2.437
12684TIP3    H237998   2.388   4.035   2.315
12685TIP3   OH237999   5.358   7.795   4.799
12685TIP3    H138000   5.359   7.727   4.866
12685TIP3    H238001   5.266   7.822   4.794
12686TIP3   OH238002   2.279   2.684   5.666
12686TIP3    H138003   2.203   2.633   5.693
12686TIP3    H238004   2.267   2.699   5.573
12687TIP3   OH238005   3.607   0.865   6.442
12687TIP3    H138006   3.534   0.804   6.449
12687TIP3    H238007   3.571   0.940   6.394
12688TIP3   OH238008   6.481   3.273   3.058
12688TIP3    H138009   6.436   3.212   3.117
12688TIP3    H238010   6.412   3.333   3.029
12689TIP3   OH238011   3.959   0.250   3.943
12689TIP3    H138012   3.951   0.231   3.850
12689TIP3    H238013   3.989   0.167   3.982
12690TIP3   OH238014   2.629   0.173   6.023
12690TIP3    H138015   2.639   0.213   6.109
12690TIP3    H238016   2.567   0.101   6.036
12691TIP3   OH238017   2.912   6.100   1.640
12691TIP3    H138018   2.843   6.121   1.704
12691TIP3    H238019   2.907   6.005   1.630
12692TIP3   OH238020   6.377   3.408   3.808
12692TIP3    H138021   6.351   3.474   3.744
12692TIP3    H238022   6.458   3.440   3.846
12693TIP3   OH238023   7.603   4.072   3.946
12693TIP3    H138024   7.682   4.126   3.939
12693TIP3    H238025   7.632   3.983   3.926
12694TIP3   OH238026   3.150   2.252   0.955
12694TIP3    H138027   3.239   2.287   0.963
12694TIP3    H238028   3.144   2.187   1.024
12695TIP3   OH238029   5.026   3.363   4.670
12695TIP3    H138030   5.017   3.448   4.714
12695TIP3    H238031   5.107   3.370   4.620
12696TIP3   OH238032   3.798   3.283   1.797
12696TIP3    H138033   3.805   3.216   1.864
12696TIP3    H238034   3.720   3.260   1.747
12697TIP3   OH238035   6.967   1.602   5.715
12697TIP3    H138036   6.879   1.635   5.693
12697TIP3    H238037   6.994   1.654   5.791
12698TIP3   OH238038   2.753   2.077   6.708
12698TIP3    H138039   2.667   2.105   6.740
12698TIP3    H238040   2.784   2.014   6.774
12699TIP3   OH238041   0.711   2.183   3.052
12699TIP3    H138042   0.757   2.178   2.968
12699TIP3    H238043   0.620   2.165   3.030
12700TIP3   OH238044   7.531   3.684   2.104
12700TIP3    H138045   7.492   3.644   2.026
12700TIP3    H238046   7.460   3.737   2.142
12701TIP3   OH238047   8.278   6.388   3.195
12701TIP3    H138048   8.364   6.420   3.220
12701TIP3    H238049   8.219   6.424   3.261
12702TIP3   OH238050   2.971   7.562   4.291
12702TIP3    H138051   3.066   7.557   4.301
12702TIP3    H238052   2.949   7.649   4.323
12703TIP3   OH238053   2.061   5.371   6.377
12703TIP3    H138054   2.110   5.329   6.448
12703TIP3    H238055   2.032   5.455   6.415
12704TIP3   OH238056   5.840   0.561   3.179
12704TIP3    H138057   5.783   0.575   3.103
12704TIP3    H238058   5.867   0.648   3.206
12705TIP3   OH238059   0.651   1.915   2.880
12705TIP3    H138060   0.726   1.961   2.842
12705TIP3    H238061   0.660   1.825   2.850
12706TIP3   OH238062   7.142   0.963   0.428
12706TIP3    H138063   7.100   1.044   0.458
12706TIP3    H238064   7.087   0.894   0.463
12707TIP3   OH238065   5.981   0.664   3.803
12707TIP3    H138066   5.920   0.600   3.840
12707TIP3    H238067   6.035   0.692   3.876
12708TIP3   OH238068   0.328   6.255   0.294
12708TIP3    H138069   0.238   6.225   0.281
12708TIP3    H238070   0.326   6.346   0.266
12709TIP3   OH238071   2.065   6.675   4.583
12709TIP3    H138072   1.985   6.699   4.630
12709TIP3    H238073   2.124   6.749   4.595
12710TIP3   OH238074   4.057   5.463   2.184
12710TIP3    H138075   4.113   5.405   2.236
12710TIP3    H238076   4.026   5.408   2.112
12711TIP3   OH238077   3.365   6.656   4.585
12711TIP3    H138078   3.395   6.610   4.506
12711TIP3    H238079   3.442   6.706   4.614
12712TIP3   OH238080   0.256   1.072   3.734
12712TIP3    H138081   0.273   1.036   3.647
12712TIP3    H238082   0.325   1.035   3.789
12713TIP3   OH238083   5.634   1.559   6.394
12713TIP3    H138084   5.677   1.497   6.335
12713TIP3    H238085   5.663   1.645   6.363
12714TIP3   OH238086   0.610   2.404   1.362
12714TIP3    H138087   0.675   2.459   1.404
12714TIP3    H238088   0.616   2.320   1.407
12715TIP3   OH238089   5.714   2.658   0.826
12715TIP3    H138090   5.652   2.720   0.865
12715TIP3    H238091   5.660   2.600   0.772
12716TIP3   OH238092   2.332   2.459   1.343
12716TIP3    H138093   2.374   2.428   1.263
12716TIP3    H238094   2.288   2.540   1.318
12717TIP3   OH238095   6.053   2.950   5.764
12717TIP3    H138096   6.030   2.886   5.697
12717TIP3    H238097   6.146   2.964   5.752
12718TIP3   OH238098   4.713   3.512   3.237
12718TIP3    H138099   4.765   3.435   3.214
12718TIP3    H238100   4.629   3.475   3.267
12719TIP3   OH238101   0.857   5.707   2.227
12719TIP3    H138102   0.890   5.641   2.165
12719TIP3    H238103   0.774   5.671   2.258
12720TIP3   OH238104   1.803   2.365   1.325
12720TIP3    H138105   1.844   2.449   1.304
12720TIP3    H238106   1.867   2.299   1.298
12721TIP3   OH238107   4.325   5.577   3.100
12721TIP3    H138108   4.253   5.520   3.072
12721TIP3    H238109   4.352   5.542   3.185
12722TIP3   OH238110   2.276   7.092   2.662
12722TIP3    H138111   2.250   7.183   2.679
12722TIP3    H238112   2.316   7.096   2.575
12723TIP3   OH238113   7.620   0.164   0.819
12723TIP3    H138114   7.603   0.192   0.730
12723TIP3    H238115   7.566   0.085   0.831
12724TIP3   OH238116   0.490   2.860   1.083
12724TIP3    H138117   0.532   2.781   1.116
12724TIP3    H238118   0.460   2.836   0.995
12725TIP3   OH238119   2.317   3.007   4.573
12725TIP3    H138120   2.294   3.082   4.628
12725TIP3    H238121   2.356   2.944   4.634
12726TIP3   OH238122   1.601   2.343   0.248
12726TIP3    H138123   1.679   2.399   0.247
12726TIP3    H238124   1.537   2.392   0.195
12727TIP3   OH238125   1.460   3.919   3.392
12727TIP3    H138126   1.404   3.854   3.433
12727TIP3    H238127   1.507   3.871   3.324
12728TIP3   OH238128   1.699   3.793   0.959
12728TIP3    H138129   1.734   3.764   1.043
12728TIP3    H238130   1.692   3.888   0.967
12729TIP3   OH238131   1.336   3.767   3.574
12729TIP3    H138132   1.253   3.719   3.584
12729TIP3    H238133   1.394   3.729   3.640
12730TIP3   OH238134   6.461   4.278   4.179
12730TIP3    H138135   6.528   4.328   4.135
12730TIP3    H238136   6.507   4.204   4.219
12731TIP3   OH238137   7.340   7.598   6.622
12731TIP3    H138138   7.333   7.679   6.572
12731TIP3    H238139   7.260   7.550   6.602
12732TIP3   OH238140   2.232   6.046   0.366
12732TIP3    H138141   2.184   6.030   0.285
12732TIP3    H238142   2.164   6.057   0.432
12733TIP3   OH238143   5.129   0.738   4.431
12733TIP3    H138144   5.063   0.706   4.370
12733TIP3    H238145   5.108   0.830   4.444
12734TIP3   OH238146   4.590   1.172   0.151
12734TIP3    H138147   4.677   1.138   0.172
12734TIP3    H238148   4.606   1.245   0.092
12735TIP3   OH238149   4.583   7.521   0.677
12735TIP3    H138150   4.567   7.552   0.766
12735TIP3    H238151   4.615   7.432   0.689
12736TIP3   OH238152   5.913   0.250   5.863
12736TIP3    H138153   5.973   0.194   5.912
12736TIP3    H238154   5.826   0.225   5.896
12737TIP3   OH238155   7.289   1.221   6.343
12737TIP3    H138156   7.314   1.152   6.282
12737TIP3    H238157   7.246   1.175   6.415
12738TIP3   OH238158   6.326   7.018   6.042
12738TIP3    H138159   6.275   6.950   5.997
12738TIP3    H238160   6.382   6.970   6.103
12739TIP3   OH238161   6.115   3.047   6.251
12739TIP3    H138162   6.072   2.988   6.189
12739TIP3    H238163   6.171   2.990   6.304
12740TIP3   OH238164   1.655   1.610   6.435
12740TIP3    H138165   1.634   1.523   6.401
12740TIP3    H238166   1.602   1.618   6.514
12741TIP3   OH238167   1.467   1.107   0.195
12741TIP3    H138168   1.439   1.016   0.188
12741TIP3    H238169   1.508   1.113   0.281
12742TIP3   OH238170   6.111   4.148   2.631
12742TIP3    H138171   6.087   4.174   2.542
12742TIP3    H238172   6.201   4.116   2.623
12743TIP3   OH238173   0.252   0.252   1.515
12743TIP3    H138174   0.177   0.305   1.542
12743TIP3    H238175   0.273   0.199   1.592
12744TIP3   OH238176   0.615   1.738   4.826
12744TIP3    H138177   0.645   1.768   4.911
12744TIP3    H238178   0.612   1.817   4.772
12745TIP3   OH238179   0.813   1.785   5.502
12745TIP3    H138180   0.766   1.715   5.458
12745TIP3    H238181   0.759   1.807   5.578
12746TIP3   OH238182   0.149   2.242   6.644
12746TIP3    H138183   0.137   2.215   6.735
12746TIP3    H238184   0.133   2.163   6.594
12747TIP3   OH238185   3.551   4.717   2.459
12747TIP3    H138186   3.508   4.639   2.495
12747TIP3    H238187   3.627   4.682   2.412
12748TIP3   OH238188   2.569   2.013   0.391
12748TIP3    H138189   2.585   2.049   0.479
12748TIP3    H238190   2.635   2.056   0.336
12749TIP3   OH238191   2.519   7.329   0.677
12749TIP3    H138192   2.506   7.410   0.627
12749TIP3    H238193   2.588   7.351   0.740
12750TIP3   OH238194   7.296   4.452   3.269
12750TIP3    H138195   7.249   4.369   3.271
12750TIP3    H238196   7.247   4.508   3.330
12751TIP3   OH238197   1.709   5.620   5.933
12751TIP3    H138198   1.732   5.712   5.941
12751TIP3    H238199   1.613   5.619   5.933
12752TIP3   OH238200   6.644   6.504   4.754
12752TIP3    H138201   6.605   6.564   4.818
12752TIP3    H238202   6.669   6.560   4.680
12753TIP3   OH238203   8.014   3.329   6.494
12753TIP3    H138204   7.990   3.268   6.564
12753TIP3    H238205   8.084   3.383   6.532
12754TIP3   OH238206   5.080   0.370   3.120
12754TIP3    H138207   5.073   0.340   3.210
12754TIP3    H238208   5.044   0.459   3.122
12755TIP3   OH238209   5.802   2.290   0.033
12755TIP3    H138210   5.740   2.307   0.104
12755TIP3    H238211   5.828   2.198   0.045
12756TIP3   OH238212   5.929   2.211   5.673
12756TIP3    H138213   5.897   2.301   5.667
12756TIP3    H238214   5.993   2.203   5.603
12757TIP3   OH238215   7.282   5.193   2.203
12757TIP3    H138216   7.349   5.258   2.221
12757TIP3    H238217   7.329   5.123   2.157
12758TIP3   OH238218   1.489   1.130   0.565
12758TIP3    H138219   1.501   1.064   0.633
12758TIP3    H238220   1.396   1.152   0.569
12759TIP3   OH238221   4.703   3.071   0.171
12759TIP3    H138222   4.750   3.141   0.126
12759TIP3    H238223   4.610   3.093   0.159
12760TIP3   OH238224   3.098   2.740   1.120
12760TIP3    H138225   3.113   2.647   1.105
12760TIP3    H238226   3.117   2.781   1.035
12761TIP3   OH238227   5.064   6.435   5.058
12761TIP3    H138228   5.002   6.426   4.986
12761TIP3    H238229   5.122   6.359   5.049
12762TIP3   OH238230   5.193   3.859   4.363
12762TIP3    H138231   5.156   3.798   4.299
12762TIP3    H238232   5.149   3.837   4.445
12763TIP3   OH238233   4.283   0.742   4.281
12763TIP3    H138234   4.190   0.747   4.303
12763TIP3    H238235   4.294   0.655   4.244
12764TIP3   OH238236   3.921   0.792   1.754
12764TIP3    H138237   3.843   0.795   1.698
12764TIP3    H238238   3.965   0.711   1.729
12765TIP3   OH238239   4.902   1.321   4.919
12765TIP3    H138240   4.968   1.273   4.868
12765TIP3    H238241   4.930   1.311   5.010
12766TIP3   OH238242   7.032   0.419   0.390
12766TIP3    H138243   6.999   0.376   0.311
12766TIP3    H238244   6.953   0.448   0.435
12767TIP3   OH238245   1.034   7.673   6.156
12767TIP3    H138246   1.004   7.660   6.246
12767TIP3    H238247   1.130   7.674   6.163
12768TIP3   OH238248   1.704   3.340   3.283
12768TIP3    H138249   1.724   3.434   3.291
12768TIP3    H238250   1.757   3.299   3.352
12769TIP3   OH238251   6.405   6.133   3.331
12769TIP3    H138252   6.491   6.159   3.365
12769TIP3    H238253   6.353   6.116   3.410
12770TIP3   OH238254   2.285   4.622   3.141
12770TIP3    H138255   2.202   4.580   3.119
12770TIP3    H238256   2.335   4.556   3.188
12771TIP3   OH238257   6.546   1.999   6.356
12771TIP3    H138258   6.531   2.001   6.451
12771TIP3    H238259   6.583   1.912   6.340
12772TIP3   OH238260   7.053   3.776   2.336
12772TIP3    H138261   7.004   3.710   2.286
12772TIP3    H238262   7.028   3.859   2.296
12773TIP3   OH238263   7.390   3.090   1.539
12773TIP3    H138264   7.448   3.041   1.481
12773TIP3    H238265   7.302   3.070   1.506
12774TIP3   OH238266   2.243   3.291   0.219
12774TIP3    H138267   2.229   3.273   0.126
12774TIP3    H238268   2.236   3.206   0.262
12775TIP3   OH238269   2.632   4.904   2.905
12775TIP3    H138270   2.622   4.814   2.874
12775TIP3    H238271   2.727   4.918   2.909
12776TIP3   OH238272   5.925   5.196   1.401
12776TIP3    H138273   5.911   5.249   1.322
12776TIP3    H238274   5.955   5.259   1.467
12777TIP3   OH238275   8.151   4.090   5.880
12777TIP3    H138276   8.202   4.009   5.869
12777TIP3    H238277   8.072   4.076   5.827
12778TIP3   OH238278   2.312   3.445   1.387
12778TIP3    H138279   2.297   3.540   1.395
12778TIP3    H238280   2.346   3.419   1.473
12779TIP3   OH238281   3.293   6.399   5.036
12779TIP3    H138282   3.256   6.422   5.122
12779TIP3    H238283   3.385   6.378   5.055
12780TIP3   OH238284   1.393   6.304   1.318
12780TIP3    H138285   1.347   6.314   1.235
12780TIP3    H238286   1.366   6.380   1.370
12781TIP3   OH238287   0.223   3.352   0.631
12781TIP3    H138288   0.291   3.368   0.566
12781TIP3    H238289   0.198   3.261   0.618
12782TIP3   OH238290   2.211   2.125   4.281
12782TIP3    H138291   2.206   2.041   4.236
12782TIP3    H238292   2.120   2.148   4.299
12783TIP3   OH238293   6.172   0.572   6.140
12783TIP3    H138294   6.216   0.636   6.196
12783TIP3    H238295   6.196   0.487   6.177
12784TIP3   OH238296   5.599   0.226   1.489
12784TIP3    H138297   5.591   0.247   1.396
12784TIP3    H238298   5.527   0.275   1.531
12785TIP3   OH238299   1.994   4.869   3.171
12785TIP3    H138300   1.990   4.954   3.127
12785TIP3    H238301   1.952   4.884   3.255
12786TIP3   OH238302   0.646   2.683   0.178
12786TIP3    H138303   0.644   2.733   0.259
12786TIP3    H238304   0.687   2.600   0.201
12787TIP3   OH238305   6.780   2.809   2.042
12787TIP3    H138306   6.735   2.729   2.013
12787TIP3    H238307   6.761   2.873   1.973
12788TIP3   OH238308   7.121   5.915   6.048
12788TIP3    H138309   7.092   5.824   6.052
12788TIP3    H238310   7.040   5.966   6.057
12789TIP3   OH238311   7.784   6.080   1.876
12789TIP3    H138312   7.869   6.112   1.847
12789TIP3    H238313   7.734   6.159   1.895
12790TIP3   OH238314   1.338   1.561   5.519
12790TIP3    H138315   1.320   1.510   5.598
12790TIP3    H238316   1.259   1.615   5.509
12791TIP3   OH238317   4.383   1.616   6.548
12791TIP3    H138318   4.476   1.630   6.530
12791TIP3    H238319   4.352   1.565   6.473
12792TIP3   OH238320   2.706   4.661   3.068
12792TIP3    H138321   2.682   4.574   3.100
12792TIP3    H238322   2.712   4.650   2.973
12793TIP3   OH238323   4.579   6.283   3.601
12793TIP3    H138324   4.497   6.261   3.558
12793TIP3    H238325   4.645   6.275   3.532
12794TIP3   OH238326   1.501   5.690   0.599
12794TIP3    H138327   1.553   5.649   0.669
12794TIP3    H238328   1.477   5.775   0.635
12795TIP3   OH238329   7.181   0.491   1.019
12795TIP3    H138330   7.197   0.417   0.961
12795TIP3    H238331   7.261   0.500   1.070
12796TIP3   OH238332   5.879   1.534   2.471
12796TIP3    H138333   5.961   1.573   2.438
12796TIP3    H238334   5.832   1.509   2.392
12797TIP3   OH238335   8.217   1.138   2.408
12797TIP3    H138336   8.165   1.088   2.471
12797TIP3    H238337   8.305   1.138   2.445
12798TIP3   OH238338   4.493   5.735   5.196
12798TIP3    H138339   4.509   5.740   5.101
12798TIP3    H238340   4.481   5.641   5.213
12799TIP3   OH238341   6.162   7.362   3.084
12799TIP3    H138342   6.235   7.368   3.145
12799TIP3    H238343   6.202   7.341   3.000
12800TIP3   OH238344   1.039   1.670   4.501
12800TIP3    H138345   1.090   1.626   4.569
12800TIP3    H238346   0.961   1.703   4.546
12801TIP3   OH238347   0.115   5.091   0.153
12801TIP3    H138348   0.165   5.049   0.083
12801TIP3    H238349   0.088   5.175   0.114
12802TIP3   OH238350   1.304   6.951   5.568
12802TIP3    H138351   1.236   7.017   5.551
12802TIP3    H238352   1.294   6.929   5.660
12803TIP3   OH238353   2.225   3.083   4.861
12803TIP3    H138354   2.250   3.173   4.881
12803TIP3    H238355   2.220   3.040   4.946
12804TIP3   OH238356   4.901   3.541   6.586
12804TIP3    H138357   4.872   3.584   6.506
12804TIP3    H238358   4.844   3.465   6.595
12805TIP3   OH238359   6.650   2.272   6.257
12805TIP3    H138360   6.616   2.229   6.335
12805TIP3    H238361   6.674   2.200   6.198
12806TIP3   OH238362   4.629   5.380   6.198
12806TIP3    H138363   4.677   5.297   6.194
12806TIP3    H238364   4.693   5.443   6.229
12807TIP3   OH238365   0.768   5.010   0.870
12807TIP3    H138366   0.703   5.075   0.896
12807TIP3    H238367   0.762   4.942   0.937
12808TIP3   OH238368   2.399   5.808   2.103
12808TIP3    H138369   2.323   5.783   2.050
12808TIP3    H238370   2.473   5.801   2.044
12809TIP3   OH238371   3.931   6.359   6.521
12809TIP3    H138372   3.855   6.388   6.471
12809TIP3    H238373   4.006   6.391   6.472
12810TIP3   OH238374   6.407   3.150   1.250
12810TIP3    H138375   6.461   3.156   1.172
12810TIP3    H238376   6.468   3.124   1.319
12811TIP3   OH238377   4.200   2.996   1.235
12811TIP3    H138378   4.137   2.985   1.306
12811TIP3    H238379   4.165   2.942   1.164
12812TIP3   OH238380   7.957   1.267   5.183
12812TIP3    H138381   7.898   1.325   5.230
12812TIP3    H238382   7.938   1.283   5.091
12813TIP3   OH238383   0.588   6.360   1.657
12813TIP3    H138384   0.663   6.399   1.702
12813TIP3    H238385   0.625   6.284   1.611
12814TIP3   OH238386   4.847   0.699   0.637
12814TIP3    H138387   4.820   0.608   0.647
12814TIP3    H238388   4.867   0.728   0.726
12815TIP3   OH238389   6.771   5.256   0.536
12815TIP3    H138390   6.750   5.193   0.605
12815TIP3    H238391   6.699   5.319   0.540
12816TIP3   OH238392   5.205   4.772   5.572
12816TIP3    H138393   5.234   4.720   5.497
12816TIP3    H238394   5.277   4.833   5.588
12817TIP3   OH238395   7.057   6.865   4.782
12817TIP3    H138396   7.048   6.899   4.871
12817TIP3    H238397   7.109   6.932   4.737
12818TIP3   OH238398   2.176   0.492   5.629
12818TIP3    H138399   2.204   0.463   5.543
12818TIP3    H238400   2.113   0.426   5.658
12819TIP3   OH238401   7.393   6.756   0.731
12819TIP3    H138402   7.306   6.770   0.694
12819TIP3    H238403   7.405   6.826   0.794
12820TIP3   OH238404   2.554   2.188   0.642
12820TIP3    H138405   2.617   2.247   0.681
12820TIP3    H238406   2.533   2.125   0.711
12821TIP3   OH238407   5.583   3.433   4.292
12821TIP3    H138408   5.602   3.368   4.360
12821TIP3    H238409   5.573   3.382   4.212
12822TIP3   OH238410   1.826   3.535   3.457
12822TIP3    H138411   1.909   3.504   3.420
12822TIP3    H238412   1.832   3.515   3.550
12823TIP3   OH238413   7.572   6.376   5.529
12823TIP3    H138414   7.481   6.373   5.558
12823TIP3    H238415   7.585   6.294   5.482
12824TIP3   OH238416   0.540   7.198   1.684
12824TIP3    H138417   0.564   7.222   1.774
12824TIP3    H238418   0.483   7.270   1.655
12825TIP3   OH238419   4.125   2.572   2.151
12825TIP3    H138420   4.205   2.623   2.165
12825TIP3    H238421   4.143   2.523   2.070
12826TIP3   OH238422   0.576   0.301   4.340
12826TIP3    H138423   0.645   0.237   4.320
12826TIP3    H238424   0.619   0.369   4.391
12827TIP3   OH238425   7.462   5.903   3.616
12827TIP3    H138426   7.377   5.937   3.589
12827TIP3    H238427   7.446   5.812   3.638
12828TIP3   OH238428   1.170   0.081   4.527
12828TIP3    H138429   1.260   0.052   4.544
12828TIP3    H238430   1.169   0.100   4.433
12829TIP3   OH238431   1.855   4.537   0.680
12829TIP3    H138432   1.896   4.564   0.598
12829TIP3    H238433   1.805   4.458   0.658
12830TIP3   OH238434   6.661   4.183   2.579
12830TIP3    H138435   6.684   4.146   2.664
12830TIP3    H238436   6.700   4.123   2.515
12831TIP3   OH238437   5.720   6.111   1.885
12831TIP3    H138438   5.711   6.154   1.970
12831TIP3    H238439   5.789   6.046   1.898
12832TIP3   OH238440   5.540   1.823   4.594
12832TIP3    H138441   5.593   1.815   4.673
12832TIP3    H238442   5.550   1.738   4.550
12833TIP3   OH238443   0.553   4.994   1.996
12833TIP3    H138444   0.520   4.944   2.071
12833TIP3    H238445   0.625   4.942   1.963
12834TIP3   OH238446   5.000   1.308   5.563
12834TIP3    H138447   4.996   1.219   5.599
12834TIP3    H238448   4.913   1.344   5.583
12835TIP3   OH238449   2.358   0.095   3.914
12835TIP3    H138450   2.337   0.023   3.973
12835TIP3    H238451   2.430   0.061   3.860
12836TIP3   OH238452   2.709   3.926   1.829
12836TIP3    H138453   2.619   3.928   1.862
12836TIP3    H238454   2.702   3.949   1.737
12837TIP3   OH238455   4.344   1.908   2.111
12837TIP3    H138456   4.279   1.840   2.127
12837TIP3    H238457   4.355   1.910   2.016
12838TIP3   OH238458   0.574   5.149   0.301
12838TIP3    H138459   0.495   5.197   0.327
12838TIP3    H238460   0.566   5.065   0.345
12839TIP3   OH238461   6.217   1.302   0.246
12839TIP3    H138462   6.221   1.228   0.307
12839TIP3    H238463   6.260   1.269   0.167
12840TIP3   OH238464   0.534   5.464   6.557
12840TIP3    H138465   0.488   5.382   6.539
12840TIP3    H238466   0.620   5.452   6.519
12841TIP3   OH238467   7.125   0.175   5.484
12841TIP3    H138468   7.099   0.098   5.535
12841TIP3    H238469   7.135   0.245   5.549
12842TIP3   OH238470   0.958   1.847   0.924
12842TIP3    H138471   0.935   1.880   0.837
12842TIP3    H238472   1.034   1.791   0.909
12843TIP3   OH238473   3.013   5.296   0.936
12843TIP3    H138474   2.992   5.240   0.861
12843TIP3    H238475   3.103   5.324   0.921
12844TIP3   OH238476   5.445   3.762   2.580
12844TIP3    H138477   5.482   3.808   2.504
12844TIP3    H238478   5.388   3.696   2.541
12845TIP3   OH238479   5.580   5.481   5.521
12845TIP3    H138480   5.528   5.403   5.504
12845TIP3    H238481   5.526   5.534   5.580
12846TIP3   OH238482   7.376   5.728   2.818
12846TIP3    H138483   7.300   5.759   2.868
12846TIP3    H238484   7.442   5.709   2.885
12847TIP3   OH238485   7.407   1.764   0.306
12847TIP3    H138486   7.369   1.687   0.349
12847TIP3    H238487   7.482   1.787   0.361
12848TIP3   OH238488   4.992   5.228   3.306
12848TIP3    H138489   4.946   5.198   3.227
12848TIP3    H238490   5.077   5.258   3.275
12849TIP3   OH238491   1.463   3.941   6.760
12849TIP3    H138492   1.558   3.945   6.770
12849TIP3    H238493   1.448   3.936   6.666
12850TIP3   OH238494   2.673   1.648   2.322
12850TIP3    H138495   2.604   1.591   2.356
12850TIP3    H238496   2.649   1.735   2.354
12851TIP3   OH238497   1.005   2.543   2.711
12851TIP3    H138498   1.011   2.603   2.785
12851TIP3    H238499   1.056   2.466   2.738
12852TIP3   OH238500   4.696   0.850   0.438
12852TIP3    H138501   4.761   0.835   0.506
12852TIP3    H238502   4.747   0.873   0.361
12853TIP3   OH238503   6.932   6.873   4.488
12853TIP3    H138504   6.849   6.911   4.460
12853TIP3    H238505   6.961   6.928   4.561
12854TIP3   OH238506   4.152   3.929   0.628
12854TIP3    H138507   4.075   3.938   0.572
12854TIP3    H238508   4.209   3.868   0.581
12855TIP3   OH238509   6.303   2.453   6.583
12855TIP3    H138510   6.208   2.461   6.578
12855TIP3    H238511   6.333   2.467   6.493
12856TIP3   OH238512   1.827   2.789   5.426
12856TIP3    H138513   1.753   2.849   5.437
12856TIP3    H238514   1.881   2.803   5.504
12857TIP3   OH238515   0.362   5.228   2.082
12857TIP3    H138516   0.321   5.314   2.092
12857TIP3    H238517   0.353   5.186   2.167
12858TIP3   OH238518   1.209   6.849   6.444
12858TIP3    H138519   1.212   6.937   6.408
12858TIP3    H238520   1.162   6.859   6.527
12859TIP3   OH238521   7.964   0.329   5.147
12859TIP3    H138522   7.911   0.391   5.197
12859TIP3    H238523   7.968   0.365   5.059
12860TIP3   OH238524   2.471   0.599   1.034
12860TIP3    H138525   2.449   0.681   0.988
12860TIP3    H238526   2.521   0.549   0.969
12861TIP3   OH238527   6.374   3.460   6.473
12861TIP3    H138528   6.322   3.383   6.449
12861TIP3    H238529   6.401   3.443   6.563
12862TIP3   OH238530   0.259   7.742   2.983
12862TIP3    H138531   0.250   7.732   3.078
12862TIP3    H238532   0.268   7.837   2.970
12863TIP3   OH238533   7.690   3.653   4.329
12863TIP3    H138534   7.610   3.681   4.285
12863TIP3    H238535   7.751   3.633   4.257
12864TIP3   OH238536  -0.007   6.014   4.047
12864TIP3    H138537   0.088   6.003   4.041
12864TIP3    H238538  -0.038   6.003   3.957
12865TIP3   OH238539   5.266   1.263   2.448
12865TIP3    H138540   5.196   1.211   2.486
12865TIP3    H238541   5.276   1.338   2.507
12866TIP3   OH238542   4.800   3.901   3.495
12866TIP3    H138543   4.743   3.952   3.553
12866TIP3    H238544   4.746   3.885   3.418
12867TIP3   OH238545   5.407   4.306   3.164
12867TIP3    H138546   5.349   4.243   3.207
12867TIP3    H238547   5.469   4.252   3.116
12868TIP3   OH238548   8.156   2.759   4.503
12868TIP3    H138549   8.102   2.690   4.466
12868TIP3    H238550   8.097   2.834   4.513
12869TIP3   OH238551   2.114   0.683   4.724
12869TIP3    H138552   2.206   0.709   4.732
12869TIP3    H238553   2.081   0.684   4.813
12870TIP3   OH238554   8.135   4.243   6.127
12870TIP3    H138555   8.227   4.239   6.153
12870TIP3    H238556   8.132   4.197   6.043
12871TIP3   OH238557   1.097   0.392   2.626
12871TIP3    H138558   1.176   0.360   2.582
12871TIP3    H238559   1.123   0.475   2.666
12872TIP3   OH238560   6.167   3.753   5.234
12872TIP3    H138561   6.079   3.731   5.265
12872TIP3    H238562   6.197   3.674   5.190
12873TIP3   OH238563   6.847   5.184   4.316
12873TIP3    H138564   6.861   5.161   4.408
12873TIP3    H238565   6.859   5.278   4.312
12874TIP3   OH238566   5.720   7.443   0.848
12874TIP3    H138567   5.643   7.410   0.803
12874TIP3    H238568   5.745   7.521   0.798
12875TIP3   OH238569   5.810   2.654   2.196
12875TIP3    H138570   5.783   2.745   2.188
12875TIP3    H238571   5.750   2.606   2.140
12876TIP3   OH238572   2.516   3.429   0.054
12876TIP3    H138573   2.593   3.476   0.085
12876TIP3    H238574   2.442   3.484   0.080
12877TIP3   OH238575   4.233   0.929   1.417
12877TIP3    H138576   4.293   0.965   1.351
12877TIP3    H238577   4.152   0.978   1.405
12878TIP3   OH238578   1.108   7.649   2.975
12878TIP3    H138579   1.137   7.671   3.064
12878TIP3    H238580   1.022   7.610   2.987
12879TIP3   OH238581   0.988   6.901   1.368
12879TIP3    H138582   0.962   6.812   1.346
12879TIP3    H238583   0.952   6.955   1.297
12880TIP3   OH238584   6.258   5.144   4.917
12880TIP3    H138585   6.200   5.068   4.909
12880TIP3    H238586   6.317   5.121   4.989
12881TIP3   OH238587   3.604   5.901   3.350
12881TIP3    H138588   3.547   5.857   3.412
12881TIP3    H238589   3.644   5.973   3.399
12882TIP3   OH238590   8.094   4.962   2.694
12882TIP3    H138591   8.068   5.054   2.695
12882TIP3    H238592   8.151   4.954   2.617
12883TIP3   OH238593   4.817   7.811   5.697
12883TIP3    H138594   4.847   7.811   5.606
12883TIP3    H238595   4.884   7.761   5.744
12884TIP3   OH238596   7.932   0.178   2.711
12884TIP3    H138597   7.879   0.255   2.730
12884TIP3    H238598   7.967   0.151   2.796
12885TIP3   OH238599   5.949   6.485   4.823
12885TIP3    H138600   5.949   6.507   4.916
12885TIP3    H238601   5.910   6.561   4.780
12886TIP3   OH238602   3.331   7.529   3.119
12886TIP3    H138603   3.356   7.438   3.099
12886TIP3    H238604   3.236   7.530   3.110
12887TIP3   OH238605   3.840   5.682   0.524
12887TIP3    H138606   3.853   5.763   0.574
12887TIP3    H238607   3.841   5.711   0.432
12888TIP3   OH238608   3.973   0.288   5.521
12888TIP3    H138609   3.902   0.258   5.577
12888TIP3    H238610   4.023   0.209   5.501
12889TIP3   OH238611   2.968   5.904   4.158
12889TIP3    H138612   2.892   5.889   4.102
12889TIP3    H238613   2.931   5.930   4.242
12890TIP3   OH238614   7.447   0.285   4.432
12890TIP3    H138615   7.362   0.329   4.440
12890TIP3    H238616   7.425   0.193   4.417
12891TIP3   OH238617   6.359   7.295   0.039
12891TIP3    H138618   6.402   7.372   0.077
12891TIP3    H238619   6.383   7.223   0.097
12892TIP3   OH238620   4.763   7.170   5.404
12892TIP3    H138621   4.775   7.247   5.459
12892TIP3    H238622   4.719   7.203   5.325
12893TIP3   OH238623   1.635   0.172   0.636
12893TIP3    H138624   1.618   0.082   0.666
12893TIP3    H238625   1.562   0.223   0.672
12894TIP3   OH238626   6.565   5.026   2.143
12894TIP3    H138627   6.617   5.028   2.063
12894TIP3    H238628   6.606   4.957   2.196
12895TIP3   OH238629   1.369   4.198   5.614
12895TIP3    H138630   1.356   4.126   5.676
12895TIP3    H238631   1.286   4.203   5.566
12896TIP3   OH238632   1.830   2.685   4.091
12896TIP3    H138633   1.877   2.652   4.167
12896TIP3    H238634   1.779   2.610   4.060
12897TIP3   OH238635   6.477   0.619   4.077
12897TIP3    H138636   6.502   0.709   4.053
12897TIP3    H238637   6.399   0.602   4.024
12898TIP3   OH238638   4.770   6.572   1.776
12898TIP3    H138639   4.840   6.603   1.718
12898TIP3    H238640   4.718   6.513   1.721
12899TIP3   OH238641   4.931   1.496  -0.002
12899TIP3    H138642   5.014   1.513   0.042
12899TIP3    H238643   4.935   1.403  -0.025
12900TIP3   OH238644   2.831   3.977   3.136
12900TIP3    H138645   2.773   3.909   3.101
12900TIP3    H238646   2.912   3.931   3.157
12901TIP3   OH238647   1.734   7.489   3.532
12901TIP3    H138648   1.664   7.520   3.475
12901TIP3    H238649   1.743   7.556   3.600
12902TIP3   OH238650   7.808   2.035   4.937
12902TIP3    H138651   7.745   1.964   4.924
12902TIP3    H238652   7.821   2.038   5.032
12903TIP3   OH238653   5.067   5.864   3.646
12903TIP3    H138654   5.082   5.794   3.582
12903TIP3    H238655   4.974   5.856   3.669
12904TIP3   OH238656   6.967   1.090   6.004
12904TIP3    H138657   6.970   1.013   5.947
12904TIP3    H238658   6.956   1.164   5.944
12905TIP3   OH238659   1.420   5.671   2.807
12905TIP3    H138660   1.463   5.585   2.809
12905TIP3    H238661   1.426   5.698   2.716
12906TIP3   OH238662   7.363   3.487   3.948
12906TIP3    H138663   7.325   3.487   3.860
12906TIP3    H238664   7.301   3.537   4.001
12907TIP3   OH238665   4.738   6.593   3.080
12907TIP3    H138666   4.713   6.503   3.097
12907TIP3    H238667   4.661   6.633   3.039
12908TIP3   OH238668   5.988   3.170   4.775
12908TIP3    H138669   5.922   3.236   4.756
12908TIP3    H238670   5.948   3.088   4.745
12909TIP3   OH238671   3.149   2.818   3.518
12909TIP3    H138672   3.180   2.763   3.446
12909TIP3    H238673   3.078   2.769   3.558
12910TIP3   OH238674   0.160   7.424   4.729
12910TIP3    H138675   0.162   7.513   4.695
12910TIP3    H238676   0.093   7.379   4.678
12911TIP3   OH238677   6.552   4.500   0.635
12911TIP3    H138678   6.533   4.545   0.552
12911TIP3    H238679   6.647   4.494   0.637
12912TIP3   OH238680   6.734   4.764   0.033
12912TIP3    H138681   6.812   4.710   0.048
12912TIP3    H238682   6.721   4.763  -0.061
12913TIP3   OH238683   7.191   0.577   0.242
12913TIP3    H138684   7.133   0.651   0.222
12913TIP3    H238685   7.136   0.516   0.290
12914TIP3   OH238686   1.415   1.682   4.657
12914TIP3    H138687   1.481   1.694   4.725
12914TIP3    H238688   1.437   1.748   4.591
12915TIP3   OH238689   0.411   1.743   0.607
12915TIP3    H138690   0.331   1.709   0.567
12915TIP3    H238691   0.381   1.808   0.670
12916TIP3   OH238692   7.777   2.576   4.605
12916TIP3    H138693   7.683   2.594   4.598
12916TIP3    H238694   7.804   2.621   4.685
12917TIP3   OH238695   1.483   0.758   4.676
12917TIP3    H138696   1.478   0.833   4.617
12917TIP3    H238697   1.398   0.716   4.668
12918TIP3   OH238698   1.932   4.981   5.517
12918TIP3    H138699   1.839   4.989   5.536
12918TIP3    H238700   1.967   4.928   5.589
12919TIP3   OH238701   6.974   5.513   3.536
12919TIP3    H138702   6.903   5.540   3.595
12919TIP3    H238703   6.945   5.429   3.501
12920TIP3   OH238704   8.114   5.644   4.932
12920TIP3    H138705   8.175   5.578   4.965
12920TIP3    H238706   8.028   5.603   4.939
12921TIP3   OH238707   7.811   3.629   3.880
12921TIP3    H138708   7.905   3.645   3.869
12921TIP3    H238709   7.801   3.602   3.971
12922TIP3   OH238710   0.486   6.455   4.948
12922TIP3    H138711   0.526   6.497   4.872
12922TIP3    H238712   0.396   6.439   4.922
12923TIP3   OH238713   5.224   6.109   3.526
12923TIP3    H138714   5.171   6.041   3.567
12923TIP3    H238715   5.195   6.190   3.568
12924TIP3   OH238716   6.648   4.132   1.603
12924TIP3    H138717   6.601   4.086   1.534
12924TIP3    H238718   6.652   4.223   1.574
12925TIP3   OH238719   7.846   6.362   1.441
12925TIP3    H138720   7.851   6.449   1.402
12925TIP3    H238721   7.916   6.312   1.400
12926TIP3   OH238722   6.004   2.996   0.174
12926TIP3    H138723   5.957   2.936   0.117
12926TIP3    H238724   6.028   2.944   0.250
12927TIP3   OH238725   1.962   5.329   5.754
12927TIP3    H138726   1.946   5.344   5.660
12927TIP3    H238727   1.902   5.258   5.778
12928TIP3   OH238728   5.730   6.864   6.516
12928TIP3    H138729   5.703   6.805   6.445
12928TIP3    H238730   5.727   6.951   6.477
12929TIP3   OH238731   5.439   1.978   5.846
12929TIP3    H138732   5.346   2.000   5.859
12929TIP3    H238733   5.479   2.062   5.823
12930TIP3   OH238734   4.863   4.501   5.167
12930TIP3    H138735   4.782   4.504   5.117
12930TIP3    H238736   4.882   4.407   5.178
12931TIP3   OH238737   6.178   1.491   0.432
12931TIP3    H138738   6.199   1.431   0.360
12931TIP3    H238739   6.232   1.461   0.504
12932TIP3   OH238740   4.477   2.388   3.872
12932TIP3    H138741   4.556   2.364   3.824
12932TIP3    H238742   4.412   2.325   3.844
12933TIP3   OH238743   2.576   2.861   2.690
12933TIP3    H138744   2.600   2.774   2.723
12933TIP3    H238745   2.504   2.889   2.746
12934TIP3   OH238746   3.112   4.019   5.922
12934TIP3    H138747   3.124   4.113   5.913
12934TIP3    H238748   3.112   3.986   5.832
12935TIP3   OH238749   3.640   0.704   2.230
12935TIP3    H138750   3.707   0.741   2.173
12935TIP3    H238751   3.651   0.609   2.221
12936TIP3   OH238752   4.656   2.137   2.960
12936TIP3    H138753   4.590   2.107   2.897
12936TIP3    H238754   4.711   2.198   2.910
12937TIP3   OH238755   0.788   0.572   3.075
12937TIP3    H138756   0.708   0.599   3.119
12937TIP3    H238757   0.766   0.566   2.983
12938TIP3   OH238758   0.792   1.007   5.833
12938TIP3    H138759   0.710   0.965   5.806
12938TIP3    H238760   0.792   1.092   5.790
12939TIP3   OH238761   5.772   5.032   4.793
12939TIP3    H138762   5.684   5.052   4.761
12939TIP3    H238763   5.811   5.117   4.810
12940TIP3   OH238764   5.320   0.990   2.525
12940TIP3    H138765   5.299   0.907   2.567
12940TIP3    H238766   5.241   1.043   2.535
12941TIP3   OH238767   4.996   5.402   4.050
12941TIP3    H138768   4.947   5.484   4.042
12941TIP3    H238769   4.984   5.359   3.966
12942TIP3   OH238770   0.070   0.602   6.717
12942TIP3    H138771   0.019   0.672   6.758
12942TIP3    H238772   0.030   0.521   6.750
12943TIP3   OH238773   0.069   1.126   1.277
12943TIP3    H138774   0.151   1.175   1.272
12943TIP3    H238775   0.007   1.186   1.318
12944TIP3   OH238776   4.646   2.779   5.724
12944TIP3    H138777   4.703   2.855   5.729
12944TIP3    H238778   4.616   2.777   5.633
12945TIP3   OH238779   2.534   5.683   6.672
12945TIP3    H138780   2.622   5.719   6.661
12945TIP3    H238781   2.477   5.747   6.630
12946TIP3   OH238782   3.931   1.710   6.605
12946TIP3    H138783   3.909   1.655   6.530
12946TIP3    H238784   4.008   1.759   6.577
12947TIP3   OH238785   7.112   0.985   4.621
12947TIP3    H138786   7.088   0.894   4.605
12947TIP3    H238787   7.127   0.990   4.715
12948TIP3   OH238788   6.691   1.725   5.664
12948TIP3    H138789   6.685   1.670   5.743
12948TIP3    H238790   6.677   1.814   5.696
12949TIP3   OH238791   5.219   3.754   3.734
12949TIP3    H138792   5.310   3.783   3.732
12949TIP3    H238793   5.207   3.714   3.820
12950TIP3   OH238794   0.068   1.131   0.678
12950TIP3    H138795   0.112   1.046   0.667
12950TIP3    H238796   0.021   1.144   0.596
12951TIP3   OH238797   2.911   7.134   3.355
12951TIP3    H138798   2.994   7.131   3.402
12951TIP3    H238799   2.868   7.051   3.375
12952TIP3   OH238800   7.755   7.773   2.055
12952TIP3    H138801   7.702   7.697   2.080
12952TIP3    H238802   7.766   7.763   1.960
12953TIP3   OH238803   2.408   3.728   4.382
12953TIP3    H138804   2.494   3.689   4.397
12953TIP3    H238805   2.355   3.700   4.457
12954TIP3   OH238806   4.304   6.642   2.430
12954TIP3    H138807   4.376   6.648   2.367
12954TIP3    H238808   4.308   6.552   2.463
12955TIP3   OH238809   4.483   2.960   1.165
12955TIP3    H138810   4.549   2.948   1.234
12955TIP3    H238811   4.401   2.972   1.212
12956TIP3   OH238812   1.908   6.672   6.557
12956TIP3    H138813   1.964   6.667   6.480
12956TIP3    H238814   1.844   6.602   6.544
12957TIP3   OH238815   1.499   3.292   0.663
12957TIP3    H138816   1.557   3.249   0.600
12957TIP3    H238817   1.453   3.220   0.706
12958TIP3   OH238818   2.335   0.375   0.857
12958TIP3    H138819   2.367   0.290   0.888
12958TIP3    H238820   2.381   0.388   0.774
12959TIP3   OH238821   7.518   7.117   4.098
12959TIP3    H138822   7.479   7.072   4.023
12959TIP3    H238823   7.467   7.087   4.173
12960TIP3   OH238824   2.321   5.481   1.074
12960TIP3    H138825   2.397   5.497   1.130
12960TIP3    H238826   2.246   5.512   1.126
12961TIP3   OH238827   3.880   6.146   2.678
12961TIP3    H138828   3.849   6.081   2.614
12961TIP3    H238829   3.869   6.102   2.762
12962TIP3   OH238830   7.302   6.072   4.798
12962TIP3    H138831   7.368   6.008   4.822
12962TIP3    H238832   7.219   6.026   4.806
12963TIP3   OH238833   5.815   6.972   3.517
12963TIP3    H138834   5.740   7.002   3.568
12963TIP3    H238835   5.802   6.878   3.507
12964TIP3   OH238836   1.582   3.607   2.591
12964TIP3    H138837   1.553   3.559   2.513
12964TIP3    H238838   1.568   3.699   2.568
12965TIP3   OH238839   7.202   5.699   6.292
12965TIP3    H138840   7.259   5.644   6.345
12965TIP3    H238841   7.262   5.752   6.239
12966TIP3   OH238842   1.621   0.105   3.361
12966TIP3    H138843   1.574   0.097   3.278
12966TIP3    H238844   1.556   0.139   3.423
12967TIP3   OH238845   1.278   4.837   4.897
12967TIP3    H138846   1.370   4.814   4.887
12967TIP3    H238847   1.232   4.753   4.894
12968TIP3   OH238848   4.538   3.416   6.083
12968TIP3    H138849   4.622   3.432   6.127
12968TIP3    H238850   4.504   3.504   6.065
12969TIP3   OH238851   0.333   1.629   4.294
12969TIP3    H138852   0.369   1.713   4.265
12969TIP3    H238853   0.259   1.652   4.350
12970TIP3   OH238854   6.997   0.754   4.023
12970TIP3    H138855   6.979   0.689   4.091
12970TIP3    H238856   7.016   0.702   3.945
12971TIP3   OH238857   4.272   6.530   0.384
12971TIP3    H138858   4.329   6.493   0.452
12971TIP3    H238859   4.328   6.535   0.307
12972TIP3   OH238860   7.877   0.706   0.376
12972TIP3    H138861   7.840   0.704   0.464
12972TIP3    H238862   7.805   0.734   0.320
12973TIP3   OH238863   1.438   2.110   0.631
12973TIP3    H138864   1.438   2.203   0.653
12973TIP3    H238865   1.379   2.070   0.694
12974TIP3   OH238866   6.807   3.198   5.324
12974TIP3    H138867   6.884   3.191   5.269
12974TIP3    H238868   6.802   3.114   5.370
12975TIP3   OH238869   3.616   4.290   1.384
12975TIP3    H138870   3.606   4.196   1.370
12975TIP3    H238871   3.656   4.297   1.471
12976TIP3   OH238872   0.824   5.830   5.631
12976TIP3    H138873   0.917   5.850   5.625
12976TIP3    H238874   0.792   5.834   5.541
12977TIP3   OH238875   5.070   0.307   2.708
12977TIP3    H138876   5.111   0.225   2.738
12977TIP3    H238877   5.038   0.287   2.620
12978TIP3   OH238878   1.050   2.174   1.224
12978TIP3    H138879   1.114   2.108   1.252
12978TIP3    H238880   0.966   2.128   1.227
12979TIP3   OH238881   0.771   5.165   5.866
12979TIP3    H138882   0.789   5.219   5.789
12979TIP3    H238883   0.783   5.224   5.941
12980TIP3   OH238884   2.803   7.801   6.233
12980TIP3    H138885   2.733   7.857   6.199
12980TIP3    H238886   2.758   7.720   6.258
12981TIP3   OH238887   0.038   0.724   0.337
12981TIP3    H138888  -0.055   0.729   0.360
12981TIP3    H238889   0.039   0.674   0.255
12982TIP3   OH238890   6.429   1.846   1.395
12982TIP3    H138891   6.339   1.830   1.370
12982TIP3    H238892   6.467   1.759   1.408
12983TIP3   OH238893   4.673   0.775   3.285
12983TIP3    H138894   4.715   0.821   3.358
12983TIP3    H238895   4.712   0.687   3.288
12984TIP3   OH238896   4.790   5.705   1.732
12984TIP3    H138897   4.738   5.733   1.657
12984TIP3    H238898   4.877   5.740   1.716
12985TIP3   OH238899   5.488   2.851   0.098
12985TIP3    H138900   5.519   2.942   0.103
12985TIP3    H238901   5.509   2.824   0.009
12986TIP3   OH238902   3.746   1.425   3.785
12986TIP3    H138903   3.658   1.439   3.749
12986TIP3    H238904   3.731   1.370   3.862
12987TIP3   OH238905   7.364   2.608   4.886
12987TIP3    H138906   7.449   2.635   4.851
12987TIP3    H238907   7.299   2.656   4.834
12988TIP3   OH238908   0.122   3.100   3.025
12988TIP3    H138909   0.078   3.021   2.995
12988TIP3    H238910   0.199   3.068   3.073
12989TIP3   OH238911   1.814   7.195   6.686
12989TIP3    H138912   1.893   7.169   6.638
12989TIP3    H238913   1.829   7.164   6.776
12990TIP3   OH238914   2.690   5.234   4.306
12990TIP3    H138915   2.630   5.173   4.349
12990TIP3    H238916   2.647   5.319   4.314
12991TIP3   OH238917   6.015   1.985   1.819
12991TIP3    H138918   6.063   2.067   1.808
12991TIP3    H238919   5.980   1.966   1.732
12992TIP3   OH238920   8.315   1.805   2.771
12992TIP3    H138921   8.234   1.838   2.811
12992TIP3    H238922   8.357   1.755   2.841
12993TIP3   OH238923   2.039   2.584   5.698
12993TIP3    H138924   2.060   2.491   5.697
12993TIP3    H238925   1.946   2.588   5.679
12994TIP3   OH238926   6.142   7.696   3.910
12994TIP3    H138927   6.173   7.711   3.999
12994TIP3    H238928   6.215   7.724   3.854
12995TIP3   OH238929   0.201   5.171   2.407
12995TIP3    H138930   0.157   5.247   2.368
12995TIP3    H238931   0.293   5.182   2.383
12996TIP3   OH238932   1.116   1.177   3.559
12996TIP3    H138933   1.048   1.233   3.520
12996TIP3    H238934   1.119   1.203   3.651
12997TIP3   OH238935   4.820   5.025   4.998
12997TIP3    H138936   4.772   4.965   5.055
12997TIP3    H238937   4.755   5.053   4.934
12998TIP3   OH238938   1.331   5.713   5.155
12998TIP3    H138939   1.309   5.636   5.102
12998TIP3    H238940   1.265   5.714   5.224
12999TIP3   OH238941   5.438   2.732   3.518
12999TIP3    H138942   5.525   2.754   3.484
12999TIP3    H238943   5.381   2.729   3.442
13000TIP3   OH238944   6.681   4.295   3.727
13000TIP3    H138945   6.692   4.380   3.768
13000TIP3    H238946   6.621   4.310   3.654
13001TIP3   OH238947   7.553   4.737   0.767
13001TIP3    H138948   7.553   4.691   0.851
13001TIP3    H238949   7.631   4.706   0.723
13002TIP3   OH238950   1.716   4.813   6.717
13002TIP3    H138951   1.705   4.799   6.623
13002TIP3    H238952   1.662   4.890   6.736
13003TIP3   OH238953   6.462   2.785   3.199
13003TIP3    H138954   6.515   2.810   3.274
13003TIP3    H238955   6.519   2.799   3.124
13004TIP3   OH238956   5.418   4.890   4.708
13004TIP3    H138957   5.397   4.889   4.801
13004TIP3    H238958   5.369   4.964   4.673
13005TIP3   OH238959   1.424   3.854   6.506
13005TIP3    H138960   1.395   3.801   6.432
13005TIP3    H238961   1.468   3.929   6.466
13006TIP3   OH238962   0.010   2.930   6.215
13006TIP3    H138963   0.053   2.965   6.136
13006TIP3    H238964   0.000   3.006   6.272
13007TIP3   OH238965   2.086   0.192   1.357
13007TIP3    H138966   2.121   0.119   1.407
13007TIP3    H238967   2.089   0.163   1.266
13008TIP3   OH238968   6.394   7.393   3.565
13008TIP3    H138969   6.458   7.326   3.588
13008TIP3    H238970   6.429   7.474   3.602
13009TIP3   OH238971   5.395   7.724   1.923
13009TIP3    H138972   5.393   7.735   2.018
13009TIP3    H238973   5.478   7.680   1.905
13010TIP3   OH238974   6.163   2.160   6.710
13010TIP3    H138975   6.176   2.065   6.722
13010TIP3    H238976   6.153   2.194   6.799
13011TIP3   OH238977   6.373   7.759   3.772
13011TIP3    H138978   6.347   7.771   3.681
13011TIP3    H238979   6.401   7.667   3.777
13012TIP3   OH238980   7.337   0.597   3.792
13012TIP3    H138981   7.337   0.512   3.835
13012TIP3    H238982   7.347   0.578   3.699
13013TIP3   OH238983   4.954   5.074   6.309
13013TIP3    H138984   5.001   5.141   6.358
13013TIP3    H238985   4.886   5.042   6.369
13014TIP3   OH238986   6.215   4.519   1.467
13014TIP3    H138987   6.298   4.470   1.469
13014TIP3    H238988   6.148   4.451   1.456
13015TIP3   OH238989   8.289   3.883   3.023
13015TIP3    H138990   8.333   3.880   3.107
13015TIP3    H238991   8.242   3.967   3.023
13016TIP3   OH238992   4.899   5.653   0.092
13016TIP3    H138993   4.923   5.746   0.096
13016TIP3    H238994   4.952   5.617   0.020
13017TIP3   OH238995   6.634   5.831   4.742
13017TIP3    H138996   6.571   5.891   4.782
13017TIP3    H238997   6.603   5.744   4.766
13018TIP3   OH238998   1.438   7.034   3.623
13018TIP3    H138999   1.355   7.066   3.657
13018TIP3    H239000   1.430   6.939   3.626
13019TIP3   OH239001   1.737   7.090   2.488
13019TIP3    H139002   1.768   7.175   2.519
13019TIP3    H239003   1.817   7.041   2.469
13020TIP3   OH239004   0.048   3.950   6.188
13020TIP3    H139005   0.024   3.966   6.097
13020TIP3    H239006  -0.032   3.916   6.228
13021TIP3   OH239007   3.064   6.210   2.740
13021TIP3    H139008   3.083   6.286   2.795
13021TIP3    H239009   2.969   6.202   2.742
13022TIP3   OH239010   2.147   5.608   5.472
13022TIP3    H139011   2.148   5.669   5.546
13022TIP3    H239012   2.183   5.527   5.508
13023TIP3   OH239013   3.862   4.512   5.499
13023TIP3    H139014   3.943   4.543   5.538
13023TIP3    H239015   3.887   4.435   5.447
13024TIP3   OH239016   5.979   4.414   4.458
13024TIP3    H139017   6.013   4.436   4.544
13024TIP3    H239018   6.048   4.363   4.417
13025TIP3   OH239019   4.753   2.906   0.457
13025TIP3    H139020   4.761   2.968   0.385
13025TIP3    H239021   4.812   2.834   0.433
13026TIP3   OH239022   2.042   4.728   2.733
13026TIP3    H139023   1.995   4.660   2.781
13026TIP3    H239024   2.103   4.766   2.796
13027TIP3   OH239025   6.084   3.245   1.028
13027TIP3    H139026   6.073   3.150   1.027
13027TIP3    H239027   6.103   3.267   1.119
13028TIP3   OH239028   1.926   3.441   1.065
13028TIP3    H139029   1.901   3.531   1.083
13028TIP3    H239030   1.924   3.398   1.151
13029TIP3   OH239031   5.958   4.962   3.699
13029TIP3    H139032   5.916   4.919   3.624
13029TIP3    H239033   5.896   4.951   3.771
13030TIP3   OH239034   7.136   2.516   1.576
13030TIP3    H139035   7.064   2.453   1.582
13030TIP3    H239036   7.100   2.597   1.610
13031TIP3   OH239037   4.652   6.320   3.014
13031TIP3    H139038   4.638   6.333   2.920
13031TIP3    H239039   4.662   6.225   3.024
13032TIP3   OH239040   7.336   7.540   5.841
13032TIP3    H139041   7.312   7.620   5.887
13032TIP3    H239042   7.431   7.538   5.845
13033TIP3   OH239043   2.577   1.200   3.330
13033TIP3    H139044   2.504   1.234   3.278
13033TIP3    H239045   2.651   1.254   3.305
13034TIP3   OH239046   6.210   2.228   6.016
13034TIP3    H139047   6.250   2.152   6.057
13034TIP3    H239048   6.284   2.281   5.986
13035TIP3   OH239049   3.220   7.464   6.086
13035TIP3    H139050   3.303   7.419   6.070
13035TIP3    H239051   3.230   7.503   6.173
13036TIP3   OH239052   3.162   7.328   4.784
13036TIP3    H139053   3.192   7.271   4.713
13036TIP3    H239054   3.185   7.417   4.755
13037TIP3   OH239055   3.867   0.175   4.561
13037TIP3    H139056   3.920   0.097   4.579
13037TIP3    H239057   3.791   0.167   4.620
13038TIP3   OH239058   7.011   0.754   0.525
13038TIP3    H139059   6.964   0.730   0.605
13038TIP3    H239060   6.944   0.755   0.457
13039TIP3   OH239061   6.148   0.697   2.049
13039TIP3    H139062   6.094   0.690   2.127
13039TIP3    H239063   6.098   0.652   1.981
13040TIP3   OH239064   3.371   4.214   2.635
13040TIP3    H139065   3.404   4.126   2.648
13040TIP3    H239066   3.316   4.231   2.711
13041TIP3   OH239067   4.304   2.301   4.476
13041TIP3    H139068   4.317   2.271   4.566
13041TIP3    H239069   4.236   2.242   4.442
13042TIP3   OH239070   7.158   4.620   0.274
13042TIP3    H139071   7.248   4.649   0.257
13042TIP3    H239072   7.132   4.670   0.352
13043TIP3   OH239073   7.999   3.371   5.469
13043TIP3    H139074   7.980   3.455   5.426
13043TIP3    H239075   8.085   3.346   5.435
13044TIP3   OH239076   5.920   4.246   1.165
13044TIP3    H139077   5.868   4.186   1.219
13044TIP3    H239078   5.861   4.271   1.093
13045TIP3   OH239079   6.891   1.497   1.279
13045TIP3    H139080   6.831   1.477   1.207
13045TIP3    H239081   6.904   1.592   1.274
13046TIP3   OH239082   0.721   5.315   3.132
13046TIP3    H139083   0.743   5.251   3.065
13046TIP3    H239084   0.775   5.391   3.111
13047TIP3   OH239085   2.642   3.692   2.421
13047TIP3    H139086   2.719   3.703   2.477
13047TIP3    H239087   2.631   3.598   2.413
13048TIP3   OH239088   0.239   4.620   6.711
13048TIP3    H139089   0.321   4.621   6.662
13048TIP3    H239090   0.264   4.634   6.802
13049TIP3   OH239091   2.753   3.496   0.165
13049TIP3    H139092   2.770   3.500   0.259
13049TIP3    H239093   2.832   3.458   0.128
13050TIP3   OH239094   3.873   7.561   3.647
13050TIP3    H139095   3.912   7.560   3.560
13050TIP3    H239096   3.930   7.505   3.700
13051TIP3   OH239097   6.358   3.306   2.028
13051TIP3    H139098   6.343   3.387   2.078
13051TIP3    H239099   6.394   3.245   2.093
13052TIP3   OH239100   1.612   1.044   3.942
13052TIP3    H139101   1.565   1.043   4.025
13052TIP3    H239102   1.613   1.136   3.916
13053TIP3   OH239103   5.096   3.955   3.544
13053TIP3    H139104   5.144   3.874   3.531
13053TIP3    H239105   5.005   3.932   3.524
13054TIP3   OH239106   5.718   1.694   0.263
13054TIP3    H139107   5.707   1.648   0.347
13054TIP3    H239108   5.630   1.725   0.241
13055TIP3   OH239109   0.455   1.840   1.835
13055TIP3    H139110   0.460   1.933   1.859
13055TIP3    H239111   0.450   1.794   1.919
13056TIP3   OH239112   6.131   4.214   0.838
13056TIP3    H139113   6.170   4.138   0.795
13056TIP3    H239114   6.165   4.210   0.928
13057TIP3   OH239115   2.041   0.792   2.494
13057TIP3    H139116   2.007   0.746   2.417
13057TIP3    H239117   2.109   0.734   2.527
13058TIP3   OH239118   1.753   3.803   2.761
13058TIP3    H139119   1.808   3.734   2.725
13058TIP3    H239120   1.773   3.881   2.708
13059TIP3   OH239121   0.599   3.884   0.257
13059TIP3    H139122   0.526   3.943   0.279
13059TIP3    H239123   0.557   3.800   0.237
13060TIP3   OH239124   0.151   7.453   1.148
13060TIP3    H139125   0.106   7.453   1.063
13060TIP3    H239126   0.156   7.361   1.172
13061TIP3   OH239127   2.565   1.847   3.499
13061TIP3    H139128   2.579   1.898   3.579
13061TIP3    H239129   2.611   1.764   3.515
13062TIP3   OH239130   7.603   5.003   0.753
13062TIP3    H139131   7.603   4.908   0.763
13062TIP3    H239132   7.695   5.027   0.757
13063TIP3   OH239133   7.642   6.436   3.298
13063TIP3    H139134   7.585   6.430   3.375
13063TIP3    H239135   7.588   6.405   3.226
13064TIP3   OH239136   0.160   1.898   5.450
13064TIP3    H139137   0.137   1.892   5.542
13064TIP3    H239138   0.111   1.974   5.418
13065TIP3   OH239139   8.184   4.227   0.637
13065TIP3    H139140   8.168   4.312   0.596
13065TIP3    H239141   8.178   4.164   0.565
13066TIP3   OH239142   2.647   5.137   6.773
13066TIP3    H139143   2.591   5.195   6.825
13066TIP3    H239144   2.586   5.082   6.725
13067TIP3   OH239145   4.729   5.024   6.466
13067TIP3    H139146   4.766   5.097   6.515
13067TIP3    H239147   4.644   5.055   6.437
13068TIP3   OH239148   4.946   0.652   0.893
13068TIP3    H139149   4.927   0.560   0.873
13068TIP3    H239150   4.917   0.663   0.984
13069TIP3   OH239151   3.198   0.593   0.929
13069TIP3    H139152   3.195   0.567   1.022
13069TIP3    H239153   3.159   0.680   0.928
13070TIP3   OH239154   0.268   5.870   3.533
13070TIP3    H139155   0.362   5.880   3.519
13070TIP3    H239156   0.261   5.800   3.598
13071TIP3   OH239157   6.142   2.454   5.503
13071TIP3    H139158   6.187   2.491   5.427
13071TIP3    H239159   6.157   2.518   5.573
13072TIP3   OH239160   3.502   4.273   1.679
13072TIP3    H139161   3.511   4.347   1.740
13072TIP3    H239162   3.445   4.212   1.725
13073TIP3   OH239163   7.958   1.269   6.297
13073TIP3    H139164   7.892   1.200   6.302
13073TIP3    H239165   7.950   1.305   6.209
13074TIP3   OH239166   4.126   7.302   0.183
13074TIP3    H139167   4.046   7.284   0.133
13074TIP3    H239168   4.183   7.228   0.163
13075TIP3   OH239169   2.338   0.106   6.680
13075TIP3    H139170   2.379   0.189   6.653
13075TIP3    H239171   2.330   0.113   6.775
13076TIP3   OH239172   0.152   5.947   3.075
13076TIP3    H139173   0.129   5.888   3.004
13076TIP3    H239174   0.248   5.952   3.072
13077TIP3   OH239175   2.948   2.805   2.854
13077TIP3    H139176   2.881   2.745   2.885
13077TIP3    H239177   2.976   2.769   2.770
13078TIP3   OH239178   1.550   1.088   1.294
13078TIP3    H139179   1.602   1.016   1.328
13078TIP3    H239180   1.599   1.167   1.318
13079TIP3   OH239181   6.462   0.027   5.795
13079TIP3    H139182   6.400   0.042   5.866
13079TIP3    H239183   6.522  -0.039   5.828
13080TIP3   OH239184   7.051   6.479   0.224
13080TIP3    H139185   7.051   6.481   0.320
13080TIP3    H239186   7.143   6.475   0.200
13081TIP3   OH239187   5.138   0.909   1.413
13081TIP3    H139188   5.092   0.992   1.401
13081TIP3    H239189   5.210   0.912   1.350
13082TIP3   OH239190   4.611   5.443   4.717
13082TIP3    H139191   4.690   5.497   4.726
13082TIP3    H239192   4.565   5.480   4.642
13083TIP3   OH239193   6.273   3.733   3.355
13083TIP3    H139194   6.302   3.824   3.343
13083TIP3    H239195   6.185   3.741   3.391
13084TIP3   OH239196   1.057   7.721   1.096
13084TIP3    H139197   1.036   7.629   1.113
13084TIP3    H239198   1.129   7.741   1.157
13085TIP3   OH239199   1.723   3.183   2.254
13085TIP3    H139200   1.740   3.266   2.298
13085TIP3    H239201   1.807   3.160   2.213
13086TIP3   OH239202   3.440   7.124   5.322
13086TIP3    H139203   3.447   7.116   5.227
13086TIP3    H239204   3.531   7.131   5.352
13087TIP3   OH239205   1.803   6.776   1.367
13087TIP3    H139206   1.827   6.714   1.436
13087TIP3    H239207   1.721   6.816   1.399
13088TIP3   OH239208   3.343   1.604   0.614
13088TIP3    H139209   3.349   1.509   0.626
13088TIP3    H239210   3.382   1.620   0.528
13089TIP3   OH239211   2.414   6.718   5.480
13089TIP3    H139212   2.426   6.813   5.470
13089TIP3    H239213   2.475   6.680   5.417
13090TIP3   OH239214   5.518   0.522   4.428
13090TIP3    H139215   5.588   0.474   4.472
13090TIP3    H239216   5.509   0.602   4.479
13091TIP3   OH239217   5.516   1.755   3.179
13091TIP3    H139218   5.558   1.839   3.194
13091TIP3    H239219   5.434   1.777   3.134
13092TIP3   OH239220   1.291   5.558   1.830
13092TIP3    H139221   1.385   5.571   1.833
13092TIP3    H239222   1.269   5.564   1.737
13093TIP3   OH239223   4.240   5.392   0.333
13093TIP3    H139224   4.202   5.319   0.285
13093TIP3    H239225   4.229   5.467   0.274
13094TIP3   OH239226   1.308   0.287   6.505
13094TIP3    H139227   1.278   0.334   6.583
13094TIP3    H239228   1.227   0.267   6.457
13095TIP3   OH239229   3.635   2.545   3.179
13095TIP3    H139230   3.611   2.596   3.257
13095TIP3    H239231   3.723   2.513   3.197
13096TIP3   OH239232   0.809   1.301   5.767
13096TIP3    H139233   0.882   1.281   5.709
13096TIP3    H239234   0.841   1.372   5.823
13097TIP3   OH239235   3.173   5.590   5.999
13097TIP3    H139236   3.128   5.570   5.916
13097TIP3    H239237   3.112   5.561   6.067
13098TIP3   OH239238   3.977   6.730   3.371
13098TIP3    H139239   3.982   6.809   3.425
13098TIP3    H239240   4.061   6.686   3.385
13099TIP3   OH239241   5.348   6.576   5.624
13099TIP3    H139242   5.387   6.656   5.657
13099TIP3    H239243   5.412   6.508   5.643
13100TIP3   OH239244   4.639   5.780   5.447
13100TIP3    H139245   4.595   5.813   5.369
13100TIP3    H239246   4.595   5.698   5.467
13101TIP3   OH239247   6.634   2.149   2.091
13101TIP3    H139248   6.729   2.142   2.107
13101TIP3    H239249   6.594   2.126   2.175
13102TIP3   OH239250   7.587   6.141   2.504
13102TIP3    H139251   7.576   6.207   2.573
13102TIP3    H239252   7.512   6.083   2.514
13103TIP3   OH239253   4.918   6.670   2.223
13103TIP3    H139254   5.007   6.674   2.256
13103TIP3    H239255   4.921   6.602   2.155
13104TIP3   OH239256   0.061   1.749   1.464
13104TIP3    H139257   0.000   1.712   1.400
13104TIP3    H239258   0.013   1.749   1.547
13105TIP3   OH239259   5.365   6.200   6.107
13105TIP3    H139260   5.369   6.260   6.182
13105TIP3    H239261   5.281   6.221   6.065
13106TIP3   OH239262   4.550   0.954   1.930
13106TIP3    H139263   4.596   0.919   2.007
13106TIP3    H239264   4.487   1.017   1.966
13107TIP3   OH239265   2.919   0.791   4.296
13107TIP3    H139266   2.849   0.725   4.305
13107TIP3    H239267   2.872   0.874   4.285
13108TIP3   OH239268   7.620   6.007   5.925
13108TIP3    H139269   7.573   5.998   6.008
13108TIP3    H239270   7.708   6.032   5.951
13109TIP3   OH239271   1.606   1.818   4.488
13109TIP3    H139272   1.646   1.826   4.574
13109TIP3    H239273   1.679   1.800   4.429
13110TIP3   OH239274   0.627   1.010   2.987
13110TIP3    H139275   0.715   1.049   2.987
13110TIP3    H239276   0.622   0.962   2.903
13111TIP3   OH239277   0.225   3.040   2.629
13111TIP3    H139278   0.237   3.040   2.724
13111TIP3    H239279   0.223   2.947   2.606
13112TIP3   OH239280   0.497   6.860   5.303
13112TIP3    H139281   0.478   6.780   5.254
13112TIP3    H239282   0.427   6.864   5.369
13113TIP3   OH239283   5.788   6.367   0.381
13113TIP3    H139284   5.763   6.284   0.340
13113TIP3    H239285   5.880   6.379   0.357
13114TIP3   OH239286   0.132   7.542   6.035
13114TIP3    H139287   0.090   7.475   5.981
13114TIP3    H239288   0.062   7.573   6.092
13115TIP3   OH239289   3.917   1.356   2.634
13115TIP3    H139290   3.952   1.406   2.708
13115TIP3    H239291   3.866   1.286   2.675
13116TIP3   OH239292   4.745   3.919   4.473
13116TIP3    H139293   4.814   3.871   4.427
13116TIP3    H239294   4.785   4.004   4.494
13117TIP3   OH239295   6.679   7.459   4.587
13117TIP3    H139296   6.588   7.435   4.600
13117TIP3    H239297   6.707   7.494   4.672
13118TIP3   OH239298   6.917   0.982   5.357
13118TIP3    H139299   6.871   0.930   5.290
13118TIP3    H239300   6.875   1.067   5.354
13119TIP3   OH239301   5.057   5.040   6.750
13119TIP3    H139302   4.962   5.052   6.754
13119TIP3    H239303   5.086   5.104   6.686
13120TIP3   OH239304   6.506   4.930   6.195
13120TIP3    H139305   6.464   4.881   6.125
13120TIP3    H239306   6.545   4.863   6.251
13121TIP3   OH239307   5.631   1.533   0.488
13121TIP3    H139308   5.725   1.548   0.477
13121TIP3    H239309   5.624   1.443   0.518
13122TIP3   OH239310   7.150   0.162   2.682
13122TIP3    H139311   7.133   0.243   2.634
13122TIP3    H239312   7.228   0.125   2.640
13123TIP3   OH239313   5.645   6.782   2.126
13123TIP3    H139314   5.637   6.738   2.211
13123TIP3    H239315   5.657   6.711   2.063
13124TIP3   OH239316   1.745   2.996   4.622
13124TIP3    H139317   1.738   2.901   4.618
13124TIP3    H239318   1.837   3.012   4.644
13125TIP3   OH239319   8.112   7.650   3.935
13125TIP3    H139320   8.161   7.570   3.915
13125TIP3    H239321   8.179   7.717   3.945
13126TIP3   OH239322   2.733   4.333   4.289
13126TIP3    H139323   2.768   4.344   4.378
13126TIP3    H239324   2.809   4.307   4.237
13127TIP3   OH239325   6.482   4.592   5.277
13127TIP3    H139326   6.540   4.558   5.209
13127TIP3    H239327   6.401   4.541   5.268
13128TIP3   OH239328   0.380   1.220   2.009
13128TIP3    H139329   0.419   1.303   2.038
13128TIP3    H239330   0.357   1.175   2.091
13129TIP3   OH239331   5.413   7.453   3.102
13129TIP3    H139332   5.330   7.412   3.125
13129TIP3    H239333   5.479   7.403   3.150
13130TIP3   OH239334   8.234   4.002   5.101
13130TIP3    H139335   8.184   3.962   5.172
13130TIP3    H239336   8.168   4.050   5.050
13131TIP3   OH239337   3.540   2.877   0.728
13131TIP3    H139338   3.633   2.856   0.723
13131TIP3    H239339   3.498   2.794   0.751
13132TIP3   OH239340   0.748   2.387   2.753
13132TIP3    H139341   0.813   2.434   2.700
13132TIP3    H239342   0.745   2.435   2.835
13133TIP3   OH239343   7.034   6.764   3.463
13133TIP3    H139344   7.125   6.792   3.471
13133TIP3    H239345   6.984   6.828   3.514
13134TIP3   OH239346   0.539   6.699   3.623
13134TIP3    H139347   0.618   6.750   3.606
13134TIP3    H239348   0.496   6.692   3.538
13135TIP3   OH239349   5.655   3.518   3.137
13135TIP3    H139350   5.566   3.483   3.129
13135TIP3    H239351   5.708   3.459   3.083
13136TIP3   OH239352   4.583   5.779   2.220
13136TIP3    H139353   4.493   5.750   2.234
13136TIP3    H239354   4.594   5.779   2.125
13137TIP3   OH239355   0.326   3.315   2.721
13137TIP3    H139356   0.413   3.339   2.751
13137TIP3    H239357   0.273   3.310   2.801
13138TIP3   OH239358   2.308   5.532   6.256
13138TIP3    H139359   2.384   5.494   6.301
13138TIP3    H239360   2.303   5.487   6.172
13139TIP3   OH239361   0.337   0.497   6.376
13139TIP3    H139362   0.334   0.524   6.284
13139TIP3    H239363   0.248   0.509   6.408
13140TIP3   OH239364   3.092   2.788   2.572
13140TIP3    H139365   3.162   2.749   2.624
13140TIP3    H239366   3.083   2.877   2.607
13141TIP3   OH239367   6.929   5.489   1.949
13141TIP3    H139368   6.937   5.441   2.031
13141TIP3    H239369   6.991   5.446   1.890
13142TIP3   OH239370   7.715   7.823   1.514
13142TIP3    H139371   7.701   7.807   1.607
13142TIP3    H239372   7.809   7.816   1.502
13143TIP3   OH239373   5.075   6.194   0.165
13143TIP3    H139374   5.072   6.287   0.188
13143TIP3    H239375   4.983   6.168   0.160
13144TIP3   OH239376   0.927   3.430   3.279
13144TIP3    H139377   0.981   3.501   3.244
13144TIP3    H239378   0.980   3.391   3.348
13145TIP3   OH239379   5.514   6.186   0.507
13145TIP3    H139380   5.473   6.267   0.475
13145TIP3    H239381   5.586   6.171   0.447
13146TIP3   OH239382   6.298   6.491   0.724
13146TIP3    H139383   6.288   6.583   0.697
13146TIP3    H239384   6.217   6.472   0.770
13147TIP3   OH239385   1.161   1.486   2.285
13147TIP3    H139386   1.174   1.458   2.376
13147TIP3    H239387   1.183   1.409   2.233
13148TIP3   OH239388   1.990   5.347   2.882
13148TIP3    H139389   2.000   5.259   2.847
13148TIP3    H239390   2.078   5.374   2.907
13149TIP3   OH239391   4.328   6.391   1.157
13149TIP3    H139392   4.346   6.483   1.173
13149TIP3    H239393   4.234   6.382   1.171
13150TIP3   OH239394   3.247   7.739   5.827
13150TIP3    H139395   3.286   7.796   5.894
13150TIP3    H239396   3.299   7.756   5.748
13151TIP3   OH239397   2.406   4.512   2.726
13151TIP3    H139398   2.336   4.467   2.773
13151TIP3    H239399   2.372   4.521   2.636
13152TIP3   OH239400   1.852   5.731   5.529
13152TIP3    H139401   1.852   5.784   5.450
13152TIP3    H239402   1.835   5.793   5.600
13153TIP3   OH239403   2.993   4.024   1.837
13153TIP3    H139404   3.017   4.109   1.873
13153TIP3    H239405   2.910   4.003   1.879
13154TIP3   OH239406   0.097   1.034   0.998
13154TIP3    H139407   0.095   1.068   1.088
13154TIP3    H239408   0.008   1.046   0.966
13155TIP3   OH239409   5.223   6.160   0.399
13155TIP3    H139410   5.190   6.165   0.309
13155TIP3    H239411   5.257   6.248   0.416
13156TIP3   OH239412   5.504   3.569   5.139
13156TIP3    H139413   5.432   3.584   5.199
13156TIP3    H239414   5.464   3.570   5.052
13157TIP3   OH239415   0.973   0.196   6.736
13157TIP3    H139416   0.994   0.286   6.760
13157TIP3    H239417   0.893   0.203   6.684
13158TIP3   OH239418   7.751   1.024   1.362
13158TIP3    H139419   7.696   0.946   1.375
13158TIP3    H239420   7.693   1.098   1.380
13159TIP3   OH239421   2.059   1.597   3.928
13159TIP3    H139422   2.023   1.573   4.013
13159TIP3    H239423   1.984   1.596   3.868
13160TIP3   OH239424   1.569   1.786   0.105
13160TIP3    H139425   1.569   1.784   0.200
13160TIP3    H239426   1.605   1.872   0.083
13161TIP3   OH239427   1.562   3.529   1.347
13161TIP3    H139428   1.585   3.576   1.267
13161TIP3    H239429   1.487   3.576   1.382
13162TIP3   OH239430   6.498   4.668   3.652
13162TIP3    H139431   6.431   4.730   3.621
13162TIP3    H239432   6.581   4.713   3.634
13163TIP3   OH239433   6.684   1.733   5.369
13163TIP3    H139434   6.707   1.822   5.345
13163TIP3    H239435   6.689   1.732   5.465
13164TIP3   OH239436   0.984   2.159   2.137
13164TIP3    H139437   1.057   2.112   2.096
13164TIP3    H239438   0.941   2.093   2.191
13165TIP3   OH239439   7.453   3.134   4.453
13165TIP3    H139440   7.433   3.221   4.420
13165TIP3    H239441   7.532   3.147   4.507
13166TIP3   OH239442   8.087   1.496   6.633
13166TIP3    H139443   8.112   1.523   6.545
13166TIP3    H239444   7.999   1.458   6.622
13167TIP3   OH239445   5.977   6.773   4.289
13167TIP3    H139446   6.032   6.832   4.236
13167TIP3    H239447   6.026   6.762   4.370
13168TIP3   OH239448   3.859   7.598   0.734
13168TIP3    H139449   3.947   7.599   0.697
13168TIP3    H239450   3.853   7.514   0.780
13169TIP3   OH239451   0.415   4.148   1.605
13169TIP3    H139452   0.387   4.084   1.540
13169TIP3    H239453   0.362   4.225   1.587
13170TIP3   OH239454   0.556   2.891   0.028
13170TIP3    H139455   0.551   2.860  -0.062
13170TIP3    H239456   0.567   2.812   0.081
13171TIP3   OH239457   8.256   5.487   2.753
13171TIP3    H139458   8.215   5.527   2.676
13171TIP3    H239459   8.200   5.413   2.774
13172TIP3   OH239460   0.566   6.164   0.185
13172TIP3    H139461   0.635   6.203   0.239
13172TIP3    H239462   0.485   6.192   0.227
13173TIP3   OH239463   6.435   1.854   0.380
13173TIP3    H139464   6.375   1.829   0.310
13173TIP3    H239465   6.403   1.808   0.457
13174TIP3   OH239466   5.027   2.730   2.698
13174TIP3    H139467   5.087   2.672   2.652
13174TIP3    H239468   5.080   2.807   2.719
13175TIP3   OH239469   1.121   6.710   5.516
13175TIP3    H139470   1.161   6.629   5.547
13175TIP3    H239471   1.151   6.776   5.579
13176TIP3   OH239472   6.895   5.984   1.109
13176TIP3    H139473   6.819   5.975   1.052
13176TIP3    H239474   6.870   6.050   1.174
13177TIP3   OH239475   0.462   0.968   3.570
13177TIP3    H139476   0.503   0.906   3.632
13177TIP3    H239477   0.430   0.912   3.499
13178TIP3   OH239478   3.882   5.038   5.930
13178TIP3    H139479   3.856   4.952   5.898
13178TIP3    H239480   3.966   5.023   5.974
13179TIP3   OH239481   6.685   5.674   1.935
13179TIP3    H139482   6.663   5.600   1.991
13179TIP3    H239483   6.781   5.679   1.937
13180TIP3   OH239484   6.269   1.115   3.596
13180TIP3    H139485   6.202   1.060   3.636
13180TIP3    H239486   6.244   1.204   3.621
13181TIP3   OH239487   4.133   6.548   5.939
13181TIP3    H139488   4.206   6.487   5.953
13181TIP3    H239489   4.101   6.526   5.851
13182TIP3   OH239490   6.816   1.972   4.331
13182TIP3    H139491   6.835   1.975   4.237
13182TIP3    H239492   6.832   1.881   4.356
13183TIP3   OH239493   8.218   5.527   6.143
13183TIP3    H139494   8.295   5.514   6.197
13183TIP3    H239495   8.144   5.513   6.203
13184TIP3   OH239496   2.290   4.000   3.988
13184TIP3    H139497   2.201   3.969   3.969
13184TIP3    H239498   2.345   3.962   3.920
13185TIP3   OH239499   3.987   0.160   3.062
13185TIP3    H139500   3.963   0.246   3.097
13185TIP3    H239501   3.923   0.100   3.101
13186TIP3   OH239502   3.888   1.931   6.758
13186TIP3    H139503   3.805   1.979   6.757
13186TIP3    H239504   3.875   1.859   6.698
13187TIP3   OH239505   7.419   5.050   4.324
13187TIP3    H139506   7.441   5.137   4.291
13187TIP3    H239507   7.427   4.993   4.248
13188TIP3   OH239508   0.130   2.501   6.338
13188TIP3    H139509   0.082   2.578   6.370
13188TIP3    H239510   0.070   2.428   6.350
13189TIP3   OH239511   2.813   3.963   4.678
13189TIP3    H139512   2.870   3.890   4.702
13189TIP3    H239513   2.724   3.930   4.693
13190TIP3   OH239514   2.546   5.907   3.393
13190TIP3    H139515   2.520   5.862   3.473
13190TIP3    H239516   2.518   5.849   3.322
13191TIP3   OH239517   7.642   4.968   3.694
13191TIP3    H139518   7.549   4.945   3.696
13191TIP3    H239519   7.682   4.904   3.635
13192TIP3   OH239520   1.141   1.393   3.119
13192TIP3    H139521   1.067   1.378   3.177
13192TIP3    H239522   1.191   1.462   3.162
13193TIP3   OH239523   4.029   4.301   1.252
13193TIP3    H139524   4.099   4.364   1.269
13193TIP3    H239525   4.070   4.233   1.199
13194TIP3   OH239526   3.686   6.021   0.344
13194TIP3    H139527   3.674   6.045   0.436
13194TIP3    H239528   3.623   5.949   0.331
13195TIP3   OH239529   0.002   4.527   6.582
13195TIP3    H139530  -0.031   4.612   6.554
13195TIP3    H239531   0.083   4.547   6.629
13196TIP3   OH239532   7.100   1.601   6.348
13196TIP3    H139533   7.183   1.644   6.330
13196TIP3    H239534   7.090   1.537   6.278
13197TIP3   OH239535   7.023   7.646   5.901
13197TIP3    H139536   6.984   7.563   5.929
13197TIP3    H239537   7.064   7.681   5.980
13198TIP3   OH239538   6.241   3.512   5.132
13198TIP3    H139539   6.203   3.424   5.139
13198TIP3    H239540   6.254   3.525   5.038
13199TIP3   OH239541   0.864   4.101   5.498
13199TIP3    H139542   0.804   4.139   5.562
13199TIP3    H239543   0.840   4.008   5.495
13200TIP3   OH239544   5.445   7.297   1.086
13200TIP3    H139545   5.522   7.240   1.089
13200TIP3    H239546   5.470   7.373   1.139
13201TIP3   OH239547   7.862   0.134   5.605
13201TIP3    H139548   7.895   0.049   5.634
13201TIP3    H239549   7.829   0.119   5.517
13202TIP3   OH239550   6.906   3.710   1.630
13202TIP3    H139551   6.964   3.774   1.672
13202TIP3    H239552   6.889   3.747   1.543
13203TIP3   OH239553   4.916   1.128   3.620
13203TIP3    H139554   4.883   1.205   3.574
13203TIP3    H239555   4.954   1.163   3.701
13204TIP3   OH239556   3.138   3.829   3.747
13204TIP3    H139557   3.056   3.816   3.796
13204TIP3    H239558   3.170   3.914   3.777
13205TIP3   OH239559   6.613   4.643   1.753
13205TIP3    H139560   6.538   4.588   1.772
13205TIP3    H239561   6.642   4.675   1.839
13206TIP3   OH239562   1.562   6.585   5.007
13206TIP3    H139563   1.584   6.574   4.914
13206TIP3    H239564   1.622   6.525   5.052
13207TIP3   OH239565   5.007   4.497   3.196
13207TIP3    H139566   4.999   4.580   3.244
13207TIP3    H239567   4.969   4.515   3.110
13208TIP3   OH239568   7.188   0.900   3.067
13208TIP3    H139569   7.279   0.882   3.043
13208TIP3    H239570   7.156   0.957   2.997
13209TIP3   OH239571   6.940   7.379   4.505
13209TIP3    H139572   6.859   7.422   4.534
13209TIP3    H239573   6.970   7.431   4.431
13210TIP3   OH239574   1.640   4.944   1.908
13210TIP3    H139575   1.558   4.909   1.941
13210TIP3    H239576   1.708   4.891   1.950
13211TIP3   OH239577   8.087   1.452   2.930
13211TIP3    H139578   8.051   1.475   3.016
13211TIP3    H239579   8.094   1.535   2.884
13212TIP3   OH239580   6.036   2.013   2.710
13212TIP3    H139581   6.108   2.075   2.724
13212TIP3    H239582   5.959   2.059   2.743
13213TIP3   OH239583   0.531   3.040   5.374
13213TIP3    H139584   0.441   3.072   5.383
13213TIP3    H239585   0.568   3.050   5.462
13214TIP3   OH239586   3.990   3.582   2.591
13214TIP3    H139587   4.075   3.626   2.587
13214TIP3    H239588   3.999   3.519   2.663
13215TIP3   OH239589   1.209   2.948   5.646
13215TIP3    H139590   1.224   2.856   5.624
13215TIP3    H239591   1.180   2.988   5.564
13216TIP3   OH239592   4.685   6.324   6.780
13216TIP3    H139593   4.752   6.297   6.717
13216TIP3    H239594   4.613   6.356   6.727
13217TIP3   OH239595   1.313   6.222   3.642
13217TIP3    H139596   1.284   6.176   3.720
13217TIP3    H239597   1.347   6.154   3.584
13218TIP3   OH239598   5.799   6.471   6.388
13218TIP3    H139599   5.732   6.406   6.410
13218TIP3    H239600   5.755   6.555   6.394
13219TIP3   OH239601   4.001   0.334   2.115
13219TIP3    H139602   4.072   0.339   2.179
13219TIP3    H239603   3.979   0.241   2.110
13220TIP3   OH239604   1.043   3.125   3.821
13220TIP3    H139605   1.131   3.086   3.823
13220TIP3    H239606   1.004   3.091   3.740
13221TIP3   OH239607   2.563   4.697   1.600
13221TIP3    H139608   2.659   4.698   1.597
13221TIP3    H239609   2.540   4.762   1.666
13222TIP3   OH239610   7.457   2.287   5.161
13222TIP3    H139611   7.508   2.206   5.162
13222TIP3    H239612   7.376   2.265   5.207
13223TIP3   OH239613   7.485   6.840   2.635
13223TIP3    H139614   7.576   6.816   2.616
13223TIP3    H239615   7.490   6.892   2.715
13224TIP3   OH239616   7.326   0.414   3.131
13224TIP3    H139617   7.322   0.498   3.176
13224TIP3    H239618   7.386   0.429   3.058
13225TIP3   OH239619   5.781   0.492   6.735
13225TIP3    H139620   5.696   0.453   6.752
13225TIP3    H239621   5.844   0.421   6.749
13226TIP3   OH239622   3.296   5.622   5.714
13226TIP3    H139623   3.220   5.572   5.742
13226TIP3    H239624   3.329   5.575   5.637
13227TIP3   OH239625   4.519   2.607   6.072
13227TIP3    H139626   4.471   2.558   6.004
13227TIP3    H239627   4.571   2.541   6.117
13228TIP3   OH239628   6.631   4.633   6.633
13228TIP3    H139629   6.725   4.616   6.630
13228TIP3    H239630   6.621   4.701   6.700
13229TIP3   OH239631   2.681   6.166   1.795
13229TIP3    H139632   2.723   6.252   1.795
13229TIP3    H239633   2.627   6.166   1.716
13230TIP3   OH239634   2.004   6.940   2.192
13230TIP3    H139635   1.937   7.008   2.182
13230TIP3    H239636   2.025   6.942   2.285
13231TIP3   OH239637   3.513   4.995   6.560
13231TIP3    H139638   3.527   5.060   6.629
13231TIP3    H239639   3.510   4.911   6.606
13232TIP3   OH239640   5.549   4.817   0.263
13232TIP3    H139641   5.611   4.844   0.195
13232TIP3    H239642   5.560   4.883   0.331
13233TIP3   OH239643   5.787   7.301   3.964
13233TIP3    H139644   5.843   7.378   3.977
13233TIP3    H239645   5.719   7.332   3.904
13234TIP3   OH239646   2.885   7.319   4.305
13234TIP3    H139647   2.926   7.247   4.256
13234TIP3    H239648   2.941   7.395   4.288
13235TIP3   OH239649   6.153   5.650   5.789
13235TIP3    H139650   6.095   5.714   5.831
13235TIP3    H239651   6.167   5.583   5.856
13236TIP3   OH239652   4.947   2.484   5.959
13236TIP3    H139653   5.033   2.486   5.917
13236TIP3    H239654   4.888   2.448   5.893
13237TIP3   OH239655   5.510   5.876   0.960
13237TIP3    H139656   5.501   5.892   0.866
13237TIP3    H239657   5.535   5.784   0.966
13238TIP3   OH239658   1.639   2.732   0.421
13238TIP3    H139659   1.632   2.804   0.358
13238TIP3    H239660   1.689   2.665   0.375
13239TIP3   OH239661   2.370   5.269   4.942
13239TIP3    H139662   2.398   5.183   4.973
13239TIP3    H239663   2.337   5.314   5.020
13240TIP3   OH239664   6.707   2.430   3.326
13240TIP3    H139665   6.730   2.356   3.383
13240TIP3    H239666   6.612   2.434   3.328
13241TIP3   OH239667   4.761   2.707   4.744
13241TIP3    H139668   4.804   2.764   4.807
13241TIP3    H239669   4.808   2.624   4.750
13242TIP3   OH239670   6.740   7.131   5.616
13242TIP3    H139671   6.731   7.057   5.556
13242TIP3    H239672   6.719   7.208   5.563
13243TIP3   OH239673   7.602   2.021   3.142
13243TIP3    H139674   7.508   2.009   3.155
13243TIP3    H239675   7.609   2.102   3.092
13244TIP3   OH239676   3.839   2.148   5.636
13244TIP3    H139677   3.889   2.090   5.579
13244TIP3    H239678   3.797   2.089   5.699
13245TIP3   OH239679   3.078   6.092   5.121
13245TIP3    H139680   2.996   6.043   5.127
13245TIP3    H239681   3.135   6.037   5.067
13246TIP3   OH239682   4.670   3.371   2.372
13246TIP3    H139683   4.595   3.394   2.318
13246TIP3    H239684   4.682   3.277   2.358
13247TIP3   OH239685   6.433   6.810   1.075
13247TIP3    H139686   6.344   6.811   1.041
13247TIP3    H239687   6.422   6.802   1.170
13248TIP3   OH239688   7.246   3.811   6.799
13248TIP3    H139689   7.312   3.801   6.731
13248TIP3    H239690   7.222   3.904   6.795
13249TIP3   OH239691   8.160   0.022   1.500
13249TIP3    H139692   8.135   0.091   1.562
13249TIP3    H239693   8.081  -0.030   1.488
13250TIP3   OH239694   6.364   6.269   5.486
13250TIP3    H139695   6.307   6.336   5.523
13250TIP3    H239696   6.303   6.202   5.453
13251TIP3   OH239697   7.997   1.736   5.583
13251TIP3    H139698   8.076   1.754   5.532
13251TIP3    H239699   8.012   1.649   5.620
13252TIP3   OH239700   7.477   1.265   5.450
13252TIP3    H139701   7.405   1.253   5.387
13252TIP3    H239702   7.539   1.195   5.428
13253TIP3   OH239703   2.994   1.007   2.454
13253TIP3    H139704   2.932   1.051   2.396
13253TIP3    H239705   2.944   0.935   2.493
13254TIP3   OH239706   1.574   1.350   1.832
13254TIP3    H139707   1.571   1.319   1.742
13254TIP3    H239708   1.666   1.339   1.858
13255TIP3   OH239709   2.257   3.915   0.046
13255TIP3    H139710   2.345   3.888   0.019
13255TIP3    H239711   2.272   3.984   0.111
13256TIP3   OH239712   6.998   5.001   0.628
13256TIP3    H139713   7.045   5.052   0.693
13256TIP3    H239714   6.911   5.041   0.624
13257TIP3   OH239715   3.239   6.934   5.348
13257TIP3    H139716   3.311   6.996   5.338
13257TIP3    H239717   3.279   6.848   5.332
13258TIP3   OH239718   3.646   7.249   0.652
13258TIP3    H139719   3.714   7.233   0.586
13258TIP3    H239720   3.572   7.195   0.623
13259TIP3   OH239721   4.767   3.718   0.346
13259TIP3    H139722   4.764   3.677   0.260
13259TIP3    H239723   4.826   3.663   0.397
13260TIP3   OH239724   6.972   7.197   3.646
13260TIP3    H139725   6.938   7.203   3.736
13260TIP3    H239726   6.934   7.273   3.601
13261TIP3   OH239727   1.092   6.235   4.049
13261TIP3    H139728   1.099   6.316   4.100
13261TIP3    H239729   1.106   6.165   4.112
13262TIP3   OH239730   1.942   4.543   3.358
13262TIP3    H139731   1.946   4.603   3.432
13262TIP3    H239732   1.868   4.486   3.378
13263TIP3   OH239733   7.629   6.392   2.982
13263TIP3    H139734   7.603   6.478   3.016
13263TIP3    H239735   7.722   6.385   3.001
13264TIP3   OH239736   2.495   6.909   0.646
13264TIP3    H139737   2.528   6.835   0.696
13264TIP3    H239738   2.508   6.885   0.555
13265TIP3   OH239739   5.325   1.481   5.597
13265TIP3    H139740   5.270   1.413   5.558
13265TIP3    H239741   5.320   1.554   5.535
13266TIP3   OH239742   6.698   4.944   0.277
13266TIP3    H139743   6.706   4.908   0.189
13266TIP3    H239744   6.755   5.020   0.278
13267TIP3   OH239745   6.881   3.572   5.427
13267TIP3    H139746   6.921   3.498   5.472
13267TIP3    H239747   6.946   3.642   5.432
13268TIP3   OH239748   1.047   5.033   3.154
13268TIP3    H139749   1.037   5.069   3.242
13268TIP3    H239750   1.023   4.941   3.163
13269TIP3   OH239751   7.280   5.746   6.653
13269TIP3    H139752   7.231   5.695   6.718
13269TIP3    H239753   7.327   5.680   6.601
13270TIP3   OH239754   5.583   1.468   5.610
13270TIP3    H139755   5.614   1.528   5.542
13270TIP3    H239756   5.488   1.464   5.597
13271TIP3   OH239757   8.208   3.523   0.770
13271TIP3    H139758   8.193   3.429   0.782
13271TIP3    H239759   8.143   3.549   0.706
13272TIP3   OH239760   4.551   4.005   1.740
13272TIP3    H139761   4.504   3.989   1.659
13272TIP3    H239762   4.563   4.100   1.743
13273TIP3   OH239763   6.629   7.321   1.432
13273TIP3    H139764   6.579   7.282   1.359
13273TIP3    H239765   6.573   7.392   1.463
13274TIP3   OH239766   2.574   4.693   5.692
13274TIP3    H139767   2.621   4.770   5.661
13274TIP3    H239768   2.640   4.624   5.693
13275TIP3   OH239769   0.102   4.159   5.268
13275TIP3    H139770   0.181   4.106   5.274
13275TIP3    H239771   0.056   4.125   5.191
13276TIP3   OH239772   5.672   5.380   1.899
13276TIP3    H139773   5.762   5.389   1.932
13276TIP3    H239774   5.637   5.469   1.902
13277TIP3   OH239775   6.605   2.553   2.975
13277TIP3    H139776   6.634   2.626   2.919
13277TIP3    H239777   6.527   2.587   3.020
13278TIP3   OH239778   2.337   3.895   6.714
13278TIP3    H139779   2.368   3.983   6.735
13278TIP3    H239780   2.367   3.880   6.625
13279TIP3   OH239781   6.741   6.538   1.962
13279TIP3    H139782   6.757   6.582   2.045
13279TIP3    H239783   6.674   6.472   1.983
13280TIP3   OH239784   8.246   4.583   0.433
13280TIP3    H139785   8.194   4.577   0.513
13280TIP3    H239786   8.333   4.611   0.462
13281TIP3   OH239787   4.082   6.359   1.401
13281TIP3    H139788   4.037   6.401   1.474
13281TIP3    H239789   4.175   6.369   1.421
13282TIP3   OH239790   4.162   4.024   3.206
13282TIP3    H139791   4.217   4.101   3.190
13282TIP3    H239792   4.091   4.057   3.261
13283TIP3   OH239793   1.109   0.375   4.949
13283TIP3    H139794   1.065   0.352   4.867
13283TIP3    H239795   1.103   0.295   5.002
13284TIP3   OH239796   6.162   6.647   1.206
13284TIP3    H139797   6.216   6.698   1.266
13284TIP3    H239798   6.159   6.699   1.126
13285TIP3   OH239799   2.778   4.007   0.083
13285TIP3    H139800   2.850   3.945   0.067
13285TIP3    H239801   2.766   4.052  -0.001
13286TIP3   OH239802   8.036   5.814   1.048
13286TIP3    H139803   7.986   5.734   1.062
13286TIP3    H239804   7.989   5.860   0.978
13287TIP3   OH239805   6.633   5.675   5.988
13287TIP3    H139806   6.618   5.588   6.024
13287TIP3    H239807   6.728   5.684   5.986
13288TIP3   OH239808   4.766   4.557   0.069
13288TIP3    H139809   4.699   4.493   0.045
13288TIP3    H239810   4.718   4.640   0.079
13289TIP3   OH239811   0.456   4.684   1.177
13289TIP3    H139812   0.547   4.653   1.176
13289TIP3    H239813   0.442   4.719   1.089
13290TIP3   OH239814   1.797   4.867   2.687
13290TIP3    H139815   1.823   4.798   2.749
13290TIP3    H239816   1.710   4.893   2.715
13291TIP3   OH239817   5.714   0.975   6.525
13291TIP3    H139818   5.635   1.004   6.569
13291TIP3    H239819   5.717   0.881   6.540
13292TIP3   OH239820   2.892   4.519   5.164
13292TIP3    H139821   2.802   4.538   5.136
13292TIP3    H239822   2.922   4.450   5.105
13293TIP3   OH239823   1.490   0.120   3.695
13293TIP3    H139824   1.427   0.151   3.759
13293TIP3    H239825   1.554   0.070   3.746
13294TIP3   OH239826   7.323   7.231   0.302
13294TIP3    H139827   7.256   7.162   0.295
13294TIP3    H239828   7.292   7.300   0.244
13295TIP3   OH239829   4.066   7.225   1.683
13295TIP3    H139830   4.063   7.185   1.770
13295TIP3    H239831   4.017   7.306   1.691
13296TIP3   OH239832   5.505   0.131   3.238
13296TIP3    H139833   5.577   0.191   3.215
13296TIP3    H239834   5.443   0.139   3.165
13297TIP3   OH239835   8.310   5.096   3.801
13297TIP3    H139836   8.324   5.125   3.891
13297TIP3    H239837   8.217   5.071   3.798
13298TIP3   OH239838   4.485   6.007   3.985
13298TIP3    H139839   4.487   6.042   4.074
13298TIP3    H239840   4.413   6.053   3.942
13299TIP3   OH239841   7.327   3.158   2.536
13299TIP3    H139842   7.422   3.148   2.531
13299TIP3    H239843   7.312   3.204   2.619
13300TIP3   OH239844   6.351   6.618   0.293
13300TIP3    H139845   6.312   6.547   0.243
13300TIP3    H239846   6.300   6.621   0.375
13301TIP3   OH239847   4.033   0.789   4.635
13301TIP3    H139848   4.034   0.764   4.543
13301TIP3    H239849   4.103   0.737   4.675
13302TIP3   OH239850   4.584   6.237   2.531
13302TIP3    H139851   4.668   6.192   2.543
13302TIP3    H239852   4.525   6.169   2.496
13303TIP3   OH239853   2.910   7.145   1.760
13303TIP3    H139854   2.820   7.112   1.749
13303TIP3    H239855   2.951   7.129   1.675
13304TIP3   OH239856   1.546   4.843   0.227
13304TIP3    H139857   1.548   4.748   0.241
13304TIP3    H239858   1.559   4.853   0.133
13305TIP3   OH239859   3.541   1.383   2.695
13305TIP3    H139860   3.505   1.378   2.783
13305TIP3    H239861   3.476   1.340   2.639
13306TIP3   OH239862   2.711   0.759   5.915
13306TIP3    H139863   2.703   0.821   5.842
13306TIP3    H239864   2.804   0.735   5.915
13307TIP3   OH239865   1.927   5.268   0.522
13307TIP3    H139866   1.933   5.202   0.591
13307TIP3    H239867   1.833   5.283   0.512
13308TIP3   OH239868   2.575   2.572   0.025
13308TIP3    H139869   2.623   2.539  -0.051
13308TIP3    H239870   2.496   2.519   0.028
13309TIP3   OH239871   3.536   1.723   0.060
13309TIP3    H139872   3.522   1.773  -0.021
13309TIP3    H239873   3.556   1.634   0.029
13310TIP3   OH239874   3.834   2.259   2.722
13310TIP3    H139875   3.914   2.299   2.688
13310TIP3    H239876   3.827   2.292   2.811
13311TIP3   OH239877   2.033   0.738   5.009
13311TIP3    H139878   2.085   0.803   5.055
13311TIP3    H239879   2.041   0.659   5.062
13312TIP3   OH239880   7.433   0.650   3.228
13312TIP3    H139881   7.501   0.651   3.295
13312TIP3    H239882   7.481   0.636   3.146
13313TIP3   OH239883   3.029   5.002   5.471
13313TIP3    H139884   3.052   4.915   5.505
13313TIP3    H239885   2.944   4.989   5.429
13314TIP3   OH239886   3.738   1.354   3.331
13314TIP3    H139887   3.729   1.259   3.339
13314TIP3    H239888   3.824   1.367   3.291
13315TIP3   OH239889   2.733   1.924   5.244
13315TIP3    H139890   2.699   1.840   5.213
13315TIP3    H239891   2.716   1.924   5.338
13316TIP3   OH239892   6.300   5.934   1.460
13316TIP3    H139893   6.324   6.024   1.437
13316TIP3    H239894   6.247   5.943   1.539
13317TIP3   OH239895   4.631   3.896   4.096
13317TIP3    H139896   4.697   3.854   4.152
13317TIP3    H239897   4.607   3.829   4.033
13318TIP3   OH239898   4.078   3.419   6.207
13318TIP3    H139899   4.000   3.379   6.246
13318TIP3    H239900   4.055   3.429   6.114
13319TIP3   OH239901   3.846   1.005   4.679
13319TIP3    H139902   3.787   1.049   4.617
13319TIP3    H239903   3.858   0.917   4.643
13320TIP3   OH239904   4.908   1.888   1.389
13320TIP3    H139905   4.904   1.951   1.462
13320TIP3    H239906   4.826   1.839   1.395
13321TIP3   OH239907   3.735   3.523   6.219
13321TIP3    H139908   3.774   3.505   6.305
13321TIP3    H239909   3.786   3.596   6.184
13322TIP3   OH239910   6.716   0.059   3.253
13322TIP3    H139911   6.630   0.016   3.257
13322TIP3    H239912   6.756   0.027   3.173
13323TIP3   OH239913   1.542   1.648   1.638
13323TIP3    H139914   1.614   1.587   1.618
13323TIP3    H239915   1.585   1.723   1.680
13324TIP3   OH239916   3.241   4.274   1.148
13324TIP3    H139917   3.307   4.204   1.140
13324TIP3    H239918   3.274   4.329   1.219
13325TIP3   OH239919   5.742   5.125   2.551
13325TIP3    H139920   5.823   5.154   2.511
13325TIP3    H239921   5.689   5.094   2.478
13326TIP3   OH239922   6.386   0.600   3.026
13326TIP3    H139923   6.300   0.621   2.989
13326TIP3    H239924   6.368   0.575   3.117
13327TIP3   OH239925   1.288   1.454   0.656
13327TIP3    H139926   1.343   1.447   0.734
13327TIP3    H239927   1.306   1.541   0.622
13328TIP3   OH239928   2.770   2.486   1.658
13328TIP3    H139929   2.807   2.407   1.621
13328TIP3    H239930   2.844   2.547   1.664
13329TIP3   OH239931   1.575   0.546   4.986
13329TIP3    H139932   1.498   0.602   4.971
13329TIP3    H239933   1.644   0.606   5.013
13330TIP3   OH239934   4.440   4.487   2.105
13330TIP3    H139935   4.497   4.554   2.067
13330TIP3    H239936   4.462   4.488   2.198
13331TIP3   OH239937   4.097   1.338   3.949
13331TIP3    H139938   4.030   1.387   3.998
13331TIP3    H239939   4.074   1.351   3.857
13332TIP3   OH239940   4.348   4.026   5.991
13332TIP3    H139941   4.297   3.972   6.051
13332TIP3    H239942   4.432   4.039   6.036
13333TIP3   OH239943   8.099   7.125   4.536
13333TIP3    H139944   8.047   7.047   4.552
13333TIP3    H239945   8.049   7.176   4.473
13334TIP3   OH239946   3.533   7.074   6.145
13334TIP3    H139947   3.629   7.082   6.147
13334TIP3    H239948   3.506   7.079   6.237
13335TIP3   OH239949   0.599   2.049   4.865
13335TIP3    H139950   0.515   2.018   4.898
13335TIP3    H239951   0.621   2.124   4.920
13336TIP3   OH239952   0.923   1.972   2.323
13336TIP3    H139953   0.901   1.901   2.262
13336TIP3    H239954   0.838   2.005   2.352
13337TIP3   OH239955   0.588   0.686   5.635
13337TIP3    H139956   0.523   0.628   5.596
13337TIP3    H239957   0.646   0.708   5.562
13338TIP3   OH239958   4.405   1.546   2.281
13338TIP3    H139959   4.401   1.490   2.204
13338TIP3    H239960   4.341   1.615   2.264
13339TIP3   OH239961   3.551   4.540   1.301
13339TIP3    H139962   3.520   4.546   1.210
13339TIP3    H239963   3.570   4.446   1.313
13340TIP3   OH239964   4.566   1.808   5.938
13340TIP3    H139965   4.612   1.794   6.020
13340TIP3    H239966   4.475   1.827   5.964
13341TIP3   OH239967   3.082   7.126   3.087
13341TIP3    H139968   3.006   7.085   3.127
13341TIP3    H239969   3.050   7.212   3.057
13342TIP3   OH239970   8.232   7.138   0.415
13342TIP3    H139971   8.151   7.113   0.370
13342TIP3    H239972   8.253   7.224   0.379
13343TIP3   OH239973   6.149   1.790   0.937
13343TIP3    H139974   6.098   1.742   0.873
13343TIP3    H239975   6.206   1.724   0.977
13344TIP3   OH239976   4.916   2.672   6.437
13344TIP3    H139977   4.982   2.654   6.505
13344TIP3    H239978   4.938   2.612   6.366
13345TIP3   OH239979   7.976   1.834   4.669
13345TIP3    H139980   8.008   1.918   4.703
13345TIP3    H239981   7.969   1.848   4.574
13346TIP3   OH239982   3.951   5.553   5.982
13346TIP3    H139983   3.933   5.641   5.948
13346TIP3    H239984   3.946   5.563   6.078
13347TIP3   OH239985   0.458   3.433   3.059
13347TIP3    H139986   0.454   3.479   2.975
13347TIP3    H239987   0.372   3.448   3.099
13348TIP3   OH239988   4.634   6.669   3.674
13348TIP3    H139989   4.572   6.607   3.712
13348TIP3    H239990   4.710   6.616   3.651
13349TIP3   OH239991   2.372   4.591   0.337
13349TIP3    H139992   2.435   4.519   0.329
13349TIP3    H239993   2.335   4.581   0.424
13350TIP3   OH239994   2.795   5.918   0.360
13350TIP3    H139995   2.770   5.921   0.452
13350TIP3    H239996   2.746   5.844   0.323
13351TIP3   OH239997   4.553   6.819   1.733
13351TIP3    H139998   4.530   6.910   1.711
13351TIP3    H239999   4.610   6.827   1.809
13352TIP3   OH240000   2.857   5.801   1.748
13352TIP3    H140001   2.815   5.716   1.735
13352TIP3    H240002   2.801   5.847   1.811
13353TIP3   OH240003   6.884  -0.002   4.061
13353TIP3    H140004   6.870  -0.086   4.017
13353TIP3    H240005   6.865   0.064   3.994
13354TIP3   OH240006   7.530   5.351   5.764
13354TIP3    H140007   7.568   5.263   5.770
13354TIP3    H240008   7.441   5.341   5.797
13355TIP3   OH240009   6.758   6.678   2.205
13355TIP3    H140010   6.774   6.656   2.296
13355TIP3    H240011   6.829   6.738   2.182
13356TIP3   OH240012   6.290   3.628   4.368
13356TIP3    H140013   6.224   3.643   4.435
13356TIP3    H240014   6.243   3.637   4.285
13357TIP3   OH240015   1.065   1.118   2.560
13357TIP3    H140016   0.986   1.082   2.599
13357TIP3    H240017   1.124   1.133   2.634
13358TIP3   OH240018   5.829   4.327   5.255
13358TIP3    H140019   5.898   4.262   5.268
13358TIP3    H240020   5.780   4.327   5.337
13359TIP3   OH240021   2.803   2.230   4.323
13359TIP3    H140022   2.836   2.197   4.240
13359TIP3    H240023   2.875   2.282   4.359
13360TIP3   OH240024   2.134   4.821   4.962
13360TIP3    H140025   2.158   4.823   4.869
13360TIP3    H240026   2.163   4.906   4.996
13361TIP3   OH240027   3.389   1.744   3.901
13361TIP3    H140028   3.462   1.691   3.934
13361TIP3    H240029   3.332   1.757   3.977
13362TIP3   OH240030   6.194   3.377   0.797
13362TIP3    H140031   6.247   3.314   0.747
13362TIP3    H240032   6.174   3.332   0.879
13363TIP3   OH240033   7.237   2.813   1.179
13363TIP3    H140034   7.229   2.744   1.244
13363TIP3    H240035   7.150   2.820   1.140
13364TIP3   OH240036   5.780   1.288   0.859
13364TIP3    H140037   5.711   1.321   0.916
13364TIP3    H240038   5.743   1.209   0.819
13365TIP3   OH240039   0.710   3.077   3.734
13365TIP3    H140040   0.759   3.043   3.660
13365TIP3    H240041   0.630   3.024   3.737
13366TIP3   OH240042   8.078   7.596   2.843
13366TIP3    H140043   8.079   7.686   2.876
13366TIP3    H240044   8.170   7.570   2.842
13367TIP3   OH240045   1.088   0.931   2.383
13367TIP3    H140046   1.040   0.961   2.306
13367TIP3    H240047   1.077   1.002   2.447
13368TIP3   OH240048   1.558   2.493   4.512
13368TIP3    H140049   1.496   2.565   4.500
13368TIP3    H240050   1.504   2.420   4.542
13369TIP3   OH240051   1.233   4.333   4.349
13369TIP3    H140052   1.270   4.356   4.434
13369TIP3    H240053   1.193   4.247   4.363
13370TIP3   OH240054   2.352   2.646   0.535
13370TIP3    H140055   2.423   2.631   0.472
13370TIP3    H240056   2.346   2.564   0.584
13371TIP3   OH240057   7.452   4.171   0.752
13371TIP3    H140058   7.405   4.100   0.795
13371TIP3    H240059   7.540   4.166   0.788
13372TIP3   OH240060   5.103   3.091   4.727
13372TIP3    H140061   5.066   3.177   4.708
13372TIP3    H240062   5.177   3.109   4.785
13373TIP3   OH240063   5.783   7.775   6.800
13373TIP3    H140064   5.798   7.690   6.841
13373TIP3    H240065   5.745   7.755   6.714
13374TIP3   OH240066   2.216   0.318   4.418
13374TIP3    H140067   2.221   0.409   4.390
13374TIP3    H240068   2.270   0.314   4.498
13375TIP3   OH240069   4.638   5.682   6.770
13375TIP3    H140070   4.576   5.755   6.763
13375TIP3    H240071   4.585   5.608   6.798
13376TIP3   OH240072   4.268   1.226   1.678
13376TIP3    H140073   4.221   1.276   1.611
13376TIP3    H240074   4.200   1.171   1.718
13377TIP3   OH240075   1.558   2.796   2.299
13377TIP3    H140076   1.506   2.875   2.286
13377TIP3    H240077   1.649   2.827   2.296
13378TIP3   OH240078   4.286   5.016   5.229
13378TIP3    H140079   4.283   4.951   5.299
13378TIP3    H240080   4.195   5.026   5.202
13379TIP3   OH240081   2.239   5.851   4.669
13379TIP3    H140082   2.297   5.847   4.745
13379TIP3    H240083   2.296   5.875   4.596
13380TIP3   OH240084   4.101   2.704   3.989
13380TIP3    H140085   4.154   2.744   4.058
13380TIP3    H240086   4.142   2.732   3.907
13381TIP3   OH240087   7.718   1.836   1.164
13381TIP3    H140088   7.644   1.785   1.196
13381TIP3    H240089   7.790   1.816   1.224
13382TIP3   OH240090   2.611   4.693   0.858
13382TIP3    H140091   2.642   4.672   0.770
13382TIP3    H240092   2.532   4.639   0.868
13383TIP3   OH240093   3.019   4.036   5.011
13383TIP3    H140094   3.018   3.941   5.001
13383TIP3    H240095   2.927   4.062   5.000
13384TIP3   OH240096   2.865   5.717   5.686
13384TIP3    H140097   2.814   5.787   5.644
13384TIP3    H240098   2.901   5.758   5.764
13385TIP3   OH240099   1.578   3.860   1.882
13385TIP3    H140100   1.593   3.880   1.789
13385TIP3    H240101   1.508   3.919   1.909
13386TIP3   OH240102   6.020   5.693   2.294
13386TIP3    H140103   5.944   5.720   2.243
13386TIP3    H240104   6.028   5.760   2.362
13387TIP3   OH240105   0.247   0.073   5.308
13387TIP3    H140106   0.217   0.086   5.217
13387TIP3    H240107   0.301  -0.006   5.303
13388TIP3   OH240108   1.325   0.871   6.069
13388TIP3    H140109   1.407   0.892   6.112
13388TIP3    H240110   1.309   0.944   6.009
13389TIP3   OH240111   7.876   0.951   5.390
13389TIP3    H140112   7.798   0.898   5.401
13389TIP3    H240113   7.894   0.948   5.296
13390TIP3   OH240114   0.784   1.655   4.203
13390TIP3    H140115   0.719   1.723   4.217
13390TIP3    H240116   0.758   1.584   4.262
13391TIP3   OH240117   1.960   7.609   2.355
13391TIP3    H140118   1.901   7.661   2.410
13391TIP3    H240119   1.919   7.523   2.350
13392TIP3   OH240120   5.192   5.611   4.651
13392TIP3    H140121   5.282   5.642   4.639
13392TIP3    H240122   5.162   5.592   4.562
13393TIP3   OH240123   0.148   7.213   6.648
13393TIP3    H140124   0.170   7.173   6.732
13393TIP3    H240125   0.232   7.223   6.603
13394TIP3   OH240126   5.287   1.692   5.423
13394TIP3    H140127   5.334   1.775   5.422
13394TIP3    H240128   5.195   1.716   5.414
13395TIP3   OH240129   0.946   0.086   0.837
13395TIP3    H140130   0.854   0.072   0.814
13395TIP3    H240131   0.954   0.055   0.927
13396TIP3   OH240132   7.716   4.194   0.926
13396TIP3    H140133   7.705   4.242   0.844
13396TIP3    H240134   7.763   4.255   0.983
13397TIP3   OH240135   5.562   0.513   2.034
13397TIP3    H140136   5.651   0.486   2.059
13397TIP3    H240137   5.569   0.607   2.018
13398TIP3   OH240138   1.386   7.058   1.827
13398TIP3    H140139   1.374   7.113   1.905
13398TIP3    H240140   1.300   7.017   1.814
13399TIP3   OH240141   6.319   0.432   3.889
13399TIP3    H140142   6.359   0.417   3.803
13399TIP3    H240143   6.229   0.402   3.879
13400TIP3   OH240144   6.598   4.463   2.527
13400TIP3    H140145   6.653   4.389   2.554
13400TIP3    H240146   6.523   4.423   2.484
13401TIP3   OH240147   7.613   2.263   2.996
13401TIP3    H140148   7.673   2.337   2.992
13401TIP3    H240149   7.646   2.201   2.930
13402TIP3   OH240150   1.079   5.227   1.868
13402TIP3    H140151   1.170   5.210   1.842
13402TIP3    H240152   1.087   5.284   1.944
13403TIP3   OH240153   8.057   0.609   2.587
13403TIP3    H140154   8.062   0.641   2.677
13403TIP3    H240155   8.109   0.528   2.587
13404TIP3   OH240156   3.874   6.394   4.820
13404TIP3    H140157   3.920   6.455   4.763
13404TIP3    H240158   3.907   6.308   4.796
13405TIP3   OH240159   7.391   7.085   6.490
13405TIP3    H140160   7.319   7.121   6.541
13405TIP3    H240161   7.376   7.118   6.401
13406TIP3   OH240162   3.853   6.878   2.163
13406TIP3    H140163   3.766   6.839   2.150
13406TIP3    H240164   3.903   6.810   2.208
13407TIP3   OH240165   5.933   2.593   1.020
13407TIP3    H140166   5.976   2.678   1.027
13407TIP3    H240167   5.847   2.612   0.982
13408TIP3   OH240168   3.668   5.553   2.769
13408TIP3    H140169   3.679   5.585   2.680
13408TIP3    H240170   3.632   5.465   2.759
13409TIP3   OH240171   3.210   4.733   2.711
13409TIP3    H140172   3.209   4.822   2.745
13409TIP3    H240173   3.174   4.741   2.622
13410TIP3   OH240174   8.233   0.733   5.813
13410TIP3    H140175   8.185   0.720   5.731
13410TIP3    H240176   8.206   0.820   5.843
13411TIP3   OH240177   7.112   1.058   0.738
13411TIP3    H140178   7.032   1.038   0.690
13411TIP3    H240179   7.130   0.979   0.788
13412TIP3   OH240180   4.490   5.070   2.330
13412TIP3    H140181   4.533   5.142   2.284
13412TIP3    H240182   4.501   5.092   2.423
13413TIP3   OH240183   4.887   3.744   1.255
13413TIP3    H140184   4.959   3.757   1.194
13413TIP3    H240185   4.854   3.656   1.235
13414TIP3   OH240186   2.765   5.246   2.364
13414TIP3    H140187   2.681   5.273   2.402
13414TIP3    H240188   2.742   5.183   2.296
13415TIP3   OH240189   5.314   1.882   3.057
13415TIP3    H140190   5.237   1.874   3.113
13415TIP3    H240191   5.287   1.937   2.984
13416TIP3   OH240192   6.530   1.134   3.692
13416TIP3    H140193   6.596   1.099   3.633
13416TIP3    H240194   6.454   1.150   3.637
13417TIP3   OH240195   7.253   3.163   4.641
13417TIP3    H140196   7.276   3.252   4.668
13417TIP3    H240197   7.313   3.143   4.570
13418TIP3   OH240198   3.541   1.335   3.518
13418TIP3    H140199   3.606   1.358   3.452
13418TIP3    H240200   3.544   1.239   3.521
13419TIP3   OH240201   6.417   5.642   5.747
13419TIP3    H140202   6.322   5.643   5.756
13419TIP3    H240203   6.442   5.551   5.763
13420TIP3   OH240204   1.948   7.260   2.634
13420TIP3    H140205   1.898   7.251   2.716
13420TIP3    H240206   2.039   7.265   2.662
13421TIP3   OH240207   6.046   0.380   2.820
13421TIP3    H140208   6.091   0.464   2.831
13421TIP3    H240209   6.011   0.383   2.731
13422TIP3   OH240210   4.370   7.409   1.415
13422TIP3    H140211   4.390   7.419   1.508
13422TIP3    H240212   4.316   7.330   1.410
13423TIP3   OH240213   5.787   7.067   6.340
13423TIP3    H140214   5.745   7.097   6.259
13423TIP3    H240215   5.878   7.052   6.316
13424TIP3   OH240216   6.454   2.372   4.292
13424TIP3    H140217   6.514   2.421   4.235
13424TIP3    H240218   6.507   2.350   4.369
13425TIP3   OH240219   3.466   2.668   2.196
13425TIP3    H140220   3.451   2.578   2.166
13425TIP3    H240221   3.389   2.716   2.165
13426TIP3   OH240222   0.804   3.507   6.650
13426TIP3    H140223   0.839   3.596   6.646
13426TIP3    H240224   0.729   3.513   6.709
13427TIP3   OH240225   0.001   2.499   4.255
13427TIP3    H140226   0.030   2.509   4.346
13427TIP3    H240227   0.040   2.574   4.210
13428TIP3   OH240228   6.678   0.499   0.245
13428TIP3    H140229   6.698   0.406   0.259
13428TIP3    H240230   6.591   0.499   0.205
13429TIP3   OH240231   2.512   3.999   3.152
13429TIP3    H140232   2.605   4.019   3.146
13429TIP3    H240233   2.489   4.017   3.243
13430TIP3   OH240234   5.875   2.458   5.803
13430TIP3    H140235   5.784   2.477   5.827
13430TIP3    H240236   5.919   2.439   5.885
13431TIP3   OH240237   0.827   6.628   1.016
13431TIP3    H140238   0.775   6.704   0.990
13431TIP3    H240239   0.916   6.662   1.027
13432TIP3   OH240240   3.872   5.878   5.321
13432TIP3    H140241   3.797   5.854   5.267
13432TIP3    H240242   3.919   5.795   5.334
13433TIP3   OH240243   0.693   5.950   2.201
13433TIP3    H140244   0.706   6.044   2.187
13433TIP3    H240245   0.768   5.909   2.158
13434TIP3   OH240246   6.169   3.746   2.312
13434TIP3    H140247   6.240   3.810   2.314
13434TIP3    H240248   6.170   3.706   2.399
13435TIP3   OH240249   7.201   7.508   4.409
13435TIP3    H140250   7.287   7.466   4.420
13435TIP3    H240251   7.170   7.522   4.499
13436TIP3   OH240252   6.876   0.701   1.370
13436TIP3    H140253   6.898   0.672   1.458
13436TIP3    H240254   6.935   0.775   1.354
13437TIP3   OH240255   1.686   1.531   4.333
13437TIP3    H140256   1.596   1.515   4.360
13437TIP3    H240257   1.737   1.530   4.414
13438TIP3   OH240258   4.213   0.435   1.136
13438TIP3    H140259   4.208   0.523   1.174
13438TIP3    H240260   4.290   0.396   1.177
13439TIP3   OH240261   0.864   7.308   4.299
13439TIP3    H140262   0.885   7.325   4.391
13439TIP3    H240263   0.940   7.340   4.251
13440TIP3   OH240264   7.109   6.760   5.578
13440TIP3    H140265   7.098   6.714   5.495
13440TIP3    H240266   7.089   6.851   5.558
13441TIP3   OH240267   3.351   6.817   5.858
13441TIP3    H140268   3.306   6.737   5.829
13441TIP3    H240269   3.391   6.852   5.779
13442TIP3   OH240270   6.363   4.849   2.509
13442TIP3    H140271   6.365   4.943   2.528
13442TIP3    H240272   6.389   4.807   2.591
13443TIP3   OH240273   8.231   3.667   1.011
13443TIP3    H140274   8.223   3.595   0.949
13443TIP3    H240275   8.296   3.637   1.075
13444TIP3   OH240276   6.715   1.296   3.923
13444TIP3    H140277   6.620   1.289   3.914
13444TIP3    H240278   6.750   1.277   3.836
13445TIP3   OH240279   7.451   0.204   6.123
13445TIP3    H140280   7.375   0.189   6.068
13445TIP3    H240281   7.515   0.139   6.094
13446TIP3   OH240282   0.013   4.834   4.391
13446TIP3    H140283   0.075   4.845   4.318
13446TIP3    H240284   0.064   4.792   4.460
13447TIP3   OH240285   3.086   1.685   0.186
13447TIP3    H140286   3.059   1.762   0.235
13447TIP3    H240287   3.051   1.698   0.098
13448TIP3   OH240288   5.492   1.148   0.782
13448TIP3    H140289   5.402   1.177   0.795
13448TIP3    H240290   5.541   1.191   0.852
13449TIP3   OH240291   5.705   6.697   2.358
13449TIP3    H140292   5.794   6.662   2.363
13449TIP3    H240293   5.714   6.788   2.386
13450TIP3   OH240294   7.622   4.345   5.845
13450TIP3    H140295   7.591   4.392   5.922
13450TIP3    H240296   7.580   4.388   5.771
13451TIP3   OH240297   6.019   7.587   2.331
13451TIP3    H140298   6.109   7.617   2.346
13451TIP3    H240299   6.027   7.522   2.261
13452TIP3   OH240300   1.582   5.388   3.596
13452TIP3    H140301   1.504   5.363   3.546
13452TIP3    H240302   1.549   5.411   3.683
13453TIP3   OH240303   2.245   4.180   6.307
13453TIP3    H140304   2.252   4.223   6.392
13453TIP3    H240305   2.193   4.101   6.325
13454TIP3   OH240306   0.093   1.263   2.781
13454TIP3    H140307   0.051   1.246   2.866
13454TIP3    H240308   0.046   1.338   2.745
13455TIP3   OH240309   2.898   2.725   6.219
13455TIP3    H140310   2.879   2.810   6.179
13455TIP3    H240311   2.812   2.694   6.249
13456TIP3   OH240312   2.477   0.845   0.435
13456TIP3    H140313   2.397   0.816   0.479
13456TIP3    H240314   2.447   0.891   0.357
13457TIP3   OH240315   0.853   6.190   4.983
13457TIP3    H140316   0.833   6.173   5.075
13457TIP3    H240317   0.822   6.112   4.937
13458TIP3   OH240318   1.864   1.709   4.983
13458TIP3    H140319   1.785   1.744   5.023
13458TIP3    H240320   1.905   1.785   4.941
13459TIP3   OH240321   0.735   2.793   1.569
13459TIP3    H140322   0.734   2.705   1.532
13459TIP3    H240323   0.734   2.851   1.492
13460TIP3   OH240324   5.641   1.488   5.146
13460TIP3    H140325   5.630   1.582   5.128
13460TIP3    H240326   5.725   1.466   5.105
13461TIP3   OH240327   3.169   2.139   5.384
13461TIP3    H140328   3.130   2.052   5.393
13461TIP3    H240329   3.099   2.194   5.352
13462TIP3   OH240330   6.634   2.242   3.524
13462TIP3    H140331   6.595   2.157   3.500
13462TIP3    H240332   6.582   2.272   3.598
13463TIP3   OH240333   4.344   0.754   5.999
13463TIP3    H140334   4.263   0.728   5.955
13463TIP3    H240335   4.325   0.841   6.034
13464TIP3   OH240336   6.669   5.678   3.271
13464TIP3    H140337   6.667   5.590   3.233
13464TIP3    H240338   6.751   5.716   3.238
13465TIP3   OH240339   5.261   3.640   2.886
13465TIP3    H140340   5.243   3.638   2.792
13465TIP3    H240341   5.178   3.666   2.926
13466TIP3   OH240342   6.002   2.419   1.217
13466TIP3    H140343   5.976   2.487   1.155
13466TIP3    H240344   6.040   2.468   1.291
13467TIP3   OH240345   1.429   2.256   1.453
13467TIP3    H140346   1.422   2.241   1.547
13467TIP3    H240347   1.441   2.351   1.444
13468TIP3   OH240348   2.113   1.213   5.141
13468TIP3    H140349   2.070   1.257   5.068
13468TIP3    H240350   2.078   1.256   5.219
13469TIP3   OH240351   7.717   4.806   2.127
13469TIP3    H140352   7.650   4.781   2.190
13469TIP3    H240353   7.798   4.810   2.178
13470TIP3   OH240354   6.915   1.086   5.671
13470TIP3    H140355   6.990   1.044   5.629
13470TIP3    H240356   6.858   1.014   5.697
13471TIP3   OH240357   0.136   2.585   0.721
13471TIP3    H140358   0.220   2.540   0.725
13471TIP3    H240359   0.122   2.602   0.628
13472TIP3   OH240360   3.792   2.903   2.766
13472TIP3    H140361   3.789   2.901   2.670
13472TIP3    H240362   3.885   2.911   2.787
13473TIP3   OH240363   7.478   6.303   3.937
13473TIP3    H140364   7.390   6.308   3.900
13473TIP3    H240365   7.534   6.344   3.870
13474TIP3   OH240366   3.479   1.506   5.244
13474TIP3    H140367   3.456   1.456   5.166
13474TIP3    H240368   3.416   1.578   5.245
13475TIP3   OH240369   5.910   1.812   6.765
13475TIP3    H140370   5.870   1.857   6.839
13475TIP3    H240371   5.981   1.870   6.736
13476TIP3   OH240372   1.610   0.378   5.582
13476TIP3    H140373   1.524   0.375   5.626
13476TIP3    H240374   1.604   0.310   5.514
13477TIP3   OH240375   0.110   5.765   3.319
13477TIP3    H140376   0.155   5.810   3.390
13477TIP3    H240377   0.113   5.826   3.245
13478TIP3   OH240378   2.953   0.642   4.904
13478TIP3    H140379   2.999   0.669   4.984
13478TIP3    H240380   3.020   0.602   4.850
13479TIP3   OH240381   4.558   4.285   4.588
13479TIP3    H140382   4.516   4.347   4.529
13479TIP3    H240383   4.605   4.225   4.529
13480TIP3   OH240384   8.168   4.642   3.597
13480TIP3    H140385   8.255   4.679   3.611
13480TIP3    H240386   8.107   4.711   3.622
13481TIP3   OH240387   5.998   4.656   1.277
13481TIP3    H140388   6.032   4.694   1.196
13481TIP3    H240389   6.074   4.620   1.321
13482TIP3   OH240390   7.668   7.036   6.491
13482TIP3    H140391   7.688   6.965   6.431
13482TIP3    H240392   7.574   7.051   6.481
13483TIP3   OH240393   5.720   2.089   5.888
13483TIP3    H140394   5.774   2.167   5.871
13483TIP3    H240395   5.724   2.039   5.807
13484TIP3   OH240396   1.299   5.134   4.678
13484TIP3    H140397   1.287   5.046   4.642
13484TIP3    H240398   1.260   5.192   4.613
13485TIP3   OH240399   0.538   3.585   6.507
13485TIP3    H140400   0.597   3.641   6.558
13485TIP3    H240401   0.455   3.633   6.506
13486TIP3   OH240402   5.389   0.193   6.150
13486TIP3    H140403   5.366   0.238   6.068
13486TIP3    H240404   5.430   0.261   6.204
13487TIP3   OH240405   5.570   5.144   0.989
13487TIP3    H140406   5.529   5.058   1.000
13487TIP3    H240407   5.499   5.200   0.958
13488TIP3   OH240408   5.820   1.034   6.780
13488TIP3    H140409   5.796   1.058   6.690
13488TIP3    H240410   5.915   1.039   6.781
13489TIP3   OH240411   0.700   0.651   5.131
13489TIP3    H140412   0.633   0.583   5.124
13489TIP3    H240413   0.724   0.671   5.041
13490TIP3   OH240414   1.748   1.425   5.169
13490TIP3    H140415   1.738   1.330   5.162
13490TIP3    H240416   1.683   1.451   5.234
13491TIP3   OH240417   4.492   3.692   6.062
13491TIP3    H140418   4.453   3.681   6.149
13491TIP3    H240419   4.418   3.685   6.002
13492TIP3   OH240420   7.164   6.434   2.326
13492TIP3    H140421   7.113   6.452   2.405
13492TIP3    H240422   7.159   6.339   2.315
13493TIP3   OH240423   5.530   0.140   6.471
13493TIP3    H140424   5.534   0.229   6.438
13493TIP3    H240425   5.572   0.087   6.402
13494TIP3   OH240426   8.046   6.194   1.665
13494TIP3    H140427   8.086   6.179   1.579
13494TIP3    H240428   8.019   6.285   1.663
13495TIP3   OH240429   2.530   1.757   1.628
13495TIP3    H140430   2.458   1.723   1.576
13495TIP3    H240431   2.604   1.760   1.568
13496TIP3   OH240432   0.963   3.014   4.867
13496TIP3    H140433   0.906   2.969   4.929
13496TIP3    H240434   1.024   2.947   4.837
13497TIP3   OH240435   2.466   7.086   5.677
13497TIP3    H140436   2.492   7.121   5.592
13497TIP3    H240437   2.379   7.050   5.662
13498TIP3   OH240438   1.760   4.709   0.867
13498TIP3    H140439   1.800   4.659   0.797
13498TIP3    H240440   1.834   4.751   0.912
13499TIP3   OH240441   1.641   5.677   3.352
13499TIP3    H140442   1.551   5.647   3.367
13499TIP3    H240443   1.683   5.669   3.438
13500TIP3   OH240444   7.407   1.950   2.054
13500TIP3    H140445   7.334   1.899   2.090
13500TIP3    H240446   7.472   1.951   2.125
13501TIP3   OH240447   5.494   1.758   0.516
13501TIP3    H140448   5.441   1.740   0.439
13501TIP3    H240449   5.537   1.674   0.535
13502TIP3   OH240450   6.557   3.946   3.417
13502TIP3    H140451   6.616   4.001   3.468
13502TIP3    H240452   6.475   3.994   3.414
13503TIP3   OH240453   4.478   5.066   3.111
13503TIP3    H140454   4.394   5.068   3.066
13503TIP3    H240455   4.543   5.080   3.041
13504TIP3   OH240456   2.201   1.596   4.971
13504TIP3    H140457   2.164   1.509   4.962
13504TIP3    H240458   2.185   1.621   5.062
13505TIP3   OH240459   0.491   2.963   6.701
13505TIP3    H140460   0.569   3.016   6.718
13505TIP3    H240461   0.427   2.994   6.765
13506TIP3   OH240462   2.559   6.859   4.184
13506TIP3    H140463   2.626   6.797   4.153
13506TIP3    H240464   2.601   6.945   4.176
13507TIP3   OH240465   7.502   0.069   3.411
13507TIP3    H140466   7.461   0.104   3.332
13507TIP3    H240467   7.494   0.140   3.475
13508TIP3   OH240468   0.414   1.571   5.307
13508TIP3    H140469   0.326   1.535   5.294
13508TIP3    H240470   0.404   1.664   5.286
13509TIP3   OH240471   6.244   3.420   1.631
13509TIP3    H140472   6.287   3.473   1.563
13509TIP3    H240473   6.199   3.484   1.686
13510TIP3   OH240474   2.607   1.000   1.774
13510TIP3    H140475   2.671   1.070   1.761
13510TIP3    H240476   2.528   1.030   1.729
13511TIP3   OH240477   2.839   5.608   3.313
13511TIP3    H140478   2.765   5.653   3.353
13511TIP3    H240479   2.876   5.671   3.252
13512TIP3   OH240480   7.779   3.094   3.251
13512TIP3    H140481   7.709   3.032   3.272
13512TIP3    H240482   7.760   3.171   3.304
13513TIP3   OH240483   6.323   3.848   5.604
13513TIP3    H140484   6.274   3.795   5.667
13513TIP3    H240485   6.320   3.936   5.640
13514TIP3   OH240486   0.411   2.490   0.004
13514TIP3    H140487   0.335   2.463  -0.047
13514TIP3    H240488   0.455   2.408   0.028
13515TIP3   OH240489   7.931   5.952   2.667
13515TIP3    H140490   8.018   5.938   2.704
13515TIP3    H240491   7.947   5.975   2.575
13516TIP3   OH240492   6.150   4.313   5.948
13516TIP3    H140493   6.089   4.369   5.996
13516TIP3    H240494   6.201   4.373   5.894
13517TIP3   OH240495   4.642   6.196   2.207
13517TIP3    H140496   4.717   6.191   2.266
13517TIP3    H240497   4.629   6.290   2.194
13518TIP3   OH240498   0.721   3.181   5.206
13518TIP3    H140499   0.667   3.117   5.253
13518TIP3    H240500   0.768   3.228   5.275
13519TIP3   OH240501   2.117   1.516   0.961
13519TIP3    H140502   2.182   1.581   0.933
13519TIP3    H240503   2.097   1.466   0.881
13520TIP3   OH240504   2.686   0.739   1.795
13520TIP3    H140505   2.624   0.808   1.817
13520TIP3    H240506   2.663   0.712   1.706
13521TIP3   OH240507   7.542   4.290   3.379
13521TIP3    H140508   7.495   4.270   3.299
13521TIP3    H240509   7.589   4.210   3.401
13522TIP3   OH240510   7.223   7.599   2.100
13522TIP3    H140511   7.191   7.510   2.088
13522TIP3    H240512   7.297   7.589   2.161
13523TIP3   OH240513   1.601   0.412   3.057
13523TIP3    H140514   1.647   0.370   2.985
13523TIP3    H240515   1.618   0.506   3.045
13524TIP3   OH240516   7.823   3.358   3.038
13524TIP3    H140517   7.741   3.322   3.070
13524TIP3    H240518   7.816   3.354   2.942
13525TIP3   OH240519   1.299   0.654   4.971
13525TIP3    H140520   1.213   0.641   4.930
13525TIP3    H240521   1.285   0.633   5.063
13526TIP3   OH240522   0.105   6.510   0.186
13526TIP3    H140523   0.154   6.584   0.151
13526TIP3    H240524   0.039   6.550   0.242
13527TIP3   OH240525   0.908   6.582   3.457
13527TIP3    H140526   0.946   6.649   3.401
13527TIP3    H240527   0.984   6.541   3.500
13528TIP3   OH240528   6.637   3.417   5.344
13528TIP3    H140529   6.675   3.331   5.330
13528TIP3    H240530   6.711   3.477   5.339
13529TIP3   OH240531   2.510   1.509   2.112
13529TIP3    H140532   2.447   1.578   2.091
13529TIP3    H240533   2.580   1.555   2.159
13530TIP3   OH240534   6.380   4.090   2.596
13530TIP3    H140535   6.458   4.146   2.593
13530TIP3    H240536   6.397   4.030   2.669
13531TIP3   OH240537   0.373   1.379   4.380
13531TIP3    H140538   0.323   1.336   4.311
13531TIP3    H240539   0.357   1.472   4.367
13532TIP3   OH240540   7.344   3.445   2.456
13532TIP3    H140541   7.275   3.510   2.461
13532TIP3    H240542   7.304   3.364   2.488
13533TIP3   OH240543   8.264   7.159   2.400
13533TIP3    H140544   8.270   7.253   2.416
13533TIP3    H240545   8.335   7.141   2.339
13534TIP3   OH240546   1.701   5.891   5.968
13534TIP3    H140547   1.627   5.923   6.020
13534TIP3    H240548   1.735   5.970   5.926
13535TIP3   OH240549   2.445   0.953   5.368
13535TIP3    H140550   2.385   0.943   5.442
13535TIP3    H240551   2.532   0.959   5.407
13536TIP3   OH240552   4.091   1.519   5.175
13536TIP3    H140553   4.048   1.442   5.137
13536TIP3    H240554   4.178   1.521   5.134
13537TIP3   OH240555   7.161   2.992   5.485
13537TIP3    H140556   7.149   3.004   5.391
13537TIP3    H240557   7.246   2.949   5.494
13538TIP3   OH240558   5.096   2.098   2.134
13538TIP3    H140559   5.179   2.051   2.142
13538TIP3    H240560   5.117   2.188   2.158
13539TIP3   OH240561   3.596   3.090   5.182
13539TIP3    H140562   3.503   3.088   5.162
13539TIP3    H240563   3.630   3.007   5.148
13540TIP3   OH240564   5.273   4.255   1.801
13540TIP3    H140565   5.241   4.165   1.793
13540TIP3    H240566   5.195   4.309   1.785
13541TIP3   OH240567   7.420   2.841   5.176
13541TIP3    H140568   7.504   2.802   5.202
13541TIP3    H240569   7.437   2.935   5.174
13542TIP3   OH240570   4.966   1.411   2.760
13542TIP3    H140571   4.892   1.412   2.699
13542TIP3    H240572   4.948   1.482   2.821
13543TIP3   OH240573   7.025   2.620   4.512
13543TIP3    H140574   6.938   2.648   4.484
13543TIP3    H240575   7.029   2.527   4.490
13544TIP3   OH240576   6.871   5.929   4.180
13544TIP3    H140577   6.863   5.986   4.104
13544TIP3    H240578   6.943   5.966   4.230
13545TIP3   OH240579   8.313   4.123   3.512
13545TIP3    H140580   8.298   4.036   3.474
13545TIP3    H240581   8.256   4.181   3.461
13546TIP3   OH240582   7.126   5.691   4.031
13546TIP3    H140583   7.173   5.624   3.982
13546TIP3    H240584   7.038   5.656   4.041
13547TIP3   OH240585   8.041   3.165   3.407
13547TIP3    H140586   8.005   3.090   3.359
13547TIP3    H240587   7.970   3.193   3.464
13548TIP3   OH240588   7.368   3.645   5.795
13548TIP3    H140589   7.451   3.679   5.828
13548TIP3    H240590   7.303   3.708   5.823
13549TIP3   OH240591   0.005   5.209   3.012
13549TIP3    H140592  -0.074   5.252   2.982
13549TIP3    H240593   0.075   5.272   2.995
13550TIP3   OH240594   3.775   5.968   4.732
13550TIP3    H140595   3.728   6.048   4.712
13550TIP3    H240596   3.866   5.996   4.741
13551TIP3   OH240597   8.115   2.316   3.864
13551TIP3    H140598   8.073   2.240   3.825
13551TIP3    H240599   8.045   2.381   3.873
13552TIP3   OH240600   2.875   3.066   5.185
13552TIP3    H140601   2.786   3.093   5.207
13552TIP3    H240602   2.922   3.148   5.169
13553TIP3   OH240603   3.244   0.285   2.769
13553TIP3    H140604   3.226   0.259   2.678
13553TIP3    H240605   3.339   0.285   2.775
13554TIP3   OH240606   0.445   4.561   4.345
13554TIP3    H140607   0.350   4.563   4.328
13554TIP3    H240608   0.474   4.479   4.305
13555TIP3   OH240609   3.755   0.937   5.589
13555TIP3    H140610   3.672   0.903   5.556
13555TIP3    H240611   3.765   1.022   5.546
13556TIP3   OH240612   1.064   4.635   3.125
13556TIP3    H140613   0.976   4.660   3.150
13556TIP3    H240614   1.120   4.663   3.198
13557TIP3   OH240615   5.958   6.099   0.480
13557TIP3    H140616   5.869   6.098   0.445
13557TIP3    H240617   6.008   6.044   0.420
13558TIP3   OH240618   3.159   0.753   1.781
13558TIP3    H140619   3.218   0.728   1.852
13558TIP3    H240620   3.080   0.784   1.825
13559TIP3   OH240621   3.376   3.685   3.698
13559TIP3    H140622   3.289   3.723   3.697
13559TIP3    H240623   3.377   3.629   3.776
13560TIP3   OH240624   7.798   6.921   1.501
13560TIP3    H140625   7.855   6.845   1.509
13560TIP3    H240626   7.857   6.996   1.508
13561TIP3   OH240627   7.883   0.676   2.400
13561TIP3    H140628   7.935   0.645   2.474
13561TIP3    H240629   7.947   0.701   2.334
13562TIP3   OH240630   2.052   1.936   1.339
13562TIP3    H140631   1.956   1.938   1.332
13562TIP3    H240632   2.071   1.980   1.421
13563TIP3   OH240633   6.907   1.885   2.167
13563TIP3    H140634   6.893   1.846   2.253
13563TIP3    H240635   6.873   1.821   2.105
13564TIP3   OH240636   2.896   4.648   3.709
13564TIP3    H140637   2.976   4.615   3.668
13564TIP3    H240638   2.826   4.617   3.652
13565TIP3   OH240639   2.117   2.190   3.664
13565TIP3    H140640   2.101   2.281   3.640
13565TIP3    H240641   2.131   2.192   3.759
13566TIP3   OH240642   2.707   1.265   5.161
13566TIP3    H140643   2.632   1.221   5.121
13566TIP3    H240644   2.727   1.212   5.238
13567TIP3   OH240645   0.686   0.878   1.403
13567TIP3    H140646   0.612   0.819   1.391
13567TIP3    H240647   0.647   0.965   1.410
13568TIP3   OH240648   7.667   5.159   6.175
13568TIP3    H140649   7.592   5.124   6.126
13568TIP3    H240650   7.735   5.093   6.164
13569TIP3   OH240651   0.485   3.630   0.190
13569TIP3    H140652   0.405   3.641   0.140
13569TIP3    H240653   0.510   3.538   0.176
13570TIP3   OH240654   1.011   0.091   0.227
13570TIP3    H140655   0.999   0.183   0.251
13570TIP3    H240656   0.973   0.083   0.140
13571TIP3   OH240657   0.827   3.006   3.155
13571TIP3    H140658   0.870   3.034   3.074
13571TIP3    H240659   0.793   3.087   3.193
13572TIP3   OH240660   7.169   2.988   5.829
13572TIP3    H140661   7.193   3.053   5.763
13572TIP3    H240662   7.082   2.958   5.803
13573TIP3   OH240663   2.849   1.106   4.506
13573TIP3    H140664   2.786   1.168   4.542
13573TIP3    H240665   2.823   1.096   4.414
13574TIP3   OH240666   4.979   2.190   1.263
13574TIP3    H140667   5.056   2.149   1.302
13574TIP3    H240668   4.983   2.167   1.170
13575TIP3   OH240669   1.354   0.046   5.306
13575TIP3    H140670   1.349  -0.047   5.328
13575TIP3    H240671   1.283   0.086   5.356
13576TIP3   OH240672   7.316   1.295   4.597
13576TIP3    H140673   7.275   1.250   4.671
13576TIP3    H240674   7.324   1.228   4.529
13577TIP3   OH240675   3.530   7.409   2.892
13577TIP3    H140676   3.445   7.427   2.853
13577TIP3    H240677   3.594   7.429   2.823
13578TIP3   OH240678   2.133   7.516   3.854
13578TIP3    H140679   2.147   7.547   3.765
13578TIP3    H240680   2.182   7.435   3.860
13579TIP3   OH240681   8.003   4.006   2.186
13579TIP3    H140682   7.953   3.936   2.145
13579TIP3    H240683   7.965   4.086   2.150
13580TIP3   OH240684   2.554   4.143   2.033
13580TIP3    H140685   2.496   4.213   2.064
13580TIP3    H240686   2.628   4.145   2.093
13581TIP3   OH240687   4.339   7.295   5.205
13581TIP3    H140688   4.332   7.214   5.155
13581TIP3    H240689   4.433   7.309   5.217
13582TIP3   OH240690   4.023   2.809   6.591
13582TIP3    H140691   3.997   2.892   6.552
13582TIP3    H240692   4.091   2.776   6.533
13583TIP3   OH240693   1.415   7.618   2.933
13583TIP3    H140694   1.455   7.687   2.986
13583TIP3    H240695   1.327   7.608   2.970
13584TIP3   OH240696   6.584   1.602   1.403
13584TIP3    H140697   6.571   1.507   1.400
13584TIP3    H240698   6.677   1.614   1.385
13585TIP3   OH240699   3.348   0.302   6.038
13585TIP3    H140700   3.329   0.352   6.118
13585TIP3    H240701   3.443   0.292   6.038
13586TIP3   OH240702   2.858   6.789   0.818
13586TIP3    H140703   2.946   6.814   0.844
13586TIP3    H240704   2.810   6.782   0.900
13587TIP3   OH240705   4.207   0.414   6.723
13587TIP3    H140706   4.231   0.370   6.641
13587TIP3    H240707   4.197   0.342   6.785
13588TIP3   OH240708   2.622   2.830   2.334
13588TIP3    H140709   2.663   2.834   2.248
13588TIP3    H240710   2.666   2.899   2.384
13589TIP3   OH240711   7.248   7.071   3.752
13589TIP3    H140712   7.323   7.101   3.701
13589TIP3    H240713   7.172   7.108   3.707
13590TIP3   OH240714   4.330   6.046   0.612
13590TIP3    H140715   4.380   6.031   0.692
13590TIP3    H240716   4.244   6.007   0.630
13591TIP3   OH240717   6.142   4.701   1.025
13591TIP3    H140718   6.080   4.757   0.977
13591TIP3    H240719   6.100   4.616   1.030
13592TIP3   OH240720   2.025   1.585   1.530
13592TIP3    H140721   2.002   1.589   1.437
13592TIP3    H240722   1.977   1.658   1.569
13593TIP3   OH240723   3.064   1.382   5.450
13593TIP3    H140724   3.077   1.289   5.435
13593TIP3    H240725   3.025   1.387   5.537
13594TIP3   OH240726   8.078   0.451   1.539
13594TIP3    H140727   8.068   0.530   1.485
13594TIP3    H240728   7.996   0.446   1.588
13595TIP3   OH240729   1.073   1.689   2.108
13595TIP3    H140730   1.134   1.670   2.037
13595TIP3    H240731   1.092   1.622   2.174
13596TIP3   OH240732   0.989   3.651   1.829
13596TIP3    H140733   0.919   3.694   1.877
13596TIP3    H240734   0.967   3.664   1.737
13597TIP3   OH240735   0.146   4.667   5.228
13597TIP3    H140736   0.220   4.702   5.179
13597TIP3    H240737   0.134   4.578   5.193
13598TIP3   OH240738   7.032   3.143   3.811
13598TIP3    H140739   7.040   3.232   3.776
13598TIP3    H240740   7.080   3.146   3.894
13599TIP3   OH240741   1.499   0.155   1.514
13599TIP3    H140742   1.406   0.140   1.529
13599TIP3    H240743   1.510   0.250   1.519
13600TIP3   OH240744   2.901   3.870   5.773
13600TIP3    H140745   2.942   3.849   5.689
13600TIP3    H240746   2.949   3.816   5.836
13601TIP3   OH240747   2.951   5.853   2.199
13601TIP3    H140748   2.923   5.810   2.279
13601TIP3    H240749   2.997   5.932   2.228
13602TIP3   OH240750   6.772   0.023   1.233
13602TIP3    H140751   6.754  -0.019   1.149
13602TIP3    H240752   6.726   0.107   1.229
13603TIP3   OH240753   2.133   3.957   6.424
13603TIP3    H140754   2.115   3.987   6.513
13603TIP3    H240755   2.057   3.903   6.401
13604TIP3   OH240756   6.340   6.986   0.526
13604TIP3    H140757   6.344   6.943   0.441
13604TIP3    H240758   6.390   6.929   0.585
13605TIP3   OH240759   3.854   1.294   5.671
13605TIP3    H140760   3.877   1.206   5.699
13605TIP3    H240761   3.809   1.281   5.587
13606TIP3   OH240762   3.497   7.187   3.412
13606TIP3    H140763   3.513   7.097   3.382
13606TIP3    H240764   3.573   7.236   3.383
13607TIP3   OH240765   6.198   0.896   4.055
13607TIP3    H140766   6.239   0.848   3.983
13607TIP3    H240767   6.159   0.828   4.110
13608TIP3   OH240768   7.741   0.969   0.528
13608TIP3    H140769   7.691   1.009   0.600
13608TIP3    H240770   7.786   0.895   0.567
13609TIP3   OH240771   6.638   6.068   0.905
13609TIP3    H140772   6.557   6.037   0.866
13609TIP3    H240773   6.617   6.154   0.940
13610TIP3   OH240774   4.298   6.883   1.018
13610TIP3    H140775   4.321   6.944   0.948
13610TIP3    H240776   4.304   6.797   0.978
13611TIP3   OH240777   2.671   4.305   1.836
13611TIP3    H140778   2.643   4.249   1.908
13611TIP3    H240779   2.596   4.364   1.820
13612TIP3   OH240780   7.159   4.010   4.181
13612TIP3    H140781   7.250   4.041   4.178
13612TIP3    H240782   7.163   3.927   4.228
13613TIP3   OH240783   3.009   0.307   5.307
13613TIP3    H140784   3.042   0.281   5.393
13613TIP3    H240785   2.930   0.254   5.295
13614TIP3   OH240786   1.710   6.511   3.694
13614TIP3    H140787   1.765   6.579   3.657
13614TIP3    H240788   1.768   6.436   3.704
13615TIP3   OH240789   4.749   6.462   4.982
13615TIP3    H140790   4.772   6.447   5.074
13615TIP3    H240791   4.656   6.486   4.984
13616TIP3   OH240792   5.143   3.675   4.181
13616TIP3    H140793   5.114   3.601   4.235
13616TIP3    H240794   5.098   3.663   4.097
13617TIP3   OH240795   2.751   1.438   3.084
13617TIP3    H140796   2.838   1.467   3.055
13617TIP3    H240797   2.731   1.362   3.029
13618TIP3   OH240798   3.832   2.959   5.436
13618TIP3    H140799   3.832   2.874   5.392
13618TIP3    H240800   3.920   2.967   5.472
13619TIP3   OH240801   2.091   6.786   1.321
13619TIP3    H140802   2.000   6.775   1.348
13619TIP3    H240803   2.139   6.802   1.402
13620TIP3   OH240804   7.551   4.880   6.698
13620TIP3    H140805   7.544   4.791   6.664
13620TIP3    H240806   7.503   4.933   6.634
13621TIP3   OH240807   7.857   2.460   6.607
13621TIP3    H140808   7.891   2.549   6.611
13621TIP3    H240809   7.774   2.468   6.560
13622TIP3   OH240810   7.453   5.072   0.113
13622TIP3    H140811   7.464   5.165   0.094
13622TIP3    H240812   7.411   5.036   0.035
13623TIP3   OH240813   5.163   2.148   5.653
13623TIP3    H140814   5.074   2.158   5.619
13623TIP3    H240815   5.165   2.060   5.690
13624TIP3   OH240816   2.459   0.575   3.708
13624TIP3    H140817   2.460   0.485   3.675
13624TIP3    H240818   2.486   0.628   3.633
13625TIP3   OH240819   3.799   0.814   0.545
13625TIP3    H140820   3.892   0.827   0.526
13625TIP3    H240821   3.787   0.850   0.633
13626TIP3   OH240822   2.161   0.210   2.598
13626TIP3    H140823   2.210   0.172   2.671
13626TIP3    H240824   2.203   0.175   2.520
13627TIP3   OH240825   7.344   1.168   5.850
13627TIP3    H140826   7.436   1.186   5.829
13627TIP3    H240827   7.324   1.087   5.803
13628TIP3   OH240828   1.851   0.578   1.453
13628TIP3    H140829   1.758   0.594   1.473
13628TIP3    H240830   1.893   0.570   1.538
13629TIP3   OH240831   4.726   6.976   2.790
13629TIP3    H140832   4.743   6.955   2.698
13629TIP3    H240833   4.718   7.071   2.792
13630TIP3   OH240834   1.748   0.158   6.233
13630TIP3    H140835   1.827   0.204   6.205
13630TIP3    H240836   1.692   0.227   6.269
13631TIP3   OH240837   0.732   7.237   5.244
13631TIP3    H140838   0.740   7.163   5.185
13631TIP3    H240839   0.766   7.312   5.194
13632TIP3   OH240840   3.847   2.321   4.661
13632TIP3    H140841   3.914   2.389   4.662
13632TIP3    H240842   3.861   2.271   4.742
13633TIP3   OH240843   4.580   6.476   3.328
13633TIP3    H140844   4.568   6.566   3.299
13633TIP3    H240845   4.504   6.459   3.383
13634TIP3   OH240846   0.781   0.859   3.248
13634TIP3    H140847   0.862   0.831   3.291
13634TIP3    H240848   0.721   0.785   3.259
13635TIP3   OH240849   1.888   1.072   1.880
13635TIP3    H140850   1.910   1.034   1.795
13635TIP3    H240851   1.794   1.055   1.890
13636TIP3   OH240852   7.583   5.830   3.173
13636TIP3    H140853   7.585   5.901   3.237
13636TIP3    H240854   7.632   5.864   3.098
13637TIP3   OH240855   2.503   3.064   1.438
13637TIP3    H140856   2.507   3.112   1.355
13637TIP3    H240857   2.538   2.977   1.417
13638TIP3   OH240858   4.049   4.341   2.281
13638TIP3    H140859   4.127   4.374   2.238
13638TIP3    H240860   4.023   4.410   2.342
13639TIP3   OH240861   5.020   4.987   5.451
13639TIP3    H140862   5.077   4.961   5.523
13639TIP3    H240863   4.941   5.021   5.494
13640TIP3   OH240864   4.428   4.797   6.373
13640TIP3    H140865   4.356   4.790   6.309
13640TIP3    H240866   4.507   4.801   6.319
13641TIP3   OH240867   6.984   6.094   3.067
13641TIP3    H140868   6.988   6.076   2.973
13641TIP3    H240869   6.968   6.188   3.073
13642TIP3   OH240870   7.007   6.289   0.936
13642TIP3    H140871   7.004   6.244   0.851
13642TIP3    H240872   7.001   6.382   0.914
13643TIP3   OH240873   5.338   4.940   0.121
13643TIP3    H140874   5.337   4.980   0.208
13643TIP3    H240875   5.366   4.850   0.136
13644TIP3   OH240876   6.726   4.388   0.917
13644TIP3    H140877   6.727   4.439   0.998
13644TIP3    H240878   6.786   4.434   0.859
13645TIP3   OH240879   6.943   4.076   0.065
13645TIP3    H140880   6.861   4.030   0.084
13645TIP3    H240881   7.011   4.017   0.097
13646TIP3   OH240882   7.730   6.276   0.956
13646TIP3    H140883   7.695   6.187   0.961
13646TIP3    H240884   7.825   6.264   0.944
13647TIP3   OH240885   1.381   3.651   0.840
13647TIP3    H140886   1.445   3.581   0.851
13647TIP3    H240887   1.298   3.606   0.830
13648TIP3   OH240888   4.448   6.930   2.353
13648TIP3    H140889   4.401   6.991   2.296
13648TIP3    H240890   4.462   6.852   2.299
13649TIP3   OH240891   6.854   7.541   0.714
13649TIP3    H140892   6.843   7.567   0.623
13649TIP3    H240893   6.930   7.482   0.713
13650TIP3   OH240894   0.363   3.277   1.947
13650TIP3    H140895   0.442   3.328   1.965
13650TIP3    H240896   0.295   3.341   1.928
13651TIP3   OH240897   2.148   7.162   5.635
13651TIP3    H140898   2.093   7.100   5.586
13651TIP3    H240899   2.170   7.230   5.571
13652TIP3   OH240900   4.173   6.163   2.624
13652TIP3    H140901   4.078   6.178   2.618
13652TIP3    H240902   4.189   6.155   2.718
13653TIP3   OH240903   2.593   4.584   4.617
13653TIP3    H140904   2.517   4.536   4.649
13653TIP3    H240905   2.561   4.632   4.541
13654TIP3   OH240906   8.274   5.350   3.701
13654TIP3    H140907   8.281   5.258   3.727
13654TIP3    H240908   8.191   5.380   3.738
13655TIP3   OH240909   2.151   7.833   4.133
13655TIP3    H140910   2.182   7.844   4.043
13655TIP3    H240911   2.075   7.776   4.125
13656TIP3   OH240912   7.178   6.384   3.533
13656TIP3    H140913   7.123   6.461   3.518
13656TIP3    H240914   7.144   6.318   3.473
13657TIP3   OH240915   7.169   5.226   6.234
13657TIP3    H140916   7.084   5.230   6.279
13657TIP3    H240917   7.233   5.213   6.304
13658TIP3   OH240918   5.021   1.343   1.184
13658TIP3    H140919   4.957   1.413   1.200
13658TIP3    H240920   5.081   1.380   1.119
13659TIP3   OH240921   2.166   7.103   1.673
13659TIP3    H140922   2.083   7.078   1.714
13659TIP3    H240923   2.221   7.024   1.679
13660TIP3   OH240924   8.063   0.257   6.801
13660TIP3    H140925   8.043   0.164   6.793
13660TIP3    H240926   8.042   0.294   6.715
13661TIP3   OH240927   7.988   4.468   1.576
13661TIP3    H140928   7.962   4.498   1.489
13661TIP3    H240929   8.064   4.522   1.598
13662TIP3   OH240930   5.505   4.110   1.900
13662TIP3    H140931   5.457   4.122   1.983
13662TIP3    H240932   5.456   4.162   1.837
13663TIP3   OH240933   4.698   4.811   3.339
13663TIP3    H140934   4.783   4.768   3.326
13663TIP3    H240935   4.642   4.773   3.271
13664TIP3   OH240936   6.848   7.484   0.430
13664TIP3    H140937   6.763   7.526   0.447
13664TIP3    H240938   6.825   7.404   0.381
13665TIP3   OH240939   4.551   3.984   3.237
13665TIP3    H140940   4.488   3.987   3.309
13665TIP3    H240941   4.554   4.073   3.203
13666TIP3   OH240942   6.131   4.730   4.652
13666TIP3    H140943   6.206   4.680   4.621
13666TIP3    H240944   6.168   4.794   4.712
13667TIP3   OH240945   1.606   5.148   0.063
13667TIP3    H140946   1.675   5.167   0.126
13667TIP3    H240947   1.574   5.234   0.036
13668TIP3   OH240948   6.900   5.845   4.793
13668TIP3    H140949   6.806   5.861   4.788
13668TIP3    H240950   6.933   5.867   4.706
13669TIP3   OH240951   3.086   7.049   4.711
13669TIP3    H140952   3.000   7.091   4.704
13669TIP3    H240953   3.105   7.020   4.622
13670TIP3   OH240954   6.873   3.756   2.100
13670TIP3    H140955   6.797   3.735   2.155
13670TIP3    H240956   6.916   3.672   2.086
13671TIP3   OH240957   1.115   2.683   5.665
13671TIP3    H140958   1.062   2.630   5.724
13671TIP3    H240959   1.127   2.628   5.588
13672TIP3   OH240960   4.023   4.169   5.964
13672TIP3    H140961   4.067   4.154   6.047
13672TIP3    H240962   3.931   4.180   5.988
13673TIP3   OH240963   4.375   1.118   2.087
13673TIP3    H140964   4.295   1.096   2.134
13673TIP3    H240965   4.438   1.141   2.155
13674TIP3   OH240966   5.650   5.434   4.514
13674TIP3    H140967   5.729   5.477   4.481
13674TIP3    H240968   5.683   5.361   4.566
13675TIP3   OH240969   2.501   7.519   1.453
13675TIP3    H140970   2.417   7.550   1.488
13675TIP3    H240971   2.529   7.589   1.394
13676TIP3   OH240972   6.369   3.647   4.047
13676TIP3    H140973   6.433   3.663   4.116
13676TIP3    H240974   6.416   3.594   3.982
13677TIP3   OH240975   2.694   6.857   1.321
13677TIP3    H140976   2.604   6.860   1.354
13677TIP3    H240977   2.741   6.923   1.370
13678TIP3   OH240978   4.908   7.804   6.479
13678TIP3    H140979   4.956   7.742   6.425
13678TIP3    H240980   4.884   7.755   6.557
13679TIP3   OH240981   3.185   6.251   2.496
13679TIP3    H140982   3.149   6.227   2.581
13679TIP3    H240983   3.215   6.168   2.458
13680TIP3   OH240984   3.576   4.799   5.751
13680TIP3    H140985   3.623   4.753   5.682
13680TIP3    H240986   3.636   4.798   5.826
13681TIP3   OH240987   1.764   0.103   1.072
13681TIP3    H140988   1.672   0.119   1.054
13681TIP3    H240989   1.804   0.190   1.074
13682TIP3   OH240990   2.240   5.678   2.776
13682TIP3    H140991   2.301   5.749   2.795
13682TIP3    H240992   2.169   5.690   2.839
13683TIP3   OH240993   3.773   5.428   4.735
13683TIP3    H140994   3.782   5.334   4.750
13683TIP3    H240995   3.758   5.435   4.640
13684TIP3   OH240996   1.470   4.195   3.352
13684TIP3    H140997   1.430   4.206   3.266
13684TIP3    H240998   1.481   4.101   3.361
13685TIP3   OH240999   3.593   4.621   3.827
13685TIP3    H141000   3.514   4.595   3.874
13685TIP3    H241001   3.625   4.697   3.875
13686TIP3   OH241002   6.408   0.494   4.767
13686TIP3    H141003   6.381   0.566   4.709
13686TIP3    H241004   6.452   0.537   4.840
13687TIP3   OH241005   2.422   1.185   0.927
13687TIP3    H141006   2.468   1.251   0.874
13687TIP3    H241007   2.351   1.155   0.870
13688TIP3   OH241008   1.500   4.828   5.368
13688TIP3    H141009   1.422   4.806   5.317
13688TIP3    H241010   1.573   4.803   5.312
13689TIP3   OH241011   4.641   2.856   4.547
13689TIP3    H141012   4.681   2.785   4.596
13689TIP3    H241013   4.648   2.932   4.605
13690TIP3   OH241014   7.739   0.726   1.036
13690TIP3    H141015   7.709   0.637   1.055
13690TIP3    H241016   7.659   0.778   1.032
13691TIP3   OH241017   2.040   1.729   3.603
13691TIP3    H141018   2.062   1.778   3.524
13691TIP3    H241019   2.006   1.646   3.571
13692TIP3   OH241020   0.255   4.966   3.725
13692TIP3    H141021   0.231   4.925   3.641
13692TIP3    H241022   0.177   5.016   3.750
13693TIP3   OH241023   2.201   2.364   0.235
13693TIP3    H141024   2.190   2.290   0.295
13693TIP3    H241025   2.152   2.435   0.275
13694TIP3   OH241026   4.394   2.609   2.260
13694TIP3    H141027   4.468   2.659   2.294
13694TIP3    H241028   4.409   2.520   2.291
13695TIP3   OH241029   7.531   3.843   3.534
13695TIP3    H141030   7.584   3.818   3.458
13695TIP3    H241031   7.449   3.875   3.496
13696TIP3   OH241032   2.781   2.772   5.155
13696TIP3    H141033   2.722   2.848   5.150
13696TIP3    H241034   2.781   2.748   5.247
13697TIP3   OH241035   6.823   5.737   2.337
13697TIP3    H141036   6.848   5.785   2.258
13697TIP3    H241037   6.737   5.701   2.317
13698TIP3   OH241038   6.989   0.358   1.187
13698TIP3    H141039   7.017   0.396   1.270
13698TIP3    H241040   7.041   0.404   1.121
13699TIP3   OH241041   8.149   3.418   2.406
13699TIP3    H141042   8.146   3.510   2.380
13699TIP3    H241043   8.139   3.419   2.501
13700TIP3   OH241044   0.663   5.737   1.041
13700TIP3    H141045   0.707   5.806   0.992
13700TIP3    H241046   0.710   5.657   1.017
13701TIP3   OH241047   4.721   0.907   2.160
13701TIP3    H141048   4.778   0.966   2.209
13701TIP3    H241049   4.760   0.820   2.173
13702TIP3   OH241050   1.109   6.192   3.081
13702TIP3    H141051   1.026   6.216   3.123
13702TIP3    H241052   1.133   6.269   3.030
13703TIP3   OH241053   6.066   3.215   1.903
13703TIP3    H141054   5.992   3.259   1.861
13703TIP3    H241055   6.074   3.132   1.857
13704TIP3   OH241056   3.985   6.741   6.066
13704TIP3    H141057   4.016   6.670   6.009
13704TIP3    H241058   3.909   6.704   6.111
13705TIP3   OH241059   5.955   5.912   2.460
13705TIP3    H141060   5.987   5.991   2.503
13705TIP3    H241061   5.913   5.862   2.529
13706TIP3   OH241062   0.208  -0.025   4.773
13706TIP3    H141063   0.252   0.050   4.734
13706TIP3    H241064   0.252  -0.038   4.857
13707TIP3   OH241065   5.195   7.388   0.508
13707TIP3    H141066   5.176   7.476   0.540
13707TIP3    H241067   5.115   7.362   0.461
13708TIP3   OH241068   1.748   0.201   2.927
13708TIP3    H141069   1.797   0.182   2.847
13708TIP3    H241070   1.813   0.195   2.997
13709TIP3   OH241071   1.177   4.594   4.846
13709TIP3    H141072   1.223   4.576   4.764
13709TIP3    H241073   1.176   4.510   4.892
13710TIP3   OH241074   7.085   7.539   6.240
13710TIP3    H141075   7.024   7.487   6.187
13710TIP3    H241076   7.104   7.616   6.185
13711TIP3   OH241077   0.697   0.481   1.042
13711TIP3    H141078   0.650   0.556   1.007
13711TIP3    H241079   0.696   0.417   0.971
13712TIP3   OH241080   1.847   6.560   5.703
13712TIP3    H141081   1.762   6.561   5.658
13712TIP3    H241082   1.910   6.538   5.635
13713TIP3   OH241083   2.133   0.062   1.134
13713TIP3    H141084   2.200  -0.006   1.142
13713TIP3    H241085   2.079   0.034   1.061
13714TIP3   OH241086   4.672   5.842   5.766
13714TIP3    H141087   4.700   5.769   5.711
13714TIP3    H241088   4.607   5.888   5.713
13715TIP3   OH241089   3.515   7.652   3.511
13715TIP3    H141090   3.521   7.745   3.530
13715TIP3    H241091   3.423   7.630   3.523
13716TIP3   OH241092   7.207   6.822   2.842
13716TIP3    H141093   7.229   6.768   2.918
13716TIP3    H241094   7.220   6.912   2.872
13717TIP3   OH241095   0.888   6.643   4.036
13717TIP3    H141096   0.886   6.625   3.942
13717TIP3    H241097   0.944   6.720   4.044
13718TIP3   OH241098   0.447   4.783   5.691
13718TIP3    H141099   0.436   4.726   5.768
13718TIP3    H241100   0.392   4.859   5.709
13719TIP3   OH241101   1.961   6.405   3.839
13719TIP3    H141102   1.981   6.329   3.785
13719TIP3    H241103   2.034   6.465   3.826
13720TIP3   OH241104   6.625   6.531   6.089
13720TIP3    H141105   6.698   6.514   6.029
13720TIP3    H241106   6.660   6.511   6.176
13721TIP3   OH241107   1.552   4.151   6.173
13721TIP3    H141108   1.622   4.216   6.180
13721TIP3    H241109   1.540   4.139   6.079
13722TIP3   OH241110   7.529   7.714   2.762
13722TIP3    H141111   7.462   7.670   2.814
13722TIP3    H241112   7.516   7.807   2.781
13723TIP3   OH241113   2.165   3.363   1.009
13723TIP3    H141114   2.189   3.401   0.924
13723TIP3    H241115   2.080   3.400   1.029
13724TIP3   OH241116   0.980   1.388   0.659
13724TIP3    H141117   1.066   1.428   0.656
13724TIP3    H241118   0.997   1.297   0.682
13725TIP3   OH241119   0.708   6.221   0.689
13725TIP3    H141120   0.747   6.221   0.777
13725TIP3    H241121   0.643   6.291   0.692
13726TIP3   OH241122   2.860   4.863   4.091
13726TIP3    H141123   2.866   4.951   4.129
13726TIP3    H241124   2.828   4.878   4.001
13727TIP3   OH241125   3.448   0.936   5.003
13727TIP3    H141126   3.392   1.010   5.026
13727TIP3    H241127   3.529   0.976   4.972
13728TIP3   OH241128   3.535   2.641   6.716
13728TIP3    H141129   3.573   2.725   6.739
13728TIP3    H241130   3.528   2.642   6.621
13729TIP3   OH241131   1.294   7.706   2.106
13729TIP3    H141132   1.371   7.761   2.090
13729TIP3    H241133   1.224   7.748   2.056
13730TIP3   OH241134   0.940   2.711   3.725
13730TIP3    H141135   0.853   2.707   3.687
13730TIP3    H241136   0.934   2.661   3.806
13731TIP3   OH241137   3.611   7.216   6.396
13731TIP3    H141138   3.677   7.170   6.448
13731TIP3    H241139   3.656   7.241   6.316
13732TIP3   OH241140   0.469   4.669   3.340
13732TIP3    H141141   0.495   4.726   3.413
13732TIP3    H241142   0.401   4.613   3.377
13733TIP3   OH241143   8.245   1.012   5.546
13733TIP3    H141144   8.175   0.947   5.540
13733TIP3    H241145   8.232   1.067   5.469
13734TIP3   OH241146   5.730   1.629   3.502
13734TIP3    H141147   5.808   1.586   3.467
13734TIP3    H241148   5.673   1.640   3.426
13735TIP3   OH241149   3.337   6.223   3.037
13735TIP3    H141150   3.390   6.239   2.959
13735TIP3    H241151   3.267   6.288   3.032
13736TIP3   OH241152   2.158   3.496   5.435
13736TIP3    H141153   2.252   3.501   5.453
13736TIP3    H241154   2.134   3.406   5.454
13737TIP3   OH241155   4.285   7.781   0.626
13737TIP3    H141156   4.222   7.836   0.672
13737TIP3    H241157   4.249   7.692   0.635
13738TIP3   OH241158   0.281   1.199   5.856
13738TIP3    H141159   0.238   1.246   5.927
13738TIP3    H241160   0.213   1.190   5.788
13739TIP3   OH241161   4.757   5.896   1.480
13739TIP3    H141162   4.673   5.885   1.437
13739TIP3    H241163   4.820   5.908   1.409
13740TIP3   OH241164   7.644   5.057   6.471
13740TIP3    H141165   7.651   4.969   6.434
13740TIP3    H241166   7.620   5.112   6.396
13741TIP3   OH241167   2.510   1.817   1.148
13741TIP3    H141168   2.531   1.725   1.164
13741TIP3    H241169   2.453   1.842   1.220
13742TIP3   OH241170   0.315   2.551   5.050
13742TIP3    H141171   0.408   2.559   5.070
13742TIP3    H241172   0.296   2.458   5.060
13743TIP3   OH241173   7.709   3.335   4.780
13743TIP3    H141174   7.729   3.253   4.734
13743TIP3    H241175   7.642   3.377   4.726
13744TIP3   OH241176   4.391   5.513   5.487
13744TIP3    H141177   4.344   5.595   5.470
13744TIP3    H241178   4.447   5.501   5.411
13745TIP3   OH241179   4.462   6.952   4.177
13745TIP3    H141180   4.374   6.915   4.186
13745TIP3    H241181   4.520   6.876   4.178
13746TIP3   OH241182   3.864   6.953   5.371
13746TIP3    H141183   3.823   6.868   5.354
13746TIP3    H241184   3.885   6.987   5.284
13747TIP3   OH241185   6.988   4.726   6.686
13747TIP3    H141186   7.054   4.769   6.741
13747TIP3    H241187   6.957   4.653   6.739
13748TIP3   OH241188   7.115   0.238   2.408
13748TIP3    H141189   7.044   0.300   2.386
13748TIP3    H241190   7.072   0.153   2.409
13749TIP3   OH241191   0.639   6.245   1.007
13749TIP3    H141192   0.731   6.259   0.984
13749TIP3    H241193   0.638   6.238   1.102
13750TIP3   OH241194   4.871   6.843   5.046
13750TIP3    H141195   4.839   6.801   5.125
13750TIP3    H241196   4.933   6.909   5.077
13751TIP3   OH241197   3.936   5.729   0.261
13751TIP3    H141198   3.852   5.710   0.218
13751TIP3    H241199   3.950   5.822   0.246
13752TIP3   OH241200   4.591   1.279   2.769
13752TIP3    H141201   4.664   1.330   2.734
13752TIP3    H241202   4.520   1.344   2.780
13753TIP3   OH241203   1.294   1.661   2.562
13753TIP3    H141204   1.264   1.573   2.537
13753TIP3    H241205   1.364   1.680   2.500
13754TIP3   OH241206   1.903   6.099   5.063
13754TIP3    H141207   1.962   6.173   5.078
13754TIP3    H241208   1.913   6.043   5.140
13755TIP3   OH241209   0.998   7.012   0.734
13755TIP3    H141210   1.084   6.983   0.704
13755TIP3    H241211   0.937   6.951   0.692
13756TIP3   OH241212   7.673   4.026   6.376
13756TIP3    H141213   7.740   4.000   6.312
13756TIP3    H241214   7.719   4.086   6.435
13757TIP3   OH241215   6.183   6.993   0.053
13757TIP3    H141216   6.276   6.990   0.073
13757TIP3    H241217   6.153   6.903   0.064
13758TIP3   OH241218   4.795   1.580   1.144
13758TIP3    H141219   4.789   1.663   1.096
13758TIP3    H241220   4.711   1.573   1.189
13759TIP3   OH241221   1.384   0.999   3.730
13759TIP3    H141222   1.473   0.968   3.750
13759TIP3    H241223   1.397   1.088   3.697
13760TIP3   OH241224   5.406   5.766   1.606
13760TIP3    H141225   5.447   5.783   1.521
13760TIP3    H241226   5.409   5.671   1.616
13761TIP3   OH241227   8.122   3.771   4.832
13761TIP3    H141228   8.214   3.758   4.809
13761TIP3    H241229   8.120   3.765   4.927
13762TIP3   OH241230   3.169   3.682   5.718
13762TIP3    H141231   3.256   3.642   5.710
13762TIP3    H241232   3.180   3.770   5.684
13763TIP3   OH241233   8.070   3.439   3.126
13763TIP3    H141234   7.987   3.390   3.129
13763TIP3    H241235   8.056   3.514   3.183
13764TIP3   OH241236   1.507   6.447   3.905
13764TIP3    H141237   1.517   6.354   3.929
13764TIP3    H241238   1.574   6.462   3.839
13765TIP3   OH241239   5.524   3.637   3.659
13765TIP3    H141240   5.517   3.635   3.754
13765TIP3    H241241   5.518   3.730   3.637
13766TIP3   OH241242   0.050   7.197   4.079
13766TIP3    H141243   0.024   7.260   4.147
13766TIP3    H241244  -0.031   7.149   4.061
13767TIP3   OH241245   0.962   2.756   1.723
13767TIP3    H141246   0.942   2.692   1.791
13767TIP3    H241247   0.879   2.772   1.680
13768TIP3   OH241248   0.653   3.779   5.764
13768TIP3    H141249   0.572   3.756   5.718
13768TIP3    H241250   0.702   3.833   5.702
13769TIP3   OH241251   4.389   6.253   5.376
13769TIP3    H141252   4.333   6.319   5.334
13769TIP3    H241253   4.354   6.169   5.346
13770TIP3   OH241254   6.412   0.396   1.795
13770TIP3    H141255   6.479   0.461   1.816
13770TIP3    H241256   6.373   0.374   1.880
13771TIP3   OH241257   6.638   5.866   3.973
13771TIP3    H141258   6.595   5.806   4.033
13771TIP3    H241259   6.623   5.953   4.010
13772TIP3   OH241260   5.079   4.718   3.811
13772TIP3    H141261   5.119   4.805   3.813
13772TIP3    H241262   5.133   4.668   3.749
13773TIP3   OH241263   2.534   5.799   2.341
13773TIP3    H141264   2.483   5.811   2.261
13773TIP3    H241265   2.497   5.721   2.382
13774TIP3   OH241266   2.703   0.096   3.672
13774TIP3    H141267   2.740   0.176   3.710
13774TIP3    H241268   2.621   0.123   3.632
13775TIP3   OH241269   0.671   6.234   3.869
13775TIP3    H141270   0.742   6.277   3.821
13775TIP3    H241271   0.693   6.248   3.961
13776TIP3   OH241272   8.140   0.448   2.936
13776TIP3    H141273   8.195   0.501   2.878
13776TIP3    H241274   8.199   0.423   3.008
13777TIP3   OH241275   1.688   6.555   4.276
13777TIP3    H141276   1.613   6.597   4.235
13777TIP3    H241277   1.745   6.532   4.203
13778TIP3   OH241278   5.946   6.982   6.001
13778TIP3    H141279   5.974   7.019   6.084
13778TIP3    H241280   6.027   6.974   5.949
13779TIP3   OH241281   0.155   2.943   5.273
13779TIP3    H141282   0.177   2.920   5.182
13779TIP3    H241283   0.192   2.873   5.326
13780TIP3   OH241284   3.073   1.764   0.608
13780TIP3    H141285   3.033   1.678   0.619
13780TIP3    H241286   3.165   1.746   0.592
13781TIP3   OH241287   0.286   4.394   1.568
13781TIP3    H141288   0.195   4.393   1.600
13781TIP3    H241289   0.294   4.479   1.525
13782TIP3   OH241290   7.426   4.694   3.687
13782TIP3    H141291   7.489   4.666   3.753
13782TIP3    H241292   7.423   4.622   3.625
13783TIP3   OH241293   4.940   2.138   0.999
13783TIP3    H141294   4.869   2.075   0.984
13783TIP3    H241295   4.961   2.171   0.911
13784TIP3   OH241296   5.453   0.546   2.364
13784TIP3    H141297   5.449   0.619   2.302
13784TIP3    H241298   5.516   0.486   2.324
13785TIP3   OH241299   0.186   3.219   5.110
13785TIP3    H141300   0.203   3.147   5.049
13785TIP3    H241301   0.273   3.243   5.142
13786TIP3   OH241302   1.865   2.111   0.448
13786TIP3    H141303   1.938   2.054   0.472
13786TIP3    H241304   1.871   2.117   0.352
13787TIP3   OH241305   1.917   0.900   1.674
13787TIP3    H141306   1.953   0.849   1.601
13787TIP3    H241307   1.829   0.866   1.686
13788TIP3   OH241308   3.916   6.357   2.142
13788TIP3    H141309   3.978   6.289   2.167
13788TIP3    H241310   3.832   6.312   2.131
13789TIP3   OH241311   3.014   6.064   0.579
13789TIP3    H141312   2.922   6.038   0.575
13789TIP3    H241313   3.062   5.981   0.577
13790TIP3   OH241314   0.490   1.148   2.297
13790TIP3    H141315   0.476   1.124   2.389
13790TIP3    H241316   0.459   1.238   2.291
13791TIP3   OH241317   0.575   1.075   1.192
13791TIP3    H141318   0.507   1.043   1.252
13791TIP3    H241319   0.541   1.054   1.105
13792TIP3   OH241320   3.486   1.403   4.031
13792TIP3    H141321   3.402   1.360   4.042
13792TIP3    H241322   3.475   1.459   3.955
13793TIP3   OH241323   0.921   6.536   0.752
13793TIP3    H141324   0.887   6.533   0.841
13793TIP3    H241325   1.016   6.549   0.763
13794TIP3   OH241326   7.292   0.890   5.829
13794TIP3    H141327   7.365   0.900   5.768
13794TIP3    H241328   7.316   0.815   5.882
13795TIP3   OH241329   4.966   3.440   3.392
13795TIP3    H141330   4.950   3.346   3.388
13795TIP3    H241331   4.947   3.464   3.483
13796TIP3   OH241332   6.037   7.385   2.555
13796TIP3    H141333   6.075   7.297   2.559
13796TIP3    H241334   5.967   7.378   2.490
13797TIP3   OH241335   1.589   3.075   0.517
13797TIP3    H141336   1.548   3.000   0.560
13797TIP3    H241337   1.683   3.061   0.529
13798TIP3   OH241338   6.941   0.560   5.234
13798TIP3    H141339   6.909   0.471   5.252
13798TIP3    H241340   6.865   0.616   5.250
13799TIP3   OH241341   3.399   6.397   1.223
13799TIP3    H141342   3.427   6.355   1.304
13799TIP3    H241343   3.471   6.383   1.162
13800TIP3   OH241344   7.111   7.487   6.499
13800TIP3    H141345   7.025   7.524   6.517
13800TIP3    H241346   7.128   7.509   6.408
13801TIP3   OH241347   7.715   4.168   2.178
13801TIP3    H141348   7.727   4.082   2.218
13801TIP3    H241349   7.767   4.165   2.098
13802TIP3   OH241350   2.248   5.032   6.746
13802TIP3    H141351   2.317   5.034   6.679
13802TIP3    H241352   2.167   5.029   6.696
13803TIP3   OH241353   2.909   3.774   2.511
13803TIP3    H141354   2.906   3.828   2.433
13803TIP3    H241355   2.995   3.792   2.550
13804TIP3   OH241356   5.651   0.132   4.316
13804TIP3    H141357   5.656   0.098   4.226
13804TIP3    H241358   5.705   0.072   4.367
13805TIP3   OH241359   7.123   1.869   0.990
13805TIP3    H141360   7.128   1.833   1.078
13805TIP3    H241361   7.082   1.801   0.937
13806TIP3   OH241362   6.409   1.611   4.870
13806TIP3    H141363   6.430   1.567   4.953
13806TIP3    H241364   6.391   1.539   4.809
13807TIP3   OH241365   0.688   6.154   6.237
13807TIP3    H141366   0.653   6.087   6.177
13807TIP3    H241367   0.678   6.115   6.324
13808TIP3   OH241368   3.172   3.703   1.424
13808TIP3    H141369   3.101   3.728   1.366
13808TIP3    H241370   3.161   3.759   1.501
13809TIP3   OH241371   7.194   0.990   5.163
13809TIP3    H141372   7.281   0.992   5.123
13809TIP3    H241373   7.164   0.900   5.152
13810TIP3   OH241374   5.727   4.956   0.117
13810TIP3    H141375   5.710   5.047   0.094
13810TIP3    H241376   5.811   4.959   0.163
13811TIP3   OH241377   1.471   0.978   0.804
13811TIP3    H141378   1.398   1.015   0.854
13811TIP3    H241379   1.547   0.989   0.861
13812TIP3   OH241380   3.836   0.479   3.308
13812TIP3    H141381   3.837   0.386   3.328
13812TIP3    H241382   3.838   0.522   3.393
13813TIP3   OH241383   2.419   3.836   2.894
13813TIP3    H141384   2.420   3.815   2.800
13813TIP3    H241385   2.379   3.923   2.898
13814TIP3   OH241386   5.424   4.150   3.714
13814TIP3    H141387   5.491   4.218   3.726
13814TIP3    H241388   5.341   4.198   3.712
13815TIP3   OH241389   6.918   4.206   2.754
13815TIP3    H141390   6.966   4.124   2.741
13815TIP3    H241391   6.929   4.252   2.671
13816TIP3   OH241392   2.220   3.294   5.095
13816TIP3    H141393   2.242   3.382   5.126
13816TIP3    H241394   2.139   3.305   5.046
13817TIP3   OH241395   5.836   0.038   6.640
13817TIP3    H141396   5.817   0.004   6.553
13817TIP3    H241397   5.771  -0.003   6.697
13818TIP3   OH241398   8.130   1.029   1.723
13818TIP3    H141399   8.124   1.107   1.778
13818TIP3    H241400   8.047   1.028   1.674
13819TIP3   OH241401   2.492   2.530   2.189
13819TIP3    H141402   2.465   2.453   2.139
13819TIP3    H241403   2.528   2.590   2.123
13820TIP3   OH241404   1.538   6.605   1.728
13820TIP3    H141405   1.620   6.653   1.727
13820TIP3    H241406   1.488   6.644   1.800
13821TIP3   OH241407   7.341   1.646   4.828
13821TIP3    H141408   7.395   1.722   4.850
13821TIP3    H241409   7.404   1.577   4.805
13822TIP3   OH241410   3.259   4.980   1.631
13822TIP3    H141411   3.334   4.923   1.652
13822TIP3    H241412   3.279   5.063   1.675
13823TIP3   OH241413   3.301   7.404   3.416
13823TIP3    H141414   3.359   7.330   3.399
13823TIP3    H241415   3.291   7.447   3.331
13824TIP3   OH241416   2.316   7.540   3.410
13824TIP3    H141417   2.329   7.447   3.390
13824TIP3    H241418   2.402   7.579   3.399
13825TIP3   OH241419   6.994   3.760   6.294
13825TIP3    H141420   6.983   3.803   6.210
13825TIP3    H241421   6.937   3.809   6.354
13826TIP3   OH241422   0.949   7.475   1.313
13826TIP3    H141423   0.907   7.412   1.254
13826TIP3    H241424   0.895   7.553   1.308
13827TIP3   OH241425   2.733   0.241   0.995
13827TIP3    H141426   2.811   0.196   0.961
13827TIP3    H241427   2.735   0.327   0.952
13828TIP3   OH241428   5.169   6.944   4.493
13828TIP3    H141429   5.147   6.891   4.570
13828TIP3    H241430   5.224   7.014   4.528
13829TIP3   OH241431   7.505   7.779   0.939
13829TIP3    H141432   7.432   7.833   0.968
13829TIP3    H241433   7.486   7.760   0.847
13830TIP3   OH241434   1.722   0.116   3.918
13830TIP3    H141435   1.679   0.199   3.938
13830TIP3    H241436   1.815   0.136   3.916
13831TIP3   OH241437   1.117   5.796   5.664
13831TIP3    H141438   1.114   5.760   5.753
13831TIP3    H241439   1.117   5.720   5.606
13832TIP3   OH241440   0.077   2.842   3.407
13832TIP3    H141441  -0.002   2.792   3.426
13832TIP3    H241442   0.046   2.931   3.392
13833TIP3   OH241443   2.385   7.820   1.531
13833TIP3    H141444   2.335   7.782   1.603
13833TIP3    H241445   2.346   7.906   1.517
13834TIP3   OH241446   6.237   4.447   0.229
13834TIP3    H141447   6.235   4.542   0.242
13834TIP3    H241448   6.145   4.422   0.224
13835TIP3   OH241449   2.053   2.420   2.670
13835TIP3    H141450   2.136   2.445   2.711
13835TIP3    H241451   2.079   2.373   2.590
13836TIP3   OH241452   8.290   0.229   4.160
13836TIP3    H141453   8.259   0.221   4.070
13836TIP3    H241454   8.383   0.203   4.156
13837TIP3   OH241455   4.199   2.984   4.122
13837TIP3    H141456   4.117   2.944   4.152
13837TIP3    H241457   4.268   2.935   4.167
13838TIP3   OH241458   0.737   1.318   5.497
13838TIP3    H141459   0.824   1.351   5.475
13838TIP3    H241460   0.731   1.328   5.592
13839TIP3   OH241461   2.914   0.545   3.578
13839TIP3    H141462   2.935   0.462   3.533
13839TIP3    H241463   2.849   0.587   3.521
13840TIP3   OH241464   6.527   7.622   5.809
13840TIP3    H141465   6.598   7.604   5.747
13840TIP3    H241466   6.514   7.717   5.802
13841TIP3   OH241467   0.893   3.899   4.111
13841TIP3    H141468   0.950   3.957   4.162
13841TIP3    H241469   0.952   3.832   4.076
13842TIP3   OH241470   1.733   2.437   5.496
13842TIP3    H141471   1.749   2.343   5.488
13842TIP3    H241472   1.790   2.476   5.430
13843TIP3   OH241473   1.205   2.476   2.112
13843TIP3    H141474   1.273   2.540   2.088
13843TIP3    H241475   1.218   2.404   2.050
13844TIP3   OH241476   6.487   4.863   5.364
13844TIP3    H141477   6.481   4.773   5.331
13844TIP3    H241478   6.424   4.866   5.436
13845TIP3   OH241479   7.727   2.103   0.710
13845TIP3    H141480   7.638   2.074   0.688
13845TIP3    H241481   7.736   2.086   0.804
13846TIP3   OH241482   0.607   1.380   0.304
13846TIP3    H141483   0.700   1.380   0.324
13846TIP3    H241484   0.581   1.288   0.309
13847TIP3   OH241485   1.853   3.898   2.999
13847TIP3    H141486   1.851   3.860   2.911
13847TIP3    H241487   1.772   3.867   3.040
13848TIP3   OH241488   7.186   0.262   4.820
13848TIP3    H141489   7.203   0.171   4.847
13848TIP3    H241490   7.203   0.314   4.898
13849TIP3   OH241491   0.020   2.274   2.199
13849TIP3    H141492  -0.040   2.252   2.127
13849TIP3    H241493  -0.013   2.223   2.273
13850TIP3   OH241494   4.906   4.276   1.388
13850TIP3    H141495   4.915   4.356   1.336
13850TIP3    H241496   4.881   4.208   1.325
13851TIP3   OH241497   2.425   6.863   6.657
13851TIP3    H141498   2.354   6.927   6.652
13851TIP3    H241499   2.504   6.914   6.644
13852TIP3   OH241500   4.539   4.536   6.188
13852TIP3    H141501   4.625   4.579   6.190
13852TIP3    H241502   4.489   4.584   6.123
13853TIP3   OH241503   5.225   2.710   1.682
13853TIP3    H141504   5.208   2.707   1.588
13853TIP3    H241505   5.139   2.701   1.723
13854TIP3   OH241506   5.509   2.944   5.132
13854TIP3    H141507   5.435   2.905   5.087
13854TIP3    H241508   5.481   3.032   5.155
13855TIP3   OH241509   8.172   5.559   5.537
13855TIP3    H141510   8.081   5.590   5.534
13855TIP3    H241511   8.207   5.582   5.450
13856TIP3   OH241512   3.830   4.755   5.854
13856TIP3    H141513   3.923   4.764   5.835
13856TIP3    H241514   3.824   4.678   5.910
13857TIP3   OH241515   1.220   4.347   2.486
13857TIP3    H141516   1.244   4.382   2.572
13857TIP3    H241517   1.127   4.370   2.476
13858TIP3   OH241518   2.683   2.913   5.702
13858TIP3    H141519   2.730   2.912   5.786
13858TIP3    H241520   2.728   2.978   5.649
13859TIP3   OH241521   4.084   6.133   5.980
13859TIP3    H141522   4.093   6.133   6.075
13859TIP3    H241523   3.989   6.129   5.965
13860TIP3   OH241524   5.239   5.178   1.130
13860TIP3    H141525   5.271   5.264   1.158
13860TIP3    H241526   5.169   5.197   1.068
13861TIP3   OH241527   7.718   5.377   3.832
13861TIP3    H141528   7.717   5.311   3.902
13861TIP3    H241529   7.734   5.327   3.752
13862TIP3   OH241530   2.153   5.895   5.098
13862TIP3    H141531   2.182   5.940   5.178
13862TIP3    H241532   2.117   5.812   5.129
13863TIP3   OH241533   5.862   3.933   5.535
13863TIP3    H141534   5.867   3.876   5.612
13863TIP3    H241535   5.949   3.925   5.495
13864TIP3   OH241536   2.393   5.548   5.948
13864TIP3    H141537   2.348   5.521   5.867
13864TIP3    H241538   2.334   5.612   5.988
13865TIP3   OH241539   0.176   6.495   1.418
13865TIP3    H141540   0.112   6.512   1.349
13865TIP3    H241541   0.259   6.525   1.381
13866TIP3   OH241542   5.582   5.853   3.669
13866TIP3    H141543   5.538   5.861   3.584
13866TIP3    H241544   5.635   5.774   3.662
13867TIP3   OH241545   0.373   3.906   1.421
13867TIP3    H141546   0.289   3.895   1.377
13867TIP3    H241547   0.438   3.900   1.352
13868TIP3   OH241548   0.872   5.764   2.512
13868TIP3    H141549   0.825   5.690   2.550
13868TIP3    H241550   0.884   5.740   2.420
13869TIP3   OH241551   1.308   0.708   5.822
13869TIP3    H141552   1.233   0.762   5.800
13869TIP3    H241553   1.333   0.736   5.910
13870TIP3   OH241554   4.087   3.339   4.580
13870TIP3    H141555   4.061   3.309   4.492
13870TIP3    H241556   4.009   3.322   4.634
13871TIP3   OH241557   4.554   4.871   2.145
13871TIP3    H141558   4.470   4.855   2.101
13871TIP3    H241559   4.532   4.927   2.219
13872TIP3   OH241560   5.720   1.530   4.710
13872TIP3    H141561   5.747   1.621   4.718
13872TIP3    H241562   5.760   1.486   4.785
13873TIP3   OH241563   2.199   7.191   5.914
13873TIP3    H141564   2.131   7.148   5.966
13873TIP3    H241565   2.191   7.152   5.827
13874TIP3   OH241566   4.380   3.975   1.512
13874TIP3    H141567   4.387   3.906   1.446
13874TIP3    H241568   4.313   4.034   1.478
13875TIP3   OH241569   4.519   6.025   2.398
13875TIP3    H141570   4.525   6.074   2.316
13875TIP3    H241571   4.523   5.933   2.372
13876TIP3   OH241572   0.340   7.280   0.252
13876TIP3    H141573   0.299   7.196   0.229
13876TIP3    H241574   0.297   7.344   0.195
13877TIP3   OH241575   4.648   7.231   2.361
13877TIP3    H141576   4.568   7.280   2.341
13877TIP3    H241577   4.710   7.298   2.389
13878TIP3   OH241578   6.631   6.503   0.936
13878TIP3    H141579   6.695   6.447   0.981
13878TIP3    H241580   6.551   6.450   0.934
13879TIP3   OH241581   5.901   4.204   4.984
13879TIP3    H141582   5.841   4.235   4.916
13879TIP3    H241583   5.860   4.232   5.066
13880TIP3   OH241584   4.612   0.434   1.697
13880TIP3    H141585   4.589   0.496   1.766
13880TIP3    H241586   4.621   0.350   1.743
13881TIP3   OH241587   7.462   1.272   1.930
13881TIP3    H141588   7.394   1.340   1.931
13881TIP3    H241589   7.492   1.266   2.021
13882TIP3   OH241590   8.045   4.320   3.095
13882TIP3    H141591   8.054   4.413   3.075
13882TIP3    H241592   8.018   4.317   3.187
13883TIP3   OH241593   0.949   2.917   2.198
13883TIP3    H141594   0.920   2.924   2.289
13883TIP3    H241595   0.926   2.828   2.172
13884TIP3   OH241596   1.302   4.925   5.565
13884TIP3    H141597   1.351   4.954   5.641
13884TIP3    H241598   1.369   4.898   5.502
13885TIP3   OH241599   0.397   0.325   1.123
13885TIP3    H141600   0.456   0.284   1.186
13885TIP3    H241601   0.367   0.253   1.068
13886TIP3   OH241602   3.913   6.421   5.089
13886TIP3    H141603   3.937   6.329   5.099
13886TIP3    H241604   3.881   6.428   4.999
13887TIP3   OH241605   1.772   0.466   6.492
13887TIP3    H141606   1.856   0.502   6.465
13887TIP3    H241607   1.727   0.444   6.411
13888TIP3   OH241608   1.495   1.887   6.729
13888TIP3    H141609   1.410   1.930   6.719
13888TIP3    H241610   1.528   1.877   6.640
13889TIP3   OH241611   4.998   7.007   6.464
13889TIP3    H141612   4.958   6.931   6.423
13889TIP3    H241613   5.092   6.986   6.468
13890TIP3   OH241614   3.673   1.654   4.300
13890TIP3    H141615   3.670   1.564   4.266
13890TIP3    H241616   3.741   1.696   4.247
13891TIP3   OH241617   7.744   5.120   3.920
13891TIP3    H141618   7.812   5.057   3.945
13891TIP3    H241619   7.684   5.070   3.866
13892TIP3   OH241620   1.904   1.052   2.847
13892TIP3    H141621   1.971   1.114   2.877
13892TIP3    H241622   1.833   1.108   2.814
13893TIP3   OH241623   0.410   2.110   4.228
13893TIP3    H141624   0.467   2.139   4.157
13893TIP3    H241625   0.325   2.148   4.207
13894TIP3   OH241626   5.515   1.077   4.961
13894TIP3    H141627   5.481   1.093   4.873
13894TIP3    H241628   5.606   1.106   4.957
13895TIP3   OH241629   1.130   1.961   5.703
13895TIP3    H141630   1.163   1.969   5.614
13895TIP3    H241631   1.204   1.926   5.753
13896TIP3   OH241632   7.562   6.111   5.429
13896TIP3    H141633   7.577   6.026   5.386
13896TIP3    H241634   7.571   6.093   5.522
13897TIP3   OH241635   2.375   7.042   0.187
13897TIP3    H141636   2.381   7.059   0.281
13897TIP3    H241637   2.320   6.964   0.180
13898TIP3   OH241638   5.039   3.625   6.127
13898TIP3    H141639   5.072   3.621   6.037
13898TIP3    H241640   5.115   3.649   6.180
13899TIP3   OH241641   3.407   4.579   1.077
13899TIP3    H141642   3.316   4.553   1.065
13899TIP3    H241643   3.403   4.663   1.122
13900TIP3   OH241644   0.847   5.676   6.540
13900TIP3    H141645   0.800   5.614   6.596
13900TIP3    H241646   0.797   5.677   6.458
13901TIP3   OH241647   2.925   3.943   3.534
13901TIP3    H141648   2.836   3.940   3.499
13901TIP3    H241649   2.927   3.873   3.598
13902TIP3   OH241650   1.298   3.397   1.836
13902TIP3    H141651   1.236   3.344   1.785
13902TIP3    H241652   1.317   3.472   1.780
13903TIP3   OH241653   4.215   4.755   0.969
13903TIP3    H141654   4.196   4.661   0.972
13903TIP3    H241655   4.139   4.794   0.926
13904TIP3   OH241656   2.664   0.201   4.846
13904TIP3    H141657   2.688   0.125   4.794
13904TIP3    H241658   2.733   0.265   4.829
13905TIP3   OH241659   2.660   4.692   5.222
13905TIP3    H141660   2.594   4.752   5.188
13905TIP3    H241661   2.722   4.747   5.269
13906TIP3   OH241662   1.122   5.078   2.570
13906TIP3    H141663   1.161   5.161   2.599
13906TIP3    H241664   1.036   5.103   2.538
13907TIP3   OH241665   7.953   6.417   4.572
13907TIP3    H141666   7.998   6.347   4.524
13907TIP3    H241667   7.860   6.394   4.566
13908TIP3   OH241668   4.684   5.664   2.458
13908TIP3    H141669   4.698   5.701   2.371
13908TIP3    H241670   4.746   5.710   2.515
13909TIP3   OH241671   4.067   6.612   3.066
13909TIP3    H141672   3.974   6.634   3.074
13909TIP3    H241673   4.077   6.530   3.114
13910TIP3   OH241674   7.373   5.322   4.819
13910TIP3    H141675   7.452   5.344   4.769
13910TIP3    H241676   7.402   5.316   4.909
13911TIP3   OH241677   1.561   0.928   5.088
13911TIP3    H141678   1.560   0.999   5.153
13911TIP3    H241679   1.653   0.909   5.074
13912TIP3   OH241680   2.793   1.361   4.010
13912TIP3    H141681   2.728   1.294   4.029
13912TIP3    H241682   2.856   1.355   4.081
13913TIP3   OH241683   0.422   4.724   6.291
13913TIP3    H141684   0.377   4.767   6.218
13913TIP3    H241685   0.357   4.664   6.327
13914TIP3   OH241686   0.244   2.841   1.618
13914TIP3    H141687   0.152   2.866   1.605
13914TIP3    H241688   0.281   2.837   1.530
13915TIP3   OH241689   2.232   1.562   2.944
13915TIP3    H141690   2.151   1.552   2.993
13915TIP3    H241691   2.269   1.645   2.974
13916TIP3   OH241692   2.567   4.998   5.926
13916TIP3    H141693   2.662   5.003   5.929
13916TIP3    H241694   2.542   4.961   6.010
13917TIP3   OH241695   8.111   1.162   3.878
13917TIP3    H141696   8.101   1.135   3.970
13917TIP3    H241697   8.198   1.201   3.874
13918TIP3   OH241698   6.620   7.546   4.040
13918TIP3    H141699   6.674   7.610   3.993
13918TIP3    H241700   6.635   7.564   4.132
13919TIP3   OH241701   8.071   1.912   2.861
13919TIP3    H141702   8.071   2.002   2.830
13919TIP3    H241703   8.013   1.912   2.937
13920TIP3   OH241704   8.042   3.211   0.060
13920TIP3    H141705   8.094   3.288   0.083
13920TIP3    H241706   8.093   3.167  -0.009
13921TIP3   OH241707   3.808   2.893   3.074
13921TIP3    H141708   3.848   2.809   3.095
13921TIP3    H241709   3.750   2.875   3.001
13922TIP3   OH241710   2.891   5.140   4.883
13922TIP3    H141711   2.921   5.105   4.799
13922TIP3    H241712   2.808   5.184   4.862
13923TIP3   OH241713   0.270   1.209   4.092
13923TIP3    H141714   0.177   1.207   4.072
13923TIP3    H241715   0.311   1.241   4.011
13924TIP3   OH241716   2.360   0.654   2.193
13924TIP3    H141717   2.294   0.585   2.186
13924TIP3    H241718   2.443   0.610   2.174
13925TIP3   OH241719   0.340   6.776   6.733
13925TIP3    H141720   0.278   6.822   6.676
13925TIP3    H241721   0.419   6.767   6.680
13926TIP3   OH241722   7.337   4.226   5.688
13926TIP3    H141723   7.241   4.223   5.691
13926TIP3    H241724   7.358   4.319   5.690
13927TIP3   OH241725   3.825   0.700   4.051
13927TIP3    H141726   3.767   0.639   4.097
13927TIP3    H241727   3.898   0.646   4.023
13928TIP3   OH241728   0.529   0.261   5.814
13928TIP3    H141729   0.589   0.236   5.884
13928TIP3    H241730   0.500   0.349   5.837
13929TIP3   OH241731   1.858   4.774   2.136
13929TIP3    H141732   1.877   4.744   2.047
13929TIP3    H241733   1.933   4.745   2.188
13930TIP3   OH241734   0.415   6.251   3.233
13930TIP3    H141735   0.410   6.158   3.254
13930TIP3    H241736   0.414   6.295   3.318
13931TIP3   OH241737   4.256   0.377   4.615
13931TIP3    H141738   4.293   0.459   4.647
13931TIP3    H241739   4.331   0.328   4.582
13932TIP3   OH241740   3.715   7.673   5.129
13932TIP3    H141741   3.718   7.668   5.224
13932TIP3    H241742   3.631   7.714   5.109
13933TIP3   OH241743   1.248   1.312   2.080
13933TIP3    H141744   1.242   1.275   1.992
13933TIP3    H241745   1.335   1.288   2.110
13934TIP3   OH241746   7.058   0.400   4.010
13934TIP3    H141747   7.090   0.451   4.085
13934TIP3    H241748   7.097   0.314   4.021
13935TIP3   OH241749   7.506   5.272   1.277
13935TIP3    H141750   7.449   5.226   1.216
13935TIP3    H241751   7.594   5.239   1.257
13936TIP3   OH241752   3.784   1.631   5.519
13936TIP3    H141753   3.871   1.670   5.529
13936TIP3    H241754   3.728   1.684   5.576
13937TIP3   OH241755   3.377   2.817   4.725
13937TIP3    H141756   3.398   2.895   4.777
13937TIP3    H241757   3.282   2.807   4.734
13938TIP3   OH241758   5.066   5.692   2.813
13938TIP3    H141759   5.052   5.635   2.737
13938TIP3    H241760   5.157   5.721   2.804
13939TIP3   OH241761   0.473   3.468   3.447
13939TIP3    H141762   0.522   3.386   3.447
13939TIP3    H241763   0.400   3.452   3.387
13940TIP3   OH241764   6.199   5.601   4.970
13940TIP3    H141765   6.194   5.516   4.926
13940TIP3    H241766   6.228   5.581   5.059
13941TIP3   OH241767   0.976   4.419   2.734
13941TIP3    H141768   1.067   4.427   2.707
13941TIP3    H241769   0.930   4.487   2.685
13942TIP3   OH241770   1.315   7.462   1.047
13942TIP3    H141771   1.369   7.414   0.985
13942TIP3    H241772   1.229   7.466   1.006
13943TIP3   OH241773   3.586   6.483   5.785
13943TIP3    H141774   3.535   6.539   5.843
13943TIP3    H241775   3.567   6.394   5.814
13944TIP3   OH241776   4.315   5.812   6.250
13944TIP3    H141777   4.348   5.765   6.174
13944TIP3    H241778   4.381   5.879   6.268
13945TIP3   OH241779   4.325   6.739   3.119
13945TIP3    H141780   4.240   6.698   3.101
13945TIP3    H241781   4.351   6.779   3.036
13946TIP3   OH241782   4.177   6.611   3.591
13946TIP3    H141783   4.207   6.574   3.507
13946TIP3    H241784   4.256   6.612   3.646
13947TIP3   OH241785   7.557   1.485   4.804
13947TIP3    H141786   7.634   1.509   4.752
13947TIP3    H241787   7.579   1.399   4.840
13948TIP3   OH241788   7.286   1.689   3.394
13948TIP3    H141789   7.258   1.622   3.456
13948TIP3    H241790   7.272   1.772   3.440
13949TIP3   OH241791   4.687   4.774   6.274
13949TIP3    H141792   4.729   4.838   6.331
13949TIP3    H241793   4.748   4.764   6.200
13950TIP3   OH241794   2.088   3.299   6.648
13950TIP3    H141795   2.174   3.340   6.643
13950TIP3    H241796   2.047   3.317   6.564
13951TIP3   OH241797   5.976   0.171   4.242
13951TIP3    H141798   6.071   0.177   4.233
13951TIP3    H241799   5.951   0.251   4.287
13952TIP3   OH241800   1.497   6.478   5.445
13952TIP3    H141801   1.499   6.547   5.512
13952TIP3    H241802   1.575   6.493   5.392
13953TIP3   OH241803   7.468   4.384   4.091
13953TIP3    H141804   7.384   4.349   4.060
13953TIP3    H241805   7.456   4.393   4.186
13954TIP3   OH241806   4.998   6.344   3.441
13954TIP3    H141807   5.000   6.317   3.532
13954TIP3    H241808   4.921   6.301   3.404
13955TIP3   OH241809   5.734   3.792   4.217
13955TIP3    H141810   5.827   3.805   4.236
13955TIP3    H241811   5.731   3.712   4.166
13956TIP3   OH241812   3.603   3.481   2.435
13956TIP3    H141813   3.695   3.494   2.411
13956TIP3    H241814   3.603   3.483   2.530
13957TIP3   OH241815   0.863   3.861   6.491
13957TIP3    H141816   0.915   3.848   6.570
13957TIP3    H241817   0.886   3.949   6.461
13958TIP3   OH241818   0.675   1.464   4.373
13958TIP3    H141819   0.677   1.370   4.389
13958TIP3    H241820   0.584   1.482   4.348
13959TIP3   OH241821   4.668   1.982   6.446
13959TIP3    H141822   4.668   1.887   6.450
13959TIP3    H241823   4.760   2.007   6.456
13960TIP3   OH241824   5.489   2.255   5.414
13960TIP3    H141825   5.530   2.341   5.404
13960TIP3    H241826   5.484   2.241   5.508
13961TIP3   OH241827   1.240   7.814   2.756
13961TIP3    H141828   1.279   7.744   2.703
13961TIP3    H241829   1.234   7.778   2.844
13962TIP3   OH241830   4.922   2.093   6.480
13962TIP3    H141831   5.003   2.051   6.451
13962TIP3    H241832   4.951   2.161   6.541
13963TIP3   OH241833   5.497   6.094   1.182
13963TIP3    H141834   5.483   6.162   1.116
13963TIP3    H241835   5.512   6.014   1.131
13964TIP3   OH241836   2.579   2.850   5.416
13964TIP3    H141837   2.550   2.874   5.504
13964TIP3    H241838   2.649   2.787   5.429
13965TIP3   OH241839   1.038   3.705   4.768
13965TIP3    H141840   1.083   3.789   4.759
13965TIP3    H241841   1.028   3.673   4.678
13966TIP3   OH241842   8.003   0.754   1.678
13966TIP3    H141843   8.017   0.726   1.587
13966TIP3    H241844   8.018   0.849   1.677
13967TIP3   OH241845   7.707   2.948   1.561
13967TIP3    H141846   7.654   2.956   1.641
13967TIP3    H241847   7.696   2.857   1.535
13968TIP3   OH241848   2.766   6.260   3.464
13968TIP3    H141849   2.845   6.297   3.504
13968TIP3    H241850   2.790   6.170   3.442
13969TIP3   OH241851   1.579   0.966   3.431
13969TIP3    H141852   1.614   1.010   3.509
13969TIP3    H241853   1.652   0.964   3.370
13970TIP3   OH241854   0.537   3.726   3.537
13970TIP3    H141855   0.517   3.643   3.492
13970TIP3    H241856   0.451   3.762   3.559
13971TIP3   OH241857   6.108   4.986   6.219
13971TIP3    H141858   6.172   4.969   6.288
13971TIP3    H241859   6.060   4.903   6.210
13972TIP3   OH241860   0.424   6.896   4.466
13972TIP3    H141861   0.438   6.946   4.386
13972TIP3    H241862   0.433   6.805   4.439
13973TIP3   OH241863   5.347   3.199   6.126
13973TIP3    H141864   5.430   3.229   6.091
13973TIP3    H241865   5.370   3.142   6.199
13974TIP3   OH241866   0.416   3.425   5.550
13974TIP3    H141867   0.398   3.339   5.513
13974TIP3    H241868   0.347   3.481   5.514
13975TIP3   OH241869   5.904   6.327   2.806
13975TIP3    H141870   5.843   6.389   2.764
13975TIP3    H241871   5.985   6.376   2.816
13976TIP3   OH241872   4.583   5.136   4.782
13976TIP3    H141873   4.518   5.106   4.846
13976TIP3    H241874   4.613   5.219   4.817
13977TIP3   OH241875   1.151   4.137   0.199
13977TIP3    H141876   1.229   4.112   0.248
13977TIP3    H241877   1.165   4.099   0.112
13978TIP3   OH241878   7.371   7.776   3.321
13978TIP3    H141879   7.336   7.691   3.295
13978TIP3    H241880   7.294   7.828   3.344
13979TIP3   OH241881   0.771   2.347   1.170
13979TIP3    H141882   0.701   2.376   1.229
13979TIP3    H241883   0.748   2.256   1.149
13980TIP3   OH241884   4.984   3.823   1.529
13980TIP3    H141885   4.963   3.814   1.436
13980TIP3    H241886   4.924   3.890   1.561
13981TIP3   OH241887   3.247   0.604   2.491
13981TIP3    H141888   3.169   0.638   2.536
13981TIP3    H241889   3.256   0.514   2.522
13982TIP3   OH241890   7.179   5.637   5.889
13982TIP3    H141891   7.213   5.595   5.968
13982TIP3    H241892   7.141   5.565   5.839
13983TIP3   OH241893   8.214   7.405   0.906
13983TIP3    H141894   8.244   7.362   0.826
13983TIP3    H241895   8.263   7.488   0.908
13984TIP3   OH241896   6.561   2.808   0.032
13984TIP3    H141897   6.609   2.726   0.036
13984TIP3    H241898   6.617   2.865  -0.021
13985TIP3   OH241899   1.543   7.842   2.012
13985TIP3    H141900   1.607   7.863   1.943
13985TIP3    H241901   1.593   7.792   2.076
13986TIP3   OH241902   0.306   4.114   2.998
13986TIP3    H141903   0.295   4.115   3.093
13986TIP3    H241904   0.219   4.135   2.964
13987TIP3   OH241905   7.218   3.563   5.562
13987TIP3    H141906   7.180   3.651   5.561
13987TIP3    H241907   7.282   3.566   5.634
13988TIP3   OH241908   1.607   1.075   1.884
13988TIP3    H141909   1.579   1.109   1.799
13988TIP3    H241910   1.580   1.142   1.947
13989TIP3   OH241911   4.040   1.236   6.719
13989TIP3    H141912   4.052   1.215   6.812
13989TIP3    H241913   3.947   1.221   6.702
13990TIP3   OH241914   4.342   6.971   5.877
13990TIP3    H141915   4.251   6.997   5.859
13990TIP3    H241916   4.390   6.997   5.799
13991TIP3   OH241917   7.766   3.245   5.459
13991TIP3    H141918   7.858   3.274   5.460
13991TIP3    H241919   7.743   3.236   5.552
13992TIP3   OH241920   6.868   3.614   2.731
13992TIP3    H141921   6.920   3.621   2.810
13992TIP3    H241922   6.809   3.689   2.734
13993TIP3   OH241923   0.268   6.894   4.047
13993TIP3    H141924   0.206   6.952   4.001
13993TIP3    H241925   0.323   6.859   3.977
13994TIP3   OH241926   3.292   7.271   2.632
13994TIP3    H141927   3.250   7.338   2.685
13994TIP3    H241928   3.250   7.278   2.546
13995TIP3   OH241929   2.616   7.393   5.988
13995TIP3    H141930   2.692   7.345   6.022
13995TIP3    H241931   2.552   7.324   5.970
13996TIP3   OH241932   4.706   5.410   2.570
13996TIP3    H141933   4.677   5.488   2.524
13996TIP3    H241934   4.800   5.407   2.555
13997TIP3   OH241935   2.866   0.126   5.864
13997TIP3    H141936   2.781   0.142   5.906
13997TIP3    H241937   2.843   0.094   5.777
13998TIP3   OH241938   0.570   0.754   3.709
13998TIP3    H141939   0.613   0.674   3.677
13998TIP3    H241940   0.542   0.733   3.798
13999TIP3   OH241941   3.460   4.816   6.068
13999TIP3    H141942   3.491   4.732   6.033
13999TIP3    H241943   3.462   4.804   6.163
14000TIP3   OH241944   3.693   7.143   5.445
14000TIP3    H141945   3.747   7.219   5.421
14000TIP3    H241946   3.752   7.068   5.436
14001TIP3   OH241947   1.883   7.362   2.374
14001TIP3    H141948   1.922   7.326   2.453
14001TIP3    H241949   1.866   7.285   2.319
14002TIP3   OH241950   0.561   0.602   2.048
14002TIP3    H141951   0.515   0.531   2.094
14002TIP3    H241952   0.634   0.625   2.107
14003TIP3   OH241953   2.143   0.179   4.844
14003TIP3    H141954   2.169   0.254   4.898
14003TIP3    H241955   2.056   0.203   4.811
14004TIP3   OH241956   0.650   7.818   4.103
14004TIP3    H141957   0.715   7.886   4.082
14004TIP3    H241958   0.686   7.774   4.180
14005TIP3   OH241959   7.816   2.446   1.151
14005TIP3    H141960   7.870   2.512   1.196
14005TIP3    H241961   7.767   2.497   1.085
14006TIP3   OH241962   0.367   6.937   5.600
14006TIP3    H141963   0.306   6.967   5.668
14006TIP3    H241964   0.312   6.926   5.523
14007TIP3   OH241965   5.453   7.497   4.444
14007TIP3    H141966   5.503   7.549   4.507
14007TIP3    H241967   5.517   7.470   4.378
14008TIP3   OH241968   1.214   5.317   5.682
14008TIP3    H141969   1.173   5.333   5.597
14008TIP3    H241970   1.273   5.244   5.668
14009TIP3   OH241971   4.966   3.113   0.354
14009TIP3    H141972   5.050   3.089   0.316
14009TIP3    H241973   4.944   3.197   0.313
14010TIP3   OH241974   2.723   2.343   0.859
14010TIP3    H141975   2.720   2.324   0.953
14010TIP3    H241976   2.806   2.307   0.830
14011TIP3   OH241977   3.418   0.135   1.597
14011TIP3    H141978   3.331   0.172   1.613
14011TIP3    H241979   3.405   0.075   1.523
14012TIP3   OH241980   5.578   0.413   1.045
14012TIP3    H141981   5.614   0.355   0.978
14012TIP3    H241982   5.532   0.481   0.995
14013TIP3   OH241983   1.276   5.117   5.223
14013TIP3    H141984   1.306   5.026   5.226
14013TIP3    H241985   1.198   5.118   5.277
14014TIP3   OH241986   1.872   7.304   2.911
14014TIP3    H141987   1.895   7.339   2.997
14014TIP3    H241988   1.792   7.351   2.886
14015TIP3   OH241989   2.733   1.091   5.389
14015TIP3    H141990   2.729   1.136   5.473
14015TIP3    H241991   2.815   1.042   5.391
14016TIP3   OH241992   3.343   4.688   5.723
14016TIP3    H141993   3.427   4.734   5.731
14016TIP3    H241994   3.358   4.623   5.654
14017TIP3   OH241995   0.577   6.500   5.465
14017TIP3    H141996   0.600   6.421   5.416
14017TIP3    H241997   0.619   6.571   5.417
14018TIP3   OH241998   4.839   3.818   0.967
14018TIP3    H141999   4.866   3.726   0.961
14018TIP3    H242000   4.903   3.866   0.914
14019TIP3   OH242001   4.014   7.114   0.794
14019TIP3    H142002   3.981   7.051   0.730
14019TIP3    H242003   4.098   7.143   0.758
14020TIP3   OH242004   2.512   0.660   4.573
14020TIP3    H142005   2.593   0.609   4.572
14020TIP3    H242006   2.537   0.746   4.539
14021TIP3   OH242007   5.657   3.754   2.112
14021TIP3    H142008   5.615   3.754   2.026
14021TIP3    H242009   5.738   3.705   2.098
14022TIP3   OH242010   3.385   7.066   1.739
14022TIP3    H142011   3.470   7.108   1.748
14022TIP3    H242012   3.376   7.048   1.646
14023TIP3   OH242013   7.452   2.311   0.189
14023TIP3    H142014   7.538   2.348   0.209
14023TIP3    H242015   7.458   2.220   0.216
14024TIP3   OH242016   6.559   2.607   1.917
14024TIP3    H142017   6.491   2.565   1.866
14024TIP3    H242018   6.557   2.699   1.891
14025TIP3   OH242019   5.553   2.978   6.482
14025TIP3    H142020   5.592   2.892   6.501
14025TIP3    H242021   5.556   2.984   6.387
14026TIP3   OH242022   4.798   0.139   0.800
14026TIP3    H142023   4.706   0.118   0.782
14026TIP3    H242024   4.847   0.071   0.754
14027TIP3   OH242025   6.702   0.332   3.169
14027TIP3    H142026   6.658   0.254   3.202
14027TIP3    H242027   6.795   0.312   3.179
14028TIP3   OH242028   4.468   0.412   3.908
14028TIP3    H142029   4.550   0.456   3.884
14028TIP3    H242030   4.413   0.419   3.830
14029TIP3   OH242031   3.893   5.997   0.189
14029TIP3    H142032   3.976   6.012   0.233
14029TIP3    H242033   3.827   6.009   0.257
14030TIP3   OH242034   7.780   5.286   3.099
14030TIP3    H142035   7.745   5.262   3.013
14030TIP3    H242036   7.763   5.380   3.107
14031TIP3   OH242037   6.934   3.505   2.214
14031TIP3    H142038   6.885   3.494   2.295
14031TIP3    H242039   6.998   3.434   2.215
14032TIP3   OH242040   3.753   6.561   0.804
14032TIP3    H142041   3.820   6.611   0.852
14032TIP3    H242042   3.680   6.554   0.866
14033TIP3   OH242043   2.948   6.759   2.203
14033TIP3    H142044   2.996   6.676   2.196
14033TIP3    H242045   2.926   6.782   2.113
14034TIP3   OH242046   2.454   2.471   5.914
14034TIP3    H142047   2.359   2.484   5.905
14034TIP3    H242048   2.492   2.552   5.880
14035TIP3   OH242049   1.909   5.761   2.182
14035TIP3    H142050   1.980   5.748   2.244
14035TIP3    H242051   1.877   5.849   2.200
14036TIP3   OH242052   7.070   5.394   2.231
14036TIP3    H142053   7.130   5.338   2.181
14036TIP3    H242054   7.006   5.333   2.268
14037TIP3   OH242055   6.141   4.997   5.521
14037TIP3    H142056   6.180   4.911   5.538
14037TIP3    H242057   6.057   4.995   5.565
14038TIP3   OH242058   7.853   3.357   3.803
14038TIP3    H142059   7.934   3.337   3.850
14038TIP3    H242060   7.816   3.433   3.849
14039TIP3   OH242061   6.925   5.740   2.962
14039TIP3    H142062   6.865   5.793   2.908
14039TIP3    H242063   6.955   5.671   2.903
14040TIP3   OH242064   5.701   4.891   6.159
14040TIP3    H142065   5.716   4.935   6.075
14040TIP3    H242066   5.711   4.959   6.225
14041TIP3   OH242067   2.101   7.218   1.094
14041TIP3    H142068   2.090   7.234   1.000
14041TIP3    H242069   2.175   7.272   1.119
14042TIP3   OH242070   4.545   7.522   4.249
14042TIP3    H142071   4.543   7.540   4.155
14042TIP3    H242072   4.639   7.518   4.270
14043TIP3   OH242073   7.987   1.354   1.337
14043TIP3    H142074   8.076   1.325   1.355
14043TIP3    H242075   7.947   1.281   1.290
14044TIP3   OH242076   7.759   6.854   0.881
14044TIP3    H142077   7.718   6.928   0.925
14044TIP3    H242078   7.790   6.889   0.797
14045TIP3   OH242079   0.224   0.110   5.946
14045TIP3    H142080   0.171   0.146   6.017
14045TIP3    H242081   0.179   0.139   5.866
14046TIP3   OH242082   6.353   4.557   3.986
14046TIP3    H142083   6.265   4.547   3.951
14046TIP3    H242084   6.380   4.644   3.957
14047TIP3   OH242085   3.702   1.389   4.174
14047TIP3    H142086   3.622   1.393   4.121
14047TIP3    H242087   3.740   1.304   4.153
14048TIP3   OH242088   2.530   6.402   3.159
14048TIP3    H142089   2.498   6.314   3.179
14048TIP3    H242090   2.578   6.429   3.237
14049TIP3   OH242091   6.152   1.162   5.057
14049TIP3    H142092   6.139   1.172   4.962
14049TIP3    H242093   6.097   1.088   5.081
14050TIP3   OH242094   4.083   4.168   2.945
14050TIP3    H142095   4.025   4.104   2.904
14050TIP3    H242096   4.168   4.124   2.948
14051TIP3   OH242097   4.662   0.418   3.272
14051TIP3    H142098   4.726   0.465   3.325
14051TIP3    H242099   4.642   0.477   3.200
14052TIP3   OH242100   5.669   7.781   1.445
14052TIP3    H142101   5.588   7.830   1.459
14052TIP3    H242102   5.727   7.811   1.515
14053TIP3   OH242103   1.103   4.993   6.190
14053TIP3    H142104   1.127   5.017   6.101
14053TIP3    H242105   1.010   5.015   6.197
14054TIP3   OH242106   7.466   0.230   3.622
14054TIP3    H142107   7.377   0.257   3.646
14054TIP3    H242108   7.519   0.308   3.637
14055TIP3   OH242109   7.539   5.625   3.465
14055TIP3    H142110   7.600   5.643   3.536
14055TIP3    H242111   7.501   5.710   3.442
14056TIP3   OH242112   2.749   6.685   1.953
14056TIP3    H142113   2.675   6.743   1.933
14056TIP3    H242114   2.827   6.737   1.932
14057TIP3   OH242115   3.383   1.326   6.180
14057TIP3    H142116   3.325   1.351   6.251
14057TIP3    H242117   3.433   1.405   6.160
14058TIP3   OH242118   4.437   3.320   4.573
14058TIP3    H142119   4.506   3.289   4.632
14058TIP3    H242120   4.360   3.330   4.629
14059TIP3   OH242121   6.967   2.053   5.874
14059TIP3    H142122   6.886   2.057   5.823
14059TIP3    H242123   6.985   1.959   5.883
14060TIP3   OH242124   1.069   5.630   3.169
14060TIP3    H142125   1.148   5.628   3.115
14060TIP3    H242126   1.011   5.692   3.125
14061TIP3   OH242127   1.221   0.150   1.530
14061TIP3    H142128   1.224   0.178   1.621
14061TIP3    H242129   1.160   0.210   1.488
14062TIP3   OH242130   3.924   0.509   2.567
14062TIP3    H142131   3.977   0.535   2.491
14062TIP3    H242132   3.987   0.473   2.629
14063TIP3   OH242133   6.243   6.773   3.196
14063TIP3    H142134   6.315   6.791   3.257
14063TIP3    H242135   6.164   6.795   3.244
14064TIP3   OH242136   5.714   2.277   1.439
14064TIP3    H142137   5.632   2.232   1.418
14064TIP3    H242138   5.780   2.236   1.382
14065TIP3   OH242139   7.962   6.173   6.584
14065TIP3    H142140   7.949   6.167   6.490
14065TIP3    H242141   8.050   6.139   6.599
14066TIP3   OH242142   2.349   7.726   6.450
14066TIP3    H142143   2.262   7.688   6.439
14066TIP3    H242144   2.338   7.818   6.425
14067TIP3   OH242145   2.216   6.115   6.148
14067TIP3    H142146   2.162   6.193   6.158
14067TIP3    H242147   2.218   6.100   6.053
14068TIP3   OH242148   1.086   4.976   6.462
14068TIP3    H142149   1.162   4.928   6.495
14068TIP3    H242150   1.104   4.989   6.369
14069TIP3   OH242151   1.051   2.714   6.007
14069TIP3    H142152   1.029   2.797   5.965
14069TIP3    H242153   1.079   2.738   6.095
14070TIP3   OH242154   7.152   6.183   0.305
14070TIP3    H142155   7.181   6.274   0.313
14070TIP3    H242156   7.199   6.150   0.229
14071TIP3   OH242157   1.877   6.705   3.584
14071TIP3    H142158   1.894   6.729   3.493
14071TIP3    H242159   1.955   6.656   3.611
14072TIP3   OH242160   8.270   7.120   0.069
14072TIP3    H142161   8.181   7.086   0.078
14072TIP3    H242162   8.259   7.214   0.055
14073TIP3   OH242163   0.120   2.060   1.831
14073TIP3    H142164   0.125   2.075   1.925
14073TIP3    H242165   0.207   2.030   1.806
14074TIP3   OH242166   2.401   3.976   1.828
14074TIP3    H142167   2.350   3.975   1.909
14074TIP3    H242168   2.462   4.049   1.839
14075TIP3   OH242169   4.306   1.109   0.233
14075TIP3    H142170   4.326   1.083   0.143
14075TIP3    H242171   4.273   1.030   0.275
14076TIP3   OH242172   3.548   4.115   3.810
14076TIP3    H142173   3.575   4.159   3.729
14076TIP3    H242174   3.591   4.164   3.880
14077TIP3   OH242175   1.309   4.568   5.106
14077TIP3    H142176   1.285   4.647   5.155
14077TIP3    H242177   1.399   4.550   5.132
14078TIP3   OH242178   3.953   7.110   2.606
14078TIP3    H142179   4.021   7.045   2.585
14078TIP3    H242180   3.871   7.068   2.581
14079TIP3   OH242181   4.854   4.534   6.650
14079TIP3    H142182   4.924   4.591   6.617
14079TIP3    H242183   4.801   4.514   6.572
14080TIP3   OH242184   6.012   3.110   5.506
14080TIP3    H142185   6.018   3.084   5.598
14080TIP3    H242186   6.092   3.160   5.490
14081TIP3   OH242187   3.035   6.611   4.206
14081TIP3    H142188   2.948   6.590   4.174
14081TIP3    H242189   3.020   6.659   4.288
14082TIP3   OH242190   6.587   3.406   0.389
14082TIP3    H142191   6.674   3.373   0.411
14082TIP3    H242192   6.600   3.499   0.374
14083TIP3   OH242193   3.044   2.667   4.316
14083TIP3    H142194   3.110   2.649   4.382
14083TIP3    H242195   2.961   2.647   4.360
14084TIP3   OH242196   4.070   4.777   0.546
14084TIP3    H142197   4.046   4.820   0.628
14084TIP3    H242198   4.091   4.687   0.572
14085TIP3   OH242199   2.396   2.392   5.298
14085TIP3    H142200   2.310   2.434   5.307
14085TIP3    H242201   2.436   2.435   5.223
14086TIP3   OH242202   5.092   2.358   4.695
14086TIP3    H142203   5.156   2.331   4.629
14086TIP3    H242204   5.106   2.298   4.768
14087TIP3   OH242205   3.165   3.580   6.399
14087TIP3    H142206   3.234   3.558   6.462
14087TIP3    H242207   3.096   3.515   6.415
14088TIP3   OH242208   0.875   7.197   0.950
14088TIP3    H142209   0.799   7.194   0.893
14088TIP3    H242210   0.938   7.137   0.910
14089TIP3   OH242211   6.601   3.027   1.422
14089TIP3    H142212   6.597   2.932   1.416
14089TIP3    H242213   6.689   3.050   1.391
14090TIP3   OH242214   6.041   1.407   5.160
14090TIP3    H142215   6.079   1.321   5.140
14090TIP3    H242216   6.107   1.470   5.130
14091TIP3   OH242217   7.457   3.341   3.162
14091TIP3    H142218   7.475   3.395   3.239
14091TIP3    H242219   7.505   3.260   3.179
14092TIP3   OH242220   3.230   4.527   3.618
14092TIP3    H142221   3.246   4.566   3.703
14092TIP3    H242222   3.220   4.433   3.636
14093TIP3   OH242223   8.033   4.949   5.436
14093TIP3    H142224   8.120   4.960   5.397
14093TIP3    H242225   8.047   4.889   5.509
14094TIP3   OH242226   4.467   1.381   4.040
14094TIP3    H142227   4.393   1.356   4.096
14094TIP3    H242228   4.521   1.436   4.096
14095TIP3   OH242229   5.109   4.482   4.461
14095TIP3    H142230   5.140   4.569   4.485
14095TIP3    H242231   5.058   4.496   4.381
14096TIP3   OH242232   1.850   0.852   4.219
14096TIP3    H142233   1.844   0.849   4.314
14096TIP3    H242234   1.774   0.803   4.188
14097TIP3   OH242235   0.509   0.824   6.752
14097TIP3    H142236   0.540   0.761   6.687
14097TIP3    H242237   0.447   0.774   6.806
14098TIP3   OH242238   5.905   7.320   1.862
14098TIP3    H142239   5.865   7.323   1.949
14098TIP3    H242240   5.952   7.403   1.853
14099TIP3   OH242241   3.000   6.181   1.169
14099TIP3    H142242   2.998   6.194   1.075
14099TIP3    H242243   3.080   6.130   1.185
14100TIP3   OH242244   6.369   0.167   6.010
14100TIP3    H142245   6.428   0.155   6.085
14100TIP3    H242246   6.372   0.261   5.992
14101TIP3   OH242247   2.836   2.898   1.130
14101TIP3    H142248   2.747   2.872   1.105
14101TIP3    H242249   2.893   2.831   1.092
14102TIP3   OH242250   4.710   1.229   6.511
14102TIP3    H142251   4.626   1.190   6.486
14102TIP3    H242252   4.760   1.229   6.429
14103TIP3   OH242253   5.039   0.498   4.256
14103TIP3    H142254   5.033   0.437   4.183
14103TIP3    H242255   5.131   0.497   4.280
14104TIP3   OH242256   1.427   4.261   3.877
14104TIP3    H142257   1.429   4.332   3.941
14104TIP3    H242258   1.431   4.305   3.792
14105TIP3   OH242259   0.168   2.809   2.042
14105TIP3    H142260   0.100   2.746   2.018
14105TIP3    H242261   0.120   2.890   2.060
14106TIP3   OH242262   0.091   6.690   4.473
14106TIP3    H142263   0.078   6.753   4.402
14106TIP3    H242264   0.103   6.606   4.429
14107TIP3   OH242265   5.701   5.615   0.270
14107TIP3    H142266   5.773   5.552   0.283
14107TIP3    H242267   5.625   5.572   0.308
14108TIP3   OH242268   4.041   6.965   3.514
14108TIP3    H142269   4.129   6.984   3.481
14108TIP3    H242270   3.988   7.040   3.487
14109TIP3   OH242271   5.395   4.316   6.209
14109TIP3    H142272   5.396   4.367   6.290
14109TIP3    H242273   5.340   4.367   6.149
14110TIP3   OH242274   3.188   4.505   2.370
14110TIP3    H142275   3.251   4.449   2.416
14110TIP3    H242276   3.102   4.476   2.402
14111TIP3   OH242277   2.279   4.883   3.300
14111TIP3    H142278   2.217   4.811   3.289
14111TIP3    H242279   2.342   4.871   3.229
14112TIP3   OH242280   2.952   7.500   6.222
14112TIP3    H142281   2.976   7.551   6.144
14112TIP3    H242282   3.033   7.458   6.249
14113TIP3   OH242283   3.888   2.608   6.425
14113TIP3    H142284   3.873   2.628   6.517
14113TIP3    H242285   3.980   2.582   6.421
14114TIP3   OH242286   2.508   1.652   3.882
14114TIP3    H142287   2.528   1.577   3.826
14114TIP3    H242288   2.438   1.699   3.836
14115TIP3   OH242289   7.904   7.295   4.456
14115TIP3    H142290   7.893   7.260   4.545
14115TIP3    H242291   7.826   7.265   4.409
14116TIP3   OH242292   6.734   3.472   4.178
14116TIP3    H142293   6.750   3.506   4.266
14116TIP3    H242294   6.820   3.473   4.136
14117TIP3   OH242295   0.086   3.627   3.542
14117TIP3    H142296   0.168   3.675   3.527
14117TIP3    H242297   0.113   3.547   3.587
14118TIP3   OH242298   1.396   6.489   2.405
14118TIP3    H142299   1.355   6.451   2.483
14118TIP3    H242300   1.481   6.445   2.399
14119TIP3   OH242301   2.033   1.951   0.808
14119TIP3    H142302   2.065   1.950   0.898
14119TIP3    H242303   2.111   1.942   0.754
14120TIP3   OH242304   1.947   2.800   6.580
14120TIP3    H142305   2.027   2.781   6.629
14120TIP3    H242306   1.924   2.716   6.539
14121TIP3   OH242307   1.469   3.619   5.259
14121TIP3    H142308   1.421   3.553   5.208
14121TIP3    H242309   1.495   3.685   5.194
14122TIP3   OH242310   7.936   6.086   5.886
14122TIP3    H142311   7.898   6.131   5.961
14122TIP3    H242312   8.028   6.072   5.910
14123TIP3   OH242313   2.310   1.758   2.502
14123TIP3    H142314   2.268   1.814   2.567
14123TIP3    H242315   2.349   1.687   2.554
14124TIP3   OH242316   0.030   0.951   1.973
14124TIP3    H142317   0.106   0.924   2.025
14124TIP3    H242318  -0.006   0.869   1.939
14125TIP3   OH242319   3.686   0.509   1.420
14125TIP3    H142320   3.716   0.457   1.494
14125TIP3    H242321   3.766   0.540   1.378
14126TIP3   OH242322   0.385   0.353   5.072
14126TIP3    H142323   0.384   0.445   5.046
14126TIP3    H242324   0.317   0.312   5.019
14127TIP3   OH242325   6.300   2.997   4.144
14127TIP3    H142326   6.344   2.913   4.155
14127TIP3    H242327   6.364   3.052   4.098
14128TIP3   OH242328   5.990   6.981   2.376
14128TIP3    H142329   5.902   6.976   2.412
14128TIP3    H242330   5.988   6.923   2.300
14129TIP3   OH242331   7.904   5.131   0.719
14129TIP3    H142332   7.976   5.077   0.751
14129TIP3    H242333   7.943   5.216   0.700
14130TIP3   OH242334   5.443   5.645   4.891
14130TIP3    H142335   5.473   5.617   4.804
14130TIP3    H242336   5.511   5.613   4.951
14131TIP3   OH242337   4.852   6.197   6.553
14131TIP3    H142338   4.881   6.129   6.492
14131TIP3    H242339   4.801   6.257   6.498
14132TIP3   OH242340  -0.030   1.161   0.405
14132TIP3    H142341  -0.007   1.075   0.371
14132TIP3    H242342  -0.016   1.220   0.331
14133TIP3   OH242343   3.916   3.775   0.921
14133TIP3    H142344   3.997   3.732   0.893
14133TIP3    H242345   3.854   3.703   0.932
14134TIP3   OH242346   3.633   1.494   1.078
14134TIP3    H142347   3.632   1.401   1.103
14134TIP3    H242348   3.721   1.524   1.102
14135TIP3   OH242349   5.244   5.657   0.755
14135TIP3    H142350   5.295   5.618   0.826
14135TIP3    H242351   5.302   5.651   0.678
14136TIP3   OH242352   5.078   2.331   6.611
14136TIP3    H142353   5.171   2.331   6.631
14136TIP3    H242354   5.049   2.421   6.627
14137TIP3   OH242355   4.832   5.907   2.796
14137TIP3    H142356   4.889   5.831   2.811
14137TIP3    H242357   4.873   5.977   2.847
14138TIP3   OH242358   2.975   6.713   6.232
14138TIP3    H142359   3.009   6.785   6.179
14138TIP3    H242360   3.041   6.644   6.222
14139TIP3   OH242361   0.633   0.556   6.099
14139TIP3    H142362   0.637   0.470   6.140
14139TIP3    H242363   0.586   0.541   6.017
14140TIP3   OH242364   1.243   1.215   0.559
14140TIP3    H142365   1.194   1.180   0.633
14140TIP3    H242366   1.264   1.305   0.585
14141TIP3   OH242367   7.041   1.230   1.176
14141TIP3    H142368   6.998   1.311   1.204
14141TIP3    H242369   7.071   1.250   1.087
14142TIP3   OH242370   5.656   4.293   3.920
14142TIP3    H142371   5.605   4.370   3.897
14142TIP3    H242372   5.746   4.325   3.929
14143TIP3   OH242373   0.787   0.730   2.696
14143TIP3    H142374   0.707   0.777   2.718
14143TIP3    H242375   0.779   0.646   2.742
14144TIP3   OH242376   7.276   6.943   2.412
14144TIP3    H142377   7.249   6.852   2.420
14144TIP3    H242378   7.354   6.951   2.468
14145TIP3   OH242379   7.239   6.690   2.556
14145TIP3    H142380   7.326   6.727   2.570
14145TIP3    H242381   7.193   6.703   2.638
14146TIP3   OH242382   5.558   2.034   1.662
14146TIP3    H142383   5.547   2.129   1.667
14146TIP3    H242384   5.584   2.017   1.571
14147TIP3   OH242385   4.836   0.059   3.519
14147TIP3    H142386   4.755   0.100   3.488
14147TIP3    H242387   4.874   0.018   3.442
14148TIP3   OH242388   7.028   0.294   5.108
14148TIP3    H142389   7.000   0.348   5.033
14148TIP3    H242390   6.955   0.300   5.170
14149TIP3   OH242391   1.296   2.415   0.769
14149TIP3    H142392   1.287   2.509   0.779
14149TIP3    H242393   1.277   2.380   0.856
14150TIP3   OH242394   7.223   4.315   3.978
14150TIP3    H142395   7.244   4.249   3.912
14150TIP3    H242396   7.151   4.276   4.028
14151TIP3   OH242397   3.304   5.961   3.097
14151TIP3    H142398   3.226   5.930   3.051
14151TIP3    H242399   3.315   6.052   3.069
14152TIP3   OH242400   7.155   3.105   1.026
14152TIP3    H142401   7.073   3.063   1.000
14152TIP3    H242402   7.141   3.129   1.118
14153TIP3   OH242403   3.940   3.450   1.667
14153TIP3    H142404   3.909   3.387   1.732
14153TIP3    H242405   4.035   3.449   1.675
14154TIP3   OH242406   3.306   5.270   2.202
14154TIP3    H142407   3.317   5.357   2.240
14154TIP3    H242408   3.375   5.263   2.136
14155TIP3   OH242409   1.406   6.319   5.099
14155TIP3    H142410   1.341   6.327   5.030
14155TIP3    H242411   1.363   6.352   5.178
14156TIP3   OH242412   6.040   0.354   2.227
14156TIP3    H142413   6.112   0.401   2.270
14156TIP3    H242414   6.051   0.263   2.255
14157TIP3   OH242415   6.895   7.780   3.466
14157TIP3    H142416   6.822   7.789   3.527
14157TIP3    H242417   6.972   7.769   3.521
14158TIP3   OH242418  -0.029   6.161   6.325
14158TIP3    H142419   0.045   6.115   6.288
14158TIP3    H242420  -0.067   6.099   6.388
14159TIP3   OH242421   6.706   6.827   2.736
14159TIP3    H142422   6.756   6.795   2.661
14159TIP3    H242423   6.704   6.753   2.797
14160TIP3   OH242424   0.024   2.178   0.975
14160TIP3    H142425   0.060   2.134   0.898
14160TIP3    H242426   0.076   2.145   1.048
14161TIP3   OH242427   5.820   4.162   0.923
14161TIP3    H142428   5.914   4.146   0.917
14161TIP3    H242429   5.788   4.147   0.834
14162TIP3   OH242430   4.100   5.883   3.416
14162TIP3    H142431   4.191   5.913   3.407
14162TIP3    H242432   4.091   5.815   3.349
14163TIP3   OH242433   3.058   1.110   4.783
14163TIP3    H142434   3.011   1.176   4.732
14163TIP3    H242435   3.064   1.035   4.725
14164TIP3   OH242436   2.606   7.787   0.596
14164TIP3    H142437   2.625   7.876   0.623
14164TIP3    H242438   2.566   7.747   0.674
14165TIP3   OH242439   4.159   1.985   3.803
14165TIP3    H142440   4.110   1.954   3.880
14165TIP3    H242441   4.098   1.974   3.730
14166TIP3   OH242442   1.262   6.288   1.699
14166TIP3    H142443   1.342   6.312   1.745
14166TIP3    H242444   1.192   6.306   1.762
14167TIP3   OH242445   2.026   6.557   6.303
14167TIP3    H142446   2.116   6.526   6.313
14167TIP3    H242447   2.034   6.651   6.290
14168TIP3   OH242448   6.019   4.076   3.782
14168TIP3    H142449   6.053   4.140   3.719
14168TIP3    H242450   6.024   4.121   3.866
14169TIP3   OH242451   5.701   6.229   4.556
14169TIP3    H142452   5.652   6.298   4.600
14169TIP3    H242453   5.792   6.257   4.561
14170TIP3   OH242454   5.037   2.166   1.874
14170TIP3    H142455   4.964   2.227   1.869
14170TIP3    H242456   5.037   2.136   1.965
14171TIP3   OH242457   4.978   5.959   6.369
14171TIP3    H142458   5.017   5.928   6.287
14171TIP3    H242459   4.989   6.054   6.366
14172TIP3   OH242460   3.219   3.241   0.375
14172TIP3    H142461   3.314   3.241   0.364
14172TIP3    H242462   3.193   3.150   0.360
14173TIP3   OH242463   0.543   5.690   4.754
14173TIP3    H142464   0.453   5.661   4.739
14173TIP3    H242465   0.535   5.759   4.820
14174TIP3   OH242466   7.473   4.234   6.357
14174TIP3    H142467   7.499   4.325   6.369
14174TIP3    H242468   7.547   4.194   6.311
14175TIP3   OH242469   1.580   4.134   1.752
14175TIP3    H142470   1.550   4.133   1.843
14175TIP3    H242471   1.605   4.225   1.736
14176TIP3   OH242472   5.791   3.166   6.065
14176TIP3    H142473   5.833   3.103   6.123
14176TIP3    H242474   5.743   3.225   6.123
14177TIP3   OH242475   5.152   6.570   2.473
14177TIP3    H142476   5.143   6.647   2.529
14177TIP3    H242477   5.245   6.566   2.452
14178TIP3   OH242478   4.103   4.424   2.892
14178TIP3    H142479   4.082   4.340   2.932
14178TIP3    H242480   4.019   4.467   2.879
14179TIP3   OH242481   4.269   3.424   3.606
14179TIP3    H142482   4.301   3.335   3.619
14179TIP3    H242483   4.347   3.479   3.616
14180TIP3   OH242484  -0.031   5.528   4.200
14180TIP3    H142485   0.058   5.512   4.171
14180TIP3    H242486  -0.037   5.482   4.284
14181TIP3   OH242487   6.792   4.774   1.589
14181TIP3    H142488   6.744   4.740   1.665
14181TIP3    H242489   6.765   4.865   1.582
14182TIP3   OH242490   1.458   1.394   0.174
14182TIP3    H142491   1.449   1.422   0.083
14182TIP3    H242492   1.447   1.299   0.170
14183TIP3   OH242493   0.567   7.690   0.983
14183TIP3    H142494   0.656   7.723   0.990
14183TIP3    H242495   0.569   7.607   1.029
14184TIP3   OH242496   3.628   6.721   2.186
14184TIP3    H142497   3.668   6.672   2.258
14184TIP3    H242498   3.534   6.713   2.202
14185TIP3   OH242499   1.206   3.261   0.970
14185TIP3    H142500   1.270   3.305   1.026
14185TIP3    H242501   1.217   3.168   0.989
14186TIP3   OH242502   2.733   1.978   3.331
14186TIP3    H142503   2.673   1.936   3.393
14186TIP3    H242504   2.795   1.909   3.307
14187TIP3   OH242505   0.042   0.581   0.104
14187TIP3    H142506   0.055   0.512   0.040
14187TIP3    H242507  -0.053   0.590   0.111
14188TIP3   OH242508   3.967   4.945   1.685
14188TIP3    H142509   4.010   4.932   1.600
14188TIP3    H242510   4.025   4.902   1.747
14189TIP3   OH242511   1.578   4.155   2.966
14189TIP3    H142512   1.541   4.078   3.008
14189TIP3    H242513   1.516   4.225   2.986
14190TIP3   OH242514   7.420   4.535   1.163
14190TIP3    H142515   7.433   4.568   1.074
14190TIP3    H242516   7.500   4.561   1.209
14191TIP3   OH242517   2.042   0.818   5.371
14191TIP3    H142518   2.120   0.865   5.342
14191TIP3    H242519   2.055   0.728   5.342
14192TIP3   OH242520   7.899   7.182   1.492
14192TIP3    H142521   7.939   7.207   1.575
14192TIP3    H242522   7.912   7.258   1.435
14193TIP3   OH242523   3.941   7.126   3.958
14193TIP3    H142524   3.974   7.057   3.900
14193TIP3    H242525   4.017   7.151   4.010
14194TIP3   OH242526   1.572   5.950   3.235
14194TIP3    H142527   1.496   5.981   3.284
14194TIP3    H242528   1.586   5.860   3.267
14195TIP3   OH242529   4.293   6.466   6.454
14195TIP3    H142530   4.313   6.460   6.361
14195TIP3    H242531   4.280   6.559   6.471
14196TIP3   OH242532   5.708   0.990   2.933
14196TIP3    H142533   5.706   1.082   2.905
14196TIP3    H242534   5.647   0.946   2.874
14197TIP3   OH242535   6.411   2.037   2.340
14197TIP3    H142536   6.372   2.118   2.309
14197TIP3    H242537   6.425   2.051   2.434
14198TIP3   OH242538   3.467   3.135   0.636
14198TIP3    H142539   3.507   3.079   0.702
14198TIP3    H242540   3.379   3.098   0.623
14199TIP3   OH242541   5.842   1.237   1.425
14199TIP3    H142542   5.880   1.305   1.480
14199TIP3    H242543   5.754   1.224   1.460
14200TIP3   OH242544   4.400   2.925   3.587
14200TIP3    H142545   4.345   2.886   3.655
14200TIP3    H242546   4.467   2.860   3.570
14201TIP3   OH242547   0.821   5.199   6.736
14201TIP3    H142548   0.770   5.279   6.721
14201TIP3    H242549   0.905   5.217   6.693
14202TIP3   OH242550   7.006   1.203   0.424
14202TIP3    H142551   6.927   1.258   0.425
14202TIP3    H242552   7.055   1.233   0.348
14203TIP3   OH242553   3.854   1.606   4.741
14203TIP3    H142554   3.818   1.520   4.761
14203TIP3    H242555   3.790   1.645   4.681
14204TIP3   OH242556   5.815   1.916   5.414
14204TIP3    H142557   5.769   1.851   5.360
14204TIP3    H242558   5.790   2.000   5.375
14205TIP3   OH242559   3.816   6.025   5.930
14205TIP3    H142560   3.752   6.080   5.976
14205TIP3    H242561   3.773   6.003   5.847
14206TIP3   OH242562   5.760   1.776   6.524
14206TIP3    H142563   5.677   1.749   6.561
14206TIP3    H242564   5.820   1.778   6.598
14207TIP3   OH242565   1.901   2.905   1.195
14207TIP3    H142566   1.839   2.929   1.264
14207TIP3    H242567   1.916   2.987   1.148
14208TIP3   OH242568   6.367   3.773   0.553
14208TIP3    H142569   6.387   3.843   0.490
14208TIP3    H242570   6.324   3.705   0.500
14209TIP3   OH242571   7.231   3.581   0.842
14209TIP3    H142572   7.207   3.491   0.865
14209TIP3    H242573   7.271   3.573   0.755
14210TIP3   OH242574   6.317   6.966   2.980
14210TIP3    H142575   6.252   6.921   3.034
14210TIP3    H242576   6.266   7.027   2.927
14211TIP3   OH242577   3.665   4.964   3.972
14211TIP3    H142578   3.759   4.949   3.986
14211TIP3    H242579   3.644   5.039   4.027
14212TIP3   OH242580   0.709   4.846   4.564
14212TIP3    H142581   0.642   4.779   4.571
14212TIP3    H242582   0.664   4.921   4.526
14213TIP3   OH242583   4.946   7.488   4.075
14213TIP3    H142584   4.963   7.531   4.158
14213TIP3    H242585   4.975   7.552   4.009
14214TIP3   OH242586   0.809   4.238   0.556
14214TIP3    H142587   0.871   4.188   0.502
14214TIP3    H242588   0.723   4.213   0.524
14215TIP3   OH242589   8.202   6.374   6.703
14215TIP3    H142590   8.292   6.394   6.678
14215TIP3    H242591   8.203   6.281   6.727
14216TIP3   OH242592   2.976   0.428   0.856
14216TIP3    H142593   3.029   0.349   0.856
14216TIP3    H242594   3.033   0.496   0.892
14217TIP3   OH242595   0.508   7.106   2.174
14217TIP3    H142596   0.418   7.075   2.167
14217TIP3    H242597   0.557   7.032   2.209
14218TIP3   OH242598   8.019   5.184   3.709
14218TIP3    H142599   7.933   5.197   3.669
14218TIP3    H242600   8.075   5.159   3.635
14219TIP3   OH242601   5.139   0.076   0.831
14219TIP3    H142602   5.071   0.010   0.850
14219TIP3    H242603   5.115   0.110   0.745
14220TIP3   OH242604   3.654   1.061   4.873
14220TIP3    H142605   3.600   1.059   4.795
14220TIP3    H242606   3.741   1.035   4.843
14221TIP3   OH242607   1.697   7.185   1.051
14221TIP3    H142608   1.607   7.177   1.084
14221TIP3    H242609   1.751   7.146   1.120
14222TIP3   OH242610   4.270   7.389   4.543
14222TIP3    H142611   4.218   7.343   4.477
14222TIP3    H242612   4.316   7.319   4.589
14223TIP3   OH242613   6.553   0.163   5.347
14223TIP3    H142614   6.494   0.180   5.420
14223TIP3    H242615   6.608   0.091   5.376
14224TIP3   OH242616   2.436   0.566   5.925
14224TIP3    H142617   2.463   0.642   5.976
14224TIP3    H242618   2.340   0.574   5.919
14225TIP3   OH242619   5.738   1.892   1.835
14225TIP3    H142620   5.709   1.979   1.807
14225TIP3    H242621   5.832   1.903   1.852
14226TIP3   OH242622   6.555   0.908   3.874
14226TIP3    H142623   6.592   0.906   3.962
14226TIP3    H242624   6.578   0.995   3.840
14227TIP3   OH242625   2.341   6.925   3.638
14227TIP3    H142626   2.305   7.011   3.656
14227TIP3    H242627   2.334   6.878   3.721
14228TIP3   OH242628   0.968   2.522   0.691
14228TIP3    H142629   0.931   2.463   0.756
14228TIP3    H242630   1.009   2.592   0.742
14229TIP3   OH242631   2.619   1.437   6.447
14229TIP3    H142632   2.523   1.436   6.448
14229TIP3    H242633   2.642   1.527   6.424
14230TIP3   OH242634   4.041   7.802   5.925
14230TIP3    H142635   4.073   7.712   5.930
14230TIP3    H242636   3.979   7.810   5.997
14231TIP3   OH242637   0.273   1.199   5.415
14231TIP3    H142638   0.369   1.206   5.410
14231TIP3    H242639   0.257   1.105   5.426
14232TIP3   OH242640   5.236   3.330   3.555
14232TIP3    H142641   5.245   3.389   3.480
14232TIP3    H242642   5.144   3.307   3.557
14233TIP3   OH242643   6.241   2.714   5.965
14233TIP3    H142644   6.213   2.637   6.015
14233TIP3    H242645   6.194   2.706   5.882
14234TIP3   OH242646   4.706   1.443   6.798
14234TIP3    H142647   4.744   1.416   6.715
14234TIP3    H242648   4.781   1.456   6.856
14235TIP3   OH242649   3.363   2.985   4.179
14235TIP3    H142650   3.377   2.898   4.217
14235TIP3    H242651   3.444   3.032   4.197
14236TIP3   OH242652   0.984   5.533   4.614
14236TIP3    H142653   0.976   5.444   4.649
14236TIP3    H242654   0.909   5.580   4.650
14237TIP3   OH242655   6.514   6.981   6.544
14237TIP3    H142656   6.468   6.959   6.625
14237TIP3    H242657   6.519   6.899   6.495
14238TIP3   OH242658   3.339   0.421   3.570
14238TIP3    H142659   3.320   0.490   3.505
14238TIP3    H242660   3.281   0.441   3.643
14239TIP3   OH242661   7.940   5.048   2.919
14239TIP3    H142662   7.851   5.082   2.914
14239TIP3    H242663   7.936   4.963   2.876
14240TIP3   OH242664   5.662   1.806   4.290
14240TIP3    H142665   5.694   1.840   4.207
14240TIP3    H242666   5.672   1.879   4.352
14241TIP3   OH242667   8.309   5.851   1.720
14241TIP3    H142668   8.384   5.909   1.730
14241TIP3    H242669   8.248   5.900   1.664
14242TIP3   OH242670   7.924   6.591   4.190
14242TIP3    H142671   7.954   6.629   4.272
14242TIP3    H242672   7.951   6.500   4.194
14243TIP3   OH242673   7.603   7.512   1.030
14243TIP3    H142674   7.510   7.495   1.038
14243TIP3    H242675   7.609   7.601   0.995
14244TIP3   OH242676   5.347   1.989   2.627
14244TIP3    H142677   5.386   2.014   2.543
14244TIP3    H242678   5.423   1.968   2.682
14245TIP3   OH242679   3.109   7.806   4.659
14245TIP3    H142680   3.086   7.713   4.671
14245TIP3    H242681   3.048   7.853   4.716
14246TIP3   OH242682   6.927   6.026   1.848
14246TIP3    H142683   6.989   5.967   1.804
14246TIP3    H242684   6.954   6.113   1.821
14247TIP3   OH242685   1.550   3.211   4.988
14247TIP3    H142686   1.556   3.176   4.899
14247TIP3    H242687   1.623   3.170   5.034
14248TIP3   OH242688   3.471   3.114   0.337
14248TIP3    H142689   3.531   3.188   0.343
14248TIP3    H242690   3.501   3.053   0.404
14249TIP3   OH242691   3.724   5.101   1.659
14249TIP3    H142692   3.769   5.035   1.607
14249TIP3    H242693   3.781   5.177   1.657
14250TIP3   OH242694   0.286   1.892   4.343
14250TIP3    H142695   0.312   1.968   4.292
14250TIP3    H242696   0.327   1.906   4.429
14251TIP3   OH242697   2.583   0.272   0.480
14251TIP3    H142698   2.543   0.341   0.533
14251TIP3    H242699   2.522   0.259   0.407
14252TIP3   OH242700   6.353   6.909   1.635
14252TIP3    H142701   6.414   6.954   1.576
14252TIP3    H242702   6.409   6.870   1.702
14253TIP3   OH242703   6.922   6.031   0.281
14253TIP3    H142704   6.934   6.024   0.186
14253TIP3    H242705   7.004   6.070   0.313
14254TIP3   OH242706   2.193   0.464   4.937
14254TIP3    H142707   2.112   0.416   4.955
14254TIP3    H242708   2.186   0.490   4.845
14255TIP3   OH242709   6.256   4.646   6.496
14255TIP3    H142710   6.259   4.603   6.411
14255TIP3    H242711   6.281   4.578   6.559
14256TIP3   OH242712   2.663   0.389   6.413
14256TIP3    H142713   2.627   0.399   6.325
14256TIP3    H242714   2.674   0.478   6.445
14257TIP3   OH242715   1.206   4.877   1.676
14257TIP3    H142716   1.147   4.897   1.603
14257TIP3    H242717   1.279   4.829   1.636
14258TIP3   OH242718   2.407   5.752   3.883
14258TIP3    H142719   2.440   5.771   3.971
14258TIP3    H242720   2.320   5.715   3.898
14259TIP3   OH242721   1.306   4.421   4.597
14259TIP3    H142722   1.332   4.343   4.647
14259TIP3    H242723   1.370   4.488   4.623
14260TIP3   OH242724   5.285   5.441   4.178
14260TIP3    H142725   5.286   5.390   4.097
14260TIP3    H242726   5.272   5.532   4.149
14261TIP3   OH242727   3.938   3.555   1.282
14261TIP3    H142728   3.844   3.539   1.271
14261TIP3    H242729   3.942   3.637   1.331
14262TIP3   OH242730   5.152   0.888  -0.045
14262TIP3    H142731   5.064   0.850  -0.052
14262TIP3    H242732   5.195   0.833   0.021
14263TIP3   OH242733   3.953   1.530   1.118
14263TIP3    H142734   4.047   1.509   1.116
14263TIP3    H242735   3.949   1.622   1.142
14264TIP3   OH242736   1.072   2.154   1.524
14264TIP3    H142737   1.111   2.120   1.604
14264TIP3    H242738   1.120   2.110   1.453
14265TIP3   OH242739   5.980   6.291   4.512
14265TIP3    H142740   5.987   6.386   4.504
14265TIP3    H242741   6.066   6.259   4.485
14266TIP3   OH242742   6.792   0.977   3.039
14266TIP3    H142743   6.765   0.907   2.980
14266TIP3    H242744   6.768   0.945   3.126
14267TIP3   OH242745   0.083   6.509   5.285
14267TIP3    H142746   0.120   6.554   5.361
14267TIP3    H242747   0.154   6.455   5.252
14268TIP3   OH242748   7.603   4.119   4.374
14268TIP3    H142749   7.516   4.095   4.406
14268TIP3    H242750   7.587   4.187   4.309
14269TIP3   OH242751   8.071   0.135   1.775
14269TIP3    H142752   8.130   0.062   1.794
14269TIP3    H242753   8.078   0.191   1.852
14270TIP3   OH242754   6.625   4.267   2.897
14270TIP3    H142755   6.627   4.209   2.821
14270TIP3    H242756   6.684   4.339   2.875
14271TIP3   OH242757   1.371   3.586   2.823
14271TIP3    H142758   1.298   3.647   2.813
14271TIP3    H242759   1.443   3.626   2.773
14272TIP3   OH242760   7.966   3.905   5.655
14272TIP3    H142761   7.930   3.817   5.656
14272TIP3    H242762   7.899   3.958   5.611
14273TIP3   OH242763   4.845   5.634   3.999
14273TIP3    H142764   4.836   5.677   3.914
14273TIP3    H242765   4.865   5.705   4.060
14274TIP3   OH242766   4.389   1.413   3.149
14274TIP3    H142767   4.463   1.430   3.090
14274TIP3    H242768   4.403   1.324   3.180
14275TIP3   OH242769   3.063   0.916   6.573
14275TIP3    H142770   3.044   0.830   6.609
14275TIP3    H242771   2.990   0.971   6.603
14276TIP3   OH242772   7.835   0.604   5.276
14276TIP3    H142773   7.762   0.544   5.284
14276TIP3    H242774   7.822   0.648   5.192
14277TIP3   OH242775   1.417   2.579   5.171
14277TIP3    H142776   1.391   2.495   5.209
14277TIP3    H242777   1.497   2.603   5.219
14278TIP3   OH242778   4.347   6.424   1.470
14278TIP3    H142779   4.383   6.512   1.472
14278TIP3    H242780   4.419   6.368   1.441
14279TIP3   OH242781   4.577   4.082   0.846
14279TIP3    H142782   4.490   4.089   0.807
14279TIP3    H242783   4.607   3.994   0.822
14280TIP3   OH242784   4.733   5.046   0.510
14280TIP3    H142785   4.779   4.973   0.469
14280TIP3    H242786   4.640   5.031   0.488
14281TIP3   OH242787   0.699   1.432   0.688
14281TIP3    H142788   0.794   1.431   0.673
14281TIP3    H242789   0.690   1.425   0.783
14282TIP3   OH242790   4.425   1.101   0.567
14282TIP3    H142791   4.353   1.070   0.513
14282TIP3    H242792   4.477   1.157   0.509
14283TIP3   OH242793   6.528   7.422   0.831
14283TIP3    H142794   6.553   7.505   0.791
14283TIP3    H242795   6.469   7.381   0.768
14284TIP3   OH242796   3.629   1.062   0.723
14284TIP3    H142797   3.684   1.112   0.784
14284TIP3    H242798   3.552   1.039   0.775
14285TIP3   OH242799   8.147   7.096   0.969
14285TIP3    H142800   8.134   7.153   0.893
14285TIP3    H242801   8.061   7.092   1.012
14286TIP3   OH242802   0.799   2.002   4.685
14286TIP3    H142803   0.791   2.015   4.590
14286TIP3    H242804   0.710   2.017   4.719
14287TIP3   OH242805   1.500   6.356   3.471
14287TIP3    H142806   1.438   6.354   3.543
14287TIP3    H242807   1.446   6.367   3.393
14288TIP3   OH242808   4.800   3.009   5.818
14288TIP3    H142809   4.742   3.055   5.758
14288TIP3    H242810   4.775   3.040   5.905
14289TIP3   OH242811   4.471   5.853   6.610
14289TIP3    H142812   4.399   5.796   6.584
14289TIP3    H242813   4.481   5.914   6.538
14290TIP3   OH242814   2.873   5.064   6.002
14290TIP3    H142815   2.889   5.041   5.911
14290TIP3    H242816   2.886   4.982   6.050
14291TIP3   OH242817   4.777   1.921   3.910
14291TIP3    H142818   4.743   2.002   3.872
14291TIP3    H242819   4.751   1.925   4.002
14292TIP3   OH242820   6.249   1.565   1.454
14292TIP3    H142821   6.236   1.516   1.536
14292TIP3    H242822   6.341   1.551   1.432
14293TIP3   OH242823   7.141   4.914   3.215
14293TIP3    H142824   7.212   4.921   3.151
14293TIP3    H242825   7.064   4.893   3.162
14294TIP3   OH242826   2.726   6.384   3.801
14294TIP3    H142827   2.712   6.477   3.782
14294TIP3    H242828   2.799   6.383   3.862
14295TIP3   OH242829   1.115   3.355   3.473
14295TIP3    H142830   1.181   3.286   3.469
14295TIP3    H242831   1.073   3.342   3.559
14296TIP3   OH242832   7.866   3.759   0.490
14296TIP3    H142833   7.943   3.794   0.533
14296TIP3    H242834   7.873   3.664   0.503
14297TIP3   OH242835   1.566   5.449   2.750
14297TIP3    H142836   1.650   5.464   2.792
14297TIP3    H242837   1.587   5.411   2.665
14298TIP3   OH242838   4.688   7.528   5.953
14298TIP3    H142839   4.768   7.491   5.989
14298TIP3    H242840   4.657   7.589   6.020
14299TIP3   OH242841   5.373   7.336   1.765
14299TIP3    H142842   5.366   7.410   1.704
14299TIP3    H242843   5.382   7.260   1.708
14300TIP3   OH242844   7.989   1.461   4.393
14300TIP3    H142845   8.019   1.525   4.458
14300TIP3    H242846   7.918   1.506   4.347
14301TIP3   OH242847   2.880   6.493   3.316
14301TIP3    H142848   2.800   6.522   3.359
14301TIP3    H242849   2.898   6.406   3.354
14302TIP3   OH242850   3.819   0.209   3.312
14302TIP3    H142851   3.732   0.225   3.276
14302TIP3    H242852   3.833   0.115   3.301
14303TIP3   OH242853   4.277   1.397   2.788
14303TIP3    H142854   4.282   1.434   2.700
14303TIP3    H242855   4.219   1.456   2.836
14304TIP3   OH242856   4.674   1.881   1.772
14304TIP3    H142857   4.661   1.844   1.685
14304TIP3    H242858   4.738   1.951   1.760
14305TIP3   OH242859   6.863   2.274   5.478
14305TIP3    H142860   6.834   2.187   5.450
14305TIP3    H242861   6.958   2.271   5.470
14306TIP3   OH242862   2.460   3.500   4.151
14306TIP3    H142863   2.367   3.524   4.148
14306TIP3    H242864   2.495   3.528   4.067
14307TIP3   OH242865   7.358   2.062   3.245
14307TIP3    H142866   7.267   2.060   3.273
14307TIP3    H242867   7.405   2.103   3.318
14308TIP3   OH242868   6.332   3.629   3.617
14308TIP3    H142869   6.402   3.694   3.608
14308TIP3    H242870   6.268   3.655   3.551
14309TIP3   OH242871   7.387   7.207   5.316
14309TIP3    H142872   7.443   7.208   5.237
14309TIP3    H242873   7.440   7.163   5.382
14310TIP3   OH242874   3.726   0.384   1.682
14310TIP3    H142875   3.679   0.373   1.764
14310TIP3    H242876   3.785   0.309   1.678
14311TIP3   OH242877   6.420   4.522   5.532
14311TIP3    H142878   6.423   4.583   5.458
14311TIP3    H242879   6.466   4.444   5.501
14312TIP3   OH242880   6.468   6.283   0.838
14312TIP3    H142881   6.530   6.240   0.780
14312TIP3    H242882   6.420   6.344   0.781
14313TIP3   OH242883   0.714   6.204   2.124
14313TIP3    H142884   0.630   6.243   2.147
14313TIP3    H242885   0.762   6.275   2.082
14314TIP3   OH242886   0.947   3.253   0.294
14314TIP3    H142887   0.959   3.158   0.295
14314TIP3    H242888   1.020   3.286   0.242
14315TIP3   OH242889   2.707   7.756   3.912
14315TIP3    H142890   2.769   7.828   3.928
14315TIP3    H242891   2.761   7.677   3.914
14316TIP3   OH242892   2.464   4.542   6.640
14316TIP3    H142893   2.447   4.502   6.725
14316TIP3    H242894   2.392   4.605   6.629
14317TIP3   OH242895   4.086   4.193   3.434
14317TIP3    H142896   4.160   4.162   3.486
14317TIP3    H242897   4.022   4.223   3.498
14318TIP3   OH242898   1.657   1.266   6.529
14318TIP3    H142899   1.637   1.294   6.439
14318TIP3    H242900   1.619   1.178   6.534
14319TIP3   OH242901   6.714   3.968   0.182
14319TIP3    H142902   6.635   3.956   0.129
14319TIP3    H242903   6.682   3.993   0.268
14320TIP3   OH242904   1.342   4.951   2.454
14320TIP3    H142905   1.335   4.952   2.359
14320TIP3    H242906   1.267   5.002   2.484
14321TIP3   OH242907   2.137   1.798   2.707
14321TIP3    H142908   2.092   1.878   2.683
14321TIP3    H242909   2.075   1.728   2.686
14322TIP3   OH242910   0.411   2.170   2.358
14322TIP3    H142911   0.435   2.262   2.367
14322TIP3    H242912   0.494   2.122   2.357
14323TIP3   OH242913   0.308   5.183   6.247
14323TIP3    H142914   0.250   5.257   6.231
14323TIP3    H242915   0.254   5.120   6.295
14324TIP3   OH242916   5.059   3.471   4.335
14324TIP3    H142917   5.119   3.416   4.384
14324TIP3    H242918   4.984   3.414   4.316
14325TIP3   OH242919   6.494   6.791   0.656
14325TIP3    H142920   6.534   6.813   0.740
14325TIP3    H242921   6.512   6.698   0.644
14326TIP3   OH242922   5.984   2.765   3.829
14326TIP3    H142923   6.022   2.678   3.815
14326TIP3    H242924   5.932   2.756   3.909
14327TIP3   OH242925   2.680   0.949   0.184
14327TIP3    H142926   2.667   0.959   0.090
14327TIP3    H242927   2.593   0.934   0.219
14328TIP3   OH242928   2.943   5.758   3.637
14328TIP3    H142929   2.923   5.687   3.698
14328TIP3    H242930   3.004   5.718   3.574
14329TIP3   OH242931   3.322   5.161   0.853
14329TIP3    H142932   3.319   5.248   0.813
14329TIP3    H242933   3.245   5.116   0.818
14330TIP3   OH242934   4.746   0.210   5.083
14330TIP3    H142935   4.759   0.303   5.102
14330TIP3    H242936   4.731   0.207   4.988
14331TIP3   OH242937   5.230   3.744   1.454
14331TIP3    H142938   5.207   3.705   1.370
14331TIP3    H242939   5.147   3.769   1.494
14332TIP3   OH242940   3.875   1.474   2.095
14332TIP3    H142941   3.919   1.534   2.155
14332TIP3    H242942   3.945   1.416   2.064
14333TIP3   OH242943   3.225   5.693   0.862
14333TIP3    H142944   3.272   5.772   0.836
14333TIP3    H242945   3.133   5.720   0.867
14334TIP3   OH242946   3.420   0.503   5.749
14334TIP3    H142947   3.393   0.485   5.659
14334TIP3    H242948   3.358   0.454   5.803
14335TIP3   OH242949   6.705   1.121   1.943
14335TIP3    H142950   6.644   1.179   1.988
14335TIP3    H242951   6.696   1.142   1.851
14336TIP3   OH242952   0.631   7.456   3.613
14336TIP3    H142953   0.643   7.551   3.619
14336TIP3    H242954   0.607   7.429   3.701
14337TIP3   OH242955   1.745   2.910   6.734
14337TIP3    H142956   1.672   2.899   6.674
14337TIP3    H242957   1.822   2.887   6.681
14338TIP3   OH242958   5.107   0.965   5.350
14338TIP3    H142959   5.148   0.983   5.265
14338TIP3    H242960   5.181   0.940   5.406
14339TIP3   OH242961   8.003   1.121   4.921
14339TIP3    H142962   8.070   1.072   4.874
14339TIP3    H242963   7.974   1.189   4.860
14340TIP3   OH242964   1.549   0.022   5.734
14340TIP3    H142965   1.539  -0.056   5.790
14340TIP3    H242966   1.460   0.046   5.710
14341TIP3   OH242967   4.073   2.157   4.429
14341TIP3    H142968   3.991   2.114   4.454
14341TIP3    H242969   4.125   2.088   4.388
14342TIP3   OH242970   6.825   5.642   5.026
14342TIP3    H142971   6.884   5.644   4.951
14342TIP3    H242972   6.873   5.686   5.096
14343TIP3   OH242973   0.765   2.407   0.191
14343TIP3    H142974   0.739   2.359   0.113
14343TIP3    H242975   0.770   2.341   0.260
14344TIP3   OH242976   5.768   0.756   4.705
14344TIP3    H142977   5.834   0.688   4.691
14344TIP3    H242978   5.812   0.838   4.682
14345TIP3   OH242979   4.258   3.757   3.934
14345TIP3    H142980   4.251   3.844   3.973
14345TIP3    H242981   4.343   3.724   3.963
14346TIP3   OH242982   2.323   7.232   1.398
14346TIP3    H142983   2.310   7.250   1.305
14346TIP3    H242984   2.342   7.317   1.436
14347TIP3   OH242985   5.187   2.052   5.935
14347TIP3    H142986   5.224   2.140   5.934
14347TIP3    H242987   5.113   2.058   5.997
14348TIP3   OH242988   3.950   1.766   5.947
14348TIP3    H142989   3.922   1.761   5.856
14348TIP3    H242990   3.974   1.858   5.960
14349TIP3   OH242991   3.168   4.512   4.718
14349TIP3    H142992   3.163   4.585   4.780
14349TIP3    H242993   3.111   4.445   4.755
14350TIP3   OH242994   7.646   7.078   5.233
14350TIP3    H142995   7.738   7.052   5.236
14350TIP3    H242996   7.648   7.174   5.241
14351TIP3   OH242997   0.425   2.445   1.674
14351TIP3    H142998   0.518   2.456   1.696
14351TIP3    H242999   0.380   2.500   1.738
14352TIP3   OH243000   2.166   1.869   5.685
14352TIP3    H143001   2.170   1.879   5.590
14352TIP3    H243002   2.246   1.821   5.708
14353TIP3   OH243003   7.049   5.153   5.789
14353TIP3    H143004   7.050   5.058   5.778
14353TIP3    H243005   6.957   5.174   5.808
14354TIP3   OH243006   1.568   0.327   6.305
14354TIP3    H143007   1.527   0.354   6.223
14354TIP3    H243008   1.495   0.317   6.366
14355TIP3   OH243009   4.927   5.135   4.642
14355TIP3    H143010   4.981   5.195   4.695
14355TIP3    H243011   4.889   5.191   4.574
14356TIP3   OH243012   1.581   5.802   4.714
14356TIP3    H143013   1.550   5.715   4.691
14356TIP3    H243014   1.672   5.803   4.684
14357TIP3   OH243015   0.970   0.764   3.450
14357TIP3    H143016   1.051   0.814   3.464
14357TIP3    H243017   0.950   0.726   3.536
14358TIP3   OH243018   1.655   3.417   6.008
14358TIP3    H143019   1.583   3.475   5.983
14358TIP3    H243020   1.729   3.475   6.024
14359TIP3   OH243021   8.286   7.812   3.072
14359TIP3    H143022   8.341   7.768   3.008
14359TIP3    H243023   8.205   7.832   3.025
14360TIP3   OH243024   1.716   4.290   0.643
14360TIP3    H143025   1.645   4.308   0.581
14360TIP3    H243026   1.739   4.199   0.627
14361TIP3   OH243027   2.500   5.806   6.244
14361TIP3    H143028   2.470   5.863   6.314
14361TIP3    H243029   2.420   5.777   6.200
14362TIP3   OH243030   7.800   1.450   5.878
14362TIP3    H143031   7.861   1.401   5.933
14362TIP3    H243032   7.842   1.451   5.791
14363TIP3   OH243033   1.392   6.583   3.032
14363TIP3    H143034   1.351   6.657   3.076
14363TIP3    H243035   1.442   6.538   3.100
14364TIP3   OH243036   7.740   3.508   2.176
14364TIP3    H143037   7.679   3.442   2.208
14364TIP3    H243038   7.687   3.587   2.166
14365TIP3   OH243039   8.278   5.303   4.373
14365TIP3    H143040   8.350   5.240   4.382
14365TIP3    H243041   8.211   5.256   4.323
14366TIP3   OH243042   0.587   4.110   1.032
14366TIP3    H143043   0.504   4.085   1.071
14366TIP3    H243044   0.565   4.132   0.941
14367TIP3   OH243045   5.115   0.927   3.596
14367TIP3    H143046   5.178   0.968   3.536
14367TIP3    H243047   5.044   0.992   3.603
14368TIP3   OH243048   0.119   3.983   2.221
14368TIP3    H143049   0.128   3.899   2.176
14368TIP3    H243050   0.055   4.032   2.168
14369TIP3   OH243051   2.050   5.790   2.954
14369TIP3    H143052   1.983   5.853   2.980
14369TIP3    H243053   2.130   5.842   2.948
14370TIP3   OH243054   4.271   6.513   1.987
14370TIP3    H143055   4.338   6.474   1.931
14370TIP3    H243056   4.273   6.460   2.067
14371TIP3   OH243057   0.904   7.103   2.343
14371TIP3    H143058   0.856   7.031   2.384
14371TIP3    H243059   0.992   7.067   2.327
14372TIP3   OH243060   4.569   0.347   6.058
14372TIP3    H143061   4.578   0.388   6.144
14372TIP3    H243062   4.653   0.362   6.015
14373TIP3   OH243063   5.930   0.570   1.894
14373TIP3    H143064   5.917   0.661   1.868
14373TIP3    H243065   5.902   0.566   1.985
14374TIP3   OH243066   2.475   6.611   1.808
14374TIP3    H143067   2.535   6.546   1.772
14374TIP3    H243068   2.424   6.564   1.873
14375TIP3   OH243069   5.770   2.601   2.628
14375TIP3    H143070   5.810   2.565   2.548
14375TIP3    H243071   5.844   2.628   2.681
14376TIP3   OH243072   3.082   4.871   1.053
14376TIP3    H143073   3.022   4.935   1.092
14376TIP3    H243074   3.163   4.882   1.102
14377TIP3   OH243075   5.592   0.231   2.600
14377TIP3    H143076   5.648   0.302   2.569
14377TIP3    H243077   5.648   0.153   2.599
14378TIP3   OH243078   4.909   2.901   4.891
14378TIP3    H143079   4.956   2.906   4.974
14378TIP3    H243080   4.844   2.972   4.895
14379TIP3   OH243081   7.786   7.693   1.785
14379TIP3    H143082   7.851   7.624   1.770
14379TIP3    H243083   7.833   7.775   1.765
14380TIP3   OH243084   2.918   7.302   0.576
14380TIP3    H143085   2.935   7.214   0.611
14380TIP3    H243086   2.853   7.339   0.636
14381TIP3   OH243087   1.365   2.709   3.082
14381TIP3    H143088   1.426   2.677   3.016
14381TIP3    H243089   1.318   2.631   3.112
14382TIP3   OH243090   2.872   6.522   4.470
14382TIP3    H143091   2.849   6.606   4.510
14382TIP3    H243092   2.797   6.466   4.487
14383TIP3   OH243093   7.736   3.157   5.713
14383TIP3    H143094   7.785   3.205   5.780
14383TIP3    H243095   7.688   3.090   5.761
14384TIP3   OH243096   0.321   5.786   2.856
14384TIP3    H143097   0.327   5.873   2.815
14384TIP3    H243098   0.410   5.751   2.851
14385TIP3   OH243099   6.914   5.719   0.152
14385TIP3    H143100   6.830   5.761   0.172
14385TIP3    H243101   6.933   5.747   0.063
14386TIP3   OH243102   4.899   2.107   4.455
14386TIP3    H143103   4.954   2.074   4.384
14386TIP3    H243104   4.847   2.177   4.415
14387TIP3   OH243105   4.846   3.303   4.296
14387TIP3    H143106   4.754   3.309   4.321
14387TIP3    H243107   4.850   3.226   4.238
14388TIP3   OH243108   4.344   6.386   2.217
14388TIP3    H143109   4.362   6.398   2.310
14388TIP3    H243110   4.429   6.400   2.174
14389TIP3   OH243111   3.042   3.829   0.530
14389TIP3    H143112   2.948   3.845   0.527
14389TIP3    H243113   3.082   3.911   0.500
14390TIP3   OH243114   7.660   2.253   6.190
14390TIP3    H143115   7.686   2.323   6.130
14390TIP3    H243116   7.586   2.290   6.239
14391TIP3   OH243117   1.357   4.398   1.755
14391TIP3    H143118   1.306   4.479   1.760
14391TIP3    H243119   1.447   4.426   1.769
14392TIP3   OH243120   3.843   7.331   0.829
14392TIP3    H143121   3.914   7.268   0.829
14392TIP3    H243122   3.775   7.291   0.774
14393TIP3   OH243123   3.215   7.431   1.059
14393TIP3    H143124   3.183   7.410   1.146
14393TIP3    H243125   3.310   7.417   1.064
14394TIP3   OH243126   0.945   7.650   4.922
14394TIP3    H143127   0.981   7.723   4.973
14394TIP3    H243128   1.016   7.585   4.921
14395TIP3   OH243129   8.158   3.748   4.467
14395TIP3    H143130   8.252   3.763   4.482
14395TIP3    H243131   8.128   3.825   4.419
14396TIP3   OH243132   1.182   7.458   4.547
14396TIP3    H143133   1.191   7.553   4.555
14396TIP3    H243134   1.235   7.422   4.619
14397TIP3   OH243135   8.265   3.285   5.288
14397TIP3    H143136   8.203   3.268   5.216
14397TIP3    H243137   8.347   3.246   5.258
14398TIP3   OH243138   7.396   1.636   2.904
14398TIP3    H143139   7.429   1.710   2.853
14398TIP3    H243140   7.360   1.677   2.983
14399TIP3   OH243141   1.388   1.000   3.091
14399TIP3    H143142   1.375   0.905   3.097
14399TIP3    H243143   1.300   1.035   3.078
14400TIP3   OH243144   1.641   0.169   6.765
14400TIP3    H143145   1.569   0.186   6.825
14400TIP3    H243146   1.601   0.119   6.693
14401TIP3   OH243147   4.748   0.934   1.100
14401TIP3    H143148   4.679   0.904   1.041
14401TIP3    H243149   4.703   0.990   1.163
14402TIP3   OH243150   6.190   7.509   5.379
14402TIP3    H143151   6.240   7.458   5.444
14402TIP3    H243152   6.104   7.466   5.376
14403TIP3   OH243153   8.182   7.631   4.527
14403TIP3    H143154   8.186   7.543   4.562
14403TIP3    H243155   8.207   7.622   4.435
14404TIP3   OH243156   6.863   2.419   6.440
14404TIP3    H143157   6.855   2.324   6.451
14404TIP3    H243158   6.798   2.440   6.373
14405TIP3   OH243159   3.148   0.565   2.771
14405TIP3    H143160   3.059   0.533   2.754
14405TIP3    H243161   3.203   0.487   2.763
14406TIP3   OH243162   6.508   7.745   1.777
14406TIP3    H143163   6.488   7.822   1.723
14406TIP3    H243164   6.569   7.694   1.724
14407TIP3   OH243165   4.564   7.471   2.797
14407TIP3    H143166   4.624   7.482   2.723
14407TIP3    H243167   4.565   7.557   2.841
14408TIP3   OH243168   2.311   5.156   3.658
14408TIP3    H143169   2.274   5.186   3.741
14408TIP3    H243170   2.240   5.107   3.616
14409TIP3   OH243171   6.074   2.175   2.991
14409TIP3    H143172   6.113   2.088   2.993
14409TIP3    H243173   6.146   2.234   3.011
14410TIP3   OH243174   0.254   6.772   1.529
14410TIP3    H143175   0.261   6.838   1.598
14410TIP3    H243176   0.344   6.754   1.504
14411TIP3   OH243177   5.447   5.633   5.757
14411TIP3    H143178   5.497   5.714   5.744
14411TIP3    H243179   5.421   5.635   5.849
14412TIP3   OH243180   7.859   7.515   3.705
14412TIP3    H143181   7.840   7.475   3.789
14412TIP3    H243182   7.953   7.505   3.694
14413TIP3   OH243183   0.432   6.123   5.445
14413TIP3    H143184   0.354   6.149   5.495
14413TIP3    H243185   0.454   6.036   5.478
14414TIP3   OH243186   7.984   5.814   2.437
14414TIP3    H143187   8.044   5.834   2.365
14414TIP3    H243188   7.915   5.879   2.429
14415TIP3   OH243189   8.054   0.671   1.366
14415TIP3    H143190   8.023   0.689   1.277
14415TIP3    H243191   8.146   0.698   1.364
14416TIP3   OH243192   2.549   5.520   1.823
14416TIP3    H143193   2.457   5.520   1.797
14416TIP3    H243194   2.592   5.580   1.762
14417TIP3   OH243195   5.645   4.232   1.127
14417TIP3    H143196   5.710   4.198   1.066
14417TIP3    H243197   5.576   4.267   1.071
14418TIP3   OH243198   1.000   6.290   3.766
14418TIP3    H143199   1.018   6.259   3.855
14418TIP3    H243200   1.039   6.224   3.709
14419TIP3   OH243201   0.444   2.802   2.051
14419TIP3    H143202   0.349   2.791   2.050
14419TIP3    H243203   0.470   2.795   1.959
14420TIP3   OH243204   6.722   6.160   3.675
14420TIP3    H143205   6.643   6.193   3.632
14420TIP3    H243206   6.722   6.066   3.657
14421TIP3   OH243207   7.218   0.793   3.295
14421TIP3    H143208   7.190   0.845   3.219
14421TIP3    H243209   7.300   0.753   3.267
14422TIP3   OH243210   0.468   1.575   3.268
14422TIP3    H143211   0.489   1.639   3.200
14422TIP3    H243212   0.373   1.560   3.259
14423TIP3   OH243213   5.103   4.979   4.502
14423TIP3    H143214   5.105   5.043   4.431
14423TIP3    H243215   5.045   5.018   4.567
14424TIP3   OH243216   4.063   4.142   3.796
14424TIP3    H143217   4.000   4.070   3.805
14424TIP3    H243218   4.148   4.101   3.815
14425TIP3   OH243219   7.152   5.455   1.294
14425TIP3    H143220   7.235   5.502   1.299
14425TIP3    H243221   7.153   5.413   1.208
14426TIP3   OH243222   4.741   1.580   0.483
14426TIP3    H143223   4.675   1.637   0.443
14426TIP3    H243224   4.712   1.569   0.573
14427TIP3   OH243225   0.665   7.475   2.432
14427TIP3    H143226   0.676   7.570   2.434
14427TIP3    H243227   0.590   7.458   2.489
14428TIP3   OH243228   7.151   7.519   2.665
14428TIP3    H143229   7.144   7.612   2.644
14428TIP3    H243230   7.141   7.474   2.581
14429TIP3   OH243231   4.394   7.809   4.896
14429TIP3    H143232   4.312   7.779   4.856
14429TIP3    H243233   4.462   7.756   4.854
14430TIP3   OH243234   4.941   3.235   2.019
14430TIP3    H143235   4.971   3.296   2.085
14430TIP3    H243236   4.846   3.237   2.026
14431TIP3   OH243237   3.435   1.655   2.177
14431TIP3    H143238   3.356   1.613   2.212
14431TIP3    H243239   3.404   1.739   2.144
14432TIP3   OH243240   7.879   7.192   4.140
14432TIP3    H143241   7.858   7.253   4.070
14432TIP3    H243242   7.947   7.136   4.104
14433TIP3   OH243243   4.025   4.246   6.607
14433TIP3    H143244   3.974   4.207   6.536
14433TIP3    H243245   4.006   4.190   6.683
14434TIP3   OH243246   4.025   0.766   2.633
14434TIP3    H143247   4.074   0.753   2.552
14434TIP3    H243248   3.941   0.724   2.618
14435TIP3   OH243249   3.985   5.138   6.536
14435TIP3    H143250   3.942   5.070   6.485
14435TIP3    H243251   3.913   5.191   6.572
14436TIP3   OH243252   4.393   2.739   6.261
14436TIP3    H143253   4.432   2.709   6.179
14436TIP3    H243254   4.407   2.667   6.322
14437TIP3   OH243255   0.942   6.552   6.135
14437TIP3    H143256   1.006   6.569   6.205
14437TIP3    H243257   0.902   6.469   6.159
14438TIP3   OH243258   5.776   2.022   6.362
14438TIP3    H143259   5.761   1.952   6.425
14438TIP3    H243260   5.763   1.980   6.277
14439TIP3   OH243261   4.535   3.577   3.713
14439TIP3    H143262   4.535   3.615   3.625
14439TIP3    H243263   4.579   3.493   3.702
14440TIP3   OH243264   1.150   0.169   2.970
14440TIP3    H143265   1.140   0.094   2.911
14440TIP3    H243266   1.102   0.144   3.049
14441TIP3   OH243267   1.188   6.055   3.851
14441TIP3    H143268   1.135   6.120   3.898
14441TIP3    H243269   1.142   5.972   3.865
14442TIP3   OH243270   2.964   5.002   4.662
14442TIP3    H143271   3.045   4.951   4.653
14442TIP3    H243272   2.922   4.995   4.576
14443TIP3   OH243273   5.938   1.571   1.192
14443TIP3    H143274   5.972   1.488   1.159
14443TIP3    H243275   5.978   1.581   1.278
14444TIP3   OH243276   7.791   6.015   1.538
14444TIP3    H143277   7.878   6.052   1.547
14444TIP3    H243278   7.732   6.090   1.538
14445TIP3   OH243279   8.255   5.006   5.258
14445TIP3    H143280   8.232   5.057   5.180
14445TIP3    H243281   8.338   5.042   5.287
14446TIP3   OH243282   2.721   0.045   3.949
14446TIP3    H143283   2.810   0.074   3.969
14446TIP3    H243284   2.714   0.052   3.854
14447TIP3   OH243285   0.841   5.139   0.185
14447TIP3    H143286   0.863   5.229   0.208
14447TIP3    H243287   0.748   5.131   0.206
14448TIP3   OH243288   0.475   2.135   1.813
14448TIP3    H143289   0.558   2.181   1.801
14448TIP3    H243290   0.418   2.169   1.744
14449TIP3   OH243291   5.620   4.833   5.280
14449TIP3    H143292   5.553   4.781   5.236
14449TIP3    H243293   5.666   4.878   5.210
14450TIP3   OH243294   3.812   5.428   0.356
14450TIP3    H143295   3.775   5.496   0.411
14450TIP3    H243296   3.738   5.396   0.304
14451TIP3   OH243297   5.838   5.851   3.824
14451TIP3    H143298   5.799   5.917   3.766
14451TIP3    H243299   5.906   5.897   3.872
14452TIP3   OH243300   3.805   4.415   1.582
14452TIP3    H143301   3.758   4.421   1.665
14452TIP3    H243302   3.845   4.501   1.571
14453TIP3   OH243303   2.908   7.256   4.581
14453TIP3    H143304   2.927   7.258   4.487
14453TIP3    H243305   2.950   7.335   4.615
14454TIP3   OH243306   4.879   0.069   5.762
14454TIP3    H143307   4.876   0.045   5.669
14454TIP3    H243308   4.787   0.066   5.790
14455TIP3   OH243309   4.558   3.143   3.905
14455TIP3    H143310   4.531   3.233   3.917
14455TIP3    H243311   4.477   3.092   3.910
14456TIP3   OH243312   4.799   1.805   2.437
14456TIP3    H143313   4.785   1.711   2.438
14456TIP3    H243314   4.805   1.829   2.530
14457TIP3   OH243315   3.974   0.179   0.463
14457TIP3    H143316   4.003   0.088   0.454
14457TIP3    H243317   3.878   0.172   0.471
14458TIP3   OH243318   0.716   0.906   6.406
14458TIP3    H143319   0.683   0.879   6.320
14458TIP3    H243320   0.650   0.876   6.468
14459TIP3   OH243321   2.341   6.447   4.181
14459TIP3    H143322   2.347   6.540   4.201
14459TIP3    H243323   2.292   6.409   4.254
14460TIP3   OH243324   0.852   0.503   1.872
14460TIP3    H143325   0.782   0.566   1.855
14460TIP3    H243326   0.870   0.463   1.787
14461TIP3   OH243327   4.448   2.360   5.066
14461TIP3    H143328   4.358   2.373   5.034
14461TIP3    H243329   4.502   2.357   4.987
14462TIP3   OH243330   2.685   1.252   4.650
14462TIP3    H143331   2.674   1.232   4.743
14462TIP3    H243332   2.717   1.342   4.648
14463TIP3   OH243333   7.838   5.363   6.492
14463TIP3    H143334   7.768   5.416   6.453
14463TIP3    H243335   7.805   5.273   6.485
14464TIP3   OH243336   3.511   5.276   4.578
14464TIP3    H143337   3.437   5.219   4.558
14464TIP3    H243338   3.487   5.360   4.539
14465TIP3   OH243339   2.242   6.344   2.289
14465TIP3    H143340   2.256   6.254   2.260
14465TIP3    H243341   2.330   6.383   2.290
14466TIP3   OH243342   6.602   5.594   2.274
14466TIP3    H143343   6.616   5.536   2.349
14466TIP3    H243344   6.614   5.539   2.197
14467TIP3   OH243345   1.198   2.735   3.635
14467TIP3    H143346   1.111   2.707   3.665
14467TIP3    H243347   1.186   2.759   3.544
14468TIP3   OH243348   5.568   6.263   6.408
14468TIP3    H143349   5.473   6.258   6.417
14468TIP3    H243350   5.600   6.182   6.448
14469TIP3   OH243351   5.664   3.465   5.451
14469TIP3    H143352   5.618   3.548   5.437
14469TIP3    H243353   5.652   3.418   5.368
14470TIP3   OH243354   4.325   1.832   6.715
14470TIP3    H143355   4.360   1.753   6.673
14470TIP3    H243356   4.403   1.884   6.735
14471TIP3   OH243357   4.455   7.054   1.365
14471TIP3    H143358   4.421   6.966   1.353
14471TIP3    H243359   4.384   7.102   1.407
14472TIP3   OH243360   0.572   2.545   1.907
14472TIP3    H143361   0.482   2.523   1.930
14472TIP3    H243362   0.604   2.470   1.857
14473TIP3   OH243363   7.901   0.986   1.594
14473TIP3    H143364   7.870   0.997   1.504
14473TIP3    H243365   7.849   1.049   1.645
14474TIP3   OH243366   4.843   0.633   6.591
14474TIP3    H143367   4.786   0.687   6.646
14474TIP3    H243368   4.851   0.551   6.639
14475TIP3   OH243369   4.178   7.298   2.545
14475TIP3    H143370   4.104   7.237   2.549
14475TIP3    H243371   4.174   7.332   2.456
14476TIP3   OH243372   1.135   5.365   3.593
14476TIP3    H143373   1.118   5.444   3.645
14476TIP3    H243374   1.081   5.298   3.634
14477TIP3   OH243375   7.045   5.726   5.556
14477TIP3    H143376   7.096   5.785   5.612
14477TIP3    H243377   7.061   5.639   5.592
14478TIP3   OH243378   0.114   3.016   5.976
14478TIP3    H143379   0.122   2.975   5.890
14478TIP3    H243380   0.125   3.109   5.959
14479TIP3   OH243381   0.164   1.259   3.493
14479TIP3    H143382   0.253   1.269   3.526
14479TIP3    H243383   0.108   1.293   3.563
14480TIP3   OH243384   0.083   7.038   3.149
14480TIP3    H143385   0.170   7.010   3.121
14480TIP3    H243386   0.031   6.958   3.154
14481TIP3   OH243387   3.708   1.852   6.453
14481TIP3    H143388   3.718   1.773   6.506
14481TIP3    H243389   3.775   1.845   6.385
14482TIP3   OH243390   7.466   4.147   3.160
14482TIP3    H143391   7.460   4.096   3.080
14482TIP3    H243392   7.386   4.126   3.208
14483TIP3   OH243393   5.811   6.110   3.673
14483TIP3    H143394   5.808   6.191   3.724
14483TIP3    H243395   5.896   6.113   3.628
14484TIP3   OH243396   5.884   0.872   3.132
14484TIP3    H143397   5.907   0.909   3.217
14484TIP3    H243398   5.800   0.911   3.110
14485TIP3   OH243399   3.689   3.138   3.403
14485TIP3    H143400   3.705   3.045   3.393
14485TIP3    H243401   3.609   3.144   3.455
14486TIP3   OH243402   2.266   7.674   0.512
14486TIP3    H143403   2.178   7.682   0.475
14486TIP3    H243404   2.297   7.764   0.519
14487TIP3   OH243405   0.171   5.270   5.083
14487TIP3    H143406   0.218   5.229   5.156
14487TIP3    H243407   0.095   5.214   5.069
14488TIP3   OH243408   6.588   3.778   2.575
14488TIP3    H143409   6.534   3.730   2.512
14488TIP3    H243410   6.654   3.821   2.521
14489TIP3   OH243411   4.008   1.384   3.701
14489TIP3    H143412   4.026   1.399   3.608
14489TIP3    H243413   3.913   1.387   3.707
14490TIP3   OH243414   1.373   0.040   6.241
14490TIP3    H143415   1.292   0.057   6.290
14490TIP3    H243416   1.345   0.035   6.150
14491TIP3   OH243417   0.842   1.037   6.698
14491TIP3    H143418   0.841   0.982   6.620
14491TIP3    H243419   0.912   1.101   6.681
14492TIP3   OH243420   7.237   3.452   3.003
14492TIP3    H143421   7.312   3.409   3.043
14492TIP3    H243422   7.163   3.428   3.059
14493TIP3   OH243423   1.587   0.202   5.348
14493TIP3    H143424   1.499   0.164   5.349
14493TIP3    H243425   1.575   0.291   5.316
14494TIP3   OH243426   6.847   4.513   2.221
14494TIP3    H143427   6.831   4.594   2.173
14494TIP3    H243428   6.935   4.524   2.258
14495TIP3   OH243429   5.742   5.958   4.993
14495TIP3    H143430   5.697   5.963   5.077
14495TIP3    H243431   5.794   5.877   4.998
14496TIP3   OH243432   7.133   3.606   2.544
14496TIP3    H143433   7.081   3.645   2.474
14496TIP3    H243434   7.069   3.555   2.595
14497TIP3   OH243435   6.764   5.256   4.007
14497TIP3    H143436   6.734   5.306   4.083
14497TIP3    H243437   6.846   5.215   4.036
14498TIP3   OH243438   0.149   4.688   3.592
14498TIP3    H143439   0.203   4.639   3.529
14498TIP3    H243440   0.205   4.697   3.670
14499TIP3   OH243441   3.656   7.163   3.063
14499TIP3    H143442   3.740   7.146   3.021
14499TIP3    H243443   3.601   7.198   2.993
14500TIP3   OH243444   1.784   6.010   0.053
14500TIP3    H143445   1.829   6.094   0.046
14500TIP3    H243446   1.848   5.952   0.095
14501TIP3   OH243447   6.922   7.056   6.408
14501TIP3    H143448   6.984   7.126   6.387
14501TIP3    H243449   6.872   7.044   6.327
14502TIP3   OH243450   7.192   2.026   3.022
14502TIP3    H143451   7.103   2.010   3.054
14502TIP3    H243452   7.246   2.027   3.101
14503TIP3   OH243453   7.301   5.820   4.325
14503TIP3    H143454   7.368   5.882   4.353
14503TIP3    H243455   7.348   5.751   4.279
14504TIP3   OH243456   0.654   4.625   0.583
14504TIP3    H143457   0.669   4.577   0.664
14504TIP3    H243458   0.577   4.582   0.544
14505TIP3   OH243459   6.804   5.142   2.578
14505TIP3    H143460   6.884   5.127   2.528
14505TIP3    H243461   6.782   5.057   2.615
14506TIP3   OH243462   6.951   7.411   2.331
14506TIP3    H143463   6.931   7.338   2.272
14506TIP3    H243464   6.874   7.418   2.388
14507TIP3   OH243465   6.365   7.453   0.241
14507TIP3    H143466   6.304   7.413   0.303
14507TIP3    H243467   6.349   7.548   0.249
14508TIP3   OH243468   0.178   7.722   4.262
14508TIP3    H143469   0.245   7.713   4.331
14508TIP3    H243470   0.226   7.709   4.180
14509TIP3   OH243471   5.375   7.375   4.068
14509TIP3    H143472   5.355   7.456   4.114
14509TIP3    H243473   5.357   7.395   3.976
14510TIP3   OH243474   2.505   5.900   1.125
14510TIP3    H143475   2.492   5.818   1.078
14510TIP3    H243476   2.454   5.965   1.076
14511TIP3   OH243477   2.415   6.325   3.823
14511TIP3    H143478   2.376   6.263   3.885
14511TIP3    H243479   2.494   6.280   3.792
14512TIP3   OH243480   5.533   6.481   6.249
14512TIP3    H143481   5.568   6.400   6.287
14512TIP3    H243482   5.531   6.464   6.155
14513TIP3   OH243483   4.725   4.864   5.189
14513TIP3    H143484   4.766   4.831   5.268
14513TIP3    H243485   4.661   4.797   5.164
14514TIP3   OH243486   5.789   1.450   5.803
14514TIP3    H143487   5.754   1.488   5.723
14514TIP3    H243488   5.791   1.522   5.866
14515TIP3   OH243489   7.569   1.098   3.149
14515TIP3    H143490   7.539   1.043   3.077
14515TIP3    H243491   7.641   1.149   3.111
14516TIP3   OH243492   2.666   1.238   3.606
14516TIP3    H143493   2.621   1.279   3.531
14516TIP3    H243494   2.647   1.145   3.597
14517TIP3   OH243495   1.527   2.110   1.233
14517TIP3    H143496   1.502   2.156   1.314
14517TIP3    H243497   1.476   2.154   1.165
14518TIP3   OH243498   6.245   0.988   6.310
14518TIP3    H143499   6.196   1.069   6.324
14518TIP3    H243500   6.244   0.974   6.216
14519TIP3   OH243501   1.738   1.686   5.678
14519TIP3    H143502   1.685   1.633   5.738
14519TIP3    H243503   1.737   1.773   5.716
14520TIP3   OH243504   2.627   6.634   3.441
14520TIP3    H143505   2.592   6.620   3.529
14520TIP3    H243506   2.595   6.720   3.416
14521TIP3   OH243507   6.419   6.116   0.363
14521TIP3    H143508   6.334   6.083   0.333
14521TIP3    H243509   6.464   6.142   0.283
14522TIP3   OH243510   4.511   3.589   5.711
14522TIP3    H143511   4.531   3.663   5.653
14522TIP3    H243512   4.592   3.573   5.759
14523TIP3   OH243513   5.433   5.229   2.248
14523TIP3    H143514   5.478   5.148   2.273
14523TIP3    H243515   5.489   5.299   2.282
14524TIP3   OH243516   1.152   7.259   0.776
14524TIP3    H143517   1.195   7.223   0.854
14524TIP3    H243518   1.153   7.188   0.713
14525TIP3   OH243519   7.507   0.713   4.137
14525TIP3    H143520   7.455   0.636   4.162
14525TIP3    H243521   7.459   0.752   4.064
14526TIP3   OH243522   6.758   7.566   5.683
14526TIP3    H143523   6.822   7.619   5.637
14526TIP3    H243524   6.804   7.484   5.703
14527TIP3   OH243525   7.692   2.005   6.662
14527TIP3    H143526   7.679   1.927   6.607
14527TIP3    H243527   7.628   2.068   6.629
14528TIP3   OH243528   7.196   0.369   5.299
14528TIP3    H143529   7.197   0.301   5.366
14528TIP3    H243530   7.112   0.359   5.255
14529TIP3   OH243531   2.715   2.964   3.613
14529TIP3    H143532   2.747   2.906   3.682
14529TIP3    H243533   2.704   2.907   3.537
14530TIP3   OH243534   3.897   5.578   3.765
14530TIP3    H143535   3.899   5.556   3.858
14530TIP3    H243536   3.815   5.627   3.754
14531TIP3   OH243537   2.223   4.481   4.137
14531TIP3    H143538   2.149   4.538   4.156
14531TIP3    H243539   2.233   4.427   4.215
14532TIP3   OH243540   0.812   4.810   4.182
14532TIP3    H143541   0.724   4.794   4.215
14532TIP3    H243542   0.816   4.905   4.169
14533TIP3   OH243543   3.740   7.243   5.713
14533TIP3    H143544   3.731   7.185   5.637
14533TIP3    H243545   3.735   7.184   5.788
14534TIP3   OH243546   4.142   0.333   1.805
14534TIP3    H143547   4.213   0.389   1.836
14534TIP3    H243548   4.109   0.290   1.884
14535TIP3   OH243549   0.854   7.375   5.031
14535TIP3    H143550   0.948   7.373   5.012
14535TIP3    H243551   0.817   7.310   4.972
14536TIP3   OH243552   5.378   3.249   6.515
14536TIP3    H143553   5.306   3.186   6.505
14536TIP3    H243554   5.456   3.195   6.520
14537TIP3   OH243555   2.325   6.853   5.925
14537TIP3    H143556   2.307   6.845   5.831
14537TIP3    H243557   2.239   6.855   5.966
14538TIP3   OH243558   2.441   2.343   2.424
14538TIP3    H143559   2.459   2.326   2.332
14538TIP3    H243560   2.399   2.429   2.426
14539TIP3   OH243561   6.491   4.413   6.169
14539TIP3    H143562   6.395   4.411   6.175
14539TIP3    H243563   6.520   4.423   6.260
14540TIP3   OH243564   4.358   7.370   6.041
14540TIP3    H143565   4.415   7.408   5.973
14540TIP3    H243566   4.419   7.336   6.107
14541TIP3   OH243567   7.059   6.401   6.064
14541TIP3    H143568   7.048   6.409   6.159
14541TIP3    H243569   7.130   6.461   6.043
14542TIP3   OH243570   1.910   3.626   2.576
14542TIP3    H143571   1.979   3.683   2.542
14542TIP3    H243572   1.835   3.642   2.519
14543TIP3   OH243573   3.019   2.433   4.665
14543TIP3    H143574   3.022   2.343   4.698
14543TIP3    H243575   3.093   2.476   4.707
14544TIP3   OH243576   5.468   3.900   3.744
14544TIP3    H143577   5.500   3.911   3.834
14544TIP3    H243578   5.432   3.986   3.722
14545TIP3   OH243579   3.335   7.272   3.135
14545TIP3    H143580   3.325   7.244   3.044
14545TIP3    H243581   3.372   7.195   3.179
14546TIP3   OH243582   3.390   5.552   0.245
14546TIP3    H143583   3.378   5.604   0.325
14546TIP3    H243584   3.331   5.591   0.182
14547TIP3   OH243585   6.021   6.201   3.535
14547TIP3    H143586   6.102   6.150   3.539
14547TIP3    H243587   6.008   6.218   3.442
14548TIP3   OH243588   7.887   3.393   1.964
14548TIP3    H143589   7.843   3.407   1.880
14548TIP3    H243590   7.830   3.436   2.027
14549TIP3   OH243591   6.791   6.137   4.641
14549TIP3    H143592   6.768   6.171   4.728
14549TIP3    H243593   6.883   6.159   4.631
14550TIP3   OH243594   6.550   6.629   2.541
14550TIP3    H143595   6.515   6.634   2.452
14550TIP3    H243596   6.512   6.704   2.587
14551TIP3   OH243597   3.416   1.656   0.362
14551TIP3    H143598   3.369   1.594   0.306
14551TIP3    H243599   3.431   1.732   0.306
14552TIP3   OH243600   4.225   2.850   4.785
14552TIP3    H143601   4.170   2.922   4.754
14552TIP3    H243602   4.245   2.799   4.706
14553TIP3   OH243603   2.325   5.385   5.517
14553TIP3    H143604   2.301   5.330   5.443
14553TIP3    H243605   2.305   5.332   5.594
14554TIP3   OH243606   7.666   6.839   0.458
14554TIP3    H143607   7.570   6.848   0.453
14554TIP3    H243608   7.683   6.750   0.428
14555TIP3   OH243609   1.025   6.101   0.009
14555TIP3    H143610   0.953   6.155   0.041
14555TIP3    H243611   0.997   6.072  -0.077
14556TIP3   OH243612   5.083   0.690   0.217
14556TIP3    H143613   5.109   0.604   0.250
14556TIP3    H243614   5.163   0.743   0.223
14557TIP3   OH243615   4.737   2.353   1.153
14557TIP3    H143616   4.815   2.405   1.171
14557TIP3    H243617   4.770   2.268   1.125
14558TIP3   OH243618   0.328   5.601   0.813
14558TIP3    H143619   0.379   5.625   0.735
14558TIP3    H243620   0.251   5.659   0.810
14559TIP3   OH243621   1.368   4.508   5.464
14559TIP3    H143622   1.360   4.420   5.501
14559TIP3    H243623   1.461   4.527   5.465
14560TIP3   OH243624   2.988   6.770   3.604
14560TIP3    H143625   3.041   6.847   3.624
14560TIP3    H243626   3.012   6.748   3.514
14561TIP3   OH243627   5.080   5.871   3.050
14561TIP3    H143628   5.084   5.927   3.128
14561TIP3    H243629   4.990   5.837   3.050
14562TIP3   OH243630   8.251   3.133   6.365
14562TIP3    H143631   8.291   3.150   6.450
14562TIP3    H243632   8.236   3.220   6.328
14563TIP3   OH243633   7.633   6.736   2.270
14563TIP3    H143634   7.609   6.802   2.206
14563TIP3    H243635   7.552   6.688   2.288
14564TIP3   OH243636   5.504   2.419   5.113
14564TIP3    H143637   5.447   2.495   5.108
14564TIP3    H243638   5.564   2.438   5.184
14565TIP3   OH243639   1.291   2.512   0.365
14565TIP3    H143640   1.205   2.542   0.335
14565TIP3    H243641   1.276   2.483   0.455
14566TIP3   OH243642   4.490   3.644   1.104
14566TIP3    H143643   4.577   3.682   1.102
14566TIP3    H243644   4.492   3.583   1.178
14567TIP3   OH243645   6.724   1.371   6.082
14567TIP3    H143646   6.632   1.359   6.108
14567TIP3    H243647   6.774   1.317   6.143
14568TIP3   OH243648   7.581   2.659   1.231
14568TIP3    H143649   7.590   2.635   1.139
14568TIP3    H243650   7.490   2.641   1.252
14569TIP3   OH243651   1.999   3.829   4.440
14569TIP3    H143652   1.920   3.830   4.493
14569TIP3    H243653   1.987   3.756   4.379
14570TIP3   OH243654   7.232   6.333   1.404
14570TIP3    H143655   7.261   6.373   1.485
14570TIP3    H243656   7.242   6.239   1.418
14571TIP3   OH243657   1.539   6.063   4.757
14571TIP3    H143658   1.541   5.970   4.734
14571TIP3    H243659   1.609   6.101   4.704
14572TIP3   OH243660   1.096   4.808   3.621
14572TIP3    H143661   1.049   4.860   3.686
14572TIP3    H243662   1.038   4.734   3.603
14573TIP3   OH243663   5.806   2.873   5.120
14573TIP3    H143664   5.826   2.810   5.051
14573TIP3    H243665   5.711   2.885   5.116
14574TIP3   OH243666   0.947   1.317   2.438
14574TIP3    H143667   0.880   1.260   2.476
14574TIP3    H243668   1.030   1.274   2.459
14575TIP3   OH243669   6.617   2.803   4.979
14575TIP3    H143670   6.632   2.716   5.017
14575TIP3    H243671   6.701   2.826   4.939
14576TIP3   OH243672   3.668   3.937   0.556
14576TIP3    H143673   3.633   3.953   0.643
14576TIP3    H243674   3.703   4.022   0.528
14577TIP3   OH243675   1.660   6.381   1.402
14577TIP3    H143676   1.670   6.468   1.363
14577TIP3    H243677   1.571   6.355   1.379
14578TIP3   OH243678   4.273   4.554   6.367
14578TIP3    H143679   4.348   4.598   6.407
14578TIP3    H243680   4.206   4.622   6.360
14579TIP3   OH243681   5.820   2.053   4.105
14579TIP3    H143682   5.913   2.058   4.124
14579TIP3    H243683   5.808   1.970   4.060
14580TIP3   OH243684   1.036   5.440   0.824
14580TIP3    H143685   1.105   5.507   0.827
14580TIP3    H243686   1.038   5.400   0.911
14581TIP3   OH243687   0.090   0.950   4.199
14581TIP3    H143688   0.073   0.973   4.108
14581TIP3    H243689   0.154   0.880   4.194
14582TIP3   OH243690   1.238   2.059   5.469
14582TIP3    H143691   1.245   2.013   5.385
14582TIP3    H243692   1.329   2.082   5.490
14583TIP3   OH243693   4.382   7.812   6.207
14583TIP3    H143694   4.431   7.874   6.261
14583TIP3    H243695   4.412   7.726   6.236
14584TIP3   OH243696   2.686   1.882   0.106
14584TIP3    H143697   2.700   1.956   0.165
14584TIP3    H243698   2.770   1.871   0.061
14585TIP3   OH243699   6.689   4.052   5.864
14585TIP3    H143700   6.696   4.079   5.773
14585TIP3    H243701   6.649   4.127   5.909
14586TIP3   OH243702   6.186   6.056   5.000
14586TIP3    H143703   6.206   6.139   4.955
14586TIP3    H243704   6.222   5.989   4.942
14587TIP3   OH243705   7.807   5.768   4.220
14587TIP3    H143706   7.764   5.839   4.268
14587TIP3    H243707   7.738   5.731   4.165
14588TIP3   OH243708   2.870   3.507   5.615
14588TIP3    H143709   2.855   3.594   5.578
14588TIP3    H243710   2.955   3.480   5.581
14589TIP3   OH243711   3.452   2.369   5.698
14589TIP3    H143712   3.470   2.458   5.668
14589TIP3    H243713   3.442   2.319   5.617
14590TIP3   OH243714   5.722   4.020   2.791
14590TIP3    H143715   5.653   3.957   2.811
14590TIP3    H243716   5.798   3.967   2.770
14591TIP3   OH243717   6.721   5.993   3.418
14591TIP3    H143718   6.763   5.949   3.344
14591TIP3    H243719   6.659   5.929   3.451
14592TIP3   OH243720   3.492   5.801   0.330
14592TIP3    H143721   3.421   5.864   0.321
14592TIP3    H243722   3.469   5.749   0.407
14593TIP3   OH243723   1.560   6.858   0.026
14593TIP3    H143724   1.521   6.888   0.109
14593TIP3    H243725   1.492   6.805  -0.015
14594TIP3   OH243726   0.713   6.386   1.288
14594TIP3    H143727   0.740   6.475   1.314
14594TIP3    H243728   0.711   6.337   1.369
14595TIP3   OH243729   1.213   1.972   1.320
14595TIP3    H143730   1.173   1.889   1.347
14595TIP3    H243731   1.306   1.961   1.340
14596TIP3   OH243732   6.843   0.715   0.302
14596TIP3    H143733   6.810   0.625   0.300
14596TIP3    H243734   6.905   0.719   0.230
14597TIP3   OH243735   7.782   0.885   2.887
14597TIP3    H143736   7.695   0.913   2.913
14597TIP3    H243737   7.791   0.912   2.796
14598TIP3   OH243738   0.132  -0.010   5.549
14598TIP3    H143739   0.195   0.008   5.619
14598TIP3    H243740   0.174   0.022   5.469
14599TIP3   OH243741   6.321   4.049   3.388
14599TIP3    H143742   6.278   4.074   3.306
14599TIP3    H243743   6.319   4.129   3.441
14600TIP3   OH243744   1.281   3.020   4.343
14600TIP3    H143745   1.298   3.043   4.434
14600TIP3    H243746   1.360   2.975   4.315
14601TIP3   OH243747   1.339   2.844   5.169
14601TIP3    H143748   1.380   2.876   5.088
14601TIP3    H243749   1.367   2.753   5.175
14602TIP3   OH243750   3.015   7.710   3.815
14602TIP3    H143751   3.061   7.732   3.897
14602TIP3    H243752   2.972   7.791   3.790
14603TIP3   OH243753   3.145   3.899   5.342
14603TIP3    H143754   3.100   3.973   5.303
14603TIP3    H243755   3.088   3.871   5.414
14604TIP3   OH243756   0.970   1.730   5.822
14604TIP3    H143757   1.002   1.725   5.913
14604TIP3    H243758   1.015   1.806   5.785
14605TIP3   OH243759   6.448   1.020   4.762
14605TIP3    H143760   6.483   0.941   4.802
14605TIP3    H243761   6.495   1.028   4.679
14606TIP3   OH243762   1.288   5.224   6.249
14606TIP3    H143763   1.376   5.244   6.282
14606TIP3    H243764   1.304   5.183   6.164
14607TIP3   OH243765   5.430   6.317   1.036
14607TIP3    H143766   5.355   6.339   0.980
14607TIP3    H243767   5.502   6.370   1.003
14608TIP3   OH243768   7.167   4.626   5.882
14608TIP3    H143769   7.126   4.637   5.968
14608TIP3    H243770   7.252   4.669   5.891
14609TIP3   OH243771   2.514  -0.022   5.679
14609TIP3    H143772   2.541  -0.075   5.754
14609TIP3    H243773   2.444   0.033   5.713
14610TIP3   OH243774   8.097   0.503   0.996
14610TIP3    H143775   8.166   0.497   0.929
14610TIP3    H243776   8.121   0.578   1.049
14611TIP3   OH243777   5.583   7.776   0.066
14611TIP3    H143778   5.505   7.803   0.114
14611TIP3    H243779   5.595   7.683   0.089
14612TIP3   OH243780   7.439   6.758   1.916
14612TIP3    H143781   7.513   6.749   1.855
14612TIP3    H243782   7.470   6.819   1.982
14613TIP3   OH243783   7.274   7.524   3.424
14613TIP3    H143784   7.292   7.483   3.509
14613TIP3    H243785   7.178   7.523   3.417
14614TIP3   OH243786   7.719   1.523   1.639
14614TIP3    H143787   7.697   1.606   1.596
14614TIP3    H243788   7.664   1.458   1.595
14615TIP3   OH243789   2.823   6.654   3.781
14615TIP3    H143790   2.875   6.693   3.711
14615TIP3    H243791   2.733   6.680   3.761
14616TIP3   OH243792   5.490   2.994   4.633
14616TIP3    H143793   5.430   2.921   4.644
14616TIP3    H243794   5.574   2.953   4.611
14617TIP3   OH243795   3.268   1.192   1.824
14617TIP3    H143796   3.210   1.151   1.760
14617TIP3    H243797   3.356   1.169   1.795
14618TIP3   OH243798   4.104   2.102   6.799
14618TIP3    H143799   4.044   2.031   6.822
14618TIP3    H243800   4.104   2.103   6.703
14619TIP3   OH243801   0.796   7.129   2.066
14619TIP3    H143802   0.705   7.161   2.065
14619TIP3    H243803   0.816   7.116   2.159
14620TIP3   OH243804   8.072   3.723   3.851
14620TIP3    H143805   8.108   3.650   3.901
14620TIP3    H243806   8.130   3.796   3.871
14621TIP3   OH243807   3.893   5.581   0.984
14621TIP3    H143808   3.848   5.564   1.066
14621TIP3    H243809   3.824   5.605   0.922
14622TIP3   OH243810   7.492   5.549   4.999
14622TIP3    H143811   7.443   5.585   4.925
14622TIP3    H243812   7.543   5.623   5.032
14623TIP3   OH243813   3.259   2.028   6.488
14623TIP3    H143814   3.349   1.999   6.498
14623TIP3    H243815   3.266   2.121   6.463
14624TIP3   OH243816   1.027   6.672   2.871
14624TIP3    H143817   0.993   6.742   2.927
14624TIP3    H243818   1.107   6.709   2.833
14625TIP3   OH243819   2.348   1.760   3.133
14625TIP3    H143820   2.358   1.800   3.046
14625TIP3    H243821   2.376   1.827   3.194
14626TIP3   OH243822   7.545   1.717   4.015
14626TIP3    H143823   7.567   1.628   4.039
14626TIP3    H243824   7.628   1.764   4.015
14627TIP3   OH243825   0.345   5.137   1.785
14627TIP3    H143826   0.268   5.192   1.796
14627TIP3    H243827   0.345   5.114   1.692
14628TIP3   OH243828   5.339   5.809   2.920
14628TIP3    H143829   5.424   5.853   2.928
14628TIP3    H243830   5.282   5.854   2.982
14629TIP3   OH243831   4.570   4.738   2.470
14629TIP3    H143832   4.548   4.659   2.422
14629TIP3    H243833   4.657   4.762   2.439
14630TIP3   OH243834   5.110   5.812   6.582
14630TIP3    H143835   5.033   5.791   6.634
14630TIP3    H243836   5.078   5.872   6.515
14631TIP3   OH243837   7.148   1.884   6.154
14631TIP3    H143838   7.061   1.875   6.191
14631TIP3    H243839   7.141   1.956   6.091
14632TIP3   OH243840   7.425   2.092   6.063
14632TIP3    H143841   7.444   2.082   6.156
14632TIP3    H243842   7.331   2.112   6.060
14633TIP3   OH243843   4.446   7.416   2.277
14633TIP3    H143844   4.351   7.404   2.275
14633TIP3    H243845   4.459   7.502   2.317
14634TIP3   OH243846   4.166   7.552   5.879
14634TIP3    H143847   4.222   7.628   5.866
14634TIP3    H243848   4.204   7.507   5.954
14635TIP3   OH243849   2.095   1.366   6.300
14635TIP3    H143850   2.077   1.326   6.385
14635TIP3    H243851   2.169   1.317   6.266
14636TIP3   OH243852   3.807   5.277   0.077
14636TIP3    H143853   3.811   5.272  -0.019
14636TIP3    H243854   3.734   5.335   0.095
14637TIP3   OH243855   1.002   5.606   4.162
14637TIP3    H143856   0.913   5.586   4.134
14637TIP3    H243857   1.027   5.533   4.219
14638TIP3   OH243858   7.495   4.177   0.472
14638TIP3    H143859   7.485   4.147   0.563
14638TIP3    H243860   7.552   4.113   0.432
14639TIP3   OH243861   0.462   0.701   3.941
14639TIP3    H143862   0.434   0.773   3.996
14639TIP3    H243863   0.424   0.623   3.982
14640TIP3   OH243864   6.283   5.513   1.365
14640TIP3    H143865   6.296   5.504   1.460
14640TIP3    H243866   6.188   5.515   1.354
14641TIP3   OH243867   6.866   1.832   6.231
14641TIP3    H143868   6.794   1.806   6.290
14641TIP3    H243869   6.892   1.751   6.187
14642TIP3   OH243870   7.559   2.464   0.770
14642TIP3    H143871   7.648   2.486   0.743
14642TIP3    H243872   7.516   2.434   0.690
14643TIP3   OH243873   6.531   4.383   0.160
14643TIP3    H143874   6.464   4.344   0.215
14643TIP3    H243875   6.482   4.440   0.100
14644TIP3   OH243876   2.051   6.393   4.715
14644TIP3    H143877   2.074   6.484   4.695
14644TIP3    H243878   1.990   6.398   4.789
14645TIP3   OH243879   6.489   5.619   5.476
14645TIP3    H143880   6.473   5.623   5.570
14645TIP3    H243881   6.461   5.531   5.450
14646TIP3   OH243882   8.007   1.355   4.761
14646TIP3    H143883   8.044   1.416   4.825
14646TIP3    H243884   7.945   1.409   4.710
14647TIP3   OH243885   3.488   7.357   1.145
14647TIP3    H143886   3.505   7.450   1.161
14647TIP3    H243887   3.555   7.311   1.194
14648TIP3   OH243888   1.403   1.565   4.090
14648TIP3    H143889   1.353   1.633   4.136
14648TIP3    H243890   1.389   1.486   4.143
14649TIP3   OH243891   7.683   0.392   3.294
14649TIP3    H143892   7.702   0.334   3.369
14649TIP3    H243893   7.665   0.477   3.333
14650TIP3   OH243894   2.953   5.788   6.487
14650TIP3    H143895   2.918   5.843   6.558
14650TIP3    H243896   2.883   5.725   6.468
14651TIP3   OH243897   3.220   3.617   0.586
14651TIP3    H143898   3.156   3.676   0.546
14651TIP3    H243899   3.204   3.625   0.680
14652TIP3   OH243900   2.983   5.240   3.113
14652TIP3    H143901   2.977   5.218   3.020
14652TIP3    H243902   3.076   5.228   3.134
14653TIP3   OH243903   1.646   5.014   5.522
14653TIP3    H143904   1.621   4.959   5.447
14653TIP3    H243905   1.665   5.100   5.484
14654TIP3   OH243906   7.305   5.843   1.098
14654TIP3    H143907   7.272   5.789   1.170
14654TIP3    H243908   7.267   5.929   1.113
14655TIP3   OH243909   3.654   3.040   1.909
14655TIP3    H143910   3.648   3.058   2.003
14655TIP3    H243911   3.594   3.103   1.869
14656TIP3   OH243912   0.309   1.811   3.175
14656TIP3    H143913   0.270   1.791   3.260
14656TIP3    H243914   0.244   1.867   3.132
14657TIP3   OH243915   5.795   2.792   6.279
14657TIP3    H143916   5.788   2.721   6.343
14657TIP3    H243917   5.889   2.801   6.263
14658TIP3   OH243918   8.203   7.767   0.423
14658TIP3    H143919   8.110   7.780   0.443
14658TIP3    H243920   8.213   7.806   0.336
14659TIP3   OH243921   1.545   2.873   1.137
14659TIP3    H143922   1.596   2.838   1.210
14659TIP3    H243923   1.454   2.853   1.160
14660TIP3   OH243924   0.320   6.495   6.504
14660TIP3    H143925   0.342   6.547   6.426
14660TIP3    H243926   0.246   6.441   6.477
14661TIP3   OH243927   8.017   6.254   0.902
14661TIP3    H143928   8.099   6.205   0.892
14661TIP3    H243929   8.036   6.319   0.969
14662TIP3   OH243930   5.900   7.010   1.811
14662TIP3    H143931   5.822   7.009   1.756
14662TIP3    H243932   5.909   7.102   1.837
14663TIP3   OH243933   8.040   3.140   3.777
14663TIP3    H143934   8.097   3.216   3.766
14663TIP3    H243935   7.968   3.155   3.716
14664TIP3   OH243936   2.494   0.388   6.171
14664TIP3    H143937   2.454   0.386   6.084
14664TIP3    H243938   2.421   0.379   6.232
14665TIP3   OH243939   3.038   4.325   4.991
14665TIP3    H143940   3.024   4.231   5.002
14665TIP3    H243941   3.133   4.334   4.983
14666TIP3   OH243942   0.312   4.026   1.964
14666TIP3    H143943   0.243   3.960   1.979
14666TIP3    H243944   0.295   4.059   1.876
14667TIP3   OH243945   2.816   1.555   3.335
14667TIP3    H143946   2.772   1.521   3.257
14667TIP3    H243947   2.865   1.481   3.369
14668TIP3   OH243948   8.231   6.225   4.228
14668TIP3    H143949   8.265   6.302   4.182
14668TIP3    H243950   8.248   6.153   4.168
14669TIP3   OH243951   7.152   6.676   1.055
14669TIP3    H143952   7.182   6.640   1.138
14669TIP3    H243953   7.089   6.744   1.079
14670TIP3   OH243954   3.168   7.038   1.882
14670TIP3    H143955   3.142   7.125   1.852
14670TIP3    H243956   3.247   7.018   1.830
14671TIP3   OH243957   1.726   0.188   5.867
14671TIP3    H143958   1.715   0.281   5.847
14671TIP3    H243959   1.662   0.144   5.811
14672TIP3   OH243960   7.326   1.815   5.224
14672TIP3    H143961   7.358   1.837   5.136
14672TIP3    H243962   7.243   1.862   5.232
14673TIP3   OH243963   1.702   0.706   4.533
14673TIP3    H143964   1.642   0.720   4.606
14673TIP3    H243965   1.776   0.764   4.551
14674TIP3   OH243966   4.623   6.697   1.998
14674TIP3    H143967   4.643   6.632   1.932
14674TIP3    H243968   4.692   6.763   1.989
14675TIP3   OH243969   6.181   2.917   4.538
14675TIP3    H143970   6.141   2.873   4.613
14675TIP3    H243971   6.111   2.974   4.505
14676TIP3   OH243972   4.147   1.331   0.768
14676TIP3    H143973   4.221   1.388   0.748
14676TIP3    H243974   4.154   1.260   0.705
14677TIP3   OH243975   4.651   4.066   6.020
14677TIP3    H143976   4.696   3.981   6.021
14677TIP3    H243977   4.713   4.126   5.979
14678TIP3   OH243978   6.914   6.718   6.199
14678TIP3    H143979   6.861   6.775   6.142
14678TIP3    H243980   7.002   6.724   6.161
14679TIP3   OH243981   2.044   1.219   3.172
14679TIP3    H143982   2.009   1.178   3.251
14679TIP3    H243983   2.059   1.310   3.198
14680TIP3   OH243984   1.929   1.529   2.215
14680TIP3    H143985   1.954   1.547   2.124
14680TIP3    H243986   2.005   1.485   2.252
14681TIP3   OH243987   6.810   4.860   6.230
14681TIP3    H143988   6.748   4.899   6.291
14681TIP3    H243989   6.810   4.767   6.253
14682TIP3   OH243990   1.653   1.084   2.645
14682TIP3    H143991   1.692   1.061   2.561
14682TIP3    H243992   1.607   1.166   2.628
14683TIP3   OH243993   0.931   0.061   5.788
14683TIP3    H143994   0.948   0.146   5.827
14683TIP3    H243995   0.909   0.081   5.696
14684TIP3   OH243996   0.236   3.874   5.780
14684TIP3    H143997   0.235   3.957   5.733
14684TIP3    H243998   0.148   3.865   5.817
14685TIP3   OH243999   4.841   7.544   6.304
14685TIP3    H144000   4.844   7.457   6.264
14685TIP3    H244001   4.845   7.528   6.398
14686TIP3   OH244002   2.322   6.780   3.886
14686TIP3    H144003   2.395   6.805   3.944
14686TIP3    H244004   2.292   6.696   3.920
14687TIP3   OH244005   2.224   3.039   0.285
14687TIP3    H144006   2.273   2.968   0.328
14687TIP3    H244007   2.132   3.020   0.306
14688TIP3   OH244008   0.623   3.594   0.749
14688TIP3    H144009   0.592   3.653   0.818
14688TIP3    H244010   0.715   3.579   0.772
14689TIP3   OH244011   6.701   6.741   5.375
14689TIP3    H144012   6.675   6.749   5.283
14689TIP3    H244013   6.641   6.676   5.412
14690TIP3   OH244014   6.763   5.191   1.316
14690TIP3    H144015   6.696   5.257   1.295
14690TIP3    H244016   6.802   5.223   1.397
14691TIP3   OH244017   3.946   2.509   4.098
14691TIP3    H144018   4.032   2.536   4.066
14691TIP3    H244019   3.884   2.542   4.032
14692TIP3   OH244020   2.973   3.831   1.305
14692TIP3    H144021   2.983   3.861   1.215
14692TIP3    H244022   2.906   3.888   1.343
14693TIP3   OH244023   8.080   0.570   1.882
14693TIP3    H144024   8.170   0.573   1.851
14693TIP3    H244025   8.031   0.624   1.819
14694TIP3   OH244026   4.222   2.090   0.780
14694TIP3    H144027   4.133   2.055   0.785
14694TIP3    H244028   4.276   2.026   0.828
14695TIP3   OH244029   5.339   2.746   2.154
14695TIP3    H144030   5.329   2.662   2.109
14695TIP3    H244031   5.367   2.807   2.086
14696TIP3   OH244032   3.832   2.830   1.770
14696TIP3    H144033   3.791   2.903   1.816
14696TIP3    H244034   3.762   2.793   1.716
14697TIP3   OH244035   1.335   6.722   2.289
14697TIP3    H144036   1.414   6.773   2.275
14697TIP3    H244037   1.366   6.634   2.309
14698TIP3   OH244038   0.411   7.463   6.096
14698TIP3    H144039   0.496   7.503   6.114
14698TIP3    H244040   0.372   7.517   6.028
14699TIP3   OH244041   1.315   1.662   0.454
14699TIP3    H144042   1.345   1.687   0.541
14699TIP3    H244043   1.395   1.638   0.407
14700TIP3   OH244044   0.449   5.867   2.106
14700TIP3    H144045   0.473   5.775   2.112
14700TIP3    H244046   0.518   5.914   2.153
14701TIP3   OH244047   4.862   5.335   0.506
14701TIP3    H144048   4.855   5.411   0.448
14701TIP3    H244049   4.798   5.273   0.472
14702TIP3   OH244050   1.604   1.176   1.620
14702TIP3    H144051   1.676   1.226   1.580
14702TIP3    H244052   1.612   1.089   1.582
14703TIP3   OH244053   1.164   0.397   6.035
14703TIP3    H144054   1.102   0.464   6.061
14703TIP3    H244055   1.119   0.314   6.053
14704TIP3   OH244056   1.619   6.300   0.734
14704TIP3    H144057   1.558   6.319   0.662
14704TIP3    H244058   1.706   6.316   0.696
14705TIP3   OH244059   1.361   5.582   6.669
14705TIP3    H144060   1.423   5.616   6.605
14705TIP3    H244061   1.323   5.659   6.709
14706TIP3   OH244062   4.571   7.239   4.722
14706TIP3    H144063   4.535   7.161   4.680
14706TIP3    H244064   4.603   7.292   4.649
14707TIP3   OH244065   0.449   4.301   5.395
14707TIP3    H144066   0.502   4.308   5.315
14707TIP3    H244067   0.401   4.219   5.384
14708TIP3   OH244068   7.285   1.861   4.565
14708TIP3    H144069   7.366   1.842   4.612
14708TIP3    H244070   7.220   1.804   4.605
14709TIP3   OH244071   1.665   1.657   3.698
14709TIP3    H144072   1.708   1.692   3.620
14709TIP3    H244073   1.629   1.735   3.742
14710TIP3   OH244074   6.729   2.764   0.783
14710TIP3    H144075   6.785   2.727   0.715
14710TIP3    H244076   6.653   2.798   0.735
14711TIP3   OH244077   4.658   6.970   2.522
14711TIP3    H144078   4.684   7.062   2.516
14711TIP3    H244079   4.584   6.962   2.462
14712TIP3   OH244080   5.527   0.889   2.760
14712TIP3    H144081   5.463   0.851   2.820
14712TIP3    H244082   5.478   0.904   2.679
14713TIP3   OH244083   7.725   0.248   2.907
14713TIP3    H144084   7.778   0.327   2.918
14713TIP3    H244085   7.635   0.281   2.896
14714TIP3   OH244086   5.995   6.628   1.530
14714TIP3    H144087   5.942   6.625   1.451
14714TIP3    H244088   6.020   6.720   1.538
14715TIP3   OH244089   2.552   5.670   3.246
14715TIP3    H144090   2.487   5.664   3.176
14715TIP3    H244091   2.577   5.580   3.264
14716TIP3   OH244092   3.091   7.783   4.387
14716TIP3    H144093   3.094   7.799   4.481
14716TIP3    H244094   3.138   7.856   4.348
14717TIP3   OH244095   4.220   7.048   0.157
14717TIP3    H144096   4.283   6.980   0.182
14717TIP3    H244097   4.156   7.049   0.228
14718TIP3   OH244098   4.452   5.028   1.538
14718TIP3    H144099   4.412   4.998   1.456
14718TIP3    H244100   4.498   5.108   1.513
14719TIP3   OH244101   4.833   7.533   1.642
14719TIP3    H144102   4.838   7.476   1.565
14719TIP3    H244103   4.771   7.601   1.617
14720TIP3   OH244104   7.377   4.408   0.384
14720TIP3    H144105   7.424   4.327   0.401
14720TIP3    H244106   7.362   4.446   0.471
14721TIP3   OH244107   0.607   3.751   1.005
14721TIP3    H144108   0.533   3.789   1.052
14721TIP3    H244109   0.617   3.807   0.928
14722TIP3   OH244110   0.792   1.388   4.612
14722TIP3    H144111   0.735   1.428   4.546
14722TIP3    H244112   0.770   1.433   4.693
14723TIP3   OH244113   1.137   1.024   1.926
14723TIP3    H144114   1.198   1.079   1.877
14723TIP3    H244115   1.098   0.967   1.860
14724TIP3   OH244116   7.839   1.916   3.105
14724TIP3    H144117   7.908   1.954   3.158
14724TIP3    H244118   7.765   1.976   3.116
14725TIP3   OH244119   5.064   2.524   3.666
14725TIP3    H144120   5.152   2.493   3.647
14725TIP3    H244121   5.039   2.575   3.589
14726TIP3   OH244122   4.627   0.654   4.096
14726TIP3    H144123   4.679   0.685   4.021
14726TIP3    H244124   4.689   0.648   4.168
14727TIP3   OH244125   8.024   3.834   0.959
14727TIP3    H144126   7.943   3.783   0.963
14727TIP3    H244127   8.092   3.773   0.989
14728TIP3   OH244128   0.003   0.995   5.035
14728TIP3    H144129   0.037   0.963   4.952
14728TIP3    H244130   0.015   1.090   5.030
14729TIP3   OH244131   4.779   6.032   0.348
14729TIP3    H144132   4.703   5.975   0.359
14729TIP3    H244133   4.771   6.066   0.259
14730TIP3   OH244134   5.497   2.478   0.875
14730TIP3    H144135   5.578   2.428   0.881
14730TIP3    H244136   5.437   2.422   0.826
14731TIP3   OH244137   5.052   4.702   5.164
14731TIP3    H144138   5.063   4.685   5.071
14731TIP3    H244139   4.975   4.651   5.189
14732TIP3   OH244140   5.838   7.572   5.044
14732TIP3    H144141   5.818   7.644   5.103
14732TIP3    H244142   5.916   7.531   5.081
14733TIP3   OH244143   3.844   4.567   6.065
14733TIP3    H144144   3.933   4.534   6.078
14733TIP3    H244145   3.820   4.607   6.148
14734TIP3   OH244146   4.142   2.544   6.120
14734TIP3    H144147   4.104   2.625   6.086
14734TIP3    H244148   4.127   2.549   6.215
14735TIP3   OH244149   3.507   5.903   2.060
14735TIP3    H144150   3.540   5.959   1.990
14735TIP3    H244151   3.416   5.929   2.071
14736TIP3   OH244152   8.236   2.611   1.734
14736TIP3    H144153   8.180   2.574   1.666
14736TIP3    H244154   8.193   2.693   1.758
14737TIP3   OH244155   2.047   5.264   1.251
14737TIP3    H144156   1.984   5.251   1.322
14737TIP3    H244157   2.117   5.317   1.290
14738TIP3   OH244158   1.860   7.297   1.343
14738TIP3    H144159   1.914   7.281   1.421
14738TIP3    H244160   1.855   7.212   1.299
14739TIP3   OH244161   8.240   4.862   6.531
14739TIP3    H144162   8.232   4.852   6.437
14739TIP3    H244163   8.179   4.932   6.554
14740TIP3   OH244164   1.468   7.081   2.467
14740TIP3    H144165   1.429   7.158   2.508
14740TIP3    H244166   1.562   7.093   2.477
14741TIP3   OH244167   2.137   6.878   0.821
14741TIP3    H144168   2.187   6.839   0.749
14741TIP3    H244169   2.091   6.952   0.781
14742TIP3   OH244170   0.091   3.269   4.325
14742TIP3    H144171   0.136   3.207   4.383
14742TIP3    H244172   0.042   3.326   4.385
14743TIP3   OH244173   5.812   4.548   4.147
14743TIP3    H144174   5.718   4.561   4.161
14743TIP3    H244175   5.824   4.556   4.053
14744TIP3   OH244176   1.894   5.816   6.183
14744TIP3    H144177   1.970   5.857   6.143
14744TIP3    H244178   1.825   5.823   6.117
14745TIP3   OH244179   8.185   3.990   3.887
14745TIP3    H144180   8.275   4.014   3.906
14745TIP3    H244181   8.154   4.058   3.827
14746TIP3   OH244182   7.571   2.589   4.306
14746TIP3    H144183   7.520   2.508   4.315
14746TIP3    H244184   7.545   2.624   4.221
14747TIP3   OH244185   0.405   7.099   6.531
14747TIP3    H144186   0.464   7.025   6.517
14747TIP3    H244187   0.393   7.138   6.445
14748TIP3   OH244188   3.900   6.683   4.185
14748TIP3    H144189   3.966   6.629   4.230
14748TIP3    H244190   3.856   6.730   4.255
14749TIP3   OH244191   5.271   5.365   5.310
14749TIP3    H144192   5.293   5.446   5.263
14749TIP3    H244193   5.187   5.338   5.273
14750TIP3   OH244194   7.973   2.776   5.252
14750TIP3    H144195   8.034   2.849   5.242
14750TIP3    H244196   7.963   2.765   5.346
14751TIP3   OH244197   5.779   6.015   4.387
14751TIP3    H144198   5.772   5.954   4.460
14751TIP3    H244199   5.772   6.102   4.427
14752TIP3   OH244200   4.221   6.101   0.275
14752TIP3    H144201   4.164   6.098   0.198
14752TIP3    H244202   4.306   6.073   0.243
14753TIP3   OH244203   0.683   5.015   5.518
14753TIP3    H144204   0.733   5.000   5.598
14753TIP3    H244205   0.607   5.065   5.546
14754TIP3   OH244206   2.512   7.638   5.314
14754TIP3    H144207   2.494   7.547   5.338
14754TIP3    H244208   2.431   7.685   5.334
14755TIP3   OH244209   1.723   5.339   1.394
14755TIP3    H144210   1.737   5.312   1.485
14755TIP3    H244211   1.630   5.323   1.378
14756TIP3   OH244212   5.436   7.569   1.569
14756TIP3    H144213   5.427   7.664   1.563
14756TIP3    H244214   5.527   7.555   1.595
14757TIP3   OH244215   7.026   4.915   4.871
14757TIP3    H144216   7.050   4.826   4.844
14757TIP3    H244217   7.085   4.933   4.945
14758TIP3   OH244218   3.891   2.442   0.082
14758TIP3    H144219   3.977   2.402   0.074
14758TIP3    H244220   3.908   2.529   0.119
14759TIP3   OH244221   3.996   3.063   6.533
14759TIP3    H144222   3.927   3.127   6.514
14759TIP3    H244223   4.070   3.116   6.564
14760TIP3   OH244224   3.591   4.153   1.037
14760TIP3    H144225   3.644   4.229   1.062
14760TIP3    H244226   3.600   4.092   1.110
14761TIP3   OH244227   2.318   0.182   2.168
14761TIP3    H144228   2.273   0.118   2.113
14761TIP3    H244229   2.349   0.249   2.107
14762TIP3   OH244230   0.512   7.661   3.923
14762TIP3    H144231   0.562   7.585   3.893
14762TIP3    H244232   0.571   7.708   3.981
14763TIP3   OH244233   7.993   5.408   0.710
14763TIP3    H144234   8.017   5.474   0.644
14763TIP3    H244235   7.925   5.450   0.762
14764TIP3   OH244236   4.260   5.345   2.630
14764TIP3    H144237   4.275   5.439   2.636
14764TIP3    H244238   4.201   5.325   2.702
14765TIP3   OH244239   7.560   1.925   1.797
14765TIP3    H144240   7.620   1.873   1.850
14765TIP3    H244241   7.494   1.957   1.860
14766TIP3   OH244242   7.913   5.642   5.609
14766TIP3    H144243   7.905   5.658   5.703
14766TIP3    H244244   7.862   5.562   5.594
14767TIP3   OH244245   3.276   5.573   1.115
14767TIP3    H144246   3.204   5.519   1.149
14767TIP3    H244247   3.236   5.622   1.043
14768TIP3   OH244248   1.787   6.073   3.096
14768TIP3    H144249   1.788   6.167   3.116
14768TIP3    H244250   1.711   6.039   3.144
14769TIP3   OH244251   6.102   2.337   4.082
14769TIP3    H144252   6.109   2.242   4.091
14769TIP3    H244253   6.158   2.371   4.152
14770TIP3   OH244254   1.994   3.817   1.917
14770TIP3    H144255   2.037   3.739   1.952
14770TIP3    H244256   1.947   3.786   1.840
14771TIP3   OH244257   6.313   0.746   3.865
14771TIP3    H144258   6.380   0.814   3.863
14771TIP3    H244259   6.344   0.681   3.803
14772TIP3   OH244260   2.712   0.282   2.205
14772TIP3    H144261   2.731   0.249   2.117
14772TIP3    H244262   2.668   0.366   2.189
14773TIP3   OH244263   0.655   4.566   6.374
14773TIP3    H144264   0.570   4.549   6.332
14773TIP3    H244265   0.713   4.589   6.301
14774TIP3   OH244266   5.936   0.369   1.418
14774TIP3    H144267   5.928   0.385   1.512
14774TIP3    H244268   5.847   0.375   1.385
14775TIP3   OH244269   0.695   6.872   3.438
14775TIP3    H144270   0.660   6.959   3.415
14775TIP3    H244271   0.708   6.829   3.353
14776TIP3   OH244272   5.235   7.207   6.596
14776TIP3    H144273   5.258   7.277   6.658
14776TIP3    H244274   5.256   7.126   6.642
14777TIP3   OH244275   4.732   7.274   4.050
14777TIP3    H144276   4.650   7.321   4.032
14777TIP3    H244277   4.711   7.216   4.122
14778TIP3   OH244278   0.962   4.832   0.467
14778TIP3    H144279   0.913   4.822   0.385
14778TIP3    H244280   0.984   4.743   0.493
14779TIP3   OH244281   6.864   2.046   3.564
14779TIP3    H144282   6.784   2.059   3.615
14779TIP3    H244283   6.930   2.099   3.609
14780TIP3   OH244284   1.272   1.396   2.582
14780TIP3    H144285   1.349   1.408   2.637
14780TIP3    H244286   1.206   1.360   2.641
14781TIP3   OH244287   2.110   0.127   5.862
14781TIP3    H144288   2.134   0.213   5.896
14781TIP3    H244289   2.193   0.082   5.848
14782TIP3   OH244290   5.785   2.162   3.007
14782TIP3    H144291   5.880   2.175   3.003
14782TIP3    H244292   5.748   2.246   2.982
14783TIP3   OH244293   5.238   2.671   1.240
14783TIP3    H144294   5.317   2.696   1.287
14783TIP3    H244295   5.180   2.747   1.247
14784TIP3   OH244296   0.555   5.424   1.184
14784TIP3    H144297   0.472   5.462   1.215
14784TIP3    H244298   0.556   5.443   1.090
14785TIP3   OH244299   7.315   6.478   0.207
14785TIP3    H144300   7.387   6.437   0.160
14785TIP3    H244301   7.356   6.519   0.284
14786TIP3   OH244302   4.401   6.475   5.016
14786TIP3    H144303   4.368   6.485   4.926
14786TIP3    H244304   4.408   6.564   5.050
14787TIP3   OH244305   4.623   1.143   4.310
14787TIP3    H144306   4.549   1.170   4.364
14787TIP3    H244307   4.663   1.224   4.280
14788TIP3   OH244308   1.522   1.536   2.150
14788TIP3    H144309   1.455   1.561   2.086
14788TIP3    H244310   1.605   1.548   2.105
14789TIP3   OH244311   1.025   0.304   1.414
14789TIP3    H144312   1.086   0.375   1.393
14789TIP3    H244313   0.968   0.299   1.338
14790TIP3   OH244314   2.829   3.766   6.295
14790TIP3    H144315   2.766   3.834   6.272
14790TIP3    H244316   2.832   3.708   6.219
14791TIP3   OH244317   4.894   4.142   4.572
14791TIP3    H144318   4.963   4.144   4.506
14791TIP3    H244319   4.928   4.195   4.644
14792TIP3   OH244320   4.255   1.899   5.700
14792TIP3    H144321   4.251   1.924   5.792
14792TIP3    H244322   4.261   1.803   5.701
14793TIP3   OH244323   5.507   3.675   4.368
14793TIP3    H144324   5.505   3.582   4.343
14793TIP3    H244325   5.504   3.722   4.284
14794TIP3   OH244326   1.045   5.687   5.901
14794TIP3    H144327   1.101   5.612   5.920
14794TIP3    H244328   0.964   5.648   5.868
14795TIP3   OH244329   2.760   3.428   0.484
14795TIP3    H144330   2.821   3.471   0.544
14795TIP3    H244331   2.674   3.464   0.506
14796TIP3   OH244332   0.993   6.384   5.192
14796TIP3    H144333   0.961   6.298   5.221
14796TIP3    H244334   1.069   6.401   5.247
14797TIP3   OH244335   0.037   0.810   4.846
14797TIP3    H144336  -0.030   0.815   4.778
14797TIP3    H244337   0.040   0.718   4.871
14798TIP3   OH244338   6.360   4.075   4.877
14798TIP3    H144339   6.305   4.141   4.835
14798TIP3    H244340   6.300   4.003   4.895
14799TIP3   OH244341   2.214   0.434   1.380
14799TIP3    H144342   2.223   0.449   1.286
14799TIP3    H244343   2.139   0.376   1.388
14800TIP3   OH244344   4.780   4.433   3.323
14800TIP3    H144345   4.699   4.387   3.301
14800TIP3    H244346   4.837   4.418   3.248
14801TIP3   OH244347   0.467   3.162   0.058
14801TIP3    H144348   0.450   3.145  -0.035
14801TIP3    H244349   0.497   3.079   0.093
14802TIP3   OH244350   2.290   3.643   2.346
14802TIP3    H144351   2.255   3.555   2.333
14802TIP3    H244352   2.248   3.674   2.425
14803TIP3   OH244353   5.255   4.443   0.233
14803TIP3    H144354   5.177   4.415   0.186
14803TIP3    H244355   5.299   4.362   0.259
14804TIP3   OH244356   5.746   6.381   6.720
14804TIP3    H144357   5.699   6.431   6.653
14804TIP3    H244358   5.791   6.312   6.671
14805TIP3   OH244359   2.450   5.777   0.713
14805TIP3    H144360   2.538   5.761   0.679
14805TIP3    H244361   2.448   5.730   0.797
14806TIP3   OH244362   0.439   5.338   2.810
14806TIP3    H144363   0.430   5.312   2.902
14806TIP3    H244364   0.349   5.350   2.780
14807TIP3   OH244365   1.876   1.784   1.092
14807TIP3    H144366   1.860   1.877   1.081
14807TIP3    H244367   1.788   1.745   1.092
14808TIP3   OH244368   4.981   6.242   3.717
14808TIP3    H144369   5.036   6.247   3.796
14808TIP3    H244370   4.931   6.161   3.728
14809TIP3   OH244371   5.528   5.776   4.289
14809TIP3    H144372   5.547   5.694   4.244
14809TIP3    H244373   5.604   5.831   4.273
14810TIP3   OH244374   1.303   1.236   1.804
14810TIP3    H144375   1.317   1.277   1.718
14810TIP3    H244376   1.378   1.265   1.857
14811TIP3   OH244377   7.378   4.913   6.456
14811TIP3    H144378   7.400   4.820   6.448
14811TIP3    H244379   7.283   4.915   6.455
14812TIP3   OH244380   7.291   6.877   3.406
14812TIP3    H144381   7.313   6.967   3.383
14812TIP3    H244382   7.375   6.831   3.403
14813TIP3   OH244383   7.021   0.853   5.874
14813TIP3    H144384   7.001   0.809   5.792
14813TIP3    H244385   7.117   0.860   5.875
14814TIP3   OH244386   2.842   2.348   3.159
14814TIP3    H144387   2.759   2.382   3.190
14814TIP3    H244388   2.857   2.269   3.211
14815TIP3   OH244389   7.287   3.010   1.772
14815TIP3    H144390   7.335   3.053   1.701
14815TIP3    H244391   7.355   2.972   1.828
14816TIP3   OH244392   1.361   3.264   6.104
14816TIP3    H144393   1.451   3.232   6.115
14816TIP3    H244394   1.323   3.261   6.191
14817TIP3   OH244395   6.313   7.718   0.294
14817TIP3    H144396   6.404   7.748   0.284
14817TIP3    H244397   6.305   7.694   0.386
14818TIP3   OH244398   3.892   0.627   1.262
14818TIP3    H144399   3.962   0.591   1.207
14818TIP3    H244400   3.885   0.718   1.234
14819TIP3   OH244401   1.666   2.535   1.748
14819TIP3    H144402   1.740   2.520   1.690
14819TIP3    H244403   1.705   2.554   1.833
14820TIP3   OH244404   5.613   1.113   3.747
14820TIP3    H144405   5.690   1.065   3.775
14820TIP3    H244406   5.647   1.185   3.695
14821TIP3   OH244407   0.571   7.177   4.524
14821TIP3    H144408   0.529   7.263   4.519
14821TIP3    H244409   0.501   7.119   4.554
14822TIP3   OH244410   1.073   3.039   1.317
14822TIP3    H144411   1.143   3.078   1.264
14822TIP3    H244412   1.115   3.016   1.400
14823TIP3   OH244413   4.394   4.447   5.224
14823TIP3    H144414   4.366   4.382   5.160
14823TIP3    H244415   4.422   4.396   5.300
14824TIP3   OH244416   4.360   6.232   3.402
14824TIP3    H144417   4.344   6.145   3.365
14824TIP3    H244418   4.285   6.248   3.459
14825TIP3   OH244419   6.738   3.973   4.923
14825TIP3    H144420   6.815   3.937   4.879
14825TIP3    H244421   6.700   3.899   4.970
14826TIP3   OH244422   3.664   3.075   1.461
14826TIP3    H144423   3.704   3.161   1.471
14826TIP3    H244424   3.576   3.084   1.496
14827TIP3   OH244425   5.656   6.959   1.708
14827TIP3    H144426   5.573   6.962   1.756
14827TIP3    H244427   5.633   6.987   1.619
14828TIP3   OH244428   3.378   3.554   2.291
14828TIP3    H144429   3.450   3.505   2.331
14828TIP3    H244430   3.305   3.492   2.289
14829TIP3   OH244431   3.333   1.905   6.137
14829TIP3    H144432   3.390   1.910   6.214
14829TIP3    H244433   3.261   1.849   6.164
14830TIP3   OH244434   3.259   7.616   0.384
14830TIP3    H144435   3.339   7.643   0.339
14830TIP3    H244436   3.281   7.532   0.424
14831TIP3   OH244437   0.319   4.445   1.951
14831TIP3    H144438   0.373   4.415   1.878
14831TIP3    H244439   0.329   4.377   2.018
14832TIP3   OH244440   3.126   7.323   5.874
14832TIP3    H144441   3.172   7.372   5.942
14832TIP3    H244442   3.153   7.232   5.887
14833TIP3   OH244443   5.275   1.875   6.148
14833TIP3    H144444   5.275   1.935   6.073
14833TIP3    H244445   5.368   1.861   6.167
14834TIP3   OH244446   0.900   4.529   1.314
14834TIP3    H144447   0.983   4.540   1.268
14834TIP3    H244448   0.879   4.436   1.304
14835TIP3   OH244449   0.976   3.947   3.661
14835TIP3    H144450   0.900   3.965   3.716
14835TIP3    H244451   1.043   4.008   3.692
14836TIP3   OH244452   1.387   1.249   3.621
14836TIP3    H144453   1.369   1.262   3.528
14836TIP3    H244454   1.300   1.241   3.661
14837TIP3   OH244455   0.463   2.877   6.382
14837TIP3    H144456   0.408   2.925   6.320
14837TIP3    H244457   0.433   2.787   6.378
14838TIP3   OH244458   8.172   5.608   1.456
14838TIP3    H144459   8.165   5.687   1.509
14838TIP3    H244460   8.242   5.557   1.497
14839TIP3   OH244461   0.554   5.127   1.224
14839TIP3    H144462   0.604   5.111   1.304
14839TIP3    H244463   0.568   5.220   1.204
   8.30212   7.82732   6.77865   0.00000   0.00000  -2.76737   0.00000  -2.76737  -3.91366
